
     Program PWSCF v.6.5 starts on  9Jul2021 at 17:47: 2 

     This program is part of the open-source Quantum ESPRESSO suite
     for quantum simulation of materials; please cite
         "P. Giannozzi et al., J. Phys.:Condens. Matter 21 395502 (2009);
         "P. Giannozzi et al., J. Phys.:Condens. Matter 29 465901 (2017);
          URL http://www.quantum-espresso.org", 
     in publications or presentations arising from this work. More details at
     http://www.quantum-espresso.org/quote

     Parallel version (MPI), running on    20 processors

     MPI processes distributed on     2 nodes
     R & G space division:  proc/nbgrp/npool/nimage =      20
     Reading input from CBCO_Y_cleave_0.25_sep.pwi
Warning: card &CELL ignored
Warning: card     CELL_DYNAMICS = 'BFGS' ignored
Warning: card     PRESS_CONV_THR = 0.5 ignored
Warning: card / ignored

     Current dimensions of program PWSCF are:
     Max number of different atomic species (ntypx) = 10
     Max number of k-points (npk) =  40000
     Max angular momentum in pseudopotentials (lmaxx) =  3

     Subspace diagonalization in iterative solution of the eigenvalue problem:
     one sub-group per band group will be used
     scalapack distributed-memory algorithm (size of sub-group:  4*  4 procs)

     Message from routine setup:
     using ibrav=0 with symmetry is DISCOURAGED, use correct ibrav instead
 
     Parallelization info
     --------------------
     sticks:   dense  smooth     PW     G-vecs:    dense   smooth      PW
     Min         149      50     14                70565    13584    2122
     Max         150      51     15                70602    13609    2165
     Sum        2991    1007    289              1411709   271883   42721
 


     bravais-lattice index     =            0
     lattice parameter (alat)  =       7.4270  a.u.
     unit-cell volume          =    4326.9901 (a.u.)^3
     number of atoms/cell      =           28
     number of atomic types    =            4
     number of electrons       =       227.00
     number of Kohn-Sham states=          137
     kinetic-energy cutoff     =      60.0000  Ry
     charge density cutoff     =     720.0000  Ry
     convergence threshold     =      1.0E-10
     mixing beta               =       0.7000
     number of iterations used =           10  local-TF  mixing
     Exchange-correlation= SLA PW PBE PBE
                           (   1   4   3   4   0   0   0)
     nstep                     =          300


     celldm(1)=   7.427040  celldm(2)=   0.000000  celldm(3)=   0.000000
     celldm(4)=   0.000000  celldm(5)=   0.000000  celldm(6)=   0.000000

     crystal axes: (cart. coord. in units of alat)
               a(1) = (   1.000000   0.000000   0.000000 )  
               a(2) = (   0.000000   0.947081   0.000000 )  
               a(3) = (   0.000000   0.000000  11.151966 )  

     reciprocal axes: (cart. coord. in units 2 pi/alat)
               b(1) = (  1.000000  0.000000  0.000000 )  
               b(2) = (  0.000000  1.055876  0.000000 )  
               b(3) = (  0.000000  0.000000  0.089670 )  


     PseudoPot. # 1 for Ba read from file:
     ./pseudo/Ba.pbe-nsp-van.UPF
     MD5 check sum: 2b9c31dd849566dd297d80989662b7a0
     Pseudo is Ultrasoft + core correction, Zval = 10.0
     Generated by new atomic code, or converted to UPF format
     Using radial grid of  907 points,  6 beta functions with: 
                l(1) =   0
                l(2) =   0
                l(3) =   1
                l(4) =   1
                l(5) =   2
                l(6) =   2
     Q(r) pseudized with  6 coefficients,  rinner =    1.200   1.200   1.200
                                                       1.200   1.200

     PseudoPot. # 2 for Ca read from file:
     ./pseudo/Ca.pbe-nsp-van.UPF
     MD5 check sum: 6471098428ff4fa451746d08035ff179
     Pseudo is Ultrasoft + core correction, Zval = 10.0
     Generated by new atomic code, or converted to UPF format
     Using radial grid of  845 points,  6 beta functions with: 
                l(1) =   0
                l(2) =   0
                l(3) =   1
                l(4) =   1
                l(5) =   2
                l(6) =   2
     Q(r) pseudized with  6 coefficients,  rinner =    1.200   1.200   1.200
                                                       1.200   1.200

     PseudoPot. # 3 for Cu read from file:
     ./pseudo/Cu.pbe-n-van_ak.UPF
     MD5 check sum: 34e3282627ffb533726feb647e090d62
     Pseudo is Ultrasoft + core correction, Zval = 11.0
     Generated by new atomic code, or converted to UPF format
     Using radial grid of  867 points,  6 beta functions with: 
                l(1) =   0
                l(2) =   0
                l(3) =   1
                l(4) =   1
                l(5) =   2
                l(6) =   2
     Q(r) pseudized with  8 coefficients,  rinner =    1.400   1.400   1.400
                                                       1.400   1.400

     PseudoPot. # 4 for O  read from file:
     ./pseudo/O.pbe-van_ak.UPF
     MD5 check sum: 783ce7fe4c79b6a4916957118fed0856
     Pseudo is Ultrasoft, Zval =  6.0
     Generated by new atomic code, or converted to UPF format
     Using radial grid of  737 points,  4 beta functions with: 
                l(1) =   0
                l(2) =   0
                l(3) =   1
                l(4) =   1
     Q(r) pseudized with  8 coefficients,  rinner =    0.800   0.800   0.800


     atomic species   valence    mass     pseudopotential
        Ba            10.00   137.32700     Ba( 1.00)
        Ca            10.00    40.07800     Ca( 1.00)
        Cu            11.00    63.54600     Cu( 1.00)
        O              6.00    15.99900     O ( 1.00)

      4 Sym. Ops. (no inversion) found



   Cartesian axes

     site n.     atom                  positions (alat units)
         1           O   tau(   1) = (   0.0000000   0.4735409  -0.0469745  )
         2           Cu  tau(   2) = (   0.0000000   0.0000000   0.0264565  )
         3           O   tau(   3) = (   0.0000000   0.0000000   0.5030914  )
         4           Ba  tau(   4) = (   0.5000000   0.4735409   0.5690292  )
         5           Cu  tau(   5) = (   0.0000000   0.0000000   1.0374254  )
         6           O   tau(   6) = (   0.5000000   0.0000000   1.0768099  )
         7           O   tau(   7) = (   0.0000000   0.4735409   1.1116985  )
         8           Ca  tau(   8) = (   0.5000000   0.4735409   1.4976260  )
         9           O   tau(   9) = (   0.0000000   0.4735409   1.8667529  )
        10           O   tau(  10) = (   0.5000000   0.0000000   1.9044124  )
        11           Cu  tau(  11) = (   0.0000000   0.0000000   1.9512546  )
        12           Ba  tau(  12) = (   0.5000000   0.4735409   2.4295764  )
        13           O   tau(  13) = (   0.0000000   0.0000000   2.5115362  )
        14           O   tau(  14) = (   0.0000000   0.4735409   2.9918528  )
        15           Cu  tau(  15) = (   0.0000000   0.0000000   2.9919088  )
        16           O   tau(  16) = (   0.0000000   0.0000000   3.4722686  )
        17           Ba  tau(  17) = (   0.5000000   0.4735409   3.5542208  )
        18           Cu  tau(  18) = (   0.0000000   0.0000000   4.0325248  )
        19           O   tau(  19) = (   0.5000000   0.0000000   4.0793669  )
        20           O   tau(  20) = (   0.0000000   0.4735409   4.1170213  )
        21           Ca  tau(  21) = (   0.5000000   0.4735409   4.4861584  )
        22           O   tau(  22) = (   0.0000000   0.4735409   4.8848053  )
        23           O   tau(  23) = (   0.5000000   0.0000000   4.9960255  )
        24           Cu  tau(  24) = (   0.0000000   0.0000000   5.0354126  )
        25           Ba  tau(  25) = (   0.5000000   0.4735409   5.4783624  )
        26           O   tau(  26) = (   0.0000000   0.0000000   5.5442900  )
        27           Cu  tau(  27) = (   0.0000000   0.0000000   6.0209299  )
        28           O   tau(  28) = (   0.0000000   0.4735409   6.0943482  )

     number of k points=    25  Gaussian smearing, width (Ry)=  0.0100
                       cart. coord. in units 2pi/alat
        k(    1) = (   0.0000000   0.0000000   0.0000000), wk =   0.0312500
        k(    2) = (   0.0000000   0.1319845   0.0000000), wk =   0.0625000
        k(    3) = (   0.0000000   0.2639689   0.0000000), wk =   0.0625000
        k(    4) = (   0.0000000   0.3959534   0.0000000), wk =   0.0625000
        k(    5) = (   0.0000000  -0.5279378   0.0000000), wk =   0.0312500
        k(    6) = (   0.1250000   0.0000000   0.0000000), wk =   0.0625000
        k(    7) = (   0.1250000   0.1319845   0.0000000), wk =   0.1250000
        k(    8) = (   0.1250000   0.2639689   0.0000000), wk =   0.1250000
        k(    9) = (   0.1250000   0.3959534   0.0000000), wk =   0.1250000
        k(   10) = (   0.1250000  -0.5279378   0.0000000), wk =   0.0625000
        k(   11) = (   0.2500000   0.0000000   0.0000000), wk =   0.0625000
        k(   12) = (   0.2500000   0.1319845   0.0000000), wk =   0.1250000
        k(   13) = (   0.2500000   0.2639689   0.0000000), wk =   0.1250000
        k(   14) = (   0.2500000   0.3959534   0.0000000), wk =   0.1250000
        k(   15) = (   0.2500000  -0.5279378   0.0000000), wk =   0.0625000
        k(   16) = (   0.3750000   0.0000000   0.0000000), wk =   0.0625000
        k(   17) = (   0.3750000   0.1319845   0.0000000), wk =   0.1250000
        k(   18) = (   0.3750000   0.2639689   0.0000000), wk =   0.1250000
        k(   19) = (   0.3750000   0.3959534   0.0000000), wk =   0.1250000
        k(   20) = (   0.3750000  -0.5279378   0.0000000), wk =   0.0625000
        k(   21) = (  -0.5000000   0.0000000   0.0000000), wk =   0.0312500
        k(   22) = (  -0.5000000   0.1319845   0.0000000), wk =   0.0625000
        k(   23) = (  -0.5000000   0.2639689   0.0000000), wk =   0.0625000
        k(   24) = (  -0.5000000   0.3959534   0.0000000), wk =   0.0625000
        k(   25) = (  -0.5000000  -0.5279378   0.0000000), wk =   0.0312500

     Dense  grid:  1411709 G-vectors     FFT dimensions: (  64,  64, 720)

     Smooth grid:   271883 G-vectors     FFT dimensions: (  40,  36, 432)

     Estimated max dynamical RAM per process >     450.82 MB

     Estimated total dynamical RAM >       8.81 GB

     Initial potential from superposition of free atoms

     starting charge  226.84630, renormalised to  227.00000

     negative rho (up, down):  3.532E-03 0.000E+00
     Starting wfcs are  195 randomized atomic wfcs

     total cpu time spent up to now is       11.0 secs

     Self-consistent Calculation

     iteration #  1     ecut=    60.00 Ry     beta= 0.70
     Davidson diagonalization with overlap
     ethr =  1.00E-02,  avg # of iterations =  2.0

     negative rho (up, down):  2.759E-04 0.000E+00

     total cpu time spent up to now is       28.6 secs

     total energy              =   -1839.46336477 Ry
     Harris-Foulkes estimate   =   -1845.31914611 Ry
     estimated scf accuracy    <      18.74062154 Ry

     iteration #  2     ecut=    60.00 Ry     beta= 0.70
     Davidson diagonalization with overlap
     ethr =  8.26E-03,  avg # of iterations =  2.0

     negative rho (up, down):  2.519E-04 0.000E+00

     total cpu time spent up to now is       66.4 secs

     total energy              =   -1842.11078659 Ry
     Harris-Foulkes estimate   =   -1843.95104396 Ry
     estimated scf accuracy    <      12.08432624 Ry

     iteration #  3     ecut=    60.00 Ry     beta= 0.70
     Davidson diagonalization with overlap
     ethr =  5.32E-03,  avg # of iterations =  1.8

     negative rho (up, down):  2.419E-04 0.000E+00

     total cpu time spent up to now is       83.2 secs

     total energy              =   -1842.66146602 Ry
     Harris-Foulkes estimate   =   -1843.10501923 Ry
     estimated scf accuracy    <       3.95614608 Ry

     iteration #  4     ecut=    60.00 Ry     beta= 0.70
     Davidson diagonalization with overlap
     ethr =  1.74E-03,  avg # of iterations =  1.1

     negative rho (up, down):  2.375E-04 0.000E+00

     total cpu time spent up to now is       99.2 secs

     total energy              =   -1842.85654743 Ry
     Harris-Foulkes estimate   =   -1843.03565976 Ry
     estimated scf accuracy    <       7.65872258 Ry

     iteration #  5     ecut=    60.00 Ry     beta= 0.70
     Davidson diagonalization with overlap
     ethr =  1.74E-03,  avg # of iterations =  1.0

     negative rho (up, down):  2.345E-04 0.000E+00

     total cpu time spent up to now is      115.1 secs

     total energy              =   -1842.90135073 Ry
     Harris-Foulkes estimate   =   -1842.92648369 Ry
     estimated scf accuracy    <       1.35829080 Ry

     iteration #  6     ecut=    60.00 Ry     beta= 0.70
     Davidson diagonalization with overlap
     ethr =  5.98E-04,  avg # of iterations =  1.0

     negative rho (up, down):  2.340E-04 0.000E+00

     total cpu time spent up to now is      130.7 secs

     total energy              =   -1842.90753521 Ry
     Harris-Foulkes estimate   =   -1842.92083451 Ry
     estimated scf accuracy    <       2.20978966 Ry

     iteration #  7     ecut=    60.00 Ry     beta= 0.70
     Davidson diagonalization with overlap
     ethr =  5.98E-04,  avg # of iterations =  1.0

     negative rho (up, down):  2.338E-04 0.000E+00

     total cpu time spent up to now is      146.5 secs

     total energy              =   -1842.90382360 Ry
     Harris-Foulkes estimate   =   -1842.91447269 Ry
     estimated scf accuracy    <       1.44447468 Ry

     iteration #  8     ecut=    60.00 Ry     beta= 0.70
     Davidson diagonalization with overlap
     ethr =  5.98E-04,  avg # of iterations =  1.0

     negative rho (up, down):  2.338E-04 0.000E+00

     total cpu time spent up to now is      162.2 secs

     total energy              =   -1842.89500397 Ry
     Harris-Foulkes estimate   =   -1842.90769108 Ry
     estimated scf accuracy    <       0.83774315 Ry

     iteration #  9     ecut=    60.00 Ry     beta= 0.70
     Davidson diagonalization with overlap
     ethr =  3.69E-04,  avg # of iterations =  1.2

     negative rho (up, down):  2.336E-04 0.000E+00

     total cpu time spent up to now is      178.0 secs

     total energy              =   -1842.89269365 Ry
     Harris-Foulkes estimate   =   -1842.89908866 Ry
     estimated scf accuracy    <       0.27252814 Ry

     iteration # 10     ecut=    60.00 Ry     beta= 0.70
     Davidson diagonalization with overlap
     ethr =  1.20E-04,  avg # of iterations =  6.0

     negative rho (up, down):  2.339E-04 0.000E+00

     total cpu time spent up to now is      200.9 secs

     total energy              =   -1842.89167104 Ry
     Harris-Foulkes estimate   =   -1842.89482424 Ry
     estimated scf accuracy    <       0.08773093 Ry

     iteration # 11     ecut=    60.00 Ry     beta= 0.70
     Davidson diagonalization with overlap
     ethr =  3.86E-05,  avg # of iterations =  5.6

     negative rho (up, down):  2.336E-04 0.000E+00

     total cpu time spent up to now is      222.4 secs

     total energy              =   -1842.89037557 Ry
     Harris-Foulkes estimate   =   -1842.89252764 Ry
     estimated scf accuracy    <       0.05995206 Ry

     iteration # 12     ecut=    60.00 Ry     beta= 0.70
     Davidson diagonalization with overlap
     ethr =  2.64E-05,  avg # of iterations =  3.2

     negative rho (up, down):  1.020E-03 0.000E+00

     total cpu time spent up to now is      240.7 secs

     total energy              =   -1842.88856028 Ry
     Harris-Foulkes estimate   =   -1842.89095236 Ry
     estimated scf accuracy    <       0.06430795 Ry

     iteration # 13     ecut=    60.00 Ry     beta= 0.70
     Davidson diagonalization with overlap
     c_bands:  1 eigenvalues not converged
     ethr =  2.64E-05,  avg # of iterations =  3.0

     negative rho (up, down):  6.689E-03 0.000E+00

     total cpu time spent up to now is      258.9 secs

     total energy              =   -1842.88773833 Ry
     Harris-Foulkes estimate   =   -1842.88905196 Ry
     estimated scf accuracy    <       0.01857514 Ry

     iteration # 14     ecut=    60.00 Ry     beta= 0.70
     Davidson diagonalization with overlap
     ethr =  8.18E-06,  avg # of iterations =  9.4

     negative rho (up, down):  7.454E-03 0.000E+00

     total cpu time spent up to now is      285.6 secs

     total energy              =   -1842.88732746 Ry
     Harris-Foulkes estimate   =   -1842.88817520 Ry
     estimated scf accuracy    <       0.01834819 Ry

     iteration # 15     ecut=    60.00 Ry     beta= 0.70
     Davidson diagonalization with overlap
     ethr =  8.08E-06,  avg # of iterations =  2.1

     negative rho (up, down):  2.156E-02 0.000E+00

     total cpu time spent up to now is      302.5 secs

     total energy              =   -1842.88572372 Ry
     Harris-Foulkes estimate   =   -1842.88744409 Ry
     estimated scf accuracy    <       0.01456835 Ry

     iteration # 16     ecut=    60.00 Ry     beta= 0.70
     Davidson diagonalization with overlap
     ethr =  6.42E-06,  avg # of iterations =  7.7

     negative rho (up, down):  2.118E-02 0.000E+00

     total cpu time spent up to now is      328.5 secs

     total energy              =   -1842.88508117 Ry
     Harris-Foulkes estimate   =   -1842.88595803 Ry
     estimated scf accuracy    <       0.00775022 Ry

     iteration # 17     ecut=    60.00 Ry     beta= 0.70
     Davidson diagonalization with overlap
     c_bands:  1 eigenvalues not converged
     ethr =  3.41E-06,  avg # of iterations =  7.9

     negative rho (up, down):  1.404E-02 0.000E+00

     total cpu time spent up to now is      353.9 secs

     total energy              =   -1842.88482702 Ry
     Harris-Foulkes estimate   =   -1842.88525287 Ry
     estimated scf accuracy    <       0.00417872 Ry

     iteration # 18     ecut=    60.00 Ry     beta= 0.70
     Davidson diagonalization with overlap
     ethr =  1.84E-06,  avg # of iterations =  4.5

     negative rho (up, down):  1.689E-02 0.000E+00

     total cpu time spent up to now is      373.7 secs

     total energy              =   -1842.88465838 Ry
     Harris-Foulkes estimate   =   -1842.88497007 Ry
     estimated scf accuracy    <       0.00419826 Ry

     iteration # 19     ecut=    60.00 Ry     beta= 0.70
     Davidson diagonalization with overlap
     ethr =  1.84E-06,  avg # of iterations =  8.2

     negative rho (up, down):  1.139E-02 0.000E+00

     total cpu time spent up to now is      399.7 secs

     total energy              =   -1842.88460097 Ry
     Harris-Foulkes estimate   =   -1842.88482417 Ry
     estimated scf accuracy    <       0.00129571 Ry

     iteration # 20     ecut=    60.00 Ry     beta= 0.70
     Davidson diagonalization with overlap
     c_bands:  1 eigenvalues not converged
     ethr =  5.71E-07,  avg # of iterations =  5.4

     negative rho (up, down):  3.657E-03 0.000E+00

     total cpu time spent up to now is      420.9 secs

     total energy              =   -1842.88452123 Ry
     Harris-Foulkes estimate   =   -1842.88464960 Ry
     estimated scf accuracy    <       0.00049327 Ry

     iteration # 21     ecut=    60.00 Ry     beta= 0.70
     Davidson diagonalization with overlap
     c_bands:  1 eigenvalues not converged
     c_bands:  1 eigenvalues not converged
     c_bands:  1 eigenvalues not converged
     ethr =  2.17E-07,  avg # of iterations =  9.2

     negative rho (up, down):  1.934E-03 0.000E+00

     total cpu time spent up to now is      448.0 secs

     total energy              =   -1842.88454338 Ry
     Harris-Foulkes estimate   =   -1842.88453348 Ry
     estimated scf accuracy    <       0.00007886 Ry

     iteration # 22     ecut=    60.00 Ry     beta= 0.70
     Davidson diagonalization with overlap
     c_bands:  1 eigenvalues not converged
     c_bands:  1 eigenvalues not converged
     ethr =  3.47E-08,  avg # of iterations =  6.8

     negative rho (up, down):  1.345E-03 0.000E+00

     total cpu time spent up to now is      471.0 secs

     total energy              =   -1842.88456010 Ry
     Harris-Foulkes estimate   =   -1842.88454800 Ry
     estimated scf accuracy    <       0.00005007 Ry

     iteration # 23     ecut=    60.00 Ry     beta= 0.70
     Davidson diagonalization with overlap
     ethr =  2.21E-08,  avg # of iterations =  5.1

     negative rho (up, down):  1.134E-03 0.000E+00

     total cpu time spent up to now is      491.5 secs

     total energy              =   -1842.88456114 Ry
     Harris-Foulkes estimate   =   -1842.88456109 Ry
     estimated scf accuracy    <       0.00003596 Ry

     iteration # 24     ecut=    60.00 Ry     beta= 0.70
     Davidson diagonalization with overlap
     ethr =  1.58E-08,  avg # of iterations =  1.1

     negative rho (up, down):  1.156E-03 0.000E+00

     total cpu time spent up to now is      507.5 secs

     total energy              =   -1842.88456369 Ry
     Harris-Foulkes estimate   =   -1842.88456199 Ry
     estimated scf accuracy    <       0.00001169 Ry

     iteration # 25     ecut=    60.00 Ry     beta= 0.70
     Davidson diagonalization with overlap
     ethr =  5.15E-09,  avg # of iterations =  2.6

     negative rho (up, down):  1.351E-03 0.000E+00

     total cpu time spent up to now is      525.0 secs

     total energy              =   -1842.88456350 Ry
     Harris-Foulkes estimate   =   -1842.88456481 Ry
     estimated scf accuracy    <       0.00001658 Ry

     iteration # 26     ecut=    60.00 Ry     beta= 0.70
     Davidson diagonalization with overlap
     ethr =  5.15E-09,  avg # of iterations =  1.4

     negative rho (up, down):  1.385E-03 0.000E+00

     total cpu time spent up to now is      541.3 secs

     total energy              =   -1842.88456384 Ry
     Harris-Foulkes estimate   =   -1842.88456415 Ry
     estimated scf accuracy    <       0.00000763 Ry

     iteration # 27     ecut=    60.00 Ry     beta= 0.70
     Davidson diagonalization with overlap
     ethr =  3.36E-09,  avg # of iterations =  1.0

     negative rho (up, down):  1.478E-03 0.000E+00

     total cpu time spent up to now is      556.8 secs

     total energy              =   -1842.88456384 Ry
     Harris-Foulkes estimate   =   -1842.88456405 Ry
     estimated scf accuracy    <       0.00000203 Ry

     iteration # 28     ecut=    60.00 Ry     beta= 0.70
     Davidson diagonalization with overlap
     ethr =  8.95E-10,  avg # of iterations =  2.0

     negative rho (up, down):  1.471E-03 0.000E+00

     total cpu time spent up to now is      573.7 secs

     total energy              =   -1842.88456389 Ry
     Harris-Foulkes estimate   =   -1842.88456390 Ry
     estimated scf accuracy    <       0.00000073 Ry

     iteration # 29     ecut=    60.00 Ry     beta= 0.70
     Davidson diagonalization with overlap
     ethr =  3.20E-10,  avg # of iterations =  2.6

     negative rho (up, down):  1.477E-03 0.000E+00

     total cpu time spent up to now is      591.8 secs

     total energy              =   -1842.88456389 Ry
     Harris-Foulkes estimate   =   -1842.88456391 Ry
     estimated scf accuracy    <       0.00000022 Ry

     iteration # 30     ecut=    60.00 Ry     beta= 0.70
     Davidson diagonalization with overlap
     ethr =  9.49E-11,  avg # of iterations =  2.2

     negative rho (up, down):  1.467E-03 0.000E+00

     total cpu time spent up to now is      609.1 secs

     total energy              =   -1842.88456391 Ry
     Harris-Foulkes estimate   =   -1842.88456391 Ry
     estimated scf accuracy    <       0.00000012 Ry

     iteration # 31     ecut=    60.00 Ry     beta= 0.70
     Davidson diagonalization with overlap
     ethr =  5.16E-11,  avg # of iterations =  1.1

     negative rho (up, down):  1.466E-03 0.000E+00

     total cpu time spent up to now is      624.9 secs

     total energy              =   -1842.88456392 Ry
     Harris-Foulkes estimate   =   -1842.88456392 Ry
     estimated scf accuracy    <       0.00000002 Ry

     iteration # 32     ecut=    60.00 Ry     beta= 0.70
     Davidson diagonalization with overlap
     ethr =  9.79E-12,  avg # of iterations =  2.9

     negative rho (up, down):  1.470E-03 0.000E+00

     total cpu time spent up to now is      643.2 secs

     total energy              =   -1842.88456392 Ry
     Harris-Foulkes estimate   =   -1842.88456392 Ry
     estimated scf accuracy    <       0.00000001 Ry

     iteration # 33     ecut=    60.00 Ry     beta= 0.70
     Davidson diagonalization with overlap
     ethr =  6.08E-12,  avg # of iterations =  1.0

     negative rho (up, down):  1.468E-03 0.000E+00

     total cpu time spent up to now is      658.7 secs

     total energy              =   -1842.88456392 Ry
     Harris-Foulkes estimate   =   -1842.88456392 Ry
     estimated scf accuracy    <          6.9E-09 Ry

     iteration # 34     ecut=    60.00 Ry     beta= 0.70
     Davidson diagonalization with overlap
     ethr =  3.04E-12,  avg # of iterations =  1.2

     negative rho (up, down):  1.471E-03 0.000E+00

     total cpu time spent up to now is      674.4 secs

     total energy              =   -1842.88456391 Ry
     Harris-Foulkes estimate   =   -1842.88456392 Ry
     estimated scf accuracy    <          4.3E-09 Ry

     iteration # 35     ecut=    60.00 Ry     beta= 0.70
     Davidson diagonalization with overlap
     ethr =  1.91E-12,  avg # of iterations =  1.2

     negative rho (up, down):  1.471E-03 0.000E+00

     total cpu time spent up to now is      690.0 secs

     total energy              =   -1842.88456391 Ry
     Harris-Foulkes estimate   =   -1842.88456391 Ry
     estimated scf accuracy    <          1.2E-09 Ry

     iteration # 36     ecut=    60.00 Ry     beta= 0.70
     Davidson diagonalization with overlap
     ethr =  5.16E-13,  avg # of iterations =  2.5

     negative rho (up, down):  1.474E-03 0.000E+00

     total cpu time spent up to now is      707.8 secs

     total energy              =   -1842.88456391 Ry
     Harris-Foulkes estimate   =   -1842.88456391 Ry
     estimated scf accuracy    <          5.7E-10 Ry

     iteration # 37     ecut=    60.00 Ry     beta= 0.70
     Davidson diagonalization with overlap
     ethr =  2.52E-13,  avg # of iterations =  1.6

     negative rho (up, down):  1.474E-03 0.000E+00

     total cpu time spent up to now is      724.0 secs

     total energy              =   -1842.88456391 Ry
     Harris-Foulkes estimate   =   -1842.88456391 Ry
     estimated scf accuracy    <          6.6E-10 Ry

     iteration # 38     ecut=    60.00 Ry     beta= 0.70
     Davidson diagonalization with overlap
     ethr =  2.52E-13,  avg # of iterations =  1.0

     negative rho (up, down):  1.475E-03 0.000E+00

     total cpu time spent up to now is      739.4 secs

     total energy              =   -1842.88456391 Ry
     Harris-Foulkes estimate   =   -1842.88456391 Ry
     estimated scf accuracy    <          2.1E-10 Ry

     iteration # 39     ecut=    60.00 Ry     beta= 0.70
     Davidson diagonalization with overlap
     ethr =  1.00E-13,  avg # of iterations =  1.1

     negative rho (up, down):  1.475E-03 0.000E+00

     total cpu time spent up to now is      754.5 secs

     End of self-consistent calculation

          k = 0.0000 0.0000 0.0000 ( 34019 PWs)   bands (ev):

   -35.9456 -35.5055 -22.7812 -22.7103 -22.4921 -22.4459 -17.2498 -17.0100
   -16.9981 -16.9497 -16.5566 -16.5453 -15.2207 -15.0958 -14.7686 -14.7398
   -14.5930 -14.5905 -14.4912 -14.1714 -14.1005 -13.9012 -13.8790 -13.7427
   -13.6836 -13.6584 -13.5464  -7.9113  -7.8510  -7.8416  -7.8041  -7.6958
    -7.6775  -7.6266  -7.6111  -7.5391  -7.4870  -7.3701  -7.3244  -2.5098
    -2.2491  -2.1747  -1.7880  -1.7491  -1.7478  -1.6859  -1.5972  -1.5872
    -1.4579  -1.4549  -1.4022  -1.3360  -1.1393  -1.1233  -0.9885  -0.9581
    -0.7570  -0.5128  -0.4949  -0.4839  -0.3777  -0.2958  -0.2266  -0.1989
    -0.1882  -0.1837  -0.1750  -0.1701  -0.1650  -0.1572  -0.1142  -0.0983
    -0.0664  -0.0112   0.0437   0.0856   0.1797   0.1799   0.1972   0.1995
     0.2142   0.2543   0.2610   0.3387   0.3721   0.3904   0.4051   0.5041
     0.5043   0.8819   0.8843   0.9629   0.9691   1.0440   1.0978   1.2640
     1.3812   1.4102   1.4284   1.4669   1.4905   1.5597   1.5651   1.6112
     1.6143   1.6362   1.7702   1.8358   1.8982   1.9364   2.1174   2.2335
     2.2667   2.2962   2.3633   2.3741   2.4711   2.6170   2.7008   5.2719
     5.2978   5.8484   6.2047   6.5076   6.7371   6.8449   7.2292   7.3873
     8.0520   8.1705   8.3239   8.4075   8.4745   8.6583   8.7145   9.1480
     9.1918

          k = 0.0000 0.1320 0.0000 ( 34015 PWs)   bands (ev):

   -35.9440 -35.5036 -22.7534 -22.6836 -22.4666 -22.4206 -17.2312 -17.0372
   -16.9738 -16.9477 -16.6178 -16.5543 -15.1320 -15.0336 -14.7696 -14.7101
   -14.5957 -14.5584 -14.4639 -14.1594 -14.1100 -13.9066 -13.9040 -13.7880
   -13.7164 -13.7025 -13.6037  -7.8706  -7.8622  -7.8412  -7.7562  -7.7190
    -7.6780  -7.6532  -7.6227  -7.4945  -7.4416  -7.4187  -7.3707  -2.5440
    -2.3081  -2.2317  -2.0920  -2.0611  -1.9732  -1.9519  -1.5787  -1.5712
    -1.5666  -1.5635  -1.5497  -1.4402  -1.3059  -1.2927  -1.2430  -1.0437
    -0.8927  -0.5922  -0.5868  -0.5651  -0.5475  -0.4751  -0.3988  -0.3796
    -0.3463  -0.2807  -0.2578  -0.2458  -0.1219  -0.0789  -0.0669  -0.0569
    -0.0269   0.0417   0.0651   0.0883   0.0932   0.2034   0.2052   0.2087
     0.2292   0.2474   0.2702   0.2718   0.3460   0.3601   0.4237   0.4503
     0.8151   0.9853   1.0439   1.1387   1.1600   1.1608   1.1789   1.1908
     1.2323   1.2702   1.3672   1.4668   1.4951   1.5555   1.5802   1.6238
     1.6927   1.7186   1.7634   1.8095   1.8871   1.9293   2.0623   2.0949
     2.1763   2.1958   2.3296   2.5986   2.8781   2.9135   2.9812   5.6599
     5.6741   6.1756   6.4899   6.7081   7.0175   7.1488   7.5535   7.6586
     8.2246   8.3512   8.5403   8.5803   8.6965   8.7962   8.9441   9.2697
     9.3628

          k = 0.0000 0.2640 0.0000 ( 33931 PWs)   bands (ev):

   -35.9401 -35.4992 -22.6847 -22.6177 -22.4036 -22.3580 -17.2062 -17.1051
   -16.9427 -16.8817 -16.7722 -16.5487 -14.9525 -14.9323 -14.7782 -14.6445
   -14.5696 -14.4661 -14.4020 -14.1094 -14.0972 -13.9997 -13.9463 -13.9122
   -13.8018 -13.7725 -13.7233  -7.9096  -7.8407  -7.7752  -7.7438  -7.7381
    -7.6817  -7.6358  -7.6117  -7.5264  -7.4696  -7.3826  -7.3276  -2.7552
    -2.6921  -2.6579  -2.5764  -2.5141  -2.3476  -2.2598  -2.2002  -2.1844
    -2.1421  -1.5800  -1.5135  -1.4950  -1.3868  -1.3837  -1.2822  -1.2188
    -0.9636  -0.9359  -0.8731  -0.8671  -0.7913  -0.7271  -0.7155  -0.5709
    -0.5112  -0.4540  -0.4433  -0.4327  -0.4163  -0.3753  -0.3176  -0.2299
    -0.0499   0.0001   0.0363   0.0751   0.0935   0.1060   0.1751   0.2340
     0.2698   0.2923   0.3594   0.4557   0.6083   0.6986   0.7773   0.7807
     1.0093   1.0492   1.0817   1.1373   1.1482   1.2160   1.2454   1.2563
     1.2917   1.2956   1.3453   1.4080   1.4529   1.5678   1.6501   1.7239
     1.7805   1.7891   1.8566   1.9575   2.0088   2.0331   2.0546   2.0582
     2.0598   2.1628   2.3171   2.7173   3.0515   3.1222   3.8141   6.5680
     6.5717   6.8918   7.1564   7.3904   7.7806   7.9695   8.3978   8.4472
     8.6735   8.7803   8.8016   8.9533   9.0254   9.0580   9.1786   9.3937
     9.3999

          k = 0.0000 0.3960 0.0000 ( 33860 PWs)   bands (ev):

   -35.9362 -35.4948 -22.6134 -22.5495 -22.3387 -22.2934 -17.2575 -17.0885
   -16.9377 -16.9084 -16.7800 -16.5430 -15.0558 -14.8536 -14.6031 -14.5944
   -14.4307 -14.3658 -14.3275 -14.1376 -14.0650 -14.0281 -14.0232 -14.0104
   -13.9198 -13.8715 -13.7980  -7.9321  -7.8407  -7.8386  -7.8219  -7.6818
    -7.6241  -7.6053  -7.5979  -7.5568  -7.5073  -7.2641  -7.2065  -3.3628
    -3.2078  -3.0429  -2.9839  -2.9785  -2.9145  -2.6277  -2.3307  -2.2911
    -2.1831  -1.9205  -1.7253  -1.6622  -1.4484  -1.3888  -1.2908  -1.1657
    -1.1600  -1.0835  -1.0368  -1.0313  -0.9946  -0.9375  -0.9033  -0.7873
    -0.7472  -0.7368  -0.6697  -0.6672  -0.6261  -0.5640  -0.4948  -0.2568
    -0.1608  -0.1287  -0.0158   0.1104   0.1164   0.1334   0.2062   0.2100
     0.2429   0.2589   0.4848   0.5746   0.6969   0.8627   0.9605   0.9830
     1.0097   1.0172   1.0407   1.0864   1.1406   1.1693   1.2058   1.2163
     1.2690   1.4680   1.6106   1.6309   1.6784   1.6886   1.7043   1.7478
     1.8100   1.8299   1.9231   2.0109   2.0202   2.0655   2.1606   2.2676
     2.3395   2.4488   2.4508   2.6262   2.8916   3.0165   4.3711   7.4931
     7.5176   7.5301   8.0757   8.3436   8.5985   8.7236   8.7640   8.7968
     8.9022   9.1714   9.1723   9.3001   9.4392   9.4668   9.5432   9.5997
     9.7840

          k = 0.0000-0.5279 0.0000 ( 33926 PWs)   bands (ev):

   -35.9345 -35.4930 -22.5832 -22.5206 -22.3112 -22.2661 -17.2897 -17.0684
   -16.9606 -16.9357 -16.7351 -16.5407 -15.1156 -14.8958 -14.4883 -14.4650
   -14.4031 -14.3970 -14.1889 -14.1706 -14.1401 -14.0467 -14.0199 -13.9914
   -13.9806 -13.9502 -13.8268  -7.9320  -7.8719  -7.8516  -7.8403  -7.6734
    -7.6644  -7.5974  -7.5897  -7.5474  -7.4514  -7.2128  -7.1541  -3.6276
    -3.3866  -3.2106  -3.1903  -3.1570  -3.1348  -2.6892  -2.3757  -2.3072
    -2.1959  -2.0492  -1.8564  -1.8069  -1.4157  -1.3266  -1.2870  -1.2547
    -1.2228  -1.1200  -1.1113  -1.0937  -1.0023  -0.9818  -0.9337  -0.9188
    -0.8681  -0.8484  -0.7563  -0.7414  -0.7028  -0.6772  -0.6044  -0.2286
    -0.2245  -0.1396  -0.0113   0.1160   0.1204   0.1358   0.2012   0.2466
     0.2521   0.2536   0.5002   0.5083   0.7008   0.8576   0.8990   0.9395
     0.9662   0.9952   1.0881   1.1054   1.1827   1.1993   1.2209   1.2557
     1.4005   1.4666   1.5931   1.6336   1.6795   1.7376   1.8176   1.8178
     1.9112   2.0380   2.0939   2.0959   2.1006   2.1123   2.1458   2.2998
     2.3265   2.5726   2.6103   2.6123   2.6829   2.8390   4.5451   7.8126
     7.9182   7.9283   8.4714   8.7006   8.7559   8.9935   9.0345   9.0829
     9.0874   9.2804   9.3075   9.4090   9.4391   9.4850   9.6174  10.0274
    10.0992

          k = 0.1250 0.0000 0.0000 ( 34005 PWs)   bands (ev):

   -35.9446 -35.5044 -22.7631 -22.6922 -22.4746 -22.4289 -17.2260 -17.0046
   -16.9969 -16.9766 -16.6369 -16.5439 -15.1184 -15.0156 -14.7946 -14.7821
   -14.6361 -14.5779 -14.4965 -14.1725 -14.1095 -13.9131 -13.8943 -13.7644
   -13.7198 -13.7113 -13.5745  -7.9306  -7.8673  -7.7942  -7.7423  -7.7263
    -7.6629  -7.6527  -7.5787  -7.4709  -7.4288  -7.3397  -7.2940  -2.5407
    -2.2918  -2.2043  -1.8207  -1.7909  -1.7728  -1.7280  -1.7267  -1.7181
    -1.6571  -1.6475  -1.4224  -1.3723  -1.1373  -1.1213  -1.0258  -0.9786
    -0.7872  -0.7011  -0.6089  -0.5539  -0.4599  -0.4334  -0.3458  -0.3228
    -0.3011  -0.2593  -0.2583  -0.2288  -0.1875  -0.1582  -0.1181  -0.1102
    -0.0742  -0.0264   0.0175   0.0387   0.1727   0.1906   0.1942   0.2114
     0.2754   0.2907   0.3085   0.4249   0.4487   0.4618   0.5034   0.5192
     0.6259   0.8722   0.8984   0.9648   0.9861   1.0684   1.1333   1.1781
     1.2694   1.2979   1.4445   1.4761   1.4967   1.5066   1.5669   1.5683
     1.5936   1.6237   1.8950   1.9760   2.0684   2.0700   2.1708   2.1923
     2.2662   2.2915   2.3643   2.4287   2.4290   2.6517   2.7202   5.4610
     5.4780   6.0678   6.4110   6.6456   6.9603   7.0590   7.4218   7.6030
     8.2014   8.3039   8.5134   8.5910   8.7230   8.8484   8.9734   9.2314
     9.3318

          k = 0.1250 0.1320 0.0000 ( 33966 PWs)   bands (ev):

   -35.9430 -35.5026 -22.7362 -22.6664 -22.4499 -22.4042 -17.2090 -17.0349
   -17.0014 -16.9414 -16.6400 -16.6071 -15.0372 -14.9631 -14.7974 -14.7297
   -14.6305 -14.5430 -14.4666 -14.1564 -14.1104 -13.9188 -13.9143 -13.8025
   -13.7515 -13.7451 -13.6223  -7.9881  -7.8866  -7.8197  -7.8045  -7.7237
    -7.6499  -7.6235  -7.5687  -7.5409  -7.5176  -7.2998  -7.2515  -2.5710
    -2.3450  -2.2541  -2.0846  -2.0494  -1.9545  -1.9317  -1.7871  -1.7697
    -1.6992  -1.6107  -1.5884  -1.5575  -1.5422  -1.2961  -1.2422  -1.0855
    -0.9189  -0.8530  -0.7211  -0.6015  -0.5839  -0.5242  -0.4815  -0.4648
    -0.4389  -0.4228  -0.4105  -0.2886  -0.1832  -0.1211  -0.1086  -0.0580
    -0.0439   0.0146   0.0496   0.0700   0.0966   0.2146   0.2269   0.2394
     0.2802   0.2955   0.3107   0.3456   0.3709   0.4035   0.5954   0.6123
     0.8053   1.0399   1.1116   1.1345   1.1545   1.1953   1.2185   1.2633
     1.2872   1.3125   1.3567   1.3682   1.3777   1.4184   1.5826   1.6100
     1.6739   1.6912   1.7422   1.7985   1.8760   1.9088   2.0998   2.3322
     2.4226   2.5134   2.6100   2.6747   2.8913   2.9199   2.9935   5.8072
     5.8165   6.3389   6.6368   6.8316   7.2353   7.3545   7.7352   7.8709
     8.3684   8.4744   8.6879   8.7382   8.8773   8.9329   9.1446   9.2787
     9.3117

          k = 0.1250 0.2640 0.0000 ( 33895 PWs)   bands (ev):

   -35.9391 -35.4982 -22.6696 -22.6025 -22.3888 -22.3435 -17.1939 -17.0940
   -16.9940 -16.8522 -16.7691 -16.6196 -14.9352 -14.8631 -14.7284 -14.6308
   -14.5814 -14.4480 -14.3965 -14.1029 -14.0927 -13.9980 -13.9680 -13.9046
   -13.8281 -13.7895 -13.7277  -8.0547  -7.9556  -7.8660  -7.8415  -7.7331
    -7.6988  -7.6421  -7.6120  -7.6096  -7.5315  -7.2937  -7.2451  -2.7777
    -2.7050  -2.6654  -2.5825  -2.5230  -2.3481  -2.2500  -2.1996  -2.1771
    -2.1531  -1.7466  -1.7201  -1.6533  -1.5446  -1.5379  -1.3988  -1.3501
    -1.0049  -0.9208  -0.9126  -0.8904  -0.8254  -0.8087  -0.7868  -0.7776
    -0.6674  -0.6133  -0.6105  -0.4903  -0.4603  -0.4193  -0.2676  -0.2299
    -0.1568  -0.0787  -0.0298   0.0438   0.0561   0.0698   0.2539   0.2878
     0.3415   0.4759   0.5210   0.5792   0.7750   0.8193   0.8355   0.8638
     0.8935   1.1005   1.1290   1.1825   1.1983   1.2591   1.3070   1.3848
     1.3967   1.4289   1.4608   1.4823   1.4989   1.5558   1.5884   1.6643
     1.7037   1.7277   1.7668   1.8033   2.0182   2.0197   2.1352   2.3477
     2.6031   2.6214   2.7689   2.8911   3.0536   3.1337   3.8148   6.6289
     6.6338   6.8746   7.2331   7.4686   7.9752   8.1340   8.5732   8.6106
     8.7016   8.8510   8.8780   8.9169   9.0335   9.0820   9.2010   9.2833
     9.4334

          k = 0.1250 0.3960 0.0000 ( 33906 PWs)   bands (ev):

   -35.9352 -35.4938 -22.6007 -22.5366 -22.3259 -22.2808 -17.2532 -17.0715
   -16.9862 -16.9033 -16.7535 -16.6110 -15.0225 -14.8187 -14.5422 -14.5275
   -14.4117 -14.3400 -14.3144 -14.1251 -14.0630 -14.0447 -14.0259 -14.0001
   -13.9405 -13.8614 -13.7930  -8.0431  -7.9861  -7.9129  -7.8530  -7.7742
    -7.7343  -7.6677  -7.6634  -7.6233  -7.5766  -7.3274  -7.2862  -3.3522
    -3.2483  -3.0808  -3.0071  -2.9817  -2.9061  -2.6558  -2.3248  -2.2993
    -2.1969  -1.8732  -1.7113  -1.6392  -1.5825  -1.5707  -1.5044  -1.3757
    -1.2516  -1.1888  -1.1582  -1.0976  -1.0862  -1.0263  -0.9734  -0.9159
    -0.8172  -0.7952  -0.7895  -0.7347  -0.7091  -0.6697  -0.4581  -0.2984
    -0.2455  -0.1531  -0.0596   0.0410   0.0657   0.1514   0.2813   0.2949
     0.3743   0.5221   0.6331   0.7511   0.7891   0.8920   0.9822   1.0417
     1.0493   1.1303   1.1401   1.1849   1.2390   1.2792   1.3093   1.3455
     1.3880   1.5551   1.6365   1.6583   1.6953   1.7329   1.8007   1.8347
     1.8878   1.9249   1.9631   2.0703   2.1504   2.4136   2.4159   2.4457
     2.4675   2.5686   2.7373   2.8112   2.9017   3.0763   4.3553   7.2274
     7.3803   7.3888   7.9832   8.2136   8.6077   8.7059   8.7412   8.7522
     9.0012   9.0543   9.2785   9.4621   9.5641   9.6039   9.6378   9.7652
     9.8992

          k = 0.1250-0.5279 0.0000 ( 33848 PWs)   bands (ev):

   -35.9336 -35.4920 -22.5714 -22.5086 -22.2992 -22.2543 -17.2859 -17.0523
   -16.9826 -16.9549 -16.7101 -16.6073 -15.0701 -14.8511 -14.4221 -14.4157
   -14.3592 -14.3499 -14.1876 -14.1560 -14.1196 -14.0792 -14.0320 -13.9923
   -13.9908 -13.9334 -13.8105  -8.0023  -7.9807  -7.9379  -7.8579  -7.7857
    -7.7228  -7.7210  -7.6830  -7.6259  -7.6105  -7.3493  -7.3119  -3.6188
    -3.4351  -3.2537  -3.1860  -3.1850  -3.1344  -2.7369  -2.3703  -2.3203
    -2.2130  -1.9502  -1.7412  -1.6752  -1.5297  -1.4439  -1.4374  -1.4088
    -1.3760  -1.3457  -1.2745  -1.2720  -1.1433  -1.1117  -1.0267  -0.9684
    -0.9402  -0.8667  -0.8593  -0.8000  -0.7834  -0.7688  -0.5872  -0.3029
    -0.2401  -0.1562  -0.0725   0.0334   0.0971   0.2122   0.2935   0.3058
     0.3948   0.5266   0.6596   0.7250   0.8075   0.8587   0.9977   1.0209
     1.0365   1.0638   1.0938   1.1103   1.2067   1.3381   1.4159   1.4315
     1.4366   1.5752   1.6147   1.7857   1.8591   1.8984   1.9338   2.0506
     2.0887   2.1099   2.1128   2.1216   2.2951   2.3187   2.4266   2.5585
     2.5812   2.5840   2.6104   2.6386   2.7255   2.9542   4.5213   7.3382
     7.6009   7.6029   8.1787   8.3982   8.5908   9.0628   9.1164   9.1434
     9.2253   9.3865   9.4460   9.5639   9.6149   9.7184   9.8186  10.0597
    10.1251

          k = 0.2500 0.0000 0.0000 ( 34032 PWs)   bands (ev):

   -35.9422 -35.5017 -22.7188 -22.6479 -22.4320 -22.3870 -17.1801 -17.1110
   -16.9940 -16.8912 -16.8012 -16.5406 -14.9522 -14.9207 -14.8506 -14.7801
   -14.7177 -14.5312 -14.5199 -14.1718 -14.1236 -13.9646 -13.9483 -13.8449
   -13.8053 -13.7944 -13.6304  -7.9113  -7.8690  -7.7898  -7.7243  -7.6556
    -7.6354  -7.5812  -7.4980  -7.3965  -7.3397  -7.2642  -7.2186  -2.6451
    -2.4852  -2.3697  -2.2575  -2.1286  -2.1125  -2.0589  -1.7301  -1.6661
    -1.6312  -1.5676  -1.4557  -1.3901  -1.1464  -1.1339  -1.1182  -1.0374
    -1.0248  -0.8815  -0.8683  -0.8108  -0.6886  -0.6384  -0.6017  -0.5860
    -0.5578  -0.4640  -0.4499  -0.3835  -0.2978  -0.2286  -0.2051  -0.1697
    -0.1531  -0.1100  -0.0902   0.0477   0.1600   0.1775   0.2656   0.2942
     0.3656   0.4046   0.4977   0.5044   0.5413   0.5466   0.6295   0.6994
     0.7414   0.8160   0.8765   1.0017   1.0162   1.1221   1.1320   1.1977
     1.3217   1.3617   1.3891   1.4331   1.4943   1.5342   1.5360   1.5683
     1.6265   1.6698   1.8568   1.9589   2.0392   2.1134   2.1372   2.1848
     2.3188   2.3740   2.5211   2.5849   2.6178   2.7598   2.7953   5.9296
     5.9353   6.5490   6.8974   7.1286   7.5654   7.6356   7.9600   8.1638
     8.5562   8.5769   8.8057   8.9964   9.2279   9.3634   9.3874   9.3957
     9.4394

          k = 0.2500 0.1320 0.0000 ( 33975 PWs)   bands (ev):

   -35.9406 -35.4999 -22.6939 -22.6241 -22.4090 -22.3642 -17.1701 -17.1042
   -17.0277 -16.8591 -16.7947 -16.6067 -14.9416 -14.8703 -14.7893 -14.7230
   -14.6685 -14.4942 -14.4844 -14.1487 -14.1095 -13.9622 -13.9568 -13.8531
   -13.8296 -13.8266 -13.6579  -8.0466  -7.9374  -7.8115  -7.7922  -7.7910
    -7.6604  -7.5830  -7.5517  -7.5182  -7.4643  -7.2279  -7.1849  -2.6749
    -2.5354  -2.4113  -2.2931  -2.1201  -2.1150  -2.0521  -2.0121  -1.9735
    -1.8759  -1.8649  -1.6114  -1.5481  -1.5364  -1.3620  -1.3272  -1.2348
    -1.0459  -0.9758  -0.9321  -0.8790  -0.8599  -0.8048  -0.7906  -0.6542
    -0.5577  -0.5352  -0.5061  -0.4083  -0.3546  -0.2532  -0.2306  -0.1345
    -0.1233  -0.0819   0.0496   0.1102   0.1481   0.2176   0.2328   0.2740
     0.3230   0.3873   0.4109   0.4628   0.6420   0.7033   0.7309   0.8551
     0.9759   0.9903   1.0151   1.0567   1.1446   1.1651   1.2643   1.3093
     1.3269   1.4004   1.4176   1.4607   1.4972   1.5161   1.5589   1.5623
     1.6181   1.7141   1.7426   1.8114   1.8669   1.9496   2.1042   2.4399
     2.7453   2.8076   2.9380   2.9485   2.9611   3.0553   3.0611   6.1934
     6.1965   6.6504   7.0317   7.2762   7.8140   7.8928   8.2354   8.3973
     8.6587   8.6958   8.9397   8.9956   9.1576   9.2180   9.2730   9.4025
     9.4869

          k = 0.2500 0.2640 0.0000 ( 33963 PWs)   bands (ev):

   -35.9367 -35.4956 -22.6327 -22.5654 -22.3526 -22.3079 -17.1752 -17.1133
   -17.0492 -16.7947 -16.7708 -16.7433 -14.9298 -14.7811 -14.6285 -14.5715
   -14.5279 -14.3967 -14.3927 -14.0895 -14.0844 -14.0141 -14.0088 -13.8885
   -13.8812 -13.8364 -13.7319  -8.2620  -8.1576  -7.9270  -7.8801  -7.8703
    -7.8541  -7.6849  -7.6640  -7.6266  -7.5841  -7.3460  -7.3071  -2.9141
    -2.8330  -2.7361  -2.6514  -2.5487  -2.3614  -2.2517  -2.2324  -2.2122
    -2.1881  -2.1351  -2.0899  -2.0181  -2.0069  -1.5270  -1.3709  -1.3672
    -1.3416  -1.2758  -1.1949  -1.1198  -1.0090  -0.9237  -0.8789  -0.7760
    -0.7011  -0.6532  -0.6287  -0.5366  -0.5165  -0.5008  -0.4222  -0.3184
    -0.2891  -0.2587  -0.1596   0.0323   0.1019   0.2070   0.4001   0.4307
     0.5072   0.6653   0.7683   0.7955   0.8682   0.9262   0.9363   1.0398
     1.0753   1.1924   1.2438   1.3300   1.3414   1.3748   1.4269   1.4641
     1.5219   1.5384   1.5444   1.6007   1.6453   1.6694   1.7025   1.7235
     1.7378   1.7951   1.8037   1.8212   1.9386   1.9404   2.2484   2.4482
     3.0299   3.0675   3.3007   3.3516   3.4481   3.5031   3.8179   6.7026
     6.7397   6.7454   7.4509   7.6691   8.3802   8.4253   8.5910   8.8147
     8.8271   8.9517   9.0630   9.1503   9.2918   9.3870   9.4148   9.5055
     9.5915

          k = 0.2500 0.3960 0.0000 ( 33940 PWs)   bands (ev):

   -35.9328 -35.4912 -22.5696 -22.5049 -22.2946 -22.2501 -17.2436 -17.1105
   -17.0127 -16.8912 -16.7591 -16.6849 -14.9403 -14.7375 -14.4370 -14.3755
   -14.3586 -14.2894 -14.2614 -14.1337 -14.1129 -14.0251 -14.0162 -13.9662
   -13.9608 -13.8410 -13.7862  -8.3429  -8.2776  -8.0494  -8.0079  -7.9673
    -7.9044  -7.8794  -7.7981  -7.7253  -7.6772  -7.5403  -7.5097  -3.4155
    -3.3348  -3.2211  -3.1203  -3.0158  -2.8854  -2.7666  -2.3710  -2.3248
    -2.2633  -2.1157  -2.0507  -1.9735  -1.9649  -1.7574  -1.6992  -1.5894
    -1.4752  -1.4440  -1.3576  -1.2605  -1.1796  -1.0733  -0.9395  -0.9010
    -0.8187  -0.7805  -0.7400  -0.7222  -0.7142  -0.6083  -0.4997  -0.4598
    -0.4328  -0.3480  -0.3303   0.1566   0.2164   0.2569   0.4452   0.4858
     0.6574   0.8660   0.8874   0.8999   1.0591   1.0688   1.0892   1.2336
     1.3179   1.3372   1.3759   1.4051   1.4290   1.5143   1.5747   1.5884
     1.6463   1.6755   1.7022   1.7907   1.8232   1.8452   1.8594   1.9107
     1.9736   1.9883   2.0030   2.1314   2.1883   2.3375   2.3426   2.4993
     2.8469   2.8996   3.3630   3.5815   3.6521   3.7392   4.3133   6.5758
     6.9469   6.9603   7.6788   7.8337   8.7322   8.8252   8.8692   8.9352
     9.1367   9.2439   9.3992   9.6765   9.7564   9.7880   9.8899   9.9122
     9.9939

          k = 0.2500-0.5279 0.0000 ( 33964 PWs)   bands (ev):

   -35.9312 -35.4894 -22.5429 -22.4794 -22.2701 -22.2257 -17.2769 -17.1060
   -16.9941 -16.9414 -16.7536 -16.6453 -14.9518 -14.7342 -14.3124 -14.2830
   -14.2702 -14.2506 -14.1858 -14.1439 -14.1229 -14.0646 -14.0636 -13.9903
   -13.9868 -13.8970 -13.7765  -8.2999  -8.2778  -8.1026  -8.0694  -8.0141
    -7.9926  -7.9462  -7.8643  -7.7821  -7.7399  -7.6065  -7.5904  -3.6292
    -3.5847  -3.4144  -3.3144  -3.1836  -3.1130  -2.9031  -2.3784  -2.3643
    -2.2729  -2.0580  -2.0085  -1.9334  -1.9160  -1.9143  -1.8490  -1.7221
    -1.5708  -1.5107  -1.3892  -1.2694  -1.2255  -1.1593  -0.9995  -0.9406
    -0.8653  -0.8525  -0.7962  -0.7866  -0.7347  -0.6070  -0.5700  -0.5103
    -0.4728  -0.3808  -0.3673   0.1947   0.2843   0.3237   0.4707   0.5489
     0.7128   0.8250   0.9306   1.0053   1.1152   1.1553   1.1618   1.2042
     1.2782   1.3059   1.3529   1.4251   1.4581   1.5378   1.5810   1.6556
     1.6729   1.8054   1.8174   1.8794   1.9917   2.0142   2.0607   2.0741
     2.1074   2.1189   2.1229   2.1580   2.2978   2.5132   2.5198   2.5411
     2.6126   2.6784   3.3346   3.6017   3.6741   3.7740   4.4557   6.4834
     6.9116   6.9278   7.6584   7.8039   8.8409   9.0141   9.0196   9.2782
     9.4333   9.5996   9.6554   9.8245   9.8881   9.9402   9.9923  10.0306
    10.0853

          k = 0.3750 0.0000 0.0000 ( 33964 PWs)   bands (ev):

   -35.9398 -35.4991 -22.6734 -22.6025 -22.3884 -22.3441 -17.2504 -17.0849
   -16.9910 -16.9411 -16.7960 -16.5373 -15.0799 -14.9653 -14.9319 -14.6065
   -14.5700 -14.5188 -14.4180 -14.1691 -14.1357 -14.0756 -14.0287 -13.9370
   -13.9252 -13.8356 -13.6712  -7.8516  -7.8494  -7.8123  -7.6998  -7.5986
    -7.5907  -7.4958  -7.4136  -7.3446  -7.2957  -7.1856  -7.1400  -2.8406
    -2.8127  -2.6979  -2.6273  -2.3864  -2.2511  -2.1246  -1.6729  -1.6109
    -1.5842  -1.5023  -1.5012  -1.4228  -1.2674  -1.1733  -1.1356  -1.1205
    -1.1096  -1.0778  -1.0001  -0.9612  -0.9380  -0.8662  -0.8069  -0.8010
    -0.7913  -0.6745  -0.6500  -0.5163  -0.4007  -0.3632  -0.3284  -0.1828
    -0.1500  -0.1461  -0.1030  -0.0006   0.1471   0.1646   0.2528   0.2790
     0.3154   0.4836   0.5032   0.5060   0.5354   0.5692   0.5721   0.6338
     0.8318   0.9269   0.9489   0.9853   1.0616   1.2172   1.2645   1.2779
     1.3118   1.3532   1.4312   1.5470   1.5835   1.6205   1.6245   1.7209
     1.7738   1.7857   1.8418   1.8933   1.9201   2.0026   2.1636   2.1989
     2.2587   2.4127   2.5923   2.6843   2.7158   2.8846   2.9206   6.5792
     6.5850   6.9080   7.5407   7.8513   8.0645   8.0800   8.4692   8.5579
     8.7170   8.8143   9.2983   9.3244   9.4047   9.4164   9.5750   9.5789
     9.6225

          k = 0.3750 0.1320 0.0000 ( 33991 PWs)   bands (ev):

   -35.9382 -35.4973 -22.6507 -22.5808 -22.3673 -22.3232 -17.2443 -17.0841
   -17.0149 -16.9325 -16.7669 -16.6018 -15.0416 -14.9169 -14.8621 -14.5621
   -14.5282 -14.4589 -14.3779 -14.1413 -14.1073 -14.0509 -14.0231 -13.9504
   -13.9161 -13.8693 -13.6813  -7.9917  -7.9089  -7.8330  -7.7842  -7.7540
    -7.6340  -7.5819  -7.5252  -7.5033  -7.4746  -7.2751  -7.2334  -2.8959
    -2.8743  -2.7479  -2.6707  -2.3836  -2.2499  -2.1292  -1.9664  -1.9296
    -1.7947  -1.7837  -1.6172  -1.5365  -1.5267  -1.4739  -1.3989  -1.3547
    -1.2328  -1.1718  -1.1209  -1.1135  -1.0441  -0.9880  -0.8882  -0.8108
    -0.7177  -0.6492  -0.6049  -0.4712  -0.4408  -0.3352  -0.3111  -0.1884
    -0.1808  -0.1158   0.0223   0.1185   0.1696   0.2072   0.2595   0.3104
     0.3239   0.4372   0.5195   0.5637   0.5721   0.7480   0.7930   0.8632
     0.8749   0.9841   1.0479   1.1461   1.2312   1.2502   1.3173   1.3688
     1.3753   1.4286   1.4404   1.4845   1.6190   1.6515   1.6705   1.7004
     1.7481   1.7998   1.8488   1.8747   1.8928   1.9663   1.9753   2.4141
     2.8239   2.8861   2.9790   3.0271   3.1058   3.2270   3.2944   6.7285
     6.7338   6.8036   7.6215   7.8984   8.1321   8.1455   8.4065   8.5796
     8.9037   8.9957   9.1599   9.3617   9.3636   9.5605   9.5887   9.6224
     9.7305

          k = 0.3750 0.2640 0.0000 ( 33991 PWs)   bands (ev):

   -35.9343 -35.4930 -22.5951 -22.5275 -22.3157 -22.2717 -17.2301 -17.1470
   -17.0026 -16.9121 -16.7461 -16.6917 -14.9481 -14.7946 -14.6688 -14.4511
   -14.4288 -14.3106 -14.2761 -14.0813 -14.0670 -14.0517 -14.0341 -13.9592
   -13.9109 -13.8699 -13.7258  -8.3138  -8.2103  -7.9849  -7.9582  -7.9364
    -7.8888  -7.7921  -7.7665  -7.7296  -7.6359  -7.5314  -7.5000  -3.1898
    -3.1091  -2.9844  -2.9104  -2.5357  -2.4215  -2.4031  -2.3260  -2.3015
    -2.2755  -2.2142  -2.1707  -2.1145  -2.0565  -1.6989  -1.6529  -1.5441
    -1.4692  -1.3880  -1.2070  -1.1723  -0.9911  -0.9034  -0.8557  -0.8388
    -0.7991  -0.7388  -0.6450  -0.5915  -0.5688  -0.5634  -0.5239  -0.4056
    -0.3050  -0.2938  -0.1589  -0.0021   0.1393   0.3419   0.5151   0.5347
     0.5963   0.7761   0.8422   0.8891   0.9088   1.0833   1.0872   1.1316
     1.2469   1.2707   1.2940   1.3169   1.4618   1.4817   1.4997   1.5334
     1.6696   1.6806   1.7113   1.7215   1.7603   1.7781   1.8013   1.8222
     1.8301   1.8638   1.8856   1.9104   1.9298   2.0248   2.2171   2.3896
     3.0197   3.0689   3.7459   3.7893   3.8179   3.8906   3.9434   6.4402
     6.7795   6.7859   7.5665   7.7231   8.4270   8.4855   8.5735   8.9161
     9.2133   9.2692   9.4937   9.5363   9.5781   9.6313   9.7176   9.8176
     9.8842

          k = 0.3750 0.3960 0.0000 ( 33993 PWs)   bands (ev):

   -35.9305 -35.4887 -22.5380 -22.4728 -22.2629 -22.2189 -17.2353 -17.2118
   -16.9634 -16.8948 -16.8729 -16.6120 -14.8546 -14.6597 -14.4107 -14.3468
   -14.3069 -14.1672 -14.1536 -14.1473 -14.1193 -14.0129 -14.0002 -13.9737
   -13.9059 -13.8263 -13.7942  -8.5372  -8.4761  -8.2592  -8.2474  -8.2052
    -8.1411  -7.9189  -7.9128  -7.8912  -7.8087  -7.7595  -7.6130  -3.6695
    -3.5248  -3.3646  -3.2552  -3.2272  -2.8647  -2.8401  -2.5516  -2.4384
    -2.3890  -2.3727  -2.1994  -2.1548  -2.1191  -2.0104  -1.9411  -1.7597
    -1.6131  -1.5417  -1.1802  -1.1534  -1.1284  -1.0978  -0.9274  -0.8805
    -0.8663  -0.8311  -0.7861  -0.7621  -0.7129  -0.6906  -0.6138  -0.5291
    -0.4576  -0.3159  -0.3112   0.2106   0.2915   0.3937   0.6162   0.6857
     0.8991   1.0892   1.0962   1.1305   1.2051   1.2394   1.3231   1.3953
     1.4315   1.4831   1.5371   1.5641   1.5970   1.6079   1.6709   1.7721
     1.7894   1.8468   1.8575   1.9083   1.9579   1.9973   2.0427   2.0622
     2.0818   2.1117   2.1698   2.1963   2.2591   2.2754   2.3106   2.5171
     2.8198   2.8905   4.0416   4.2301   4.3271   4.3659   4.4180   6.0016
     6.4764   6.4905   7.3616   7.4597   8.7398   9.0221   9.0552   9.1286
     9.2889   9.4840   9.5284   9.5801   9.6204   9.7128   9.7284   9.8299
     9.9322

          k = 0.3750-0.5279 0.0000 ( 34004 PWs)   bands (ev):

   -35.9289 -35.4869 -22.5139 -22.4498 -22.2406 -22.1967 -17.2679 -17.2080
   -16.9455 -16.9281 -16.8822 -16.5765 -14.8168 -14.5984 -14.3174 -14.2489
   -14.2059 -14.1968 -14.1833 -14.0769 -14.0655 -14.0229 -13.9864 -13.9818
   -13.9787 -13.8699 -13.7598  -8.5777  -8.5581  -8.4308  -8.3427  -8.2924
    -8.2863  -8.0709  -7.9630  -7.9173  -7.8972  -7.7954  -7.6286  -3.8764
    -3.7274  -3.5823  -3.4911  -3.3399  -3.0899  -3.0532  -2.5702  -2.4538
    -2.3982  -2.3831  -2.1936  -2.1678  -2.1180  -2.1175  -2.0398  -1.8415
    -1.6805  -1.5671  -1.2586  -1.2015  -1.1993  -1.1486  -0.9483  -0.9038
    -0.8787  -0.8742  -0.8732  -0.8336  -0.8006  -0.7116  -0.6386  -0.5558
    -0.4943  -0.3336  -0.3016   0.2909   0.3806   0.4148   0.7235   0.8218
     0.9134   1.0165   1.2304   1.2818   1.3089   1.3473   1.3808   1.3870
     1.4341   1.5486   1.5848   1.6307   1.6715   1.7318   1.7924   1.8518
     1.8820   1.9093   1.9372   2.0127   2.1087   2.1142   2.1372   2.2049
     2.2226   2.2678   2.3314   2.3523   2.3694   2.4498   2.4821   2.5592
     2.5818   2.6483   4.1018   4.3261   4.4692   4.5152   4.5655   5.8081
     6.2986   6.3121   7.2837   7.3763   8.7569   8.9220   9.1352   9.2425
     9.3305   9.4529   9.5630   9.7161   9.7580   9.7777   9.8656   9.9739
    10.0618

          k =-0.5000 0.0000 0.0000 ( 33930 PWs)   bands (ev):

   -35.9388 -35.4980 -22.6542 -22.5833 -22.3700 -22.3260 -17.2916 -17.0579
   -16.9935 -16.9898 -16.7538 -16.5359 -15.1372 -15.0227 -14.9695 -14.6039
   -14.5492 -14.3097 -14.2407 -14.2278 -14.1968 -14.1265 -14.1162 -13.9995
   -13.9745 -13.8482 -13.6847  -7.8415  -7.8151  -7.8023  -7.7111  -7.5791
    -7.5676  -7.4592  -7.3774  -7.3284  -7.2854  -7.1521  -7.1064  -2.9547
    -2.9528  -2.8382  -2.7723  -2.4494  -2.2760  -2.1242  -1.7047  -1.6420
    -1.5728  -1.5366  -1.4137  -1.2970  -1.2849  -1.2653  -1.1430  -1.1413
    -1.1394  -1.1242  -1.0955  -1.0494  -1.0111  -0.9967  -0.9145  -0.8761
    -0.8225  -0.7584  -0.7335  -0.5822  -0.4307  -0.4140  -0.3804  -0.1977
    -0.1395  -0.1368  -0.1072  -0.0730   0.1418   0.1593   0.2229   0.2724
     0.2965   0.4834   0.4938   0.5046   0.5093   0.5311   0.5673   0.6528
     0.8585   0.9128   0.9572   1.0047   1.0161   1.2143   1.2338   1.2915
     1.4486   1.4775   1.5424   1.5616   1.5718   1.6715   1.7145   1.7341
     1.7364   1.8415   1.9342   1.9500   1.9780   1.9833   2.0380   2.2154
     2.2683   2.4148   2.5894   2.6896   2.7315   2.9198   2.9489   7.0439
     7.3340   7.3575   7.4098   7.4117   7.9690   8.3520   8.5245   8.6268
     9.0813   9.1338   9.2594   9.4143   9.4987   9.5264   9.5365   9.7074
     9.7342

          k =-0.5000 0.1320 0.0000 ( 33986 PWs)   bands (ev):

   -35.9372 -35.4962 -22.6325 -22.5625 -22.3498 -22.3059 -17.2852 -17.0668
   -17.0045 -16.9842 -16.7263 -16.5996 -15.0876 -14.9650 -14.8955 -14.5613
   -14.5087 -14.2691 -14.1919 -14.1827 -14.1680 -14.1053 -14.0947 -14.0215
   -13.9446 -13.8856 -13.6881  -7.8876  -7.8801  -7.8422  -7.8299  -7.6970
    -7.6178  -7.6046  -7.5803  -7.4565  -7.3996  -7.3671  -7.3180  -3.0230
    -3.0212  -2.8955  -2.8237  -2.4459  -2.2811  -2.1404  -1.9354  -1.8970
    -1.7516  -1.7289  -1.6087  -1.5312  -1.5217  -1.5184  -1.4338  -1.4007
    -1.3474  -1.2902  -1.2219  -1.1850  -1.0812  -0.9999  -0.9364  -0.8522
    -0.7892  -0.6944  -0.6176  -0.5075  -0.4566  -0.3714  -0.3459  -0.2120
    -0.1977  -0.1367   0.0079   0.1282   0.1697   0.1999   0.2607   0.3075
     0.4304   0.4304   0.4471   0.5947   0.6591   0.6703   0.7130   0.8349
     0.8629   0.9843   1.0702   1.1436   1.2058   1.2515   1.3528   1.3598
     1.4017   1.4934   1.4985   1.5743   1.6599   1.7143   1.7170   1.7786
     1.7994   1.8294   1.8348   1.9037   1.9575   2.0017   2.0059   2.3890
     2.8305   2.8931   2.9838   3.0461   3.1351   3.2782   3.3484   6.8403
     7.1935   7.2051   7.6990   7.7125   8.1168   8.1530   8.2574   8.5603
     9.3055   9.3132   9.3752   9.4633   9.5490   9.6513   9.6636   9.8239
     9.8489

          k =-0.5000 0.2640 0.0000 ( 33976 PWs)   bands (ev):

   -35.9334 -35.4919 -22.5793 -22.5116 -22.3003 -22.2564 -17.2699 -17.1438
   -16.9800 -16.9622 -16.7428 -16.6552 -14.9599 -14.8134 -14.6899 -14.4596
   -14.4076 -14.1667 -14.1056 -14.1029 -14.0856 -14.0773 -14.0562 -14.0447
   -13.9524 -13.8716 -13.7198  -8.2187  -8.1491  -8.1473  -7.9982  -7.9509
    -7.8680  -7.8299  -7.8084  -7.7645  -7.7357  -7.6568  -7.5668  -3.3281
    -3.2493  -3.1261  -3.0561  -2.5268  -2.4552  -2.4470  -2.3487  -2.3146
    -2.2911  -2.2127  -2.1786  -2.1216  -2.0441  -1.8256  -1.7679  -1.5928
    -1.5345  -1.4864  -1.1107  -1.0886  -0.9557  -0.9510  -0.8886  -0.8431
    -0.8117  -0.7709  -0.6703  -0.6154  -0.5939  -0.5893  -0.5323  -0.4099
    -0.3145  -0.2833  -0.1671  -0.0271   0.1538   0.3903   0.5567   0.5840
     0.6277   0.8149   0.9092   0.9329   0.9387   1.1079   1.1562   1.1710
     1.2489   1.2608   1.2725   1.3253   1.4566   1.5187   1.5569   1.6161
     1.6769   1.6803   1.7522   1.7784   1.7797   1.8333   1.8427   1.8540
     1.8916   1.9362   1.9631   1.9932   2.0289   2.0674   2.1435   2.3339
     3.0125   3.0624   3.7865   3.9123   3.9448   4.0188   4.0728   6.3188
     6.7752   6.7832   7.5258   7.6559   8.4341   8.5232   8.6534   9.1038
     9.3177   9.3602   9.5230   9.6698   9.7077   9.8329   9.8511   9.9279
     9.9760

          k =-0.5000 0.3960 0.0000 ( 33992 PWs)   bands (ev):

   -35.9295 -35.4876 -22.5248 -22.4594 -22.2496 -22.2058 -17.2549 -17.2293
   -16.9412 -16.9406 -16.8720 -16.5796 -14.8180 -14.6305 -14.4178 -14.3662
   -14.2973 -14.1432 -14.1401 -14.0581 -14.0475 -14.0136 -14.0077 -13.9968
   -13.8925 -13.8243 -13.7985  -8.5595  -8.5243  -8.4390  -8.3034  -8.2862
    -8.2534  -8.0674  -7.9237  -7.9078  -7.8937  -7.8250  -7.6167  -3.7997
    -3.6572  -3.4806  -3.3814  -3.2473  -2.8562  -2.8452  -2.6214  -2.5037
    -2.4609  -2.4006  -2.2157  -2.1687  -2.1330  -2.1160  -2.0298  -1.7995
    -1.6692  -1.6016  -1.1542  -1.1170  -1.1014  -1.0268  -0.9661  -0.9377
    -0.8618  -0.8126  -0.8071  -0.7890  -0.7641  -0.7013  -0.6891  -0.5054
    -0.4343  -0.2938  -0.2777   0.2266   0.3132   0.4515   0.6784   0.7836
     0.9924   1.1844   1.2099   1.2112   1.2892   1.3664   1.3728   1.4267
     1.4672   1.5239   1.5745   1.6137   1.6420   1.6682   1.7075   1.7925
     1.8380   1.8831   1.9157   1.9575   1.9894   2.0752   2.0903   2.1341
     2.1443   2.1574   2.2134   2.2287   2.2973   2.3676   2.4176   2.4643
     2.8079   2.8794   4.2150   4.2965   4.5880   4.6067   4.6611   5.7812
     6.2803   6.2910   7.2335   7.3094   8.6507   9.0039   9.0639   9.2035
     9.3177   9.3480   9.5207   9.7010   9.7401   9.7742   9.7949   9.8376
     9.9526

          k =-0.5000-0.5279 0.0000 ( 34028 PWs)   bands (ev):

   -35.9279 -35.4858 -22.5018 -22.4374 -22.2283 -22.1845 -17.2642 -17.2487
   -16.9318 -16.9240 -16.9226 -16.5461 -14.7536 -14.5328 -14.3578 -14.2724
   -14.1854 -14.1822 -14.1713 -14.0271 -14.0144 -13.9941 -13.9731 -13.9698
   -13.9551 -13.8521 -13.7698  -8.6880  -8.6703  -8.5567  -8.4535  -8.4048
    -8.4023  -8.1917  -7.9860  -7.9700  -7.9358  -7.8419  -7.6337  -4.0082
    -3.8549  -3.6831  -3.5174  -3.4796  -3.0804  -3.0630  -2.6539  -2.5315
    -2.4869  -2.4007  -2.2090  -2.2058  -2.1948  -2.1330  -2.1124  -1.8671
    -1.7236  -1.6224  -1.2683  -1.2002  -1.1522  -1.0900  -0.9418  -0.9226
    -0.9016  -0.8914  -0.8861  -0.8759  -0.8018  -0.7952  -0.7178  -0.5453
    -0.4620  -0.2773  -0.2489   0.3181   0.4017   0.4697   0.8471   0.9433
     0.9550   1.1581   1.3128   1.3505   1.4060   1.4276   1.4454   1.4861
     1.4873   1.6414   1.6639   1.7142   1.7168   1.7197   1.7700   1.9332
     1.9722   2.0199   2.0475   2.0862   2.1214   2.1437   2.2113   2.2324
     2.2775   2.2979   2.4059   2.4211   2.4746   2.5105   2.5336   2.5596
     2.6258   2.6341   4.2999   4.4063   4.7856   4.8078   4.8632   5.5492
     6.0531   6.0605   7.1421   7.2210   8.6572   8.9270   9.0678   9.1095
     9.1766   9.2034   9.5383   9.5868   9.6550   9.7308   9.7964   9.9258
    10.0929

     the Fermi energy is     2.6481 ev

!    total energy              =   -1842.88456391 Ry
     Harris-Foulkes estimate   =   -1842.88456391 Ry
     estimated scf accuracy    <          2.5E-11 Ry

     The total energy is the sum of the following terms:

     one-electron contribution =  -30680.16334874 Ry
     hartree contribution      =   15493.77977695 Ry
     xc contribution           =    -621.75816410 Ry
     ewald contribution        =   13965.26544775 Ry
     smearing contrib. (-TS)   =      -0.00827576 Ry

     convergence has been achieved in  39 iterations

     negative rho (up, down):  1.475E-03 0.000E+00

     Forces acting on atoms (cartesian axes, Ry/au):

     atom    1 type  4   force =     0.00000000    0.00000000   -0.00014557
     atom    2 type  3   force =     0.00000000    0.00000000    0.00038520
     atom    3 type  4   force =     0.00000000    0.00000000   -0.00075477
     atom    4 type  1   force =     0.00000000    0.00000000   -0.00028851
     atom    5 type  3   force =     0.00000000    0.00000000    0.00055757
     atom    6 type  4   force =     0.00000000    0.00000000   -0.00001895
     atom    7 type  4   force =     0.00000000    0.00000000    0.00035040
     atom    8 type  2   force =     0.00000000    0.00000000   -0.00060937
     atom    9 type  4   force =     0.00000000    0.00000000    0.00022816
     atom   10 type  4   force =     0.00000000    0.00000000    0.00015694
     atom   11 type  3   force =     0.00000000    0.00000000    0.00030654
     atom   12 type  1   force =     0.00000000    0.00000000    0.00024901
     atom   13 type  4   force =     0.00000000    0.00000000    0.00120775
     atom   14 type  4   force =     0.00000000    0.00000000    0.00051429
     atom   15 type  3   force =     0.00000000    0.00000000   -0.00080806
     atom   16 type  4   force =     0.00000000    0.00000000   -0.00058594
     atom   17 type  1   force =     0.00000000    0.00000000   -0.00285969
     atom   18 type  3   force =     0.00000000    0.00000000   -0.00081694
     atom   19 type  4   force =     0.00000000    0.00000000    0.01219362
     atom   20 type  4   force =     0.00000000    0.00000000    0.00709761
     atom   21 type  2   force =     0.00000000    0.00000000    0.02127555
     atom   22 type  4   force =     0.00000000    0.00000000    0.01582742
     atom   23 type  4   force =     0.00000000    0.00000000   -0.01070073
     atom   24 type  3   force =     0.00000000    0.00000000   -0.04813431
     atom   25 type  1   force =     0.00000000    0.00000000   -0.00022123
     atom   26 type  4   force =     0.00000000    0.00000000    0.00147770
     atom   27 type  3   force =     0.00000000    0.00000000    0.00367172
     atom   28 type  4   force =     0.00000000    0.00000000    0.00044457

     Total force =     0.057763     Total SCF correction =     0.000011


     Computing stress (Cartesian axis) and pressure


     negative rho (up, down):  1.475E-03 0.000E+00
          total   stress  (Ry/bohr**3)                   (kbar)     P=       -3.34
   0.00000027   0.00000000   0.00000000            0.04        0.00        0.00
   0.00000000  -0.00002611   0.00000000            0.00       -3.84        0.00
   0.00000000   0.00000000  -0.00004230            0.00        0.00       -6.22


     BFGS Geometry Optimization

     number of scf cycles    =   1
     number of bfgs steps    =   0

     energy   new            =   -1842.8845639095 Ry

     new trust radius        =       0.0481343091 bohr
     new conv_thr            =            1.0E-10 Ry


ATOMIC_POSITIONS (angstrom)
O             0.0000000000        1.8611200000       -0.1846200000    0   0   0
Cu            0.0000000000        0.0000000000        0.1039800000    0   0   0
O             0.0000000000        0.0000000000        1.9772600000    0   0   0
Ba            1.9651100000        1.8611200000        2.2364100000    0   0   0
Cu            0.0000000000        0.0000000000        4.0773100000    0   0   0
O             1.9651100000        0.0000000000        4.2321000000    0   0   0
O             0.0000000000        1.8611200000        4.3692200000    0   0   0
Ca            1.9651100000        1.8611200000        5.8860000000    0   0   0
O             0.0000000000        1.8611200000        7.3367500000    0   0   0
O             1.9651100000        0.0000000000        7.4847600000    0   0   0
Cu            0.0000000000        0.0000000000        7.6688600000    0   0   0
Ba            1.9651100000        1.8611200000        9.5487700000    0   0   0
O             0.0000000000        0.0000000000        9.8708900000    0   0   0
O             0.0000000000        1.8611200000       11.7586400000    0   0   0
Cu            0.0000000000        0.0000000000       11.7588600000    0   0   0
O             0.0000000000        0.0000000000       13.6467800000    0   0   0
Ba            1.9651100000        1.8611200000       13.9688700000    0   0   0
Cu            0.0000000000        0.0000000000       15.8482776964
O             1.9651100000        0.0000000000       16.0392625866
O             0.0000000000        1.8611200000       16.1845558959
Ca            1.9651100000        1.8611200000       17.6428485341
O             0.0000000000        1.8611200000       19.2067355122
O             1.9651100000        0.0000000000       19.6298174199
Cu            0.0000000000        0.0000000000       19.7648084207
Ba            1.9651100000        1.8611200000       21.5310529312
O             0.0000000000        0.0000000000       21.7910619663
Cu            0.0000000000        0.0000000000       23.6635800000    0   0   0
O             0.0000000000        1.8611200000       23.9521300000    0   0   0


     NEW-OLD atomic charge density approx. for the potential

     negative rho (up, down):  1.645E-03 0.000E+00

     total cpu time spent up to now is      837.3 secs

     Self-consistent Calculation

     iteration #  1     ecut=    60.00 Ry     beta= 0.70
     Davidson diagonalization with overlap
     ethr =  1.00E-06,  avg # of iterations =  4.4

     negative rho (up, down):  1.471E-03 0.000E+00

     total cpu time spent up to now is      867.9 secs

     total energy              =   -1842.88751712 Ry
     Harris-Foulkes estimate   =   -1842.88761845 Ry
     estimated scf accuracy    <       0.00117145 Ry

     iteration #  2     ecut=    60.00 Ry     beta= 0.70
     Davidson diagonalization with overlap
     ethr =  5.16E-07,  avg # of iterations =  2.1

     negative rho (up, down):  1.465E-03 0.000E+00

     total cpu time spent up to now is      885.1 secs

     total energy              =   -1842.88747497 Ry
     Harris-Foulkes estimate   =   -1842.88775006 Ry
     estimated scf accuracy    <       0.00397297 Ry

     iteration #  3     ecut=    60.00 Ry     beta= 0.70
     Davidson diagonalization with overlap
     ethr =  5.16E-07,  avg # of iterations =  1.9

     negative rho (up, down):  1.445E-03 0.000E+00

     total cpu time spent up to now is      902.1 secs

     total energy              =   -1842.88762246 Ry
     Harris-Foulkes estimate   =   -1842.88765112 Ry
     estimated scf accuracy    <       0.00041595 Ry

     iteration #  4     ecut=    60.00 Ry     beta= 0.70
     Davidson diagonalization with overlap
     ethr =  1.83E-07,  avg # of iterations =  1.5

     negative rho (up, down):  1.435E-03 0.000E+00

     total cpu time spent up to now is      918.3 secs

     total energy              =   -1842.88763232 Ry
     Harris-Foulkes estimate   =   -1842.88763902 Ry
     estimated scf accuracy    <       0.00010087 Ry

     iteration #  5     ecut=    60.00 Ry     beta= 0.70
     Davidson diagonalization with overlap
     ethr =  4.44E-08,  avg # of iterations =  3.0

     negative rho (up, down):  1.430E-03 0.000E+00

     total cpu time spent up to now is      936.7 secs

     total energy              =   -1842.88763606 Ry
     Harris-Foulkes estimate   =   -1842.88763851 Ry
     estimated scf accuracy    <       0.00004104 Ry

     iteration #  6     ecut=    60.00 Ry     beta= 0.70
     Davidson diagonalization with overlap
     ethr =  1.81E-08,  avg # of iterations =  1.1

     negative rho (up, down):  1.425E-03 0.000E+00

     total cpu time spent up to now is      952.3 secs

     total energy              =   -1842.88763661 Ry
     Harris-Foulkes estimate   =   -1842.88763759 Ry
     estimated scf accuracy    <       0.00002340 Ry

     iteration #  7     ecut=    60.00 Ry     beta= 0.70
     Davidson diagonalization with overlap
     ethr =  1.03E-08,  avg # of iterations =  1.0

     negative rho (up, down):  1.426E-03 0.000E+00

     total cpu time spent up to now is      968.1 secs

     total energy              =   -1842.88763619 Ry
     Harris-Foulkes estimate   =   -1842.88763732 Ry
     estimated scf accuracy    <       0.00000818 Ry

     iteration #  8     ecut=    60.00 Ry     beta= 0.70
     Davidson diagonalization with overlap
     ethr =  3.60E-09,  avg # of iterations =  1.8

     negative rho (up, down):  1.425E-03 0.000E+00

     total cpu time spent up to now is      984.9 secs

     total energy              =   -1842.88763662 Ry
     Harris-Foulkes estimate   =   -1842.88763691 Ry
     estimated scf accuracy    <       0.00002258 Ry

     iteration #  9     ecut=    60.00 Ry     beta= 0.70
     Davidson diagonalization with overlap
     ethr =  3.60E-09,  avg # of iterations =  1.0

     negative rho (up, down):  1.426E-03 0.000E+00

     total cpu time spent up to now is     1000.7 secs

     total energy              =   -1842.88763672 Ry
     Harris-Foulkes estimate   =   -1842.88763678 Ry
     estimated scf accuracy    <       0.00000318 Ry

     iteration # 10     ecut=    60.00 Ry     beta= 0.70
     Davidson diagonalization with overlap
     ethr =  1.40E-09,  avg # of iterations =  1.0

     negative rho (up, down):  1.429E-03 0.000E+00

     total cpu time spent up to now is     1016.6 secs

     total energy              =   -1842.88763672 Ry
     Harris-Foulkes estimate   =   -1842.88763677 Ry
     estimated scf accuracy    <       0.00000167 Ry

     iteration # 11     ecut=    60.00 Ry     beta= 0.70
     Davidson diagonalization with overlap
     ethr =  7.37E-10,  avg # of iterations =  1.0

     negative rho (up, down):  1.434E-03 0.000E+00

     total cpu time spent up to now is     1032.7 secs

     total energy              =   -1842.88763670 Ry
     Harris-Foulkes estimate   =   -1842.88763673 Ry
     estimated scf accuracy    <       0.00000103 Ry

     iteration # 12     ecut=    60.00 Ry     beta= 0.70
     Davidson diagonalization with overlap
     ethr =  4.55E-10,  avg # of iterations =  1.0

     negative rho (up, down):  1.441E-03 0.000E+00

     total cpu time spent up to now is     1048.6 secs

     total energy              =   -1842.88763669 Ry
     Harris-Foulkes estimate   =   -1842.88763671 Ry
     estimated scf accuracy    <       0.00000038 Ry

     iteration # 13     ecut=    60.00 Ry     beta= 0.70
     Davidson diagonalization with overlap
     ethr =  1.66E-10,  avg # of iterations =  2.0

     negative rho (up, down):  1.443E-03 0.000E+00

     total cpu time spent up to now is     1065.8 secs

     total energy              =   -1842.88763669 Ry
     Harris-Foulkes estimate   =   -1842.88763670 Ry
     estimated scf accuracy    <       0.00000017 Ry

     iteration # 14     ecut=    60.00 Ry     beta= 0.70
     Davidson diagonalization with overlap
     ethr =  7.66E-11,  avg # of iterations =  1.0

     negative rho (up, down):  1.447E-03 0.000E+00

     total cpu time spent up to now is     1081.7 secs

     total energy              =   -1842.88763668 Ry
     Harris-Foulkes estimate   =   -1842.88763669 Ry
     estimated scf accuracy    <       0.00000011 Ry

     iteration # 15     ecut=    60.00 Ry     beta= 0.70
     Davidson diagonalization with overlap
     ethr =  4.73E-11,  avg # of iterations =  1.0

     negative rho (up, down):  1.451E-03 0.000E+00

     total cpu time spent up to now is     1097.8 secs

     total energy              =   -1842.88763668 Ry
     Harris-Foulkes estimate   =   -1842.88763668 Ry
     estimated scf accuracy    <       0.00000006 Ry

     iteration # 16     ecut=    60.00 Ry     beta= 0.70
     Davidson diagonalization with overlap
     ethr =  2.83E-11,  avg # of iterations =  1.5

     negative rho (up, down):  1.450E-03 0.000E+00

     total cpu time spent up to now is     1114.2 secs

     total energy              =   -1842.88763668 Ry
     Harris-Foulkes estimate   =   -1842.88763668 Ry
     estimated scf accuracy    <       0.00000005 Ry

     iteration # 17     ecut=    60.00 Ry     beta= 0.70
     Davidson diagonalization with overlap
     ethr =  2.38E-11,  avg # of iterations =  1.0

     negative rho (up, down):  1.452E-03 0.000E+00

     total cpu time spent up to now is     1130.0 secs

     total energy              =   -1842.88763668 Ry
     Harris-Foulkes estimate   =   -1842.88763668 Ry
     estimated scf accuracy    <       0.00000009 Ry

     iteration # 18     ecut=    60.00 Ry     beta= 0.70
     Davidson diagonalization with overlap
     ethr =  2.38E-11,  avg # of iterations =  1.0

     negative rho (up, down):  1.461E-03 0.000E+00

     total cpu time spent up to now is     1145.7 secs

     total energy              =   -1842.88763666 Ry
     Harris-Foulkes estimate   =   -1842.88763668 Ry
     estimated scf accuracy    <       0.00000005 Ry

     iteration # 19     ecut=    60.00 Ry     beta= 0.70
     Davidson diagonalization with overlap
     ethr =  2.31E-11,  avg # of iterations =  1.0

     negative rho (up, down):  1.460E-03 0.000E+00

     total cpu time spent up to now is     1161.6 secs

     total energy              =   -1842.88763666 Ry
     Harris-Foulkes estimate   =   -1842.88763666 Ry
     estimated scf accuracy    <       0.00000005 Ry

     iteration # 20     ecut=    60.00 Ry     beta= 0.70
     Davidson diagonalization with overlap
     ethr =  2.30E-11,  avg # of iterations =  1.0

     negative rho (up, down):  1.469E-03 0.000E+00

     total cpu time spent up to now is     1177.2 secs

     total energy              =   -1842.88763665 Ry
     Harris-Foulkes estimate   =   -1842.88763666 Ry
     estimated scf accuracy    <       0.00000004 Ry

     iteration # 21     ecut=    60.00 Ry     beta= 0.70
     Davidson diagonalization with overlap
     ethr =  1.74E-11,  avg # of iterations =  1.0

     negative rho (up, down):  1.466E-03 0.000E+00

     total cpu time spent up to now is     1192.8 secs

     total energy              =   -1842.88763665 Ry
     Harris-Foulkes estimate   =   -1842.88763665 Ry
     estimated scf accuracy    <       0.00000007 Ry

     iteration # 22     ecut=    60.00 Ry     beta= 0.70
     Davidson diagonalization with overlap
     ethr =  1.74E-11,  avg # of iterations =  1.0

     negative rho (up, down):  1.475E-03 0.000E+00

     total cpu time spent up to now is     1209.0 secs

     total energy              =   -1842.88763664 Ry
     Harris-Foulkes estimate   =   -1842.88763665 Ry
     estimated scf accuracy    <       0.00000002 Ry

     iteration # 23     ecut=    60.00 Ry     beta= 0.70
     Davidson diagonalization with overlap
     ethr =  8.38E-12,  avg # of iterations =  1.0

     negative rho (up, down):  1.480E-03 0.000E+00

     total cpu time spent up to now is     1225.0 secs

     total energy              =   -1842.88763663 Ry
     Harris-Foulkes estimate   =   -1842.88763664 Ry
     estimated scf accuracy    <          5.4E-09 Ry

     iteration # 24     ecut=    60.00 Ry     beta= 0.70
     Davidson diagonalization with overlap
     ethr =  2.36E-12,  avg # of iterations =  1.2

     negative rho (up, down):  1.479E-03 0.000E+00

     total cpu time spent up to now is     1241.3 secs

     total energy              =   -1842.88763663 Ry
     Harris-Foulkes estimate   =   -1842.88763663 Ry
     estimated scf accuracy    <          2.0E-09 Ry

     iteration # 25     ecut=    60.00 Ry     beta= 0.70
     Davidson diagonalization with overlap
     ethr =  8.67E-13,  avg # of iterations =  1.2

     negative rho (up, down):  1.480E-03 0.000E+00

     total cpu time spent up to now is     1258.2 secs

     total energy              =   -1842.88763663 Ry
     Harris-Foulkes estimate   =   -1842.88763663 Ry
     estimated scf accuracy    <          9.8E-10 Ry

     iteration # 26     ecut=    60.00 Ry     beta= 0.70
     Davidson diagonalization with overlap
     ethr =  4.33E-13,  avg # of iterations =  1.1

     negative rho (up, down):  1.479E-03 0.000E+00

     total cpu time spent up to now is     1274.2 secs

     total energy              =   -1842.88763663 Ry
     Harris-Foulkes estimate   =   -1842.88763663 Ry
     estimated scf accuracy    <          5.8E-10 Ry

     iteration # 27     ecut=    60.00 Ry     beta= 0.70
     Davidson diagonalization with overlap
     ethr =  2.54E-13,  avg # of iterations =  1.1

     negative rho (up, down):  1.480E-03 0.000E+00

     total cpu time spent up to now is     1290.0 secs

     total energy              =   -1842.88763663 Ry
     Harris-Foulkes estimate   =   -1842.88763663 Ry
     estimated scf accuracy    <          1.3E-10 Ry

     iteration # 28     ecut=    60.00 Ry     beta= 0.70
     Davidson diagonalization with overlap
     ethr =  1.00E-13,  avg # of iterations =  1.1

     negative rho (up, down):  1.481E-03 0.000E+00

     total cpu time spent up to now is     1305.8 secs

     total energy              =   -1842.88763663 Ry
     Harris-Foulkes estimate   =   -1842.88763663 Ry
     estimated scf accuracy    <          1.1E-10 Ry

     iteration # 29     ecut=    60.00 Ry     beta= 0.70
     Davidson diagonalization with overlap
     ethr =  1.00E-13,  avg # of iterations =  1.0

     negative rho (up, down):  1.481E-03 0.000E+00

     total cpu time spent up to now is     1321.3 secs

     End of self-consistent calculation

          k = 0.0000 0.0000 0.0000 ( 34019 PWs)   bands (ev):

   -35.9411 -35.5054 -22.7565 -22.7102 -22.4984 -22.4458 -17.2447 -17.0099
   -16.9923 -16.9468 -16.5566 -16.5452 -15.2206 -15.1012 -14.7675 -14.7014
   -14.5935 -14.5904 -14.4911 -14.1572 -14.1005 -13.9011 -13.8650 -13.7426
   -13.7020 -13.6603 -13.5475  -7.8805  -7.8415  -7.8338  -7.8040  -7.6836
    -7.6665  -7.6265  -7.6111  -7.5444  -7.4874  -7.3760  -7.3243  -2.4374
    -2.2491  -2.1755  -1.7918  -1.7490  -1.7438  -1.6858  -1.5906  -1.5870
    -1.4578  -1.4529  -1.4022  -1.3266  -1.1393  -1.1284  -0.9887  -0.9583
    -0.7572  -0.5132  -0.4800  -0.4589  -0.3776  -0.2957  -0.2265  -0.1887
    -0.1837  -0.1803  -0.1707  -0.1694  -0.1649  -0.1492  -0.1140  -0.0968
    -0.0666  -0.0094   0.0437   0.0730   0.1797   0.1800   0.1921   0.2119
     0.2196   0.2543   0.2653   0.3488   0.3870   0.3906   0.4053   0.4850
     0.5037   0.8831   0.8884   0.9629   0.9717   1.0371   1.0685   1.2641
[...]

   -35.7214 -35.5017 -22.5365 -22.5243 -22.3919 -22.2797 -17.0600 -16.9322
   -16.9208 -16.8383 -16.7548 -16.7004 -14.8036 -14.6741 -14.6476 -14.4464
   -14.4033 -14.3296 -14.3103 -14.0760 -14.0507 -14.0430 -14.0167 -13.9193
   -13.8990 -13.8730 -13.7310  -8.2193  -8.1867  -8.0423  -7.9510  -7.8978
    -7.8609  -7.7766  -7.7750  -7.7526  -7.6633  -7.5872  -7.5097  -3.1985
    -3.1043  -2.9261  -2.8546  -2.5449  -2.4304  -2.3780  -2.3106  -2.2842
    -2.2704  -2.2317  -2.1798  -2.1019  -1.9869  -1.7074  -1.6658  -1.5552
    -1.5142  -1.4392  -1.1827  -1.0887  -0.9619  -0.8799  -0.8343  -0.8215
    -0.7975  -0.7327  -0.6734  -0.6128  -0.5777  -0.5672  -0.5180  -0.4141
    -0.3606  -0.3028  -0.2716   0.1056   0.1901   0.3492   0.5158   0.5410
     0.7159   0.7704   0.8315   0.8948   0.9026   1.0780   1.1064   1.1403
     1.2476   1.2844   1.3035   1.3439   1.4687   1.4768   1.4996   1.5408
     1.6683   1.6957   1.7167   1.7576   1.7763   1.8027   1.8193   1.8375
     1.8417   1.8532   1.8739   1.9011   1.9181   1.9640   2.2062   2.3748
     3.0454   3.0601   3.7684   3.8043   3.8494   3.9206   3.9352   6.4133
     6.7704   6.8078   7.5557   7.7140   8.4690   8.4762   8.7525   8.9062
     9.2469   9.4031   9.4853   9.5236   9.5725   9.6421   9.7081   9.8745
     9.8912

          k = 0.3750 0.3960 0.0000 ( 33993 PWs)   bands (ev):

   -35.7174 -35.4973 -22.4818 -22.4704 -22.3406 -22.2269 -17.0467 -17.0331
   -16.9035 -16.8816 -16.7783 -16.6206 -14.6687 -14.5084 -14.4110 -14.3521
   -14.3001 -14.1683 -14.1601 -14.1530 -14.1112 -14.0093 -13.9966 -13.9170
   -13.9089 -13.8177 -13.7971  -8.4851  -8.4412  -8.3249  -8.2134  -8.1501
    -8.1260  -7.9599  -7.9003  -7.8670  -7.8393  -7.7808  -7.6314  -3.6781
    -3.5589  -3.3851  -3.3002  -3.2377  -2.8738  -2.8625  -2.5606  -2.5099
    -2.4022  -2.3267  -2.2084  -2.1062  -2.0190  -1.9938  -1.9704  -1.7699
    -1.7516  -1.5517  -1.1893  -1.1376  -1.1217  -1.1102  -1.0316  -0.8889
    -0.8556  -0.8409  -0.7967  -0.7842  -0.7271  -0.6784  -0.6219  -0.5912
    -0.5297  -0.3249  -0.2804   0.2404   0.3372   0.3984   0.6528   0.7273
     0.9696   1.0927   1.1277   1.2298   1.2793   1.3152   1.3702   1.4263
     1.4604   1.5271   1.5552   1.5874   1.6235   1.6463   1.6724   1.7797
     1.8187   1.8424   1.8762   1.9017   1.9742   1.9958   2.0419   2.0715
     2.0960   2.1421   2.1561   2.2345   2.2502   2.2579   2.2797   2.5051
     2.8673   2.8821   4.2163   4.3116   4.3388   4.3833   4.4083   5.9663
     6.4672   6.5199   7.2867   7.4496   8.9405   8.9853   9.0458   9.1521
     9.4304   9.5112   9.5454   9.5796   9.6065   9.7100   9.7151   9.8707
     9.9282

          k = 0.3750-0.5279 0.0000 ( 34004 PWs)   bands (ev):

   -35.7157 -35.4955 -22.4588 -22.4477 -22.3190 -22.2046 -17.0788 -17.0361
   -16.9367 -16.8909 -16.7519 -16.5852 -14.6074 -14.4400 -14.3263 -14.2717
   -14.2120 -14.1958 -14.1418 -14.0815 -14.0741 -14.0227 -13.9879 -13.9876
   -13.9352 -13.8486 -13.7581  -8.5671  -8.5163  -8.4255  -8.3020  -8.2953
    -8.2761  -8.1152  -7.9264  -7.9246  -7.8916  -7.8154  -7.6437  -3.8848
    -3.7578  -3.6174  -3.5153  -3.4511  -3.0991  -3.0889  -2.5791  -2.5269
    -2.4164  -2.3321  -2.2026  -2.1261  -2.1039  -2.0871  -1.9811  -1.8542
    -1.8373  -1.5767  -1.2682  -1.2237  -1.2035  -1.1584  -1.0878  -0.8878
    -0.8838  -0.8828  -0.8822  -0.8538  -0.8114  -0.7732  -0.6475  -0.6193
    -0.4976  -0.3106  -0.2589   0.2747   0.3741   0.4147   0.7089   0.8130
     1.0443   1.2320   1.2886   1.3388   1.3749   1.4187   1.4197   1.4264
     1.4680   1.6061   1.6456   1.6662   1.7051   1.7932   1.8025   1.8427
     1.9012   1.9257   1.9284   2.0136   2.0969   2.1057   2.1327   2.2122
     2.2434   2.2847   2.3152   2.3599   2.4236   2.4406   2.4530   2.5714
     2.6201   2.6404   4.3075   4.4401   4.4866   4.5226   4.5556   5.7703
     6.2894   6.3473   7.1933   7.3611   8.8400   9.0130   9.1232   9.2281
     9.3811   9.4448   9.6981   9.7027   9.8167   9.8294   9.8569   9.9185
     9.9993

          k =-0.5000 0.0000 0.0000 ( 33930 PWs)   bands (ev):

   -35.7261 -35.5067 -22.5923 -22.5799 -22.4447 -22.3340 -17.1289 -17.0022
   -16.8886 -16.7649 -16.7625 -16.5446 -15.0316 -14.9755 -14.8649 -14.6056
   -14.5511 -14.3463 -14.2963 -14.2494 -14.1805 -14.1264 -14.0952 -13.9789
   -13.8731 -13.8568 -13.6905  -7.8652  -7.8492  -7.8121  -7.6086  -7.5767
    -7.5758  -7.3908  -7.3864  -7.3530  -7.2944  -7.2172  -7.1147  -2.9635
    -2.9257  -2.7830  -2.6988  -2.2851  -2.1132  -2.0389  -1.5817  -1.5454
    -1.5211  -1.4733  -1.3130  -1.3057  -1.2704  -1.2037  -1.1494  -1.1485
    -1.1363  -1.1044  -1.0806  -1.0272  -1.0024  -0.9233  -0.8731  -0.8340
    -0.8255  -0.7426  -0.5834  -0.5720  -0.4388  -0.3804  -0.2704  -0.2062
    -0.1523  -0.1457  -0.1174  -0.0602   0.1327   0.1389   0.2143   0.2598
     0.2624   0.4743   0.4874   0.4990   0.5186   0.5454   0.6205   0.6309
     0.6332   0.8386   0.8719   0.9421   1.0080   1.2052   1.2225   1.2795
     1.3956   1.4409   1.4688   1.5392   1.5552   1.6627   1.7053   1.7210
     1.7251   1.7701   1.8314   1.9413   1.9919   2.0205   2.0318   2.2098
     2.2720   2.3543   2.4951   2.6009   2.6955   2.8945   2.9135   7.0262
     7.3482   7.3749   7.4003   7.4095   8.1974   8.3436   8.5039   8.6181
     9.0467   9.1299   9.3593   9.4355   9.5278   9.6063   9.6121   9.7371
     9.7688

          k =-0.5000 0.1320 0.0000 ( 33986 PWs)   bands (ev):

   -35.7244 -35.5049 -22.5715 -22.5594 -22.4250 -22.3138 -17.1214 -16.9930
   -16.8687 -16.8119 -16.7349 -16.6083 -14.9740 -14.9013 -14.8081 -14.5640
   -14.5100 -14.3038 -14.2578 -14.1915 -14.1399 -14.1045 -14.0744 -13.9485
   -13.8990 -13.8942 -13.6938  -7.8892  -7.8722  -7.8510  -7.7061  -7.7018
    -7.6300  -7.5894  -7.5510  -7.5153  -7.4381  -7.4121  -7.3274  -3.0316
    -2.9846  -2.8354  -2.7508  -2.2901  -2.1288  -2.0653  -1.9429  -1.8916
    -1.7475  -1.7206  -1.6174  -1.5408  -1.5403  -1.4426  -1.3970  -1.3905
    -1.3563  -1.2581  -1.2332  -1.1761  -1.0298  -0.9553  -0.8492  -0.7983
    -0.6578  -0.6260  -0.6022  -0.5011  -0.4591  -0.3814  -0.3696  -0.2212
    -0.2190  -0.0016   0.0422   0.1161   0.1270   0.1770   0.2521   0.2845
     0.3302   0.4263   0.4315   0.5856   0.6005   0.6646   0.7092   0.8396
     0.8649   0.9847   1.0492   1.1051   1.1863   1.2342   1.2516   1.3507
     1.3754   1.4112   1.4896   1.5675   1.6541   1.6941   1.7078   1.7592
     1.7981   1.8047   1.8205   1.9487   1.9797   1.9939   2.0073   2.3745
     2.8217   2.8489   2.9840   3.0391   3.0926   3.2538   3.2884   6.8200
     7.1959   7.2290   7.7029   7.7036   8.1053   8.2486   8.3968   8.5518
     9.2974   9.3690   9.4082   9.5586   9.6012   9.6501   9.6962   9.7802
     9.8167

          k =-0.5000 0.2640 0.0000 ( 33976 PWs)   bands (ev):

   -35.7204 -35.5006 -22.5206 -22.5090 -22.3769 -22.2644 -17.1037 -16.9709
   -16.9291 -16.8088 -16.7515 -16.6639 -14.8224 -14.6964 -14.6562 -14.4650
   -14.4096 -14.1958 -14.1618 -14.0945 -14.0748 -14.0540 -14.0293 -13.9608
   -13.9401 -13.8746 -13.7249  -8.1581  -8.1139  -8.0072  -7.9966  -7.9947
    -7.8926  -7.8389  -7.8151  -7.7972  -7.7828  -7.6775  -7.5904  -3.3368
    -3.2533  -3.0699  -2.9946  -2.5364  -2.4559  -2.4035  -2.3236  -2.2999
    -2.2683  -2.2503  -2.1876  -2.1092  -2.0022  -1.8329  -1.7911  -1.6144
    -1.5598  -1.5378  -1.1030  -1.0355  -0.9256  -0.8976  -0.8508  -0.8441
    -0.7748  -0.7685  -0.7082  -0.6446  -0.6030  -0.5947  -0.5338  -0.4189
    -0.3547  -0.3236  -0.2999   0.1225   0.1988   0.4034   0.5743   0.5787
     0.7575   0.8079   0.8999   0.9234   0.9265   1.1532   1.1619   1.2033
     1.2453   1.2630   1.2866   1.2976   1.4639   1.5257   1.5525   1.6203
     1.6752   1.6851   1.7699   1.7825   1.7853   1.8328   1.8630   1.8896
     1.9229   1.9261   1.9816   2.0082   2.0173   2.0409   2.0852   2.3174
     3.0415   3.0537   3.7834   3.9358   3.9804   4.0548   4.0657   6.2894
     6.7660   6.8138   7.4822   7.6471   8.4890   8.5138   8.9105   9.1069
     9.3051   9.5098   9.6041   9.6597   9.6915   9.7167   9.8863   9.8953
     9.9625

          k =-0.5000 0.3960 0.0000 ( 33992 PWs)   bands (ev):

   -35.7164 -35.4963 -22.4684 -22.4575 -22.3277 -22.2137 -17.0862 -17.0330
   -16.9494 -16.8806 -16.7518 -16.5883 -14.6395 -14.4742 -14.4209 -14.3712
   -14.3139 -14.1489 -14.1065 -14.0802 -14.0629 -14.0060 -13.9952 -13.9010
   -13.9007 -13.8281 -13.8013  -8.5333  -8.4825  -8.3806  -8.2952  -8.2808
    -8.2631  -8.1132  -7.9194  -7.9168  -7.8749  -7.8507  -7.6336  -3.8083
    -3.6930  -3.4952  -3.4113  -3.2530  -2.8653  -2.8547  -2.6303  -2.5878
    -2.4704  -2.3918  -2.2248  -2.1244  -2.1225  -2.0795  -1.9932  -1.8372
    -1.7753  -1.6084  -1.1631  -1.1248  -1.1114  -1.0356  -0.9750  -0.9548
    -0.9470  -0.8205  -0.8161  -0.8104  -0.7101  -0.7004  -0.6712  -0.6688
    -0.5148  -0.2868  -0.2440   0.2631   0.3558   0.4574   0.7542   0.8179
     1.0644   1.2056   1.2147   1.3490   1.3574   1.4155   1.4269   1.4581
     1.5192   1.5364   1.6329   1.6486   1.6573   1.6791   1.7131   1.8176
     1.8283   1.9142   1.9234   1.9619   2.0204   2.0646   2.0783   2.1339
     2.1452   2.1999   2.2196   2.2562   2.2823   2.3487   2.4034   2.4517
     2.8579   2.8715   4.2157   4.5767   4.5861   4.6220   4.6516   5.7455
     6.2711   6.3299   7.1357   7.2990   8.8820   8.9941   8.9971   9.1591
     9.4070   9.5114   9.6178   9.6678   9.7441   9.7812   9.8266   9.8622
     9.9351

          k =-0.5000-0.5279 0.0000 ( 34028 PWs)   bands (ev):

   -35.7147 -35.4945 -22.4464 -22.4358 -22.3070 -22.1924 -17.0790 -17.0746
   -16.9405 -16.9313 -16.7269 -16.5548 -14.5418 -14.3666 -14.3613 -14.3061
   -14.1962 -14.1941 -14.1371 -14.0347 -14.0229 -13.9831 -13.9822 -13.9578
   -13.8716 -13.8607 -13.7720  -8.6793  -8.6266  -8.5379  -8.4138  -8.4113
    -8.3960  -8.2363  -8.0133  -7.9448  -7.9024  -7.8603  -7.6473  -4.0167
    -3.8918  -3.7032  -3.6099  -3.5058  -3.0896  -3.0802  -2.6628  -2.6220
    -2.4978  -2.4123  -2.2188  -2.2148  -2.1716  -2.1221  -1.9811  -1.9118
    -1.8449  -1.6302  -1.2773  -1.2383  -1.1657  -1.0989  -1.0298  -0.9506
    -0.9267  -0.9112  -0.9108  -0.8557  -0.8125  -0.7757  -0.7320  -0.6986
    -0.4686  -0.2580  -0.2126   0.3007   0.3952   0.4714   0.8283   0.9318
     1.1635   1.3163   1.4191   1.4361   1.4741   1.4758   1.4759   1.5148
     1.5356   1.6969   1.7114   1.7174   1.7248   1.7686   1.9057   1.9399
     1.9620   2.0226   2.0445   2.0743   2.1183   2.1368   2.2025   2.2253
     2.2755   2.3508   2.4120   2.4241   2.4586   2.5017   2.5791   2.5983
     2.6184   2.6233   4.3059   4.7537   4.7869   4.8149   4.8537   5.5121
     6.0440   6.1069   7.0350   7.1987   8.8419   8.9459   9.0956   9.1039
     9.1569   9.1735   9.4936   9.6444   9.7803   9.7931   9.9206   9.9668
    10.0829

     the Fermi energy is     2.6390 ev

!    total energy              =   -1842.89944592 Ry
     Harris-Foulkes estimate   =   -1842.89944592 Ry
     estimated scf accuracy    <          5.4E-13 Ry

     The total energy is the sum of the following terms:

     one-electron contribution =  -30766.66240801 Ry
     hartree contribution      =   15537.12069727 Ry
     xc contribution           =    -621.72589269 Ry
     ewald contribution        =   14008.37617915 Ry
     smearing contrib. (-TS)   =      -0.00802165 Ry

     convergence has been achieved in  30 iterations

     negative rho (up, down):  1.482E-03 0.000E+00

     Forces acting on atoms (cartesian axes, Ry/au):

     atom    1 type  4   force =     0.00000000    0.00000000   -0.00015835
     atom    2 type  3   force =     0.00000000    0.00000000    0.00039239
     atom    3 type  4   force =     0.00000000    0.00000000   -0.00075622
     atom    4 type  1   force =     0.00000000    0.00000000   -0.00028183
     atom    5 type  3   force =     0.00000000    0.00000000    0.00054826
     atom    6 type  4   force =     0.00000000    0.00000000   -0.00003184
     atom    7 type  4   force =     0.00000000    0.00000000    0.00034158
     atom    8 type  2   force =     0.00000000    0.00000000   -0.00059721
     atom    9 type  4   force =     0.00000000    0.00000000    0.00025566
     atom   10 type  4   force =     0.00000000    0.00000000    0.00017090
     atom   11 type  3   force =     0.00000000    0.00000000    0.00023429
     atom   12 type  1   force =     0.00000000    0.00000000    0.00020117
     atom   13 type  4   force =     0.00000000    0.00000000    0.00135928
     atom   14 type  4   force =     0.00000000    0.00000000    0.00118138
     atom   15 type  3   force =     0.00000000    0.00000000   -0.00150079
     atom   16 type  4   force =     0.00000000    0.00000000    0.00274005
     atom   17 type  1   force =     0.00000000    0.00000000    0.00559050
     atom   18 type  3   force =     0.00000000    0.00000000    0.00597744
     atom   19 type  4   force =     0.00000000    0.00000000    0.00173777
     atom   20 type  4   force =     0.00000000    0.00000000    0.00170661
     atom   21 type  2   force =     0.00000000    0.00000000   -0.00147842
     atom   22 type  4   force =     0.00000000    0.00000000   -0.00236150
     atom   23 type  4   force =     0.00000000    0.00000000   -0.00943192
     atom   24 type  3   force =     0.00000000    0.00000000    0.00604210
     atom   25 type  1   force =     0.00000000    0.00000000   -0.00483936
     atom   26 type  4   force =     0.00000000    0.00000000   -0.00072325
     atom   27 type  3   force =     0.00000000    0.00000000   -0.00697863
     atom   28 type  4   force =     0.00000000    0.00000000    0.00065992

     Total force =     0.014101     Total SCF correction =     0.000002


     Computing stress (Cartesian axis) and pressure


     negative rho (up, down):  1.482E-03 0.000E+00
          total   stress  (Ry/bohr**3)                   (kbar)     P=       -4.83
  -0.00001905   0.00000000   0.00000000           -2.80        0.00        0.00
   0.00000000  -0.00002363   0.00000000            0.00       -3.48        0.00
   0.00000000   0.00000000  -0.00005580            0.00        0.00       -8.21


     bfgs converged in   3 scf cycles and   1 bfgs steps
     (criteria: energy <  1.0E-03 Ry, force <  1.0E-02 Ry/Bohr)

     End of BFGS Geometry Optimization

     Final energy   =   -1842.8994459189 Ry
Begin final coordinates

ATOMIC_POSITIONS (angstrom)
O             0.0000000000        1.8611200000       -0.1846200000    0   0   0
Cu            0.0000000000        0.0000000000        0.1039800000    0   0   0
O             0.0000000000        0.0000000000        1.9772600000    0   0   0
Ba            1.9651100000        1.8611200000        2.2364100000    0   0   0
Cu            0.0000000000        0.0000000000        4.0773100000    0   0   0
O             1.9651100000        0.0000000000        4.2321000000    0   0   0
O             0.0000000000        1.8611200000        4.3692200000    0   0   0
Ca            1.9651100000        1.8611200000        5.8860000000    0   0   0
O             0.0000000000        1.8611200000        7.3367500000    0   0   0
O             1.9651100000        0.0000000000        7.4847600000    0   0   0
Cu            0.0000000000        0.0000000000        7.6688600000    0   0   0
Ba            1.9651100000        1.8611200000        9.5487700000    0   0   0
O             0.0000000000        0.0000000000        9.8708900000    0   0   0
O             0.0000000000        1.8611200000       11.7586400000    0   0   0
Cu            0.0000000000        0.0000000000       11.7588600000    0   0   0
O             0.0000000000        0.0000000000       13.6467800000    0   0   0
Ba            1.9651100000        1.8611200000       13.9688700000    0   0   0
Cu            0.0000000000        0.0000000000       15.8775401320
O             1.9651100000        0.0000000000       16.1154894174
O             0.0000000000        1.8611200000       16.2299876559
Ca            1.9651100000        1.8611200000       17.7475736284
O             0.0000000000        1.8611200000       19.2625111888
O             1.9651100000        0.0000000000       19.5131523339
Cu            0.0000000000        0.0000000000       19.5842909218
Ba            1.9651100000        1.8611200000       21.5051678710
O             0.0000000000        0.0000000000       21.7824655953
Cu            0.0000000000        0.0000000000       23.6635800000    0   0   0
O             0.0000000000        1.8611200000       23.9521300000    0   0   0
End final coordinates


 
     init_run     :      9.35s CPU      9.91s WALL (       1 calls)
     electrons    :   4242.86s CPU   4660.22s WALL (       9 calls)
     update_pot   :     13.07s CPU     13.17s WALL (       8 calls)
     forces       :     34.89s CPU     38.08s WALL (       9 calls)
     stress       :    280.04s CPU    288.58s WALL (       9 calls)

     Called by init_run:
     wfcinit      :      6.69s CPU      6.84s WALL (       1 calls)
     potinit      :      0.63s CPU      0.65s WALL (       1 calls)
     hinit0       :      1.00s CPU      1.01s WALL (       1 calls)

     Called by electrons:
     c_bands      :   3232.03s CPU   3457.91s WALL (     284 calls)
     sum_band     :    681.65s CPU    790.10s WALL (     284 calls)
     v_of_rho     :     30.08s CPU     30.38s WALL (     291 calls)
     newd         :    142.75s CPU    226.41s WALL (     291 calls)
     mix_rho      :    157.62s CPU    159.00s WALL (     284 calls)

     Called by c_bands:
     init_us_2    :     31.82s CPU     32.31s WALL (   14675 calls)
     cegterg      :   3024.67s CPU   3146.17s WALL (    7100 calls)

     Called by sum_band:
     sum_band:bec :      2.08s CPU      2.10s WALL (    7100 calls)
     addusdens    :    153.89s CPU    255.90s WALL (     284 calls)

     Called by *egterg:
     h_psi        :   1672.62s CPU   1744.29s WALL (   18949 calls)
     s_psi        :    165.54s CPU    167.54s WALL (   18949 calls)
     g_psi        :      5.53s CPU      5.60s WALL (   11824 calls)
     cdiaghg      :    473.70s CPU    476.32s WALL (   18674 calls)

     Called by h_psi:
     h_psi:calbec :    195.21s CPU    204.94s WALL (   18949 calls)
     vloc_psi     :   1298.24s CPU   1320.52s WALL (   18949 calls)
     add_vuspsi   :    169.10s CPU    191.94s WALL (   18949 calls)

     General routines
     calbec       :    379.36s CPU    389.82s WALL (   27174 calls)
     fft          :     29.00s CPU     29.17s WALL (    4000 calls)
     ffts         :     77.09s CPU     77.78s WALL (  112418 calls)
     fftw         :   1504.49s CPU   1529.70s WALL ( 4987608 calls)
     interpolate  :      2.45s CPU      2.46s WALL (     291 calls)
 
     Parallel routines
     fft_scatt_xy :    185.37s CPU    188.30s WALL ( 5104026 calls)
     fft_scatt_yz :    967.70s CPU    983.28s WALL ( 5104026 calls)
 
     PWSCF        :      1h16m CPU      1h24m WALL

 
   This run was terminated on:  19:11:33   9Jul2021            

=------------------------------------------------------------------------------=
   JOB DONE.
=------------------------------------------------------------------------------=
[1625872293.763438] [holy7c04307:183139:0]          mpool.c:43   UCX  WARN  object 0x3906240 was not returned to mpool ucp_requests
[1625872293.765880] [holy7c04307:183140:0]          mpool.c:43   UCX  WARN  object 0x42d9bc0 was not returned to mpool ucp_requests
[1625872293.763864] [holy7c06106:276698:0]          mpool.c:43   UCX  WARN  object 0x3306ac0 was not returned to mpool ucp_requests
[1625872293.770514] [holy7c06106:276696:0]          mpool.c:43   UCX  WARN  object 0x2f4b7c0 was not returned to mpool ucp_requests
[1625872293.770545] [holy7c06106:276696:0]          mpool.c:43   UCX  WARN  object 0x2f4b980 was not returned to mpool ucp_requests
[1625872293.773628] [holy7c06106:276693:0]          mpool.c:43   UCX  WARN  object 0x46a0700 was not returned to mpool ucp_requests
[1625872293.771951] [holy7c06106:276697:0]          mpool.c:43   UCX  WARN  object 0x3c2e780 was not returned to mpool ucp_requests
