
     Program PWSCF v.6.5 starts on  9Jul2021 at 17:48:34 

     This program is part of the open-source Quantum ESPRESSO suite
     for quantum simulation of materials; please cite
         "P. Giannozzi et al., J. Phys.:Condens. Matter 21 395502 (2009);
         "P. Giannozzi et al., J. Phys.:Condens. Matter 29 465901 (2017);
          URL http://www.quantum-espresso.org", 
     in publications or presentations arising from this work. More details at
     http://www.quantum-espresso.org/quote

     Parallel version (MPI), running on    20 processors

     MPI processes distributed on     2 nodes
     R & G space division:  proc/nbgrp/npool/nimage =      20
     Reading input from CBCO_Y_cleave_0.5_sep.pwi
Warning: card &CELL ignored
Warning: card     CELL_DYNAMICS = 'BFGS' ignored
Warning: card     PRESS_CONV_THR = 0.5 ignored
Warning: card / ignored

     Current dimensions of program PWSCF are:
     Max number of different atomic species (ntypx) = 10
     Max number of k-points (npk) =  40000
     Max angular momentum in pseudopotentials (lmaxx) =  3

     Subspace diagonalization in iterative solution of the eigenvalue problem:
     one sub-group per band group will be used
     scalapack distributed-memory algorithm (size of sub-group:  4*  4 procs)

     Message from routine setup:
     using ibrav=0 with symmetry is DISCOURAGED, use correct ibrav instead
 
     Parallelization info
     --------------------
     sticks:   dense  smooth     PW     G-vecs:    dense   smooth      PW
     Min         149      50     14                70963    13664    2134
     Max         150      51     15                71000    13687    2179
     Sum        2991    1007    289              1419661   273473   42977
 


     bravais-lattice index     =            0
     lattice parameter (alat)  =       7.4270  a.u.
     unit-cell volume          =    4351.6708 (a.u.)^3
     number of atoms/cell      =           28
     number of atomic types    =            4
     number of electrons       =       227.00
     number of Kohn-Sham states=          137
     kinetic-energy cutoff     =      60.0000  Ry
     charge density cutoff     =     720.0000  Ry
     convergence threshold     =      1.0E-10
     mixing beta               =       0.7000
     number of iterations used =           10  local-TF  mixing
     Exchange-correlation= SLA PW PBE PBE
                           (   1   4   3   4   0   0   0)
     nstep                     =          300


     celldm(1)=   7.427040  celldm(2)=   0.000000  celldm(3)=   0.000000
     celldm(4)=   0.000000  celldm(5)=   0.000000  celldm(6)=   0.000000

     crystal axes: (cart. coord. in units of alat)
               a(1) = (   1.000000   0.000000   0.000000 )  
               a(2) = (   0.000000   0.947081   0.000000 )  
               a(3) = (   0.000000   0.000000  11.215576 )  

     reciprocal axes: (cart. coord. in units 2 pi/alat)
               b(1) = (  1.000000  0.000000  0.000000 )  
               b(2) = (  0.000000  1.055876  0.000000 )  
               b(3) = (  0.000000  0.000000  0.089162 )  


     PseudoPot. # 1 for Ba read from file:
     ./pseudo/Ba.pbe-nsp-van.UPF
     MD5 check sum: 2b9c31dd849566dd297d80989662b7a0
     Pseudo is Ultrasoft + core correction, Zval = 10.0
     Generated by new atomic code, or converted to UPF format
     Using radial grid of  907 points,  6 beta functions with: 
                l(1) =   0
                l(2) =   0
                l(3) =   1
                l(4) =   1
                l(5) =   2
                l(6) =   2
     Q(r) pseudized with  6 coefficients,  rinner =    1.200   1.200   1.200
                                                       1.200   1.200

     PseudoPot. # 2 for Ca read from file:
     ./pseudo/Ca.pbe-nsp-van.UPF
     MD5 check sum: 6471098428ff4fa451746d08035ff179
     Pseudo is Ultrasoft + core correction, Zval = 10.0
     Generated by new atomic code, or converted to UPF format
     Using radial grid of  845 points,  6 beta functions with: 
                l(1) =   0
                l(2) =   0
                l(3) =   1
                l(4) =   1
                l(5) =   2
                l(6) =   2
     Q(r) pseudized with  6 coefficients,  rinner =    1.200   1.200   1.200
                                                       1.200   1.200

     PseudoPot. # 3 for Cu read from file:
     ./pseudo/Cu.pbe-n-van_ak.UPF
     MD5 check sum: 34e3282627ffb533726feb647e090d62
     Pseudo is Ultrasoft + core correction, Zval = 11.0
     Generated by new atomic code, or converted to UPF format
     Using radial grid of  867 points,  6 beta functions with: 
                l(1) =   0
                l(2) =   0
                l(3) =   1
                l(4) =   1
                l(5) =   2
                l(6) =   2
     Q(r) pseudized with  8 coefficients,  rinner =    1.400   1.400   1.400
                                                       1.400   1.400

     PseudoPot. # 4 for O  read from file:
     ./pseudo/O.pbe-van_ak.UPF
     MD5 check sum: 783ce7fe4c79b6a4916957118fed0856
     Pseudo is Ultrasoft, Zval =  6.0
     Generated by new atomic code, or converted to UPF format
     Using radial grid of  737 points,  4 beta functions with: 
                l(1) =   0
                l(2) =   0
                l(3) =   1
                l(4) =   1
     Q(r) pseudized with  8 coefficients,  rinner =    0.800   0.800   0.800


     atomic species   valence    mass     pseudopotential
        Ba            10.00   137.32700     Ba( 1.00)
        Ca            10.00    40.07800     Ca( 1.00)
        Cu            11.00    63.54600     Cu( 1.00)
        O              6.00    15.99900     O ( 1.00)

      4 Sym. Ops. (no inversion) found



   Cartesian axes

     site n.     atom                  positions (alat units)
         1           O   tau(   1) = (   0.0000000   0.4735409  -0.0469745  )
         2           Cu  tau(   2) = (   0.0000000   0.0000000   0.0264565  )
         3           O   tau(   3) = (   0.0000000   0.0000000   0.5030914  )
         4           Ba  tau(   4) = (   0.5000000   0.4735409   0.5690292  )
         5           Cu  tau(   5) = (   0.0000000   0.0000000   1.0374254  )
         6           O   tau(   6) = (   0.5000000   0.0000000   1.0768099  )
         7           O   tau(   7) = (   0.0000000   0.4735409   1.1116985  )
         8           Ca  tau(   8) = (   0.5000000   0.4735409   1.4976260  )
         9           O   tau(   9) = (   0.0000000   0.4735409   1.8667529  )
        10           O   tau(  10) = (   0.5000000   0.0000000   1.9044124  )
        11           Cu  tau(  11) = (   0.0000000   0.0000000   1.9512546  )
        12           Ba  tau(  12) = (   0.5000000   0.4735409   2.4295764  )
        13           O   tau(  13) = (   0.0000000   0.0000000   2.5115362  )
        14           O   tau(  14) = (   0.0000000   0.4735409   2.9918528  )
        15           Cu  tau(  15) = (   0.0000000   0.0000000   2.9919088  )
        16           O   tau(  16) = (   0.0000000   0.0000000   3.4722686  )
        17           Ba  tau(  17) = (   0.5000000   0.4735409   3.5542208  )
        18           Cu  tau(  18) = (   0.0000000   0.0000000   4.0537281  )
        19           O   tau(  19) = (   0.5000000   0.0000000   4.1079710  )
        20           O   tau(  20) = (   0.0000000   0.4735409   4.1013086  )
        21           Ca  tau(  21) = (   0.5000000   0.4735409   4.4699419  )
        22           O   tau(  22) = (   0.0000000   0.4735409   5.0126816  )
        23           O   tau(  23) = (   0.5000000   0.0000000   5.0493758  )
        24           Cu  tau(  24) = (   0.0000000   0.0000000   5.0531868  )
        25           Ba  tau(  25) = (   0.5000000   0.4735409   5.5419720  )
        26           O   tau(  26) = (   0.0000000   0.0000000   5.6078996  )
        27           Cu  tau(  27) = (   0.0000000   0.0000000   6.0845396  )
        28           O   tau(  28) = (   0.0000000   0.4735409   6.1579579  )

     number of k points=    25  Gaussian smearing, width (Ry)=  0.0100
                       cart. coord. in units 2pi/alat
        k(    1) = (   0.0000000   0.0000000   0.0000000), wk =   0.0312500
        k(    2) = (   0.0000000   0.1319845   0.0000000), wk =   0.0625000
        k(    3) = (   0.0000000   0.2639689   0.0000000), wk =   0.0625000
        k(    4) = (   0.0000000   0.3959534   0.0000000), wk =   0.0625000
        k(    5) = (   0.0000000  -0.5279378   0.0000000), wk =   0.0312500
        k(    6) = (   0.1250000   0.0000000   0.0000000), wk =   0.0625000
        k(    7) = (   0.1250000   0.1319845   0.0000000), wk =   0.1250000
        k(    8) = (   0.1250000   0.2639689   0.0000000), wk =   0.1250000
        k(    9) = (   0.1250000   0.3959534   0.0000000), wk =   0.1250000
        k(   10) = (   0.1250000  -0.5279378   0.0000000), wk =   0.0625000
        k(   11) = (   0.2500000   0.0000000   0.0000000), wk =   0.0625000
        k(   12) = (   0.2500000   0.1319845   0.0000000), wk =   0.1250000
        k(   13) = (   0.2500000   0.2639689   0.0000000), wk =   0.1250000
        k(   14) = (   0.2500000   0.3959534   0.0000000), wk =   0.1250000
        k(   15) = (   0.2500000  -0.5279378   0.0000000), wk =   0.0625000
        k(   16) = (   0.3750000   0.0000000   0.0000000), wk =   0.0625000
        k(   17) = (   0.3750000   0.1319845   0.0000000), wk =   0.1250000
        k(   18) = (   0.3750000   0.2639689   0.0000000), wk =   0.1250000
        k(   19) = (   0.3750000   0.3959534   0.0000000), wk =   0.1250000
        k(   20) = (   0.3750000  -0.5279378   0.0000000), wk =   0.0625000
        k(   21) = (  -0.5000000   0.0000000   0.0000000), wk =   0.0312500
        k(   22) = (  -0.5000000   0.1319845   0.0000000), wk =   0.0625000
        k(   23) = (  -0.5000000   0.2639689   0.0000000), wk =   0.0625000
        k(   24) = (  -0.5000000   0.3959534   0.0000000), wk =   0.0625000
        k(   25) = (  -0.5000000  -0.5279378   0.0000000), wk =   0.0312500

     Dense  grid:  1419661 G-vectors     FFT dimensions: (  64,  64, 720)

     Smooth grid:   273473 G-vectors     FFT dimensions: (  40,  36, 432)

     Estimated max dynamical RAM per process >     453.21 MB

     Estimated total dynamical RAM >       8.85 GB

     Initial potential from superposition of free atoms

     starting charge  226.84630, renormalised to  227.00000

     negative rho (up, down):  3.435E-03 0.000E+00
     Starting wfcs are  195 randomized atomic wfcs

     total cpu time spent up to now is       10.5 secs

     Self-consistent Calculation

     iteration #  1     ecut=    60.00 Ry     beta= 0.70
     Davidson diagonalization with overlap
     ethr =  1.00E-02,  avg # of iterations =  2.0

     negative rho (up, down):  2.896E-04 0.000E+00

     total cpu time spent up to now is       25.5 secs

     total energy              =   -1839.50398720 Ry
     Harris-Foulkes estimate   =   -1845.33934982 Ry
     estimated scf accuracy    <      18.01465920 Ry

     iteration #  2     ecut=    60.00 Ry     beta= 0.70
     Davidson diagonalization with overlap
     ethr =  7.94E-03,  avg # of iterations =  2.0

     negative rho (up, down):  2.647E-04 0.000E+00

     total cpu time spent up to now is       41.9 secs

     total energy              =   -1842.03016585 Ry
     Harris-Foulkes estimate   =   -1843.92530590 Ry
     estimated scf accuracy    <      13.08527598 Ry

     iteration #  3     ecut=    60.00 Ry     beta= 0.70
     Davidson diagonalization with overlap
     ethr =  5.76E-03,  avg # of iterations =  1.5

     negative rho (up, down):  2.488E-04 0.000E+00

     total cpu time spent up to now is       56.1 secs

     total energy              =   -1842.66265632 Ry
     Harris-Foulkes estimate   =   -1843.08573782 Ry
     estimated scf accuracy    <       3.81563470 Ry

     iteration #  4     ecut=    60.00 Ry     beta= 0.70
     Davidson diagonalization with overlap
     ethr =  1.68E-03,  avg # of iterations =  1.4

     negative rho (up, down):  2.424E-04 0.000E+00

     total cpu time spent up to now is       70.4 secs

     total energy              =   -1842.80955368 Ry
     Harris-Foulkes estimate   =   -1843.01122698 Ry
     estimated scf accuracy    <       7.17939754 Ry

     iteration #  5     ecut=    60.00 Ry     beta= 0.70
     Davidson diagonalization with overlap
     ethr =  1.68E-03,  avg # of iterations =  1.0

     negative rho (up, down):  2.377E-04 0.000E+00

     total cpu time spent up to now is       84.7 secs

     total energy              =   -1842.87382703 Ry
     Harris-Foulkes estimate   =   -1842.89825234 Ry
     estimated scf accuracy    <       0.88868729 Ry

     iteration #  6     ecut=    60.00 Ry     beta= 0.70
     Davidson diagonalization with overlap
     ethr =  3.91E-04,  avg # of iterations =  1.5

     negative rho (up, down):  2.348E-04 0.000E+00

     total cpu time spent up to now is       99.1 secs

     total energy              =   -1842.87365939 Ry
     Harris-Foulkes estimate   =   -1842.88687094 Ry
     estimated scf accuracy    <       1.22056191 Ry

     iteration #  7     ecut=    60.00 Ry     beta= 0.70
     Davidson diagonalization with overlap
     ethr =  3.91E-04,  avg # of iterations =  1.2

     negative rho (up, down):  2.339E-04 0.000E+00

     total cpu time spent up to now is      113.6 secs

     total energy              =   -1842.87035501 Ry
     Harris-Foulkes estimate   =   -1842.88424970 Ry
     estimated scf accuracy    <       1.37525747 Ry

     iteration #  8     ecut=    60.00 Ry     beta= 0.70
     Davidson diagonalization with overlap
     ethr =  3.91E-04,  avg # of iterations =  1.1

     negative rho (up, down):  2.339E-04 0.000E+00

     total cpu time spent up to now is      127.8 secs

     total energy              =   -1842.87018146 Ry
     Harris-Foulkes estimate   =   -1842.87651258 Ry
     estimated scf accuracy    <       0.54531890 Ry

     iteration #  9     ecut=    60.00 Ry     beta= 0.70
     Davidson diagonalization with overlap
     ethr =  2.40E-04,  avg # of iterations =  2.5

     negative rho (up, down):  2.335E-04 0.000E+00

     total cpu time spent up to now is      142.9 secs

     total energy              =   -1842.86500302 Ry
     Harris-Foulkes estimate   =   -1842.87223910 Ry
     estimated scf accuracy    <       0.29618644 Ry

     iteration # 10     ecut=    60.00 Ry     beta= 0.70
     Davidson diagonalization with overlap
     ethr =  1.30E-04,  avg # of iterations =  6.2

     negative rho (up, down):  2.336E-04 0.000E+00

     total cpu time spent up to now is      161.9 secs

     total energy              =   -1842.86363879 Ry
     Harris-Foulkes estimate   =   -1842.86702519 Ry
     estimated scf accuracy    <       0.10458385 Ry

     iteration # 11     ecut=    60.00 Ry     beta= 0.70
     Davidson diagonalization with overlap
     c_bands:  1 eigenvalues not converged
     ethr =  4.61E-05,  avg # of iterations =  7.6

     negative rho (up, down):  2.350E-04 0.000E+00

     total cpu time spent up to now is      182.5 secs

     total energy              =   -1842.86228952 Ry
     Harris-Foulkes estimate   =   -1842.86466576 Ry
     estimated scf accuracy    <       0.07736685 Ry

     iteration # 12     ecut=    60.00 Ry     beta= 0.70
     Davidson diagonalization with overlap
     c_bands:  1 eigenvalues not converged
     ethr =  3.41E-05,  avg # of iterations =  2.9

     negative rho (up, down):  2.398E-04 0.000E+00

     total cpu time spent up to now is      198.4 secs

     total energy              =   -1842.86198549 Ry
     Harris-Foulkes estimate   =   -1842.86299339 Ry
     estimated scf accuracy    <       0.11275392 Ry

     iteration # 13     ecut=    60.00 Ry     beta= 0.70
     Davidson diagonalization with overlap
     ethr =  3.41E-05,  avg # of iterations =  1.2

     negative rho (up, down):  4.689E-03 0.000E+00

     total cpu time spent up to now is      212.6 secs

     total energy              =   -1842.85974937 Ry
     Harris-Foulkes estimate   =   -1842.86229394 Ry
     estimated scf accuracy    <       0.07468080 Ry

     iteration # 14     ecut=    60.00 Ry     beta= 0.70
     Davidson diagonalization with overlap
     ethr =  3.29E-05,  avg # of iterations =  3.1

     negative rho (up, down):  7.641E-03 0.000E+00

     total cpu time spent up to now is      228.8 secs

     total energy              =   -1842.85922273 Ry
     Harris-Foulkes estimate   =   -1842.86047284 Ry
     estimated scf accuracy    <       0.04606846 Ry

     iteration # 15     ecut=    60.00 Ry     beta= 0.70
     Davidson diagonalization with overlap
     ethr =  2.03E-05,  avg # of iterations =  4.2

     negative rho (up, down):  8.572E-03 0.000E+00

     total cpu time spent up to now is      245.8 secs

     total energy              =   -1842.85793215 Ry
     Harris-Foulkes estimate   =   -1842.85953994 Ry
     estimated scf accuracy    <       0.03073592 Ry

     iteration # 16     ecut=    60.00 Ry     beta= 0.70
     Davidson diagonalization with overlap
     ethr =  1.35E-05,  avg # of iterations =  4.4

     negative rho (up, down):  1.973E-02 0.000E+00

     total cpu time spent up to now is      263.6 secs

     total energy              =   -1842.85727762 Ry
     Harris-Foulkes estimate   =   -1842.85838109 Ry
     estimated scf accuracy    <       0.01351085 Ry

     iteration # 17     ecut=    60.00 Ry     beta= 0.70
     Davidson diagonalization with overlap
     ethr =  5.95E-06,  avg # of iterations =  8.9

     negative rho (up, down):  1.915E-02 0.000E+00

     total cpu time spent up to now is      285.7 secs

     total energy              =   -1842.85700722 Ry
     Harris-Foulkes estimate   =   -1842.85754021 Ry
     estimated scf accuracy    <       0.00825223 Ry

     iteration # 18     ecut=    60.00 Ry     beta= 0.70
     Davidson diagonalization with overlap
     ethr =  3.64E-06,  avg # of iterations =  6.7

     negative rho (up, down):  1.451E-02 0.000E+00

     total cpu time spent up to now is      305.6 secs

     total energy              =   -1842.85669350 Ry
     Harris-Foulkes estimate   =   -1842.85715349 Ry
     estimated scf accuracy    <       0.00508638 Ry

     iteration # 19     ecut=    60.00 Ry     beta= 0.70
     Davidson diagonalization with overlap
     ethr =  2.24E-06,  avg # of iterations =  7.4

     negative rho (up, down):  9.639E-03 0.000E+00

     total cpu time spent up to now is      326.8 secs

     total energy              =   -1842.85657203 Ry
     Harris-Foulkes estimate   =   -1842.85678563 Ry
     estimated scf accuracy    <       0.00225824 Ry

     iteration # 20     ecut=    60.00 Ry     beta= 0.70
     Davidson diagonalization with overlap
     ethr =  9.95E-07,  avg # of iterations =  7.4

     negative rho (up, down):  5.313E-03 0.000E+00

     total cpu time spent up to now is      348.4 secs

     total energy              =   -1842.85650388 Ry
     Harris-Foulkes estimate   =   -1842.85666017 Ry
     estimated scf accuracy    <       0.00058650 Ry

     iteration # 21     ecut=    60.00 Ry     beta= 0.70
     Davidson diagonalization with overlap
     c_bands:  1 eigenvalues not converged
     c_bands:  1 eigenvalues not converged
     c_bands:  1 eigenvalues not converged
     ethr =  2.58E-07,  avg # of iterations =  8.6

     negative rho (up, down):  1.689E-03 0.000E+00

     total cpu time spent up to now is      370.3 secs

     total energy              =   -1842.85653651 Ry
     Harris-Foulkes estimate   =   -1842.85653005 Ry
     estimated scf accuracy    <       0.00028340 Ry

     iteration # 22     ecut=    60.00 Ry     beta= 0.70
     Davidson diagonalization with overlap
     c_bands:  1 eigenvalues not converged
     c_bands:  1 eigenvalues not converged
     c_bands:  1 eigenvalues not converged
     ethr =  1.25E-07,  avg # of iterations =  8.0

     negative rho (up, down):  9.562E-04 0.000E+00

     total cpu time spent up to now is      391.3 secs

     total energy              =   -1842.85654854 Ry
     Harris-Foulkes estimate   =   -1842.85654360 Ry
     estimated scf accuracy    <       0.00005981 Ry

     iteration # 23     ecut=    60.00 Ry     beta= 0.70
     Davidson diagonalization with overlap
     c_bands:  1 eigenvalues not converged
     c_bands:  1 eigenvalues not converged
     ethr =  2.63E-08,  avg # of iterations =  5.4

     negative rho (up, down):  7.804E-04 0.000E+00

     total cpu time spent up to now is      409.1 secs

     total energy              =   -1842.85654716 Ry
     Harris-Foulkes estimate   =   -1842.85655166 Ry
     estimated scf accuracy    <       0.00005391 Ry

     iteration # 24     ecut=    60.00 Ry     beta= 0.70
     Davidson diagonalization with overlap
     c_bands:  1 eigenvalues not converged
     ethr =  2.37E-08,  avg # of iterations =  2.2

     negative rho (up, down):  1.181E-03 0.000E+00

     total cpu time spent up to now is      424.2 secs

     total energy              =   -1842.85654880 Ry
     Harris-Foulkes estimate   =   -1842.85654957 Ry
     estimated scf accuracy    <       0.00002979 Ry

     iteration # 25     ecut=    60.00 Ry     beta= 0.70
     Davidson diagonalization with overlap
     ethr =  1.31E-08,  avg # of iterations =  2.0

     negative rho (up, down):  1.352E-03 0.000E+00

     total cpu time spent up to now is      439.0 secs

     total energy              =   -1842.85655012 Ry
     Harris-Foulkes estimate   =   -1842.85655068 Ry
     estimated scf accuracy    <       0.00001702 Ry

     iteration # 26     ecut=    60.00 Ry     beta= 0.70
     Davidson diagonalization with overlap
     ethr =  7.50E-09,  avg # of iterations =  1.0

     negative rho (up, down):  1.389E-03 0.000E+00

     total cpu time spent up to now is      453.3 secs

     total energy              =   -1842.85655041 Ry
     Harris-Foulkes estimate   =   -1842.85655052 Ry
     estimated scf accuracy    <       0.00000233 Ry

     iteration # 27     ecut=    60.00 Ry     beta= 0.70
     Davidson diagonalization with overlap
     ethr =  1.02E-09,  avg # of iterations =  2.5

     negative rho (up, down):  1.517E-03 0.000E+00

     total cpu time spent up to now is      469.2 secs

     total energy              =   -1842.85655020 Ry
     Harris-Foulkes estimate   =   -1842.85655053 Ry
     estimated scf accuracy    <       0.00000222 Ry

     iteration # 28     ecut=    60.00 Ry     beta= 0.70
     Davidson diagonalization with overlap
     ethr =  9.79E-10,  avg # of iterations =  1.2

     negative rho (up, down):  1.532E-03 0.000E+00

     total cpu time spent up to now is      483.2 secs

     total energy              =   -1842.85655023 Ry
     Harris-Foulkes estimate   =   -1842.85655026 Ry
     estimated scf accuracy    <       0.00000022 Ry

     iteration # 29     ecut=    60.00 Ry     beta= 0.70
     Davidson diagonalization with overlap
     ethr =  9.74E-11,  avg # of iterations =  3.4

     negative rho (up, down):  1.529E-03 0.000E+00

     total cpu time spent up to now is      500.9 secs

     total energy              =   -1842.85655025 Ry
     Harris-Foulkes estimate   =   -1842.85655026 Ry
     estimated scf accuracy    <       0.00000019 Ry

     iteration # 30     ecut=    60.00 Ry     beta= 0.70
     Davidson diagonalization with overlap
     ethr =  8.32E-11,  avg # of iterations =  1.0

     negative rho (up, down):  1.517E-03 0.000E+00

     total cpu time spent up to now is      514.9 secs

     total energy              =   -1842.85655027 Ry
     Harris-Foulkes estimate   =   -1842.85655026 Ry
     estimated scf accuracy    <       0.00000007 Ry

     iteration # 31     ecut=    60.00 Ry     beta= 0.70
     Davidson diagonalization with overlap
     ethr =  3.19E-11,  avg # of iterations =  1.0

     negative rho (up, down):  1.517E-03 0.000E+00

     total cpu time spent up to now is      528.6 secs

     total energy              =   -1842.85655027 Ry
     Harris-Foulkes estimate   =   -1842.85655028 Ry
     estimated scf accuracy    <       0.00000004 Ry

     iteration # 32     ecut=    60.00 Ry     beta= 0.70
     Davidson diagonalization with overlap
     ethr =  1.97E-11,  avg # of iterations =  1.0

     negative rho (up, down):  1.514E-03 0.000E+00

     total cpu time spent up to now is      542.9 secs

     total energy              =   -1842.85655028 Ry
     Harris-Foulkes estimate   =   -1842.85655028 Ry
     estimated scf accuracy    <          9.7E-09 Ry

     iteration # 33     ecut=    60.00 Ry     beta= 0.70
     Davidson diagonalization with overlap
     ethr =  4.27E-12,  avg # of iterations =  1.6

     negative rho (up, down):  1.516E-03 0.000E+00

     total cpu time spent up to now is      557.7 secs

     total energy              =   -1842.85655028 Ry
     Harris-Foulkes estimate   =   -1842.85655028 Ry
     estimated scf accuracy    <          6.6E-09 Ry

     iteration # 34     ecut=    60.00 Ry     beta= 0.70
     Davidson diagonalization with overlap
     ethr =  2.91E-12,  avg # of iterations =  1.0

     negative rho (up, down):  1.518E-03 0.000E+00

     total cpu time spent up to now is      571.9 secs

     total energy              =   -1842.85655027 Ry
     Harris-Foulkes estimate   =   -1842.85655028 Ry
     estimated scf accuracy    <          3.8E-09 Ry

     iteration # 35     ecut=    60.00 Ry     beta= 0.70
     Davidson diagonalization with overlap
     ethr =  1.67E-12,  avg # of iterations =  1.2

     negative rho (up, down):  1.519E-03 0.000E+00

     total cpu time spent up to now is      586.5 secs

     total energy              =   -1842.85655027 Ry
     Harris-Foulkes estimate   =   -1842.85655027 Ry
     estimated scf accuracy    <          1.2E-09 Ry

     iteration # 36     ecut=    60.00 Ry     beta= 0.70
     Davidson diagonalization with overlap
     ethr =  5.17E-13,  avg # of iterations =  2.0

     negative rho (up, down):  1.519E-03 0.000E+00

     total cpu time spent up to now is      601.4 secs

     total energy              =   -1842.85655027 Ry
     Harris-Foulkes estimate   =   -1842.85655027 Ry
     estimated scf accuracy    <          3.5E-10 Ry

     iteration # 37     ecut=    60.00 Ry     beta= 0.70
     Davidson diagonalization with overlap
     ethr =  1.54E-13,  avg # of iterations =  2.9

     negative rho (up, down):  1.518E-03 0.000E+00

     total cpu time spent up to now is      617.3 secs

     total energy              =   -1842.85655027 Ry
     Harris-Foulkes estimate   =   -1842.85655027 Ry
     estimated scf accuracy    <          1.3E-10 Ry

     iteration # 38     ecut=    60.00 Ry     beta= 0.70
     Davidson diagonalization with overlap
     ethr =  1.00E-13,  avg # of iterations =  1.0

     negative rho (up, down):  1.519E-03 0.000E+00

     total cpu time spent up to now is      630.5 secs

     End of self-consistent calculation

          k = 0.0000 0.0000 0.0000 ( 34267 PWs)   bands (ev):

   -36.5769 -35.5360 -22.7406 -22.6224 -22.4826 -22.4036 -17.8195 -17.6136
   -17.5917 -17.0405 -16.5871 -16.5758 -15.2512 -15.2113 -14.9545 -14.7925
   -14.6209 -14.5216 -14.4884 -14.1445 -14.1309 -13.9959 -13.9315 -13.7731
   -13.7182 -13.6643 -13.5335  -7.8720  -7.8477  -7.8344  -7.6629  -7.6415
    -7.6327  -7.5264  -7.5082  -7.4987  -7.4867  -7.3611  -7.3161  -2.2794
    -2.1544  -2.0329  -1.8534  -1.8112  -1.7794  -1.7158  -1.6178  -1.4884
    -1.4323  -1.3446  -1.2629  -1.1955  -1.1717  -1.1698  -0.9934  -0.9487
    -0.7893  -0.5422  -0.4081  -0.3300  -0.3262  -0.2755  -0.2608  -0.2534
    -0.2273  -0.2141  -0.1985  -0.1945  -0.1543  -0.1460  -0.1277  -0.1259
    -0.1032  -0.0392  -0.0141   0.0133   0.1101   0.1461   0.1492   0.1496
     0.1567   0.1666   0.2192   0.2239   0.2601   0.3595   0.3744   0.4682
     0.6058   0.7651   0.8443   0.8575   0.9324   0.9954   1.0157   1.0846
     1.1168   1.2334   1.2494   1.2956   1.3994   1.4263   1.5459   1.5713
     1.5805   1.6565   1.6683   1.8058   1.8874   2.0555   2.0854   2.1342
     2.1574   2.2065   2.2327   2.3107   2.3263   2.5591   2.5865   5.2281
     5.2681   5.5337   5.9969   6.3900   6.8142   7.0326   7.1725   7.3404
     8.0053   8.0501   8.2117   8.3626   8.6219   8.6314   8.8085   8.9027
     8.9485

          k = 0.0000 0.1320 0.0000 ( 34203 PWs)   bands (ev):

   -36.5751 -35.5342 -22.7140 -22.5978 -22.4571 -22.3763 -17.8172 -17.6226
   -17.6115 -17.0043 -16.6483 -16.5848 -15.1625 -15.1436 -14.9067 -14.7387
   -14.6261 -14.4943 -14.4640 -14.1565 -14.1404 -14.0278 -13.9370 -13.8187
   -13.7483 -13.7086 -13.5954  -7.8716  -7.8416  -7.7866  -7.6838  -7.6608
    -7.5891  -7.5367  -7.5025  -7.4812  -7.4596  -7.4083  -7.3551  -2.3381
    -2.2444  -2.1372  -2.0968  -2.0781  -1.9955  -1.8286  -1.7875  -1.6164
    -1.5974  -1.5939  -1.5887  -1.4707  -1.3007  -1.2247  -1.2040  -1.0407
    -0.8710  -0.5938  -0.5897  -0.5762  -0.5055  -0.4427  -0.4373  -0.4104
    -0.3847  -0.2875  -0.2651  -0.2461  -0.2196  -0.1545  -0.1102  -0.0973
    -0.0922  -0.0096  -0.0065   0.0347   0.0533   0.0576   0.1730   0.1829
     0.1940   0.2229   0.2409   0.2668   0.3133   0.3310   0.4199   0.6997
     0.7707   0.8202   0.9017   0.9842   1.0198   1.1087   1.1296   1.1990
     1.2145   1.2388   1.2737   1.3795   1.4663   1.5109   1.5494   1.5861
     1.5970   1.6504   1.7120   1.7752   1.8761   2.0108   2.0210   2.0524
     2.0825   2.0982   2.1386   2.5037   2.8496   2.8671   2.9238   5.6100
     5.6436   5.8135   6.2461   6.6371   7.1181   7.3462   7.4736   7.6069
     8.1876   8.2246   8.3836   8.5615   8.7129   8.8050   8.8427   8.9105
     9.0543

          k = 0.0000 0.2640 0.0000 ( 34079 PWs)   bands (ev):

   -36.5709 -35.5298 -22.6481 -22.5373 -22.3944 -22.3089 -17.8445 -17.6596
   -17.6063 -16.9122 -16.8027 -16.5792 -14.9677 -14.9625 -14.7895 -14.6749
   -14.5966 -14.4326 -14.4311 -14.2112 -14.1277 -14.0735 -13.9767 -13.9448
   -13.8238 -13.7798 -13.7432  -7.8711  -7.8285  -7.7741  -7.6662  -7.6604
    -7.6400  -7.5117  -7.5102  -7.4801  -7.4393  -7.3677  -7.3373  -2.8457
    -2.7820  -2.6550  -2.6287  -2.5482  -2.3780  -2.3152  -2.2306  -2.1297
    -2.0502  -1.7527  -1.6231  -1.5436  -1.4267  -1.4143  -1.3235  -1.2262
    -1.0648  -0.9137  -0.8734  -0.8361  -0.7597  -0.7539  -0.6805  -0.6732
    -0.6445  -0.6007  -0.4841  -0.4681  -0.4491  -0.4467  -0.3845  -0.2950
    -0.2647  -0.0451  -0.0045   0.0629   0.0867   0.1444   0.1792   0.2285
     0.2621   0.2644   0.3788   0.4242   0.6679   0.6801   0.7486   0.9144
     0.9540   0.9935   1.0212   1.0985   1.1856   1.2150   1.2276   1.2477
     1.2704   1.2948   1.3600   1.3802   1.4238   1.5155   1.6067   1.6988
     1.7321   1.7447   1.8625   1.9849   1.9923   2.0242   2.0333   2.0407
     2.1081   2.1330   2.2256   2.6444   3.0911   3.1320   3.7827   6.3438
     6.5371   6.6008   6.8250   7.3596   7.9384   8.0691   8.3057   8.3553
     8.5305   8.5364   8.7116   8.7623   8.8762   8.9819   9.0756   9.1897
     9.3694

          k = 0.0000 0.3960 0.0000 ( 34048 PWs)   bands (ev):

   -36.5666 -35.5254 -22.5799 -22.4750 -22.3297 -22.2390 -17.9133 -17.6490
   -17.6012 -16.9390 -16.8105 -16.5735 -14.8839 -14.7541 -14.7106 -14.6327
   -14.4564 -14.3934 -14.3715 -14.3044 -14.0978 -14.0547 -14.0478 -14.0417
   -13.9408 -13.9025 -13.8300  -7.8711  -7.8523  -7.8143  -7.7434  -7.6441
    -7.5997  -7.5377  -7.5246  -7.5073  -7.3649  -7.2473  -7.2065  -3.4261
    -3.3300  -3.2381  -3.2292  -3.0084  -2.9449  -2.9258  -2.3214  -2.1637
    -2.0919  -1.9614  -1.7576  -1.6423  -1.6285  -1.4783  -1.3301  -1.3229
    -1.2490  -1.1253  -1.0910  -1.0313  -1.0225  -0.9544  -0.9214  -0.8920
    -0.8812  -0.8087  -0.7656  -0.6997  -0.6915  -0.6560  -0.3683  -0.3377
    -0.2832  -0.1065  -0.0448   0.0014   0.0800   0.1750   0.1771   0.2101
     0.2279   0.2610   0.3532   0.5433   0.8320   0.8745   0.9238   0.9280
     0.9803   1.0077   1.0194   1.1019   1.1187   1.1438   1.1860   1.2199
     1.4322   1.4654   1.5708   1.6538   1.6563   1.6717   1.7732   1.7991
     1.8150   1.9299   1.9871   2.0345   2.1211   2.1224   2.1944   2.2498
     2.3099   2.4183   2.4321   2.5867   2.9857   3.0820   4.3534   6.9726
     7.4453   7.4866   7.5806   8.3105   8.3237   8.3463   8.4478   8.7302
     8.8650   9.0986   9.1386   9.1409   9.2176   9.4787   9.5371   9.6087
     9.6866

          k = 0.0000-0.5279 0.0000 ( 34110 PWs)   bands (ev):

   -36.5649 -35.5235 -22.5510 -22.4486 -22.3023 -22.2093 -17.9468 -17.6381
   -17.5990 -16.9911 -16.7656 -16.5712 -14.9262 -14.7328 -14.5623 -14.5183
   -14.5157 -14.4378 -14.2688 -14.2223 -14.1819 -14.0768 -14.0552 -14.0219
   -14.0079 -13.9924 -13.8587  -7.8820  -7.8707  -7.8040  -7.7822  -7.6409
    -7.6346  -7.5451  -7.5172  -7.4818  -7.3151  -7.1951  -7.1496  -3.6759
    -3.5539  -3.4546  -3.4169  -3.1871  -3.1649  -3.1602  -2.3375  -2.1740
    -2.0967  -2.0888  -1.8879  -1.7713  -1.5289  -1.4447  -1.4290  -1.2641
    -1.2488  -1.2193  -1.2143  -1.1503  -1.1336  -1.0569  -1.0322  -0.9894
    -0.9167  -0.8830  -0.8821  -0.7867  -0.7767  -0.7314  -0.3533  -0.3422
    -0.2480  -0.2043  -0.0383   0.0039   0.0856   0.1702   0.1862   0.2209
     0.2549   0.2571   0.2824   0.4722   0.8093   0.8674   0.9064   0.9087
     0.9200   0.9794   1.0390   1.0551   1.1282   1.1690   1.1859   1.3692
     1.4305   1.5566   1.6309   1.7290   1.7876   1.7881   1.8457   1.9436
     2.0634   2.0704   2.0707   2.1143   2.1154   2.1724   2.2312   2.2892
     2.2906   2.5409   2.5799   2.5918   2.8083   2.9607   4.5305   7.3281
     7.7482   7.8974   8.0950   8.1357   8.2458   8.3443   8.9418   9.0063
     9.0570   9.1664   9.2206   9.3756   9.3851   9.4358   9.4886   9.6775
     9.9675

          k = 0.1250 0.0000 0.0000 ( 34183 PWs)   bands (ev):

   -36.5760 -35.5349 -22.7226 -22.6054 -22.4654 -22.3853 -17.8119 -17.6390
   -17.5906 -17.0071 -16.6674 -16.5744 -15.1562 -15.1485 -14.9294 -14.8146
   -14.6665 -14.5269 -14.5139 -14.1621 -14.1399 -14.0173 -13.9434 -13.7939
   -13.7494 -13.7181 -13.5651  -7.8978  -7.8803  -7.7726  -7.7014  -7.6091
    -7.5712  -7.5376  -7.4666  -7.4571  -7.4335  -7.3306  -7.2831  -2.3221
    -2.1996  -2.0736  -2.0368  -1.8216  -1.7796  -1.7570  -1.7569  -1.6870
    -1.5116  -1.4023  -1.3214  -1.2434  -1.1693  -1.1677  -1.0136  -0.9946
    -0.8191  -0.6216  -0.5732  -0.5198  -0.4637  -0.3767  -0.3601  -0.3308
    -0.3045  -0.2887  -0.2500  -0.2172  -0.2087  -0.1843  -0.1603  -0.1436
    -0.1111  -0.0297  -0.0273   0.0073   0.1369   0.1423   0.1597   0.1669
     0.2000   0.2378   0.2450   0.2651   0.2739   0.4066   0.4296   0.4733
     0.7337   0.8233   0.8430   0.8535   0.9041   0.9555   1.0620   1.0796
     1.1757   1.2008   1.2383   1.2633   1.4164   1.4298   1.5360   1.5829
     1.6370   1.6930   1.7558   1.9261   2.0078   2.0326   2.0533   2.0620
     2.1601   2.1612   2.2390   2.2582   2.3767   2.6168   2.6212   5.4453
     5.4531   5.7143   6.1664   6.5628   7.0283   7.2223   7.3665   7.5425
     8.1720   8.2085   8.3622   8.5227   8.7492   8.8696   8.8807   8.9276
     9.0168

          k = 0.1250 0.1320 0.0000 ( 34158 PWs)   bands (ev):

   -36.5743 -35.5331 -22.6967 -22.5816 -22.4407 -22.3588 -17.8102 -17.6437
   -17.6139 -16.9719 -16.6705 -16.6376 -15.0911 -15.0675 -14.8823 -14.7581
   -14.6609 -14.4970 -14.4856 -14.1700 -14.1409 -14.0360 -13.9492 -13.8331
   -13.7783 -13.7519 -13.6159  -7.9170  -7.8658  -7.8349  -7.7192  -7.6616
    -7.5768  -7.5714  -7.5592  -7.4765  -7.4085  -7.2895  -7.2453  -2.3751
    -2.2779  -2.1418  -2.1088  -2.0834  -2.0009  -1.9699  -1.8006  -1.7704
    -1.7280  -1.6262  -1.5950  -1.5880  -1.4956  -1.3068  -1.2273  -1.0768
    -0.9023  -0.7555  -0.7378  -0.6307  -0.6073  -0.5716  -0.5181  -0.4950
    -0.4548  -0.4461  -0.3742  -0.2678  -0.2226  -0.2086  -0.1551  -0.1514
    -0.0931  -0.0742   0.0120   0.0343   0.0611   0.0694   0.1870   0.2048
     0.2294   0.2577   0.2754   0.3074   0.3397   0.3799   0.5691   0.7489
     0.8692   0.9464   0.9593   1.0623   1.0899   1.1191   1.1628   1.1847
     1.1957   1.2732   1.3191   1.3310   1.3352   1.3736   1.5203   1.5344
     1.6428   1.7115   1.7288   1.7483   1.8350   1.8439   2.0356   2.2569
     2.3369   2.3973   2.4740   2.6023   2.8619   2.8781   2.9378   5.7839
     5.7869   5.9452   6.3598   6.7842   7.3239   7.5300   7.6533   7.8031
     8.3392   8.3583   8.5059   8.6907   8.7103   8.7543   8.9883   9.0725
     9.1732

          k = 0.1250 0.2640 0.0000 ( 34093 PWs)   bands (ev):

   -36.5700 -35.5287 -22.6329 -22.5228 -22.3798 -22.2934 -17.8390 -17.6724
   -17.6152 -16.8827 -16.7996 -16.6501 -14.9223 -14.8934 -14.7670 -14.6612
   -14.6079 -14.4318 -14.4271 -14.2139 -14.1231 -14.0664 -13.9985 -13.9363
   -13.8464 -13.7979 -13.7419  -7.9860  -7.8719  -7.8446  -7.8301  -7.6962
    -7.6566  -7.6533  -7.5619  -7.5105  -7.4001  -7.2839  -7.2328  -2.8658
    -2.8053  -2.6485  -2.6367  -2.5568  -2.3785  -2.3118  -2.2300  -2.1462
    -2.0566  -1.9556  -1.7512  -1.6913  -1.5823  -1.5135  -1.4330  -1.3191
    -1.0877  -1.0257  -0.9535  -0.9256  -0.8638  -0.8276  -0.8243  -0.8076
    -0.7011  -0.6596  -0.6427  -0.5132  -0.5066  -0.4502  -0.4458  -0.3871
    -0.2702  -0.1599  -0.0787   0.0053   0.0267   0.1565   0.2415   0.2563
     0.4307   0.4509   0.5112   0.5488   0.7729   0.7847   0.8185   0.8548
     1.0467   1.0708   1.1318   1.1527   1.1965   1.2154   1.3391   1.3545
     1.3640   1.4197   1.4480   1.4700   1.4925   1.5282   1.5872   1.5987
     1.6597   1.6972   1.7559   1.8257   1.9884   2.0159   2.0966   2.2984
     2.5859   2.6389   2.7016   2.8396   3.1021   3.1437   3.7837   6.3979
     6.5981   6.6649   6.8103   7.4380   8.1030   8.2334   8.3154   8.4338
     8.5012   8.6215   8.8334   8.8550   8.9214   9.0499   9.0968   9.2126
     9.2749

          k = 0.1250 0.3960 0.0000 ( 34104 PWs)   bands (ev):

   -36.5658 -35.5243 -22.5670 -22.4623 -22.3170 -22.2258 -17.9091 -17.6686
   -17.6018 -16.9338 -16.7840 -16.6415 -14.8490 -14.7162 -14.6802 -14.5587
   -14.4408 -14.3705 -14.3569 -14.3022 -14.0935 -14.0771 -14.0485 -14.0319
   -13.9427 -13.8863 -13.8241  -8.0164  -7.9120  -7.8834  -7.8141  -7.7443
    -7.6790  -7.6635  -7.6069  -7.5319  -7.4310  -7.3236  -7.2735  -3.4442
    -3.3441  -3.2784  -3.2515  -3.0371  -2.9365  -2.9181  -2.3297  -2.1809
    -2.0993  -1.9374  -1.7935  -1.7417  -1.6097  -1.6028  -1.5403  -1.4529
    -1.3765  -1.2972  -1.2669  -1.1400  -1.1174  -1.0921  -1.0578  -0.9600
    -0.8832  -0.8247  -0.8146  -0.7479  -0.7181  -0.6983  -0.5767  -0.3852
    -0.3201  -0.2007  -0.1279   0.0114   0.0315   0.1830   0.2534   0.2590
     0.4705   0.4982   0.5516   0.7194   0.7455   0.9516   0.9811   1.0180
     1.1018   1.1308   1.1515   1.2365   1.2460   1.2683   1.2868   1.3809
     1.5165   1.5236   1.6142   1.7018   1.7388   1.7549   1.7704   1.8365
     1.9132   1.9392   2.0234   2.0964   2.1123   2.3854   2.4007   2.4339
     2.5382   2.6293   2.7081   2.7904   3.0452   3.1605   4.3376   6.8751
     7.1956   7.3500   7.4765   8.1398   8.1809   8.4775   8.5155   8.7125
     8.8786   8.9623   9.1430   9.1910   9.4230   9.5846   9.6067   9.6838
     9.7939

          k = 0.1250-0.5279 0.0000 ( 34036 PWs)   bands (ev):

   -36.5640 -35.5225 -22.5390 -22.4368 -22.2905 -22.1971 -17.9430 -17.6626
   -17.5943 -16.9855 -16.7406 -16.6378 -14.8815 -14.6849 -14.5420 -14.4785
   -14.4459 -14.3997 -14.2701 -14.2231 -14.1614 -14.1095 -14.0414 -14.0228
   -14.0062 -13.9701 -13.8408  -8.0111  -7.9257  -7.8883  -7.7992  -7.7651
    -7.6722  -7.6670  -7.6410  -7.5407  -7.4487  -7.3487  -7.3058  -3.6846
    -3.5865  -3.4825  -3.4655  -3.2155  -3.1648  -3.1510  -2.3507  -2.1942
    -2.1141  -1.9950  -1.7718  -1.7090  -1.6369  -1.6176  -1.5610  -1.4714
    -1.4660  -1.4068  -1.3510  -1.3059  -1.2367  -1.1881  -1.1444  -1.0519
    -0.9319  -0.8954  -0.8917  -0.8007  -0.7994  -0.7742  -0.6234  -0.3700
    -0.3042  -0.2155  -0.1448   0.0052   0.0520   0.1948   0.2618   0.2650
     0.4834   0.4946   0.5400   0.6942   0.7590   0.9634   0.9893   1.0013
     1.0061   1.0793   1.1114   1.1997   1.2947   1.3316   1.3523   1.4010
     1.5399   1.5802   1.7350   1.8288   1.8587   1.8786   2.0582   2.0726
     2.0824   2.0911   2.1434   2.2632   2.2807   2.3962   2.4167   2.5283
     2.5508   2.5652   2.5995   2.6907   2.9237   3.0982   4.5060   7.0775
     7.2875   7.5713   7.7623   8.1786   8.3659   8.4017   8.5081   9.0300
     9.0835   9.2714   9.3541   9.4829   9.5018   9.6052   9.6766   9.7748
    10.0676

          k = 0.2500 0.0000 0.0000 ( 34204 PWs)   bands (ev):

   -36.5739 -35.5323 -22.6783 -22.5639 -22.4232 -22.3401 -17.8067 -17.6843
   -17.5879 -16.9217 -16.8316 -16.5711 -15.0192 -14.9511 -14.8871 -14.8667
   -14.7480 -14.5693 -14.5505 -14.2173 -14.1540 -14.0549 -13.9902 -13.8593
   -13.8324 -13.8169 -13.6279  -7.9313  -7.8989  -7.7021  -7.6860  -7.5341
    -7.5283  -7.4909  -7.3835  -7.3812  -7.3526  -7.2550  -7.2011  -2.5160
    -2.5013  -2.3111  -2.3005  -2.1590  -2.0727  -1.9409  -1.6963  -1.6852
    -1.5975  -1.4208  -1.2819  -1.2530  -1.1644  -1.1644  -1.1148  -1.0718
    -0.9108  -0.9002  -0.8750  -0.7190  -0.7060  -0.6633  -0.5877  -0.5647
    -0.5014  -0.4802  -0.4058  -0.3703  -0.2638  -0.2477  -0.2002  -0.1815
    -0.1414  -0.1274  -0.0742   0.0162   0.1265   0.1296   0.2225   0.2280
     0.2347   0.2591   0.2939   0.3266   0.3742   0.5016   0.5054   0.5969
     0.6980   0.7099   0.8719   0.8988   0.9590   1.0008   1.0880   1.1584
     1.2062   1.3072   1.3307   1.3584   1.4157   1.4681   1.5046   1.5928
     1.6239   1.7332   1.8149   1.8819   1.9386   1.9663   2.0829   2.0884
     2.0908   2.1574   2.3274   2.4398   2.5432   2.7292   2.7616   5.9045
     5.9614   6.2071   6.5176   7.0947   7.6040   7.7191   7.8796   8.0771
     8.5293   8.5735   8.7013   8.7200   8.7762   8.9440   9.1904   9.2367
     9.3821

          k = 0.2500 0.1320 0.0000 ( 34143 PWs)   bands (ev):

   -36.5721 -35.5305 -22.6544 -22.5417 -22.4003 -22.3157 -17.8041 -17.6938
   -17.6069 -16.8896 -16.8252 -16.6373 -14.9619 -14.9007 -14.8371 -14.8073
   -14.6988 -14.5276 -14.5150 -14.2141 -14.1399 -14.0501 -13.9896 -13.8715
   -13.8560 -13.8429 -13.6558  -7.9678  -7.9315  -7.8227  -7.7212  -7.7098
    -7.6302  -7.5614  -7.4947  -7.4618  -7.3359  -7.2215  -7.1679  -2.5667
    -2.5463  -2.3462  -2.3280  -2.1504  -2.0840  -2.0428  -2.0223  -1.9379
    -1.9042  -1.7217  -1.6470  -1.5785  -1.5729  -1.3631  -1.2799  -1.2015
    -1.0447  -1.0012  -0.9642  -0.9108  -0.8432  -0.8186  -0.7968  -0.6006
    -0.5698  -0.5296  -0.4699  -0.4411  -0.3980  -0.2882  -0.2763  -0.2246
    -0.1650  -0.1303   0.0190   0.0558   0.0865   0.1319   0.2021   0.2292
     0.2703   0.3224   0.3803   0.4293   0.4635   0.6317   0.6788   0.8204
     0.9373   0.9785   0.9991   1.0637   1.0780   1.1163   1.1920   1.2288
     1.2626   1.2834   1.3662   1.4299   1.4845   1.5021   1.5285   1.5845
     1.5855   1.6737   1.6805   1.7801   1.8088   1.9098   2.0707   2.3512
     2.6275   2.7173   2.7553   2.9080   2.9242   2.9784   3.0098   6.1657
     6.2284   6.3104   6.5874   7.2455   7.8619   7.9583   8.1206   8.2918
     8.4640   8.6512   8.6844   8.7867   8.8945   9.0561   9.2157   9.2665
     9.3288

          k = 0.2500 0.2640 0.0000 ( 34141 PWs)   bands (ev):

   -36.5679 -35.5261 -22.5957 -22.4873 -22.3440 -22.2555 -17.8273 -17.7284
   -17.6076 -16.8252 -16.8013 -16.7738 -14.8132 -14.8114 -14.7191 -14.6396
   -14.5583 -14.4259 -14.4243 -14.2283 -14.1148 -14.0486 -14.0393 -13.9178
   -13.9050 -13.8423 -13.7361  -8.1880  -8.0295  -7.9364  -7.8845  -7.8530
    -7.8261  -7.6707  -7.6145  -7.5291  -7.4512  -7.3438  -7.2808  -2.9892
    -2.9427  -2.7143  -2.6875  -2.5847  -2.3918  -2.3357  -2.3075  -2.2627
    -2.1862  -2.1835  -2.1203  -2.0374  -1.9091  -1.5770  -1.4768  -1.4011
    -1.3719  -1.2952  -1.2231  -1.2010  -1.0842  -0.9732  -0.8473  -0.8104
    -0.7260  -0.6849  -0.6769  -0.6532  -0.5557  -0.5454  -0.5344  -0.5260
    -0.3491  -0.2990  -0.2828   0.0582   0.1670   0.2419   0.3755   0.4212
     0.6185   0.6588   0.7136   0.8292   0.8438   0.8923   0.9022   1.0099
     1.0841   1.1725   1.2278   1.3036   1.3165   1.3961   1.4330   1.4730
     1.4970   1.5079   1.5309   1.6036   1.6164   1.6577   1.6710   1.6965
     1.7562   1.7577   1.7796   1.8674   1.9081   1.9491   2.2084   2.3981
     3.0369   3.0803   3.2912   3.3214   3.4585   3.4728   3.7860   6.4753
     6.6977   6.7119   6.8148   7.6378   8.0612   8.3941   8.5401   8.5827
     8.7588   8.7903   9.0000   9.0982   9.1757   9.2308   9.3547   9.3879
     9.4558

          k = 0.2500 0.3960 0.0000 ( 34116 PWs)   bands (ev):

   -36.5637 -35.5217 -22.5353 -22.4315 -22.2861 -22.1935 -17.8990 -17.7306
   -17.5864 -16.9218 -16.7896 -16.7154 -14.7678 -14.6287 -14.6017 -14.4237
   -14.3900 -14.3212 -14.3176 -14.2902 -14.1640 -14.0496 -14.0471 -13.9939
   -13.9511 -13.8479 -13.8122  -8.3080  -8.1801  -8.0461  -7.9664  -7.9348
    -7.8481  -7.8284  -7.7381  -7.6191  -7.6032  -7.5528  -7.4794  -3.5764
    -3.4433  -3.3425  -3.3281  -3.1508  -2.9158  -2.8996  -2.4014  -2.3459
    -2.2380  -2.2038  -2.0835  -1.9972  -1.9005  -1.8815  -1.7514  -1.6782
    -1.5763  -1.5151  -1.4063  -1.3449  -1.2418  -1.1403  -1.0754  -1.0284
    -0.8627  -0.8149  -0.7599  -0.7524  -0.7451  -0.6698  -0.6274  -0.5679
    -0.4916  -0.3718  -0.3562   0.1449   0.2214   0.3076   0.4114   0.4950
     0.7509   0.8412   0.8574   0.9566   1.0286   1.0585   1.1305   1.2983
     1.3394   1.3737   1.3764   1.3990   1.5311   1.5473   1.5739   1.5999
     1.6555   1.6680   1.7581   1.7786   1.8037   1.8257   1.8296   1.9339
     1.9693   1.9719   2.0903   2.1376   2.1965   2.3071   2.3301   2.4713
     2.8689   2.9171   3.5513   3.6181   3.7094   3.7897   4.2947   6.4678
     6.7072   6.9166   7.0980   7.8006   8.1252   8.6417   8.8026   8.8567
     8.9931   9.0940   9.1549   9.3110   9.4091   9.7300   9.8479   9.9361
    10.0273

          k = 0.2500-0.5279 0.0000 ( 34148 PWs)   bands (ev):

   -36.5620 -35.5199 -22.5098 -22.4079 -22.2616 -22.1673 -17.9338 -17.7271
   -17.5757 -16.9719 -16.7841 -16.6758 -14.7645 -14.5578 -14.5019 -14.3850
   -14.3134 -14.3085 -14.2717 -14.2220 -14.1741 -14.1061 -14.0173 -14.0163
   -14.0006 -13.9181 -13.7997  -8.3082  -8.2115  -8.0538  -8.0229  -7.9639
    -7.8947  -7.8786  -7.8205  -7.6954  -7.6623  -7.6445  -7.5451  -3.8104
    -3.6480  -3.5984  -3.5764  -3.3447  -3.1434  -3.1291  -2.4087  -2.3253
    -2.2307  -2.1730  -2.0633  -2.0471  -1.9467  -1.9071  -1.8553  -1.7982
    -1.7263  -1.5726  -1.4496  -1.3889  -1.2953  -1.2140  -1.1659  -1.1210
    -0.9067  -0.8914  -0.8370  -0.8175  -0.7650  -0.6650  -0.6192  -0.5738
    -0.5048  -0.3997  -0.3753   0.1592   0.2548   0.3241   0.4298   0.5282
     0.7934   0.8885   0.9543   0.9703   1.0854   1.1311   1.2137   1.2481
     1.3286   1.4244   1.4308   1.4913   1.5093   1.5317   1.5623   1.6701
     1.7502   1.7656   1.8366   1.9440   1.9616   2.0047   2.0433   2.0788
     2.0900   2.1011   2.1277   2.2562   2.3865   2.4827   2.5037   2.5150
     2.6477   2.6960   3.5715   3.6857   3.7444   3.8563   4.4375   6.3973
     6.6904   6.8811   7.0879   7.7696   8.3562   8.5615   8.8688   8.9033
     9.2105   9.3468   9.4517   9.5682   9.7508   9.7727   9.8975   9.9313
    10.1364

          k = 0.3750 0.0000 0.0000 ( 34140 PWs)   bands (ev):

   -36.5717 -35.5296 -22.6329 -22.5214 -22.3800 -22.2938 -17.8348 -17.6927
   -17.5852 -16.9715 -16.8265 -16.5678 -14.9966 -14.9773 -14.8820 -14.8431
   -14.6025 -14.5517 -14.5479 -14.3006 -14.1657 -14.0981 -14.0736 -13.9463
   -13.9435 -13.8652 -13.6747  -7.9586  -7.8816  -7.6744  -7.6211  -7.5113
    -7.4439  -7.4310  -7.3346  -7.3071  -7.2936  -7.1762  -7.1152  -2.8508
    -2.8427  -2.7129  -2.6595  -2.2814  -2.1149  -2.0414  -1.6143  -1.5337
    -1.5317  -1.4528  -1.3904  -1.2379  -1.1671  -1.1660  -1.1507  -1.1405
    -1.1372  -1.0951  -1.0072  -0.9685  -0.9406  -0.8417  -0.8310  -0.7759
    -0.6804  -0.5837  -0.5458  -0.5226  -0.3834  -0.3591  -0.2147  -0.1883
    -0.1810  -0.1404  -0.1126  -0.0365   0.1141   0.1168   0.2184   0.2207
     0.2262   0.2630   0.2928   0.3318   0.4533   0.4781   0.5094   0.5161
     0.5810   0.7896   0.8830   0.9052   0.9301   1.1534   1.2341   1.2480
     1.2751   1.2837   1.3278   1.4002   1.4338   1.5548   1.5867   1.6613
     1.7367   1.7465   1.8288   1.8597   1.9052   1.9670   2.0266   2.0626
     2.1797   2.2335   2.3659   2.5326   2.6515   2.8536   2.8998   6.5543
     6.6166   6.8235   6.8624   7.8204   8.0051   8.0495   8.1764   8.5257
     8.5552   8.7145   8.7495   9.0000   9.1932   9.3766   9.4523   9.5183
     9.5445

          k = 0.3750 0.1320 0.0000 ( 34185 PWs)   bands (ev):

   -36.5700 -35.5278 -22.6112 -22.5011 -22.3590 -22.2715 -17.8296 -17.7111
   -17.5979 -16.9629 -16.7974 -16.6323 -14.9474 -14.9119 -14.8276 -14.7900
   -14.5616 -14.5005 -14.4903 -14.2839 -14.1377 -14.0752 -14.0564 -13.9566
   -13.9314 -13.8966 -13.6840  -7.9631  -7.9392  -7.7844  -7.7002  -7.6431
    -7.5954  -7.5337  -7.5150  -7.4345  -7.3831  -7.2697  -7.2010  -2.9084
    -2.9029  -2.7471  -2.7034  -2.2803  -2.1283  -2.0440  -1.9965  -1.9542
    -1.8157  -1.6505  -1.6480  -1.5670  -1.5640  -1.4275  -1.3652  -1.3569
    -1.2869  -1.2629  -1.1457  -1.0903  -1.0664  -1.0035  -0.8396  -0.7481
    -0.6619  -0.6383  -0.5365  -0.5276  -0.4769  -0.3663  -0.3414  -0.2550
    -0.2187  -0.1870  -0.0083   0.0634   0.1102   0.1805   0.2275   0.2433
     0.2846   0.3544   0.4863   0.4965   0.5230   0.5744   0.7165   0.8369
     0.8396   0.8950   1.0160   1.1007   1.1798   1.2044   1.2330   1.2790
     1.3221   1.3487   1.4094   1.4269   1.4768   1.5881   1.6141   1.6916
     1.7634   1.7757   1.8348   1.8438   1.8769   1.9369   2.0213   2.3196
     2.7627   2.7908   2.8112   2.9745   3.0318   3.1672   3.1956   6.6916
     6.7038   6.7738   6.8657   7.8675   7.9582   8.1147   8.2321   8.5477
     8.5994   8.8728   8.9542   9.0585   9.3042   9.3758   9.4418   9.5486
     9.6041

          k = 0.3750 0.2640 0.0000 ( 34193 PWs)   bands (ev):

   -36.5658 -35.5235 -22.5579 -22.4512 -22.3075 -22.2169 -17.8243 -17.7820
   -17.5904 -16.9426 -16.7766 -16.7222 -14.8250 -14.7410 -14.6836 -14.6410
   -14.4655 -14.3803 -14.3413 -14.2592 -14.0974 -14.0645 -14.0306 -13.9785
   -13.9410 -13.8743 -13.7258  -8.2407  -8.0888  -7.9876  -7.9192  -7.9073
    -7.8658  -7.7969  -7.7007  -7.6205  -7.5825  -7.5401  -7.4419  -3.2478
    -3.2187  -2.9687  -2.9430  -2.5704  -2.4906  -2.4519  -2.3876  -2.3319
    -2.3052  -2.2859  -2.2011  -2.1016  -1.9924  -1.8383  -1.7286  -1.5732
    -1.5289  -1.4897  -1.2073  -1.1379  -1.0069  -0.9436  -0.8639  -0.8444
    -0.8322  -0.8052  -0.7381  -0.7187  -0.6934  -0.5994  -0.5804  -0.5651
    -0.4364  -0.3238  -0.2923   0.1026   0.2622   0.3460   0.5000   0.5612
     0.7423   0.7918   0.8027   0.8785   0.9541   1.0552   1.0711   1.1472
     1.1496   1.2266   1.2776   1.3546   1.4393   1.4596   1.4717   1.5015
     1.5553   1.6222   1.6721   1.6921   1.7513   1.7810   1.7989   1.8167
     1.8331   1.8786   1.8871   1.9032   1.9178   2.1087   2.1828   2.3317
     3.0382   3.0845   3.7200   3.7543   3.7906   3.9096   3.9179   6.3497
     6.6436   6.7491   6.9039   7.6912   8.0260   8.4546   8.5236   8.7885
     8.8871   9.0678   9.2843   9.3725   9.4659   9.5365   9.5985   9.7499
     9.8547

          k = 0.3750 0.3960 0.0000 ( 34177 PWs)   bands (ev):

   -36.5617 -35.5192 -22.5032 -22.4002 -22.2547 -22.1608 -17.8885 -17.7949
   -17.5665 -16.9252 -16.9034 -16.6425 -14.6900 -14.5637 -14.5051 -14.4167
   -14.3693 -14.2773 -14.2590 -14.1844 -14.1775 -14.0426 -14.0307 -13.9720
   -13.9382 -13.8389 -13.7859  -8.5065  -8.3811  -8.2417  -8.1715  -8.1618
    -7.9866  -7.9220  -7.9146  -7.8412  -7.8185  -7.6758  -7.5738  -3.8075
    -3.6987  -3.5044  -3.3977  -3.2843  -2.8951  -2.8813  -2.6145  -2.5820
    -2.5563  -2.4206  -2.2297  -2.1508  -2.1100  -2.0392  -1.9896  -1.7990
    -1.7912  -1.5919  -1.2620  -1.1883  -1.1587  -1.1329  -1.0960  -1.0409
    -0.9103  -0.8779  -0.8295  -0.8184  -0.8059  -0.7445  -0.7340  -0.6435
    -0.5559  -0.3462  -0.2820   0.2308   0.3427   0.3983   0.6336   0.7422
     0.9805   1.0628   1.1054   1.2089   1.2922   1.2977   1.3800   1.4047
     1.4727   1.5245   1.5340   1.6105   1.6347   1.6514   1.7063   1.7398
     1.7959   1.8281   1.8375   1.9138   1.9352   1.9845   2.0154   2.0485
     2.0652   2.0710   2.1360   2.2280   2.2316   2.2527   2.4371   2.4933
     2.8596   2.9234   4.1963   4.2988   4.3445   4.3883   4.5018   5.9246
     6.4274   6.4464   6.6337   7.4262   8.3038   8.7472   8.9208   9.0223
     9.0898   9.3378   9.3989   9.4603   9.5511   9.5687   9.6846   9.7251
     9.8019

          k = 0.3750-0.5279 0.0000 ( 34192 PWs)   bands (ev):

   -36.5599 -35.5174 -22.4801 -22.3787 -22.2324 -22.1371 -17.9247 -17.7907
   -17.5551 -16.9586 -16.9126 -16.6070 -14.6287 -14.4787 -14.4031 -14.3477
   -14.2870 -14.2665 -14.2337 -14.2200 -14.0957 -14.0232 -14.0104 -14.0092
   -13.9929 -13.8790 -13.7624  -8.5885  -8.4884  -8.3302  -8.3166  -8.2380
    -8.1370  -7.9830  -7.9578  -7.9476  -7.8914  -7.6889  -7.6097  -4.0456
    -3.9052  -3.7481  -3.6255  -3.5261  -3.1204  -3.1076  -2.6292  -2.6006
    -2.5715  -2.4319  -2.2563  -2.2239  -2.1459  -2.1110  -1.9823  -1.8943
    -1.8732  -1.6191  -1.3343  -1.2793  -1.2413  -1.1954  -1.1552  -1.1116
    -0.9089  -0.9046  -0.8873  -0.8865  -0.8402  -0.8319  -0.7685  -0.6674
    -0.5222  -0.3319  -0.2623   0.2595   0.3655   0.4119   0.6814   0.8150
     1.0410   1.1971   1.2319   1.3073   1.3163   1.3549   1.4041   1.4920
     1.5941   1.6433   1.6616   1.6749   1.7131   1.7455   1.8142   1.8691
     1.8834   1.9869   1.9885   1.9899   2.0411   2.0841   2.1110   2.1533
     2.1905   2.2210   2.2934   2.3381   2.4193   2.4289   2.5613   2.6127
     2.6172   2.6933   4.2927   4.4498   4.5205   4.5405   4.6761   5.7349
     6.2680   6.3338   6.4923   7.3347   8.6125   8.6215   8.7831   9.0207
     9.1810   9.3379   9.4201   9.5267   9.5268   9.8144   9.8307   9.8720
     9.8967

          k =-0.5000 0.0000 0.0000 ( 34130 PWs)   bands (ev):

   -36.5709 -35.5285 -22.6137 -22.5035 -22.3618 -22.2742 -17.8544 -17.6872
   -17.5841 -17.0239 -16.7843 -16.5664 -15.0535 -15.0105 -14.9071 -14.7830
   -14.6167 -14.4787 -14.3628 -14.3382 -14.2712 -14.1478 -14.0721 -14.0129
   -13.9851 -13.8788 -13.6903  -7.9654  -7.8713  -7.6581  -7.5980  -7.4980
    -7.4102  -7.4078  -7.3226  -7.2744  -7.2736  -7.1426  -7.0784  -2.9882
    -2.9846  -2.8820  -2.8036  -2.3064  -2.1103  -2.0546  -1.6034  -1.5667
    -1.4506  -1.3998  -1.3269  -1.2659  -1.2602  -1.1860  -1.1803  -1.1699
    -1.1683  -1.1647  -1.1259  -1.0261  -1.0146  -0.9446  -0.9133  -0.8528
    -0.7639  -0.6239  -0.6225  -0.5353  -0.4416  -0.4056  -0.2284  -0.1914
    -0.1673  -0.1445  -0.1424  -0.0880   0.1089   0.1114   0.1767   0.2130
     0.2358   0.2761   0.2772   0.3393   0.4501   0.4530   0.4779   0.5099
     0.5775   0.8154   0.8617   0.8754   0.8933   1.1839   1.2166   1.2696
     1.2750   1.4173   1.4271   1.4471   1.4971   1.5202   1.6187   1.6412
     1.7037   1.7292   1.7827   1.9197   2.0067   2.0386   2.0519   2.0681
     2.1942   2.2499   2.3662   2.5397   2.6671   2.8893   2.9472   6.9942
     7.2156   7.3269   7.3790   7.4483   7.4529   7.7841   8.3205   8.4995
     8.5962   8.9376   9.0904   9.2277   9.4511   9.5060   9.5231   9.6251
     9.7944

          k =-0.5000 0.1320 0.0000 ( 34202 PWs)   bands (ev):

   -36.5691 -35.5268 -22.5929 -22.4839 -22.3416 -22.2529 -17.8488 -17.7092
   -17.5936 -17.0147 -16.7568 -16.6301 -14.9956 -14.9386 -14.8457 -14.7343
   -14.5765 -14.4355 -14.3376 -14.2975 -14.2132 -14.1258 -14.0545 -14.0171
   -13.9534 -13.9163 -13.6928  -7.9684  -7.9104  -7.7274  -7.6784  -7.6108
    -7.5558  -7.5338  -7.4995  -7.4399  -7.4014  -7.3556  -7.2645  -3.0543
    -3.0497  -2.9201  -2.8554  -2.3114  -2.1359  -2.0671  -1.9646  -1.8955
    -1.7589  -1.6387  -1.5978  -1.5616  -1.5593  -1.5117  -1.4642  -1.4016
    -1.3778  -1.3216  -1.2535  -1.1912  -1.0977  -1.0380  -0.8568  -0.8196
    -0.7099  -0.6490  -0.5732  -0.5279  -0.4954  -0.4025  -0.3761  -0.2583
    -0.2425  -0.2239  -0.0228   0.0737   0.1166   0.1863   0.2300   0.2460
     0.3471   0.3753   0.3924   0.5643   0.5750   0.5784   0.6512   0.7659
     0.8215   0.8824   1.0396   1.0982   1.1367   1.2146   1.2273   1.3294
     1.3411   1.4107   1.4555   1.4689   1.5107   1.6403   1.6596   1.6882
     1.7686   1.7944   1.7958   1.9270   1.9710   2.0223   2.0953   2.2961
     2.7685   2.7963   2.8238   2.9889   3.0520   3.2271   3.2520   6.7836
     7.0307   7.1745   7.3029   7.6817   7.7522   7.8727   8.2263   8.5284
     8.5979   9.0127   9.3313   9.3823   9.4503   9.6133   9.6471   9.7682
     9.7811

          k =-0.5000 0.2640 0.0000 ( 34216 PWs)   bands (ev):

   -36.5650 -35.5224 -22.5419 -22.4360 -22.2921 -22.2006 -17.8353 -17.7921
   -17.5825 -16.9927 -16.7733 -16.6858 -14.8438 -14.7456 -14.6801 -14.6054
   -14.4805 -14.3320 -14.2872 -14.1951 -14.1160 -14.0754 -14.0251 -14.0186
   -13.9831 -13.8776 -13.7199  -8.1795  -8.0585  -8.0286  -7.9358  -7.8620
    -7.8602  -7.8511  -7.8328  -7.7037  -7.6988  -7.6351  -7.4928  -3.3802
    -3.3570  -3.1203  -3.0883  -2.5619  -2.5166  -2.4774  -2.4141  -2.3449
    -2.3209  -2.2839  -2.2089  -2.1051  -2.0090  -1.9529  -1.8508  -1.6331
    -1.6186  -1.5610  -1.1314  -1.0728  -0.9385  -0.9233  -0.9190  -0.8630
    -0.8627  -0.8421  -0.7929  -0.7250  -0.7225  -0.6244  -0.6051  -0.5753
    -0.4406  -0.3449  -0.2938   0.1188   0.2851   0.3956   0.5527   0.6191
     0.7840   0.8580   0.8754   0.9028   0.9683   1.1230   1.1401   1.1492
     1.2266   1.2419   1.2456   1.3534   1.4281   1.4713   1.5265   1.5573
     1.5899   1.6397   1.6553   1.7489   1.7802   1.7977   1.8112   1.8956
     1.9116   1.9376   1.9605   1.9925   2.0073   2.0306   2.2310   2.2707
     3.0316   3.0777   3.7690   3.8491   3.9147   4.0397   4.0684   6.2484
     6.6471   6.7447   6.8809   7.6247   8.1236   8.4879   8.4927   8.7919
     9.0578   9.1781   9.3081   9.5257   9.6389   9.6783   9.7173   9.8802
     9.9379

          k =-0.5000 0.3960 0.0000 ( 34176 PWs)   bands (ev):

   -36.5608 -35.5181 -22.4897 -22.3871 -22.2415 -22.1471 -17.8833 -17.8220
   -17.5578 -16.9711 -16.9025 -16.6101 -14.6608 -14.5456 -14.4626 -14.4266
   -14.3788 -14.2551 -14.2465 -14.1706 -14.0878 -14.0273 -14.0266 -13.9957
   -13.9232 -13.8499 -13.7675  -8.5547  -8.4420  -8.3166  -8.2914  -8.2091
    -8.1305  -7.9829  -7.9439  -7.9423  -7.9359  -7.6833  -7.5940  -3.9259
    -3.8290  -3.6073  -3.5116  -3.2843  -2.8866  -2.8739  -2.6934  -2.6630
    -2.6518  -2.4909  -2.2461  -2.2410  -2.1334  -2.1193  -1.9987  -1.8757
    -1.8290  -1.6444  -1.2000  -1.1842  -1.1493  -1.0949  -1.0564  -0.9990
    -0.9974  -0.9477  -0.8763  -0.8373  -0.7958  -0.7870  -0.7311  -0.7205
    -0.5368  -0.3081  -0.2476   0.2557   0.3761   0.4447   0.7379   0.8447
     1.0728   1.1811   1.1970   1.3330   1.3519   1.4099   1.4365   1.5191
     1.5221   1.5780   1.6010   1.6117   1.6412   1.6928   1.7386   1.7838
     1.8297   1.8587   1.9124   1.9523   2.0131   2.0511   2.0516   2.1038
     2.1183   2.1233   2.1983   2.2256   2.2637   2.3347   2.4403   2.5531
     2.8485   2.9127   4.1937   4.5594   4.5829   4.6301   4.7699   5.7101
     6.2497   6.3664   6.3906   7.2758   8.4450   8.6319   8.9196   8.9739
     9.2040   9.2886   9.4048   9.4913   9.5908   9.6893   9.7936   9.8541
     9.8616

          k =-0.5000-0.5279 0.0000 ( 34236 PWs)   bands (ev):

   -36.5591 -35.5163 -22.4678 -22.3664 -22.2202 -22.1245 -17.9209 -17.8165
   -17.5463 -16.9623 -16.9531 -16.5767 -14.5631 -14.4748 -14.3881 -14.3197
   -14.2619 -14.2482 -14.2185 -14.2159 -14.0446 -14.0243 -14.0036 -13.9890
   -13.9573 -13.8828 -13.7476  -8.7007  -8.6013  -8.4419  -8.4327  -8.3474
    -8.2534  -8.0972  -8.0370  -7.9673  -7.9455  -7.6979  -7.6319  -4.1643
    -4.0373  -3.8459  -3.7166  -3.5479  -3.1109  -3.0989  -2.7240  -2.6974
    -2.6842  -2.5177  -2.3356  -2.2361  -2.2228  -2.1194  -1.9849  -1.9539
    -1.8974  -1.6711  -1.3075  -1.2980  -1.2001  -1.1891  -1.1195  -1.0674
    -0.9723  -0.9439  -0.9321  -0.9161  -0.8506  -0.8327  -0.8239  -0.7495
    -0.4950  -0.2793  -0.2194   0.2882   0.3991   0.4572   0.8026   0.9421
     1.1473   1.2802   1.3965   1.4091   1.4191   1.4291   1.4563   1.6023
     1.6280   1.6840   1.6969   1.7148   1.7834   1.8318   1.9097   1.9303
     1.9846   2.0195   2.0410   2.0758   2.1205   2.1275   2.1785   2.2008
     2.2025   2.2535   2.3907   2.4036   2.4393   2.4800   2.5945   2.6169
     2.6717   2.7209   4.2778   4.7626   4.8278   4.8378   4.9959   5.4802
     6.0226   6.1658   6.2886   7.1712   8.6241   8.6373   8.7956   9.0818
     9.1397   9.1698   9.2305   9.2334   9.5723   9.6226   9.7540   9.8465
    10.0562

     the Fermi energy is     2.6178 ev

!    total energy              =   -1842.85655027 Ry
     Harris-Foulkes estimate   =   -1842.85655027 Ry
     estimated scf accuracy    <          4.7E-11 Ry

     The total energy is the sum of the following terms:

     one-electron contribution =  -30463.84932660 Ry
     hartree contribution      =   15385.26520785 Ry
     xc contribution           =    -621.71308776 Ry
     ewald contribution        =   13857.44908775 Ry
     smearing contrib. (-TS)   =      -0.00843151 Ry

     convergence has been achieved in  38 iterations

     negative rho (up, down):  1.519E-03 0.000E+00

     Forces acting on atoms (cartesian axes, Ry/au):

     atom    1 type  4   force =     0.00000000    0.00000000   -0.00017056
     atom    2 type  3   force =     0.00000000    0.00000000    0.00039714
     atom    3 type  4   force =     0.00000000    0.00000000   -0.00077811
     atom    4 type  1   force =     0.00000000    0.00000000   -0.00028803
     atom    5 type  3   force =     0.00000000    0.00000000    0.00055406
     atom    6 type  4   force =     0.00000000    0.00000000   -0.00001081
     atom    7 type  4   force =     0.00000000    0.00000000    0.00032498
     atom    8 type  2   force =     0.00000000    0.00000000   -0.00059901
     atom    9 type  4   force =     0.00000000    0.00000000    0.00025001
     atom   10 type  4   force =     0.00000000    0.00000000    0.00024076
     atom   11 type  3   force =     0.00000000    0.00000000    0.00018924
     atom   12 type  1   force =     0.00000000    0.00000000    0.00005984
     atom   13 type  4   force =     0.00000000    0.00000000    0.00217958
     atom   14 type  4   force =     0.00000000    0.00000000    0.00179555
     atom   15 type  3   force =     0.00000000    0.00000000   -0.00172127
     atom   16 type  4   force =     0.00000000    0.00000000   -0.00053000
     atom   17 type  1   force =     0.00000000    0.00000000   -0.00528562
     atom   18 type  3   force =     0.00000000    0.00000000   -0.00977127
     atom   19 type  4   force =     0.00000000    0.00000000    0.01039300
     atom   20 type  4   force =     0.00000000    0.00000000    0.02917643
     atom   21 type  2   force =     0.00000000    0.00000000    0.03192245
     atom   22 type  4   force =     0.00000000    0.00000000   -0.03293258
     atom   23 type  4   force =     0.00000000    0.00000000   -0.02613887
     atom   24 type  3   force =     0.00000000    0.00000000    0.01133659
     atom   25 type  1   force =     0.00000000    0.00000000   -0.01274460
     atom   26 type  4   force =     0.00000000    0.00000000    0.00649166
     atom   27 type  3   force =     0.00000000    0.00000000   -0.00598246
     atom   28 type  4   force =     0.00000000    0.00000000    0.00164189

     Total force =     0.064612     Total SCF correction =     0.000016


     Computing stress (Cartesian axis) and pressure


     negative rho (up, down):  1.519E-03 0.000E+00
          total   stress  (Ry/bohr**3)                   (kbar)     P=       -3.91
  -0.00002021   0.00000000   0.00000000           -2.97        0.00        0.00
   0.00000000   0.00002472   0.00000000            0.00        3.64        0.00
   0.00000000   0.00000000  -0.00008431            0.00        0.00      -12.40


     BFGS Geometry Optimization

     number of scf cycles    =   1
     number of bfgs steps    =   0

     energy   new            =   -1842.8565502727 Ry

     new trust radius        =       0.0329325761 bohr
     new conv_thr            =            1.0E-10 Ry


ATOMIC_POSITIONS (angstrom)
O             0.0000000000        1.8611200000       -0.1846200000    0   0   0
Cu            0.0000000000        0.0000000000        0.1039800000    0   0   0
O             0.0000000000        0.0000000000        1.9772600000    0   0   0
Ba            1.9651100000        1.8611200000        2.2364100000    0   0   0
Cu            0.0000000000        0.0000000000        4.0773100000    0   0   0
O             1.9651100000        0.0000000000        4.2321000000    0   0   0
O             0.0000000000        1.8611200000        4.3692200000    0   0   0
Ca            1.9651100000        1.8611200000        5.8860000000    0   0   0
O             0.0000000000        1.8611200000        7.3367500000    0   0   0
O             1.9651100000        0.0000000000        7.4847600000    0   0   0
Cu            0.0000000000        0.0000000000        7.6688600000    0   0   0
Ba            1.9651100000        1.8611200000        9.5487700000    0   0   0
O             0.0000000000        0.0000000000        9.8708900000    0   0   0
O             0.0000000000        1.8611200000       11.7586400000    0   0   0
Cu            0.0000000000        0.0000000000       11.7588600000    0   0   0
O             0.0000000000        0.0000000000       13.6467800000    0   0   0
Ba            1.9651100000        1.8611200000       13.9688700000    0   0   0
Cu            0.0000000000        0.0000000000       15.9268730555
O             1.9651100000        0.0000000000       16.1507298414
O             0.0000000000        1.8611200000       16.1344851336
Ca            1.9651100000        1.8611200000       17.5847482693
O             0.0000000000        1.8611200000       19.6835149435
O             1.9651100000        0.0000000000       19.8313261090
Cu            0.0000000000        0.0000000000       19.8661356886
Ba            1.9651100000        1.8611200000       21.7744258486
O             0.0000000000        0.0000000000       22.0437152386
Cu            0.0000000000        0.0000000000       23.9135800000    0   0   0
O             0.0000000000        1.8611200000       24.2021300000    0   0   0


     NEW-OLD atomic charge density approx. for the potential

     negative rho (up, down):  1.746E-03 0.000E+00

     total cpu time spent up to now is      707.6 secs

     Self-consistent Calculation

     iteration #  1     ecut=    60.00 Ry     beta= 0.70
     Davidson diagonalization with overlap
     ethr =  1.00E-06,  avg # of iterations =  4.9

     negative rho (up, down):  1.549E-03 0.000E+00

     total cpu time spent up to now is      734.3 secs

     total energy              =   -1842.86042621 Ry
     Harris-Foulkes estimate   =   -1842.86049017 Ry
     estimated scf accuracy    <       0.00190908 Ry

     iteration #  2     ecut=    60.00 Ry     beta= 0.70
     Davidson diagonalization with overlap
     ethr =  8.41E-07,  avg # of iterations =  1.9

     negative rho (up, down):  1.548E-03 0.000E+00

     total cpu time spent up to now is      749.3 secs

     total energy              =   -1842.86039979 Ry
     Harris-Foulkes estimate   =   -1842.86080595 Ry
     estimated scf accuracy    <       0.00627933 Ry

     iteration #  3     ecut=    60.00 Ry     beta= 0.70
     Davidson diagonalization with overlap
     ethr =  8.41E-07,  avg # of iterations =  1.3

     negative rho (up, down):  1.544E-03 0.000E+00

     total cpu time spent up to now is      762.9 secs

     total energy              =   -1842.86061792 Ry
     Harris-Foulkes estimate   =   -1842.86064030 Ry
     estimated scf accuracy    <       0.00084997 Ry

     iteration #  4     ecut=    60.00 Ry     beta= 0.70
     Davidson diagonalization with overlap
     ethr =  3.74E-07,  avg # of iterations =  1.0

     negative rho (up, down):  1.537E-03 0.000E+00

     total cpu time spent up to now is      776.5 secs

     total energy              =   -1842.86059127 Ry
     Harris-Foulkes estimate   =   -1842.86062851 Ry
     estimated scf accuracy    <       0.00029117 Ry

     iteration #  5     ecut=    60.00 Ry     beta= 0.70
     Davidson diagonalization with overlap
     ethr =  1.28E-07,  avg # of iterations =  2.0

     negative rho (up, down):  1.542E-03 0.000E+00

     total cpu time spent up to now is      791.1 secs

     total energy              =   -1842.86059885 Ry
     Harris-Foulkes estimate   =   -1842.86060920 Ry
     estimated scf accuracy    <       0.00013008 Ry

     iteration #  6     ecut=    60.00 Ry     beta= 0.70
     Davidson diagonalization with overlap
     ethr =  5.73E-08,  avg # of iterations =  1.4

     negative rho (up, down):  1.539E-03 0.000E+00

     total cpu time spent up to now is      805.2 secs

     total energy              =   -1842.86060365 Ry
     Harris-Foulkes estimate   =   -1842.86060598 Ry
     estimated scf accuracy    <       0.00012157 Ry

     iteration #  7     ecut=    60.00 Ry     beta= 0.70
     Davidson diagonalization with overlap
     ethr =  5.36E-08,  avg # of iterations =  1.0

     negative rho (up, down):  1.540E-03 0.000E+00

     total cpu time spent up to now is      819.2 secs

     total energy              =   -1842.86060283 Ry
     Harris-Foulkes estimate   =   -1842.86060496 Ry
     estimated scf accuracy    <       0.00005068 Ry

     iteration #  8     ecut=    60.00 Ry     beta= 0.70
     Davidson diagonalization with overlap
     ethr =  2.23E-08,  avg # of iterations =  1.0

     negative rho (up, down):  1.543E-03 0.000E+00

     total cpu time spent up to now is      832.6 secs

     total energy              =   -1842.86060281 Ry
     Harris-Foulkes estimate   =   -1842.86060403 Ry
     estimated scf accuracy    <       0.00005281 Ry

     iteration #  9     ecut=    60.00 Ry     beta= 0.70
     Davidson diagonalization with overlap
     ethr =  2.23E-08,  avg # of iterations =  1.0

     negative rho (up, down):  1.542E-03 0.000E+00

     total cpu time spent up to now is      846.1 secs

     total energy              =   -1842.86060322 Ry
     Harris-Foulkes estimate   =   -1842.86060333 Ry
     estimated scf accuracy    <       0.00000979 Ry

     iteration # 10     ecut=    60.00 Ry     beta= 0.70
     Davidson diagonalization with overlap
     ethr =  4.31E-09,  avg # of iterations =  1.0

     negative rho (up, down):  1.542E-03 0.000E+00

     total cpu time spent up to now is      859.7 secs

     total energy              =   -1842.86060330 Ry
     Harris-Foulkes estimate   =   -1842.86060335 Ry
     estimated scf accuracy    <       0.00000397 Ry

     iteration # 11     ecut=    60.00 Ry     beta= 0.70
     Davidson diagonalization with overlap
     ethr =  1.75E-09,  avg # of iterations =  1.0

     negative rho (up, down):  1.541E-03 0.000E+00

     total cpu time spent up to now is      873.3 secs

     total energy              =   -1842.86060332 Ry
     Harris-Foulkes estimate   =   -1842.86060336 Ry
     estimated scf accuracy    <       0.00000238 Ry

     iteration # 12     ecut=    60.00 Ry     beta= 0.70
     Davidson diagonalization with overlap
     ethr =  1.05E-09,  avg # of iterations =  1.0

     negative rho (up, down):  1.539E-03 0.000E+00

     total cpu time spent up to now is      886.8 secs

     total energy              =   -1842.86060334 Ry
     Harris-Foulkes estimate   =   -1842.86060335 Ry
     estimated scf accuracy    <       0.00000130 Ry

     iteration # 13     ecut=    60.00 Ry     beta= 0.70
     Davidson diagonalization with overlap
     ethr =  5.71E-10,  avg # of iterations =  1.0

     negative rho (up, down):  1.539E-03 0.000E+00

     total cpu time spent up to now is      900.5 secs

     total energy              =   -1842.86060334 Ry
     Harris-Foulkes estimate   =   -1842.86060335 Ry
     estimated scf accuracy    <       0.00000054 Ry

     iteration # 14     ecut=    60.00 Ry     beta= 0.70
     Davidson diagonalization with overlap
     ethr =  2.37E-10,  avg # of iterations =  1.1

     negative rho (up, down):  1.536E-03 0.000E+00

     total cpu time spent up to now is      914.3 secs

     total energy              =   -1842.86060335 Ry
     Harris-Foulkes estimate   =   -1842.86060335 Ry
     estimated scf accuracy    <       0.00000022 Ry

     iteration # 15     ecut=    60.00 Ry     beta= 0.70
     Davidson diagonalization with overlap
     ethr =  9.54E-11,  avg # of iterations =  1.6

     negative rho (up, down):  1.535E-03 0.000E+00

     total cpu time spent up to now is      928.6 secs

     total energy              =   -1842.86060335 Ry
     Harris-Foulkes estimate   =   -1842.86060335 Ry
     estimated scf accuracy    <       0.00000003 Ry

     iteration # 16     ecut=    60.00 Ry     beta= 0.70
     Davidson diagonalization with overlap
     ethr =  1.22E-11,  avg # of iterations =  3.2

     negative rho (up, down):  1.535E-03 0.000E+00

     total cpu time spent up to now is      944.8 secs

     total energy              =   -1842.86060335 Ry
     Harris-Foulkes estimate   =   -1842.86060335 Ry
     estimated scf accuracy    <       0.00000001 Ry

     iteration # 17     ecut=    60.00 Ry     beta= 0.70
     Davidson diagonalization with overlap
     ethr =  6.09E-12,  avg # of iterations =  1.1

     negative rho (up, down):  1.533E-03 0.000E+00

     total cpu time spent up to now is      958.4 secs

     total energy              =   -1842.86060336 Ry
     Harris-Foulkes estimate   =   -1842.86060335 Ry
     estimated scf accuracy    <       0.00000001 Ry

     iteration # 18     ecut=    60.00 Ry     beta= 0.70
     Davidson diagonalization with overlap
     ethr =  4.85E-12,  avg # of iterations =  1.0

     negative rho (up, down):  1.533E-03 0.000E+00

     total cpu time spent up to now is      971.7 secs

     total energy              =   -1842.86060336 Ry
     Harris-Foulkes estimate   =   -1842.86060336 Ry
     estimated scf accuracy    <          2.0E-09 Ry

     iteration # 19     ecut=    60.00 Ry     beta= 0.70
     Davidson diagonalization with overlap
     ethr =  8.82E-13,  avg # of iterations =  3.0

     negative rho (up, down):  1.532E-03 0.000E+00

     total cpu time spent up to now is      987.2 secs

     total energy              =   -1842.86060336 Ry
     Harris-Foulkes estimate   =   -1842.86060336 Ry
     estimated scf accuracy    <          1.8E-09 Ry

     iteration # 20     ecut=    60.00 Ry     beta= 0.70
     Davidson diagonalization with overlap
     ethr =  7.71E-13,  avg # of iterations =  1.0

     negative rho (up, down):  1.532E-03 0.000E+00

     total cpu time spent up to now is     1001.5 secs

     total energy              =   -1842.86060336 Ry
     Harris-Foulkes estimate   =   -1842.86060336 Ry
     estimated scf accuracy    <          9.6E-10 Ry

     iteration # 21     ecut=    60.00 Ry     beta= 0.70
     Davidson diagonalization with overlap
     ethr =  4.25E-13,  avg # of iterations =  1.0

     negative rho (up, down):  1.531E-03 0.000E+00

     total cpu time spent up to now is     1014.9 secs

     total energy              =   -1842.86060336 Ry
     Harris-Foulkes estimate   =   -1842.86060336 Ry
     estimated scf accuracy    <          6.7E-10 Ry

     iteration # 22     ecut=    60.00 Ry     beta= 0.70
     Davidson diagonalization with overlap
     ethr =  2.97E-13,  avg # of iterations =  1.1

     negative rho (up, down):  1.529E-03 0.000E+00

     total cpu time spent up to now is     1028.6 secs

     total energy              =   -1842.86060336 Ry
     Harris-Foulkes estimate   =   -1842.86060336 Ry
     estimated scf accuracy    <          9.3E-10 Ry

     iteration # 23     ecut=    60.00 Ry     beta= 0.70
     Davidson diagonalization with overlap
     ethr =  2.97E-13,  avg # of iterations =  1.0

     negative rho (up, down):  1.529E-03 0.000E+00

     total cpu time spent up to now is     1042.1 secs

     total energy              =   -1842.86060336 Ry
     Harris-Foulkes estimate   =   -1842.86060336 Ry
     estimated scf accuracy    <          2.4E-10 Ry

     iteration # 24     ecut=    60.00 Ry     beta= 0.70
     Davidson diagonalization with overlap
     ethr =  1.08E-13,  avg # of iterations =  1.0

     negative rho (up, down):  1.528E-03 0.000E+00

     total cpu time spent up to now is     1055.5 secs

     total energy              =   -1842.86060336 Ry
     Harris-Foulkes estimate   =   -1842.86060336 Ry
     estimated scf accuracy    <          2.3E-10 Ry

     iteration # 25     ecut=    60.00 Ry     beta= 0.70
     Davidson diagonalization with overlap
     ethr =  1.01E-13,  avg # of iterations =  1.0

     negative rho (up, down):  1.527E-03 0.000E+00

     total cpu time spent up to now is     1068.7 secs

     total energy              =   -1842.86060336 Ry
     Harris-Foulkes estimate   =   -1842.86060336 Ry
     estimated scf accuracy    <          1.5E-10 Ry

     iteration # 26     ecut=    60.00 Ry     beta= 0.70
     Davidson diagonalization with overlap
     ethr =  1.00E-13,  avg # of iterations =  1.0

     negative rho (up, down):  1.527E-03 0.000E+00

     total cpu time spent up to now is     1081.5 secs

     End of self-consistent calculation

          k = 0.0000 0.0000 0.0000 ( 34267 PWs)   bands (ev):

   -36.5383 -35.5342 -22.7388 -22.6361 -22.4802 -22.4441 -17.7776 -17.5738
   -17.5537 -17.0386 -16.5853 -16.5740 -15.2493 -15.2019 -14.9410 -14.7913
   -14.6191 -14.5198 -14.5010 -14.1291 -14.1153 -14.0134 -13.9297 -13.7713
   -13.7201 -13.6645 -13.5395  -7.8701  -7.8597  -7.8325  -7.6606  -7.6459
    -7.6396  -7.5469  -7.5382  -7.5242  -7.4998  -7.3587  -7.3538  -2.2775
    -2.1568  -2.0598  -1.8385  -1.8165  -1.7775  -1.7140  -1.6159  -1.4867
    -1.4304  -1.3900  -1.2773  -1.2120  -1.1739  -1.1679  -0.9922  -0.9517
    -0.7888  -0.5424  -0.4062  -0.3418  -0.3243  -0.3033  -0.2622  -0.2540
    -0.2230  -0.2123  -0.1973  -0.1928  -0.1650  -0.1429  -0.1419  -0.1255
    -0.1025  -0.0397  -0.0108   0.0152   0.1240   0.1443   0.1511   0.1514
     0.1797   0.1804   0.2239   0.2258   0.2557   0.3614   0.3763   0.4692
     0.5696   0.7822   0.8504   0.8692   0.9343   0.9902   1.0183   1.1238
     1.1620   1.2355   1.2957   1.3136   1.4014   1.4296   1.5504   1.5735
     1.5829   1.6497   1.6643   1.8075   1.8888   2.0436   2.0873   2.1337
     2.1667   2.2041   2.2317   2.3122   2.3283   2.5626   2.5884   5.2391
     5.2702   5.5550   6.0055   6.3906   6.8161   7.0177   7.1381   7.3398
     8.0123   8.0642   8.2153   8.3627   8.6206   8.6343   8.7815   8.9234
     8.9898

          k = 0.0000 0.1320 0.0000 ( 34203 PWs)   bands (ev):

   -36.5365 -35.5323 -22.7121 -22.6116 -22.4548 -22.4170 -17.7744 -17.5847
   -17.5716 -17.0025 -16.6465 -16.5830 -15.1606 -15.1336 -14.8945 -14.7376
   -14.6242 -14.4925 -14.4789 -14.1386 -14.1284 -14.0422 -13.9351 -13.8169
   -13.7509 -13.7088 -13.6013  -7.8697  -7.8534  -7.7847  -7.6819  -7.6588
    -7.6024  -7.5496  -7.5414  -7.4986  -7.4791  -7.4060  -7.3942  -2.3363
    -2.2457  -2.1374  -2.1051  -2.0957  -1.9944  -1.8178  -1.8132  -1.6149
    -1.5956  -1.5921  -1.5907  -1.4689  -1.2998  -1.2228  -1.2176  -1.0401
    -0.8739  -0.5938  -0.5891  -0.5743  -0.5036  -0.4421  -0.4411  -0.4085
    -0.3781  -0.2858  -0.2770  -0.2424  -0.2071  -0.1523  -0.1083  -0.0954
    -0.0938  -0.0072  -0.0048   0.0366   0.0394   0.0594   0.1748   0.1816
     0.1998   0.2231   0.2530   0.2583   0.3091   0.3321   0.4217   0.6767
     0.7715   0.8504   0.9137   0.9844   1.0219   1.1105   1.1315   1.2012
     1.2062   1.2408   1.2888   1.3904   1.4693   1.5162   1.5594   1.5832
     1.6012   1.6636   1.7085   1.7775   1.8776   2.0158   2.0255   2.0413
     2.0860   2.1042   2.1382   2.5088   2.8512   2.8694   2.9255   5.6268
[...]

   -36.0858 -35.5691 -22.5925 -22.5613 -22.3645 -22.3091 -17.3869 -17.2489
   -17.1434 -16.9570 -16.8273 -16.7502 -14.9040 -14.7483 -14.4831 -14.4145
   -14.3981 -14.3306 -14.3042 -14.1710 -14.1671 -14.0706 -14.0581 -14.0079
   -13.9972 -13.8667 -13.8177  -8.3596  -8.3293  -8.1139  -8.0622  -7.9832
    -7.9546  -7.8987  -7.8516  -7.7852  -7.7317  -7.6031  -7.5669  -3.4459
    -3.3744  -3.2765  -3.1572  -3.0301  -2.9207  -2.8171  -2.3817  -2.3555
    -2.2766  -2.1577  -2.0727  -2.0085  -1.9940  -1.7935  -1.7408  -1.6377
    -1.5141  -1.4812  -1.3866  -1.2923  -1.2144  -1.1087  -0.9894  -0.9090
    -0.8495  -0.8189  -0.7627  -0.7580  -0.7480  -0.6254  -0.5480  -0.5166
    -0.4931  -0.3791  -0.3650   0.1293   0.1939   0.2214   0.4097   0.4567
     0.6164   0.8219   0.8519   0.9006   1.0141   1.0221   1.0528   1.1841
     1.2827   1.2991   1.3323   1.3610   1.3952   1.4658   1.5391   1.5456
     1.5991   1.6261   1.6512   1.7441   1.7799   1.8100   1.8230   1.8600
     1.9232   1.9648   1.9722   2.0915   2.1326   2.2954   2.3011   2.4558
     2.8090   2.8438   3.3581   3.5390   3.6112   3.6929   4.2368   6.5295
     6.9001   6.9190   7.5121   7.7608   8.6440   8.7720   8.8124   8.8698
     9.0615   9.1632   9.3438   9.5568   9.6981   9.7336   9.8203   9.8619
     9.9140

          k = 0.2500-0.5279 0.0000 ( 34148 PWs)   bands (ev):

   -36.0842 -35.5673 -22.5660 -22.5360 -22.3403 -22.2849 -17.4196 -17.2445
   -17.1263 -17.0059 -16.8220 -16.7121 -14.9130 -14.7425 -14.3415 -14.3266
   -14.3152 -14.3006 -14.2225 -14.1892 -14.1422 -14.1389 -14.0945 -14.0321
   -14.0302 -13.9280 -13.8075  -8.3299  -8.3224  -8.1350  -8.1154  -8.0704
    -8.0433  -7.9619  -7.9163  -7.8384  -7.7945  -7.6662  -7.6493  -3.6618
    -3.6194  -3.4779  -3.3509  -3.2065  -3.1480  -2.9625  -2.3880  -2.3841
    -2.2798  -2.1008  -2.0362  -1.9686  -1.9526  -1.9475  -1.8929  -1.7701
    -1.6176  -1.5509  -1.4200  -1.3063  -1.2611  -1.1942  -1.0568  -0.9482
    -0.9087  -0.8957  -0.8281  -0.7953  -0.7658  -0.6599  -0.6172  -0.5559
    -0.5045  -0.4103  -0.3987   0.1603   0.2481   0.2876   0.4338   0.5147
     0.6738   0.8733   0.8775   0.9648   1.0773   1.1145   1.1181   1.1502
     1.2366   1.2774   1.3202   1.3907   1.4158   1.4939   1.5332   1.6056
     1.6200   1.7523   1.7701   1.8330   1.9508   1.9836   2.0018   2.0304
     2.0648   2.0773   2.1072   2.1211   2.2592   2.4713   2.4780   2.4985
     2.5765   2.6206   3.3310   3.5588   3.6373   3.7268   4.3758   6.4379
     6.8641   6.8866   7.4931   7.7278   8.7797   8.9279   8.9819   9.2120
     9.2991   9.5403   9.5489   9.7559   9.8023   9.8671   9.9134   9.9307
    10.0195

          k = 0.3750 0.0000 0.0000 ( 34140 PWs)   bands (ev):

   -36.0928 -35.5769 -22.6950 -22.6582 -22.4573 -22.4026 -17.3772 -17.2161
   -17.1395 -17.0037 -16.8578 -16.6142 -15.0526 -14.9808 -14.9519 -14.6680
   -14.6091 -14.5623 -14.4822 -14.2033 -14.1751 -14.1146 -14.0879 -13.9740
   -13.9588 -13.8798 -13.6995  -7.9072  -7.8756  -7.8707  -7.7160  -7.6644
    -7.6418  -7.5112  -7.4648  -7.4044  -7.3512  -7.2492  -7.1947  -2.8419
    -2.8308  -2.7415  -2.6652  -2.3667  -2.2502  -2.1199  -1.6970  -1.6233
    -1.6028  -1.5442  -1.5238  -1.4662  -1.2802  -1.1883  -1.1711  -1.1588
    -1.1332  -1.1001  -1.0157  -0.9775  -0.9720  -0.9098  -0.8450  -0.8408
    -0.8304  -0.6689  -0.6593  -0.5432  -0.4444  -0.3927  -0.3610  -0.2347
    -0.1955  -0.1899  -0.1355  -0.0422   0.1134   0.1270   0.2164   0.2446
     0.2767   0.4521   0.4598   0.4652   0.4931   0.5203   0.5292   0.5832
     0.7853   0.8684   0.9089   0.9369   1.0050   1.1675   1.2162   1.2290
     1.2714   1.3176   1.3787   1.4897   1.5445   1.5661   1.5774   1.6725
     1.7284   1.7464   1.7918   1.8453   1.8572   1.9578   2.1017   2.1538
     2.2046   2.3623   2.5304   2.6200   2.6520   2.8301   2.8647   6.5372
     6.5376   6.8593   7.4214   7.7891   8.0298   8.0333   8.3844   8.4991
     8.6546   8.7471   9.1357   9.2298   9.3062   9.3761   9.5024   9.5265
     9.5627

          k = 0.3750 0.1320 0.0000 ( 34185 PWs)   bands (ev):

   -36.0912 -35.5751 -22.6726 -22.6367 -22.4365 -22.3818 -17.3714 -17.2221
   -17.1564 -16.9954 -16.8295 -16.6763 -15.0129 -14.9316 -14.8828 -14.6229
   -14.5680 -14.5031 -14.4409 -14.1766 -14.1473 -14.0950 -14.0781 -13.9900
   -13.9461 -13.9103 -13.7086  -8.0051  -7.9610  -7.8907  -7.8070  -7.8069
    -7.6952  -7.6003  -7.5895  -7.5551  -7.5310  -7.3382  -7.2884  -2.9021
    -2.8888  -2.7887  -2.7076  -2.3615  -2.2521  -2.1289  -2.0035  -1.9721
    -1.8510  -1.8291  -1.6456  -1.5755  -1.5660  -1.4738  -1.4225  -1.3715
    -1.2685  -1.2204  -1.1520  -1.1407  -1.0815  -1.0111  -0.8915  -0.8188
    -0.7312  -0.6599  -0.6403  -0.5032  -0.4778  -0.3628  -0.3425  -0.2247
    -0.2211  -0.1674  -0.0152   0.0777   0.1256   0.1619   0.2188   0.2686
     0.2862   0.3862   0.4845   0.5205   0.5328   0.7101   0.7423   0.8183
     0.8323   0.9355   1.0060   1.1014   1.1861   1.2020   1.2757   1.3183
     1.3293   1.3824   1.3939   1.4204   1.5838   1.5953   1.6142   1.6614
     1.6986   1.7498   1.8042   1.8310   1.8424   1.9203   1.9399   2.3582
     2.7784   2.8409   2.9202   2.9770   3.0472   3.1756   3.2393   6.6879
     6.6891   6.7569   7.4865   7.8343   8.0956   8.0988   8.2963   8.5208
     8.8479   8.9297   9.0649   9.2789   9.2823   9.4741   9.5454   9.5590
     9.6537

          k = 0.3750 0.2640 0.0000 ( 34193 PWs)   bands (ev):

   -36.0874 -35.5709 -22.6176 -22.5837 -22.3854 -22.3305 -17.3581 -17.2918
   -17.1371 -16.9758 -16.8160 -16.7567 -14.9152 -14.8075 -14.6914 -14.5077
   -14.4710 -14.3562 -14.3346 -14.1234 -14.1065 -14.0977 -14.0742 -14.0115
   -13.9539 -13.8897 -13.7504  -8.3259  -8.2607  -8.0433  -7.9905  -7.9723
    -7.9393  -7.8208  -7.8179  -7.7924  -7.6926  -7.5957  -7.5569  -3.2169
    -3.1337  -3.0091  -2.9454  -2.5697  -2.4606  -2.3901  -2.3775  -2.3293
    -2.3169  -2.2404  -2.1792  -2.1518  -2.1075  -1.7394  -1.7058  -1.5762
    -1.5039  -1.4441  -1.2091  -1.1949  -1.0246  -0.9276  -0.8698  -0.8593
    -0.8307  -0.7667  -0.6865  -0.6396  -0.6049  -0.6017  -0.5512  -0.4435
    -0.3413  -0.3191  -0.2205  -0.0334   0.1009   0.3059   0.4803   0.4987
     0.5582   0.7267   0.8079   0.8477   0.8653   1.0431   1.0477   1.0937
     1.2077   1.2309   1.2512   1.2744   1.4134   1.4410   1.4550   1.4923
     1.6228   1.6394   1.6714   1.6854   1.7116   1.7339   1.7556   1.7755
     1.7860   1.8185   1.8418   1.8716   1.8786   2.0058   2.1656   2.3382
     2.9785   3.0139   3.7059   3.7513   3.7724   3.8371   3.8941   6.3954
     6.7345   6.7487   7.4054   7.6531   8.3690   8.4367   8.4691   8.8531
     9.1691   9.1997   9.4316   9.4594   9.5056   9.5662   9.6483   9.7216
     9.8051

          k = 0.3750 0.3960 0.0000 ( 34177 PWs)   bands (ev):

   -36.0835 -35.5666 -22.5611 -22.5294 -22.3331 -22.2781 -17.3783 -17.3409
   -17.1000 -16.9592 -16.9391 -16.6795 -14.8160 -14.6690 -14.4409 -14.3884
   -14.3581 -14.2087 -14.1963 -14.1861 -14.1722 -14.0603 -14.0424 -14.0264
   -13.9465 -13.8456 -13.8181  -8.5541  -8.5279  -8.3126  -8.2723  -8.2595
    -8.1922  -7.9694  -7.9420  -7.9385  -7.8650  -7.8177  -7.6719  -3.6978
    -3.5773  -3.4000  -3.2894  -3.2605  -2.9002  -2.8797  -2.5859  -2.4880
    -2.4281  -2.3459  -2.2520  -2.1983  -2.1160  -2.0529  -2.0004  -1.8029
    -1.6749  -1.5770  -1.2174  -1.1695  -1.1534  -1.1375  -0.9702  -0.9182
    -0.8899  -0.8681  -0.8263  -0.8004  -0.7564  -0.7402  -0.6583  -0.5605
    -0.5336  -0.3342  -0.3319   0.1903   0.2613   0.3590   0.5957   0.6517
     0.8543   1.0629   1.0777   1.0832   1.1785   1.1988   1.2861   1.3649
     1.3887   1.4459   1.5059   1.5201   1.5529   1.5621   1.6245   1.7341
     1.7453   1.8020   1.8142   1.8660   1.9082   1.9481   1.9972   2.0132
     2.0460   2.0711   2.1333   2.1742   2.2166   2.2267   2.2848   2.4720
     2.7804   2.8346   4.0433   4.1665   4.2842   4.3148   4.3695   5.9579
     6.4316   6.4552   7.1923   7.3834   8.7123   8.9141   8.9881   9.0379
     9.1926   9.4405   9.4623   9.5211   9.5602   9.6365   9.6520   9.7458
     9.8412

          k = 0.3750-0.5279 0.0000 ( 34192 PWs)   bands (ev):

   -36.0819 -35.5648 -22.5372 -22.5065 -22.3111 -22.2560 -17.4111 -17.3365
   -17.0835 -16.9931 -16.9469 -16.6454 -14.7754 -14.6045 -14.3584 -14.3098
   -14.2362 -14.2276 -14.2196 -14.1144 -14.1072 -14.1020 -14.0240 -14.0221
   -14.0120 -13.9009 -13.7832  -8.6106  -8.6001  -8.4412  -8.4095  -8.3483
    -8.3381  -8.1263  -7.9794  -7.9660  -7.9566  -7.8490  -7.6854  -3.9048
    -3.7825  -3.6202  -3.5286  -3.3787  -3.1250  -3.0962  -2.6027  -2.5005
    -2.4370  -2.3622  -2.2581  -2.1926  -2.1613  -2.1159  -2.1015  -1.8865
    -1.7481  -1.6017  -1.2948  -1.2360  -1.2252  -1.1822  -1.0104  -0.9201
    -0.9173  -0.9146  -0.9114  -0.8673  -0.8456  -0.7613  -0.6828  -0.6579
    -0.5104  -0.3402  -0.3160   0.2536   0.3442   0.3798   0.6831   0.7865
     0.9624   0.9712   1.1988   1.2338   1.2788   1.3081   1.3421   1.3526
     1.3958   1.5159   1.5592   1.5879   1.6297   1.6926   1.7363   1.8053
     1.8386   1.8728   1.8860   1.9651   2.0647   2.0705   2.0897   2.1641
     2.1917   2.2271   2.2778   2.3341   2.3384   2.4079   2.4491   2.5209
     2.5395   2.5902   4.1071   4.2622   4.4281   4.4645   4.5161   5.7644
     6.2542   6.2782   7.1168   7.2934   8.7371   8.8288   9.0630   9.1640
     9.2875   9.3835   9.4092   9.6289   9.6615   9.6939   9.7934   9.8676
     9.9026

          k =-0.5000 0.0000 0.0000 ( 34130 PWs)   bands (ev):

   -36.0918 -35.5758 -22.6760 -22.6393 -22.4393 -22.3847 -17.4141 -17.1927
   -17.1383 -17.0548 -16.8169 -16.6128 -15.1087 -15.0363 -14.9880 -14.6454
   -14.6012 -14.3575 -14.3036 -14.2748 -14.2350 -14.1783 -14.1575 -14.0425
   -14.0018 -13.8947 -13.7145  -7.8966  -7.8746  -7.8318  -7.7221  -7.6449
    -7.6190  -7.4749  -7.4290  -7.3883  -7.3407  -7.2161  -7.1615  -2.9859
    -2.9576  -2.8821  -2.8105  -2.4166  -2.2732  -2.1178  -1.6896  -1.6635
    -1.5931  -1.5755  -1.4524  -1.3433  -1.2968  -1.2845  -1.1735  -1.1713
    -1.1629  -1.1611  -1.1316  -1.0598  -1.0596  -1.0050  -0.9546  -0.9161
    -0.8641  -0.7543  -0.7431  -0.6070  -0.4609  -0.4582  -0.4123  -0.2512
    -0.1838  -0.1830  -0.1398  -0.1136   0.1080   0.1216   0.1842   0.2405
     0.2560   0.4489   0.4496   0.4679   0.4771   0.4776   0.5270   0.5982
     0.8175   0.8647   0.8990   0.9487   0.9603   1.1654   1.1824   1.2368
     1.3951   1.4394   1.4910   1.5053   1.5246   1.6400   1.6543   1.6808
     1.6867   1.7793   1.8901   1.9011   1.9138   1.9592   1.9913   2.1703
     2.2139   2.3626   2.5289   2.6217   2.6698   2.8639   2.8920   7.0021
     7.3013   7.3117   7.3619   7.3645   7.8704   8.2930   8.3745   8.5686
     9.0286   9.0711   9.0930   9.3198   9.4149   9.4629   9.4946   9.6299
     9.6520

          k =-0.5000 0.1320 0.0000 ( 34202 PWs)   bands (ev):

   -36.0902 -35.5741 -22.6546 -22.6186 -22.4192 -22.3646 -17.4080 -17.2094
   -17.1450 -17.0459 -16.7902 -16.6742 -15.0578 -14.9781 -14.9146 -14.6022
   -14.5610 -14.3170 -14.2682 -14.2190 -14.2076 -14.1564 -14.1357 -14.0618
   -13.9704 -13.9307 -13.7167  -7.9324  -7.9085  -7.8873  -7.8528  -7.7483
    -7.6672  -7.6406  -7.6335  -7.5152  -7.4559  -7.4328  -7.3743  -3.0523
    -3.0263  -2.9367  -2.8608  -2.4129  -2.2811  -2.1382  -1.9727  -1.9390
    -1.8097  -1.7737  -1.6366  -1.5704  -1.5600  -1.5245  -1.4659  -1.4166
    -1.3788  -1.3346  -1.2578  -1.2158  -1.1157  -1.0330  -0.9176  -0.8597
    -0.7965  -0.7054  -0.6558  -0.5380  -0.4948  -0.3996  -0.3775  -0.2489
    -0.2362  -0.1918  -0.0309   0.0875   0.1249   0.1540   0.2203   0.2647
     0.3932   0.3944   0.3954   0.5600   0.6133   0.6333   0.6770   0.7847
     0.8176   0.9323   1.0301   1.0983   1.1539   1.2013   1.3089   1.3134
     1.3445   1.4036   1.4597   1.5326   1.6081   1.6630   1.6787   1.7245
     1.7457   1.7744   1.7815   1.8719   1.9209   1.9557   1.9873   2.3340
     2.7842   2.8462   2.9252   2.9965   3.0746   3.2259   3.2923   6.7983
     7.1595   7.1600   7.6463   7.6653   7.9679   8.0458   8.1927   8.5009
     9.2356   9.2612   9.3136   9.3747   9.4643   9.5662   9.5813   9.7296
     9.7781

          k =-0.5000 0.2640 0.0000 ( 34216 PWs)   bands (ev):

   -36.0864 -35.5698 -22.6019 -22.5679 -22.3702 -22.3154 -17.3936 -17.2895
   -17.1172 -17.0246 -16.8129 -16.7213 -14.9263 -14.8254 -14.7112 -14.4982
   -14.4613 -14.2152 -14.1822 -14.1488 -14.1247 -14.1099 -14.1040 -14.0858
   -13.9949 -13.8935 -13.7447  -8.2332  -8.1981  -8.1572  -8.0496  -8.0063
    -7.9237  -7.8840  -7.8353  -7.8211  -7.7982  -7.7155  -7.6298  -3.3557
    -3.2757  -3.1554  -3.0914  -2.5609  -2.4867  -2.4283  -2.4033  -2.3432
    -2.3277  -2.2430  -2.1896  -2.1427  -2.1123  -1.8672  -1.8219  -1.6363
    -1.5555  -1.5459  -1.1331  -1.1113  -0.9942  -0.9506  -0.9057  -0.8721
    -0.8511  -0.7857  -0.7155  -0.6673  -0.6310  -0.6261  -0.5553  -0.4507
    -0.3362  -0.3104  -0.2453  -0.0505   0.1149   0.3521   0.5260   0.5451
     0.5903   0.7648   0.8787   0.8910   0.8950   1.0845   1.1152   1.1318
     1.2111   1.2232   1.2284   1.2657   1.4125   1.4717   1.5164   1.5743
     1.6298   1.6399   1.7108   1.7367   1.7382   1.7828   1.8036   1.8078
     1.8525   1.8811   1.9172   1.9539   1.9780   2.0196   2.1292   2.2823
     2.9706   3.0076   3.7236   3.8895   3.9023   3.9667   4.0246   6.2761
     6.7304   6.7491   7.3647   7.5846   8.3932   8.4729   8.5257   9.0431
     9.2597   9.2912   9.4538   9.5947   9.6416   9.7575   9.7595   9.8382
     9.9076

          k =-0.5000 0.3960 0.0000 ( 34176 PWs)   bands (ev):

   -36.0826 -35.5655 -22.5479 -22.5161 -22.3200 -22.2651 -17.3794 -17.3734
   -17.0805 -17.0037 -16.9385 -16.6482 -14.7785 -14.6398 -14.4471 -14.4040
   -14.3487 -14.1755 -14.1715 -14.1092 -14.1010 -14.0898 -14.0477 -14.0391
   -13.9374 -13.8420 -13.8155  -8.5793  -8.5760  -8.4488  -8.3686  -8.3381
    -8.3086  -8.1229  -7.9572  -7.9546  -7.9435  -7.8779  -7.6748  -3.8277
    -3.7080  -3.5156  -3.4160  -3.2840  -2.8917  -2.8811  -2.6586  -2.5572
    -2.5008  -2.3608  -2.2810  -2.2113  -2.1606  -2.1261  -2.0896  -1.8478
    -1.7392  -1.6274  -1.1853  -1.1444  -1.1369  -1.0566  -1.0057  -0.9697
    -0.9076  -0.8474  -0.8400  -0.8366  -0.8097  -0.7448  -0.7357  -0.5393
    -0.5204  -0.3057  -0.2935   0.2080   0.2812   0.4159   0.6670   0.7456
     0.9456   1.1572   1.1597   1.1852   1.2742   1.3296   1.3328   1.4045
     1.4249   1.4857   1.5467   1.5700   1.6009   1.6218   1.6563   1.7558
     1.7917   1.8384   1.8821   1.9100   1.9403   2.0233   2.0516   2.0897
     2.0988   2.1249   2.1732   2.1870   2.2585   2.3226   2.4035   2.4197
     2.7673   2.8238   4.1470   4.2982   4.5446   4.5612   4.6136   5.7384
     6.2366   6.2584   7.0635   7.2318   8.6241   8.9339   8.9618   9.1285
     9.1749   9.3045   9.4470   9.6395   9.6538   9.7121   9.7133   9.7595
     9.8836

          k =-0.5000-0.5279 0.0000 ( 34236 PWs)   bands (ev):

   -36.0810 -35.5637 -22.5252 -22.4942 -22.2989 -22.2439 -17.4075 -17.3735
   -17.0645 -16.9952 -16.9878 -16.6160 -14.7103 -14.5371 -14.3972 -14.3294
   -14.2187 -14.2186 -14.1962 -14.0762 -14.0702 -14.0642 -14.0189 -14.0169
   -13.9609 -13.8981 -13.7834  -8.7231  -8.7106  -8.5665  -8.5210  -8.4606
    -8.4546  -8.2470  -8.0480  -7.9865  -7.9833  -7.8920  -7.6898  -4.0363
    -3.9101  -3.7187  -3.5546  -3.5229  -3.1156  -3.1009  -2.6899  -2.5836
    -2.5264  -2.3583  -2.3096  -2.2550  -2.2009  -2.1746  -2.1261  -1.9172
    -1.7978  -1.6503  -1.3004  -1.2257  -1.1972  -1.1220  -0.9892  -0.9827
    -0.9414  -0.9287  -0.9284  -0.8811  -0.8470  -0.8468  -0.7638  -0.6515
    -0.4798  -0.2851  -0.2646   0.2800   0.3652   0.4340   0.8048   0.9162
     0.9904   1.1059   1.2856   1.3437   1.3801   1.3915   1.4023   1.4265
     1.4488   1.5971   1.6376   1.6679   1.6696   1.6884   1.7316   1.8896
     1.9271   1.9866   1.9975   2.0441   2.0778   2.0978   2.1637   2.1953
     2.2456   2.2613   2.3666   2.3793   2.4221   2.4777   2.4931   2.5450
     2.5676   2.5915   4.2312   4.4117   4.7436   4.7643   4.8154   5.5065
     6.0101   6.0290   6.9796   7.1315   8.6360   8.8322   9.0229   9.0320
     9.1086   9.1256   9.4256   9.4558   9.5845   9.6512   9.7065   9.8719
    10.2528

     the Fermi energy is     2.6008 ev

!    total energy              =   -1842.88338318 Ry
     Harris-Foulkes estimate   =   -1842.88338318 Ry
     estimated scf accuracy    <          4.3E-11 Ry

     The total energy is the sum of the following terms:

     one-electron contribution =  -30817.07033842 Ry
     hartree contribution      =   15561.82937109 Ry
     xc contribution           =    -621.68854717 Ry
     ewald contribution        =   14034.05459480 Ry
     smearing contrib. (-TS)   =      -0.00846348 Ry

     convergence has been achieved in  31 iterations

     negative rho (up, down):  1.490E-03 0.000E+00

     Forces acting on atoms (cartesian axes, Ry/au):

     atom    1 type  4   force =     0.00000000    0.00000000    0.00030792
     atom    2 type  3   force =     0.00000000    0.00000000    0.00401547
     atom    3 type  4   force =     0.00000000    0.00000000   -0.00310590
     atom    4 type  1   force =     0.00000000    0.00000000    0.00079181
     atom    5 type  3   force =     0.00000000    0.00000000   -0.00016221
     atom    6 type  4   force =     0.00000000    0.00000000    0.00038870
     atom    7 type  4   force =     0.00000000    0.00000000    0.00097564
     atom    8 type  2   force =     0.00000000    0.00000000   -0.00056056
     atom    9 type  4   force =     0.00000000    0.00000000   -0.00033440
     atom   10 type  4   force =     0.00000000    0.00000000   -0.00035864
     atom   11 type  3   force =     0.00000000    0.00000000    0.00036419
     atom   12 type  1   force =     0.00000000    0.00000000   -0.00017047
     atom   13 type  4   force =     0.00000000    0.00000000    0.00411473
     atom   14 type  4   force =     0.00000000    0.00000000    0.00061923
     atom   15 type  3   force =     0.00000000    0.00000000   -0.00087202
     atom   16 type  4   force =     0.00000000    0.00000000   -0.00333428
     atom   17 type  1   force =     0.00000000    0.00000000   -0.00245780
     atom   18 type  3   force =     0.00000000    0.00000000   -0.00183611
     atom   19 type  4   force =     0.00000000    0.00000000    0.01267051
     atom   20 type  4   force =     0.00000000    0.00000000    0.01038399
     atom   21 type  2   force =     0.00000000    0.00000000    0.02249320
     atom   22 type  4   force =     0.00000000    0.00000000    0.00931718
     atom   23 type  4   force =     0.00000000    0.00000000   -0.01176300
     atom   24 type  3   force =     0.00000000    0.00000000   -0.04018535
     atom   25 type  1   force =     0.00000000    0.00000000   -0.00273071
     atom   26 type  4   force =     0.00000000    0.00000000    0.00217508
     atom   27 type  3   force =     0.00000000    0.00000000   -0.00057492
     atom   28 type  4   force =     0.00000000    0.00000000   -0.00017129

     Total force =     0.051283     Total SCF correction =     0.000014


     Computing stress (Cartesian axis) and pressure


     negative rho (up, down):  1.490E-03 0.000E+00
          total   stress  (Ry/bohr**3)                   (kbar)     P=       -6.29
  -0.00001227   0.00000000   0.00000000           -1.81        0.00        0.00
   0.00000000  -0.00003387   0.00000000            0.00       -4.98        0.00
   0.00000000   0.00000000  -0.00008218            0.00        0.00      -12.09


     number of scf cycles    =   4
     number of bfgs steps    =   2

     energy   old            =   -1842.8876366290 Ry
     energy   new            =   -1842.8833831782 Ry

     CASE: energy  _new > energy  _old


 %%%%%%%%%%%%%%%%%%%%%%%%%%%%%%%%%%%%%%%%%%%%%%%%%%%%%%%%%%%%%%%%%%%%%%%%%%%%%%
     Error in routine bfgs (1):
     dE0s is positive which should never happen
 %%%%%%%%%%%%%%%%%%%%%%%%%%%%%%%%%%%%%%%%%%%%%%%%%%%%%%%%%%%%%%%%%%%%%%%%%%%%%%

     stopping ...
