
     Program PWSCF v.6.5 starts on 28Jun2021 at 23:32:57 

     This program is part of the open-source Quantum ESPRESSO suite
     for quantum simulation of materials; please cite
         "P. Giannozzi et al., J. Phys.:Condens. Matter 21 395502 (2009);
         "P. Giannozzi et al., J. Phys.:Condens. Matter 29 465901 (2017);
          URL http://www.quantum-espresso.org", 
     in publications or presentations arising from this work. More details at
     http://www.quantum-espresso.org/quote

     Parallel version (MPI), running on    20 processors

     MPI processes distributed on     6 nodes
     R & G space division:  proc/nbgrp/npool/nimage =      20
     Reading input from CBCO_Y_cleave_0.5_sep.pwi
Warning: card &CELL ignored
Warning: card     CELL_DYNAMICS = 'BFGS' ignored
Warning: card     PRESS_CONV_THR = 0.5 ignored
Warning: card / ignored

     Current dimensions of program PWSCF are:
     Max number of different atomic species (ntypx) = 10
     Max number of k-points (npk) =  40000
     Max angular momentum in pseudopotentials (lmaxx) =  3

     Subspace diagonalization in iterative solution of the eigenvalue problem:
     one sub-group per band group will be used
     scalapack distributed-memory algorithm (size of sub-group:  4*  4 procs)

     Message from routine setup:
     using ibrav=0 with symmetry is DISCOURAGED, use correct ibrav instead
 
     Parallelization info
     --------------------
     sticks:   dense  smooth     PW     G-vecs:    dense   smooth      PW
     Min         149      50     14                70963    13664    2134
     Max         150      51     15                71000    13687    2179
     Sum        2991    1007    289              1419661   273473   42977
 


     bravais-lattice index     =            0
     lattice parameter (alat)  =       7.4270  a.u.
     unit-cell volume          =    4351.6708 (a.u.)^3
     number of atoms/cell      =           28
     number of atomic types    =            4
     number of electrons       =       227.00
     number of Kohn-Sham states=          137
     kinetic-energy cutoff     =      60.0000  Ry
     charge density cutoff     =     720.0000  Ry
     convergence threshold     =      1.0E-10
     mixing beta               =       0.7000
     number of iterations used =           10  local-TF  mixing
     Exchange-correlation= SLA PW PBE PBE
                           (   1   4   3   4   0   0   0)
     nstep                     =          300


     celldm(1)=   7.427040  celldm(2)=   0.000000  celldm(3)=   0.000000
     celldm(4)=   0.000000  celldm(5)=   0.000000  celldm(6)=   0.000000

     crystal axes: (cart. coord. in units of alat)
               a(1) = (   1.000000   0.000000   0.000000 )  
               a(2) = (   0.000000   0.947081   0.000000 )  
               a(3) = (   0.000000   0.000000  11.215576 )  

     reciprocal axes: (cart. coord. in units 2 pi/alat)
               b(1) = (  1.000000  0.000000  0.000000 )  
               b(2) = (  0.000000  1.055876  0.000000 )  
               b(3) = (  0.000000  0.000000  0.089162 )  


     PseudoPot. # 1 for Ba read from file:
     ./pseudo/Ba.pbe-nsp-van.UPF
     MD5 check sum: 2b9c31dd849566dd297d80989662b7a0
     Pseudo is Ultrasoft + core correction, Zval = 10.0
     Generated by new atomic code, or converted to UPF format
     Using radial grid of  907 points,  6 beta functions with: 
                l(1) =   0
                l(2) =   0
                l(3) =   1
                l(4) =   1
                l(5) =   2
                l(6) =   2
     Q(r) pseudized with  6 coefficients,  rinner =    1.200   1.200   1.200
                                                       1.200   1.200

     PseudoPot. # 2 for Ca read from file:
     ./pseudo/Ca.pbe-nsp-van.UPF
     MD5 check sum: 6471098428ff4fa451746d08035ff179
     Pseudo is Ultrasoft + core correction, Zval = 10.0
     Generated by new atomic code, or converted to UPF format
     Using radial grid of  845 points,  6 beta functions with: 
                l(1) =   0
                l(2) =   0
                l(3) =   1
                l(4) =   1
                l(5) =   2
                l(6) =   2
     Q(r) pseudized with  6 coefficients,  rinner =    1.200   1.200   1.200
                                                       1.200   1.200

     PseudoPot. # 3 for Cu read from file:
     ./pseudo/Cu.pbe-n-van_ak.UPF
     MD5 check sum: 34e3282627ffb533726feb647e090d62
     Pseudo is Ultrasoft + core correction, Zval = 11.0
     Generated by new atomic code, or converted to UPF format
     Using radial grid of  867 points,  6 beta functions with: 
                l(1) =   0
                l(2) =   0
                l(3) =   1
                l(4) =   1
                l(5) =   2
                l(6) =   2
     Q(r) pseudized with  8 coefficients,  rinner =    1.400   1.400   1.400
                                                       1.400   1.400

     PseudoPot. # 4 for O  read from file:
     ./pseudo/O.pbe-van_ak.UPF
     MD5 check sum: 783ce7fe4c79b6a4916957118fed0856
     Pseudo is Ultrasoft, Zval =  6.0
     Generated by new atomic code, or converted to UPF format
     Using radial grid of  737 points,  4 beta functions with: 
                l(1) =   0
                l(2) =   0
                l(3) =   1
                l(4) =   1
     Q(r) pseudized with  8 coefficients,  rinner =    0.800   0.800   0.800


     atomic species   valence    mass     pseudopotential
        Ba            10.00   137.32700     Ba( 1.00)
        Ca            10.00    40.07800     Ca( 1.00)
        Cu            11.00    63.54600     Cu( 1.00)
        O              6.00    15.99900     O ( 1.00)

      4 Sym. Ops. (no inversion) found



   Cartesian axes

     site n.     atom                  positions (alat units)
         1           O   tau(   1) = (   0.0000000   0.4735409  -0.0469745  )
         2           Cu  tau(   2) = (   0.0000000   0.0000000   0.0264565  )
         3           O   tau(   3) = (   0.0000000   0.0000000   0.5030914  )
         4           Ba  tau(   4) = (   0.5000000   0.4735409   0.5690292  )
         5           Cu  tau(   5) = (   0.0000000   0.0000000   1.0374254  )
         6           O   tau(   6) = (   0.5000000   0.0000000   1.0768099  )
         7           O   tau(   7) = (   0.0000000   0.4735409   1.1116985  )
         8           Ca  tau(   8) = (   0.5000000   0.4735409   1.4976260  )
         9           O   tau(   9) = (   0.0000000   0.4735409   1.8667529  )
        10           O   tau(  10) = (   0.5000000   0.0000000   1.9044124  )
        11           Cu  tau(  11) = (   0.0000000   0.0000000   1.9512546  )
        12           Ba  tau(  12) = (   0.5000000   0.4735409   2.4295764  )
        13           O   tau(  13) = (   0.0000000   0.0000000   2.5115362  )
        14           O   tau(  14) = (   0.0000000   0.4735409   2.9918528  )
        15           Cu  tau(  15) = (   0.0000000   0.0000000   2.9919088  )
        16           O   tau(  16) = (   0.0000000   0.0000000   3.4722686  )
        17           Ba  tau(  17) = (   0.5000000   0.4735409   3.5542208  )
        18           Cu  tau(  18) = (   0.0000000   0.0000000   4.0325248  )
        19           O   tau(  19) = (   0.5000000   0.0000000   4.0793669  )
        20           O   tau(  20) = (   0.0000000   0.4735409   4.1170213  )
        21           Ca  tau(  21) = (   0.5000000   0.4735409   4.4861584  )
        22           O   tau(  22) = (   0.0000000   0.4735409   4.9993027  )
        23           O   tau(  23) = (   0.5000000   0.0000000   5.0341913  )
        24           Cu  tau(  24) = (   0.0000000   0.0000000   5.0735784  )
        25           Ba  tau(  25) = (   0.5000000   0.4735409   5.5419720  )
        26           O   tau(  26) = (   0.0000000   0.0000000   5.6078996  )
        27           Cu  tau(  27) = (   0.0000000   0.0000000   6.0845396  )
        28           O   tau(  28) = (   0.0000000   0.4735409   6.1579579  )

     number of k points=    25  Gaussian smearing, width (Ry)=  0.0100
                       cart. coord. in units 2pi/alat
        k(    1) = (   0.0000000   0.0000000   0.0000000), wk =   0.0312500
        k(    2) = (   0.0000000   0.1319845   0.0000000), wk =   0.0625000
        k(    3) = (   0.0000000   0.2639689   0.0000000), wk =   0.0625000
        k(    4) = (   0.0000000   0.3959534   0.0000000), wk =   0.0625000
        k(    5) = (   0.0000000  -0.5279378   0.0000000), wk =   0.0312500
        k(    6) = (   0.1250000   0.0000000   0.0000000), wk =   0.0625000
        k(    7) = (   0.1250000   0.1319845   0.0000000), wk =   0.1250000
        k(    8) = (   0.1250000   0.2639689   0.0000000), wk =   0.1250000
        k(    9) = (   0.1250000   0.3959534   0.0000000), wk =   0.1250000
        k(   10) = (   0.1250000  -0.5279378   0.0000000), wk =   0.0625000
        k(   11) = (   0.2500000   0.0000000   0.0000000), wk =   0.0625000
        k(   12) = (   0.2500000   0.1319845   0.0000000), wk =   0.1250000
        k(   13) = (   0.2500000   0.2639689   0.0000000), wk =   0.1250000
        k(   14) = (   0.2500000   0.3959534   0.0000000), wk =   0.1250000
        k(   15) = (   0.2500000  -0.5279378   0.0000000), wk =   0.0625000
        k(   16) = (   0.3750000   0.0000000   0.0000000), wk =   0.0625000
        k(   17) = (   0.3750000   0.1319845   0.0000000), wk =   0.1250000
        k(   18) = (   0.3750000   0.2639689   0.0000000), wk =   0.1250000
        k(   19) = (   0.3750000   0.3959534   0.0000000), wk =   0.1250000
        k(   20) = (   0.3750000  -0.5279378   0.0000000), wk =   0.0625000
        k(   21) = (  -0.5000000   0.0000000   0.0000000), wk =   0.0312500
        k(   22) = (  -0.5000000   0.1319845   0.0000000), wk =   0.0625000
        k(   23) = (  -0.5000000   0.2639689   0.0000000), wk =   0.0625000
        k(   24) = (  -0.5000000   0.3959534   0.0000000), wk =   0.0625000
        k(   25) = (  -0.5000000  -0.5279378   0.0000000), wk =   0.0312500

     Dense  grid:  1419661 G-vectors     FFT dimensions: (  64,  64, 720)

     Smooth grid:   273473 G-vectors     FFT dimensions: (  40,  36, 432)

     Estimated max dynamical RAM per process >     453.21 MB

     Estimated total dynamical RAM >       8.85 GB

     Initial potential from superposition of free atoms

     starting charge  226.84630, renormalised to  227.00000

     negative rho (up, down):  3.441E-03 0.000E+00
     Starting wfcs are  195 randomized atomic wfcs

     total cpu time spent up to now is        9.4 secs

     Self-consistent Calculation

     iteration #  1     ecut=    60.00 Ry     beta= 0.70
     Davidson diagonalization with overlap
     ethr =  1.00E-02,  avg # of iterations =  2.0

     negative rho (up, down):  2.931E-04 0.000E+00

     total cpu time spent up to now is       25.0 secs

     total energy              =   -1839.54028189 Ry
     Harris-Foulkes estimate   =   -1845.31950882 Ry
     estimated scf accuracy    <      17.97045784 Ry

     iteration #  2     ecut=    60.00 Ry     beta= 0.70
     Davidson diagonalization with overlap
     ethr =  7.92E-03,  avg # of iterations =  2.0

     negative rho (up, down):  2.681E-04 0.000E+00

     total cpu time spent up to now is       41.6 secs

     total energy              =   -1842.05326794 Ry
     Harris-Foulkes estimate   =   -1843.91710087 Ry
     estimated scf accuracy    <      12.53481612 Ry

     iteration #  3     ecut=    60.00 Ry     beta= 0.70
     Davidson diagonalization with overlap
     ethr =  5.52E-03,  avg # of iterations =  1.7

     negative rho (up, down):  2.530E-04 0.000E+00

     total cpu time spent up to now is       56.6 secs

     total energy              =   -1842.66642660 Ry
     Harris-Foulkes estimate   =   -1843.09106424 Ry
     estimated scf accuracy    <       3.73163892 Ry

     iteration #  4     ecut=    60.00 Ry     beta= 0.70
     Davidson diagonalization with overlap
     ethr =  1.64E-03,  avg # of iterations =  1.4

     negative rho (up, down):  2.458E-04 0.000E+00

     total cpu time spent up to now is       70.7 secs

     total energy              =   -1842.81088390 Ry
     Harris-Foulkes estimate   =   -1843.02795083 Ry
     estimated scf accuracy    <       7.66755881 Ry

     iteration #  5     ecut=    60.00 Ry     beta= 0.70
     Davidson diagonalization with overlap
     ethr =  1.64E-03,  avg # of iterations =  1.0

     negative rho (up, down):  2.410E-04 0.000E+00

     total cpu time spent up to now is       84.4 secs

     total energy              =   -1842.88015501 Ry
     Harris-Foulkes estimate   =   -1842.90622907 Ry
     estimated scf accuracy    <       0.96219963 Ry

     iteration #  6     ecut=    60.00 Ry     beta= 0.70
     Davidson diagonalization with overlap
     ethr =  4.24E-04,  avg # of iterations =  1.1

     negative rho (up, down):  2.384E-04 0.000E+00

     total cpu time spent up to now is       98.4 secs

     total energy              =   -1842.87969816 Ry
     Harris-Foulkes estimate   =   -1842.89461774 Ry
     estimated scf accuracy    <       1.12710614 Ry

     iteration #  7     ecut=    60.00 Ry     beta= 0.70
     Davidson diagonalization with overlap
     ethr =  4.24E-04,  avg # of iterations =  1.1

     negative rho (up, down):  2.376E-04 0.000E+00

     total cpu time spent up to now is      112.4 secs

     total energy              =   -1842.87884302 Ry
     Harris-Foulkes estimate   =   -1842.89286241 Ry
     estimated scf accuracy    <       1.31829944 Ry

     iteration #  8     ecut=    60.00 Ry     beta= 0.70
     Davidson diagonalization with overlap
     ethr =  4.24E-04,  avg # of iterations =  1.4

     negative rho (up, down):  2.371E-04 0.000E+00

     total cpu time spent up to now is      126.9 secs

     total energy              =   -1842.87643720 Ry
     Harris-Foulkes estimate   =   -1842.88524765 Ry
     estimated scf accuracy    <       0.47117728 Ry

     iteration #  9     ecut=    60.00 Ry     beta= 0.70
     Davidson diagonalization with overlap
     ethr =  2.08E-04,  avg # of iterations =  4.8

     negative rho (up, down):  2.367E-04 0.000E+00

     total cpu time spent up to now is      145.3 secs

     total energy              =   -1842.87379679 Ry
     Harris-Foulkes estimate   =   -1842.87971492 Ry
     estimated scf accuracy    <       0.18746661 Ry

     iteration # 10     ecut=    60.00 Ry     beta= 0.70
     Davidson diagonalization with overlap
     c_bands:  2 eigenvalues not converged
     ethr =  8.26E-05,  avg # of iterations =  7.4

     negative rho (up, down):  2.368E-04 0.000E+00

     total cpu time spent up to now is      166.6 secs

     total energy              =   -1842.87311856 Ry
     Harris-Foulkes estimate   =   -1842.87586511 Ry
     estimated scf accuracy    <       0.10198544 Ry

     iteration # 11     ecut=    60.00 Ry     beta= 0.70
     Davidson diagonalization with overlap
     ethr =  4.49E-05,  avg # of iterations =  2.3

     negative rho (up, down):  2.375E-04 0.000E+00

     total cpu time spent up to now is      181.6 secs

     total energy              =   -1842.87139571 Ry
     Harris-Foulkes estimate   =   -1842.87401258 Ry
     estimated scf accuracy    <       0.07427576 Ry

     iteration # 12     ecut=    60.00 Ry     beta= 0.70
     Davidson diagonalization with overlap
     ethr =  3.27E-05,  avg # of iterations =  5.0

     negative rho (up, down):  2.385E-04 0.000E+00

     total cpu time spent up to now is      199.6 secs

     total energy              =   -1842.87126888 Ry
     Harris-Foulkes estimate   =   -1842.87211475 Ry
     estimated scf accuracy    <       0.10299370 Ry

     iteration # 13     ecut=    60.00 Ry     beta= 0.70
     Davidson diagonalization with overlap
     c_bands:  1 eigenvalues not converged
     ethr =  3.27E-05,  avg # of iterations =  1.8

     negative rho (up, down):  4.716E-03 0.000E+00

     total cpu time spent up to now is      214.0 secs

     total energy              =   -1842.86887498 Ry
     Harris-Foulkes estimate   =   -1842.87151118 Ry
     estimated scf accuracy    <       0.08064858 Ry

     iteration # 14     ecut=    60.00 Ry     beta= 0.70
     Davidson diagonalization with overlap
     ethr =  3.27E-05,  avg # of iterations =  3.8

     negative rho (up, down):  7.711E-03 0.000E+00

     total cpu time spent up to now is      230.8 secs

     total energy              =   -1842.86856808 Ry
     Harris-Foulkes estimate   =   -1842.86955831 Ry
     estimated scf accuracy    <       0.04630574 Ry

     iteration # 15     ecut=    60.00 Ry     beta= 0.70
     Davidson diagonalization with overlap
     ethr =  2.04E-05,  avg # of iterations =  3.7

     negative rho (up, down):  5.603E-03 0.000E+00

     total cpu time spent up to now is      247.4 secs

     total energy              =   -1842.86698446 Ry
     Harris-Foulkes estimate   =   -1842.86879490 Ry
     estimated scf accuracy    <       0.04119281 Ry

     iteration # 16     ecut=    60.00 Ry     beta= 0.70
     Davidson diagonalization with overlap
     ethr =  1.81E-05,  avg # of iterations =  2.6

     negative rho (up, down):  1.728E-02 0.000E+00

     total cpu time spent up to now is      262.8 secs

     total energy              =   -1842.86632315 Ry
     Harris-Foulkes estimate   =   -1842.86752874 Ry
     estimated scf accuracy    <       0.01682951 Ry

     iteration # 17     ecut=    60.00 Ry     beta= 0.70
     Davidson diagonalization with overlap
     ethr =  7.41E-06,  avg # of iterations =  8.6

     negative rho (up, down):  1.982E-02 0.000E+00

     total cpu time spent up to now is      286.0 secs

     total energy              =   -1842.86611293 Ry
     Harris-Foulkes estimate   =   -1842.86672994 Ry
     estimated scf accuracy    <       0.01171797 Ry

     iteration # 18     ecut=    60.00 Ry     beta= 0.70
     Davidson diagonalization with overlap
     ethr =  5.16E-06,  avg # of iterations =  5.4

     negative rho (up, down):  1.228E-02 0.000E+00

     total cpu time spent up to now is      304.9 secs

     total energy              =   -1842.86582782 Ry
     Harris-Foulkes estimate   =   -1842.86632614 Ry
     estimated scf accuracy    <       0.00530003 Ry

     iteration # 19     ecut=    60.00 Ry     beta= 0.70
     Davidson diagonalization with overlap
     c_bands:  1 eigenvalues not converged
     ethr =  2.33E-06,  avg # of iterations =  7.8

     negative rho (up, down):  8.128E-03 0.000E+00

     total cpu time spent up to now is      326.6 secs

     total energy              =   -1842.86575866 Ry
     Harris-Foulkes estimate   =   -1842.86595214 Ry
     estimated scf accuracy    <       0.00187611 Ry

     iteration # 20     ecut=    60.00 Ry     beta= 0.70
     Davidson diagonalization with overlap
     ethr =  8.26E-07,  avg # of iterations =  6.2

     negative rho (up, down):  3.391E-03 0.000E+00

     total cpu time spent up to now is      346.4 secs

     total energy              =   -1842.86571451 Ry
     Harris-Foulkes estimate   =   -1842.86585213 Ry
     estimated scf accuracy    <       0.00082449 Ry

     iteration # 21     ecut=    60.00 Ry     beta= 0.70
     Davidson diagonalization with overlap
     c_bands:  1 eigenvalues not converged
     c_bands:  1 eigenvalues not converged
     ethr =  3.63E-07,  avg # of iterations =  7.9

     negative rho (up, down):  1.184E-03 0.000E+00

     total cpu time spent up to now is      368.4 secs

     total energy              =   -1842.86577595 Ry
     Harris-Foulkes estimate   =   -1842.86574115 Ry
     estimated scf accuracy    <       0.00015514 Ry

     iteration # 22     ecut=    60.00 Ry     beta= 0.70
     Davidson diagonalization with overlap
     c_bands:  1 eigenvalues not converged
     ethr =  6.83E-08,  avg # of iterations =  7.1

     negative rho (up, down):  9.542E-04 0.000E+00

     total cpu time spent up to now is      389.4 secs

     total energy              =   -1842.86578646 Ry
     Harris-Foulkes estimate   =   -1842.86578260 Ry
     estimated scf accuracy    <       0.00009267 Ry

     iteration # 23     ecut=    60.00 Ry     beta= 0.70
     Davidson diagonalization with overlap
     ethr =  4.08E-08,  avg # of iterations =  3.9

     negative rho (up, down):  9.233E-04 0.000E+00

     total cpu time spent up to now is      406.3 secs

     total energy              =   -1842.86578848 Ry
     Harris-Foulkes estimate   =   -1842.86578950 Ry
     estimated scf accuracy    <       0.00004976 Ry

     iteration # 24     ecut=    60.00 Ry     beta= 0.70
     Davidson diagonalization with overlap
     ethr =  2.19E-08,  avg # of iterations =  1.6

     negative rho (up, down):  1.253E-03 0.000E+00

     total cpu time spent up to now is      420.6 secs

     total energy              =   -1842.86578943 Ry
     Harris-Foulkes estimate   =   -1842.86578995 Ry
     estimated scf accuracy    <       0.00001176 Ry

     iteration # 25     ecut=    60.00 Ry     beta= 0.70
     Davidson diagonalization with overlap
     ethr =  5.18E-09,  avg # of iterations =  1.5

     negative rho (up, down):  1.452E-03 0.000E+00

     total cpu time spent up to now is      434.7 secs

     total energy              =   -1842.86578946 Ry
     Harris-Foulkes estimate   =   -1842.86579001 Ry
     estimated scf accuracy    <       0.00000820 Ry

     iteration # 26     ecut=    60.00 Ry     beta= 0.70
     Davidson diagonalization with overlap
     ethr =  3.61E-09,  avg # of iterations =  1.0

     negative rho (up, down):  1.468E-03 0.000E+00

     total cpu time spent up to now is      448.4 secs

     total energy              =   -1842.86578959 Ry
     Harris-Foulkes estimate   =   -1842.86578974 Ry
     estimated scf accuracy    <       0.00000125 Ry

     iteration # 27     ecut=    60.00 Ry     beta= 0.70
     Davidson diagonalization with overlap
     ethr =  5.53E-10,  avg # of iterations =  3.5

     negative rho (up, down):  1.481E-03 0.000E+00

     total cpu time spent up to now is      465.4 secs

     total energy              =   -1842.86578965 Ry
     Harris-Foulkes estimate   =   -1842.86578971 Ry
     estimated scf accuracy    <       0.00000123 Ry

     iteration # 28     ecut=    60.00 Ry     beta= 0.70
     Davidson diagonalization with overlap
     ethr =  5.40E-10,  avg # of iterations =  1.0

     negative rho (up, down):  1.494E-03 0.000E+00

     total cpu time spent up to now is      479.1 secs

     total energy              =   -1842.86578963 Ry
     Harris-Foulkes estimate   =   -1842.86578968 Ry
     estimated scf accuracy    <       0.00000032 Ry

     iteration # 29     ecut=    60.00 Ry     beta= 0.70
     Davidson diagonalization with overlap
     ethr =  1.43E-10,  avg # of iterations =  1.9

     negative rho (up, down):  1.498E-03 0.000E+00

     total cpu time spent up to now is      493.7 secs

     total energy              =   -1842.86578964 Ry
     Harris-Foulkes estimate   =   -1842.86578967 Ry
     estimated scf accuracy    <       0.00000035 Ry

     iteration # 30     ecut=    60.00 Ry     beta= 0.70
     Davidson diagonalization with overlap
     ethr =  1.43E-10,  avg # of iterations =  1.0

     negative rho (up, down):  1.498E-03 0.000E+00

     total cpu time spent up to now is      507.6 secs

     total energy              =   -1842.86578965 Ry
     Harris-Foulkes estimate   =   -1842.86578965 Ry
     estimated scf accuracy    <       0.00000006 Ry

     iteration # 31     ecut=    60.00 Ry     beta= 0.70
     Davidson diagonalization with overlap
     ethr =  2.69E-11,  avg # of iterations =  1.6

     negative rho (up, down):  1.504E-03 0.000E+00

     total cpu time spent up to now is      522.0 secs

     total energy              =   -1842.86578964 Ry
     Harris-Foulkes estimate   =   -1842.86578965 Ry
     estimated scf accuracy    <       0.00000003 Ry

     iteration # 32     ecut=    60.00 Ry     beta= 0.70
     Davidson diagonalization with overlap
     ethr =  1.40E-11,  avg # of iterations =  1.2

     negative rho (up, down):  1.504E-03 0.000E+00

     total cpu time spent up to now is      535.9 secs

     total energy              =   -1842.86578964 Ry
     Harris-Foulkes estimate   =   -1842.86578964 Ry
     estimated scf accuracy    <          8.1E-09 Ry

     iteration # 33     ecut=    60.00 Ry     beta= 0.70
     Davidson diagonalization with overlap
     ethr =  3.57E-12,  avg # of iterations =  2.7

     negative rho (up, down):  1.506E-03 0.000E+00

     total cpu time spent up to now is      551.7 secs

     total energy              =   -1842.86578964 Ry
     Harris-Foulkes estimate   =   -1842.86578964 Ry
     estimated scf accuracy    <          5.2E-09 Ry

     iteration # 34     ecut=    60.00 Ry     beta= 0.70
     Davidson diagonalization with overlap
     ethr =  2.30E-12,  avg # of iterations =  1.0

     negative rho (up, down):  1.505E-03 0.000E+00

     total cpu time spent up to now is      565.5 secs

     total energy              =   -1842.86578964 Ry
     Harris-Foulkes estimate   =   -1842.86578964 Ry
     estimated scf accuracy    <          1.8E-09 Ry

     iteration # 35     ecut=    60.00 Ry     beta= 0.70
     Davidson diagonalization with overlap
     ethr =  8.02E-13,  avg # of iterations =  1.9

     negative rho (up, down):  1.506E-03 0.000E+00

     total cpu time spent up to now is      580.1 secs

     total energy              =   -1842.86578964 Ry
     Harris-Foulkes estimate   =   -1842.86578964 Ry
     estimated scf accuracy    <          5.9E-10 Ry

     iteration # 36     ecut=    60.00 Ry     beta= 0.70
     Davidson diagonalization with overlap
     ethr =  2.60E-13,  avg # of iterations =  2.7

     negative rho (up, down):  1.506E-03 0.000E+00

     total cpu time spent up to now is      595.9 secs

     total energy              =   -1842.86578964 Ry
     Harris-Foulkes estimate   =   -1842.86578964 Ry
     estimated scf accuracy    <          1.1E-10 Ry

     iteration # 37     ecut=    60.00 Ry     beta= 0.70
     Davidson diagonalization with overlap
     ethr =  1.00E-13,  avg # of iterations =  2.2

     negative rho (up, down):  1.506E-03 0.000E+00

     total cpu time spent up to now is      610.4 secs

     End of self-consistent calculation

          k = 0.0000 0.0000 0.0000 ( 34267 PWs)   bands (ev):

   -36.6662 -35.5199 -22.7248 -22.6588 -22.5613 -22.4625 -17.8137 -17.6861
   -17.6771 -17.0244 -16.5711 -16.5597 -15.2352 -15.1872 -14.9316 -14.7800
   -14.6051 -14.5867 -14.5057 -14.1151 -14.1148 -14.0190 -13.9157 -13.7571
   -13.7200 -13.6803 -13.5664  -7.8561  -7.8186  -7.7622  -7.7621  -7.7492
    -7.6432  -7.6257  -7.6020  -7.5675  -7.5060  -7.4374  -7.3411  -2.2636
    -2.2558  -2.1962  -1.8750  -1.7636  -1.7244  -1.7001  -1.6093  -1.6018
    -1.4723  -1.4168  -1.3658  -1.3428  -1.1544  -1.1539  -1.0065  -0.9774
    -0.7783  -0.5347  -0.5192  -0.3922  -0.3845  -0.3103  -0.2829  -0.2425
    -0.1983  -0.1860  -0.1846  -0.1790  -0.1726  -0.1612  -0.1418  -0.1081
    -0.0874  -0.0203   0.0291   0.0430   0.1640   0.1651   0.1654   0.1987
     0.2090   0.2398   0.2401   0.2460   0.3034   0.3376   0.3760   0.3905
     0.4823   0.8503   0.8680   0.9483   0.9622   1.0237   1.0496   1.2488
     1.2786   1.3341   1.3749   1.4180   1.4432   1.4693   1.5600   1.5918
     1.5921   1.6031   1.6288   1.8159   1.9006   2.0137   2.1026   2.1857
     2.2063   2.2390   2.2559   2.3390   2.3516   2.5893   2.6026   5.2043
     5.2829   5.5597   6.0337   6.4369   6.8291   6.8479   7.1373   7.3360
     8.0118   8.0813   8.2316   8.3693   8.5544   8.6088   8.6551   8.7764
     8.9341

          k = 0.0000 0.1320 0.0000 ( 34203 PWs)   bands (ev):

   -36.6647 -35.5181 -22.6982 -22.6321 -22.5359 -22.4371 -17.8084 -17.7101
   -17.6752 -16.9883 -16.6323 -16.5688 -15.1466 -15.1227 -14.8905 -14.7274
   -14.6102 -14.5810 -14.4784 -14.1246 -14.1232 -14.0463 -13.9211 -13.8024
   -13.7534 -13.7252 -13.6241  -7.8557  -7.7708  -7.7595  -7.7497  -7.7141
    -7.6679  -7.6408  -7.6096  -7.5574  -7.4850  -7.4608  -7.3882  -2.3229
    -2.2993  -2.2727  -2.1461  -2.0952  -1.9874  -1.9701  -1.6953  -1.5987
    -1.5815  -1.5781  -1.5768  -1.4546  -1.3306  -1.2981  -1.2284  -1.0458
    -0.9142  -0.6242  -0.5874  -0.5613  -0.4896  -0.4761  -0.4195  -0.3944
    -0.3520  -0.3167  -0.2934  -0.2719  -0.1378  -0.0938  -0.0814  -0.0813
    -0.0554   0.0158   0.0404   0.0506   0.0627   0.0736   0.1888   0.1888
     0.1897   0.2263   0.2542   0.2553   0.3031   0.3447   0.4240   0.4358
     0.7927   0.9530   1.0025   1.0342   1.1250   1.1396   1.1455   1.1697
     1.2161   1.2553   1.3535   1.4091   1.4773   1.5194   1.5284   1.5830
     1.6125   1.6689   1.7132   1.7871   1.8896   2.0116   2.0403   2.0646
     2.1349   2.1477   2.1701   2.5658   2.8658   2.8863   2.9457   5.5963
     5.6592   5.8377   6.2892   6.6660   7.1327   7.1439   7.4515   7.6132
     8.1997   8.2710   8.3975   8.5670   8.6451   8.7757   8.8248   8.8573
     8.9250

          k = 0.0000 0.2640 0.0000 ( 34079 PWs)   bands (ev):

   -36.6609 -35.5137 -22.6323 -22.5660 -22.4732 -22.3744 -17.8380 -17.7226
   -17.6705 -16.8962 -16.7866 -16.5631 -14.9576 -14.9467 -14.8096 -14.6590
   -14.5882 -14.5709 -14.4165 -14.1440 -14.1118 -14.1068 -13.9609 -13.9284
   -13.8433 -13.8086 -13.7419  -7.8553  -7.7584  -7.7552  -7.7506  -7.7011
    -7.6503  -7.6354  -7.5928  -7.5885  -7.4895  -7.4456  -7.3472  -2.7745
    -2.7484  -2.6620  -2.6240  -2.5317  -2.3622  -2.3505  -2.2147  -2.2097
    -2.1639  -1.6101  -1.6067  -1.5277  -1.4068  -1.3981  -1.3363  -1.2971
    -0.9868  -0.9537  -0.8872  -0.8129  -0.7439  -0.7382  -0.7151  -0.5859
    -0.5587  -0.5495  -0.4967  -0.4685  -0.4499  -0.4308  -0.4268  -0.2597
    -0.2285  -0.0268   0.0528   0.0566   0.0789   0.0906   0.1606   0.2161
     0.2535   0.2775   0.4235   0.4431   0.6837   0.7307   0.7599   0.7647
     0.9761   0.9879   1.0352   1.0997   1.2001   1.2075   1.2308   1.2378
     1.2520   1.2781   1.3152   1.3601   1.3895   1.4439   1.6134   1.7108
     1.7589   1.7641   1.8720   1.9931   2.0060   2.0291   2.0400   2.0577
     2.0639   2.1656   2.2752   2.6833   3.1063   3.1163   3.7881   6.4440
     6.5530   6.5725   6.8642   7.3758   7.9169   7.9549   8.2413   8.4071
     8.4639   8.5578   8.7150   8.7806   8.9004   8.9927   9.0899   9.1644
     9.3676

          k = 0.0000 0.3960 0.0000 ( 34048 PWs)   bands (ev):

   -36.6572 -35.5093 -22.5641 -22.4976 -22.4085 -22.3097 -17.9038 -17.6954
   -17.6659 -16.9229 -16.7945 -16.5575 -14.8681 -14.8610 -14.7220 -14.6167
   -14.4735 -14.4331 -14.3653 -14.2727 -14.0805 -14.0490 -14.0389 -14.0252
   -13.9818 -13.9258 -13.8155  -7.8553  -7.8365  -7.7808  -7.7516  -7.7480
    -7.6862  -7.6228  -7.5780  -7.5219  -7.4634  -7.3271  -7.2266  -3.3840
    -3.2224  -3.1518  -3.1060  -2.9929  -2.9290  -2.9243  -2.3056  -2.2994
    -2.2042  -1.9460  -1.7414  -1.6959  -1.4835  -1.4615  -1.3063  -1.2542
    -1.2016  -1.0804  -1.0606  -1.0094  -0.9752  -0.9593  -0.9412  -0.8670
    -0.8271  -0.7899  -0.7427  -0.6880  -0.6840  -0.6411  -0.6136  -0.2820
    -0.2513  -0.1482  -0.0428   0.0468   0.0958   0.1081   0.1917   0.2057
     0.2276   0.2412   0.4625   0.5596   0.8482   0.9264   0.9533   0.9620
     0.9927   1.0088   1.0245   1.0505   1.1407   1.1560   1.2011   1.2018
     1.2148   1.4487   1.5629   1.5982   1.6749   1.6871   1.7255   1.7751
     1.8021   1.8150   1.9988   2.0503   2.0662   2.1091   2.1407   2.2201
     2.3225   2.4342   2.4360   2.5987   2.9990   3.0079   4.3463   7.2033
     7.4856   7.5063   7.5383   8.2102   8.3279   8.4679   8.5360   8.7467
     8.7730   9.1505   9.1569   9.2182   9.2444   9.3708   9.4954   9.5718
     9.6397

          k = 0.0000-0.5279 0.0000 ( 34110 PWs)   bands (ev):

   -36.6557 -35.5075 -22.5351 -22.4686 -22.3811 -22.2823 -17.9329 -17.6813
   -17.6640 -16.9751 -16.7495 -16.5551 -14.9104 -14.8939 -14.5734 -14.5071
   -14.5015 -14.4207 -14.2747 -14.2032 -14.1664 -14.1235 -14.0610 -14.0092
   -14.0072 -14.0060 -13.8477  -7.8662  -7.8549  -7.8105  -7.7488  -7.7412
    -7.7268  -7.6188  -7.6138  -7.4660  -7.4071  -7.2758  -7.1743  -3.6478
    -3.4011  -3.3297  -3.2757  -3.1714  -3.1529  -3.1492  -2.3217  -2.3160
    -2.2170  -2.0742  -1.8719  -1.8299  -1.4313  -1.3947  -1.2972  -1.2466
    -1.2219  -1.1659  -1.1345  -1.1122  -1.0909  -1.0647  -0.9846  -0.9594
    -0.9555  -0.9001  -0.8559  -0.7709  -0.7690  -0.7170  -0.6724  -0.2584
    -0.2482  -0.2215  -0.0492   0.0476   0.1015   0.1140   0.1864   0.2149
     0.2355   0.2373   0.4142   0.4886   0.8133   0.8820   0.9048   0.9245
     0.9448   0.9533   1.0727   1.1045   1.1787   1.1848   1.1966   1.3804
     1.4185   1.4563   1.5719   1.6570   1.7957   1.8021   1.8036   1.8553
     1.8803   2.0635   2.0793   2.0862   2.0988   2.1313   2.1386   2.2677
     2.3059   2.5547   2.5957   2.5974   2.8201   2.8302   4.5205   7.6293
     7.7958   7.9134   8.0831   8.1166   8.2957   8.4460   8.9687   9.0322
     9.0730   9.2101   9.2251   9.3488   9.3739   9.3966   9.5038   9.8792
     9.9968

          k = 0.1250 0.0000 0.0000 ( 34183 PWs)   bands (ev):

   -36.6654 -35.5189 -22.7068 -22.6407 -22.5441 -22.4454 -17.8092 -17.6991
   -17.6851 -16.9910 -16.6514 -16.5584 -15.1332 -15.1269 -14.9093 -14.8034
   -14.6507 -14.6217 -14.5110 -14.1241 -14.1240 -14.0401 -13.9276 -13.7791
   -13.7525 -13.7357 -13.5946  -7.8819  -7.8002  -7.7908  -7.7568  -7.6872
    -7.6767  -7.5932  -7.5357  -7.5348  -7.4459  -7.4072  -7.3106  -2.3064
    -2.2918  -2.2306  -1.9312  -1.8458  -1.8058  -1.7444  -1.7412  -1.6714
    -1.6349  -1.5840  -1.3869  -1.3379  -1.1523  -1.1518  -1.0459  -0.9980
    -0.8086  -0.6880  -0.5944  -0.5435  -0.4479  -0.3957  -0.3863  -0.3387
    -0.3152  -0.2728  -0.2592  -0.2586  -0.2059  -0.1951  -0.1561  -0.1282
    -0.0952  -0.0587  -0.0082   0.0217   0.1574   0.1582   0.1820   0.2327
     0.2543   0.2609   0.2899   0.3140   0.3954   0.4290   0.4469   0.4889
     0.5210   0.8568   0.8725   0.9125   0.9680   1.0036   1.1048   1.1389
     1.2547   1.2813   1.3212   1.3895   1.4357   1.4538   1.5531   1.5683
     1.6039   1.6433   1.8494   1.9497   2.0400   2.0533   2.1106   2.1278
     2.1615   2.1944   2.2676   2.3199   2.4024   2.6371   2.6385   5.4189
     5.4631   5.7460   6.2101   6.5962   7.0442   7.0504   7.3265   7.5455
     8.1742   8.2321   8.3983   8.5309   8.6405   8.7969   8.8628   8.8749
     8.9691

          k = 0.1250 0.1320 0.0000 ( 34158 PWs)   bands (ev):

   -36.6638 -35.5170 -22.6809 -22.6148 -22.5194 -22.4207 -17.8048 -17.7145
   -17.6907 -16.9559 -16.6545 -16.6215 -15.0660 -15.0516 -14.8706 -14.7480
   -14.6450 -14.6066 -14.4810 -14.1250 -14.1237 -14.0624 -13.9334 -13.8168
   -13.7833 -13.7709 -13.6427  -7.9012  -7.8299  -7.8191  -7.7910  -7.7331
    -7.6808  -7.6263  -7.5555  -7.5375  -7.4976  -7.3655  -7.2692  -2.3599
    -2.3296  -2.2963  -2.1415  -2.0811  -1.9699  -1.9503  -1.8918  -1.7849
    -1.7150  -1.6217  -1.6086  -1.5722  -1.5653  -1.3044  -1.2276  -1.0828
    -0.9402  -0.8018  -0.7353  -0.6153  -0.5780  -0.5551  -0.5134  -0.4792
    -0.4401  -0.4328  -0.4226  -0.2578  -0.1984  -0.1604  -0.1347  -0.0975
    -0.0679  -0.0523   0.0301   0.0513   0.0687   0.0803   0.1998   0.2194
     0.2275   0.2787   0.2922   0.3073   0.3236   0.3576   0.5858   0.6525
     0.7829   0.9962   1.0858   1.1071   1.1155   1.1238   1.1950   1.2048
     1.2278   1.2912   1.3421   1.3538   1.3947   1.4235   1.4560   1.5564
     1.6592   1.6678   1.7276   1.7636   1.8111   1.8600   2.0649   2.2949
     2.4069   2.4683   2.5293   2.6364   2.8778   2.8918   2.9599   5.7649
     5.8016   5.9791   6.4049   6.8060   7.3392   7.3410   7.6310   7.8162
     8.3469   8.4016   8.5167   8.6571   8.7069   8.7116   8.9788   9.0058
     9.1264

          k = 0.1250 0.2640 0.0000 ( 34093 PWs)   bands (ev):

   -36.6601 -35.5127 -22.6171 -22.5507 -22.4585 -22.3598 -17.8349 -17.7337
   -17.6787 -16.8667 -16.7835 -16.6340 -14.9105 -14.8776 -14.7945 -14.6453
   -14.5997 -14.5625 -14.4110 -14.1465 -14.1073 -14.1010 -13.9826 -13.9206
   -13.8642 -13.8225 -13.7476  -7.9702  -7.9118  -7.8561  -7.7944  -7.7612
    -7.7545  -7.6728  -7.6339  -7.5461  -7.4890  -7.3586  -7.2633  -2.7951
    -2.7640  -2.6695  -2.6225  -2.5404  -2.3627  -2.3486  -2.2141  -2.2086
    -2.1769  -1.8401  -1.7353  -1.6783  -1.5716  -1.5642  -1.4167  -1.3614
    -1.0311  -0.9421  -0.9251  -0.9075  -0.8835  -0.8246  -0.8048  -0.7926
    -0.6899  -0.6275  -0.6147  -0.5612  -0.4951  -0.4429  -0.4288  -0.2707
    -0.2541  -0.1347  -0.0565   0.0141   0.0401   0.0988   0.2361   0.2700
     0.3288   0.4621   0.5386   0.5656   0.7906   0.8032   0.8418   0.8737
     0.9502   1.0856   1.0965   1.1062   1.1680   1.2216   1.3439   1.3692
     1.3788   1.4170   1.4267   1.4591   1.4716   1.4802   1.5328   1.6186
     1.6764   1.7131   1.7746   1.8030   2.0042   2.0092   2.1070   2.3157
     2.6037   2.6760   2.7253   2.8629   3.1166   3.1264   3.7888   6.5155
     6.6140   6.6274   6.8444   7.4541   8.0904   8.1190   8.2917   8.3880
     8.5403   8.6325   8.8482   8.8567   8.9556   9.0598   9.1167   9.1993
     9.2574

          k = 0.1250 0.3960 0.0000 ( 34104 PWs)   bands (ev):

   -36.6564 -35.5083 -22.5511 -22.4846 -22.3958 -22.2971 -17.9009 -17.7203
   -17.6600 -16.9178 -16.7680 -16.6255 -14.8332 -14.8285 -14.6845 -14.5427
   -14.4489 -14.4189 -14.3480 -14.2710 -14.0776 -14.0601 -14.0499 -14.0150
   -13.9826 -13.9138 -13.8102  -8.0006  -7.9444  -7.8676  -7.8394  -7.7735
    -7.7625  -7.7172  -7.6422  -7.5911  -7.5336  -7.3930  -7.3032  -3.3745
    -3.2631  -3.1884  -3.1334  -3.0215  -2.9206  -2.9162  -2.3138  -2.3055
    -2.2190  -1.9048  -1.7260  -1.6828  -1.6362  -1.5882  -1.5220  -1.4571
    -1.2681  -1.2516  -1.2059  -1.1239  -1.1148  -1.0437  -1.0287  -0.9375
    -0.8788  -0.8126  -0.8046  -0.7856  -0.7436  -0.6977  -0.6833  -0.3329
    -0.2961  -0.1750  -0.0962   0.0167   0.0480   0.1628   0.2641   0.2741
     0.3358   0.5043   0.6640   0.7371   0.7737   0.9676   0.9797   1.0337
     1.0841   1.1138   1.1410   1.1983   1.2486   1.2671   1.2967   1.3143
     1.3798   1.5331   1.6179   1.6467   1.7154   1.7205   1.7862   1.7951
     1.8520   1.9408   2.0200   2.0401   2.1293   2.4012   2.4036   2.4386
     2.5529   2.6087   2.6880   2.7899   3.0470   3.0645   4.3298   7.0602
     7.2495   7.3661   7.4252   8.1386   8.1979   8.5485   8.5865   8.7291
     8.8198   8.9845   9.1902   9.2750   9.4362   9.5112   9.6147   9.6347
     9.7129

          k = 0.1250-0.5279 0.0000 ( 34036 PWs)   bands (ev):

   -36.6548 -35.5064 -22.5232 -22.4566 -22.3692 -22.2705 -17.9300 -17.7142
   -17.6500 -16.9694 -16.7246 -16.6217 -14.8657 -14.8496 -14.5314 -14.4818
   -14.4301 -14.3824 -14.2795 -14.2041 -14.1463 -14.1065 -14.0936 -14.0069
   -14.0052 -13.9894 -13.8315  -7.9953  -7.9399  -7.8724  -7.8490  -7.7672
    -7.7553  -7.7434  -7.6469  -7.6252  -7.5667  -7.4149  -7.3284  -3.6396
    -3.4497  -3.3710  -3.3136  -3.1998  -3.1490  -3.1454  -2.3349  -2.3273
    -2.2348  -1.9769  -1.7559  -1.7048  -1.5461  -1.5199  -1.4979  -1.4477
    -1.4179  -1.3892  -1.2938  -1.2894  -1.2728  -1.1294  -1.1073  -0.9789
    -0.9635  -0.8813  -0.8731  -0.8628  -0.8053  -0.7904  -0.7833  -0.3462
    -0.2785  -0.1819  -0.1119   0.0083   0.0716   0.1883   0.2759   0.2814
     0.3368   0.5068   0.6500   0.7105   0.7879   0.9650   0.9998   1.0115
     1.0220   1.0354   1.0945   1.1235   1.3217   1.3635   1.3867   1.4133
     1.4529   1.5575   1.5919   1.8118   1.8447   1.8807   1.9027   2.0741
     2.0911   2.0983   2.1070   2.1747   2.2973   2.4119   2.4358   2.5405
     2.5666   2.5690   2.5736   2.6286   2.9064   2.9412   4.4954   7.2463
     7.3578   7.5872   7.6772   8.3383   8.3827   8.4951   8.6023   9.0923
     9.1136   9.3446   9.3606   9.3701   9.4564   9.6180   9.7156   9.7727
     9.9649

          k = 0.2500 0.0000 0.0000 ( 34204 PWs)   bands (ev):

   -36.6633 -35.5162 -22.6625 -22.5961 -22.5018 -22.4033 -17.8274 -17.7201
   -17.6825 -16.9057 -16.8156 -16.5551 -14.9833 -14.9352 -14.8902 -14.8605
   -14.7322 -14.6690 -14.5347 -14.1383 -14.1377 -14.1065 -13.9752 -13.8709
   -13.8410 -13.8106 -13.6508  -7.8837  -7.8488  -7.7905  -7.6703  -7.6683
    -7.6057  -7.5125  -7.4584  -7.4534  -7.3600  -7.3323  -7.2351  -2.4999
    -2.4475  -2.4292  -2.2914  -2.1432  -2.0858  -2.0718  -1.7610  -1.6806
    -1.5819  -1.5105  -1.4047  -1.3577  -1.1662  -1.1488  -1.1485  -1.0573
    -0.9773  -0.8902  -0.8874  -0.7217  -0.7032  -0.6361  -0.6142  -0.5926
    -0.5719  -0.4644  -0.4499  -0.3872  -0.3643  -0.2412  -0.2268  -0.1844
    -0.1753  -0.1251  -0.1113   0.0216   0.1443   0.1454   0.2509   0.2773
     0.3365   0.3820   0.3900   0.4218   0.4793   0.5205   0.5293   0.6144
     0.6892   0.7266   0.8439   0.9718   0.9883   1.0809   1.1144   1.1762
     1.2967   1.3468   1.3603   1.3744   1.4386   1.4476   1.4895   1.5220
     1.6470   1.6796   1.8299   1.9414   1.9935   2.0860   2.0961   2.1168
     2.1325   2.2782   2.3671   2.4994   2.5647   2.7451   2.7631   5.9199
     5.9205   6.2522   6.5629   7.1123   7.5832   7.6211   7.8393   8.0932
     8.5015   8.5560   8.7087   8.7367   8.7740   8.8965   9.1251   9.2372
     9.3640

          k = 0.2500 0.1320 0.0000 ( 34143 PWs)   bands (ev):

   -36.6618 -35.5144 -22.6386 -22.5723 -22.4789 -22.3804 -17.8228 -17.7364
   -17.6872 -16.8736 -16.8092 -16.6212 -14.9327 -14.8848 -14.8517 -14.7994
   -14.6830 -14.6292 -14.4992 -14.1247 -14.1240 -14.1137 -13.9741 -13.8754
   -13.8634 -13.8455 -13.6783  -7.9520  -7.8829  -7.8687  -7.8069  -7.7172
    -7.6927  -7.6471  -7.5396  -7.4789  -7.4215  -7.2949  -7.2014  -2.5506
    -2.4996  -2.4585  -2.3256  -2.1347  -2.0860  -2.0631  -2.0483  -2.0265
    -1.8923  -1.8896  -1.6314  -1.5627  -1.5620  -1.3569  -1.2959  -1.2291
    -1.0557  -0.9794  -0.9465  -0.9002  -0.8603  -0.8399  -0.8138  -0.5959
    -0.5637  -0.5460  -0.4731  -0.4287  -0.3682  -0.2787  -0.2661  -0.1693
    -0.1491  -0.1017   0.0349   0.0567   0.0949   0.1288   0.2045   0.2431
     0.2606   0.3101   0.3913   0.3963   0.5585   0.6585   0.7069   0.8394
     0.9656   0.9748   1.0118   1.0298   1.1058   1.1377   1.2465   1.2815
     1.2967   1.3455   1.3654   1.4070   1.4460   1.5010   1.5443   1.5506
     1.6027   1.6514   1.6964   1.7962   1.8379   1.8661   2.0796   2.4111
     2.7297   2.7650   2.8437   2.9243   2.9433   2.9726   3.0339   6.1816
     6.1871   6.3832   6.6237   7.2617   7.8349   7.8780   8.0710   8.3111
     8.4635   8.6257   8.6733   8.8115   8.9148   9.0153   9.1925   9.2476
     9.2997

          k = 0.2500 0.2640 0.0000 ( 34141 PWs)   bands (ev):

   -36.6581 -35.5101 -22.5799 -22.5134 -22.4226 -22.3241 -17.8319 -17.7858
   -17.6660 -16.8092 -16.7853 -16.7578 -14.8189 -14.7956 -14.7518 -14.6302
   -14.5428 -14.5217 -14.4102 -14.1654 -14.0990 -14.0855 -14.0234 -13.9197
   -13.9040 -13.8617 -13.7528  -8.1721  -8.1146  -7.9913  -7.9031  -7.8687
    -7.7662  -7.7516  -7.6491  -7.5987  -7.5423  -7.4126  -7.3233  -2.9297
    -2.8862  -2.7527  -2.6714  -2.5685  -2.3760  -2.3473  -2.2642  -2.2467
    -2.2288  -2.1700  -2.1050  -2.0436  -2.0314  -1.5521  -1.3926  -1.3846
    -1.3560  -1.2966  -1.2389  -1.1996  -1.0419  -0.9496  -0.8915  -0.7879
    -0.7026  -0.6674  -0.6387  -0.6153  -0.5339  -0.5260  -0.5127  -0.4459
    -0.3328  -0.3028  -0.2726   0.0578   0.1546   0.1896   0.3606   0.4203
     0.5202   0.6477   0.7440   0.8374   0.8570   0.8863   0.9115   1.0260
     1.0293   1.2016   1.2771   1.2866   1.3255   1.3514   1.4118   1.4493
     1.4730   1.5241   1.5405   1.5631   1.6193   1.6436   1.6875   1.7146
     1.7435   1.7738   1.7773   1.7851   1.9241   1.9329   2.2215   2.4224
     3.0527   3.0641   3.3362   3.3442   3.4416   3.4885   3.7922   6.5849
     6.7204   6.7293   6.8013   7.6541   8.0461   8.4100   8.4313   8.5744
     8.7946   8.8313   9.0162   9.1168   9.1911   9.2249   9.3656   9.3991
     9.4294

          k = 0.2500 0.3960 0.0000 ( 34116 PWs)   bands (ev):

   -36.6543 -35.5057 -22.5195 -22.4529 -22.3647 -22.2662 -17.8940 -17.7856
   -17.6382 -16.9057 -16.7736 -16.6993 -14.7520 -14.7494 -14.5928 -14.4136
   -14.3791 -14.3744 -14.3068 -14.2645 -14.1482 -14.0520 -14.0309 -13.9844
   -13.9760 -13.8847 -13.8030  -8.2922  -8.2363  -8.1168  -8.0250  -7.9190
    -7.8320  -7.8126  -7.7929  -7.7390  -7.7114  -7.5924  -7.5308  -3.4324
    -3.3869  -3.3007  -3.2361  -3.1349  -2.9000  -2.8965  -2.3856  -2.3573
    -2.2988  -2.1627  -2.0684  -1.9945  -1.9805  -1.8040  -1.7258  -1.6433
    -1.5715  -1.4947  -1.3797  -1.3340  -1.2098  -1.0974  -1.0383  -0.9233
    -0.9144  -0.7982  -0.7437  -0.7368  -0.7290  -0.7003  -0.6264  -0.5654
    -0.4752  -0.3783  -0.3546   0.1575   0.2334   0.2809   0.4214   0.5004
     0.6527   0.8438   0.8760   1.0422   1.0462   1.0607   1.0817   1.3023
     1.3205   1.3297   1.3607   1.3905   1.4574   1.4807   1.5580   1.6026
     1.6102   1.6585   1.6929   1.7623   1.7795   1.8045   1.8445   1.8745
     1.9555   1.9869   2.1067   2.1322   2.1578   2.3229   2.3281   2.4799
     2.8847   2.8970   3.5577   3.5677   3.6811   3.7248   4.2855   6.5287
     6.8117   6.9325   7.0472   7.8174   8.2259   8.6992   8.8380   8.8840
     9.0447   9.0946   9.1878   9.3592   9.4212   9.7451   9.8228   9.9058
     9.9288

          k = 0.2500-0.5279 0.0000 ( 34148 PWs)   bands (ev):

   -36.6528 -35.5039 -22.4940 -22.4273 -22.3403 -22.2418 -17.9231 -17.7820
   -17.6259 -16.9559 -16.7681 -16.6598 -14.7487 -14.7343 -14.4338 -14.4233
   -14.2976 -14.2914 -14.2876 -14.2032 -14.1583 -14.0939 -14.0682 -14.0014
   -13.9992 -13.9429 -13.7975  -8.2923  -8.2371  -8.1347  -8.0330  -8.0071
    -7.9460  -7.8789  -7.8364  -7.7962  -7.7783  -7.6401  -7.6217  -3.6526
    -3.6083  -3.5196  -3.4351  -3.3289  -3.1276  -3.1246  -2.3929  -2.3692
    -2.3030  -2.1055  -2.0308  -1.9676  -1.9425  -1.9325  -1.8815  -1.7706
    -1.7227  -1.5439  -1.4106  -1.3543  -1.2742  -1.1800  -1.1319  -0.9961
    -0.9612  -0.8742  -0.8230  -0.8013  -0.7492  -0.7181  -0.6297  -0.5817
    -0.4885  -0.4041  -0.3836   0.1744   0.2680   0.3135   0.4467   0.5410
     0.6867   0.9003   0.9809   1.0797   1.1047   1.1468   1.1639   1.2613
     1.2686   1.3177   1.4044   1.4366   1.5096   1.5635   1.5648   1.6056
     1.6200   1.7789   1.8099   1.8201   1.9427   1.9773   2.0313   2.0593
     2.0872   2.1069   2.1433   2.2750   2.3201   2.4986   2.5038   2.5225
     2.6633   2.6779   3.5750   3.5882   3.7081   3.7597   4.4264   6.4480
     6.7840   6.8970   7.0335   7.7863   8.5085   8.7787   8.9549   8.9667
     9.2602   9.3675   9.4643   9.5842   9.6330   9.7150   9.9103   9.9426
    10.0334

          k = 0.3750 0.0000 0.0000 ( 34140 PWs)   bands (ev):

   -36.6612 -35.5136 -22.6170 -22.5505 -22.4586 -22.3601 -17.8793 -17.7035
   -17.6799 -16.9555 -16.8105 -16.5517 -14.9851 -14.9805 -14.9586 -14.7715
   -14.5917 -14.5868 -14.5357 -14.2146 -14.1499 -14.1364 -14.0851 -13.9648
   -13.9601 -13.8504 -13.6924  -7.8708  -7.8636  -7.7646  -7.6347  -7.6053
    -7.5481  -7.4281  -7.4078  -7.3682  -7.3143  -7.2543  -7.1564  -2.8273
    -2.7799  -2.7288  -2.6431  -2.2656  -2.2456  -2.1469  -1.6383  -1.5986
    -1.5160  -1.4626  -1.4371  -1.4013  -1.2884  -1.1973  -1.1501  -1.1500
    -1.1301  -1.0856  -0.9851  -0.9526  -0.9140  -0.8317  -0.8245  -0.8152
    -0.7706  -0.6646  -0.6510  -0.5399  -0.4261  -0.3761  -0.3518  -0.1987
    -0.1708  -0.1652  -0.1241  -0.0420   0.1314   0.1326   0.2366   0.2535
     0.2967   0.4376   0.4691   0.4809   0.4915   0.4977   0.5175   0.5496
     0.6064   0.8159   0.8989   0.9258   1.0237   1.1926   1.2500   1.2583
     1.2969   1.3248   1.4083   1.4167   1.5518   1.5787   1.5956   1.7019
     1.7166   1.7178   1.8120   1.8729   1.8775   1.9858   2.0381   2.1767
     2.2135   2.3009   2.4195   2.5968   2.6790   2.8580   2.8702   6.5701
     6.5800   6.8749   6.9112   7.8367   7.9663   8.0652   8.0953   8.5420
     8.5724   8.6944   8.7642   8.9766   9.0561   9.3885   9.4376   9.5294
     9.5605

          k = 0.3750 0.1320 0.0000 ( 34185 PWs)   bands (ev):

   -36.6597 -35.5118 -22.5953 -22.5288 -22.4376 -22.3391 -17.8747 -17.7336
   -17.6711 -16.9469 -16.7813 -16.6162 -14.9362 -14.9316 -14.8910 -14.7249
   -14.5469 -14.5458 -14.4752 -14.2070 -14.1219 -14.1153 -14.0619 -13.9717
   -13.9485 -13.8846 -13.7022  -7.9235  -7.8884  -7.8411  -7.7686  -7.6914
    -7.6696  -7.5901  -7.5178  -7.4938  -7.4600  -7.3427  -7.2496  -2.8890
    -2.8426  -2.7677  -2.6870  -2.2645  -2.2421  -2.1539  -1.9960  -1.9776
    -1.8176  -1.8024  -1.6365  -1.5511  -1.5508  -1.4163  -1.3805  -1.3582
    -1.2474  -1.2395  -1.1476  -1.1293  -1.1000  -0.9983  -0.8578  -0.7327
    -0.7262  -0.6213  -0.5699  -0.5011  -0.4611  -0.3513  -0.3469  -0.2154
    -0.2030  -0.1459   0.0077   0.0498   0.1034   0.1550   0.2444   0.2452
     0.2945   0.3051   0.5045   0.5076   0.5426   0.6906   0.7343   0.8195
     0.8572   0.9534   1.0317   1.1069   1.1997   1.2268   1.2489   1.2986
     1.3508   1.3865   1.4253   1.4313   1.5690   1.6045   1.6350   1.6813
     1.7258   1.7822   1.8034   1.8560   1.8610   1.9498   1.9671   2.3849
     2.8086   2.8260   2.9269   3.0038   3.0618   3.1420   3.2144   6.7187
     6.7250   6.7601   6.9550   7.8653   7.8840   8.1306   8.1541   8.5640
     8.6252   8.9022   8.9851   9.0637   9.1733   9.3439   9.4182   9.5635
     9.6127

          k = 0.3750 0.2640 0.0000 ( 34193 PWs)   bands (ev):

   -36.6560 -35.5075 -22.5420 -22.4754 -22.3860 -22.2876 -17.8642 -17.8091
   -17.6436 -16.9266 -16.7606 -16.7062 -14.8111 -14.8091 -14.7075 -14.5986
   -14.4501 -14.4343 -14.3261 -14.2101 -14.0816 -14.0690 -14.0487 -13.9941
   -13.9256 -13.8957 -13.7463  -8.2249  -8.1667  -8.0497  -7.9584  -7.9034
    -7.8186  -7.7881  -7.7810  -7.7081  -7.6747  -7.5878  -7.5186  -3.2049
    -3.1584  -2.9941  -2.9268  -2.5546  -2.4361  -2.3941  -2.3697  -2.3161
    -2.3024  -2.2896  -2.1853  -2.1746  -2.1360  -1.7370  -1.7118  -1.5637
    -1.5278  -1.4787  -1.1912  -1.1487  -1.0209  -0.9199  -0.8636  -0.8297
    -0.8114  -0.7686  -0.7290  -0.6735  -0.5860  -0.5831  -0.5684  -0.5282
    -0.4203  -0.3119  -0.3073   0.1045   0.1933   0.3249   0.4733   0.5253
     0.6564   0.7601   0.8178   0.8888   0.8939   1.0709   1.0776   1.0946
     1.2070   1.2444   1.2909   1.3283   1.4237   1.4720   1.4835   1.5119
     1.5931   1.6439   1.6936   1.6954   1.7145   1.7705   1.7977   1.8136
     1.8278   1.8438   1.8807   1.8949   1.9069   2.0620   2.1921   2.3614
     3.0538   3.0619   3.7354   3.7880   3.8252   3.8636   3.9267   6.3963
     6.7282   6.7650   6.8864   7.7078   7.9955   8.4706   8.4711   8.8425
     8.9048   9.1163   9.2910   9.3339   9.4824   9.5548   9.5940   9.7226
     9.7888

          k = 0.3750 0.3960 0.0000 ( 34177 PWs)   bands (ev):

   -36.6523 -35.5031 -22.4874 -22.4207 -22.3332 -22.2348 -17.8871 -17.8497
   -17.6148 -16.9092 -16.8874 -16.6264 -14.6742 -14.6700 -14.5072 -14.4019
   -14.3548 -14.3211 -14.2499 -14.1684 -14.1619 -14.0477 -14.0148 -13.9950
   -13.9208 -13.8559 -13.8118  -8.4906  -8.4347  -8.3157  -8.2217  -8.1557
    -8.1010  -7.9642  -7.9059  -7.8622  -7.8014  -7.7948  -7.6477  -3.6849
    -3.6263  -3.4422  -3.3792  -3.2669  -2.8793  -2.8769  -2.5662  -2.5150
    -2.4900  -2.4050  -2.2139  -2.1925  -2.1415  -2.0418  -2.0192  -1.7986
    -1.7749  -1.5733  -1.2036  -1.1436  -1.1369  -1.1338  -1.0787  -0.8958
    -0.8932  -0.8801  -0.8513  -0.8009  -0.7842  -0.7532  -0.7271  -0.6285
    -0.5480  -0.3304  -0.3244   0.2420   0.3424   0.3827   0.6431   0.7322
     0.9131   1.0669   1.0992   1.2227   1.2315   1.2943   1.3560   1.4144
     1.4248   1.4702   1.5489   1.5521   1.5709   1.5891   1.6525   1.7493
     1.8054   1.8334   1.8375   1.8804   1.9086   1.9492   1.9874   2.0307
     2.0655   2.0881   2.1531   2.2420   2.2443   2.2508   2.4019   2.4962
     2.8746   2.8838   4.1829   4.2909   4.3290   4.3699   4.4023   5.9690
     6.4415   6.4618   6.6570   7.4426   8.4660   8.8056   8.9869   9.0361
     9.0868   9.3365   9.3987   9.4761   9.5647   9.5682   9.6179   9.6915
     9.7669

          k = 0.3750-0.5279 0.0000 ( 34192 PWs)   bands (ev):

   -36.6508 -35.5014 -22.4643 -22.3977 -22.3109 -22.2126 -17.9163 -17.8462
   -17.6025 -16.9425 -16.8967 -16.5910 -14.6129 -14.6032 -14.4132 -14.3319
   -14.3029 -14.2779 -14.2175 -14.2013 -14.0799 -14.0448 -14.0144 -13.9934
   -13.9914 -13.8960 -13.7806  -8.5727  -8.5172  -8.4099  -8.3099  -8.3008
    -8.2478  -8.1198  -7.9350  -7.9317  -7.8500  -7.8247  -7.6631  -3.8920
    -3.8292  -3.6508  -3.5989  -3.5082  -3.1045  -3.1026  -2.5848  -2.5326
    -2.5013  -2.4154  -2.2082  -2.1862  -2.1469  -2.1403  -2.1240  -1.8939
    -1.8565  -1.5954  -1.2775  -1.2357  -1.2162  -1.1698  -1.1365  -0.9693
    -0.9259  -0.8928  -0.8887  -0.8776  -0.8450  -0.8153  -0.7858  -0.6536
    -0.5161  -0.3161  -0.3105   0.2750   0.3759   0.4011   0.7044   0.8278
     0.9967   1.1987   1.2565   1.3320   1.3581   1.3653   1.3806   1.4168
     1.4496   1.5460   1.5970   1.6288   1.6736   1.7382   1.8048   1.8330
     1.8538   1.8725   1.9073   1.9801   2.0524   2.0949   2.1036   2.1270
     2.2068   2.2418   2.3064   2.3544   2.4289   2.4352   2.5626   2.5781
     2.6312   2.6424   4.2698   4.4267   4.4826   4.5177   4.5497   5.7776
     6.2745   6.2840   6.5808   7.3511   8.7435   8.7775   8.9634   9.0247
     9.1979   9.3525   9.3690   9.4387   9.5179   9.6809   9.8244   9.8494
     9.9105

          k =-0.5000 0.0000 0.0000 ( 34130 PWs)   bands (ev):

   -36.6604 -35.5125 -22.5979 -22.5312 -22.4404 -22.3419 -17.9037 -17.6928
   -17.6788 -17.0080 -16.7683 -16.5504 -15.0382 -15.0301 -14.9943 -14.7041
   -14.6001 -14.4948 -14.3245 -14.2907 -14.2551 -14.1340 -14.1323 -14.0307
   -14.0074 -13.8626 -13.7063  -7.8710  -7.8548  -7.7497  -7.6160  -7.5822
    -7.5291  -7.3928  -7.3920  -7.3317  -7.3026  -7.2210  -7.1227  -2.9692
    -2.9173  -2.8695  -2.7873  -2.2906  -2.2769  -2.1456  -1.5875  -1.5603
    -1.5510  -1.5303  -1.3237  -1.3133  -1.3113  -1.3080  -1.1676  -1.1605
    -1.1540  -1.1535  -1.1100  -1.0689  -1.0179  -0.9288  -0.9263  -0.8375
    -0.7918  -0.7481  -0.7354  -0.6090  -0.4439  -0.4405  -0.4034  -0.2123
    -0.1639  -0.1514  -0.1283  -0.1219   0.1261   0.1273   0.2038   0.2514
     0.2804   0.4415   0.4687   0.4688   0.4694   0.4944   0.5144   0.5470
     0.6117   0.8329   0.8898   0.9126   0.9719   1.1997   1.2082   1.2642
     1.4272   1.4344   1.4630   1.4923   1.5409   1.6548   1.6571   1.6926
     1.7196   1.7272   1.8203   1.8860   1.9357   2.0232   2.0233   2.1927
     2.2216   2.2896   2.4242   2.5963   2.6984   2.8765   2.9066   7.0141
     7.3427   7.3705   7.3773   7.3948   7.4710   7.6585   8.3372   8.5198
     8.6122   8.9391   9.1109   9.1716   9.3006   9.4426   9.5220   9.5688
     9.6419

          k =-0.5000 0.1320 0.0000 ( 34202 PWs)   bands (ev):

   -36.6588 -35.5107 -22.5771 -22.5104 -22.4202 -22.3218 -17.8990 -17.7304
   -17.6625 -16.9987 -16.7407 -16.6141 -14.9799 -14.9725 -14.9215 -14.6600
   -14.5602 -14.4557 -14.2837 -14.2760 -14.1972 -14.1118 -14.1103 -14.0350
   -13.9763 -13.9000 -13.7095  -7.8949  -7.8847  -7.7938  -7.7116  -7.6589
    -7.6410  -7.5949  -7.5308  -7.5175  -7.4356  -7.4201  -7.3353  -3.0374
    -2.9874  -2.9150  -2.8390  -2.2956  -2.2795  -2.1640  -1.9602  -1.9417
    -1.7747  -1.7468  -1.6275  -1.5458  -1.5457  -1.4483  -1.4400  -1.4227
    -1.3619  -1.3171  -1.2371  -1.2266  -1.1522  -1.0199  -0.8731  -0.8038
    -0.7947  -0.6324  -0.5820  -0.5388  -0.4789  -0.3876  -0.3838  -0.2267
    -0.2230  -0.1845  -0.0068   0.0511   0.1133   0.1554   0.2461   0.2473
     0.2944   0.3990   0.4112   0.5802   0.5811   0.6494   0.7000   0.7564
     0.8394   0.9535   1.0498   1.1043   1.1506   1.2346   1.2476   1.3451
     1.3523   1.3815   1.4835   1.5176   1.6249   1.6855   1.6960   1.7129
     1.7843   1.8052   1.8119   1.8609   1.9431   1.9874   2.0468   2.3596
     2.8151   2.8216   2.9413   3.0222   3.0792   3.1820   3.2678   6.8083
     7.1904   7.2192   7.2873   7.6280   7.6976   7.7417   8.2423   8.5451
     8.7160   9.0212   9.3274   9.3609   9.4016   9.4663   9.6228   9.7134
     9.7742

          k =-0.5000 0.2640 0.0000 ( 34216 PWs)   bands (ev):

   -36.6552 -35.5064 -22.5261 -22.4594 -22.3707 -22.2723 -17.8878 -17.8085
   -17.6335 -16.9767 -16.7573 -16.6697 -14.8280 -14.8205 -14.7199 -14.5481
   -14.4647 -14.3637 -14.2513 -14.1809 -14.1002 -14.0599 -14.0596 -14.0410
   -13.9667 -13.9001 -13.7404  -8.1637  -8.0999  -8.0128  -8.0114  -7.9607
    -7.8964  -7.8444  -7.8181  -7.7898  -7.7445  -7.6847  -7.6012  -3.3430
    -3.2962  -3.1309  -3.0719  -2.5456  -2.4615  -2.4184  -2.3916  -2.3291
    -2.3115  -2.3054  -2.1931  -2.1862  -2.1425  -1.8608  -1.8291  -1.6320
    -1.6027  -1.5564  -1.1137  -1.0587  -0.9753  -0.9031  -0.8972  -0.8603
    -0.8514  -0.8011  -0.7622  -0.6979  -0.6086  -0.6058  -0.5722  -0.5567
    -0.4243  -0.3290  -0.3194   0.1228   0.2074   0.3677   0.5324   0.5686
     0.7039   0.7995   0.8838   0.9179   0.9188   1.1254   1.1559   1.1632
     1.2160   1.2434   1.2564   1.2653   1.4430   1.4917   1.5349   1.5730
     1.6430   1.6541   1.7308   1.7500   1.7657   1.7903   1.8272   1.8543
     1.8843   1.9149   1.9328   1.9774   2.0075   2.0454   2.2012   2.3043
     3.0470   3.0542   3.7582   3.9277   3.9395   3.9908   4.0569   6.2871
     6.7605   6.7783   6.8127   7.6409   8.0727   8.4608   8.5083   8.9194
     9.0794   9.1750   9.2858   9.4523   9.6549   9.6823   9.7394   9.8918
     9.9570

          k =-0.5000 0.3960 0.0000 ( 34176 PWs)   bands (ev):

   -36.6515 -35.5021 -22.4739 -22.4072 -22.3200 -22.2217 -17.8832 -17.8767
   -17.6048 -16.9551 -16.8864 -16.5941 -14.6450 -14.6376 -14.4818 -14.4091
   -14.3656 -14.2851 -14.2452 -14.1546 -14.0724 -14.0382 -14.0115 -14.0094
   -13.9068 -13.8474 -13.8191  -8.5388  -8.4822  -8.3709  -8.3008  -8.2709
    -8.2490  -8.1168  -7.9261  -7.9225  -7.8819  -7.8158  -7.6527  -3.8150
    -3.7572  -3.5549  -3.4944  -3.2677  -2.8708  -2.8688  -2.6360  -2.5872
    -2.5542  -2.4754  -2.2302  -2.2168  -2.1545  -2.1506  -2.1020  -1.8758
    -1.8099  -1.6244  -1.1688  -1.1453  -1.1274  -1.0414  -1.0113  -0.9811
    -0.9381  -0.8767  -0.8557  -0.8436  -0.8214  -0.8000  -0.7158  -0.7039
    -0.5272  -0.2923  -0.2866   0.2672   0.3662   0.4367   0.7492   0.8292
     1.0193   1.1786   1.1803   1.3396   1.3474   1.3697   1.3890   1.4510
     1.4679   1.4813   1.6031   1.6270   1.6282   1.6401   1.6640   1.7976
     1.8114   1.8825   1.9210   1.9267   1.9884   1.9915   2.0574   2.0720
     2.1234   2.1398   2.2113   2.2141   2.2786   2.3479   2.4435   2.5317
     2.8627   2.8707   4.1874   4.5409   4.5771   4.6237   4.6460   5.7509
     6.2656   6.2733   6.5145   7.2921   8.6188   8.6785   8.9888   8.9938
     9.1442   9.3156   9.3417   9.5048   9.5856   9.7019   9.7050   9.7309
     9.8164

          k =-0.5000-0.5279 0.0000 ( 34236 PWs)   bands (ev):

   -36.6500 -35.5003 -22.4519 -22.3852 -22.2987 -22.2004 -17.9135 -17.8721
   -17.5928 -16.9463 -16.9371 -16.5606 -14.5473 -14.5419 -14.4145 -14.3723
   -14.2675 -14.2484 -14.1999 -14.1998 -14.0345 -14.0288 -13.9877 -13.9876
   -13.9756 -13.8665 -13.7901  -8.6848  -8.6292  -8.5216  -8.4218  -8.4169
    -8.3651  -8.2400  -8.0197  -7.9506  -7.8993  -7.8422  -7.6697  -4.0236
    -3.9604  -3.7587  -3.6976  -3.5298  -3.0950  -3.0935  -2.6684  -2.6188
    -2.5789  -2.5020  -2.2442  -2.2203  -2.2070  -2.1875  -2.1543  -1.9544
    -1.8775  -1.6459  -1.2830  -1.2603  -1.1758  -1.1049  -1.0756  -0.9604
    -0.9563  -0.9162  -0.9135  -0.9133  -0.8950  -0.8705  -0.8164  -0.7332
    -0.4841  -0.2635  -0.2592   0.3041   0.4024   0.4525   0.8294   0.9607
     1.1361   1.2744   1.4121   1.4291   1.4423   1.4456   1.4505   1.4685
     1.5048   1.6045   1.6231   1.6640   1.7014   1.7326   1.8895   1.9149
     1.9531   1.9942   2.0140   2.0531   2.1207   2.1259   2.1384   2.1899
     2.2254   2.2710   2.4050   2.4065   2.4499   2.4960   2.6065   2.6145
     2.6171   2.6999   4.2711   4.7306   4.7820   4.8324   4.8482   5.5190
     6.0385   6.0429   6.4388   7.1874   8.6912   8.7668   8.9983   9.0800
     9.0940   9.1626   9.1716   9.2995   9.4344   9.6370   9.6556   9.8617
    10.0524

     the Fermi energy is     2.6336 ev

!    total energy              =   -1842.86578964 Ry
     Harris-Foulkes estimate   =   -1842.86578964 Ry
     estimated scf accuracy    <          9.4E-11 Ry

     The total energy is the sum of the following terms:

     one-electron contribution =  -30459.08527346 Ry
     hartree contribution      =   15382.82775399 Ry
     xc contribution           =    -621.68867053 Ry
     ewald contribution        =   13855.08869034 Ry
     smearing contrib. (-TS)   =      -0.00828998 Ry

     convergence has been achieved in  37 iterations

     negative rho (up, down):  1.506E-03 0.000E+00

     Forces acting on atoms (cartesian axes, Ry/au):

     atom    1 type  4   force =     0.00000000    0.00000000   -0.00016053
     atom    2 type  3   force =     0.00000000    0.00000000    0.00038413
     atom    3 type  4   force =     0.00000000    0.00000000   -0.00076549
     atom    4 type  1   force =     0.00000000    0.00000000   -0.00028813
     atom    5 type  3   force =     0.00000000    0.00000000    0.00054006
     atom    6 type  4   force =     0.00000000    0.00000000   -0.00001453
     atom    7 type  4   force =     0.00000000    0.00000000    0.00033880
     atom    8 type  2   force =     0.00000000    0.00000000   -0.00059667
     atom    9 type  4   force =     0.00000000    0.00000000    0.00021826
     atom   10 type  4   force =     0.00000000    0.00000000    0.00020095
     atom   11 type  3   force =     0.00000000    0.00000000    0.00024350
     atom   12 type  1   force =     0.00000000    0.00000000    0.00019669
     atom   13 type  4   force =     0.00000000    0.00000000    0.00170592
     atom   14 type  4   force =     0.00000000    0.00000000    0.00108121
     atom   15 type  3   force =     0.00000000    0.00000000   -0.00173505
     atom   16 type  4   force =     0.00000000    0.00000000    0.00004295
     atom   17 type  1   force =     0.00000000    0.00000000   -0.00608919
     atom   18 type  3   force =     0.00000000    0.00000000    0.00082273
     atom   19 type  4   force =     0.00000000    0.00000000    0.02239365
     atom   20 type  4   force =     0.00000000    0.00000000    0.02539997
     atom   21 type  2   force =     0.00000000    0.00000000    0.01976610
     atom   22 type  4   force =     0.00000000    0.00000000   -0.02233877
     atom   23 type  4   force =     0.00000000    0.00000000   -0.01920009
     atom   24 type  3   force =     0.00000000    0.00000000   -0.01012135
     atom   25 type  1   force =     0.00000000    0.00000000   -0.01228989
     atom   26 type  4   force =     0.00000000    0.00000000    0.00054781
     atom   27 type  3   force =     0.00000000    0.00000000   -0.00038906
     atom   28 type  4   force =     0.00000000    0.00000000    0.00010603

     Total force =     0.050450     Total SCF correction =     0.000033


     Computing stress (Cartesian axis) and pressure


     negative rho (up, down):  1.506E-03 0.000E+00
          total   stress  (Ry/bohr**3)                   (kbar)     P=       -5.44
  -0.00001155   0.00000000   0.00000000           -1.70        0.00        0.00
   0.00000000  -0.00000211   0.00000000            0.00       -0.31        0.00
   0.00000000   0.00000000  -0.00009725            0.00        0.00      -14.31


     number of scf cycles    =   3
     number of bfgs steps    =   1

     energy   old            =   -1842.8869342713 Ry
     energy   new            =   -1842.8657896393 Ry

     CASE: energy  _new > energy  _old

     new trust radius        =       0.1879604471 bohr
     new conv_thr            =            1.0E-10 Ry


ATOMIC_POSITIONS (angstrom)
O             0.0000000000        1.8611200000       -0.1853754885    0   0   0
Cu            0.0000000000        0.0000000000        0.1044054994    0   0   0
O             0.0000000000        0.0000000000        1.9853511992    0   0   0
Ba            1.9651100000        1.8611200000        2.2455616739    0   0   0
Cu            0.0000000000        0.0000000000        4.0939948706    0   0   0
O             1.9651100000        0.0000000000        4.2494182910    0   0   0
O             0.0000000000        1.8611200000        4.3870994034    0   0   0
Ca            1.9651100000        1.8611200000        5.9100862599    0   0   0
O             0.0000000000        1.8611200000        7.3667729133    0   0   0
O             1.9651100000        0.0000000000        7.5153885890    0   0   0
Cu            0.0000000000        0.0000000000        7.7002419496    0   0   0
Ba            1.9651100000        1.8611200000        9.5878447802    0   0   0
O             0.0000000000        0.0000000000        9.9112829361    0   0   0
O             0.0000000000        1.8611200000       11.8067578490    0   0   0
Cu            0.0000000000        0.0000000000       11.8069787493    0   0   0
O             0.0000000000        0.0000000000       13.8830040175
Ba            1.9651100000        1.8611200000       14.2064120507
Cu            0.0000000000        0.0000000000       16.0939445948
O             1.9651100000        0.0000000000       16.2787979554
O             0.0000000000        1.8611200000       16.4273935493
Ca            1.9651100000        1.8611200000       17.8841203663
O             0.0000000000        1.8611200000       19.5483839261
O             1.9651100000        0.0000000000       19.6860650386
Cu            0.0000000000        0.0000000000       19.8414984998
Ba            1.9651100000        1.8611200000       21.6899216556    0   0   0
O             0.0000000000        0.0000000000       21.9500919667    0   0   0
Cu            0.0000000000        0.0000000000       23.8310577483    0   0   0
O             0.0000000000        1.8611200000       24.1207885316    0   0   0


     NEW-OLD atomic charge density approx. for the potential

     negative rho (up, down):  8.609E-03 0.000E+00

     total cpu time spent up to now is      639.0 secs

     Self-consistent Calculation

     iteration #  1     ecut=    60.00 Ry     beta= 0.70
     Davidson diagonalization with overlap
     c_bands:  1 eigenvalues not converged
     c_bands:  3 eigenvalues not converged
     c_bands:  1 eigenvalues not converged
     c_bands:  5 eigenvalues not converged
     c_bands:  1 eigenvalues not converged
     c_bands:  2 eigenvalues not converged
     c_bands:  3 eigenvalues not converged
     c_bands:  1 eigenvalues not converged
     c_bands:  1 eigenvalues not converged
     c_bands:  1 eigenvalues not converged
     c_bands:  3 eigenvalues not converged
     c_bands:  3 eigenvalues not converged
     c_bands:  1 eigenvalues not converged
     ethr =  1.00E-06,  avg # of iterations = 16.9

     negative rho (up, down):  3.206E-03 0.000E+00

     total cpu time spent up to now is      698.3 secs

     total energy              =   -1842.85081302 Ry
     Harris-Foulkes estimate   =   -1842.91697306 Ry
     estimated scf accuracy    <       1.19504313 Ry

     iteration #  2     ecut=    60.00 Ry     beta= 0.70
     Davidson diagonalization with overlap
     ethr =  5.26E-04,  avg # of iterations =  1.0

     negative rho (up, down):  2.667E-03 0.000E+00

     total cpu time spent up to now is      712.1 secs

     total energy              =   -1842.81412057 Ry
     Harris-Foulkes estimate   =   -1842.93654203 Ry
     estimated scf accuracy    <       1.06126374 Ry

     iteration #  3     ecut=    60.00 Ry     beta= 0.70
     Davidson diagonalization with overlap
     ethr =  4.68E-04,  avg # of iterations =  1.9

     negative rho (up, down):  2.063E-03 0.000E+00

     total cpu time spent up to now is      726.9 secs

     total energy              =   -1842.87993869 Ry
     Harris-Foulkes estimate   =   -1842.91807478 Ry
     estimated scf accuracy    <       0.68615122 Ry

     iteration #  4     ecut=    60.00 Ry     beta= 0.70
     Davidson diagonalization with overlap
     ethr =  3.02E-04,  avg # of iterations =  1.0

     negative rho (up, down):  1.706E-03 0.000E+00

     total cpu time spent up to now is      740.6 secs

     total energy              =   -1842.88525664 Ry
     Harris-Foulkes estimate   =   -1842.89786965 Ry
     estimated scf accuracy    <       0.77726846 Ry

     iteration #  5     ecut=    60.00 Ry     beta= 0.70
     Davidson diagonalization with overlap
     ethr =  3.02E-04,  avg # of iterations =  1.0

     negative rho (up, down):  1.640E-03 0.000E+00

     total cpu time spent up to now is      754.4 secs

     total energy              =   -1842.88484765 Ry
     Harris-Foulkes estimate   =   -1842.89127487 Ry
     estimated scf accuracy    <       0.11322729 Ry

     iteration #  6     ecut=    60.00 Ry     beta= 0.70
     Davidson diagonalization with overlap
     ethr =  4.99E-05,  avg # of iterations = 10.6

     negative rho (up, down):  1.471E-03 0.000E+00

     total cpu time spent up to now is      779.3 secs

     total energy              =   -1842.88821477 Ry
     Harris-Foulkes estimate   =   -1842.88963668 Ry
     estimated scf accuracy    <       0.12643469 Ry

     iteration #  7     ecut=    60.00 Ry     beta= 0.70
     Davidson diagonalization with overlap
     ethr =  4.99E-05,  avg # of iterations =  1.2

     negative rho (up, down):  1.162E-03 0.000E+00

     total cpu time spent up to now is      793.2 secs

     total energy              =   -1842.88802683 Ry
     Harris-Foulkes estimate   =   -1842.88886668 Ry
     estimated scf accuracy    <       0.03940545 Ry

     iteration #  8     ecut=    60.00 Ry     beta= 0.70
     Davidson diagonalization with overlap
     ethr =  1.74E-05,  avg # of iterations =  6.0

     negative rho (up, down):  1.026E-03 0.000E+00

     total cpu time spent up to now is      812.2 secs

     total energy              =   -1842.88775371 Ry
     Harris-Foulkes estimate   =   -1842.88846986 Ry
     estimated scf accuracy    <       0.03804162 Ry

     iteration #  9     ecut=    60.00 Ry     beta= 0.70
     Davidson diagonalization with overlap
     ethr =  1.68E-05,  avg # of iterations =  1.3

     negative rho (up, down):  9.989E-04 0.000E+00

     total cpu time spent up to now is      826.2 secs

     total energy              =   -1842.88789903 Ry
     Harris-Foulkes estimate   =   -1842.88811481 Ry
     estimated scf accuracy    <       0.00826566 Ry

     iteration # 10     ecut=    60.00 Ry     beta= 0.70
     Davidson diagonalization with overlap
     c_bands:  1 eigenvalues not converged
     ethr =  3.64E-06,  avg # of iterations =  9.6

     negative rho (up, down):  9.962E-04 0.000E+00

     total cpu time spent up to now is      850.2 secs

     total energy              =   -1842.88798303 Ry
     Harris-Foulkes estimate   =   -1842.88801058 Ry
     estimated scf accuracy    <       0.00314295 Ry

     iteration # 11     ecut=    60.00 Ry     beta= 0.70
     Davidson diagonalization with overlap
     ethr =  1.38E-06,  avg # of iterations =  1.6

     negative rho (up, down):  1.030E-03 0.000E+00

     total cpu time spent up to now is      864.8 secs

     total energy              =   -1842.88798121 Ry
     Harris-Foulkes estimate   =   -1842.88800283 Ry
     estimated scf accuracy    <       0.00144781 Ry

     iteration # 12     ecut=    60.00 Ry     beta= 0.70
     Davidson diagonalization with overlap
     ethr =  6.38E-07,  avg # of iterations =  1.0

     negative rho (up, down):  1.057E-03 0.000E+00

     total cpu time spent up to now is      878.8 secs

     total energy              =   -1842.88798874 Ry
     Harris-Foulkes estimate   =   -1842.88799830 Ry
     estimated scf accuracy    <       0.00203187 Ry

     iteration # 13     ecut=    60.00 Ry     beta= 0.70
     Davidson diagonalization with overlap
     ethr =  6.38E-07,  avg # of iterations =  1.0

     negative rho (up, down):  1.108E-03 0.000E+00

     total cpu time spent up to now is      892.7 secs

     total energy              =   -1842.88798403 Ry
     Harris-Foulkes estimate   =   -1842.88799252 Ry
     estimated scf accuracy    <       0.00102455 Ry

     iteration # 14     ecut=    60.00 Ry     beta= 0.70
     Davidson diagonalization with overlap
     ethr =  4.51E-07,  avg # of iterations =  1.0

     negative rho (up, down):  1.177E-03 0.000E+00

     total cpu time spent up to now is      906.9 secs

     total energy              =   -1842.88798040 Ry
     Harris-Foulkes estimate   =   -1842.88798756 Ry
     estimated scf accuracy    <       0.00065506 Ry

     iteration # 15     ecut=    60.00 Ry     beta= 0.70
     Davidson diagonalization with overlap
     ethr =  2.89E-07,  avg # of iterations =  1.0

     negative rho (up, down):  1.193E-03 0.000E+00

     total cpu time spent up to now is      920.8 secs

     total energy              =   -1842.88798159 Ry
     Harris-Foulkes estimate   =   -1842.88798395 Ry
     estimated scf accuracy    <       0.00012806 Ry

     iteration # 16     ecut=    60.00 Ry     beta= 0.70
     Davidson diagonalization with overlap
     ethr =  5.64E-08,  avg # of iterations =  1.1

     negative rho (up, down):  1.244E-03 0.000E+00

     total cpu time spent up to now is      934.6 secs

     total energy              =   -1842.88798215 Ry
     Harris-Foulkes estimate   =   -1842.88798281 Ry
     estimated scf accuracy    <       0.00003306 Ry

     iteration # 17     ecut=    60.00 Ry     beta= 0.70
     Davidson diagonalization with overlap
     ethr =  1.46E-08,  avg # of iterations =  1.0

     negative rho (up, down):  1.299E-03 0.000E+00

     total cpu time spent up to now is      948.5 secs

     total energy              =   -1842.88798197 Ry
     Harris-Foulkes estimate   =   -1842.88798239 Ry
     estimated scf accuracy    <       0.00001561 Ry

     iteration # 18     ecut=    60.00 Ry     beta= 0.70
     Davidson diagonalization with overlap
     ethr =  6.88E-09,  avg # of iterations =  1.0

     negative rho (up, down):  1.304E-03 0.000E+00

     total cpu time spent up to now is      962.3 secs

     total energy              =   -1842.88798204 Ry
     Harris-Foulkes estimate   =   -1842.88798211 Ry
     estimated scf accuracy    <       0.00000969 Ry

     iteration # 19     ecut=    60.00 Ry     beta= 0.70
     Davidson diagonalization with overlap
     ethr =  4.27E-09,  avg # of iterations =  1.0

     negative rho (up, down):  1.341E-03 0.000E+00

     total cpu time spent up to now is      976.1 secs

     total energy              =   -1842.88798189 Ry
     Harris-Foulkes estimate   =   -1842.88798208 Ry
     estimated scf accuracy    <       0.00000678 Ry

     iteration # 20     ecut=    60.00 Ry     beta= 0.70
     Davidson diagonalization with overlap
     ethr =  2.99E-09,  avg # of iterations =  1.0

     negative rho (up, down):  1.395E-03 0.000E+00

     total cpu time spent up to now is      990.1 secs

     total energy              =   -1842.88798168 Ry
     Harris-Foulkes estimate   =   -1842.88798197 Ry
     estimated scf accuracy    <       0.00000512 Ry

     iteration # 21     ecut=    60.00 Ry     beta= 0.70
     Davidson diagonalization with overlap
     ethr =  2.26E-09,  avg # of iterations =  1.0

     negative rho (up, down):  1.483E-03 0.000E+00

     total cpu time spent up to now is     1004.0 secs

     total energy              =   -1842.88798145 Ry
     Harris-Foulkes estimate   =   -1842.88798174 Ry
     estimated scf accuracy    <       0.00000382 Ry

     iteration # 22     ecut=    60.00 Ry     beta= 0.70
     Davidson diagonalization with overlap
     ethr =  1.68E-09,  avg # of iterations =  1.0

     negative rho (up, down):  1.488E-03 0.000E+00

     total cpu time spent up to now is     1017.8 secs

     total energy              =   -1842.88798146 Ry
     Harris-Foulkes estimate   =   -1842.88798149 Ry
     estimated scf accuracy    <       0.00000185 Ry

     iteration # 23     ecut=    60.00 Ry     beta= 0.70
     Davidson diagonalization with overlap
     ethr =  8.15E-10,  avg # of iterations =  1.0

     negative rho (up, down):  1.550E-03 0.000E+00

     total cpu time spent up to now is     1031.6 secs

     total energy              =   -1842.88798133 Ry
     Harris-Foulkes estimate   =   -1842.88798147 Ry
     estimated scf accuracy    <       0.00000120 Ry

     iteration # 24     ecut=    60.00 Ry     beta= 0.70
     Davidson diagonalization with overlap
     ethr =  5.30E-10,  avg # of iterations =  1.0

     negative rho (up, down):  1.549E-03 0.000E+00

     total cpu time spent up to now is     1045.3 secs

     total energy              =   -1842.88798133 Ry
     Harris-Foulkes estimate   =   -1842.88798135 Ry
     estimated scf accuracy    <       0.00000045 Ry

     iteration # 25     ecut=    60.00 Ry     beta= 0.70
     Davidson diagonalization with overlap
     ethr =  1.97E-10,  avg # of iterations =  1.0

     negative rho (up, down):  1.570E-03 0.000E+00

     total cpu time spent up to now is     1059.2 secs

     total energy              =   -1842.88798130 Ry
     Harris-Foulkes estimate   =   -1842.88798134 Ry
     estimated scf accuracy    <       0.00000021 Ry

     iteration # 26     ecut=    60.00 Ry     beta= 0.70
     Davidson diagonalization with overlap
     ethr =  9.38E-11,  avg # of iterations =  1.1

     negative rho (up, down):  1.556E-03 0.000E+00

     total cpu time spent up to now is     1073.0 secs

     total energy              =   -1842.88798132 Ry
     Harris-Foulkes estimate   =   -1842.88798130 Ry
     estimated scf accuracy    <       0.00000010 Ry

     iteration # 27     ecut=    60.00 Ry     beta= 0.70
     Davidson diagonalization with overlap
     ethr =  4.38E-11,  avg # of iterations =  1.0

     negative rho (up, down):  1.566E-03 0.000E+00

     total cpu time spent up to now is     1086.7 secs

     total energy              =   -1842.88798131 Ry
     Harris-Foulkes estimate   =   -1842.88798132 Ry
     estimated scf accuracy    <       0.00000005 Ry

     iteration # 28     ecut=    60.00 Ry     beta= 0.70
     Davidson diagonalization with overlap
     ethr =  2.21E-11,  avg # of iterations =  1.0

     negative rho (up, down):  1.569E-03 0.000E+00

     total cpu time spent up to now is     1100.8 secs

     total energy              =   -1842.88798130 Ry
     Harris-Foulkes estimate   =   -1842.88798131 Ry
     estimated scf accuracy    <       0.00000002 Ry

     iteration # 29     ecut=    60.00 Ry     beta= 0.70
     Davidson diagonalization with overlap
     ethr =  6.78E-12,  avg # of iterations =  1.2

     negative rho (up, down):  1.571E-03 0.000E+00

     total cpu time spent up to now is     1114.7 secs

     total energy              =   -1842.88798130 Ry
     Harris-Foulkes estimate   =   -1842.88798130 Ry
     estimated scf accuracy    <          6.6E-09 Ry

     iteration # 30     ecut=    60.00 Ry     beta= 0.70
     Davidson diagonalization with overlap
     ethr =  2.89E-12,  avg # of iterations =  1.2

     negative rho (up, down):  1.573E-03 0.000E+00

     total cpu time spent up to now is     1128.7 secs

     total energy              =   -1842.88798130 Ry
     Harris-Foulkes estimate   =   -1842.88798130 Ry
     estimated scf accuracy    <          3.2E-09 Ry

     iteration # 31     ecut=    60.00 Ry     beta= 0.70
     Davidson diagonalization with overlap
     ethr =  1.41E-12,  avg # of iterations =  1.3

     negative rho (up, down):  1.574E-03 0.000E+00

     total cpu time spent up to now is     1142.8 secs

     total energy              =   -1842.88798130 Ry
     Harris-Foulkes estimate   =   -1842.88798130 Ry
     estimated scf accuracy    <          2.7E-09 Ry

     iteration # 32     ecut=    60.00 Ry     beta= 0.70
     Davidson diagonalization with overlap
     ethr =  1.19E-12,  avg # of iterations =  1.0

     negative rho (up, down):  1.573E-03 0.000E+00

     total cpu time spent up to now is     1156.3 secs

[...]

   -35.7181 -35.5780 -22.5765 -22.5735 -22.4837 -22.2611 -17.0717 -16.9646
   -16.9472 -16.8598 -16.8360 -16.7572 -14.7608 -14.7586 -14.4283 -14.4139
   -14.3821 -14.3435 -14.3022 -14.1810 -14.1783 -14.0746 -14.0676 -14.0130
   -13.9694 -13.8295 -13.6870  -8.3440  -8.3427  -8.2024  -8.0007  -7.9690
    -7.9607  -7.8665  -7.8635  -7.8562  -7.7647  -7.6360  -7.5197  -3.4528
    -3.4285  -3.2898  -3.1623  -3.1488  -2.9349  -2.9337  -2.3923  -2.3855
    -2.1709  -2.1277  -2.0765  -2.0670  -1.8790  -1.7718  -1.7555  -1.6762
    -1.5981  -1.4734  -1.4031  -1.3620  -1.1771  -1.1296  -1.0620  -0.8458
    -0.8178  -0.7962  -0.7700  -0.7663  -0.7581  -0.7523  -0.5069  -0.5000
    -0.4800  -0.3918  -0.3701   0.1423   0.2236   0.2688   0.4029   0.4552
     0.6916   0.8374   0.8859   0.9992   1.0009   1.0440   1.0528   1.2692
     1.2833   1.3030   1.3285   1.3444   1.3547   1.4674   1.5276   1.5550
     1.6044   1.6196   1.6690   1.7356   1.7541   1.8111   1.8304   1.8652
     1.9108   1.9498   1.9649   2.1095   2.1428   2.2803   2.2815   2.4657
     2.8255   2.8298   3.5246   3.5278   3.6598   3.6826   4.0755   6.6216
     6.8820   6.8869   7.6312   7.7500   8.7618   8.8047   8.8392   8.8714
     9.0893   9.1328   9.5904   9.6889   9.7032   9.7716   9.8156   9.9170
     9.9487

          k = 0.2500-0.5279 0.0000 ( 34148 PWs)   bands (ev):

   -35.7164 -35.5762 -22.5512 -22.5482 -22.4603 -22.2370 -17.1167 -17.0134
   -16.9420 -16.8307 -16.8267 -16.7192 -14.7523 -14.7517 -14.3469 -14.3398
   -14.3034 -14.2849 -14.2322 -14.1949 -14.1653 -14.0973 -14.0458 -14.0442
   -14.0397 -13.8673 -13.6974  -8.3446  -8.3439  -8.2269  -8.0579  -8.0544
    -8.0069  -7.9310  -7.9228  -7.9102  -7.8413  -7.6553  -7.6269  -3.6546
    -3.6276  -3.5538  -3.3528  -3.3456  -3.1623  -3.1610  -2.3942  -2.3881
    -2.1544  -2.0826  -2.0372  -2.0161  -1.9351  -1.9147  -1.8576  -1.8217
    -1.7358  -1.5059  -1.4306  -1.3971  -1.2477  -1.2140  -1.1582  -0.9271
    -0.8997  -0.8471  -0.8375  -0.8349  -0.7774  -0.7731  -0.5191  -0.5100
    -0.4694  -0.4177  -0.3999   0.1804   0.2582   0.2792   0.4235   0.4874
     0.7194   0.8899   1.0045   1.0677   1.0762   1.1024   1.1065   1.2203
     1.2250   1.3095   1.3715   1.4040   1.4606   1.5001   1.5179   1.5223
     1.6123   1.7316   1.7594   1.9164   1.9409   1.9754   2.0157   2.0191
     2.0568   2.0659   2.1089   2.1179   2.3118   2.4563   2.4575   2.5121
     2.6007   2.6069   3.5415   3.5479   3.6922   3.7159   4.1960   6.5403
     6.8444   6.8500   7.5826   7.7170   8.8106   8.8343   9.1341   9.2499
     9.5132   9.5341   9.6243   9.8133   9.8218   9.8721   9.9498  10.0447
    10.0868

          k = 0.3750 0.0000 0.0000 ( 34140 PWs)   bands (ev):

   -35.7257 -35.5858 -22.6734 -22.6702 -22.5752 -22.3538 -17.1047 -17.0120
   -16.9591 -16.8642 -16.7595 -16.6231 -14.9936 -14.9896 -14.8341 -14.6312
   -14.6208 -14.5939 -14.5570 -14.1892 -14.1866 -14.1200 -14.1036 -13.9417
   -13.9012 -13.8712 -13.6170  -7.9222  -7.9160  -7.9028  -7.6576  -7.6563
    -7.6543  -7.5436  -7.4794  -7.4766  -7.3465  -7.2872  -7.1387  -2.8537
    -2.8391  -2.6716  -2.6556  -2.2595  -2.2566  -1.9216  -1.6354  -1.6270
    -1.5276  -1.5190  -1.4940  -1.4762  -1.1856  -1.1842  -1.1672  -1.1005
    -1.0702  -1.0556  -0.9897  -0.9749  -0.8623  -0.8567  -0.8490  -0.8247
    -0.7266  -0.6696  -0.6672  -0.4759  -0.4019  -0.3513  -0.2904  -0.2459
    -0.2145  -0.2087  -0.0574  -0.0078   0.0989   0.1005   0.2040   0.2184
     0.3235   0.4391   0.4474   0.4542   0.4631   0.4830   0.5262   0.5707
     0.5971   0.7602   0.7800   0.9513   0.9766   1.1564   1.2006   1.2018
     1.2500   1.2681   1.3580   1.3655   1.5216   1.5340   1.5552   1.6305
     1.6743   1.7708   1.7862   1.7975   1.8410   1.9243   1.9494   2.1446
     2.1707   2.2825   2.4114   2.5695   2.6126   2.8010   2.8141   6.5224
     6.5230   6.8955   7.6802   7.7855   8.0178   8.0188   8.4053   8.4952
     8.5919   8.7620   9.3068   9.3518   9.3759   9.4333   9.4924   9.5131
     9.5307

          k = 0.3750 0.1320 0.0000 ( 34185 PWs)   bands (ev):

   -35.7240 -35.5840 -22.6518 -22.6487 -22.5549 -22.3330 -17.0973 -17.0037
   -16.9341 -16.8360 -16.8145 -16.6850 -14.9452 -14.9415 -14.7666 -14.5907
   -14.5781 -14.5374 -14.4993 -14.1622 -14.1602 -14.0981 -14.0865 -13.9671
   -13.9189 -13.8734 -13.6195  -7.9758  -7.9693  -7.9243  -7.8219  -7.8175
    -7.7060  -7.6733  -7.5698  -7.5678  -7.4795  -7.4545  -7.2261  -2.9128
    -2.8961  -2.7149  -2.6952  -2.2618  -2.2584  -2.0217  -2.0107  -1.9344
    -1.8576  -1.8228  -1.5944  -1.5906  -1.5889  -1.4246  -1.4184  -1.2818
    -1.2650  -1.2422  -1.1676  -1.1423  -0.9973  -0.9640  -0.7648  -0.7384
    -0.7326  -0.6444  -0.5953  -0.4357  -0.4241  -0.3764  -0.3617  -0.2394
    -0.2374  -0.0375  -0.0271   0.0492   0.0759   0.1587   0.2042   0.2074
     0.2883   0.3503   0.4713   0.4721   0.5845   0.7009   0.7074   0.8056
     0.8242   0.9397   0.9917   1.0117   1.1685   1.1885   1.2143   1.2566
     1.2979   1.3375   1.3781   1.3796   1.5545   1.5745   1.5906   1.6605
     1.7093   1.7264   1.7655   1.8139   1.8190   1.8490   1.9030   2.3564
     2.7609   2.7718   2.9007   2.9618   2.9834   3.1242   3.1635   6.6733
     6.6736   6.8108   7.7336   7.8263   8.0840   8.0843   8.4185   8.5202
     8.8198   8.9549   9.1018   9.2752   9.3972   9.4809   9.5273   9.6301
     9.6798

          k = 0.3750 0.2640 0.0000 ( 34193 PWs)   bands (ev):

   -35.7198 -35.5797 -22.5989 -22.5958 -22.5050 -22.2822 -17.0798 -16.9841
   -16.9442 -16.8653 -16.8241 -16.7635 -14.8208 -14.8178 -14.5847 -14.4941
   -14.4786 -14.3952 -14.3540 -14.1211 -14.1181 -14.0876 -14.0858 -13.9994
   -13.9482 -13.8333 -13.6374  -8.2753  -8.2730  -8.1220  -7.9540  -7.9464
    -7.9372  -7.8398  -7.8356  -7.8329  -7.7465  -7.6339  -7.5009  -3.2243
    -3.2025  -2.9601  -2.9328  -2.5065  -2.4740  -2.4634  -2.3416  -2.3413
    -2.3257  -2.3248  -2.1891  -2.1875  -1.9125  -1.7486  -1.7398  -1.5722
    -1.5549  -1.4119  -1.2116  -1.1939  -0.9725  -0.9163  -0.8508  -0.8441
    -0.8267  -0.7702  -0.6670  -0.6654  -0.6183  -0.6165  -0.4854  -0.4530
    -0.4108  -0.3328  -0.3237   0.0643   0.1376   0.3614   0.4907   0.4966
     0.6763   0.7161   0.8427   0.8531   0.8722   1.0283   1.0302   1.0924
     1.1882   1.2345   1.2479   1.2720   1.4183   1.4265   1.4457   1.4597
     1.5967   1.6641   1.6711   1.6832   1.7053   1.7441   1.7597   1.7697
     1.7751   1.8165   1.8194   1.8553   1.8642   1.8813   2.1386   2.3439
     2.9946   3.0003   3.6263   3.7482   3.7534   3.8525   3.8790   6.4897
     6.7190   6.7212   7.5375   7.6422   8.4165   8.4224   8.7121   8.8469
     9.1710   9.3454   9.4192   9.4424   9.4915   9.6195   9.6504   9.8057
     9.8644

          k = 0.3750 0.3960 0.0000 ( 34177 PWs)   bands (ev):

   -35.7157 -35.5754 -22.5447 -22.5417 -22.4540 -22.2302 -17.0678 -17.0530
   -16.9675 -16.9470 -16.7981 -16.6865 -14.6805 -14.6791 -14.4085 -14.3995
   -14.3264 -14.2378 -14.1961 -14.1944 -14.1911 -14.0586 -14.0556 -13.9829
   -13.9329 -13.8118 -13.6635  -8.5426  -8.5415  -8.3933  -8.2069  -8.2051
    -8.1984  -8.0493  -7.9566  -7.9472  -7.8855  -7.8046  -7.6574  -3.7052
    -3.6786  -3.4129  -3.3792  -3.2219  -2.9145  -2.9132  -2.5992  -2.5884
    -2.4312  -2.4217  -2.2076  -2.2044  -2.0626  -2.0540  -1.9227  -1.8198
    -1.7972  -1.4988  -1.2146  -1.1868  -1.1648  -1.1634  -1.0863  -0.9304
    -0.9258  -0.8440  -0.8371  -0.7828  -0.7595  -0.7546  -0.6803  -0.6580
    -0.4069  -0.3440  -0.3426   0.2046   0.2858   0.4090   0.6214   0.6781
     0.9241   1.0752   1.1178   1.1837   1.1876   1.2648   1.2962   1.3747
     1.3822   1.4810   1.5047   1.5067   1.5656   1.5841   1.6187   1.7303
     1.7622   1.7867   1.7947   1.8672   1.9121   1.9491   1.9835   2.0390
     2.0659   2.0987   2.1171   2.1456   2.2024   2.2031   2.2219   2.4798
     2.8134   2.8218   4.0127   4.2608   4.2716   4.3295   4.3558   6.0780
     6.4144   6.4178   7.2365   7.3727   8.8995   8.9478   8.9773   9.0694
     9.3146   9.4374   9.4613   9.5192   9.5444   9.6378   9.6580   9.8202
     9.8526

          k = 0.3750-0.5279 0.0000 ( 34192 PWs)   bands (ev):

   -35.7139 -35.5737 -22.5218 -22.5188 -22.4325 -22.2082 -17.1053 -17.0540
   -17.0006 -16.9553 -16.7681 -16.6525 -14.6143 -14.6140 -14.3749 -14.3693
   -14.2388 -14.2344 -14.1713 -14.1571 -14.1180 -14.0377 -14.0360 -14.0079
   -13.9475 -13.8445 -13.6588  -8.6254  -8.6248  -8.4886  -8.3529  -8.3514
    -8.2873  -8.1907  -7.9803  -7.9704  -7.9487  -7.8779  -7.6688  -3.9122
    -3.8837  -3.6290  -3.5780  -3.4746  -3.1395  -3.1381  -2.6158  -2.6044
    -2.4412  -2.4268  -2.2017  -2.1985  -2.1716  -2.1625  -1.9252  -1.9068
    -1.8828  -1.5274  -1.3013  -1.2857  -1.2205  -1.2017  -1.1571  -0.9324
    -0.9302  -0.9266  -0.9228  -0.8660  -0.8515  -0.8049  -0.7073  -0.6789
    -0.3784  -0.3279  -0.3268   0.2446   0.3238   0.4192   0.6744   0.7617
     0.9953   1.2408   1.2466   1.2925   1.3021   1.3298   1.3355   1.3790
     1.3894   1.5510   1.5880   1.6122   1.6381   1.7339   1.7710   1.7899
     1.8025   1.8726   1.8945   1.9660   2.0460   2.0588   2.0740   2.1852
     2.2058   2.2546   2.2584   2.3192   2.3375   2.3940   2.3946   2.5589
     2.5660   2.5780   4.0907   4.3982   4.4198   4.4757   4.5016   5.8911
     6.2364   6.2402   7.1279   7.2821   8.7499   8.9894   9.1079   9.1472
     9.2272   9.3786   9.5797   9.5974   9.7592   9.8104   9.8208   9.8533
     9.9357

          k =-0.5000 0.0000 0.0000 ( 34130 PWs)   bands (ev):

   -35.7247 -35.5847 -22.6544 -22.6513 -22.5583 -22.3360 -17.1508 -17.0630
   -16.9234 -16.8234 -16.7582 -16.6217 -15.0452 -15.0438 -14.8659 -14.6468
   -14.6199 -14.4021 -14.3476 -14.2800 -14.2796 -14.1742 -14.1697 -13.9459
   -13.9406 -13.8943 -13.6392  -7.9113  -7.9046  -7.8927  -7.6425  -7.6337
    -7.6323  -7.5424  -7.4436  -7.4408  -7.3156  -7.2712  -7.1059  -2.9981
    -2.9828  -2.8139  -2.8035  -2.2823  -2.2799  -1.9161  -1.5984  -1.5891
    -1.5876  -1.5792  -1.3770  -1.3554  -1.1878  -1.1865  -1.1819  -1.1668
    -1.1431  -1.1237  -1.1235  -1.1159  -0.9667  -0.9603  -0.8796  -0.8728
    -0.7712  -0.7535  -0.7512  -0.5404  -0.4624  -0.3935  -0.3139  -0.2647
    -0.2043  -0.1968  -0.0812  -0.0623   0.0935   0.0951   0.1649   0.1963
     0.3195   0.4356   0.4367   0.4615   0.4708   0.4731   0.4833   0.5731
     0.5999   0.8095   0.8658   0.8815   0.9014   1.1497   1.1510   1.2162
     1.3701   1.3847   1.4244   1.4304   1.4611   1.6320   1.6381   1.6502
     1.6656   1.6658   1.7320   1.8975   1.9120   1.9381   1.9878   2.1616
     2.1811   2.2737   2.4155   2.5613   2.6233   2.8281   2.8480   7.0626
     7.2973   7.2996   7.3456   7.3472   8.1731   8.2982   8.4986   8.5569
     8.9449   9.0876   9.3330   9.3816   9.4009   9.4526   9.5380   9.5668
     9.7793

          k =-0.5000 0.1320 0.0000 ( 34202 PWs)   bands (ev):

   -35.7230 -35.5829 -22.6338 -22.6307 -22.5387 -22.3160 -17.1429 -17.0541
   -16.9001 -16.8123 -16.7967 -16.6829 -14.9880 -14.9868 -14.7948 -14.6058
   -14.5801 -14.3613 -14.3085 -14.2295 -14.2255 -14.1523 -14.1481 -13.9787
   -13.9288 -13.9094 -13.6343  -7.9471  -7.9383  -7.9077  -7.7630  -7.7617
    -7.6612  -7.6553  -7.6480  -7.6457  -7.5252  -7.3941  -7.3204  -3.0634
    -3.0459  -2.8655  -2.8508  -2.2905  -2.2877  -1.9986  -1.9813  -1.9246
    -1.8060  -1.7722  -1.5857  -1.5854  -1.5837  -1.4741  -1.4671  -1.3909
    -1.3743  -1.2826  -1.2713  -1.2478  -1.0134  -0.9928  -0.8069  -0.8051
    -0.7357  -0.6660  -0.6315  -0.4612  -0.4545  -0.4117  -0.3957  -0.2631
    -0.2616  -0.0596  -0.0430   0.0538   0.0836   0.1601   0.2057   0.2071
     0.2858   0.4434   0.4629   0.5459   0.5469   0.6196   0.6444   0.7858
     0.8123   0.9211   1.0381   1.0524   1.1493   1.1785   1.1964   1.2972
     1.2998   1.3308   1.4460   1.4522   1.5752   1.6347   1.6692   1.6882
     1.7111   1.7357   1.7511   1.9006   1.9067   1.9198   1.9518   2.3332
     2.7673   2.7743   2.9051   2.9790   3.0015   3.1703   3.2144   6.8752
     7.1453   7.1469   7.6458   7.6508   8.0982   8.1814   8.3814   8.5040
     9.2002   9.2508   9.3276   9.5047   9.5475   9.5906   9.6546   9.6662
     9.7758

          k =-0.5000 0.2640 0.0000 ( 34216 PWs)   bands (ev):

   -35.7188 -35.5787 -22.5831 -22.5801 -22.4906 -22.2672 -17.1240 -17.0329
   -16.9410 -16.8349 -16.8210 -16.7282 -14.8360 -14.8352 -14.6037 -14.5079
   -14.4822 -14.2596 -14.2105 -14.1388 -14.1371 -14.1019 -14.0988 -14.0417
   -13.9866 -13.8373 -13.6359  -8.2125  -8.2090  -8.0679  -8.0643  -8.0631
    -7.9252  -7.8989  -7.8911  -7.8840  -7.8242  -7.6782  -7.6173  -3.3632
    -3.3406  -3.1047  -3.0799  -2.5006  -2.4973  -2.4890  -2.3535  -2.3518
    -2.3388  -2.3379  -2.1997  -2.1987  -1.9168  -1.8763  -1.8643  -1.6652
    -1.6287  -1.4480  -1.1364  -1.1171  -0.9361  -0.9168  -0.9166  -0.8777
    -0.8597  -0.8009  -0.6968  -0.6619  -0.6454  -0.6442  -0.4589  -0.4531
    -0.4347  -0.3487  -0.3474   0.0798   0.1483   0.3965   0.5246   0.5703
     0.7222   0.7520   0.8749   0.8779   0.9398   1.1162   1.1195   1.1211
     1.2054   1.2077   1.2121   1.2237   1.4338   1.4639   1.5007   1.5213
     1.6098   1.6647   1.7200   1.7246   1.7368   1.7969   1.8020   1.8277
     1.8413   1.8668   1.9290   1.9379   1.9400   1.9639   2.0162   2.2902
     2.9879   2.9942   3.6245   3.8871   3.8893   3.9813   4.0113   6.3854
     6.7157   6.7166   7.4595   7.5736   8.4502   8.4583   8.8821   9.0642
     9.1394   9.5052   9.5703   9.5775   9.5916   9.6484   9.7662   9.8749
     9.9020

          k =-0.5000 0.3960 0.0000 ( 34176 PWs)   bands (ev):

   -35.7147 -35.5744 -22.5313 -22.5284 -22.4415 -22.2172 -17.1055 -17.0552
   -17.0121 -16.9462 -16.7707 -16.6553 -14.6502 -14.6498 -14.4293 -14.4229
   -14.3203 -14.1857 -14.1833 -14.1560 -14.1085 -14.0546 -14.0529 -13.9864
   -13.9327 -13.8033 -13.6529  -8.5906  -8.5895  -8.4440  -8.3529  -8.3518
    -8.2487  -8.1948  -7.9715  -7.9617  -7.9432  -7.8960  -7.6640  -3.8348
    -3.8079  -3.5306  -3.5021  -3.2187  -2.9061  -2.9048  -2.6723  -2.6615
    -2.5059  -2.4956  -2.2203  -2.2179  -2.1721  -2.1498  -1.9263  -1.8884
    -1.8394  -1.5366  -1.1973  -1.1921  -1.1083  -1.0681  -1.0629  -1.0198
    -1.0108  -0.8615  -0.8601  -0.7725  -0.7680  -0.7602  -0.7389  -0.7174
    -0.3874  -0.3055  -0.3045   0.2231   0.3061   0.4597   0.7291   0.7721
     1.0198   1.1527   1.2357   1.2970   1.3065   1.3368   1.3467   1.4115
     1.4139   1.4927   1.5843   1.5872   1.5923   1.6160   1.6684   1.7583
     1.7752   1.8372   1.8769   1.9129   1.9786   2.0080   2.0762   2.0803
     2.1213   2.1374   2.1740   2.1746   2.2314   2.2836   2.3201   2.4339
     2.8016   2.8114   3.9963   4.5261   4.5332   4.5714   4.6014   5.8698
     6.2202   6.2227   7.0790   7.2210   8.8823   8.9190   8.9221   9.0343
     9.2715   9.4392   9.5694   9.5758   9.6792   9.7114   9.7760   9.8453
     9.8806

          k =-0.5000-0.5279 0.0000 ( 34236 PWs)   bands (ev):

   -35.7130 -35.5726 -22.5095 -22.5066 -22.4209 -22.1962 -17.1006 -17.0979
   -17.0036 -16.9954 -16.7423 -16.6232 -14.5469 -14.5469 -14.4094 -14.4069
   -14.2247 -14.2247 -14.1662 -14.1151 -14.0692 -14.0334 -14.0305 -13.9496
   -13.8948 -13.8546 -13.6472  -8.7378  -8.7373  -8.5953  -8.4694  -8.4683
    -8.4010  -8.3073  -8.0470  -7.9972  -7.9871  -7.9074  -7.6776  -4.0434
    -4.0148  -3.7343  -3.6994  -3.4824  -3.1301  -3.1286  -2.7034  -2.6920
    -2.5303  -2.5184  -2.2678  -2.2409  -2.2097  -2.2074  -1.9620  -1.9265
    -1.9088  -1.5668  -1.3134  -1.3072  -1.1639  -1.1349  -1.1273  -0.9950
    -0.9914  -0.9562  -0.9550  -0.8719  -0.8484  -0.7954  -0.7730  -0.7615
    -0.3546  -0.2766  -0.2756   0.2638   0.3455   0.4717   0.7994   0.8896
     1.1153   1.3357   1.3763   1.3859   1.3881   1.3909   1.4163   1.4310
     1.4424   1.6369   1.6553   1.6618   1.6873   1.7040   1.8562   1.8862
     1.9123   1.9220   2.0093   2.0390   2.0737   2.0918   2.1439   2.2252
     2.2557   2.2815   2.3636   2.3658   2.3991   2.4710   2.4773   2.5418
     2.5559   2.6081   4.0657   4.7181   4.7365   4.7761   4.8029   5.6457
     5.9930   5.9962   6.9573   7.1185   8.7690   8.9460   8.9738   9.0172
     9.0588   9.1080   9.3759   9.6116   9.6715   9.7489   9.9111   9.9169
    10.0045

     the Fermi energy is     2.5860 ev

!    total energy              =   -1842.89747356 Ry
     Harris-Foulkes estimate   =   -1842.89747356 Ry
     estimated scf accuracy    <          7.3E-11 Ry

     The total energy is the sum of the following terms:

     one-electron contribution =  -30670.04637812 Ry
     hartree contribution      =   15488.40009938 Ry
     xc contribution           =    -621.66637736 Ry
     ewald contribution        =   13960.42362466 Ry
     smearing contrib. (-TS)   =      -0.00844212 Ry

     convergence has been achieved in  31 iterations

     negative rho (up, down):  1.534E-03 0.000E+00

     Forces acting on atoms (cartesian axes, Ry/au):

     atom    1 type  4   force =     0.00000000    0.00000000    0.00037191
     atom    2 type  3   force =     0.00000000    0.00000000    0.00433730
     atom    3 type  4   force =     0.00000000    0.00000000   -0.00332400
     atom    4 type  1   force =     0.00000000    0.00000000    0.00090257
     atom    5 type  3   force =     0.00000000    0.00000000   -0.00027364
     atom    6 type  4   force =     0.00000000    0.00000000    0.00030630
     atom    7 type  4   force =     0.00000000    0.00000000    0.00102638
     atom    8 type  2   force =     0.00000000    0.00000000    0.00018503
     atom    9 type  4   force =     0.00000000    0.00000000   -0.00083858
     atom   10 type  4   force =     0.00000000    0.00000000   -0.00106420
     atom   11 type  3   force =     0.00000000    0.00000000    0.00278714
     atom   12 type  1   force =     0.00000000    0.00000000    0.00442236
     atom   13 type  4   force =     0.00000000    0.00000000    0.02221160
     atom   14 type  4   force =     0.00000000    0.00000000   -0.00337759
     atom   15 type  3   force =     0.00000000    0.00000000   -0.00889917
     atom   16 type  4   force =     0.00000000    0.00000000   -0.00482427
     atom   17 type  1   force =     0.00000000    0.00000000   -0.00407551
     atom   18 type  3   force =     0.00000000    0.00000000    0.00375182
     atom   19 type  4   force =     0.00000000    0.00000000   -0.00183318
     atom   20 type  4   force =     0.00000000    0.00000000   -0.00202925
     atom   21 type  2   force =     0.00000000    0.00000000    0.00527003
     atom   22 type  4   force =     0.00000000    0.00000000   -0.00505181
     atom   23 type  4   force =     0.00000000    0.00000000   -0.00418723
     atom   24 type  3   force =     0.00000000    0.00000000   -0.00105309
     atom   25 type  1   force =     0.00000000    0.00000000   -0.00316447
     atom   26 type  4   force =     0.00000000    0.00000000    0.00317699
     atom   27 type  3   force =     0.00000000    0.00000000   -0.00447734
     atom   28 type  4   force =     0.00000000    0.00000000   -0.00027611

     Total force =     0.011549     Total SCF correction =     0.000020


     Computing stress (Cartesian axis) and pressure


     negative rho (up, down):  1.534E-03 0.000E+00
          total   stress  (Ry/bohr**3)                   (kbar)     P=       -7.50
  -0.00001936   0.00000000   0.00000000           -2.85        0.00        0.00
   0.00000000  -0.00003683   0.00000000            0.00       -5.42        0.00
   0.00000000   0.00000000  -0.00009673            0.00        0.00      -14.23


     number of scf cycles    =  19
     number of bfgs steps    =   7

     energy   old            =   -1842.8998259657 Ry
     energy   new            =   -1842.8974735619 Ry

     CASE: energy  _new > energy  _old


 %%%%%%%%%%%%%%%%%%%%%%%%%%%%%%%%%%%%%%%%%%%%%%%%%%%%%%%%%%%%%%%%%%%%%%%%%%%%%%
     Error in routine bfgs (1):
     dE0s is positive which should never happen
 %%%%%%%%%%%%%%%%%%%%%%%%%%%%%%%%%%%%%%%%%%%%%%%%%%%%%%%%%%%%%%%%%%%%%%%%%%%%%%

     stopping ...
