
     Program PWSCF v.6.5 starts on 28Jun2021 at 19:22:56 

     This program is part of the open-source Quantum ESPRESSO suite
     for quantum simulation of materials; please cite
         "P. Giannozzi et al., J. Phys.:Condens. Matter 21 395502 (2009);
         "P. Giannozzi et al., J. Phys.:Condens. Matter 29 465901 (2017);
          URL http://www.quantum-espresso.org", 
     in publications or presentations arising from this work. More details at
     http://www.quantum-espresso.org/quote

     Parallel version (MPI), running on    20 processors

     MPI processes distributed on     7 nodes
     R & G space division:  proc/nbgrp/npool/nimage =      20
     Reading input from CBCO_BaO_cleave_1.0_sep.pwi
Warning: card &CELL ignored
Warning: card     CELL_DYNAMICS = 'BFGS' ignored
Warning: card     PRESS_CONV_THR = 5 ignored
Warning: card / ignored

     Current dimensions of program PWSCF are:
     Max number of different atomic species (ntypx) = 10
     Max number of k-points (npk) =  40000
     Max angular momentum in pseudopotentials (lmaxx) =  3

     Subspace diagonalization in iterative solution of the eigenvalue problem:
     one sub-group per band group will be used
     scalapack distributed-memory algorithm (size of sub-group:  4*  4 procs)

     Message from routine setup:
     using ibrav=0 with symmetry is DISCOURAGED, use correct ibrav instead
 
     Parallelization info
     --------------------
     sticks:   dense  smooth     PW     G-vecs:    dense   smooth      PW
     Min         149      50     14                71773    13820    2160
     Max         150      51     15                71810    13841    2205
     Sum        2991    1007    289              1435837   276553   43473
 


     bravais-lattice index     =            0
     lattice parameter (alat)  =       7.4270  a.u.
     unit-cell volume          =    4401.0322 (a.u.)^3
     number of atoms/cell      =           28
     number of atomic types    =            4
     number of electrons       =       227.00
     number of Kohn-Sham states=          137
     kinetic-energy cutoff     =      60.0000  Ry
     charge density cutoff     =     720.0000  Ry
     convergence threshold     =      1.0E-10
     mixing beta               =       0.7000
     number of iterations used =           10  local-TF  mixing
     Exchange-correlation= SLA PW PBE PBE
                           (   1   4   3   4   0   0   0)
     nstep                     =          300


     celldm(1)=   7.427040  celldm(2)=   0.000000  celldm(3)=   0.000000
     celldm(4)=   0.000000  celldm(5)=   0.000000  celldm(6)=   0.000000

     crystal axes: (cart. coord. in units of alat)
               a(1) = (   1.000000   0.000000   0.000000 )  
               a(2) = (   0.000000   0.947081   0.000000 )  
               a(3) = (   0.000000   0.000000  11.342795 )  

     reciprocal axes: (cart. coord. in units 2 pi/alat)
               b(1) = (  1.000000  0.000000  0.000000 )  
               b(2) = (  0.000000  1.055876  0.000000 )  
               b(3) = (  0.000000  0.000000  0.088162 )  


     PseudoPot. # 1 for Ba read from file:
     ./pseudo/Ba.pbe-nsp-van.UPF
     MD5 check sum: 2b9c31dd849566dd297d80989662b7a0
     Pseudo is Ultrasoft + core correction, Zval = 10.0
     Generated by new atomic code, or converted to UPF format
     Using radial grid of  907 points,  6 beta functions with: 
                l(1) =   0
                l(2) =   0
                l(3) =   1
                l(4) =   1
                l(5) =   2
                l(6) =   2
     Q(r) pseudized with  6 coefficients,  rinner =    1.200   1.200   1.200
                                                       1.200   1.200

     PseudoPot. # 2 for Ca read from file:
     ./pseudo/Ca.pbe-nsp-van.UPF
     MD5 check sum: 6471098428ff4fa451746d08035ff179
     Pseudo is Ultrasoft + core correction, Zval = 10.0
     Generated by new atomic code, or converted to UPF format
     Using radial grid of  845 points,  6 beta functions with: 
                l(1) =   0
                l(2) =   0
                l(3) =   1
                l(4) =   1
                l(5) =   2
                l(6) =   2
     Q(r) pseudized with  6 coefficients,  rinner =    1.200   1.200   1.200
                                                       1.200   1.200

     PseudoPot. # 3 for Cu read from file:
     ./pseudo/Cu.pbe-n-van_ak.UPF
     MD5 check sum: 34e3282627ffb533726feb647e090d62
     Pseudo is Ultrasoft + core correction, Zval = 11.0
     Generated by new atomic code, or converted to UPF format
     Using radial grid of  867 points,  6 beta functions with: 
                l(1) =   0
                l(2) =   0
                l(3) =   1
                l(4) =   1
                l(5) =   2
                l(6) =   2
     Q(r) pseudized with  8 coefficients,  rinner =    1.400   1.400   1.400
                                                       1.400   1.400

     PseudoPot. # 4 for O  read from file:
     ./pseudo/O.pbe-van_ak.UPF
     MD5 check sum: 783ce7fe4c79b6a4916957118fed0856
     Pseudo is Ultrasoft, Zval =  6.0
     Generated by new atomic code, or converted to UPF format
     Using radial grid of  737 points,  4 beta functions with: 
                l(1) =   0
                l(2) =   0
                l(3) =   1
                l(4) =   1
     Q(r) pseudized with  8 coefficients,  rinner =    0.800   0.800   0.800


     atomic species   valence    mass     pseudopotential
        Ba            10.00   137.32700     Ba( 1.00)
        Ca            10.00    40.07800     Ca( 1.00)
        Cu            11.00    63.54600     Cu( 1.00)
        O              6.00    15.99900     O ( 1.00)

      4 Sym. Ops. (no inversion) found



   Cartesian axes

     site n.     atom                  positions (alat units)
         1           O   tau(   1) = (   0.0000000   0.4735409  -0.0469745  )
         2           Cu  tau(   2) = (   0.0000000   0.0000000   0.0264565  )
         3           O   tau(   3) = (   0.0000000   0.0000000   0.5030914  )
         4           Ba  tau(   4) = (   0.5000000   0.4735409   0.5690292  )
         5           Cu  tau(   5) = (   0.0000000   0.0000000   1.0374254  )
         6           O   tau(   6) = (   0.5000000   0.0000000   1.0768099  )
         7           O   tau(   7) = (   0.0000000   0.4735409   1.1116985  )
         8           Ca  tau(   8) = (   0.5000000   0.4735409   1.4976260  )
         9           O   tau(   9) = (   0.0000000   0.4735409   1.8667529  )
        10           O   tau(  10) = (   0.5000000   0.0000000   1.9044124  )
        11           Cu  tau(  11) = (   0.0000000   0.0000000   1.9512546  )
        12           Ba  tau(  12) = (   0.5000000   0.4735409   2.4295764  )
        13           O   tau(  13) = (   0.0000000   0.0000000   2.5115362  )
        14           O   tau(  14) = (   0.0000000   0.4735409   2.9918528  )
        15           Cu  tau(  15) = (   0.0000000   0.0000000   2.9919088  )
        16           O   tau(  16) = (   0.0000000   0.0000000   3.4722686  )
        17           Ba  tau(  17) = (   0.5000000   0.4735409   3.5542208  )
        18           Cu  tau(  18) = (   0.0000000   0.0000000   4.2869634  )
        19           O   tau(  19) = (   0.5000000   0.0000000   4.3338056  )
        20           O   tau(  20) = (   0.0000000   0.4735409   4.3714600  )
        21           Ca  tau(  21) = (   0.5000000   0.4735409   4.7405971  )
        22           O   tau(  22) = (   0.0000000   0.4735409   5.1265220  )
        23           O   tau(  23) = (   0.5000000   0.0000000   5.1614106  )
        24           Cu  tau(  24) = (   0.0000000   0.0000000   5.2007978  )
        25           Ba  tau(  25) = (   0.5000000   0.4735409   5.6691914  )
        26           O   tau(  26) = (   0.0000000   0.0000000   5.7351190  )
        27           Cu  tau(  27) = (   0.0000000   0.0000000   6.2117589  )
        28           O   tau(  28) = (   0.0000000   0.4735409   6.2851772  )

     number of k points=    25  Gaussian smearing, width (Ry)=  0.0100
                       cart. coord. in units 2pi/alat
        k(    1) = (   0.0000000   0.0000000   0.0000000), wk =   0.0312500
        k(    2) = (   0.0000000   0.1319845   0.0000000), wk =   0.0625000
        k(    3) = (   0.0000000   0.2639689   0.0000000), wk =   0.0625000
        k(    4) = (   0.0000000   0.3959534   0.0000000), wk =   0.0625000
        k(    5) = (   0.0000000  -0.5279378   0.0000000), wk =   0.0312500
        k(    6) = (   0.1250000   0.0000000   0.0000000), wk =   0.0625000
        k(    7) = (   0.1250000   0.1319845   0.0000000), wk =   0.1250000
        k(    8) = (   0.1250000   0.2639689   0.0000000), wk =   0.1250000
        k(    9) = (   0.1250000   0.3959534   0.0000000), wk =   0.1250000
        k(   10) = (   0.1250000  -0.5279378   0.0000000), wk =   0.0625000
        k(   11) = (   0.2500000   0.0000000   0.0000000), wk =   0.0625000
        k(   12) = (   0.2500000   0.1319845   0.0000000), wk =   0.1250000
        k(   13) = (   0.2500000   0.2639689   0.0000000), wk =   0.1250000
        k(   14) = (   0.2500000   0.3959534   0.0000000), wk =   0.1250000
        k(   15) = (   0.2500000  -0.5279378   0.0000000), wk =   0.0625000
        k(   16) = (   0.3750000   0.0000000   0.0000000), wk =   0.0625000
        k(   17) = (   0.3750000   0.1319845   0.0000000), wk =   0.1250000
        k(   18) = (   0.3750000   0.2639689   0.0000000), wk =   0.1250000
        k(   19) = (   0.3750000   0.3959534   0.0000000), wk =   0.1250000
        k(   20) = (   0.3750000  -0.5279378   0.0000000), wk =   0.0625000
        k(   21) = (  -0.5000000   0.0000000   0.0000000), wk =   0.0312500
        k(   22) = (  -0.5000000   0.1319845   0.0000000), wk =   0.0625000
        k(   23) = (  -0.5000000   0.2639689   0.0000000), wk =   0.0625000
        k(   24) = (  -0.5000000   0.3959534   0.0000000), wk =   0.0625000
        k(   25) = (  -0.5000000  -0.5279378   0.0000000), wk =   0.0312500

     Dense  grid:  1435837 G-vectors     FFT dimensions: (  64,  64, 720)

     Smooth grid:   276553 G-vectors     FFT dimensions: (  40,  36, 432)

     Estimated max dynamical RAM per process >     458.17 MB

     Estimated total dynamical RAM >       8.95 GB

     Initial potential from superposition of free atoms

     starting charge  226.84630, renormalised to  227.00000

     negative rho (up, down):  3.506E-03 0.000E+00
     Starting wfcs are  195 randomized atomic wfcs

     total cpu time spent up to now is       10.1 secs

     Self-consistent Calculation

     iteration #  1     ecut=    60.00 Ry     beta= 0.70
     Davidson diagonalization with overlap
     ethr =  1.00E-02,  avg # of iterations =  2.0

     negative rho (up, down):  2.885E-04 0.000E+00

     total cpu time spent up to now is       25.6 secs

     total energy              =   -1839.41208601 Ry
     Harris-Foulkes estimate   =   -1845.35776498 Ry
     estimated scf accuracy    <      17.73351969 Ry

     iteration #  2     ecut=    60.00 Ry     beta= 0.70
     Davidson diagonalization with overlap
     ethr =  7.81E-03,  avg # of iterations =  2.0

     negative rho (up, down):  2.604E-04 0.000E+00

     total cpu time spent up to now is       42.9 secs

     total energy              =   -1842.06798103 Ry
     Harris-Foulkes estimate   =   -1843.98341358 Ry
     estimated scf accuracy    <      11.52275118 Ry

     iteration #  3     ecut=    60.00 Ry     beta= 0.70
     Davidson diagonalization with overlap
     ethr =  5.08E-03,  avg # of iterations =  1.6

     negative rho (up, down):  2.457E-04 0.000E+00

     total cpu time spent up to now is       58.1 secs

     total energy              =   -1842.69232832 Ry
     Harris-Foulkes estimate   =   -1843.04518104 Ry
     estimated scf accuracy    <       2.46522930 Ry

     iteration #  4     ecut=    60.00 Ry     beta= 0.70
     Davidson diagonalization with overlap
     ethr =  1.09E-03,  avg # of iterations =  2.0

     negative rho (up, down):  2.393E-04 0.000E+00

     total cpu time spent up to now is       73.4 secs

     total energy              =   -1842.84831028 Ry
     Harris-Foulkes estimate   =   -1843.00918254 Ry
     estimated scf accuracy    <       6.09613646 Ry

     iteration #  5     ecut=    60.00 Ry     beta= 0.70
     Davidson diagonalization with overlap
     ethr =  1.09E-03,  avg # of iterations =  1.0

     negative rho (up, down):  2.361E-04 0.000E+00

     total cpu time spent up to now is       87.3 secs

     total energy              =   -1842.86902201 Ry
     Harris-Foulkes estimate   =   -1842.90741461 Ry
     estimated scf accuracy    <       1.21140153 Ry

     iteration #  6     ecut=    60.00 Ry     beta= 0.70
     Davidson diagonalization with overlap
     ethr =  5.34E-04,  avg # of iterations =  1.0

     negative rho (up, down):  2.335E-04 0.000E+00

     total cpu time spent up to now is      101.9 secs

     total energy              =   -1842.86917704 Ry
     Harris-Foulkes estimate   =   -1842.89285547 Ry
     estimated scf accuracy    <       1.23574154 Ry

     iteration #  7     ecut=    60.00 Ry     beta= 0.70
     Davidson diagonalization with overlap
     ethr =  5.34E-04,  avg # of iterations =  1.0

     negative rho (up, down):  2.334E-04 0.000E+00

     total cpu time spent up to now is      116.0 secs

     total energy              =   -1842.87162341 Ry
     Harris-Foulkes estimate   =   -1842.88140813 Ry
     estimated scf accuracy    <       0.63604304 Ry

     iteration #  8     ecut=    60.00 Ry     beta= 0.70
     Davidson diagonalization with overlap
     ethr =  2.80E-04,  avg # of iterations =  2.7

     negative rho (up, down):  2.333E-04 0.000E+00

     total cpu time spent up to now is      131.8 secs

     total energy              =   -1842.87413296 Ry
     Harris-Foulkes estimate   =   -1842.87549995 Ry
     estimated scf accuracy    <       0.42153419 Ry

     iteration #  9     ecut=    60.00 Ry     beta= 0.70
     Davidson diagonalization with overlap
     ethr =  1.86E-04,  avg # of iterations =  2.3

     negative rho (up, down):  2.351E-04 0.000E+00

     total cpu time spent up to now is      147.2 secs

     total energy              =   -1842.86366368 Ry
     Harris-Foulkes estimate   =   -1842.87468387 Ry
     estimated scf accuracy    <       0.32791517 Ry

     iteration # 10     ecut=    60.00 Ry     beta= 0.70
     Davidson diagonalization with overlap
     ethr =  1.44E-04,  avg # of iterations =  4.2

     negative rho (up, down):  2.356E-04 0.000E+00

     total cpu time spent up to now is      164.8 secs

     total energy              =   -1842.86360099 Ry
     Harris-Foulkes estimate   =   -1842.86732448 Ry
     estimated scf accuracy    <       0.11354628 Ry

     iteration # 11     ecut=    60.00 Ry     beta= 0.70
     Davidson diagonalization with overlap
     ethr =  5.00E-05,  avg # of iterations =  6.6

     negative rho (up, down):  2.356E-04 0.000E+00

     total cpu time spent up to now is      185.8 secs

     total energy              =   -1842.86310886 Ry
     Harris-Foulkes estimate   =   -1842.86458562 Ry
     estimated scf accuracy    <       0.08103976 Ry

     iteration # 12     ecut=    60.00 Ry     beta= 0.70
     Davidson diagonalization with overlap
     ethr =  3.57E-05,  avg # of iterations =  1.8

     negative rho (up, down):  2.640E-04 0.000E+00

     total cpu time spent up to now is      200.6 secs

     total energy              =   -1842.86171861 Ry
     Harris-Foulkes estimate   =   -1842.86354870 Ry
     estimated scf accuracy    <       0.06957081 Ry

     iteration # 13     ecut=    60.00 Ry     beta= 0.70
     Davidson diagonalization with overlap
     ethr =  3.06E-05,  avg # of iterations =  2.4

     negative rho (up, down):  4.451E-04 0.000E+00

     total cpu time spent up to now is      216.2 secs

     total energy              =   -1842.86123345 Ry
     Harris-Foulkes estimate   =   -1842.86239765 Ry
     estimated scf accuracy    <       0.08939665 Ry

     iteration # 14     ecut=    60.00 Ry     beta= 0.70
     Davidson diagonalization with overlap
     ethr =  3.06E-05,  avg # of iterations =  1.4

     negative rho (up, down):  5.643E-03 0.000E+00

     total cpu time spent up to now is      230.5 secs

     total energy              =   -1842.85965227 Ry
     Harris-Foulkes estimate   =   -1842.86151500 Ry
     estimated scf accuracy    <       0.06103405 Ry

     iteration # 15     ecut=    60.00 Ry     beta= 0.70
     Davidson diagonalization with overlap
     ethr =  2.69E-05,  avg # of iterations =  5.2

     negative rho (up, down):  9.569E-03 0.000E+00

     total cpu time spent up to now is      249.5 secs

     total energy              =   -1842.85891517 Ry
     Harris-Foulkes estimate   =   -1842.86011824 Ry
     estimated scf accuracy    <       0.02090150 Ry

     iteration # 16     ecut=    60.00 Ry     beta= 0.70
     Davidson diagonalization with overlap
     ethr =  9.21E-06,  avg # of iterations =  6.6

     negative rho (up, down):  9.469E-03 0.000E+00

     total cpu time spent up to now is      270.4 secs

     total energy              =   -1842.85866375 Ry
     Harris-Foulkes estimate   =   -1842.85920475 Ry
     estimated scf accuracy    <       0.01549749 Ry

     iteration # 17     ecut=    60.00 Ry     beta= 0.70
     Davidson diagonalization with overlap
     c_bands:  2 eigenvalues not converged
     ethr =  6.83E-06,  avg # of iterations =  4.9

     negative rho (up, down):  1.438E-02 0.000E+00

     total cpu time spent up to now is      288.8 secs

     total energy              =   -1842.85766614 Ry
     Harris-Foulkes estimate   =   -1842.85875061 Ry
     estimated scf accuracy    <       0.01562133 Ry

     iteration # 18     ecut=    60.00 Ry     beta= 0.70
     Davidson diagonalization with overlap
     ethr =  6.83E-06,  avg # of iterations =  7.0

     negative rho (up, down):  2.878E-03 0.000E+00

     total cpu time spent up to now is      310.7 secs

     total energy              =   -1842.85676357 Ry
     Harris-Foulkes estimate   =   -1842.85811821 Ry
     estimated scf accuracy    <       0.02198079 Ry

     iteration # 19     ecut=    60.00 Ry     beta= 0.70
     Davidson diagonalization with overlap
     c_bands:  1 eigenvalues not converged
     c_bands:  1 eigenvalues not converged
     ethr =  6.83E-06,  avg # of iterations =  8.4

     negative rho (up, down):  9.340E-03 0.000E+00

     total cpu time spent up to now is      333.9 secs

     total energy              =   -1842.85709448 Ry
     Harris-Foulkes estimate   =   -1842.85755185 Ry
     estimated scf accuracy    <       0.00598536 Ry

     iteration # 20     ecut=    60.00 Ry     beta= 0.70
     Davidson diagonalization with overlap
     c_bands:  1 eigenvalues not converged
     ethr =  2.64E-06,  avg # of iterations =  8.9

     negative rho (up, down):  1.085E-02 0.000E+00

     total cpu time spent up to now is      358.0 secs

     total energy              =   -1842.85721924 Ry
     Harris-Foulkes estimate   =   -1842.85723365 Ry
     estimated scf accuracy    <       0.00217686 Ry

     iteration # 21     ecut=    60.00 Ry     beta= 0.70
     Davidson diagonalization with overlap
     ethr =  9.59E-07,  avg # of iterations =  7.5

     negative rho (up, down):  8.732E-03 0.000E+00

     total cpu time spent up to now is      380.9 secs

     total energy              =   -1842.85717322 Ry
     Harris-Foulkes estimate   =   -1842.85732216 Ry
     estimated scf accuracy    <       0.00085002 Ry

     iteration # 22     ecut=    60.00 Ry     beta= 0.70
     Davidson diagonalization with overlap
     ethr =  3.74E-07,  avg # of iterations =  4.2

     negative rho (up, down):  2.104E-03 0.000E+00

     total cpu time spent up to now is      398.7 secs

     total energy              =   -1842.85713739 Ry
     Harris-Foulkes estimate   =   -1842.85723061 Ry
     estimated scf accuracy    <       0.00022189 Ry

     iteration # 23     ecut=    60.00 Ry     beta= 0.70
     Davidson diagonalization with overlap
     c_bands:  1 eigenvalues not converged
     c_bands:  1 eigenvalues not converged
     ethr =  9.77E-08,  avg # of iterations = 10.2

     negative rho (up, down):  1.842E-03 0.000E+00

     total cpu time spent up to now is      424.5 secs

     total energy              =   -1842.85714423 Ry
     Harris-Foulkes estimate   =   -1842.85714445 Ry
     estimated scf accuracy    <       0.00009429 Ry

     iteration # 24     ecut=    60.00 Ry     beta= 0.70
     Davidson diagonalization with overlap
     c_bands:  1 eigenvalues not converged
     ethr =  4.15E-08,  avg # of iterations =  3.8

     negative rho (up, down):  1.555E-03 0.000E+00

     total cpu time spent up to now is      441.8 secs

     total energy              =   -1842.85714481 Ry
     Harris-Foulkes estimate   =   -1842.85714709 Ry
     estimated scf accuracy    <       0.00003471 Ry

     iteration # 25     ecut=    60.00 Ry     beta= 0.70
     Davidson diagonalization with overlap
     ethr =  1.53E-08,  avg # of iterations =  1.0

     negative rho (up, down):  1.623E-03 0.000E+00

     total cpu time spent up to now is      455.7 secs

     total energy              =   -1842.85714558 Ry
     Harris-Foulkes estimate   =   -1842.85714605 Ry
     estimated scf accuracy    <       0.00002315 Ry

     iteration # 26     ecut=    60.00 Ry     beta= 0.70
     Davidson diagonalization with overlap
     ethr =  1.02E-08,  avg # of iterations =  1.0

     negative rho (up, down):  1.574E-03 0.000E+00

     total cpu time spent up to now is      469.8 secs

     total energy              =   -1842.85714495 Ry
     Harris-Foulkes estimate   =   -1842.85714601 Ry
     estimated scf accuracy    <       0.00001262 Ry

     iteration # 27     ecut=    60.00 Ry     beta= 0.70
     Davidson diagonalization with overlap
     ethr =  5.56E-09,  avg # of iterations =  1.1

     negative rho (up, down):  1.474E-03 0.000E+00

     total cpu time spent up to now is      483.9 secs

     total energy              =   -1842.85714513 Ry
     Harris-Foulkes estimate   =   -1842.85714535 Ry
     estimated scf accuracy    <       0.00000663 Ry

     iteration # 28     ecut=    60.00 Ry     beta= 0.70
     Davidson diagonalization with overlap
     ethr =  2.92E-09,  avg # of iterations =  1.0

     negative rho (up, down):  1.503E-03 0.000E+00

     total cpu time spent up to now is      498.0 secs

     total energy              =   -1842.85714518 Ry
     Harris-Foulkes estimate   =   -1842.85714531 Ry
     estimated scf accuracy    <       0.00000194 Ry

     iteration # 29     ecut=    60.00 Ry     beta= 0.70
     Davidson diagonalization with overlap
     ethr =  8.57E-10,  avg # of iterations =  2.2

     negative rho (up, down):  1.496E-03 0.000E+00

     total cpu time spent up to now is      513.3 secs

     total energy              =   -1842.85714527 Ry
     Harris-Foulkes estimate   =   -1842.85714528 Ry
     estimated scf accuracy    <       0.00000163 Ry

     iteration # 30     ecut=    60.00 Ry     beta= 0.70
     Davidson diagonalization with overlap
     ethr =  7.19E-10,  avg # of iterations =  1.0

     negative rho (up, down):  1.504E-03 0.000E+00

     total cpu time spent up to now is      527.4 secs

     total energy              =   -1842.85714528 Ry
     Harris-Foulkes estimate   =   -1842.85714530 Ry
     estimated scf accuracy    <       0.00000086 Ry

     iteration # 31     ecut=    60.00 Ry     beta= 0.70
     Davidson diagonalization with overlap
     ethr =  3.78E-10,  avg # of iterations =  1.1

     negative rho (up, down):  1.496E-03 0.000E+00

     total cpu time spent up to now is      541.8 secs

     total energy              =   -1842.85714529 Ry
     Harris-Foulkes estimate   =   -1842.85714530 Ry
     estimated scf accuracy    <       0.00000041 Ry

     iteration # 32     ecut=    60.00 Ry     beta= 0.70
     Davidson diagonalization with overlap
     ethr =  1.80E-10,  avg # of iterations =  1.7

     negative rho (up, down):  1.507E-03 0.000E+00

     total cpu time spent up to now is      556.6 secs

     total energy              =   -1842.85714529 Ry
     Harris-Foulkes estimate   =   -1842.85714531 Ry
     estimated scf accuracy    <       0.00000017 Ry

     iteration # 33     ecut=    60.00 Ry     beta= 0.70
     Davidson diagonalization with overlap
     ethr =  7.36E-11,  avg # of iterations =  1.6

     negative rho (up, down):  1.514E-03 0.000E+00

     total cpu time spent up to now is      571.5 secs

     total energy              =   -1842.85714528 Ry
     Harris-Foulkes estimate   =   -1842.85714529 Ry
     estimated scf accuracy    <       0.00000004 Ry

     iteration # 34     ecut=    60.00 Ry     beta= 0.70
     Davidson diagonalization with overlap
     ethr =  1.85E-11,  avg # of iterations =  2.8

     negative rho (up, down):  1.515E-03 0.000E+00

     total cpu time spent up to now is      587.8 secs

     total energy              =   -1842.85714528 Ry
     Harris-Foulkes estimate   =   -1842.85714528 Ry
     estimated scf accuracy    <          6.5E-09 Ry

     iteration # 35     ecut=    60.00 Ry     beta= 0.70
     Davidson diagonalization with overlap
     ethr =  2.87E-12,  avg # of iterations =  3.4

     negative rho (up, down):  1.516E-03 0.000E+00

     total cpu time spent up to now is      607.1 secs

     total energy              =   -1842.85714528 Ry
     Harris-Foulkes estimate   =   -1842.85714528 Ry
     estimated scf accuracy    <          5.3E-09 Ry

     iteration # 36     ecut=    60.00 Ry     beta= 0.70
     Davidson diagonalization with overlap
     ethr =  2.32E-12,  avg # of iterations =  1.2

     negative rho (up, down):  1.515E-03 0.000E+00

     total cpu time spent up to now is      621.0 secs

     total energy              =   -1842.85714528 Ry
     Harris-Foulkes estimate   =   -1842.85714528 Ry
     estimated scf accuracy    <          1.9E-09 Ry

     iteration # 37     ecut=    60.00 Ry     beta= 0.70
     Davidson diagonalization with overlap
     ethr =  8.30E-13,  avg # of iterations =  1.0

     negative rho (up, down):  1.516E-03 0.000E+00

     total cpu time spent up to now is      635.0 secs

     total energy              =   -1842.85714528 Ry
     Harris-Foulkes estimate   =   -1842.85714528 Ry
     estimated scf accuracy    <          2.8E-10 Ry

     iteration # 38     ecut=    60.00 Ry     beta= 0.70
     Davidson diagonalization with overlap
     ethr =  1.23E-13,  avg # of iterations =  2.5

     negative rho (up, down):  1.516E-03 0.000E+00

     total cpu time spent up to now is      651.1 secs

     total energy              =   -1842.85714528 Ry
     Harris-Foulkes estimate   =   -1842.85714528 Ry
     estimated scf accuracy    <          2.5E-10 Ry

     iteration # 39     ecut=    60.00 Ry     beta= 0.70
     Davidson diagonalization with overlap
     ethr =  1.09E-13,  avg # of iterations =  1.0

     negative rho (up, down):  1.519E-03 0.000E+00

     total cpu time spent up to now is      664.2 secs

     End of self-consistent calculation

          k = 0.0000 0.0000 0.0000 ( 34661 PWs)   bands (ev):

   -35.6127 -35.4852 -23.4923 -22.8151 -22.8149 -22.5701 -17.1170 -16.9650
   -16.6638 -16.6525 -16.5477 -16.5325 -15.3271 -15.2235 -14.9177 -14.6958
   -14.6884 -14.5980 -14.4227 -14.2056 -14.2028 -14.0066 -13.9852 -13.8510
   -13.7391 -13.5892 -13.5622  -8.7190  -8.3747  -8.2695  -7.9465  -7.9449
    -7.9090  -7.9089  -7.7545  -7.7159  -7.7157  -7.6143  -7.4479  -2.3549
    -2.3538  -2.1096  -1.8537  -1.8509  -1.7920  -1.6935  -1.6625  -1.6052
    -1.5665  -1.5074  -1.4825  -1.3304  -1.2462  -1.2444  -1.1275  -0.9115
    -0.6761  -0.6714  -0.4840  -0.4826  -0.4047  -0.4001  -0.3314  -0.3194
    -0.2901  -0.2886  -0.2814  -0.2713  -0.2386  -0.2297  -0.1905  -0.1648
    -0.1614  -0.1502  -0.0629  -0.0609   0.0733   0.0749   0.0749   0.0776
     0.1284   0.1487   0.1757   0.2817   0.2886   0.2999   0.3374   0.3524
     0.5506   0.5642   0.7546   0.8569   0.8578   0.9193   0.9406   1.1578
     1.1994   1.3239   1.3247   1.3501   1.3768   1.4072   1.4860   1.4906
     1.6360   1.7562   1.7973   1.7989   1.9063   1.9117   1.9263   1.9847
     2.0141   2.0842   2.0866   2.2169   2.2220   2.5019   2.5110   5.1592
     5.1928   5.3377   5.9881   6.1107   6.5539   6.7400   6.7483   7.0893
     7.7569   7.9508   8.1019   8.2473   8.3065   8.5104   8.5757   8.7506
     9.0547

          k = 0.0000 0.1320 0.0000 ( 34589 PWs)   bands (ev):

   -35.6109 -35.4834 -23.4709 -22.7884 -22.7882 -22.5447 -17.0809 -16.9286
   -16.7250 -16.6615 -16.6044 -16.5453 -15.2383 -15.1418 -14.8622 -14.7010
   -14.6881 -14.5707 -14.3925 -14.2150 -14.2104 -14.0118 -14.0000 -13.8972
   -13.7839 -13.6318 -13.6118  -8.7082  -8.3368  -8.3148  -7.9460  -7.9448
    -7.8612  -7.8610  -7.7592  -7.7575  -7.7507  -7.5692  -7.4959  -2.4123
    -2.4118  -2.2164  -2.1795  -2.1488  -2.0419  -1.9301  -1.7443  -1.6730
    -1.6700  -1.6686  -1.6451  -1.5489  -1.3690  -1.3164  -1.3143  -1.1674
    -0.7218  -0.6643  -0.6511  -0.5815  -0.5800  -0.5779  -0.5765  -0.4870
    -0.4848  -0.3652  -0.2396  -0.2356  -0.2074  -0.1904  -0.1735  -0.1719
    -0.1283  -0.0850  -0.0416  -0.0395  -0.0182   0.0227   0.0973   0.0983
     0.1286   0.1517   0.2265   0.2539   0.2846   0.3437   0.3661   0.4475
     0.6230   0.7019   0.8924   1.0111   1.0207   1.0547   1.0550   1.1160
     1.1272   1.1602   1.3408   1.3744   1.3894   1.4809   1.4889   1.4896
     1.6303   1.6690   1.7388   1.7410   1.7835   1.8621   1.9441   1.9589
     1.9789   1.9964   2.2126   2.3476   2.7441   2.7901   2.8181   5.5490
     5.5688   5.6522   6.3038   6.4517   6.7707   7.0439   7.0481   7.3707
     7.9076   8.1219   8.2764   8.3838   8.5225   8.6083   8.7385   8.9260
     9.1540

          k = 0.0000 0.2640 0.0000 ( 34465 PWs)   bands (ev):

   -35.6065 -35.4790 -23.4183 -22.7225 -22.7223 -22.4819 -16.9888 -16.8793
   -16.8363 -16.7575 -16.6558 -16.5397 -15.0381 -14.9735 -14.7504 -14.7148
   -14.7111 -14.5093 -14.3205 -14.2025 -14.1885 -14.0511 -14.0421 -14.0259
   -13.8558 -13.8040 -13.6709  -8.6794  -8.4132  -8.2424  -7.9456  -7.9448
    -7.8486  -7.8481  -7.7469  -7.7407  -7.7406  -7.5999  -7.4561  -2.8583
    -2.8466  -2.7664  -2.6354  -2.4789  -2.4526  -2.4504  -2.3067  -2.3051
    -2.1041  -1.6868  -1.6189  -1.5965  -1.4992  -1.4928  -1.4836  -1.2651
    -1.0070  -0.9785  -0.9779  -0.8477  -0.8319  -0.8307  -0.6759  -0.6687
    -0.5645  -0.5627  -0.5431  -0.5237  -0.5213  -0.5061  -0.4248  -0.3451
    -0.2326  -0.1424  -0.0134  -0.0113   0.0451   0.0699   0.0829   0.1890
     0.2158   0.3504   0.3994   0.4239   0.5910   0.6604   0.6762   0.6991
     0.7539   0.8407   0.9439   1.0132   1.0687   1.1170   1.1396   1.1405
     1.1505   1.1708   1.2458   1.2682   1.3224   1.5511   1.5774   1.5855
     1.6054   1.6882   1.7203   1.8987   1.9104   1.9476   1.9494   1.9595
     2.0342   2.0754   2.3282   2.4761   3.0126   3.0167   3.6353   6.3772
     6.4616   6.4625   7.0297   7.2822   7.4182   7.7618   7.8646   7.8738
     8.2709   8.5919   8.6221   8.7347   8.8908   8.9347   9.0473   9.1232
     9.3528

          k = 0.0000 0.3960 0.0000 ( 34424 PWs)   bands (ev):

   -35.6021 -35.4746 -23.3644 -22.6544 -22.6541 -22.4172 -17.0156 -16.8928
   -16.8871 -16.7344 -16.6502 -16.5340 -14.9585 -14.9518 -14.7086 -14.6279
   -14.5433 -14.4586 -14.2763 -14.1797 -14.1317 -14.1283 -14.1181 -14.0522
   -14.0021 -13.9110 -13.7545  -8.6371  -8.5087  -8.1436  -7.9455  -7.9448
    -7.9268  -7.9262  -7.7416  -7.6904  -7.6122  -7.6121  -7.3361  -3.4992
    -3.3127  -3.3083  -3.0848  -3.0233  -3.0195  -2.9180  -2.3972  -2.3959
    -2.1274  -2.0274  -1.8340  -1.8269  -1.5538  -1.5316  -1.4060  -1.2271
    -1.2223  -1.1869  -1.1669  -1.1001  -1.0960  -1.0064  -0.8876  -0.8592
    -0.8575  -0.7750  -0.7709  -0.7578  -0.7336  -0.5992  -0.5342  -0.3570
    -0.3031  -0.1556  -0.1149   0.0036   0.0057   0.1001   0.1024   0.1447
     0.1892   0.4524   0.4682   0.5315   0.6444   0.7294   0.7548   0.8574
     0.8863   0.9003   0.9067   0.9386   0.9961   1.0624   1.1102   1.1115
     1.1515   1.2987   1.4208   1.5009   1.5936   1.5983   1.6979   1.7225
     1.7397   1.8304   1.9134   1.9239   1.9450   1.9804   2.1222   2.2164
     2.2871   2.3424   2.3437   2.4307   2.9052   2.9108   4.2119   7.0430
     7.2058   7.4097   7.4104   8.1958   8.2439   8.4215   8.4696   8.6556
     8.6672   9.0641   9.0645   9.0979   9.1683   9.2113   9.4132   9.4706
     9.4972

          k = 0.0000-0.5279 0.0000 ( 34482 PWs)   bands (ev):

   -35.6002 -35.4727 -23.3417 -22.6254 -22.6252 -22.3897 -17.0678 -16.9446
   -16.8421 -16.6896 -16.6478 -16.5317 -15.0008 -14.9954 -14.5940 -14.5283
   -14.5231 -14.3549 -14.3018 -14.2642 -14.1539 -14.1141 -14.1045 -14.0967
   -13.9898 -13.9436 -13.8242  -8.5836  -8.5802  -8.1013  -7.9564  -7.9559
    -7.9451  -7.9443  -7.7331  -7.7309  -7.5563  -7.5562  -7.2841  -3.7676
    -3.4912  -3.4878  -3.2625  -3.2537  -3.2402  -3.0877  -2.4133  -2.4120
    -2.1541  -2.1358  -1.9644  -1.9586  -1.5218  -1.4950  -1.3770  -1.3142
    -1.2565  -1.2504  -1.2250  -1.2220  -1.1152  -1.0877  -1.0013  -0.9747
    -0.9609  -0.8628  -0.8614  -0.8498  -0.8090  -0.6751  -0.5259  -0.3237
    -0.2850  -0.2014  -0.1617   0.0093   0.0113   0.0998   0.1090   0.1495
     0.1880   0.3951   0.4548   0.4870   0.5942   0.6075   0.7873   0.8047
     0.8304   0.8861   0.9779   0.9864   1.0054   1.0931   1.0945   1.2506
     1.3159   1.3684   1.4195   1.4539   1.7065   1.7123   1.7160   1.7620
     1.9884   1.9928   1.9967   2.0397   2.0670   2.1186   2.1357   2.1465
     2.1594   2.4234   2.5039   2.5052   2.7256   2.7331   4.3976   6.9631
     7.7820   7.8214   7.8225   7.9761   8.7038   8.8921   8.9340   8.9480
     8.9806   8.9940   9.0840   9.2718   9.2960   9.3537   9.4455   9.6282
     9.8077

          k = 0.1250 0.0000 0.0000 ( 34573 PWs)   bands (ev):

   -35.6116 -35.4841 -23.4782 -22.7970 -22.7968 -22.5529 -17.0837 -16.9310
   -16.7440 -16.6511 -16.6286 -16.5311 -15.2247 -15.1292 -14.9361 -14.7414
   -14.7285 -14.6032 -14.4249 -14.2145 -14.2123 -14.0184 -13.9986 -13.8720
   -13.7907 -13.6037 -13.5998  -8.7452  -8.3212  -8.2445  -7.9722  -7.9710
    -7.8471  -7.8469  -7.7872  -7.6835  -7.6832  -7.5540  -7.4175  -2.3973
    -2.3965  -2.1419  -1.8957  -1.8903  -1.8313  -1.8266  -1.8234  -1.7632
    -1.6081  -1.5824  -1.4771  -1.4350  -1.2441  -1.2424  -1.1449  -0.9384
    -0.7860  -0.6948  -0.6470  -0.6305  -0.5412  -0.5378  -0.4080  -0.3662
    -0.3632  -0.3579  -0.3079  -0.2933  -0.2636  -0.2509  -0.2461  -0.2278
    -0.2063  -0.1625  -0.0777   0.0406   0.0661   0.0676   0.0933   0.1380
     0.1707   0.1708   0.1908   0.2393   0.2504   0.3514   0.3976   0.4460
     0.6290   0.7104   0.7672   0.7752   0.8523   0.9596   0.9933   1.1556
     1.1780   1.1860   1.2997   1.3403   1.3730   1.4164   1.4601   1.5010
     1.5917   1.7951   1.8195   1.8271   1.8843   1.9428   1.9430   1.9654
     2.0841   2.0959   2.1481   2.2438   2.2705   2.5416   2.5462   5.3594
     5.3727   5.5333   6.2255   6.3545   6.6999   6.9520   6.9586   7.2983
     7.8409   8.0940   8.2309   8.4136   8.5318   8.6888   8.7872   8.9705
     9.2082

          k = 0.1250 0.1320 0.0000 ( 34564 PWs)   bands (ev):

   -35.6098 -35.4823 -23.4574 -22.7712 -22.7710 -22.5282 -17.0485 -16.8957
   -16.7471 -16.7142 -16.6305 -16.5949 -15.1433 -15.0570 -14.8786 -14.7358
   -14.7173 -14.5733 -14.3888 -14.2155 -14.2128 -14.0238 -14.0148 -13.9118
   -13.8248 -13.6577 -13.6211  -8.7211  -8.4590  -8.1729  -7.9914  -7.9910
    -7.9094  -7.9087  -7.7822  -7.6491  -7.6455  -7.6447  -7.3770  -2.4491
    -2.4479  -2.2264  -2.1641  -2.1422  -2.0280  -1.9173  -1.8746  -1.8677
    -1.7981  -1.7503  -1.6640  -1.6627  -1.5803  -1.3735  -1.3078  -1.2003
    -0.8320  -0.8146  -0.7757  -0.7026  -0.6976  -0.5953  -0.5876  -0.5511
    -0.5272  -0.5263  -0.4410  -0.2925  -0.2570  -0.2317  -0.2131  -0.1636
    -0.1064  -0.0866  -0.0502  -0.0208  -0.0152   0.0979   0.1261   0.1367
     0.1641   0.1949   0.2414   0.2643   0.2754   0.3059   0.4914   0.5791
     0.6094   0.8581   0.9612   1.0108   1.0115   1.0829   1.1096   1.1887
     1.1962   1.2044   1.2525   1.2724   1.2826   1.3735   1.5470   1.5653
     1.6080   1.6269   1.6374   1.6580   1.6854   1.7328   1.9890   2.0779
     2.3193   2.3240   2.5027   2.5936   2.7599   2.7985   2.8243   5.7029
     5.7111   5.8038   6.5003   6.6473   6.8946   7.2480   7.2508   7.5425
     7.9269   8.2639   8.3971   8.5291   8.6395   8.7203   8.9051   9.0284
     9.1402

          k = 0.1250 0.2640 0.0000 ( 34463 PWs)   bands (ev):

   -35.6054 -35.4779 -23.4061 -22.7073 -22.7071 -22.4673 -16.9593 -16.8762
   -16.8062 -16.7545 -16.7267 -16.6112 -14.9686 -14.9231 -14.7366 -14.7246
   -14.6883 -14.5039 -14.3018 -14.1978 -14.1890 -14.0733 -14.0620 -14.0165
   -13.8723 -13.8007 -13.6701  -8.6770  -8.5960  -8.1668  -8.0604  -8.0603
    -7.9464  -7.9456  -7.7928  -7.7477  -7.6364  -7.6363  -7.3718  -2.8811
    -2.8672  -2.7560  -2.6460  -2.4838  -2.4530  -2.4506  -2.3061  -2.3045
    -2.1172  -1.8256  -1.8219  -1.7621  -1.6588  -1.5363  -1.5026  -1.4914
    -1.0713  -1.0155  -1.0105  -0.9833  -0.9599  -0.8938  -0.8186  -0.7470
    -0.7180  -0.7178  -0.5936  -0.5671  -0.5446  -0.5246  -0.4903  -0.3458
    -0.2525  -0.1583  -0.0887  -0.0599  -0.0433   0.0944   0.1660   0.1855
     0.3271   0.3731   0.4725   0.5467   0.6171   0.7178   0.7212   0.7721
     0.9011   0.9764   0.9963   1.0402   1.0762   1.1621   1.2314   1.2812
     1.3017   1.3159   1.3408   1.3514   1.3756   1.4546   1.5380   1.5492
     1.5786   1.6147   1.6274   1.8479   1.9090   1.9158   1.9394   2.2053
     2.5164   2.5210   2.7340   2.8074   3.0238   3.0308   3.6373   6.4272
     6.5227   6.5236   7.0746   7.3617   7.5228   7.7381   8.0284   8.0322
     8.4347   8.4377   8.7464   8.7943   8.9038   8.9742   9.0792   9.1131
     9.1608

          k = 0.1250 0.3960 0.0000 ( 34482 PWs)   bands (ev):

   -35.6010 -35.4735 -23.3536 -22.6414 -22.6412 -22.4045 -17.0105 -16.8878
   -16.8606 -16.7181 -16.7074 -16.6028 -14.9235 -14.9185 -14.6346 -14.5642
   -14.5346 -14.4426 -14.2533 -14.1684 -14.1589 -14.1240 -14.1095 -14.0772
   -13.9758 -13.9036 -13.7398  -8.7000  -8.5915  -8.2164  -8.0909  -8.0905
    -7.9579  -7.9572  -7.8441  -7.7468  -7.6814  -7.6814  -7.4116  -3.4878
    -3.3538  -3.3467  -3.1137  -3.0148  -3.0111  -2.9382  -2.4053  -2.4041
    -2.1438  -1.9674  -1.8161  -1.8127  -1.6777  -1.6609  -1.6052  -1.4440
    -1.3578  -1.3242  -1.2885  -1.2023  -1.1475  -1.1444  -1.0278  -0.9379
    -0.8977  -0.8953  -0.8597  -0.8136  -0.7789  -0.7213  -0.5214  -0.3958
    -0.3437  -0.2087  -0.1011  -0.0631  -0.0114   0.1330   0.1776   0.1838
     0.3782   0.4049   0.5578   0.6477   0.7130   0.8761   0.8783   0.9304
     0.9932   1.0354   1.0370   1.0865   1.1211   1.1615   1.2042   1.2128
     1.2630   1.3682   1.4746   1.6227   1.6552   1.6661   1.6948   1.7276
     1.8215   1.8948   1.9137   1.9592   2.0675   2.3097   2.3107   2.3328
     2.4641   2.4712   2.6783   2.7367   2.9654   2.9777   4.2024   6.7753
     7.2672   7.2748   7.2841   8.0929   8.1479   8.2000   8.3941   8.6372
     8.6457   8.8761   9.0541   9.2271   9.3511   9.4393   9.5069   9.5734
     9.6076

          k = 0.1250-0.5279 0.0000 ( 34444 PWs)   bands (ev):

   -35.5992 -35.4717 -23.3315 -22.6134 -22.6132 -22.3779 -17.0621 -16.9390
   -16.8172 -16.7143 -16.6639 -16.5992 -14.9561 -14.9512 -14.5214 -14.4835
   -14.4674 -14.3531 -14.2852 -14.2427 -14.1868 -14.1010 -14.0975 -14.0777
   -14.0128 -13.9242 -13.7970  -8.7046  -8.5814  -8.2450  -8.0856  -8.0850
    -7.9627  -7.9620  -7.8544  -7.7452  -7.7158  -7.7155  -7.4374  -3.7574
    -3.5400  -3.5336  -3.2917  -3.2446  -3.2395  -3.1145  -2.4263  -2.4251
    -2.1532  -2.0619  -1.8460  -1.8416  -1.6336  -1.6221  -1.5393  -1.5168
    -1.4899  -1.3777  -1.3752  -1.3241  -1.2344  -1.2200  -1.1867  -0.9844
    -0.9749  -0.9703  -0.9655  -0.9019  -0.8750  -0.8265  -0.5093  -0.3878
    -0.3385  -0.2242  -0.1103  -0.0481   0.0134   0.1442   0.1879   0.1896
     0.3777   0.4193   0.5876   0.6169   0.6974   0.7789   0.9065   0.9189
     0.9291   0.9317   0.9995   1.1011   1.1535   1.2372   1.2480   1.3152
     1.3970   1.4013   1.4407   1.6677   1.7535   1.7995   1.9814   1.9972
     2.0057   2.0143   2.1150   2.1347   2.1843   2.3218   2.3249   2.4093
     2.4749   2.4761   2.5277   2.5865   2.8445   2.8608   4.3839   6.6916
     7.4939   7.4961   7.7049   7.9346   8.2799   8.3671   8.5111   9.0087
     9.0858   9.2194   9.2812   9.3031   9.4626   9.7237   9.7840   9.7972
     9.8902

          k = 0.2500 0.0000 0.0000 ( 34590 PWs)   bands (ev):

   -35.6090 -35.4815 -23.4438 -22.7527 -22.7525 -22.5106 -16.9984 -16.9081
   -16.8443 -16.7937 -16.6478 -16.5278 -15.0262 -14.9904 -14.9877 -14.8237
   -14.7725 -14.6269 -14.4352 -14.2287 -14.2274 -14.0656 -14.0306 -13.9349
   -13.8926 -13.6863 -13.6285  -8.7692  -8.2334  -8.1829  -7.9737  -7.9727
    -7.8085  -7.7605  -7.7604  -7.6028  -7.6025  -7.4702  -7.3419  -2.5897
    -2.5876  -2.3804  -2.2340  -2.2333  -2.1034  -2.0512  -1.7708  -1.7575
    -1.6734  -1.5139  -1.4975  -1.4430  -1.2408  -1.2390  -1.1948  -1.0100
    -1.0042  -0.9337  -0.8860  -0.7941  -0.7931  -0.7789  -0.6654  -0.5924
    -0.5583  -0.5547  -0.4905  -0.4704  -0.3423  -0.3100  -0.2750  -0.2733
    -0.2626  -0.2212  -0.1379  -0.1111   0.0533   0.0549   0.1511   0.1585
     0.1660   0.2980   0.3000   0.4254   0.4320   0.4723   0.5265   0.5748
     0.6369   0.6553   0.7634   0.8560   0.9085   0.9455   0.9955   1.0075
     1.2542   1.2686   1.2826   1.2990   1.3894   1.4163   1.4365   1.5265
     1.6367   1.6394   1.6801   1.8408   1.8578   1.9330   2.0042   2.0284
     2.0567   2.1061   2.2867   2.4476   2.5051   2.6485   2.6538   5.8279
     5.8299   6.0210   6.8328   6.9827   7.1042   7.5235   7.5324   7.7504
     8.0096   8.4601   8.4950   8.6868   8.8937   9.0711   9.2531   9.3473
     9.4126

          k = 0.2500 0.1320 0.0000 ( 34551 PWs)   bands (ev):

   -35.6072 -35.4797 -23.4242 -22.7289 -22.7287 -22.4877 -16.9663 -16.9017
   -16.8121 -16.7871 -16.7139 -16.5936 -14.9756 -14.9491 -14.9267 -14.7748
   -14.7209 -14.5916 -14.3888 -14.2146 -14.2145 -14.0643 -14.0437 -13.9493
   -13.9158 -13.7125 -13.6437  -8.7471  -8.4842  -8.1081  -8.0422  -8.0420
    -7.8972  -7.8966  -7.8319  -7.6500  -7.5691  -7.5690  -7.3084  -2.6396
    -2.6335  -2.4180  -2.2269  -2.2246  -2.1472  -2.1177  -2.0786  -2.0476
    -1.9730  -1.8456  -1.7648  -1.6547  -1.6532  -1.4348  -1.3824  -1.2966
    -1.0486  -1.0429  -0.9999  -0.9331  -0.9063  -0.8378  -0.7438  -0.6589
    -0.6396  -0.6341  -0.5816  -0.4961  -0.4119  -0.3638  -0.3284  -0.2402
    -0.2234  -0.0565  -0.0518  -0.0125   0.0133   0.0754   0.1263   0.1715
     0.1840   0.2994   0.3061   0.3414   0.4724   0.5810   0.6240   0.7527
     0.8314   0.8793   0.8883   0.9306   1.0269   1.0369   1.1343   1.1600
     1.1939   1.2269   1.3521   1.3813   1.4033   1.4517   1.4560   1.4941
     1.5197   1.6100   1.6540   1.7073   1.7115   1.8955   1.9570   2.1367
     2.6388   2.6543   2.8099   2.8338   2.8436   2.8932   2.9820   6.0898
     6.0912   6.1782   7.0114   7.1675   7.2322   7.7166   7.7877   7.7997
     8.2065   8.5772   8.5906   8.6308   8.8254   9.0272   9.1486   9.2104
     9.3548

          k = 0.2500 0.2640 0.0000 ( 34523 PWs)   bands (ev):

   -35.6028 -35.4753 -23.3763 -22.6702 -22.6700 -22.4314 -16.9019 -16.8778
   -16.8504 -16.7810 -16.7324 -16.7264 -14.8860 -14.8778 -14.7549 -14.6351
   -14.5909 -14.5034 -14.2661 -14.1895 -14.1875 -14.1144 -14.0907 -13.9966
   -13.9152 -13.7919 -13.6704  -8.7983  -8.6696  -8.2624  -8.2622  -8.2234
    -7.9896  -7.9589  -7.9583  -7.7591  -7.6890  -7.6887  -7.4312  -3.0184
    -2.9950  -2.7680  -2.7034  -2.5322  -2.4661  -2.4631  -2.3383  -2.3372
    -2.2443  -2.1952  -2.1937  -2.0439  -2.0001  -1.6383  -1.4764  -1.4494
    -1.4462  -1.4375  -1.3076  -1.1725  -1.1012  -0.9703  -0.9428  -0.8272
    -0.7586  -0.7493  -0.6463  -0.6262  -0.6186  -0.6003  -0.5346  -0.4275
    -0.3700  -0.3292  -0.2695  -0.0073   0.0348   0.0735   0.2936   0.3166
     0.4879   0.5186   0.5876   0.7533   0.7710   0.8173   0.8833   0.9338
     0.9364   1.1134   1.1838   1.2297   1.2588   1.3079   1.3296   1.3627
     1.4225   1.4513   1.4590   1.4918   1.5023   1.5685   1.5914   1.6292
     1.6306   1.6649   1.6685   1.8308   1.8328   1.9384   2.0460   2.2573
     2.9600   2.9622   3.2465   3.2577   3.3952   3.5022   3.6454   6.3668
     6.6328   6.6335   7.1916   7.5586   7.6675   7.7685   8.3194   8.3204
     8.4974   8.7110   8.8184   8.9630   9.0247   9.1645   9.2686   9.3111
     9.3654

          k = 0.2500 0.3960 0.0000 ( 34490 PWs)   bands (ev):

   -35.5985 -35.4709 -23.3273 -22.6098 -22.6095 -22.3735 -16.9984 -16.8760
   -16.8661 -16.7920 -16.7510 -16.6385 -14.8423 -14.8397 -14.5296 -14.4659
   -14.4495 -14.4035 -14.2397 -14.2077 -14.1233 -14.1166 -14.1065 -14.0748
   -13.9232 -13.8764 -13.7023  -8.9594  -8.6155  -8.4395  -8.3824  -8.3821
    -8.1203  -8.0093  -8.0088  -7.9029  -7.9026  -7.7770  -7.6482  -3.5209
    -3.4939  -3.4544  -3.2294  -3.0267  -2.9905  -2.9898  -2.4765  -2.4757
    -2.2628  -2.1587  -2.1538  -2.0257  -1.9476  -1.8650  -1.7981  -1.7932
    -1.6096  -1.5227  -1.4742  -1.4425  -1.3164  -1.1850  -1.1753  -0.9069
    -0.8562  -0.8374  -0.8246  -0.8189  -0.7864  -0.7385  -0.5710  -0.5122
    -0.5032  -0.4305  -0.3378   0.0464   0.1143   0.1631   0.3309   0.3804
     0.6244   0.6304   0.8286   0.9522   0.9533   0.9803   1.0487   1.2204
     1.2563   1.2603   1.2896   1.2973   1.4006   1.4313   1.4602   1.4806
     1.5309   1.5766   1.6086   1.6962   1.7206   1.7489   1.7799   1.8461
     1.8733   1.9108   1.9310   1.9953   2.1717   2.2314   2.2324   2.3574
     2.7914   2.7944   3.4760   3.4976   3.6321   3.7240   4.1754   6.1392
     6.8405   6.8412   7.3040   7.7037   7.8356   8.0557   8.4791   8.7703
     8.7823   8.9783   9.1413   9.3492   9.6543   9.7149   9.7543   9.8344
     9.8754

          k = 0.2500-0.5279 0.0000 ( 34528 PWs)   bands (ev):

   -35.5966 -35.4691 -23.3066 -22.5842 -22.5840 -22.3490 -17.0486 -16.9258
   -16.8606 -16.7524 -16.7457 -16.5989 -14.8391 -14.8358 -14.3886 -14.3879
   -14.3765 -14.3493 -14.2514 -14.2503 -14.1853 -14.0936 -14.0920 -14.0308
   -13.9941 -13.8727 -13.7296  -8.9923  -8.5906  -8.5558  -8.3826  -8.3820
    -8.1420  -8.0974  -8.0973  -7.9691  -7.9684  -7.7928  -7.7567  -3.7465
    -3.7005  -3.6937  -3.4224  -3.2292  -3.2181  -3.2083  -2.4839  -2.4831
    -2.2490  -2.1208  -2.1158  -2.0076  -1.9879  -1.9552  -1.9222  -1.8940
    -1.7008  -1.6496  -1.5086  -1.4748  -1.3877  -1.2717  -1.2647  -0.9720
    -0.9377  -0.8944  -0.8528  -0.8395  -0.8333  -0.8212  -0.5849  -0.5317
    -0.5084  -0.4415  -0.3445   0.0553   0.1428   0.2013   0.3437   0.4165
     0.6636   0.7175   0.9420   1.0079   1.0565   1.0567   1.0648   1.1696
     1.1964   1.2038   1.3371   1.4228   1.4290   1.4491   1.4777   1.5161
     1.5200   1.6422   1.6817   1.8510   1.8860   1.9272   1.9659   1.9957
     2.0115   2.0481   2.0838   2.1064   2.2985   2.3947   2.4071   2.4081
     2.5690   2.5731   3.4960   3.5231   3.6673   3.7554   4.3405   5.9816
     6.8039   6.8063   7.3274   7.6812   7.9381   8.1799   8.3185   8.9309
     9.1345   9.2257   9.4935   9.5046   9.7019   9.8338   9.9194  10.0517
    10.0743

          k = 0.3750 0.0000 0.0000 ( 34518 PWs)   bands (ev):

   -35.6063 -35.4788 -23.4087 -22.7073 -22.7071 -22.4673 -17.0480 -16.9341
   -16.9032 -16.7472 -16.6445 -16.5245 -15.0729 -15.0638 -15.0551 -14.6781
   -14.6536 -14.6298 -14.3985 -14.2408 -14.2340 -14.1757 -14.0883 -14.0257
   -13.9434 -13.7484 -13.6636  -8.7618  -8.1809  -8.1194  -7.9562  -7.9553
    -7.7984  -7.6956  -7.6956  -7.5184  -7.5181  -7.4217  -7.2632  -2.9174
    -2.9137  -2.7385  -2.5009  -2.3570  -2.3558  -2.0892  -1.6890  -1.6620
    -1.6074  -1.5662  -1.5283  -1.4069  -1.2568  -1.2424  -1.2407  -1.2182
    -1.0906  -1.0428  -1.0365  -1.0053  -0.9328  -0.9218  -0.9089  -0.7993
    -0.7582  -0.7549  -0.7061  -0.6695  -0.4686  -0.4307  -0.2960  -0.2768
    -0.2695  -0.2584  -0.1872  -0.1766   0.0405   0.0421   0.1004   0.1479
     0.1553   0.3765   0.3790   0.4011   0.4029   0.4327   0.5032   0.5402
     0.7046   0.7306   0.7787   0.8586   0.8715   1.0241   1.1591   1.1593
     1.1982   1.2593   1.3231   1.3359   1.4055   1.4228   1.4890   1.5262
     1.6258   1.7291   1.7427   1.7788   1.8871   1.9318   1.9928   2.1148
     2.1364   2.1441   2.3296   2.5494   2.5516   2.7630   2.7760   6.4775
     6.4794   6.5033   7.3094   7.6555   7.7445   7.9720   7.9751   7.9954
     8.4504   8.5183   8.6523   9.0053   9.2980   9.4152   9.4681   9.5184
     9.5715

          k = 0.3750 0.1320 0.0000 ( 34583 PWs)   bands (ev):

   -35.6046 -35.4771 -23.3906 -22.6856 -22.6854 -22.4463 -17.0394 -16.9255
   -16.8741 -16.7180 -16.7090 -16.5887 -15.0223 -15.0167 -14.9865 -14.6376
   -14.6095 -14.5689 -14.3451 -14.2125 -14.2106 -14.1517 -14.0817 -14.0088
   -13.9748 -13.7537 -13.6766  -8.7430  -8.4223  -8.1652  -8.0137  -8.0133
    -7.8590  -7.8586  -7.8244  -7.6082  -7.6078  -7.6008  -7.3563  -2.9792
    -2.9708  -2.7825  -2.5263  -2.3558  -2.3547  -2.1136  -2.0587  -2.0463
    -1.8864  -1.7795  -1.7636  -1.6433  -1.6417  -1.5020  -1.4606  -1.3693
    -1.3367  -1.3333  -1.2255  -1.0922  -1.0092  -0.9080  -0.8481  -0.8162
    -0.7574  -0.7118  -0.6429  -0.6028  -0.5818  -0.4431  -0.4341  -0.2937
    -0.2903  -0.0838  -0.0732   0.0180   0.0932   0.1008   0.1397   0.1622
     0.1714   0.3300   0.3991   0.4154   0.4206   0.6417   0.6582   0.7674
     0.7984   0.8503   0.9327   0.9967   1.0841   1.1009   1.1596   1.1883
     1.2287   1.2872   1.3344   1.3415   1.4292   1.4923   1.5140   1.5552
     1.6741   1.7178   1.7230   1.7656   1.8287   1.9358   2.0742   2.1365
     2.7152   2.7247   2.8401   2.9277   2.9460   3.1061   3.1594   6.4651
     6.6281   6.6288   7.3318   7.6897   7.7931   7.9470   8.0401   8.0406
     8.4704   8.6163   8.7369   8.8754   9.1957   9.3305   9.4235   9.4773
     9.6108

          k = 0.3750 0.2640 0.0000 ( 34595 PWs)   bands (ev):

   -35.6002 -35.4727 -23.3460 -22.6323 -22.6321 -22.3948 -17.0190 -16.9051
   -16.8533 -16.7989 -16.7314 -16.6437 -14.8995 -14.8963 -14.7917 -14.5420
   -14.5074 -14.4195 -14.2311 -14.1724 -14.1543 -14.1393 -14.0854 -14.0199
   -13.9481 -13.7819 -13.6850  -8.8541  -8.6658  -8.4178  -8.3151  -8.3149
    -8.0460  -7.9936  -7.9933  -7.8713  -7.8709  -7.7722  -7.6311  -3.2948
    -3.2653  -3.0213  -2.7466  -2.6959  -2.5261  -2.5224  -2.4072  -2.4065
    -2.3816  -2.2777  -2.2756  -2.2481  -2.0763  -1.8048  -1.7670  -1.6492
    -1.5732  -1.4564  -1.2849  -1.2602  -1.1042  -0.9707  -0.9563  -0.9017
    -0.8800  -0.8399  -0.6910  -0.6810  -0.6730  -0.6553  -0.5195  -0.5143
    -0.4221  -0.3973  -0.3444   0.0233   0.0767   0.2404   0.3745   0.4262
     0.6046   0.6314   0.6785   0.7912   0.8052   0.9800   0.9821   1.0874
     1.1452   1.1770   1.2124   1.2172   1.3749   1.3794   1.4187   1.4363
     1.4975   1.5362   1.5845   1.6134   1.6457   1.6670   1.7136   1.7267
     1.7362   1.7802   1.7875   1.8019   1.9131   2.0464   2.1434   2.1806
     2.9600   2.9637   3.6419   3.7032   3.7065   3.8285   3.9195   6.0879
     6.6736   6.6742   7.2449   7.6069   7.7573   7.9432   8.3793   8.3866
     8.7873   8.8861   9.1222   9.1456   9.3502   9.3959   9.4672   9.6662
     9.7527

          k = 0.3750 0.3960 0.0000 ( 34549 PWs)   bands (ev):

   -35.5959 -35.4684 -23.3006 -22.5776 -22.5774 -22.3420 -17.0017 -16.9801
   -16.8866 -16.8591 -16.7191 -16.5638 -14.7645 -14.7630 -14.5309 -14.4499
   -14.4156 -14.2629 -14.2539 -14.2090 -14.1055 -14.1028 -14.0277 -14.0183
   -13.9229 -13.8126 -13.6686  -9.1656  -8.7174  -8.6140  -8.5809  -8.5805
    -8.3192  -8.2459  -8.2459  -7.9962  -7.9953  -7.9380  -7.7997  -3.7742
    -3.7379  -3.4842  -3.3987  -3.2037  -2.9713  -2.9698  -2.6579  -2.6562
    -2.4967  -2.3266  -2.3043  -2.3041  -2.1173  -2.0865  -2.0729  -1.8747
    -1.7554  -1.7097  -1.3344  -1.2379  -1.2346  -1.2333  -1.2240  -0.9851
    -0.9754  -0.8939  -0.8862  -0.8274  -0.7444  -0.7183  -0.7039  -0.5953
    -0.4780  -0.4212  -0.4180   0.1133   0.2282   0.2901   0.4510   0.6056
     0.8197   0.9347   1.0370   1.1303   1.1326   1.2271   1.2541   1.3277
     1.3579   1.4491   1.4571   1.4618   1.5507   1.6014   1.6564   1.6923
     1.7176   1.7271   1.7606   1.8452   1.8566   1.8885   1.9116   1.9315
     1.9777   2.0107   2.0405   2.1074   2.1532   2.1541   2.3770   2.3921
     2.7793   2.7853   4.1207   4.2210   4.2312   4.3082   4.3972   5.5716
     6.3702   6.3711   7.0392   7.3442   7.8323   7.9358   8.6881   8.8689
     8.9582   8.9929   9.3370   9.4748   9.4996   9.5476   9.5863   9.6973
     9.8728

          k = 0.3750-0.5279 0.0000 ( 34580 PWs)   bands (ev):

   -35.5941 -35.4666 -23.2815 -22.5546 -22.5544 -22.3198 -17.0353 -16.9891
   -16.9127 -16.8753 -16.6837 -16.5286 -14.7032 -14.7023 -14.4227 -14.3866
   -14.3471 -14.3105 -14.2278 -14.1723 -14.0961 -14.0858 -14.0839 -13.9710
   -13.9452 -13.7978 -13.6599  -9.2772  -8.8447  -8.6629  -8.6623  -8.5931
    -8.4177  -8.3911  -8.3911  -8.0639  -8.0220  -8.0208  -7.8137  -3.9809
    -3.9441  -3.7297  -3.6230  -3.4058  -3.1966  -3.1951  -2.6763  -2.6747
    -2.5078  -2.3280  -2.2983  -2.2980  -2.2245  -2.1846  -2.0869  -1.9572
    -1.8562  -1.7577  -1.4046  -1.3453  -1.3373  -1.2648  -1.2617  -0.9843
    -0.9798  -0.9797  -0.9675  -0.9108  -0.8190  -0.7799  -0.6983  -0.5965
    -0.4645  -0.4077  -0.4053   0.1458   0.2672   0.3043   0.4736   0.6880
     0.8894   1.0668   1.2115   1.2423   1.2530   1.2782   1.3221   1.3285
     1.3653   1.5159   1.5668   1.6311   1.6674   1.6846   1.7195   1.7372
     1.7736   1.8440   1.8486   1.9699   1.9822   2.0180   2.0309   2.0485
     2.1189   2.1569   2.1634   2.2579   2.3419   2.3446   2.4479   2.5343
     2.5372   2.5431   4.2357   4.3646   4.3864   4.4559   4.5396   5.3544
     6.1926   6.1935   6.9439   7.2551   7.8125   7.9526   8.5966   8.7635
     9.1062   9.1270   9.3417   9.4687   9.5529   9.7438   9.8164   9.8603
     9.9664

          k =-0.5000 0.0000 0.0000 ( 34514 PWs)   bands (ev):

   -35.6052 -35.4777 -23.3940 -22.6881 -22.6879 -22.4491 -17.1003 -16.9867
   -16.8610 -16.7041 -16.6431 -16.5231 -15.1290 -15.1196 -15.0879 -14.6969
   -14.6292 -14.4185 -14.3476 -14.2634 -14.2521 -14.2228 -14.1727 -14.0688
   -13.9569 -13.7689 -13.6808  -8.7519  -8.1675  -8.0925  -7.9459  -7.9450
    -7.7881  -7.6725  -7.6725  -7.4823  -7.4819  -7.4084  -7.2296  -3.0594
    -3.0562  -2.8831  -2.6548  -2.3821  -2.3808  -2.0869  -1.6791  -1.6462
    -1.6413  -1.6056  -1.4019  -1.3137  -1.2992  -1.2858  -1.2462  -1.2446
    -1.2007  -1.1797  -1.1253  -1.0219  -1.0027  -0.9445  -0.9239  -0.8650
    -0.8399  -0.8384  -0.8051  -0.7784  -0.5307  -0.4845  -0.3038  -0.2819
    -0.2702  -0.2453  -0.2421  -0.1955   0.0352   0.0368   0.1033   0.1110
     0.1222   0.3765   0.3784   0.4017   0.4033   0.4249   0.4729   0.5041
     0.6182   0.7934   0.8396   0.8443   0.8900   1.0682   1.1086   1.1091
     1.3365   1.3438   1.3473   1.3532   1.3702   1.4413   1.5656   1.6223
     1.6274   1.6291   1.6808   1.8427   1.9278   2.0123   2.0777   2.1274
     2.1495   2.1504   2.3379   2.5317   2.5567   2.7894   2.8108   6.7117
     7.2521   7.2523   7.2955   7.3044   7.3092   7.9778   8.2423   8.5064
     8.5200   8.5975   8.9913   9.0478   9.4209   9.4298   9.5319   9.5563
     9.5899

          k =-0.5000 0.1320 0.0000 ( 34570 PWs)   bands (ev):

   -35.6035 -35.4760 -23.3764 -22.6674 -22.6671 -22.4289 -17.0911 -16.9775
   -16.8335 -16.7068 -16.6764 -16.5866 -15.0706 -15.0632 -15.0142 -14.6563
   -14.5912 -14.3772 -14.2893 -14.2244 -14.2228 -14.2007 -14.1427 -14.0335
   -13.9946 -13.7670 -13.6954  -8.7314  -8.3121  -8.2851  -7.9849  -7.9843
    -7.8076  -7.8020  -7.8019  -7.6852  -7.6848  -7.5291  -7.4434  -3.1277
    -3.1198  -2.9350  -2.6860  -2.3870  -2.3858  -2.1230  -2.0293  -2.0116
    -1.8302  -1.7559  -1.7353  -1.6380  -1.6363  -1.5399  -1.4920  -1.4522
    -1.4476  -1.3860  -1.3364  -1.1346  -1.1033  -0.8955  -0.8942  -0.8942
    -0.7395  -0.7298  -0.6789  -0.6690  -0.6223  -0.4798  -0.4727  -0.3174
    -0.3169  -0.0979  -0.0824   0.0338   0.1051   0.1093   0.1566   0.1578
     0.2127   0.2630   0.4032   0.4883   0.4897   0.5659   0.5805   0.7368
     0.7823   0.8826   0.8959   1.0266   1.0937   1.0965   1.1553   1.1986
     1.2543   1.2556   1.3888   1.4016   1.4576   1.4862   1.6039   1.6501
     1.6602   1.6961   1.7055   1.8493   1.8919   2.0590   2.1238   2.1609
     2.7227   2.7279   2.8464   2.9470   2.9664   3.1595   3.1945   6.5321
     7.0999   7.1001   7.3041   7.6070   7.6106   7.9892   8.1495   8.2426
     8.4481   8.7199   8.8831   9.2595   9.4339   9.4798   9.5397   9.5960
     9.6398

          k =-0.5000 0.2640 0.0000 ( 34584 PWs)   bands (ev):

   -35.5992 -35.4716 -23.3334 -22.6164 -22.6161 -22.3794 -17.0691 -16.9555
   -16.8500 -16.7624 -16.7282 -16.6063 -14.9184 -14.9137 -14.8088 -14.5596
   -14.5021 -14.2735 -14.1906 -14.1772 -14.1587 -14.1501 -14.0629 -14.0622
   -13.9519 -13.7771 -13.7008  -8.8084  -8.6644  -8.5650  -8.2539  -8.2534
    -8.1031  -8.1030  -7.9989  -7.9347  -7.9340  -7.8091  -7.7524  -3.4333
    -3.4039  -3.1670  -2.8896  -2.6888  -2.5516  -2.5480  -2.4198  -2.4168
    -2.3967  -2.2890  -2.2834  -2.2733  -2.0812  -1.9292  -1.8855  -1.7062
    -1.6086  -1.5466  -1.2110  -1.1723  -1.0844  -0.9949  -0.9935  -0.9288
    -0.9013  -0.8607  -0.7144  -0.7086  -0.6982  -0.6978  -0.5242  -0.5072
    -0.4196  -0.4186  -0.3711   0.0319   0.0911   0.3159   0.4071   0.4704
     0.6481   0.7099   0.7159   0.8232   0.8286   1.0655   1.0696   1.1187
     1.1470   1.1557   1.1857   1.1957   1.3558   1.4159   1.4460   1.4895
     1.5135   1.5229   1.6212   1.6728   1.6836   1.7350   1.7762   1.7863
     1.7892   1.7979   1.8806   1.8822   1.9281   2.0349   2.1216   2.2537
     2.9530   2.9572   3.6510   3.8398   3.8455   3.9610   4.0444   5.9441
     6.6696   6.6701   7.1785   7.5466   7.8378   8.0527   8.4165   8.4213
     8.9254   9.0666   9.0990   9.3409   9.4447   9.5647   9.5892   9.6808
     9.7915

          k =-0.5000 0.3960 0.0000 ( 34556 PWs)   bands (ev):

   -35.5948 -35.4673 -23.2895 -22.5642 -22.5640 -22.3288 -17.0475 -16.9792
   -16.9340 -16.8570 -16.6868 -16.5308 -14.7354 -14.7332 -14.5375 -14.4710
   -14.4280 -14.2463 -14.1996 -14.1655 -14.1037 -14.1020 -14.0019 -13.9709
   -13.9364 -13.7809 -13.6584  -9.2299  -8.8413  -8.6291  -8.6285  -8.6182
    -8.3912  -8.3910  -8.3774  -8.0731  -8.0125  -8.0115  -7.8115  -3.9046
    -3.8649  -3.5904  -3.4068  -3.3156  -2.9629  -2.9613  -2.7282  -2.7259
    -2.5677  -2.4198  -2.3218  -2.3205  -2.2169  -2.1745  -2.0923  -1.9175
    -1.8224  -1.7368  -1.3076  -1.2586  -1.2543  -1.1310  -1.1220  -1.0728
    -1.0662  -0.9124  -0.9103  -0.8105  -0.8032  -0.7091  -0.6990  -0.6629
    -0.4807  -0.3839  -0.3827   0.1277   0.2490   0.3757   0.5034   0.7007
     0.9098   1.0874   1.1044   1.2628   1.2633   1.2651   1.2814   1.3616
     1.3929   1.4980   1.5311   1.5372   1.5558   1.6692   1.6822   1.7173
     1.7429   1.7828   1.8146   1.8843   1.9370   1.9521   1.9726   1.9884
     2.0420   2.0871   2.1235   2.1301   2.1539   2.2329   2.3223   2.5204
     2.7670   2.7743   4.1194   4.4845   4.4873   4.5525   4.6344   5.3543
     6.1748   6.1752   6.8959   7.1987   7.8343   7.9213   8.6177   8.9021
     8.9527   8.9583   9.4019   9.4929   9.5340   9.6183   9.7147   9.8354
     9.8728

          k =-0.5000-0.5279 0.0000 ( 34620 PWs)   bands (ev):

   -35.5930 -35.4655 -23.2711 -22.5422 -22.5420 -22.3075 -17.0387 -17.0298
   -16.9252 -16.9073 -16.6533 -16.4976 -14.6386 -14.6376 -14.4633 -14.4128
   -14.3468 -14.2919 -14.2253 -14.1211 -14.0824 -14.0783 -14.0218 -13.9611
   -13.9302 -13.7558 -13.6305  -9.3953  -8.9554  -8.7751  -8.7745  -8.5954
    -8.5292  -8.5073  -8.5071  -8.1776  -8.0404  -8.0388  -7.8277  -4.1129
    -4.0720  -3.7991  -3.6661  -3.5159  -3.1872  -3.1856  -2.7607  -2.7583
    -2.5945  -2.4373  -2.3118  -2.3106  -2.3088  -2.2748  -2.0903  -1.9875
    -1.9143  -1.7794  -1.3742  -1.3736  -1.3710  -1.1953  -1.1870  -1.0472
    -1.0353  -1.0081  -1.0067  -0.9110  -0.8357  -0.8161  -0.7060  -0.6250
    -0.4830  -0.3553  -0.3539   0.1627   0.2892   0.3916   0.5313   0.8133
     1.0043   1.2375   1.2765   1.3236   1.3256   1.3391   1.3810   1.3828
     1.4141   1.6041   1.6244   1.7349   1.7406   1.7778   1.7949   1.8615
     1.8754   1.8825   1.9637   1.9797   2.0184   2.0346   2.0556   2.0726
     2.1725   2.2270   2.3044   2.3159   2.3179   2.4030   2.5073   2.5097
     2.5208   2.6721   4.2298   4.6850   4.6924   4.7548   4.8279   5.1157
     5.9480   5.9481   6.7786   7.0957   7.8084   7.8747   8.4384   9.0109
     9.0139   9.0279   9.0688   9.2466   9.4803   9.5330   9.8451   9.9215
    10.0797

     the Fermi energy is     2.5432 ev

!    total energy              =   -1842.85714528 Ry
     Harris-Foulkes estimate   =   -1842.85714528 Ry
     estimated scf accuracy    <          7.3E-11 Ry

     The total energy is the sum of the following terms:

     one-electron contribution =  -29026.42643092 Ry
     hartree contribution      =   14665.97664821 Ry
     xc contribution           =    -621.59169251 Ry
     ewald contribution        =   13139.19205446 Ry
     smearing contrib. (-TS)   =      -0.00772452 Ry

     convergence has been achieved in  39 iterations

     negative rho (up, down):  1.519E-03 0.000E+00

     Forces acting on atoms (cartesian axes, Ry/au):

     atom    1 type  4   force =     0.00000000    0.00000000   -0.00018282
     atom    2 type  3   force =     0.00000000    0.00000000    0.00041912
     atom    3 type  4   force =     0.00000000    0.00000000   -0.00078106
     atom    4 type  1   force =     0.00000000    0.00000000   -0.00027470
     atom    5 type  3   force =     0.00000000    0.00000000    0.00058358
     atom    6 type  4   force =     0.00000000    0.00000000    0.00002160
     atom    7 type  4   force =     0.00000000    0.00000000    0.00029649
     atom    8 type  2   force =     0.00000000    0.00000000   -0.00068882
     atom    9 type  4   force =     0.00000000    0.00000000    0.00020502
     atom   10 type  4   force =     0.00000000    0.00000000    0.00019954
     atom   11 type  3   force =     0.00000000    0.00000000    0.00036392
     atom   12 type  1   force =     0.00000000    0.00000000   -0.00085000
     atom   13 type  4   force =     0.00000000    0.00000000    0.00490768
     atom   14 type  4   force =     0.00000000    0.00000000    0.01071477
     atom   15 type  3   force =     0.00000000    0.00000000   -0.00804522
     atom   16 type  4   force =     0.00000000    0.00000000    0.00981902
     atom   17 type  1   force =     0.00000000    0.00000000    0.00888190
     atom   18 type  3   force =     0.00000000    0.00000000   -0.00359750
     atom   19 type  4   force =     0.00000000    0.00000000   -0.00406011
     atom   20 type  4   force =     0.00000000    0.00000000   -0.00471630
     atom   21 type  2   force =     0.00000000    0.00000000   -0.01582416
     atom   22 type  4   force =     0.00000000    0.00000000    0.00030904
     atom   23 type  4   force =     0.00000000    0.00000000    0.00147255
     atom   24 type  3   force =     0.00000000    0.00000000   -0.00018461
     atom   25 type  1   force =     0.00000000    0.00000000    0.00028638
     atom   26 type  4   force =     0.00000000    0.00000000    0.00107098
     atom   27 type  3   force =     0.00000000    0.00000000   -0.00063741
     atom   28 type  4   force =     0.00000000    0.00000000    0.00029113

     Total force =     0.025630     Total SCF correction =     0.000008


     Computing stress (Cartesian axis) and pressure


     negative rho (up, down):  1.519E-03 0.000E+00
          total   stress  (Ry/bohr**3)                   (kbar)     P=       -7.86
  -0.00007101   0.00000000   0.00000000          -10.45        0.00        0.00
   0.00000000  -0.00003798   0.00000000            0.00       -5.59        0.00
   0.00000000   0.00000000  -0.00005132            0.00        0.00       -7.55


     number of scf cycles    =   3
     number of bfgs steps    =   2

     energy   old            =   -1842.8872331073 Ry
     energy   new            =   -1842.8571452764 Ry

     CASE: energy  _new > energy  _old


 %%%%%%%%%%%%%%%%%%%%%%%%%%%%%%%%%%%%%%%%%%%%%%%%%%%%%%%%%%%%%%%%%%%%%%%%%%%%%%
     Error in routine bfgs (1):
     dE0s is positive which should never happen
 %%%%%%%%%%%%%%%%%%%%%%%%%%%%%%%%%%%%%%%%%%%%%%%%%%%%%%%%%%%%%%%%%%%%%%%%%%%%%%

     stopping ...
