
     Program PWSCF v.6.5 starts on 28Jun2021 at 16:57:50 

     This program is part of the open-source Quantum ESPRESSO suite
     for quantum simulation of materials; please cite
         "P. Giannozzi et al., J. Phys.:Condens. Matter 21 395502 (2009);
         "P. Giannozzi et al., J. Phys.:Condens. Matter 29 465901 (2017);
          URL http://www.quantum-espresso.org", 
     in publications or presentations arising from this work. More details at
     http://www.quantum-espresso.org/quote

     Parallel version (MPI), running on    20 processors

     MPI processes distributed on    10 nodes
     R & G space division:  proc/nbgrp/npool/nimage =      20
     Reading input from CBCO_BaO_cleave_7.0_sep.pwi
Warning: card &CELL ignored
Warning: card     CELL_DYNAMICS = 'BFGS' ignored
Warning: card     PRESS_CONV_THR = 5 ignored
Warning: card / ignored

     Current dimensions of program PWSCF are:
     Max number of different atomic species (ntypx) = 10
     Max number of k-points (npk) =  40000
     Max angular momentum in pseudopotentials (lmaxx) =  3

     Subspace diagonalization in iterative solution of the eigenvalue problem:
     one sub-group per band group will be used
     scalapack distributed-memory algorithm (size of sub-group:  4*  4 procs)

     Message from routine setup:
     using ibrav=0 with symmetry is DISCOURAGED, use correct ibrav instead
 
     Parallelization info
     --------------------
     sticks:   dense  smooth     PW     G-vecs:    dense   smooth      PW
     Min         149      50     14                81427    15678    2450
     Max         150      51     15                81472    15705    2501
     Sum        2991    1007    289              1629003   313757   49311
 


     bravais-lattice index     =            0
     lattice parameter (alat)  =       7.4270  a.u.
     unit-cell volume          =    4993.3692 (a.u.)^3
     number of atoms/cell      =           28
     number of atomic types    =            4
     number of electrons       =       227.00
     number of Kohn-Sham states=          137
     kinetic-energy cutoff     =      60.0000  Ry
     charge density cutoff     =     720.0000  Ry
     convergence threshold     =      1.0E-09
     mixing beta               =       0.7000
     number of iterations used =           10  local-TF  mixing
     Exchange-correlation= SLA PW PBE PBE
                           (   1   4   3   4   0   0   0)
     nstep                     =          300


     celldm(1)=   7.427040  celldm(2)=   0.000000  celldm(3)=   0.000000
     celldm(4)=   0.000000  celldm(5)=   0.000000  celldm(6)=   0.000000

     crystal axes: (cart. coord. in units of alat)
               a(1) = (   1.000000   0.000000   0.000000 )  
               a(2) = (   0.000000   0.947081   0.000000 )  
               a(3) = (   0.000000   0.000000  12.869427 )  

     reciprocal axes: (cart. coord. in units 2 pi/alat)
               b(1) = (  1.000000  0.000000  0.000000 )  
               b(2) = (  0.000000  1.055876  0.000000 )  
               b(3) = (  0.000000  0.000000  0.077704 )  


     PseudoPot. # 1 for Ba read from file:
     ./pseudo/Ba.pbe-nsp-van.UPF
     MD5 check sum: 2b9c31dd849566dd297d80989662b7a0
     Pseudo is Ultrasoft + core correction, Zval = 10.0
     Generated by new atomic code, or converted to UPF format
     Using radial grid of  907 points,  6 beta functions with: 
                l(1) =   0
                l(2) =   0
                l(3) =   1
                l(4) =   1
                l(5) =   2
                l(6) =   2
     Q(r) pseudized with  6 coefficients,  rinner =    1.200   1.200   1.200
                                                       1.200   1.200

     PseudoPot. # 2 for Ca read from file:
     ./pseudo/Ca.pbe-nsp-van.UPF
     MD5 check sum: 6471098428ff4fa451746d08035ff179
     Pseudo is Ultrasoft + core correction, Zval = 10.0
     Generated by new atomic code, or converted to UPF format
     Using radial grid of  845 points,  6 beta functions with: 
                l(1) =   0
                l(2) =   0
                l(3) =   1
                l(4) =   1
                l(5) =   2
                l(6) =   2
     Q(r) pseudized with  6 coefficients,  rinner =    1.200   1.200   1.200
                                                       1.200   1.200

     PseudoPot. # 3 for Cu read from file:
     ./pseudo/Cu.pbe-n-van_ak.UPF
     MD5 check sum: 34e3282627ffb533726feb647e090d62
     Pseudo is Ultrasoft + core correction, Zval = 11.0
     Generated by new atomic code, or converted to UPF format
     Using radial grid of  867 points,  6 beta functions with: 
                l(1) =   0
                l(2) =   0
                l(3) =   1
                l(4) =   1
                l(5) =   2
                l(6) =   2
     Q(r) pseudized with  8 coefficients,  rinner =    1.400   1.400   1.400
                                                       1.400   1.400

     PseudoPot. # 4 for O  read from file:
     ./pseudo/O.pbe-van_ak.UPF
     MD5 check sum: 783ce7fe4c79b6a4916957118fed0856
     Pseudo is Ultrasoft, Zval =  6.0
     Generated by new atomic code, or converted to UPF format
     Using radial grid of  737 points,  4 beta functions with: 
                l(1) =   0
                l(2) =   0
                l(3) =   1
                l(4) =   1
     Q(r) pseudized with  8 coefficients,  rinner =    0.800   0.800   0.800


     atomic species   valence    mass     pseudopotential
        Ba            10.00   137.32700     Ba( 1.00)
        Ca            10.00    40.07800     Ca( 1.00)
        Cu            11.00    63.54600     Cu( 1.00)
        O              6.00    15.99900     O ( 1.00)

      4 Sym. Ops. (no inversion) found



   Cartesian axes

     site n.     atom                  positions (alat units)
         1           O   tau(   1) = (   0.0000000   0.4735409  -0.0469745  )
         2           Cu  tau(   2) = (   0.0000000   0.0000000   0.0264565  )
         3           O   tau(   3) = (   0.0000000   0.0000000   0.5030914  )
         4           Ba  tau(   4) = (   0.5000000   0.4735409   0.5690292  )
         5           Cu  tau(   5) = (   0.0000000   0.0000000   1.0374254  )
         6           O   tau(   6) = (   0.5000000   0.0000000   1.0768099  )
         7           O   tau(   7) = (   0.0000000   0.4735409   1.1116985  )
         8           Ca  tau(   8) = (   0.5000000   0.4735409   1.4976260  )
         9           O   tau(   9) = (   0.0000000   0.4735409   1.8667529  )
        10           O   tau(  10) = (   0.5000000   0.0000000   1.9044124  )
        11           Cu  tau(  11) = (   0.0000000   0.0000000   1.9512546  )
        12           Ba  tau(  12) = (   0.5000000   0.4735409   2.4295764  )
        13           O   tau(  13) = (   0.0000000   0.0000000   2.5115362  )
        14           O   tau(  14) = (   0.0000000   0.4735409   2.9918528  )
        15           Cu  tau(  15) = (   0.0000000   0.0000000   2.9919088  )
        16           O   tau(  16) = (   0.0000000   0.0000000   3.4722686  )
        17           Ba  tau(  17) = (   0.5000000   0.4735409   3.5542208  )
        18           Cu  tau(  18) = (   0.0000000   0.0000000   5.8135955  )
        19           O   tau(  19) = (   0.5000000   0.0000000   5.8604377  )
        20           O   tau(  20) = (   0.0000000   0.4735409   5.8980920  )
        21           Ca  tau(  21) = (   0.5000000   0.4735409   6.2672291  )
        22           O   tau(  22) = (   0.0000000   0.4735409   6.6531541  )
        23           O   tau(  23) = (   0.5000000   0.0000000   6.6880427  )
        24           Cu  tau(  24) = (   0.0000000   0.0000000   6.7274298  )
        25           Ba  tau(  25) = (   0.5000000   0.4735409   7.1958234  )
        26           O   tau(  26) = (   0.0000000   0.0000000   7.2617510  )
        27           Cu  tau(  27) = (   0.0000000   0.0000000   7.7383910  )
        28           O   tau(  28) = (   0.0000000   0.4735409   7.8118093  )

     number of k points=    25  Gaussian smearing, width (Ry)=  0.0100
                       cart. coord. in units 2pi/alat
        k(    1) = (   0.0000000   0.0000000   0.0000000), wk =   0.0312500
        k(    2) = (   0.0000000   0.1319845   0.0000000), wk =   0.0625000
        k(    3) = (   0.0000000   0.2639689   0.0000000), wk =   0.0625000
        k(    4) = (   0.0000000   0.3959534   0.0000000), wk =   0.0625000
        k(    5) = (   0.0000000  -0.5279378   0.0000000), wk =   0.0312500
        k(    6) = (   0.1250000   0.0000000   0.0000000), wk =   0.0625000
        k(    7) = (   0.1250000   0.1319845   0.0000000), wk =   0.1250000
        k(    8) = (   0.1250000   0.2639689   0.0000000), wk =   0.1250000
        k(    9) = (   0.1250000   0.3959534   0.0000000), wk =   0.1250000
        k(   10) = (   0.1250000  -0.5279378   0.0000000), wk =   0.0625000
        k(   11) = (   0.2500000   0.0000000   0.0000000), wk =   0.0625000
        k(   12) = (   0.2500000   0.1319845   0.0000000), wk =   0.1250000
        k(   13) = (   0.2500000   0.2639689   0.0000000), wk =   0.1250000
        k(   14) = (   0.2500000   0.3959534   0.0000000), wk =   0.1250000
        k(   15) = (   0.2500000  -0.5279378   0.0000000), wk =   0.0625000
        k(   16) = (   0.3750000   0.0000000   0.0000000), wk =   0.0625000
        k(   17) = (   0.3750000   0.1319845   0.0000000), wk =   0.1250000
        k(   18) = (   0.3750000   0.2639689   0.0000000), wk =   0.1250000
        k(   19) = (   0.3750000   0.3959534   0.0000000), wk =   0.1250000
        k(   20) = (   0.3750000  -0.5279378   0.0000000), wk =   0.0625000
        k(   21) = (  -0.5000000   0.0000000   0.0000000), wk =   0.0312500
        k(   22) = (  -0.5000000   0.1319845   0.0000000), wk =   0.0625000
        k(   23) = (  -0.5000000   0.2639689   0.0000000), wk =   0.0625000
        k(   24) = (  -0.5000000   0.3959534   0.0000000), wk =   0.0625000
        k(   25) = (  -0.5000000  -0.5279378   0.0000000), wk =   0.0312500

     Dense  grid:  1629003 G-vectors     FFT dimensions: (  64,  64, 864)

     Smooth grid:   313757 G-vectors     FFT dimensions: (  40,  36, 480)

     Estimated max dynamical RAM per process >     519.11 MB

     Estimated total dynamical RAM >      10.14 GB

     Initial potential from superposition of free atoms

     starting charge  226.84630, renormalised to  227.00000

     negative rho (up, down):  3.391E-03 0.000E+00
     Starting wfcs are  195 randomized atomic wfcs

     total cpu time spent up to now is       12.8 secs

     Self-consistent Calculation

     iteration #  1     ecut=    60.00 Ry     beta= 0.70
     Davidson diagonalization with overlap
     ethr =  1.00E-02,  avg # of iterations =  2.0

     negative rho (up, down):  2.698E-04 0.000E+00

     total cpu time spent up to now is       30.5 secs

     total energy              =   -1838.95911149 Ry
     Harris-Foulkes estimate   =   -1845.43292840 Ry
     estimated scf accuracy    <      24.81517128 Ry

     iteration #  2     ecut=    60.00 Ry     beta= 0.70
     Davidson diagonalization with overlap
     ethr =  1.00E-02,  avg # of iterations =  2.0

     negative rho (up, down):  2.415E-04 0.000E+00

     total cpu time spent up to now is       52.4 secs

     total energy              =   -1842.00645556 Ry
     Harris-Foulkes estimate   =   -1844.19729994 Ry
     estimated scf accuracy    <       9.53490944 Ry

     iteration #  3     ecut=    60.00 Ry     beta= 0.70
     Davidson diagonalization with overlap
     ethr =  4.20E-03,  avg # of iterations =  2.0

     negative rho (up, down):  2.354E-04 0.000E+00

     total cpu time spent up to now is       73.2 secs

     total energy              =   -1842.68070452 Ry
     Harris-Foulkes estimate   =   -1843.05024867 Ry
     estimated scf accuracy    <       1.94343948 Ry

     iteration #  4     ecut=    60.00 Ry     beta= 0.70
     Davidson diagonalization with overlap
     ethr =  8.56E-04,  avg # of iterations =  2.1

     negative rho (up, down):  2.324E-04 0.000E+00

     total cpu time spent up to now is       91.9 secs

     total energy              =   -1842.86678298 Ry
     Harris-Foulkes estimate   =   -1842.96479187 Ry
     estimated scf accuracy    <       3.95495130 Ry

     iteration #  5     ecut=    60.00 Ry     beta= 0.70
     Davidson diagonalization with overlap
     ethr =  8.56E-04,  avg # of iterations =  1.0

     negative rho (up, down):  2.310E-04 0.000E+00

     total cpu time spent up to now is      111.0 secs

     total energy              =   -1842.84407002 Ry
     Harris-Foulkes estimate   =   -1842.90596452 Ry
     estimated scf accuracy    <       1.41255680 Ry

     iteration #  6     ecut=    60.00 Ry     beta= 0.70
     Davidson diagonalization with overlap
     ethr =  6.22E-04,  avg # of iterations =  1.1

     negative rho (up, down):  2.289E-04 0.000E+00

     total cpu time spent up to now is      130.4 secs

     total energy              =   -1842.83496841 Ry
     Harris-Foulkes estimate   =   -1842.87341948 Ry
     estimated scf accuracy    <       1.17471415 Ry

     iteration #  7     ecut=    60.00 Ry     beta= 0.70
     Davidson diagonalization with overlap
     ethr =  5.17E-04,  avg # of iterations =  3.4

     negative rho (up, down):  2.290E-04 0.000E+00

     total cpu time spent up to now is      150.2 secs

     total energy              =   -1842.83825501 Ry
     Harris-Foulkes estimate   =   -1842.85217810 Ry
     estimated scf accuracy    <       1.94120636 Ry

     iteration #  8     ecut=    60.00 Ry     beta= 0.70
     Davidson diagonalization with overlap
     ethr =  5.17E-04,  avg # of iterations =  1.6

     negative rho (up, down):  2.277E-04 0.000E+00

     total cpu time spent up to now is      169.9 secs

     total energy              =   -1842.79110568 Ry
     Harris-Foulkes estimate   =   -1842.84326720 Ry
     estimated scf accuracy    <       1.66889919 Ry

     iteration #  9     ecut=    60.00 Ry     beta= 0.70
     Davidson diagonalization with overlap
     ethr =  5.17E-04,  avg # of iterations =  4.7

     negative rho (up, down):  2.292E-04 0.000E+00

     total cpu time spent up to now is      194.1 secs

     total energy              =   -1842.80214136 Ry
     Harris-Foulkes estimate   =   -1842.81840348 Ry
     estimated scf accuracy    <       1.11825019 Ry

     iteration # 10     ecut=    60.00 Ry     beta= 0.70
     Davidson diagonalization with overlap
     ethr =  4.93E-04,  avg # of iterations =  1.7

     negative rho (up, down):  2.453E-03 0.000E+00

     total cpu time spent up to now is      211.9 secs

     total energy              =   -1842.78529754 Ry
     Harris-Foulkes estimate   =   -1842.80986891 Ry
     estimated scf accuracy    <       0.34351719 Ry

     iteration # 11     ecut=    60.00 Ry     beta= 0.70
     Davidson diagonalization with overlap
     ethr =  1.51E-04,  avg # of iterations =  6.7

     negative rho (up, down):  6.205E-03 0.000E+00

     total cpu time spent up to now is      239.7 secs

     total energy              =   -1842.78710249 Ry
     Harris-Foulkes estimate   =   -1842.79355457 Ry
     estimated scf accuracy    <       0.22399278 Ry

     iteration # 12     ecut=    60.00 Ry     beta= 0.70
     Davidson diagonalization with overlap
     ethr =  9.87E-05,  avg # of iterations =  1.4

     negative rho (up, down):  8.572E-03 0.000E+00

     total cpu time spent up to now is      257.5 secs

     total energy              =   -1842.78557072 Ry
     Harris-Foulkes estimate   =   -1842.78926872 Ry
     estimated scf accuracy    <       0.11635142 Ry

     iteration # 13     ecut=    60.00 Ry     beta= 0.70
     Davidson diagonalization with overlap
     ethr =  5.13E-05,  avg # of iterations =  6.7

     negative rho (up, down):  9.408E-03 0.000E+00

     total cpu time spent up to now is      283.7 secs

     total energy              =   -1842.78610278 Ry
     Harris-Foulkes estimate   =   -1842.78714807 Ry
     estimated scf accuracy    <       0.06112249 Ry

     iteration # 14     ecut=    60.00 Ry     beta= 0.70
     Davidson diagonalization with overlap
     ethr =  2.69E-05,  avg # of iterations =  4.8

     negative rho (up, down):  4.308E-03 0.000E+00

     total cpu time spent up to now is      307.9 secs

     total energy              =   -1842.78512992 Ry
     Harris-Foulkes estimate   =   -1842.78664230 Ry
     estimated scf accuracy    <       0.03650126 Ry

     iteration # 15     ecut=    60.00 Ry     beta= 0.70
     Davidson diagonalization with overlap
     ethr =  1.61E-05,  avg # of iterations =  5.9

     negative rho (up, down):  2.593E-03 0.000E+00

     total cpu time spent up to now is      332.9 secs

     total energy              =   -1842.78521317 Ry
     Harris-Foulkes estimate   =   -1842.78584050 Ry
     estimated scf accuracy    <       0.01279847 Ry

     iteration # 16     ecut=    60.00 Ry     beta= 0.70
     Davidson diagonalization with overlap
     ethr =  5.64E-06,  avg # of iterations =  6.1

     negative rho (up, down):  3.473E-04 0.000E+00

     total cpu time spent up to now is      359.3 secs

     total energy              =   -1842.78519781 Ry
     Harris-Foulkes estimate   =   -1842.78545623 Ry
     estimated scf accuracy    <       0.00926568 Ry

     iteration # 17     ecut=    60.00 Ry     beta= 0.70
     Davidson diagonalization with overlap
     ethr =  4.08E-06,  avg # of iterations =  3.7

     negative rho (up, down):  2.358E-04 0.000E+00

     total cpu time spent up to now is      381.7 secs

     total energy              =   -1842.78500016 Ry
     Harris-Foulkes estimate   =   -1842.78527135 Ry
     estimated scf accuracy    <       0.00614520 Ry

     iteration # 18     ecut=    60.00 Ry     beta= 0.70
     Davidson diagonalization with overlap
     ethr =  2.71E-06,  avg # of iterations =  7.7

     negative rho (up, down):  2.448E-04 0.000E+00

     total cpu time spent up to now is      410.7 secs

     total energy              =   -1842.78462899 Ry
     Harris-Foulkes estimate   =   -1842.78505351 Ry
     estimated scf accuracy    <       0.00632233 Ry

     iteration # 19     ecut=    60.00 Ry     beta= 0.70
     Davidson diagonalization with overlap
     ethr =  2.71E-06,  avg # of iterations =  4.6

     negative rho (up, down):  2.298E-04 0.000E+00

     total cpu time spent up to now is      433.4 secs

     total energy              =   -1842.78429477 Ry
     Harris-Foulkes estimate   =   -1842.78469538 Ry
     estimated scf accuracy    <       0.00629511 Ry

     iteration # 20     ecut=    60.00 Ry     beta= 0.70
     Davidson diagonalization with overlap
     c_bands:  1 eigenvalues not converged
     ethr =  2.71E-06,  avg # of iterations =  7.2

     negative rho (up, down):  2.486E-04 0.000E+00

     total cpu time spent up to now is      461.1 secs

     total energy              =   -1842.78384810 Ry
     Harris-Foulkes estimate   =   -1842.78431516 Ry
     estimated scf accuracy    <       0.00388490 Ry

     iteration # 21     ecut=    60.00 Ry     beta= 0.70
     Davidson diagonalization with overlap
     ethr =  1.71E-06,  avg # of iterations =  8.0

     negative rho (up, down):  2.418E-04 0.000E+00

     total cpu time spent up to now is      489.8 secs

     total energy              =   -1842.78379688 Ry
     Harris-Foulkes estimate   =   -1842.78390712 Ry
     estimated scf accuracy    <       0.00391555 Ry

     iteration # 22     ecut=    60.00 Ry     beta= 0.70
     Davidson diagonalization with overlap
     ethr =  1.71E-06,  avg # of iterations =  2.5

     negative rho (up, down):  8.410E-04 0.000E+00

     total cpu time spent up to now is      510.7 secs

     total energy              =   -1842.78379059 Ry
     Harris-Foulkes estimate   =   -1842.78383391 Ry
     estimated scf accuracy    <       0.00155413 Ry

     iteration # 23     ecut=    60.00 Ry     beta= 0.70
     Davidson diagonalization with overlap
     c_bands:  1 eigenvalues not converged
     ethr =  6.85E-07,  avg # of iterations =  6.6

     negative rho (up, down):  1.813E-03 0.000E+00

     total cpu time spent up to now is      536.9 secs

     total energy              =   -1842.78383861 Ry
     Harris-Foulkes estimate   =   -1842.78382736 Ry
     estimated scf accuracy    <       0.00077557 Ry

     iteration # 24     ecut=    60.00 Ry     beta= 0.70
     Davidson diagonalization with overlap
     ethr =  3.42E-07,  avg # of iterations =  5.0

     negative rho (up, down):  1.293E-03 0.000E+00

     total cpu time spent up to now is      562.1 secs

     total energy              =   -1842.78387650 Ry
     Harris-Foulkes estimate   =   -1842.78386392 Ry
     estimated scf accuracy    <       0.00051388 Ry

     iteration # 25     ecut=    60.00 Ry     beta= 0.70
     Davidson diagonalization with overlap
     c_bands:  1 eigenvalues not converged
     ethr =  2.26E-07,  avg # of iterations =  5.7

     negative rho (up, down):  1.041E-03 0.000E+00

     total cpu time spent up to now is      588.4 secs

     total energy              =   -1842.78387058 Ry
     Harris-Foulkes estimate   =   -1842.78389297 Ry
     estimated scf accuracy    <       0.00041703 Ry

     iteration # 26     ecut=    60.00 Ry     beta= 0.70
     Davidson diagonalization with overlap
     ethr =  1.84E-07,  avg # of iterations =  3.0

     negative rho (up, down):  1.595E-03 0.000E+00

     total cpu time spent up to now is      609.7 secs

     total energy              =   -1842.78388232 Ry
     Harris-Foulkes estimate   =   -1842.78387885 Ry
     estimated scf accuracy    <       0.00009415 Ry

     iteration # 27     ecut=    60.00 Ry     beta= 0.70
     Davidson diagonalization with overlap
     ethr =  4.15E-08,  avg # of iterations =  1.7

     negative rho (up, down):  1.543E-03 0.000E+00

     total cpu time spent up to now is      630.1 secs

     total energy              =   -1842.78388100 Ry
     Harris-Foulkes estimate   =   -1842.78388395 Ry
     estimated scf accuracy    <       0.00003773 Ry

     iteration # 28     ecut=    60.00 Ry     beta= 0.70
     Davidson diagonalization with overlap
     ethr =  1.66E-08,  avg # of iterations =  1.0

     negative rho (up, down):  1.217E-03 0.000E+00

     total cpu time spent up to now is      650.0 secs

     total energy              =   -1842.78388372 Ry
     Harris-Foulkes estimate   =   -1842.78388311 Ry
     estimated scf accuracy    <       0.00001991 Ry

     iteration # 29     ecut=    60.00 Ry     beta= 0.70
     Davidson diagonalization with overlap
     ethr =  8.77E-09,  avg # of iterations =  1.8

     negative rho (up, down):  1.616E-03 0.000E+00

     total cpu time spent up to now is      669.6 secs

     total energy              =   -1842.78388344 Ry
     Harris-Foulkes estimate   =   -1842.78388447 Ry
     estimated scf accuracy    <       0.00001281 Ry

     iteration # 30     ecut=    60.00 Ry     beta= 0.70
     Davidson diagonalization with overlap
     ethr =  5.64E-09,  avg # of iterations =  1.0

     negative rho (up, down):  1.513E-03 0.000E+00

     total cpu time spent up to now is      689.3 secs

     total energy              =   -1842.78388376 Ry
     Harris-Foulkes estimate   =   -1842.78388382 Ry
     estimated scf accuracy    <       0.00000301 Ry

     iteration # 31     ecut=    60.00 Ry     beta= 0.70
     Davidson diagonalization with overlap
     ethr =  1.32E-09,  avg # of iterations =  1.1

     negative rho (up, down):  1.536E-03 0.000E+00

     total cpu time spent up to now is      709.6 secs

     total energy              =   -1842.78388378 Ry
     Harris-Foulkes estimate   =   -1842.78388387 Ry
     estimated scf accuracy    <       0.00000099 Ry

     iteration # 32     ecut=    60.00 Ry     beta= 0.70
     Davidson diagonalization with overlap
     ethr =  4.37E-10,  avg # of iterations =  2.0

     negative rho (up, down):  1.446E-03 0.000E+00

     total cpu time spent up to now is      728.9 secs

     total energy              =   -1842.78388398 Ry
     Harris-Foulkes estimate   =   -1842.78388384 Ry
     estimated scf accuracy    <       0.00000027 Ry

     iteration # 33     ecut=    60.00 Ry     beta= 0.70
     Davidson diagonalization with overlap
     ethr =  1.18E-10,  avg # of iterations =  3.4

     negative rho (up, down):  1.456E-03 0.000E+00

     total cpu time spent up to now is      753.1 secs

     total energy              =   -1842.78388400 Ry
     Harris-Foulkes estimate   =   -1842.78388402 Ry
     estimated scf accuracy    <       0.00000054 Ry

     iteration # 34     ecut=    60.00 Ry     beta= 0.70
     Davidson diagonalization with overlap
     ethr =  1.18E-10,  avg # of iterations =  1.0

     negative rho (up, down):  1.468E-03 0.000E+00

     total cpu time spent up to now is      771.9 secs

     total energy              =   -1842.78388399 Ry
     Harris-Foulkes estimate   =   -1842.78388401 Ry
     estimated scf accuracy    <       0.00000036 Ry

     iteration # 35     ecut=    60.00 Ry     beta= 0.70
     Davidson diagonalization with overlap
     ethr =  1.18E-10,  avg # of iterations =  1.0

     negative rho (up, down):  1.483E-03 0.000E+00

     total cpu time spent up to now is      790.5 secs

     total energy              =   -1842.78388397 Ry
     Harris-Foulkes estimate   =   -1842.78388399 Ry
     estimated scf accuracy    <       0.00000011 Ry

     iteration # 36     ecut=    60.00 Ry     beta= 0.70
     Davidson diagonalization with overlap
     ethr =  4.66E-11,  avg # of iterations =  1.0

     negative rho (up, down):  1.485E-03 0.000E+00

     total cpu time spent up to now is      809.8 secs

     total energy              =   -1842.78388396 Ry
     Harris-Foulkes estimate   =   -1842.78388397 Ry
     estimated scf accuracy    <       0.00000004 Ry

     iteration # 37     ecut=    60.00 Ry     beta= 0.70
     Davidson diagonalization with overlap
     ethr =  1.88E-11,  avg # of iterations =  1.0

     negative rho (up, down):  1.494E-03 0.000E+00

     total cpu time spent up to now is      829.5 secs

     total energy              =   -1842.78388395 Ry
     Harris-Foulkes estimate   =   -1842.78388397 Ry
     estimated scf accuracy    <       0.00000002 Ry

     iteration # 38     ecut=    60.00 Ry     beta= 0.70
     Davidson diagonalization with overlap
     ethr =  9.55E-12,  avg # of iterations =  1.1

     negative rho (up, down):  1.492E-03 0.000E+00

     total cpu time spent up to now is      847.4 secs

     total energy              =   -1842.78388395 Ry
     Harris-Foulkes estimate   =   -1842.78388395 Ry
     estimated scf accuracy    <       0.00000002 Ry

     iteration # 39     ecut=    60.00 Ry     beta= 0.70
     Davidson diagonalization with overlap
     ethr =  9.55E-12,  avg # of iterations =  1.0

     negative rho (up, down):  1.491E-03 0.000E+00

     total cpu time spent up to now is      868.0 secs

     total energy              =   -1842.78388395 Ry
     Harris-Foulkes estimate   =   -1842.78388395 Ry
     estimated scf accuracy    <          8.1E-09 Ry

     iteration # 40     ecut=    60.00 Ry     beta= 0.70
     Davidson diagonalization with overlap
     ethr =  3.55E-12,  avg # of iterations =  1.0

     negative rho (up, down):  1.485E-03 0.000E+00

     total cpu time spent up to now is      887.5 secs

     total energy              =   -1842.78388396 Ry
     Harris-Foulkes estimate   =   -1842.78388395 Ry
     estimated scf accuracy    <          5.0E-09 Ry

     iteration # 41     ecut=    60.00 Ry     beta= 0.70
     Davidson diagonalization with overlap
     ethr =  2.19E-12,  avg # of iterations =  1.0

     negative rho (up, down):  1.485E-03 0.000E+00

     total cpu time spent up to now is      906.5 secs

     total energy              =   -1842.78388396 Ry
     Harris-Foulkes estimate   =   -1842.78388396 Ry
     estimated scf accuracy    <          4.2E-09 Ry

     iteration # 42     ecut=    60.00 Ry     beta= 0.70
     Davidson diagonalization with overlap
     ethr =  1.86E-12,  avg # of iterations =  1.0

     negative rho (up, down):  1.482E-03 0.000E+00

     total cpu time spent up to now is      926.5 secs

     total energy              =   -1842.78388397 Ry
     Harris-Foulkes estimate   =   -1842.78388396 Ry
     estimated scf accuracy    <          1.8E-09 Ry

     iteration # 43     ecut=    60.00 Ry     beta= 0.70
     Davidson diagonalization with overlap
     ethr =  7.86E-13,  avg # of iterations =  1.0

     negative rho (up, down):  1.482E-03 0.000E+00

     total cpu time spent up to now is      942.2 secs

     End of self-consistent calculation

          k = 0.0000 0.0000 0.0000 ( 39281 PWs)   bands (ev):

   -36.2602 -36.0268 -25.5156 -23.4455 -23.4413 -23.3100 -17.7639 -17.5097
   -17.3112 -17.3001 -17.0941 -17.0719 -15.9741 -15.8686 -15.8042 -15.3275
   -15.3173 -15.2437 -14.9458 -14.9240 -14.8347 -14.8244 -14.6442 -14.6017
   -14.5043 -14.4800 -14.0525 -10.8216 -10.3300 -10.2614  -8.5784  -8.5704
    -8.5391  -8.5360  -8.4981  -8.3536  -8.3463  -8.3421  -8.1855  -2.9993
    -2.9855  -2.9818  -2.4863  -2.4734  -2.4448  -2.3339  -2.2779  -2.2155
    -2.1571  -2.1300  -2.0514  -2.0174  -1.8761  -1.8734  -1.8124  -1.7140
    -1.7068  -1.5890  -1.1139  -1.1117  -1.0791  -1.0347  -1.0301  -1.0131
    -0.9551  -0.9200  -0.9177  -0.9143  -0.9107  -0.9054  -0.8214  -0.7636
    -0.7444  -0.7046  -0.6917  -0.6914  -0.6810  -0.5569  -0.5562  -0.5540
    -0.5490  -0.5400  -0.4847  -0.4410  -0.3800  -0.3418  -0.2049  -0.1423
    -0.0527   0.0959   0.1721   0.2135   0.2279   0.2288   0.2697   0.3806
     0.5174   0.5385   0.5853   0.6604   0.6901   0.7192   0.7306   0.7543
     0.8367   0.8585   0.8889   1.1429   1.1535   1.2844   1.3732   1.3811
     1.3862   1.4679   1.4812   1.4987   1.5854   1.8754   1.8786   2.6610
     3.8181   4.5602   4.5621   5.0692   5.3103   5.6617   5.9986   6.1050
     6.1363   6.3384   6.4918   7.2483   7.3103   7.3434   7.3976   7.4770
     7.6314

          k = 0.0000 0.1320 0.0000 ( 39259 PWs)   bands (ev):

   -36.2584 -36.0250 -25.4949 -23.4188 -23.4146 -23.2845 -17.7278 -17.4733
   -17.3726 -17.3088 -17.1439 -17.0918 -15.8860 -15.8190 -15.7269 -15.3335
   -15.3156 -15.2162 -14.9857 -14.9206 -14.8444 -14.8243 -14.6481 -14.6182
   -14.5691 -14.5132 -14.0749 -10.8101 -10.3011 -10.2942  -8.5774  -8.5704
    -8.4966  -8.4913  -8.4882  -8.3880  -8.3839  -8.3085  -8.2338  -3.0487
    -3.0409  -3.0251  -2.8272  -2.7995  -2.7292  -2.6072  -2.4572  -2.3127
    -2.2993  -2.2979  -2.2614  -2.1983  -2.1033  -1.9449  -1.8596  -1.7994
    -1.6481  -1.6144  -1.3989  -1.2868  -1.2614  -1.2110  -1.2092  -1.1154
    -1.1153  -1.0260  -1.0117  -0.8521  -0.8153  -0.8035  -0.8009  -0.7867
    -0.7858  -0.6706  -0.6693  -0.6555  -0.6536  -0.5761  -0.5729  -0.5321
    -0.5315  -0.5049  -0.3823  -0.3800  -0.3468  -0.3002  -0.2297  -0.1017
    -0.0855   0.1117   0.2343   0.2534   0.2793   0.3638   0.4257   0.4258
     0.4681   0.4741   0.5156   0.5530   0.7588   0.7736   0.7971   0.8018
     0.8662   0.9059   1.0074   1.1232   1.1239   1.2042   1.2347   1.3350
     1.3648   1.4170   1.5374   1.7502   1.9569   2.1623   2.1687   2.8429
     4.1717   4.9376   4.9391   5.2832   5.5830   5.8982   6.2030   6.4101
     6.4291   6.5356   6.6903   6.9529   7.2585   7.4959   7.5728   7.6656
     7.8548

          k = 0.0000 0.2640 0.0000 ( 39139 PWs)   bands (ev):

   -36.2540 -36.0206 -25.4440 -23.3529 -23.3487 -23.2219 -17.6359 -17.5267
   -17.3816 -17.3032 -17.2962 -17.0861 -15.7079 -15.6755 -15.5761 -15.3850
   -15.3292 -15.1570 -15.1325 -14.8754 -14.8336 -14.7773 -14.7337 -14.6841
   -14.6538 -14.5627 -14.1317 -10.7755 -10.3907 -10.2052  -8.5764  -8.5704
    -8.4921  -8.4787  -8.4744  -8.3709  -8.3677  -8.3382  -8.1954  -3.6209
    -3.4854  -3.4700  -3.3005  -3.0852  -3.0818  -2.9982  -2.9757  -2.9370
    -2.9340  -2.5553  -2.2573  -2.2149  -2.1448  -2.1380  -2.1024  -1.8420
    -1.7671  -1.7602  -1.6608  -1.5773  -1.5394  -1.4609  -1.4600  -1.3106
    -1.2925  -1.2137  -1.1958  -1.1534  -1.1507  -1.0752  -1.0344  -0.9628
    -0.9588  -0.7599  -0.7593  -0.6423  -0.6410  -0.5646  -0.5398  -0.4578
    -0.3339  -0.3082  -0.2993  -0.1977  -0.1640  -0.0511  -0.0331   0.0437
     0.0472   0.1459   0.2999   0.4223   0.4424   0.4553   0.4779   0.5101
     0.5109   0.5696   0.5807   0.5990   0.6280   0.6929   0.8239   0.8240
     1.0310   1.0745   1.0959   1.1168   1.2378   1.3182   1.3202   1.3481
     1.3605   1.4932   1.6836   1.8417   2.3807   2.3887   2.7174   3.3424
     5.0927   5.4567   5.8325   5.8334   5.9780   6.5991   6.6408   6.9912
     7.0631   7.2342   7.2437   7.3810   7.5458   7.9663   8.0133   8.1216
     8.1781

          k = 0.0000 0.3960 0.0000 ( 39052 PWs)   bands (ev):

   -36.2496 -36.0162 -25.3918 -23.2847 -23.2805 -23.1572 -17.6631 -17.5340
   -17.4339 -17.2975 -17.2772 -17.0805 -15.6012 -15.5883 -15.5765 -15.3554
   -15.2487 -15.2315 -15.1412 -14.8756 -14.8568 -14.7746 -14.7538 -14.7529
   -14.6108 -14.5960 -14.2137 -10.7220 -10.4837 -10.1124  -8.5763  -8.5706
    -8.5571  -8.5524  -8.4863  -8.4294  -8.2424  -8.2391  -8.0753  -4.3406
    -3.9455  -3.9330  -3.7356  -3.6525  -3.6490  -3.4429  -3.0277  -3.0247
    -3.0095  -2.9196  -2.4678  -2.4546  -2.1980  -2.1522  -2.1180  -2.0053
    -1.9677  -1.8856  -1.7477  -1.7385  -1.7301  -1.6858  -1.5589  -1.5361
    -1.5157  -1.4739  -1.4101  -1.3993  -1.3808  -1.2364  -1.1206  -1.0519
    -1.0263  -0.9664  -0.8762  -0.6252  -0.6240  -0.5331  -0.5271  -0.5226
    -0.5115  -0.3509  -0.3462  -0.1781  -0.0624   0.0147   0.1066   0.2676
     0.2725   0.2929   0.3042   0.4110   0.4287   0.4806   0.4823   0.5142
     0.6080   0.6104   0.6473   0.6644   0.9601   0.9764   1.0553   1.0739
     1.0961   1.1250   1.2579   1.2905   1.3180   1.3192   1.4011   1.5695
     1.6489   1.7130   1.7145   1.7608   2.2761   2.2838   3.2128   3.9820
     5.0249   6.1374   6.6518   6.7798   6.7816   6.9763   7.3942   7.5974
     7.6355   7.8220   8.0245   8.0437   8.2577   8.4102   8.4175   8.4534
     8.4988

          k = 0.0000-0.5279 0.0000 ( 39142 PWs)   bands (ev):

   -36.2478 -36.0143 -25.3698 -23.2558 -23.2516 -23.1297 -17.7152 -17.4892
   -17.4855 -17.2952 -17.2325 -17.0781 -15.6312 -15.6218 -15.5806 -15.2687
   -15.2194 -15.1986 -15.1313 -14.9110 -14.9025 -14.8013 -14.7329 -14.7269
   -14.6483 -14.5198 -14.2758 -10.6845 -10.5338 -10.0728  -8.5867  -8.5820
    -8.5760  -8.5701  -8.4786  -8.4691  -8.1865  -8.1832  -8.0234  -4.6057
    -4.1234  -4.1131  -3.9062  -3.8830  -3.8756  -3.6122  -3.0532  -3.0438
    -3.0407  -3.0199  -2.5972  -2.5876  -2.2140  -2.1363  -2.1167  -2.0552
    -1.9811  -1.9343  -1.8553  -1.8480  -1.8394  -1.6653  -1.6384  -1.6377
    -1.5686  -1.5452  -1.4925  -1.4904  -1.4622  -1.3141  -1.1905  -1.1453
    -1.0450  -0.9380  -0.8701  -0.6646  -0.6195  -0.6184  -0.5497  -0.5146
    -0.4922  -0.3695  -0.3475  -0.2521  -0.0955   0.0310   0.1454   0.1780
     0.1904   0.3542   0.3581   0.4443   0.4637   0.4653   0.5459   0.6143
     0.6186   0.6630   0.6796   0.7850   1.0722   1.0731   1.0959   1.1468
     1.2607   1.3535   1.3614   1.3685   1.3986   1.4420   1.5041   1.5127
     1.6013   1.6159   1.8744   1.8761   2.0987   2.1040   3.4005   4.4177
     4.7108   6.5639   6.6897   7.1923   7.1951   7.4692   7.5779   7.8134
     7.9782   8.2786   8.2913   8.3337   8.3677   8.4018   8.4991   8.5368
     8.6608

          k = 0.1250 0.0000 0.0000 ( 39229 PWs)   bands (ev):

   -36.2591 -36.0257 -25.5023 -23.4274 -23.4232 -23.2927 -17.7305 -17.4754
   -17.3912 -17.2987 -17.1762 -17.0706 -15.9066 -15.8596 -15.7148 -15.3735
   -15.3555 -15.2484 -14.9756 -14.9475 -14.8437 -14.8347 -14.6554 -14.6134
   -14.5235 -14.5208 -14.0607 -10.8435 -10.2743 -10.2384  -8.6038  -8.5968
    -8.5322  -8.4771  -8.4736  -8.3138  -8.3097  -8.2942  -8.1550  -3.0273
    -3.0273  -3.0133  -2.5311  -2.5088  -2.4935  -2.4652  -2.4489  -2.4147
    -2.1273  -2.1086  -2.0904  -2.0739  -1.9769  -1.8741  -1.8713  -1.7927
    -1.7363  -1.6257  -1.2972  -1.2593  -1.1697  -1.1680  -1.1163  -1.0543
    -1.0206  -0.9958  -0.9926  -0.9340  -0.9284  -0.9075  -0.8506  -0.8478
    -0.8063  -0.7781  -0.7333  -0.6981  -0.5641  -0.5613  -0.5530  -0.5479
    -0.4597  -0.4573  -0.4417  -0.3824  -0.3358  -0.3118  -0.2461  -0.1059
     0.0100   0.1043   0.1402   0.1426   0.1650   0.2865   0.2996   0.4423
     0.4550   0.5116   0.5420   0.5799   0.7024   0.7533   0.7542   0.8021
     0.8223   0.8464   0.9930   1.1134   1.2329   1.2774   1.3257   1.3310
     1.4165   1.4376   1.5282   1.5943   1.7642   1.9154   1.9165   2.8141
     4.0202   4.7422   4.7430   5.2504   5.5354   5.8395   6.1696   6.3197
     6.3452   6.5064   6.6856   7.1147   7.3964   7.4588   7.4879   7.6118
     7.7776

          k = 0.1250 0.1320 0.0000 ( 39196 PWs)   bands (ev):

   -36.2573 -36.0239 -25.4821 -23.4016 -23.3974 -23.2680 -17.6954 -17.4400
   -17.3943 -17.3618 -17.1768 -17.1356 -15.8506 -15.7823 -15.6481 -15.3686
   -15.3425 -15.2188 -15.0186 -14.9127 -14.8448 -14.8304 -14.6583 -14.6317
   -14.5839 -14.5457 -14.0802 -10.8218 -10.4317 -10.1418  -8.6220  -8.6173
    -8.5418  -8.5347  -8.5256  -8.3882  -8.2759  -8.2720  -8.1154  -3.0829
    -3.0763  -3.0381  -2.8149  -2.7829  -2.7089  -2.6169  -2.5100  -2.4913
    -2.4634  -2.4392  -2.2931  -2.2920  -2.1349  -2.0652  -1.9561  -1.8680
    -1.7506  -1.5714  -1.4857  -1.4021  -1.3985  -1.3282  -1.3156  -1.2205
    -1.1564  -1.1559  -0.9765  -0.9732  -0.9336  -0.8761  -0.8701  -0.8344
    -0.8067  -0.6992  -0.6799  -0.6561  -0.6071  -0.5552  -0.4978  -0.4945
    -0.4584  -0.4149  -0.3723  -0.3667  -0.3391  -0.3125  -0.1857  -0.1455
     0.0478   0.0737   0.2599   0.3593   0.3637   0.3797   0.3903   0.4353
     0.5360   0.5714   0.5972   0.6183   0.6452   0.6637   0.6644   0.8075
     0.9271   0.9376   1.0071   1.0076   1.0704   1.1651   1.2182   1.2819
     1.6836   1.7086   1.8106   1.9693   2.0848   2.1742   2.1781   2.9783
     4.3523   5.0808   5.0817   5.4089   5.7373   6.0475   6.3300   6.5359
     6.6168   6.6306   6.8242   7.0151   7.2921   7.6391   7.7202   7.8077
     7.9780

          k = 0.1250 0.2640 0.0000 ( 39127 PWs)   bands (ev):

   -36.2529 -36.0195 -25.4323 -23.3377 -23.3335 -23.2072 -17.6065 -17.5235
   -17.3739 -17.3519 -17.2927 -17.1586 -15.7176 -15.6066 -15.5340 -15.3735
   -15.3026 -15.1523 -15.1276 -14.8539 -14.8280 -14.7728 -14.7315 -14.6989
   -14.6783 -14.5768 -14.1283 -10.7741 -10.5716 -10.1276  -8.6908  -8.6869
    -8.5771  -8.5712  -8.5333  -8.4931  -8.2667  -8.2630  -8.1107  -3.6071
    -3.5083  -3.4898  -3.3127  -3.0859  -3.0824  -3.0001  -2.9791  -2.9362
    -2.9334  -2.5771  -2.4564  -2.4425  -2.3873  -2.1488  -2.1219  -2.0098
    -1.8793  -1.7830  -1.6578  -1.6366  -1.6359  -1.5618  -1.5381  -1.5296
    -1.3482  -1.3459  -1.2653  -1.2504  -1.1851  -1.1636  -1.0718  -1.0103
    -0.9368  -0.8786  -0.8170  -0.7274  -0.6157  -0.5030  -0.4599  -0.4285
    -0.3515  -0.2700  -0.2377  -0.1825  -0.0496   0.0381   0.0919   0.0999
     0.1405   0.3368   0.3658   0.3751   0.4300   0.5437   0.5573   0.5690
     0.6362   0.6401   0.6504   0.6785   0.7223   0.7515   0.7933   0.8379
     0.9492   0.9716   1.1073   1.1086   1.2809   1.2815   1.2878   1.3640
     1.8807   1.9011   2.0591   2.2730   2.3890   2.4188   2.7245   3.4547
     5.2157   5.3610   5.8936   5.8944   6.1114   6.6749   6.7149   6.7989
     7.0488   7.3986   7.4042   7.5437   7.7236   8.1054   8.1488   8.1900
     8.2479

          k = 0.1250 0.3960 0.0000 ( 39118 PWs)   bands (ev):

   -36.2485 -36.0151 -25.3814 -23.2718 -23.2676 -23.1445 -17.6580 -17.5076
   -17.4287 -17.3653 -17.2500 -17.1502 -15.5827 -15.5535 -15.5441 -15.2814
   -15.2310 -15.1722 -15.1162 -14.8573 -14.8390 -14.8058 -14.7496 -14.7467
   -14.6154 -14.6057 -14.1968 -10.7281 -10.6273 -10.1755  -8.7212  -8.7168
    -8.5891  -8.5829  -8.5826  -8.4944  -8.3117  -8.3082  -8.1513  -4.3260
    -3.9877  -3.9704  -3.7654  -3.6438  -3.6404  -3.4607  -3.0357  -3.0330
    -3.0181  -2.8600  -2.4479  -2.4368  -2.3204  -2.2783  -2.2696  -2.1331
    -1.9865  -1.9864  -1.9322  -1.8941  -1.8255  -1.8056  -1.7382  -1.5497
    -1.5425  -1.5231  -1.5149  -1.5037  -1.4318  -1.4140  -1.2118  -1.0718
    -0.9664  -0.9431  -0.9376  -0.7251  -0.6407  -0.5096  -0.4498  -0.4478
    -0.3396  -0.2958  -0.2027  -0.1598   0.0076   0.1149   0.2431   0.2531
     0.3010   0.3978   0.4153   0.4940   0.5339   0.5586   0.5764   0.5946
     0.6828   0.7488   0.7739   0.8670   0.9935   1.0367   1.0480   1.0831
     1.1100   1.1911   1.2348   1.3665   1.4079   1.5393   1.6807   1.6816
     1.8285   1.8511   2.0212   2.1749   2.3292   2.3834   3.2248   4.0578
     4.9531   6.0493   6.6411   6.6470   6.6584   6.8043   7.4046   7.5146
     7.6253   7.7237   8.0067   8.0192   8.1753   8.2313   8.4697   8.6595
     8.7086

          k = 0.1250-0.5279 0.0000 ( 39084 PWs)   bands (ev):

   -36.2467 -36.0133 -25.3600 -23.2438 -23.2396 -23.1179 -17.7095 -17.4799
   -17.4643 -17.3616 -17.2066 -17.1465 -15.5863 -15.5780 -15.5339 -15.2553
   -15.1571 -15.1567 -15.0753 -14.8925 -14.8867 -14.8357 -14.7298 -14.7267
   -14.6334 -14.5370 -14.2476 -10.6864 -10.6573 -10.2060  -8.7159  -8.7112
    -8.5935  -8.5925  -8.5877  -8.4932  -8.3460  -8.3427  -8.1777  -4.5931
    -4.1730  -4.1578  -3.9417  -3.8738  -3.8693  -3.6363  -3.0567  -3.0540
    -3.0335  -2.9562  -2.4783  -2.4670  -2.2771  -2.2405  -2.2178  -2.1846
    -2.1366  -2.1327  -2.0608  -1.9373  -1.8949  -1.8497  -1.7955  -1.6867
    -1.6352  -1.6021  -1.5894  -1.5197  -1.5067  -1.5026  -1.2990  -1.0863
    -0.9734  -0.9448  -0.9385  -0.7025  -0.6213  -0.4927  -0.4833  -0.4415
    -0.4379  -0.3354  -0.2119  -0.1362  -0.0262   0.1034   0.2720   0.2940
     0.3016   0.3031   0.3511   0.5554   0.5585   0.6087   0.6098   0.6935
     0.6975   0.7864   0.8253   0.9072   1.1141   1.1833   1.2376   1.3520
     1.3617   1.3683   1.3853   1.4883   1.5923   1.6398   1.6895   1.7013
     1.8457   1.8469   1.8812   2.0134   2.2067   2.2743   3.4099   4.3747
     4.8118   6.2037   6.4687   6.8662   6.8689   7.3906   7.6195   7.7190
     7.7326   8.0581   8.1158   8.3560   8.4567   8.6227   8.6469   8.6644
     8.8832

          k = 0.2500 0.0000 0.0000 ( 39248 PWs)   bands (ev):

   -36.2565 -36.0231 -25.4700 -23.3831 -23.3789 -23.2504 -17.6456 -17.5549
   -17.3896 -17.3412 -17.2954 -17.0672 -15.9732 -15.6630 -15.6016 -15.4618
   -15.3847 -15.2754 -15.0925 -14.9566 -14.8580 -14.8537 -14.7042 -14.6336
   -14.5986 -14.5617 -14.0830 -10.8658 -10.1820 -10.1745  -8.6053  -8.5984
    -8.5563  -8.3907  -8.3874  -8.2331  -8.2289  -8.2108  -8.0795  -3.2216
    -3.2129  -3.1057  -2.8762  -2.8635  -2.8597  -2.5727  -2.4075  -2.3785
    -2.3219  -2.1477  -2.1376  -2.0458  -2.0175  -1.9599  -1.8707  -1.8680
    -1.8143  -1.7645  -1.6019  -1.4856  -1.4240  -1.4203  -1.3690  -1.3142
    -1.1874  -1.1840  -1.0392  -1.0358  -1.0182  -1.0179  -0.9387  -0.9055
    -0.9050  -0.8596  -0.8563  -0.7207  -0.6219  -0.5769  -0.5740  -0.4705
    -0.4656  -0.3313  -0.3298  -0.2568  -0.2483  -0.1932  -0.1355  -0.1111
    -0.0148   0.0047   0.0920   0.1802   0.2658   0.2706   0.2915   0.3966
     0.4815   0.6160   0.6420   0.6672   0.6816   0.6963   0.7464   0.8166
     0.8280   0.8795   0.8889   1.1937   1.2164   1.2195   1.3164   1.3723
     1.4401   1.5891   1.6199   1.7629   1.9828   2.0218   2.0417   3.2189
     4.5502   5.1999   5.2007   5.6105   6.0465   6.2454   6.3677   6.6763
     6.8991   6.9184   7.2249   7.4564   7.6354   7.7413   7.8345   7.8913
     8.0643

          k = 0.2500 0.1320 0.0000 ( 39213 PWs)   bands (ev):

   -36.2547 -36.0213 -25.4509 -23.3593 -23.3551 -23.2275 -17.6136 -17.5484
   -17.3615 -17.3598 -17.3320 -17.1331 -15.9128 -15.6105 -15.5670 -15.4150
   -15.3332 -15.2413 -15.0951 -14.9067 -14.8437 -14.8420 -14.7005 -14.6477
   -14.6175 -14.6016 -14.0961 -10.8415 -10.4630 -10.0693  -8.6727  -8.6684
    -8.5795  -8.5275  -8.5225  -8.3915  -8.1995  -8.1956  -8.0469  -3.2739
    -3.2575  -3.1344  -2.8762  -2.8541  -2.8518  -2.7541  -2.7354  -2.6540
    -2.6161  -2.5729  -2.3796  -2.2842  -2.2825  -2.2161  -2.0455  -1.9810
    -1.8862  -1.6948  -1.6660  -1.6597  -1.5919  -1.5544  -1.4425  -1.4131
    -1.2812  -1.2756  -1.2409  -1.1984  -1.0138  -1.0040  -0.8984  -0.8732
    -0.8408  -0.7669  -0.7326  -0.6792  -0.6769  -0.5822  -0.5141  -0.4636
    -0.4217  -0.4116  -0.3254  -0.3219  -0.1273  -0.0850  -0.0704   0.0298
     0.1079   0.2391   0.2532   0.2607   0.3051   0.3835   0.4077   0.4771
     0.5458   0.5500   0.6396   0.7194   0.7249   0.7675   0.7731   0.8221
     0.8284   0.8674   1.0278   1.0755   1.0789   1.2010   1.2656   1.4412
     1.9660   2.0349   2.0387   2.1926   2.2162   2.2350   2.4633   3.3610
     4.8195   5.4611   5.4620   5.5430   6.1192   6.2848   6.5175   6.7564
     7.0876   7.1584   7.1686   7.4804   7.6847   7.9327   7.9711   8.0996
     8.2108

          k = 0.2500 0.2640 0.0000 ( 39179 PWs)   bands (ev):

   -36.2503 -36.0169 -25.4040 -23.3006 -23.2963 -23.1713 -17.5501 -17.5238
   -17.4978 -17.3308 -17.2766 -17.2644 -15.7517 -15.5170 -15.5021 -15.2803
   -15.2057 -15.1610 -15.1127 -14.8203 -14.8153 -14.7800 -14.7548 -14.6923
   -14.6901 -14.6132 -14.1222 -10.7900 -10.7529 -10.1740  -8.8927  -8.8888
    -8.7318  -8.5895  -8.5840  -8.5071  -8.3193  -8.3153  -8.1704  -3.6594
    -3.6141  -3.5646  -3.4094  -3.1014  -3.0965  -3.0293  -2.9900  -2.9664
    -2.9660  -2.8345  -2.8204  -2.8173  -2.5276  -2.5031  -2.1148  -2.0780
    -2.0729  -2.0516  -2.0186  -1.8761  -1.7807  -1.6518  -1.6126  -1.5439
    -1.5290  -1.3920  -1.3702  -1.3377  -1.2506  -1.2504  -1.1529  -1.0863
    -1.0268  -0.8962  -0.7893  -0.7248  -0.7150  -0.5434  -0.5177  -0.3111
    -0.3061  -0.1029  -0.0900   0.0969   0.1350   0.1554   0.2468   0.2812
     0.3073   0.3119   0.4980   0.5160   0.5699   0.6053   0.6165   0.7141
     0.7158   0.7574   0.7842   0.7954   0.8573   0.8938   0.9364   0.9711
     1.0110   1.0369   1.1790   1.1818   1.2058   1.2111   1.3557   1.4745
     2.3314   2.3317   2.6109   2.6370   2.7208   2.7628   2.9705   3.7807
     5.0626   5.4564   6.0039   6.0048   6.4278   6.5695   6.8927   7.1010
     7.1535   7.6336   7.6905   7.6931   8.0209   8.0524   8.3438   8.3684
     8.4618

          k = 0.2500 0.3960 0.0000 ( 39160 PWs)   bands (ev):

   -36.2460 -36.0125 -25.3562 -23.2402 -23.2359 -23.1135 -17.6459 -17.5133
   -17.4389 -17.4168 -17.3005 -17.1798 -15.5466 -15.4719 -15.4671 -15.1803
   -15.1085 -15.0725 -15.0669 -14.8847 -14.8176 -14.7941 -14.7375 -14.7339
   -14.6196 -14.5999 -14.1540 -10.9262 -10.7179 -10.3847  -9.0128  -9.0084
    -8.8616  -8.6398  -8.6349  -8.5334  -8.5290  -8.5258  -8.3896  -4.2958
    -4.1470  -4.1136  -3.8842  -3.6234  -3.6195  -3.5335  -3.1057  -3.1046
    -3.0469  -2.8249  -2.7822  -2.7802  -2.6788  -2.4460  -2.4459  -2.4160
    -2.3003  -2.1890  -2.1007  -2.0605  -1.9654  -1.8332  -1.7947  -1.7811
    -1.5477  -1.4782  -1.4774  -1.4617  -1.4447  -1.4406  -1.2283  -1.2196
    -1.0947  -1.0922  -0.7812  -0.7701  -0.5876  -0.5006  -0.4429  -0.2789
    -0.2450   0.0421   0.0748   0.1455   0.3220   0.3242   0.3570   0.4432
     0.5878   0.6292   0.6411   0.6421   0.6692   0.6813   0.8198   0.8505
     0.8962   0.9797   0.9958   1.0587   1.0854   1.1050   1.1368   1.1477
     1.1838   1.2294   1.2718   1.3852   1.4192   1.6024   1.6031   1.6651
     2.1637   2.1639   2.8384   2.8810   2.9858   3.1844   3.2403   4.1950
     4.7538   5.8085   6.2112   6.2139   6.4381   6.9549   7.0703   7.2825
     7.6414   7.9756   8.0654   8.1455   8.1560   8.3786   8.6975   8.8548
     9.0055

          k = 0.2500-0.5279 0.0000 ( 39192 PWs)   bands (ev):

   -36.2442 -36.0107 -25.3360 -23.2146 -23.2104 -23.0890 -17.6960 -17.5078
   -17.4665 -17.3994 -17.2952 -17.1403 -15.4689 -15.4636 -15.4136 -15.2469
   -15.0523 -15.0213 -14.9951 -14.9057 -14.8532 -14.8452 -14.7230 -14.7210
   -14.6034 -14.5436 -14.1777 -10.9543 -10.6924 -10.5023  -9.0129  -9.0081
    -8.8797  -8.7277  -8.7241  -8.5999  -8.5943  -8.5416  -8.5011  -4.5657
    -4.3460  -4.3142  -4.0755  -3.8510  -3.8472  -3.7268  -3.1128  -3.1125
    -3.0609  -2.8137  -2.7675  -2.7427  -2.6953  -2.5944  -2.5731  -2.4104
    -2.3931  -2.2612  -2.1612  -2.0969  -2.0658  -1.9077  -1.8881  -1.8292
    -1.6270  -1.5574  -1.5322  -1.4744  -1.4553  -1.4374  -1.2790  -1.2407
    -1.1491  -1.1181  -0.7792  -0.7669  -0.4765  -0.4727  -0.3673  -0.2653
    -0.2073  -0.0709   0.0773   0.1663   0.3716   0.4246   0.4295   0.4562
     0.5412   0.5767   0.6713   0.7503   0.7583   0.8516   0.8525   0.8537
     0.8911   1.0211   1.0823   1.1337   1.1982   1.2456   1.3099   1.3373
     1.3711   1.3840   1.4056   1.4613   1.5611   1.7736   1.7788   1.7825
     1.9420   1.9422   2.8574   2.9090   3.0238   3.2133   3.4173   4.1530
     5.0482   5.7345   6.1749   6.1764   6.1780   6.9583   7.0285   7.3659
     8.1330   8.1342   8.4739   8.5932   8.6275   8.6554   8.8631   8.8820
     8.9140

          k = 0.3750 0.0000 0.0000 ( 39182 PWs)   bands (ev):

   -36.2539 -36.0204 -25.4371 -23.3377 -23.3334 -23.2071 -17.6949 -17.5502
   -17.4859 -17.2921 -17.2879 -17.0639 -16.0615 -15.6986 -15.6904 -15.3409
   -15.2934 -15.2695 -15.1766 -14.9329 -14.8711 -14.8621 -14.8081 -14.6638
   -14.6465 -14.5957 -14.1128 -10.8620 -10.1241 -10.1062  -8.5877  -8.5809
    -8.5500  -8.3258  -8.3227  -8.1617  -8.1487  -8.1444  -8.0007  -3.5501
    -3.5363  -3.4025  -2.9867  -2.9851  -2.9802  -2.9560  -2.3277  -2.2786
    -2.2553  -2.2191  -2.1738  -2.1707  -2.0919  -1.9528  -1.9522  -1.9023
    -1.8723  -1.8696  -1.7989  -1.6757  -1.6585  -1.5579  -1.5529  -1.5003
    -1.3872  -1.3841  -1.2221  -1.1920  -1.1585  -1.0547  -1.0416  -0.9917
    -0.9159  -0.8970  -0.8849  -0.7191  -0.7083  -0.5897  -0.5869  -0.4861
    -0.4737  -0.4546  -0.2586  -0.2533  -0.2500  -0.2315  -0.2242  -0.1445
    -0.0457   0.0825   0.1149   0.2390   0.2594   0.3878   0.4844   0.5278
     0.5298   0.5476   0.5591   0.6778   0.6881   0.7330   0.8321   0.8945
     0.9050   0.9467   1.0874   1.1075   1.1213   1.2273   1.4609   1.4625
     1.5397   1.6223   1.6494   1.8786   1.9972   2.1375   2.1638   3.8013
     4.9599   5.7791   5.8497   5.8507   5.9449   6.7156   7.0917   7.3427
     7.3452   7.3720   7.5748   7.7822   7.9042   7.9265   7.9915   8.4358
     8.6289

          k = 0.3750 0.1320 0.0000 ( 39227 PWs)   bands (ev):

   -36.2521 -36.0186 -25.4192 -23.3160 -23.3117 -23.1862 -17.6863 -17.5212
   -17.4771 -17.3565 -17.2588 -17.1281 -15.9898 -15.6509 -15.6436 -15.2998
   -15.2376 -15.2257 -15.1435 -14.8860 -14.8423 -14.8390 -14.7878 -14.6553
   -14.6514 -14.6327 -14.1217 -10.8402 -10.4001 -10.1164  -8.6442  -8.6394
    -8.5760  -8.4892  -8.4849  -8.3413  -8.2384  -8.2343  -8.0946  -3.6134
    -3.5921  -3.4476  -3.0013  -2.9847  -2.9840  -2.9589  -2.7099  -2.6633
    -2.6531  -2.5368  -2.3176  -2.2890  -2.2728  -2.2705  -2.1369  -2.0700
    -1.9837  -1.9588  -1.9563  -1.8878  -1.7403  -1.6279  -1.5059  -1.4649
    -1.4643  -1.4035  -1.3437  -1.3135  -1.1180  -1.0776  -1.0118  -0.9245
    -0.9064  -0.7878  -0.7221  -0.7075  -0.6962  -0.5868  -0.4949  -0.4740
    -0.4459  -0.4265  -0.2163  -0.2148  -0.1720  -0.0867  -0.0168   0.0430
     0.0466   0.1465   0.1958   0.3070   0.3962   0.4536   0.5339   0.5515
     0.5607   0.6348   0.6569   0.7000   0.7050   0.7267   0.8650   0.9328
     0.9420   1.0359   1.0795   1.0970   1.1360   1.2464   1.4923   1.5982
     1.9978   2.0982   2.1063   2.2816   2.3320   2.4536   2.6188   3.9299
     5.0921   5.4523   5.9994   5.9994   6.0593   6.7791   7.1386   7.3609
     7.4101   7.4126   7.4558   7.8124   7.8789   8.0513   8.2128   8.4019
     8.6035

          k = 0.3750 0.2640 0.0000 ( 39219 PWs)   bands (ev):

   -36.2477 -36.0143 -25.3753 -23.2627 -23.2584 -23.1347 -17.6660 -17.5010
   -17.4563 -17.4458 -17.2720 -17.1837 -15.7923 -15.5290 -15.5240 -15.1999
   -15.1265 -15.1234 -15.0538 -14.8180 -14.8071 -14.7730 -14.7725 -14.6751
   -14.6686 -14.6286 -14.1263 -10.8408 -10.7597 -10.3550  -8.9454  -8.9414
    -8.7892  -8.6241  -8.6194  -8.5214  -8.5018  -8.4971  -8.3711  -3.9337
    -3.8819  -3.6837  -3.5288  -3.2291  -3.1581  -3.1394  -3.0370  -3.0359
    -3.0278  -2.9574  -2.9071  -2.9045  -2.7784  -2.5384  -2.4386  -2.3819
    -2.2733  -1.9872  -1.9586  -1.8769  -1.8522  -1.7450  -1.5980  -1.5751
    -1.5428  -1.4905  -1.4870  -1.4114  -1.3053  -1.3033  -1.1711  -1.1264
    -1.0338  -0.9935  -0.8394  -0.6435  -0.5901  -0.5252  -0.4701  -0.2282
    -0.2104   0.0030   0.0231   0.1225   0.1653   0.1739   0.3507   0.3520
     0.4182   0.4988   0.5536   0.5703   0.5970   0.6428   0.7410   0.7676
     0.8307   0.8587   0.9007   0.9709   0.9808   1.0166   1.0337   1.0961
     1.1010   1.1124   1.1461   1.1709   1.2107   1.3438   1.4898   1.6699
     2.3318   2.3320   2.7554   3.0646   3.0827   3.1766   3.3789   4.2594
     4.7343   5.3772   6.0441   6.0464   6.5212   6.9194   6.9627   7.2342
     7.5230   7.7529   7.7571   7.7766   8.1257   8.2020   8.5684   8.7522
     8.7637

          k = 0.3750 0.3960 0.0000 ( 39217 PWs)   bands (ev):

   -36.2434 -36.0099 -25.3306 -23.2080 -23.2038 -23.0820 -17.6488 -17.6274
   -17.4367 -17.4004 -17.3663 -17.1040 -15.5222 -15.3938 -15.3920 -15.1209
   -15.0904 -15.0304 -14.9270 -14.8949 -14.8174 -14.7377 -14.7303 -14.7176
   -14.6191 -14.5412 -14.1126 -11.1434 -10.7250 -10.6386  -9.2112  -9.2067
    -9.0605  -8.8762  -8.8728  -8.6827  -8.6268  -8.6209  -8.5501  -4.4153
    -4.3533  -4.2633  -4.0981  -3.6946  -3.6005  -3.5988  -3.2870  -3.2841
    -3.1588  -2.9625  -2.9351  -2.9329  -2.8370  -2.7756  -2.6757  -2.6390
    -2.4991  -2.2300  -2.1585  -1.8822  -1.8636  -1.8618  -1.8437  -1.6662
    -1.6177  -1.5933  -1.5310  -1.5102  -1.4784  -1.4483  -1.3820  -1.1645
    -1.0530  -1.0499  -0.9988  -0.5695  -0.4659  -0.4196  -0.2182  -0.1581
    -0.0405   0.2147   0.3026   0.3467   0.4992   0.5037   0.6023   0.6395
     0.6835   0.7440   0.8074   0.8291   0.8331   0.8575   0.9316   0.9954
     1.0673   1.0961   1.1089   1.1284   1.1453   1.2245   1.2963   1.3128
     1.3347   1.3917   1.3964   1.4860   1.4904   1.5253   1.5295   1.8959
     2.1521   2.1540   3.2349   3.5817   3.6001   3.6586   3.8517   4.0136
     4.9086   5.5759   5.7417   5.7429   6.4120   6.6373   6.7001   7.1338
     7.8821   8.3157   8.3365   8.4104   8.5264   8.7101   8.8199   8.8909
     8.9067

          k = 0.3750-0.5279 0.0000 ( 39212 PWs)   bands (ev):

   -36.2416 -36.0081 -25.3118 -23.1850 -23.1807 -23.0598 -17.6827 -17.6361
   -17.4533 -17.4261 -17.3309 -17.0687 -15.3322 -15.3321 -15.2805 -15.2439
   -15.0597 -15.0008 -14.9575 -14.8311 -14.8223 -14.7741 -14.7151 -14.7130
   -14.5938 -14.4889 -14.1048 -11.2534 -10.7781 -10.6917  -9.2933  -9.2884
    -9.1550  -9.0213  -9.0182  -8.8123  -8.6533  -8.6465  -8.5641  -4.6262
    -4.5596  -4.5288  -4.2947  -3.8994  -3.8256  -3.8241  -3.3056  -3.3024
    -3.1752  -2.9604  -2.9297  -2.9269  -2.8815  -2.8345  -2.7807  -2.6868
    -2.5686  -2.3362  -2.2288  -1.9813  -1.9661  -1.8990  -1.8829  -1.6800
    -1.6200  -1.6129  -1.6070  -1.5833  -1.5649  -1.4329  -1.3982  -1.2616
    -1.0407  -1.0354  -0.9993  -0.5578  -0.4321  -0.3749  -0.1357  -0.0477
     0.0459   0.2817   0.3325   0.4499   0.6089   0.6171   0.6400   0.6991
     0.7096   0.7489   0.8784   0.9027   0.9402   1.0286   1.1045   1.1215
     1.1235   1.1749   1.1805   1.2863   1.3306   1.3672   1.3838   1.4542
     1.4601   1.4736   1.5029   1.5739   1.6128   1.7129   1.7151   1.9082
     1.9111   2.0292   3.3743   3.7174   3.7469   3.7775   3.8360   3.9914
     5.2505   5.5633   5.5651   5.6404   6.1117   6.5215   6.5930   6.9494
     8.3369   8.4570   8.5037   8.5642   8.6786   8.6917   8.8221   8.9327
     9.0484

          k =-0.5000 0.0000 0.0000 ( 39178 PWs)   bands (ev):

   -36.2528 -36.0193 -25.4233 -23.3185 -23.3143 -23.1889 -17.7472 -17.5388
   -17.5082 -17.2907 -17.2441 -17.0625 -16.1021 -15.7549 -15.7467 -15.3802
   -15.2398 -15.2388 -15.0343 -14.9904 -14.8668 -14.8588 -14.8513 -14.7072
   -14.6643 -14.6063 -14.1286 -10.8551 -10.0996 -10.0849  -8.5775  -8.5706
    -8.5414  -8.3026  -8.2997  -8.1481  -8.1126  -8.1082  -7.9671  -3.6920
    -3.6786  -3.5427  -3.1349  -3.0119  -3.0099  -2.9532  -2.3221  -2.2808
    -2.2604  -2.2539  -2.2170  -2.1273  -2.0544  -2.0448  -1.9411  -1.8847
    -1.8775  -1.8735  -1.8673  -1.8359  -1.8010  -1.6680  -1.5738  -1.4698
    -1.4675  -1.4451  -1.3142  -1.2904  -1.2273  -1.0727  -1.0601  -1.0526
    -0.9485  -0.8931  -0.8749  -0.7351  -0.6895  -0.5950  -0.5922  -0.5427
    -0.5152  -0.5065  -0.2761  -0.2534  -0.2507  -0.2282  -0.2247  -0.1749
    -0.0779   0.0586   0.1412   0.2654   0.3216   0.4221   0.4758   0.4793
     0.4887   0.4926   0.7017   0.7255   0.7385   0.8542   0.9148   0.9266
     0.9556   0.9971   1.0003   1.0098   1.1973   1.2737   1.4801   1.5325
     1.6247   1.6343   1.6625   1.8832   1.9659   2.1703   2.1827   4.4729
     4.4869   5.8851   6.0643   6.6226   6.6238   6.6738   6.6752   7.2209
     7.5822   7.6400   7.8525   7.8702   8.0020   8.0277   8.0857   8.3365
     8.7725

          k =-0.5000 0.1320 0.0000 ( 39242 PWs)   bands (ev):

   -36.2510 -36.0175 -25.4059 -23.2978 -23.2935 -23.1687 -17.7380 -17.5294
   -17.4807 -17.3543 -17.2166 -17.1259 -16.0249 -15.6981 -15.6905 -15.3344
   -15.2019 -15.2010 -15.0000 -14.9310 -14.8422 -14.8298 -14.8263 -14.6730
   -14.6599 -14.6452 -14.1371 -10.8332 -10.3149 -10.2030  -8.6156  -8.6100
    -8.5615  -8.4320  -8.4291  -8.3157  -8.3109  -8.2691  -8.1811  -3.7617
    -3.7411  -3.5957  -3.1612  -3.0165  -3.0150  -2.9706  -2.6808  -2.6466
    -2.6270  -2.4842  -2.3139  -2.2773  -2.2669  -2.2653  -2.1809  -2.1010
    -2.0847  -2.0705  -2.0275  -1.9531  -1.7854  -1.6609  -1.5911  -1.5255
    -1.5233  -1.4181  -1.3727  -1.2455  -1.2126  -1.1143  -1.0679  -0.9478
    -0.9418  -0.7599  -0.7375  -0.7025  -0.6917  -0.5937  -0.4851  -0.4758
    -0.4607  -0.4324  -0.2145  -0.1426  -0.1395  -0.0720  -0.0669  -0.0633
    -0.0381   0.1139   0.1796   0.3694   0.3871   0.4939   0.5360   0.5736
     0.5997   0.6290   0.6301   0.6653   0.7532   0.8661   0.8686   0.9613
     1.0371   1.0445   1.0744   1.2017   1.2065   1.2384   1.6218   1.6788
     2.0066   2.0998   2.1078   2.2996   2.3566   2.5078   2.6425   4.5811
     4.5992   5.3962   6.2401   6.4704   6.4718   6.9772   6.9777   7.2535
     7.4992   7.6106   7.6658   7.7913   8.0326   8.0638   8.2032   8.5909
     8.6858

          k =-0.5000 0.2640 0.0000 ( 39264 PWs)   bands (ev):

   -36.2467 -36.0132 -25.3633 -23.2468 -23.2425 -23.1193 -17.7160 -17.5071
   -17.4977 -17.4095 -17.2686 -17.1458 -15.8111 -15.5475 -15.5418 -15.2235
   -15.1162 -15.1124 -14.9170 -14.8248 -14.7884 -14.7858 -14.7800 -14.7208
   -14.6617 -14.5861 -14.1341 -10.8123 -10.7551 -10.4851  -8.8844  -8.8796
    -8.7418  -8.7332  -8.7303  -8.5654  -8.5595  -8.5508  -8.5009  -4.0717
    -4.0203  -3.8256  -3.5206  -3.3614  -3.1837  -3.1700  -3.0558  -3.0459
    -3.0374  -2.9619  -2.9158  -2.9122  -2.8124  -2.5733  -2.5350  -2.4967
    -2.3673  -2.0291  -1.9802  -1.8129  -1.7762  -1.7069  -1.6248  -1.6227
    -1.5745  -1.5083  -1.4688  -1.4647  -1.3305  -1.3281  -1.1718  -1.1358
    -1.0493  -1.0345  -0.8541  -0.6003  -0.5201  -0.4854  -0.3890  -0.2030
    -0.1834   0.0323   0.0411   0.0618   0.1946   0.1985   0.3662   0.4377
     0.4428   0.5260   0.5277   0.5327   0.5885   0.7101   0.7746   0.7988
     0.9084   0.9113   0.9464   0.9734   1.0342   1.0462   1.0625   1.0944
     1.1175   1.1645   1.1827   1.2291   1.2514   1.3122   1.6107   1.7769
     2.3248   2.3254   2.7635   3.2048   3.2225   3.3110   3.5012   4.4638
     4.8852   4.9817   6.0402   6.0419   6.6400   6.8666   6.8951   7.3832
     7.7454   7.7597   7.7881   7.9911   8.2769   8.4064   8.6897   8.7246
     8.8732

          k =-0.5000 0.3960 0.0000 ( 39212 PWs)   bands (ev):

   -36.2424 -36.0089 -25.3199 -23.1946 -23.1903 -23.0688 -17.6945 -17.6266
   -17.4853 -17.3974 -17.3341 -17.0704 -15.5155 -15.3646 -15.3627 -15.1260
   -15.0816 -15.0387 -14.8859 -14.8274 -14.8065 -14.7331 -14.7311 -14.6860
   -14.6543 -14.4931 -14.0970 -11.2156 -10.7648 -10.7197  -9.2595  -9.2546
    -9.1159  -9.0213  -9.0183  -8.8187  -8.6436  -8.6371  -8.5640  -4.5445
    -4.4789  -4.2807  -4.1943  -3.7978  -3.5925  -3.5903  -3.3568  -3.3548
    -3.2194  -2.9748  -2.9521  -2.9493  -2.9407  -2.8656  -2.7692  -2.6269
    -2.5809  -2.3068  -2.1533  -1.8915  -1.8779  -1.7652  -1.7406  -1.7088
    -1.6817  -1.5977  -1.5433  -1.5370  -1.4722  -1.4624  -1.4575  -1.1396
    -1.0922  -1.0132  -1.0116  -0.4695  -0.4539  -0.3819  -0.1202  -0.0367
     0.0381   0.2986   0.3303   0.4154   0.6174   0.6422   0.6447   0.6472
     0.7166   0.7781   0.8489   0.9007   0.9054   0.9272   0.9776   1.0083
     1.1103   1.1489   1.1496   1.1622   1.1847   1.2765   1.3467   1.3728
     1.3986   1.4416   1.4466   1.4913   1.4933   1.5672   1.6087   2.0231
     2.1398   2.1428   3.2339   3.8497   3.8605   3.8621   3.9059   4.0865
     5.1827   5.3867   5.5456   5.5469   6.4286   6.4821   6.5471   6.9396
     8.2277   8.2663   8.4156   8.5268   8.6466   8.7583   8.7744   8.8523
     9.0000

          k =-0.5000-0.5279 0.0000 ( 39284 PWs)   bands (ev):

   -36.2406 -36.0071 -25.3017 -23.1726 -23.1683 -23.0475 -17.6857 -17.6772
   -17.4764 -17.4478 -17.3007 -17.0371 -15.2696 -15.2661 -15.2441 -15.2207
   -15.1004 -15.0230 -14.9330 -14.8281 -14.7695 -14.7131 -14.7115 -14.7080
   -14.6121 -14.4527 -14.0737 -11.3792 -10.8805 -10.6966  -9.4055  -9.4005
    -9.2664  -9.1374  -9.1344  -8.9257  -8.6720  -8.6644  -8.5800  -4.7536
    -4.6860  -4.5359  -4.4032  -4.0013  -3.8168  -3.8146  -3.3892  -3.3873
    -3.2487  -2.9740  -2.9589  -2.9550  -2.9414  -2.9394  -2.8610  -2.6520
    -2.6509  -2.4046  -2.2186  -2.0058  -1.9950  -1.8301  -1.8054  -1.6857
    -1.6510  -1.6378  -1.6359  -1.5870  -1.5699  -1.4820  -1.4533  -1.2541
    -1.0813  -0.9855  -0.9828  -0.4460  -0.4190  -0.3450  -0.0958   0.0936
     0.1450   0.3900   0.4863   0.5662   0.6889   0.6989   0.7002   0.7536
     0.7715   0.7957   0.9446   0.9501   0.9951   1.1268   1.1619   1.1769
     1.2237   1.2437   1.2458   1.2913   1.3764   1.4110   1.4589   1.4963
     1.5291   1.5815   1.5827   1.6136   1.6860   1.6894   1.7569   1.8838
     1.8885   2.1617   3.3569   3.6304   4.0494   4.0667   4.1107   4.2757
     5.3120   5.3183   5.3199   5.6688   6.1629   6.3532   6.4290   6.7558
     8.3760   8.3964   8.4078   8.4093   8.5479   8.6516   8.8351   8.9326
     9.0483

     the Fermi energy is     1.9138 ev

!    total energy              =   -1842.78388397 Ry
     Harris-Foulkes estimate   =   -1842.78388397 Ry
     estimated scf accuracy    <          4.6E-10 Ry

     The total energy is the sum of the following terms:

     one-electron contribution =  -22171.78579372 Ry
     hartree contribution      =   11232.67043293 Ry
     xc contribution           =    -621.54561304 Ry
     ewald contribution        =    9717.88489226 Ry
     smearing contrib. (-TS)   =      -0.00780240 Ry

     convergence has been achieved in  43 iterations

     negative rho (up, down):  1.482E-03 0.000E+00

     Forces acting on atoms (cartesian axes, Ry/au):

     atom    1 type  4   force =     0.00000000    0.00000000   -0.00011405
     atom    2 type  3   force =     0.00000000    0.00000000    0.00031310
     atom    3 type  4   force =     0.00000000    0.00000000   -0.00076672
     atom    4 type  1   force =     0.00000000    0.00000000   -0.00035743
     atom    5 type  3   force =     0.00000000    0.00000000    0.00055652
     atom    6 type  4   force =     0.00000000    0.00000000    0.00029007
     atom    7 type  4   force =     0.00000000    0.00000000    0.00070611
     atom    8 type  2   force =     0.00000000    0.00000000   -0.00146967
     atom    9 type  4   force =     0.00000000    0.00000000    0.00132061
     atom   10 type  4   force =     0.00000000    0.00000000    0.00172778
     atom   11 type  3   force =     0.00000000    0.00000000   -0.00025433
     atom   12 type  1   force =     0.00000000    0.00000000   -0.00551184
     atom   13 type  4   force =     0.00000000    0.00000000    0.00742655
     atom   14 type  4   force =     0.00000000    0.00000000    0.02545447
     atom   15 type  3   force =     0.00000000    0.00000000   -0.03206411
     atom   16 type  4   force =     0.00000000    0.00000000    0.06262739
     atom   17 type  1   force =     0.00000000    0.00000000   -0.05878353
     atom   18 type  3   force =     0.00000000    0.00000000   -0.01869826
     atom   19 type  4   force =     0.00000000    0.00000000    0.02139335
     atom   20 type  4   force =     0.00000000    0.00000000    0.00997478
     atom   21 type  2   force =     0.00000000    0.00000000   -0.01873293
     atom   22 type  4   force =     0.00000000    0.00000000    0.00115471
     atom   23 type  4   force =     0.00000000    0.00000000    0.00303366
     atom   24 type  3   force =     0.00000000    0.00000000   -0.00002366
     atom   25 type  1   force =     0.00000000    0.00000000    0.00008328
     atom   26 type  4   force =     0.00000000    0.00000000    0.00108176
     atom   27 type  3   force =     0.00000000    0.00000000   -0.00074490
     atom   28 type  4   force =     0.00000000    0.00000000    0.00037730

     Total force =     0.101545     Total SCF correction =     0.000030


     Computing stress (Cartesian axis) and pressure


     negative rho (up, down):  1.482E-03 0.000E+00
          total   stress  (Ry/bohr**3)                   (kbar)     P=       -7.58
  -0.00010143   0.00000000   0.00000000          -14.92        0.00        0.00
   0.00000000  -0.00003686   0.00000000            0.00       -5.42        0.00
   0.00000000   0.00000000  -0.00001633            0.00        0.00       -2.40


     number of scf cycles    =   4
     number of bfgs steps    =   3

     energy   old            =   -1842.8536823135 Ry
     energy   new            =   -1842.7838839683 Ry

     CASE: energy  _new > energy  _old


 %%%%%%%%%%%%%%%%%%%%%%%%%%%%%%%%%%%%%%%%%%%%%%%%%%%%%%%%%%%%%%%%%%%%%%%%%%%%%%
     Error in routine bfgs (1):
     dE0s is positive which should never happen
 %%%%%%%%%%%%%%%%%%%%%%%%%%%%%%%%%%%%%%%%%%%%%%%%%%%%%%%%%%%%%%%%%%%%%%%%%%%%%%

     stopping ...
