
     Program PWSCF v.6.5 starts on 28Jun2021 at 23:27:54 

     This program is part of the open-source Quantum ESPRESSO suite
     for quantum simulation of materials; please cite
         "P. Giannozzi et al., J. Phys.:Condens. Matter 21 395502 (2009);
         "P. Giannozzi et al., J. Phys.:Condens. Matter 29 465901 (2017);
          URL http://www.quantum-espresso.org", 
     in publications or presentations arising from this work. More details at
     http://www.quantum-espresso.org/quote

     Parallel version (MPI), running on    20 processors

     MPI processes distributed on     9 nodes
     R & G space division:  proc/nbgrp/npool/nimage =      20
     Reading input from CBCO_CuO_cleave_0.5_sep.pwi
Warning: card &CELL ignored
Warning: card     CELL_DYNAMICS = 'BFGS' ignored
Warning: card     PRESS_CONV_THR = 0.5 ignored
Warning: card / ignored

     Current dimensions of program PWSCF are:
     Max number of different atomic species (ntypx) = 10
     Max number of k-points (npk) =  40000
     Max angular momentum in pseudopotentials (lmaxx) =  3

     Subspace diagonalization in iterative solution of the eigenvalue problem:
     one sub-group per band group will be used
     scalapack distributed-memory algorithm (size of sub-group:  4*  4 procs)

     Message from routine setup:
     using ibrav=0 with symmetry is DISCOURAGED, use correct ibrav instead
 
     Parallelization info
     --------------------
     sticks:   dense  smooth     PW     G-vecs:    dense   smooth      PW
     Min         149      50     14                70963    13664    2134
     Max         150      51     15                71000    13687    2179
     Sum        2991    1007    289              1419661   273473   42977
 


     bravais-lattice index     =            0
     lattice parameter (alat)  =       7.4270  a.u.
     unit-cell volume          =    4351.6708 (a.u.)^3
     number of atoms/cell      =           28
     number of atomic types    =            4
     number of electrons       =       227.00
     number of Kohn-Sham states=          137
     kinetic-energy cutoff     =      60.0000  Ry
     charge density cutoff     =     720.0000  Ry
     convergence threshold     =      1.0E-10
     mixing beta               =       0.7000
     number of iterations used =           10  local-TF  mixing
     Exchange-correlation= SLA PW PBE PBE
                           (   1   4   3   4   0   0   0)
     nstep                     =          300


     celldm(1)=   7.427040  celldm(2)=   0.000000  celldm(3)=   0.000000
     celldm(4)=   0.000000  celldm(5)=   0.000000  celldm(6)=   0.000000

     crystal axes: (cart. coord. in units of alat)
               a(1) = (   1.000000   0.000000   0.000000 )  
               a(2) = (   0.000000   0.947081   0.000000 )  
               a(3) = (   0.000000   0.000000  11.215576 )  

     reciprocal axes: (cart. coord. in units 2 pi/alat)
               b(1) = (  1.000000  0.000000  0.000000 )  
               b(2) = (  0.000000  1.055876  0.000000 )  
               b(3) = (  0.000000  0.000000  0.089162 )  


     PseudoPot. # 1 for Ba read from file:
     ./pseudo/Ba.pbe-nsp-van.UPF
     MD5 check sum: 2b9c31dd849566dd297d80989662b7a0
     Pseudo is Ultrasoft + core correction, Zval = 10.0
     Generated by new atomic code, or converted to UPF format
     Using radial grid of  907 points,  6 beta functions with: 
                l(1) =   0
                l(2) =   0
                l(3) =   1
                l(4) =   1
                l(5) =   2
                l(6) =   2
     Q(r) pseudized with  6 coefficients,  rinner =    1.200   1.200   1.200
                                                       1.200   1.200

     PseudoPot. # 2 for Ca read from file:
     ./pseudo/Ca.pbe-nsp-van.UPF
     MD5 check sum: 6471098428ff4fa451746d08035ff179
     Pseudo is Ultrasoft + core correction, Zval = 10.0
     Generated by new atomic code, or converted to UPF format
     Using radial grid of  845 points,  6 beta functions with: 
                l(1) =   0
                l(2) =   0
                l(3) =   1
                l(4) =   1
                l(5) =   2
                l(6) =   2
     Q(r) pseudized with  6 coefficients,  rinner =    1.200   1.200   1.200
                                                       1.200   1.200

     PseudoPot. # 3 for Cu read from file:
     ./pseudo/Cu.pbe-n-van_ak.UPF
     MD5 check sum: 34e3282627ffb533726feb647e090d62
     Pseudo is Ultrasoft + core correction, Zval = 11.0
     Generated by new atomic code, or converted to UPF format
     Using radial grid of  867 points,  6 beta functions with: 
                l(1) =   0
                l(2) =   0
                l(3) =   1
                l(4) =   1
                l(5) =   2
                l(6) =   2
     Q(r) pseudized with  8 coefficients,  rinner =    1.400   1.400   1.400
                                                       1.400   1.400

     PseudoPot. # 4 for O  read from file:
     ./pseudo/O.pbe-van_ak.UPF
     MD5 check sum: 783ce7fe4c79b6a4916957118fed0856
     Pseudo is Ultrasoft, Zval =  6.0
     Generated by new atomic code, or converted to UPF format
     Using radial grid of  737 points,  4 beta functions with: 
                l(1) =   0
                l(2) =   0
                l(3) =   1
                l(4) =   1
     Q(r) pseudized with  8 coefficients,  rinner =    0.800   0.800   0.800


     atomic species   valence    mass     pseudopotential
        Ba            10.00   137.32700     Ba( 1.00)
        Ca            10.00    40.07800     Ca( 1.00)
        Cu            11.00    63.54600     Cu( 1.00)
        O              6.00    15.99900     O ( 1.00)

      4 Sym. Ops. (no inversion) found



   Cartesian axes

     site n.     atom                  positions (alat units)
         1           O   tau(   1) = (   0.0000000   0.4735409  -0.0469745  )
         2           Cu  tau(   2) = (   0.0000000   0.0000000   0.0264565  )
         3           O   tau(   3) = (   0.0000000   0.0000000   0.5030914  )
         4           Ba  tau(   4) = (   0.5000000   0.4735409   0.5690292  )
         5           Cu  tau(   5) = (   0.0000000   0.0000000   1.0374254  )
         6           O   tau(   6) = (   0.5000000   0.0000000   1.0768099  )
         7           O   tau(   7) = (   0.0000000   0.4735409   1.1116985  )
         8           Ca  tau(   8) = (   0.5000000   0.4735409   1.4976260  )
         9           O   tau(   9) = (   0.0000000   0.4735409   1.8667529  )
        10           O   tau(  10) = (   0.5000000   0.0000000   1.9044124  )
        11           Cu  tau(  11) = (   0.0000000   0.0000000   1.9512546  )
        12           Ba  tau(  12) = (   0.5000000   0.4735409   2.4295764  )
        13           O   tau(  13) = (   0.0000000   0.0000000   2.5115362  )
        14           O   tau(  14) = (   0.0000000   0.4735409   2.9918528  )
        15           Cu  tau(  15) = (   0.0000000   0.0000000   2.9919088  )
        16           O   tau(  16) = (   0.0000000   0.0000000   3.5994880  )
        17           Ba  tau(  17) = (   0.5000000   0.4735409   3.6814401  )
        18           Cu  tau(  18) = (   0.0000000   0.0000000   4.1597441  )
        19           O   tau(  19) = (   0.5000000   0.0000000   4.2065863  )
        20           O   tau(  20) = (   0.0000000   0.4735409   4.2442406  )
        21           Ca  tau(  21) = (   0.5000000   0.4735409   4.6133777  )
        22           O   tau(  22) = (   0.0000000   0.4735409   4.9993027  )
        23           O   tau(  23) = (   0.5000000   0.0000000   5.0341913  )
        24           Cu  tau(  24) = (   0.0000000   0.0000000   5.0735784  )
        25           Ba  tau(  25) = (   0.5000000   0.4735409   5.5419720  )
        26           O   tau(  26) = (   0.0000000   0.0000000   5.6078996  )
        27           Cu  tau(  27) = (   0.0000000   0.0000000   6.0845396  )
        28           O   tau(  28) = (   0.0000000   0.4735409   6.1579579  )

     number of k points=    25  Gaussian smearing, width (Ry)=  0.0100
                       cart. coord. in units 2pi/alat
        k(    1) = (   0.0000000   0.0000000   0.0000000), wk =   0.0312500
        k(    2) = (   0.0000000   0.1319845   0.0000000), wk =   0.0625000
        k(    3) = (   0.0000000   0.2639689   0.0000000), wk =   0.0625000
        k(    4) = (   0.0000000   0.3959534   0.0000000), wk =   0.0625000
        k(    5) = (   0.0000000  -0.5279378   0.0000000), wk =   0.0312500
        k(    6) = (   0.1250000   0.0000000   0.0000000), wk =   0.0625000
        k(    7) = (   0.1250000   0.1319845   0.0000000), wk =   0.1250000
        k(    8) = (   0.1250000   0.2639689   0.0000000), wk =   0.1250000
        k(    9) = (   0.1250000   0.3959534   0.0000000), wk =   0.1250000
        k(   10) = (   0.1250000  -0.5279378   0.0000000), wk =   0.0625000
        k(   11) = (   0.2500000   0.0000000   0.0000000), wk =   0.0625000
        k(   12) = (   0.2500000   0.1319845   0.0000000), wk =   0.1250000
        k(   13) = (   0.2500000   0.2639689   0.0000000), wk =   0.1250000
        k(   14) = (   0.2500000   0.3959534   0.0000000), wk =   0.1250000
        k(   15) = (   0.2500000  -0.5279378   0.0000000), wk =   0.0625000
        k(   16) = (   0.3750000   0.0000000   0.0000000), wk =   0.0625000
        k(   17) = (   0.3750000   0.1319845   0.0000000), wk =   0.1250000
        k(   18) = (   0.3750000   0.2639689   0.0000000), wk =   0.1250000
        k(   19) = (   0.3750000   0.3959534   0.0000000), wk =   0.1250000
        k(   20) = (   0.3750000  -0.5279378   0.0000000), wk =   0.0625000
        k(   21) = (  -0.5000000   0.0000000   0.0000000), wk =   0.0312500
        k(   22) = (  -0.5000000   0.1319845   0.0000000), wk =   0.0625000
        k(   23) = (  -0.5000000   0.2639689   0.0000000), wk =   0.0625000
        k(   24) = (  -0.5000000   0.3959534   0.0000000), wk =   0.0625000
        k(   25) = (  -0.5000000  -0.5279378   0.0000000), wk =   0.0312500

     Dense  grid:  1419661 G-vectors     FFT dimensions: (  64,  64, 720)

     Smooth grid:   273473 G-vectors     FFT dimensions: (  40,  36, 432)

     Estimated max dynamical RAM per process >     453.21 MB

     Estimated total dynamical RAM >       8.85 GB

     Initial potential from superposition of free atoms

     starting charge  226.84630, renormalised to  227.00000

     negative rho (up, down):  3.437E-03 0.000E+00
     Starting wfcs are  195 randomized atomic wfcs

     total cpu time spent up to now is       10.2 secs

     Self-consistent Calculation

     iteration #  1     ecut=    60.00 Ry     beta= 0.70
     Davidson diagonalization with overlap
     ethr =  1.00E-02,  avg # of iterations =  2.0

     negative rho (up, down):  2.935E-04 0.000E+00

     total cpu time spent up to now is       26.3 secs

     total energy              =   -1839.36908913 Ry
     Harris-Foulkes estimate   =   -1845.32792281 Ry
     estimated scf accuracy    <      19.04923712 Ry

     iteration #  2     ecut=    60.00 Ry     beta= 0.70
     Davidson diagonalization with overlap
     ethr =  8.39E-03,  avg # of iterations =  2.0

     negative rho (up, down):  2.655E-04 0.000E+00

     total cpu time spent up to now is       43.6 secs

     total energy              =   -1842.00089116 Ry
     Harris-Foulkes estimate   =   -1843.96608018 Ry
     estimated scf accuracy    <      10.39585876 Ry

     iteration #  3     ecut=    60.00 Ry     beta= 0.70
     Davidson diagonalization with overlap
     ethr =  4.58E-03,  avg # of iterations =  2.0

     negative rho (up, down):  2.532E-04 0.000E+00

     total cpu time spent up to now is       59.2 secs

     total energy              =   -1842.67030401 Ry
     Harris-Foulkes estimate   =   -1843.08682295 Ry
     estimated scf accuracy    <       4.07203304 Ry

     iteration #  4     ecut=    60.00 Ry     beta= 0.70
     Davidson diagonalization with overlap
     ethr =  1.79E-03,  avg # of iterations =  1.1

     negative rho (up, down):  2.461E-04 0.000E+00

     total cpu time spent up to now is       73.0 secs

     total energy              =   -1842.83916449 Ry
     Harris-Foulkes estimate   =   -1842.99326348 Ry
     estimated scf accuracy    <       6.44047005 Ry

     iteration #  5     ecut=    60.00 Ry     beta= 0.70
     Davidson diagonalization with overlap
     ethr =  1.79E-03,  avg # of iterations =  1.0

     negative rho (up, down):  2.412E-04 0.000E+00

     total cpu time spent up to now is       87.0 secs

     total energy              =   -1842.87347232 Ry
     Harris-Foulkes estimate   =   -1842.90196812 Ry
     estimated scf accuracy    <       1.14157864 Ry

     iteration #  6     ecut=    60.00 Ry     beta= 0.70
     Davidson diagonalization with overlap
     ethr =  5.03E-04,  avg # of iterations =  1.0

     negative rho (up, down):  2.400E-04 0.000E+00

     total cpu time spent up to now is      101.8 secs

     total energy              =   -1842.88350752 Ry
     Harris-Foulkes estimate   =   -1842.89797820 Ry
     estimated scf accuracy    <       2.09430514 Ry

     iteration #  7     ecut=    60.00 Ry     beta= 0.70
     Davidson diagonalization with overlap
     ethr =  5.03E-04,  avg # of iterations =  1.0

     negative rho (up, down):  2.400E-04 0.000E+00

     total cpu time spent up to now is      116.0 secs

     total energy              =   -1842.87111736 Ry
     Harris-Foulkes estimate   =   -1842.89154311 Ry
     estimated scf accuracy    <       1.39475792 Ry

     iteration #  8     ecut=    60.00 Ry     beta= 0.70
     Davidson diagonalization with overlap
     ethr =  5.03E-04,  avg # of iterations =  1.0

     negative rho (up, down):  2.404E-04 0.000E+00

     total cpu time spent up to now is      129.9 secs

     total energy              =   -1842.87191975 Ry
     Harris-Foulkes estimate   =   -1842.87832448 Ry
     estimated scf accuracy    <       0.49543310 Ry

     iteration #  9     ecut=    60.00 Ry     beta= 0.70
     Davidson diagonalization with overlap
     ethr =  2.18E-04,  avg # of iterations =  3.2

     negative rho (up, down):  2.409E-04 0.000E+00

     total cpu time spent up to now is      146.4 secs

     total energy              =   -1842.86888568 Ry
     Harris-Foulkes estimate   =   -1842.87411555 Ry
     estimated scf accuracy    <       0.19737709 Ry

     iteration # 10     ecut=    60.00 Ry     beta= 0.70
     Davidson diagonalization with overlap
     ethr =  8.70E-05,  avg # of iterations =  5.6

     negative rho (up, down):  2.415E-04 0.000E+00

     total cpu time spent up to now is      165.6 secs

     total energy              =   -1842.86834348 Ry
     Harris-Foulkes estimate   =   -1842.87041610 Ry
     estimated scf accuracy    <       0.07149692 Ry

     iteration # 11     ecut=    60.00 Ry     beta= 0.70
     Davidson diagonalization with overlap
     ethr =  3.15E-05,  avg # of iterations =  6.2

     negative rho (up, down):  2.430E-04 0.000E+00

     total cpu time spent up to now is      185.5 secs

     total energy              =   -1842.86608631 Ry
     Harris-Foulkes estimate   =   -1842.86902535 Ry
     estimated scf accuracy    <       0.09284177 Ry

     iteration # 12     ecut=    60.00 Ry     beta= 0.70
     Davidson diagonalization with overlap
     ethr =  3.15E-05,  avg # of iterations =  2.7

     negative rho (up, down):  6.938E-04 0.000E+00

     total cpu time spent up to now is      201.4 secs

     total energy              =   -1842.86499925 Ry
     Harris-Foulkes estimate   =   -1842.86659999 Ry
     estimated scf accuracy    <       0.09153131 Ry

     iteration # 13     ecut=    60.00 Ry     beta= 0.70
     Davidson diagonalization with overlap
     ethr =  3.15E-05,  avg # of iterations =  1.5

     negative rho (up, down):  4.506E-03 0.000E+00

     total cpu time spent up to now is      215.9 secs

     total energy              =   -1842.86364022 Ry
     Harris-Foulkes estimate   =   -1842.86530693 Ry
     estimated scf accuracy    <       0.04509192 Ry

     iteration # 14     ecut=    60.00 Ry     beta= 0.70
     Davidson diagonalization with overlap
     ethr =  1.99E-05,  avg # of iterations =  5.2

     negative rho (up, down):  1.091E-02 0.000E+00

     total cpu time spent up to now is      235.0 secs

     total energy              =   -1842.86294677 Ry
     Harris-Foulkes estimate   =   -1842.86413059 Ry
     estimated scf accuracy    <       0.01610340 Ry

     iteration # 15     ecut=    60.00 Ry     beta= 0.70
     Davidson diagonalization with overlap
     ethr =  7.09E-06,  avg # of iterations =  8.2

     negative rho (up, down):  1.181E-02 0.000E+00

     total cpu time spent up to now is      257.7 secs

     total energy              =   -1842.86206497 Ry
     Harris-Foulkes estimate   =   -1842.86329387 Ry
     estimated scf accuracy    <       0.00876314 Ry

     iteration # 16     ecut=    60.00 Ry     beta= 0.70
     Davidson diagonalization with overlap
     ethr =  3.86E-06,  avg # of iterations =  5.7

     negative rho (up, down):  2.096E-02 0.000E+00

     total cpu time spent up to now is      276.8 secs

     total energy              =   -1842.86118818 Ry
     Harris-Foulkes estimate   =   -1842.86229124 Ry
     estimated scf accuracy    <       0.00498330 Ry

     iteration # 17     ecut=    60.00 Ry     beta= 0.70
     Davidson diagonalization with overlap
     ethr =  2.20E-06,  avg # of iterations =  9.1

     negative rho (up, down):  1.077E-02 0.000E+00

     total cpu time spent up to now is      302.5 secs

     total energy              =   -1842.86068596 Ry
     Harris-Foulkes estimate   =   -1842.86131279 Ry
     estimated scf accuracy    <       0.00270581 Ry

     iteration # 18     ecut=    60.00 Ry     beta= 0.70
     Davidson diagonalization with overlap
     ethr =  1.19E-06,  avg # of iterations =  5.8

     negative rho (up, down):  1.821E-02 0.000E+00

     total cpu time spent up to now is      322.6 secs

     total energy              =   -1842.86046700 Ry
     Harris-Foulkes estimate   =   -1842.86081480 Ry
     estimated scf accuracy    <       0.00831424 Ry

     iteration # 19     ecut=    60.00 Ry     beta= 0.70
     Davidson diagonalization with overlap
     ethr =  1.19E-06,  avg # of iterations =  8.0

     negative rho (up, down):  1.024E-02 0.000E+00

     total cpu time spent up to now is      345.8 secs

     total energy              =   -1842.86023160 Ry
     Harris-Foulkes estimate   =   -1842.86059445 Ry
     estimated scf accuracy    <       0.00304488 Ry

     iteration # 20     ecut=    60.00 Ry     beta= 0.70
     Davidson diagonalization with overlap
     ethr =  1.19E-06,  avg # of iterations =  4.6

     negative rho (up, down):  4.477E-03 0.000E+00

     total cpu time spent up to now is      364.4 secs

     total energy              =   -1842.86018737 Ry
     Harris-Foulkes estimate   =   -1842.86032964 Ry
     estimated scf accuracy    <       0.00116747 Ry

     iteration # 21     ecut=    60.00 Ry     beta= 0.70
     Davidson diagonalization with overlap
     c_bands:  1 eigenvalues not converged
     ethr =  5.14E-07,  avg # of iterations =  7.8

     negative rho (up, down):  4.166E-03 0.000E+00

     total cpu time spent up to now is      387.2 secs

     total energy              =   -1842.86023658 Ry
     Harris-Foulkes estimate   =   -1842.86022901 Ry
     estimated scf accuracy    <       0.00016199 Ry

     iteration # 22     ecut=    60.00 Ry     beta= 0.70
     Davidson diagonalization with overlap
     ethr =  7.14E-08,  avg # of iterations =  2.6

     negative rho (up, down):  2.158E-03 0.000E+00

     total cpu time spent up to now is      402.7 secs

     total energy              =   -1842.86023926 Ry
     Harris-Foulkes estimate   =   -1842.86024802 Ry
     estimated scf accuracy    <       0.00014033 Ry

     iteration # 23     ecut=    60.00 Ry     beta= 0.70
     Davidson diagonalization with overlap
     c_bands:  1 eigenvalues not converged
     c_bands:  1 eigenvalues not converged
     ethr =  6.18E-08,  avg # of iterations =  6.8

     negative rho (up, down):  1.527E-03 0.000E+00

     total cpu time spent up to now is      423.8 secs

     total energy              =   -1842.86024925 Ry
     Harris-Foulkes estimate   =   -1842.86024275 Ry
     estimated scf accuracy    <       0.00004562 Ry

     iteration # 24     ecut=    60.00 Ry     beta= 0.70
     Davidson diagonalization with overlap
     ethr =  2.01E-08,  avg # of iterations =  4.2

     negative rho (up, down):  1.563E-03 0.000E+00

     total cpu time spent up to now is      441.2 secs

     total energy              =   -1842.86025159 Ry
     Harris-Foulkes estimate   =   -1842.86025001 Ry
     estimated scf accuracy    <       0.00001295 Ry

     iteration # 25     ecut=    60.00 Ry     beta= 0.70
     Davidson diagonalization with overlap
     ethr =  5.71E-09,  avg # of iterations =  2.2

     negative rho (up, down):  1.501E-03 0.000E+00

     total cpu time spent up to now is      456.4 secs

     total energy              =   -1842.86025175 Ry
     Harris-Foulkes estimate   =   -1842.86025206 Ry
     estimated scf accuracy    <       0.00000765 Ry

     iteration # 26     ecut=    60.00 Ry     beta= 0.70
     Davidson diagonalization with overlap
     ethr =  3.37E-09,  avg # of iterations =  1.0

     negative rho (up, down):  1.569E-03 0.000E+00

     total cpu time spent up to now is      470.5 secs

     total energy              =   -1842.86025188 Ry
     Harris-Foulkes estimate   =   -1842.86025207 Ry
     estimated scf accuracy    <       0.00000357 Ry

     iteration # 27     ecut=    60.00 Ry     beta= 0.70
     Davidson diagonalization with overlap
     ethr =  1.57E-09,  avg # of iterations =  1.2

     negative rho (up, down):  1.563E-03 0.000E+00

     total cpu time spent up to now is      484.8 secs

     total energy              =   -1842.86025197 Ry
     Harris-Foulkes estimate   =   -1842.86025201 Ry
     estimated scf accuracy    <       0.00000160 Ry

     iteration # 28     ecut=    60.00 Ry     beta= 0.70
     Davidson diagonalization with overlap
     ethr =  7.04E-10,  avg # of iterations =  2.2

     negative rho (up, down):  1.569E-03 0.000E+00

     total cpu time spent up to now is      500.4 secs

     total energy              =   -1842.86025199 Ry
     Harris-Foulkes estimate   =   -1842.86025202 Ry
     estimated scf accuracy    <       0.00000088 Ry

     iteration # 29     ecut=    60.00 Ry     beta= 0.70
     Davidson diagonalization with overlap
     ethr =  3.87E-10,  avg # of iterations =  1.8

     negative rho (up, down):  1.550E-03 0.000E+00

     total cpu time spent up to now is      515.5 secs

     total energy              =   -1842.86025203 Ry
     Harris-Foulkes estimate   =   -1842.86025201 Ry
     estimated scf accuracy    <       0.00000019 Ry

     iteration # 30     ecut=    60.00 Ry     beta= 0.70
     Davidson diagonalization with overlap
     ethr =  8.30E-11,  avg # of iterations =  3.0

     negative rho (up, down):  1.545E-03 0.000E+00

     total cpu time spent up to now is      531.9 secs

     total energy              =   -1842.86025204 Ry
     Harris-Foulkes estimate   =   -1842.86025204 Ry
     estimated scf accuracy    <       0.00000004 Ry

     iteration # 31     ecut=    60.00 Ry     beta= 0.70
     Davidson diagonalization with overlap
     ethr =  1.84E-11,  avg # of iterations =  2.4

     negative rho (up, down):  1.539E-03 0.000E+00

     total cpu time spent up to now is      547.5 secs

     total energy              =   -1842.86025205 Ry
     Harris-Foulkes estimate   =   -1842.86025204 Ry
     estimated scf accuracy    <       0.00000003 Ry

     iteration # 32     ecut=    60.00 Ry     beta= 0.70
     Davidson diagonalization with overlap
     ethr =  1.14E-11,  avg # of iterations =  1.0

     negative rho (up, down):  1.534E-03 0.000E+00

     total cpu time spent up to now is      562.2 secs

     total energy              =   -1842.86025206 Ry
     Harris-Foulkes estimate   =   -1842.86025205 Ry
     estimated scf accuracy    <       0.00000001 Ry

     iteration # 33     ecut=    60.00 Ry     beta= 0.70
     Davidson diagonalization with overlap
     ethr =  6.21E-12,  avg # of iterations =  1.0

     negative rho (up, down):  1.536E-03 0.000E+00

     total cpu time spent up to now is      576.3 secs

     total energy              =   -1842.86025205 Ry
     Harris-Foulkes estimate   =   -1842.86025206 Ry
     estimated scf accuracy    <          1.8E-09 Ry

     iteration # 34     ecut=    60.00 Ry     beta= 0.70
     Davidson diagonalization with overlap
     ethr =  8.03E-13,  avg # of iterations =  3.1

     negative rho (up, down):  1.532E-03 0.000E+00

     total cpu time spent up to now is      595.4 secs

     total energy              =   -1842.86025206 Ry
     Harris-Foulkes estimate   =   -1842.86025205 Ry
     estimated scf accuracy    <          2.4E-09 Ry

     iteration # 35     ecut=    60.00 Ry     beta= 0.70
     Davidson diagonalization with overlap
     ethr =  8.03E-13,  avg # of iterations =  1.0

     negative rho (up, down):  1.531E-03 0.000E+00

     total cpu time spent up to now is      609.2 secs

     total energy              =   -1842.86025206 Ry
     Harris-Foulkes estimate   =   -1842.86025206 Ry
     estimated scf accuracy    <          1.4E-09 Ry

     iteration # 36     ecut=    60.00 Ry     beta= 0.70
     Davidson diagonalization with overlap
     ethr =  6.34E-13,  avg # of iterations =  1.0

     negative rho (up, down):  1.531E-03 0.000E+00

     total cpu time spent up to now is      623.3 secs

     total energy              =   -1842.86025206 Ry
     Harris-Foulkes estimate   =   -1842.86025206 Ry
     estimated scf accuracy    <          5.4E-10 Ry

     iteration # 37     ecut=    60.00 Ry     beta= 0.70
     Davidson diagonalization with overlap
     ethr =  2.38E-13,  avg # of iterations =  1.0

     negative rho (up, down):  1.531E-03 0.000E+00

     total cpu time spent up to now is      637.6 secs

     total energy              =   -1842.86025206 Ry
     Harris-Foulkes estimate   =   -1842.86025206 Ry
     estimated scf accuracy    <          3.0E-10 Ry

     iteration # 38     ecut=    60.00 Ry     beta= 0.70
     Davidson diagonalization with overlap
     ethr =  1.31E-13,  avg # of iterations =  1.5

     negative rho (up, down):  1.531E-03 0.000E+00

     total cpu time spent up to now is      651.8 secs

     End of self-consistent calculation

          k = 0.0000 0.0000 0.0000 ( 34267 PWs)   bands (ev):

   -35.5955 -35.5791 -22.7765 -22.7746 -22.5549 -22.4620 -17.0983 -17.0836
   -16.6471 -16.6356 -16.6315 -16.6186 -15.3027 -15.2917 -14.6611 -14.6559
   -14.6364 -14.5760 -14.5631 -14.1655 -14.1638 -13.9768 -13.9694 -13.8374
   -13.8161 -13.7729 -13.0214  -7.9082  -7.9060  -7.8701  -7.8684  -7.7171
    -7.6772  -7.6754  -7.6704  -7.6099  -7.4636  -7.4400  -7.2818  -2.3131
    -2.3123  -1.9046  -1.8200  -1.8174  -1.7900  -1.7792  -1.6665  -1.6555
    -1.5495  -1.5304  -1.4921  -1.4824  -1.2040  -1.2018  -0.8753  -0.6249
    -0.4422  -0.4409  -0.3615  -0.3603  -0.3597  -0.3131  -0.2792  -0.2686
    -0.2679  -0.2520  -0.2484  -0.2472  -0.2461  -0.2335  -0.1682  -0.1422
    -0.0212  -0.0203   0.0882   0.1049   0.1118   0.1140   0.1155   0.1172
     0.1227   0.1431   0.1837   0.1866   0.2683   0.2911   0.3200   0.3372
     0.6869   0.7499   0.8206   0.8978   0.8993   0.9531   0.9909   1.1880
     1.1926   1.3547   1.3627   1.3833   1.3932   1.5056   1.5138   1.5274
     1.5364   1.5508   1.5577   1.8193   1.8333   1.9310   2.0506   2.0548
     2.1692   2.2033   2.2627   2.3290   2.3301   2.5495   2.5591   5.2261
     5.2352   5.6238   6.2012   6.3788   6.7709   6.7799   7.0895   7.1695
     7.9859   8.1028   8.2578   8.3140   8.5380   8.6351   8.6980   9.0899
     9.2524

          k = 0.0000 0.1320 0.0000 ( 34203 PWs)   bands (ev):

   -35.5936 -35.5773 -22.7498 -22.7480 -22.5292 -22.4377 -17.0622 -17.0475
   -16.7080 -16.6911 -16.6448 -16.6291 -15.2138 -15.2033 -14.6653 -14.6611
   -14.5901 -14.5493 -14.5340 -14.1753 -14.1733 -13.9801 -13.9733 -13.8909
   -13.8570 -13.8094 -13.0776  -7.9077  -7.9056  -7.8223  -7.8206  -7.7212
    -7.7177  -7.7144  -7.6673  -7.5644  -7.4890  -7.4218  -7.3197  -2.3727
    -2.3712  -2.1843  -2.1678  -2.0942  -2.0717  -1.8906  -1.6453  -1.6352
    -1.6285  -1.6263  -1.5323  -1.5134  -1.4748  -1.3325  -1.3181  -0.7962
    -0.6252  -0.6054  -0.5398  -0.5385  -0.5124  -0.4470  -0.4456  -0.3759
    -0.3618  -0.2917  -0.2312  -0.2020  -0.1764  -0.1590  -0.1383  -0.1315
    -0.1298   0.0003   0.0012   0.0131   0.0184   0.1287   0.1321   0.1389
     0.1419   0.1603   0.1636   0.1737   0.2820   0.2959   0.3630   0.3757
     0.8552   0.9547   1.0314   1.0737   1.0866   1.0956   1.0969   1.1524
     1.1673   1.1813   1.2001   1.4366   1.4538   1.4784   1.4854   1.5832
     1.6082   1.6184   1.7125   1.7911   1.8167   1.8943   1.9914   2.0147
     2.0428   2.0963   2.1437   2.5546   2.7194   2.8387   2.8469   5.6075
     5.6104   5.9396   6.5077   6.6103   7.0780   7.0838   7.4044   7.4770
     8.1603   8.2979   8.4670   8.5196   8.7416   8.8127   8.9471   9.2381
     9.3549

          k = 0.0000 0.2640 0.0000 ( 34079 PWs)   bands (ev):

   -35.5892 -35.5729 -22.6839 -22.6821 -22.4660 -22.3780 -16.9704 -16.9557
   -16.8620 -16.8452 -16.6391 -16.6235 -15.0117 -15.0029 -14.7167 -14.7098
   -14.5034 -14.4679 -14.4576 -14.1634 -14.1599 -14.0202 -14.0146 -14.0126
   -13.9447 -13.8691 -13.2050  -7.9072  -7.9052  -7.8099  -7.8080  -7.7167
    -7.7018  -7.7001  -7.6598  -7.5949  -7.4502  -7.4011  -7.3173  -2.8234
    -2.8177  -2.6634  -2.6286  -2.4735  -2.4124  -2.4110  -2.2646  -2.2631
    -1.9025  -1.5892  -1.5814  -1.5150  -1.4799  -1.4767  -1.4586  -1.2757
    -1.0060  -0.9191  -0.7919  -0.7903  -0.6601  -0.6440  -0.6240  -0.6064
    -0.5701  -0.5494  -0.5320  -0.4967  -0.4815  -0.4796  -0.4444  -0.3325
    -0.2926   0.0285   0.0296   0.0684   0.1009   0.1080   0.1320   0.1804
     0.1969   0.2377   0.3722   0.3868   0.6155   0.6241   0.7095   0.7191
     0.9695   0.9829   1.0231   1.1445   1.1514   1.1797   1.1814   1.2233
     1.2433   1.2507   1.3085   1.3381   1.3832   1.4772   1.5668   1.6797
     1.7592   1.7644   1.8826   1.8914   1.9126   1.9510   1.9695   1.9895
     1.9912   2.0951   2.2139   2.6689   3.0449   3.0636   3.3704   6.5028
     6.5044   6.6703   7.2933   7.3131   7.9017   7.9053   8.2483   8.3345
     8.6640   8.7780   8.8196   8.9010   9.0268   9.1529   9.3087   9.3224
     9.3562

          k = 0.0000 0.3960 0.0000 ( 34048 PWs)   bands (ev):

   -35.5848 -35.5685 -22.6157 -22.6139 -22.4008 -22.3165 -16.9985 -16.9815
   -16.8687 -16.8542 -16.6335 -16.6178 -14.9201 -14.9183 -14.6902 -14.6717
   -14.5022 -14.4060 -14.3183 -14.1215 -14.1062 -14.1002 -14.0928 -14.0760
   -14.0308 -13.9325 -13.3184  -7.9071  -7.9052  -7.8880  -7.8862  -7.7195
    -7.6843  -7.6506  -7.5734  -7.5717  -7.4708  -7.3290  -7.2071  -3.2888
    -3.2762  -3.2489  -3.0727  -3.0635  -2.9798  -2.9779  -2.3552  -2.3544
    -1.9324  -1.8277  -1.8031  -1.6465  -1.5220  -1.5161  -1.3810  -1.3642
    -1.2413  -1.1319  -1.0617  -1.0597  -0.9048  -0.8720  -0.8614  -0.8590
    -0.7911  -0.7562  -0.7375  -0.7233  -0.7061  -0.6336  -0.6310  -0.3502
    -0.2980  -0.0527   0.0454   0.0467   0.1133   0.1331   0.1449   0.1646
     0.1783   0.1892   0.4960   0.5149   0.7811   0.7925   0.9339   0.9375
     0.9651   0.9772   1.0486   1.0804   1.1186   1.1387   1.1517   1.1529
     1.1807   1.3444   1.5193   1.5880   1.6266   1.6600   1.7191   1.7306
     1.7366   1.7612   1.9177   1.9779   1.9789   1.9861   2.2110   2.2598
     2.3158   2.3839   2.3856   2.5785   2.9371   2.9603   3.6931   7.4250
     7.4501   7.4572   8.2407   8.2667   8.6752   8.6953   8.7304   9.0729
     9.0797   9.0940   9.0974   9.1266   9.3748   9.4609   9.4960   9.5258
     9.7139

          k = 0.0000-0.5279 0.0000 ( 34110 PWs)   bands (ev):

   -35.5830 -35.5667 -22.5868 -22.5850 -22.3731 -22.2905 -17.0505 -17.0336
   -16.8239 -16.8094 -16.6311 -16.6155 -14.9617 -14.9593 -14.5696 -14.5634
   -14.5487 -14.3913 -14.2528 -14.1524 -14.1322 -14.1090 -14.0864 -14.0575
   -14.0555 -13.9904 -13.3614  -7.9177  -7.9158  -7.9068  -7.9048  -7.7316
    -7.7063  -7.6465  -7.5175  -7.5158  -7.4973  -7.2764  -7.1597  -3.5321
    -3.4544  -3.4524  -3.2460  -3.2369  -3.2076  -3.2049  -2.3713  -2.3705
    -1.9519  -1.9434  -1.9313  -1.7802  -1.4882  -1.4827  -1.3383  -1.3018
    -1.2848  -1.2227  -1.1868  -1.1841  -1.0106  -0.9877  -0.9788  -0.9738
    -0.8966  -0.8238  -0.8210  -0.8194  -0.7810  -0.7156  -0.6388  -0.3156
    -0.2595  -0.1176   0.0511   0.0524   0.0778   0.1283   0.1591   0.1794
     0.1917   0.1942   0.4216   0.4354   0.8171   0.8223   0.8585   0.8704
     0.9967   1.0163   1.0271   1.1347   1.1359   1.1389   1.1457   1.2607
     1.3178   1.3314   1.4779   1.5889   1.7169   1.7367   1.7388   1.8002
     2.0151   2.0170   2.0184   2.0237   2.0274   2.0617   2.0685   2.2783
     2.4911   2.5043   2.5454   2.5472   2.7572   2.7845   3.7744   7.8323
     7.8618   7.8688   8.5390   8.8267   8.9407   8.9623   8.9957   9.0071
     9.0102   9.1352   9.3292   9.3477   9.3827   9.4541   9.8848  10.0051
    10.1237

          k = 0.1250 0.0000 0.0000 ( 34183 PWs)   bands (ev):

   -35.5944 -35.5780 -22.7584 -22.7566 -22.5374 -22.4462 -17.0649 -17.0502
   -16.7272 -16.7120 -16.6343 -16.6172 -15.1999 -15.1890 -14.7050 -14.7013
   -14.6560 -14.5826 -14.5683 -14.1746 -14.1728 -13.9876 -13.9810 -13.8571
   -13.8372 -13.8053 -13.0838  -7.9338  -7.9317  -7.8084  -7.8066  -7.7507
    -7.6837  -7.6448  -7.6430  -7.5439  -7.4155  -7.4093  -7.2540  -2.3561
    -2.3551  -1.9849  -1.8593  -1.8577  -1.8155  -1.8005  -1.7972  -1.7722
    -1.7585  -1.7488  -1.4590  -1.4474  -1.2020  -1.1997  -0.8988  -0.6742
    -0.6304  -0.5994  -0.4984  -0.4975  -0.4211  -0.4106  -0.4039  -0.3638
    -0.3235  -0.3223  -0.3072  -0.2637  -0.2539  -0.2107  -0.1811  -0.1545
    -0.0545  -0.0478   0.0806   0.1027   0.1082   0.1099   0.1223   0.1457
     0.2091   0.2104   0.2244   0.2308   0.3404   0.3568   0.4063   0.4354
     0.6229   0.7958   0.8086   0.8255   0.9165   0.9858   1.0390   1.1837
     1.1968   1.2236   1.2335   1.3701   1.3789   1.4889   1.4952   1.5196
     1.5477   1.6173   1.8115   1.8991   1.9425   2.0007   2.0063   2.0764
     2.1092   2.1571   2.2454   2.3122   2.3867   2.5858   2.5910   5.4109
     5.4144   5.8237   6.4298   6.5439   6.9880   6.9931   7.3010   7.3977
     8.1311   8.2320   8.4110   8.4905   8.7924   8.8043   8.9629   9.1798
     9.4682

          k = 0.1250 0.1320 0.0000 ( 34158 PWs)   bands (ev):

   -35.5926 -35.5762 -22.7326 -22.7307 -22.5126 -22.4226 -17.0299 -17.0151
   -16.7302 -16.7146 -16.6974 -16.6807 -15.1182 -15.1078 -14.7000 -14.6957
   -14.6074 -14.5521 -14.5371 -14.1756 -14.1737 -13.9904 -13.9856 -13.9053
   -13.8742 -13.8346 -13.1243  -7.9529  -7.9510  -7.8709  -7.8689  -7.7485
    -7.6845  -7.6303  -7.6067  -7.6050  -7.5058  -7.3711  -7.2117  -2.4097
    -2.4078  -2.1864  -2.1593  -2.0804  -2.0512  -1.9289  -1.8379  -1.8362
    -1.7862  -1.7535  -1.6225  -1.6203  -1.4844  -1.3256  -1.3139  -0.8675
    -0.7973  -0.7365  -0.6639  -0.6565  -0.5778  -0.5653  -0.5302  -0.4874
    -0.4853  -0.3685  -0.2725  -0.2582  -0.2365  -0.1951  -0.1716  -0.1248
    -0.0698  -0.0378  -0.0181   0.0178   0.0219   0.1407   0.1665   0.1733
     0.1954   0.2014   0.2210   0.2375   0.2958   0.3078   0.5132   0.5345
     0.8930   1.0321   1.0439   1.0587   1.0647   1.1279   1.1607   1.2234
     1.2427   1.2687   1.2843   1.3050   1.3167   1.3303   1.3542   1.6064
     1.6089   1.6383   1.6763   1.6779   1.7740   1.7916   2.0132   2.3395
     2.3535   2.3637   2.4780   2.6066   2.7322   2.8442   2.8517   5.7509
     5.7527   6.0836   6.6885   6.7506   7.2858   7.2893   7.6082   7.6999
     8.3032   8.4154   8.5962   8.6703   8.8927   8.9888   9.1475   9.2806
     9.3878

          k = 0.1250 0.2640 0.0000 ( 34093 PWs)   bands (ev):

   -35.5882 -35.5718 -22.6687 -22.6669 -22.4512 -22.3645 -16.9411 -16.9262
   -16.8588 -16.8422 -16.7099 -16.6946 -14.9397 -14.9321 -14.7060 -14.6970
   -14.5093 -14.4630 -14.4560 -14.1586 -14.1560 -14.0424 -14.0339 -14.0053
   -13.9429 -13.8780 -13.2172  -8.0217  -8.0200  -7.9080  -7.9060  -7.7876
    -7.7157  -7.6647  -7.6124  -7.5976  -7.5957  -7.3672  -7.2083  -2.8476
    -2.8410  -2.6668  -2.6336  -2.4668  -2.4129  -2.4115  -2.2641  -2.2625
    -1.9444  -1.7887  -1.7858  -1.7376  -1.7042  -1.5090  -1.4847  -1.2840
    -1.0274  -0.9791  -0.9699  -0.9357  -0.8771  -0.8620  -0.6873  -0.6774
    -0.6653  -0.6080  -0.5700  -0.5566  -0.4987  -0.4891  -0.4056  -0.3356
    -0.3115  -0.1374  -0.0924  -0.0205   0.0472   0.1925   0.2064   0.2166
     0.3609   0.4274   0.4950   0.5028   0.7484   0.7610   0.7999   0.8069
     1.0229   1.0377   1.0605   1.1093   1.1251   1.2118   1.3001   1.3091
     1.3282   1.3395   1.4029   1.4148   1.4378   1.4953   1.5716   1.5838
     1.6203   1.6443   1.6534   1.8852   1.9540   1.9555   2.0284   2.3432
     2.5453   2.5589   2.6850   2.8198   3.0507   3.0759   3.3674   6.5638
     6.5653   6.6843   7.3742   7.3898   8.0675   8.0696   8.4345   8.5297
     8.7815   8.8410   8.8631   8.9457   9.0786   9.1272   9.1695   9.2276
     9.3529

          k = 0.1250 0.3960 0.0000 ( 34104 PWs)   bands (ev):

   -35.5838 -35.5674 -22.6028 -22.6009 -22.3880 -22.3047 -16.9933 -16.9764
   -16.8423 -16.8277 -16.7013 -16.6860 -14.8847 -14.8830 -14.6179 -14.5965
   -14.4753 -14.3894 -14.3095 -14.1399 -14.1361 -14.1058 -14.0910 -14.0682
   -14.0146 -13.9253 -13.3009  -8.0522  -8.0503  -7.9195  -7.9175  -7.8436
    -7.7150  -7.6643  -7.6427  -7.6409  -7.6362  -7.4054  -7.2672  -3.3262
    -3.3179  -3.2452  -3.0990  -3.0875  -2.9711  -2.9692  -2.3635  -2.3626
    -1.9632  -1.7797  -1.7767  -1.7044  -1.6475  -1.6421  -1.6055  -1.4938
    -1.3189  -1.3142  -1.1921  -1.1790  -1.1654  -1.0964  -0.9488  -0.8645
    -0.8561  -0.8473  -0.8181  -0.7433  -0.7402  -0.6303  -0.5642  -0.3712
    -0.3477  -0.1821  -0.1153   0.0091   0.0838   0.2123   0.2193   0.2243
     0.3957   0.4623   0.6731   0.6934   0.9085   0.9168   0.9647   0.9859
     0.9987   1.0642   1.0698   1.1633   1.1809   1.2430   1.2448   1.2830
     1.3778   1.4038   1.5896   1.6532   1.6564   1.7256   1.7307   1.7540
     1.8279   1.8758   1.8896   2.0291   2.2889   2.3509   2.3526   2.4065
     2.4932   2.5071   2.6540   2.7392   2.9813   3.0216   3.6794   7.2286
     7.3141   7.3191   8.1065   8.1376   8.6661   8.6776   8.7095   8.8900
     8.9430   9.0665   9.3700   9.3897   9.5354   9.5783   9.6409   9.7075
     9.8293

          k = 0.1250-0.5279 0.0000 ( 34036 PWs)   bands (ev):

   -35.5819 -35.5656 -22.5748 -22.5730 -22.3612 -22.2794 -17.0449 -17.0280
   -16.7991 -16.7844 -16.6976 -16.6822 -14.9168 -14.9146 -14.5066 -14.4958
   -14.4900 -14.3641 -14.2355 -14.1793 -14.1660 -14.0916 -14.0846 -14.0577
   -14.0554 -13.9756 -13.3326  -8.0468  -8.0450  -7.9243  -7.9223  -7.8543
    -7.7149  -7.6770  -7.6756  -7.6625  -7.6250  -7.4294  -7.3115  -3.5337
    -3.5035  -3.4931  -3.2796  -3.2677  -3.2002  -3.1982  -2.3845  -2.3837
    -1.9691  -1.8135  -1.8070  -1.7418  -1.6002  -1.5875  -1.5090  -1.5029
    -1.4894  -1.4411  -1.3546  -1.3406  -1.2579  -1.1817  -1.0452  -0.9596
    -0.9330  -0.9316  -0.9108  -0.8361  -0.8333  -0.6672  -0.6001  -0.3534
    -0.3306  -0.1986  -0.1263   0.0269   0.1006   0.2242   0.2288   0.2329
     0.3998   0.4615   0.6445   0.6575   0.9418   0.9446   0.9654   0.9729
     1.0041   1.0196   1.0383   1.1388   1.2722   1.2792   1.3260   1.3513
     1.3831   1.4309   1.4538   1.7779   1.7819   1.9644   2.0076   2.0128
     2.0200   2.0289   2.0492   2.0524   2.3566   2.3617   2.4533   2.5146
     2.5165   2.5182   2.5268   2.5681   2.8531   2.8992   3.7548   7.4328
     7.5354   7.5397   8.2856   8.3248   8.6466   8.9351   9.0367   9.0954
     9.3158   9.3198   9.4938   9.6060   9.6803   9.7572   9.9768  10.0862
    10.1305

          k = 0.2500 0.0000 0.0000 ( 34204 PWs)   bands (ev):

   -35.5917 -35.5754 -22.7141 -22.7123 -22.4947 -22.4076 -16.9800 -16.9650
   -16.8910 -16.8766 -16.6309 -16.6139 -14.9952 -14.9881 -14.7979 -14.7851
   -14.7182 -14.5963 -14.5930 -14.1888 -14.1868 -14.0330 -14.0249 -13.9003
   -13.8826 -13.8620 -13.2260  -7.9353  -7.9332  -7.7798  -7.7217  -7.7200
    -7.6703  -7.5641  -7.5623  -7.4656  -7.3329  -7.3217  -7.1855  -2.5514
    -2.5485  -2.3567  -2.2878  -2.1945  -2.1927  -1.8956  -1.7457  -1.7419
    -1.6636  -1.6561  -1.4761  -1.4511  -1.1986  -1.1964  -0.9683  -0.9467
    -0.9182  -0.7551  -0.7537  -0.7442  -0.7199  -0.6613  -0.6586  -0.6041
    -0.5147  -0.5136  -0.3898  -0.3270  -0.2948  -0.2385  -0.2338  -0.2060
    -0.1947  -0.1724   0.0648   0.0955   0.0972   0.1467   0.2027   0.2038
     0.3394   0.3402   0.4087   0.4255   0.4298   0.4752   0.5127   0.5529
     0.5632   0.6724   0.6766   0.8689   0.9345   0.9500   1.0714   1.2862
     1.2911   1.3135   1.3200   1.3504   1.4183   1.4281   1.4282   1.5086
     1.5661   1.5898   1.7214   1.8875   1.8992   1.9879   2.0392   2.0443
     2.0674   2.3031   2.3192   2.4771   2.5357   2.6926   2.6999   5.8702
     5.8717   6.2715   7.0269   7.0555   7.5670   7.5701   7.8847   8.0264
     8.4925   8.5012   8.7155   8.9028   9.0912   9.1789   9.3163   9.5830
     9.6114

          k = 0.2500 0.1320 0.0000 ( 34143 PWs)   bands (ev):

   -35.5899 -35.5736 -22.6903 -22.6884 -22.4717 -22.3855 -16.9481 -16.9330
   -16.8844 -16.8700 -16.6970 -16.6800 -14.9424 -14.9369 -14.7528 -14.7368
   -14.6640 -14.5587 -14.5568 -14.1746 -14.1727 -14.0300 -14.0247 -13.9348
   -13.9115 -13.8798 -13.2324  -8.0036  -8.0018  -7.8588  -7.8567  -7.8120
    -7.6810  -7.6344  -7.5304  -7.5287  -7.5220  -7.3036  -7.1418  -2.6026
    -2.5977  -2.3945  -2.3195  -2.1859  -2.1839  -2.0908  -2.0866  -1.9833
    -1.9682  -1.8667  -1.6130  -1.6107  -1.5078  -1.3828  -1.3770  -1.0284
    -1.0065  -0.9887  -0.9535  -0.9068  -0.8950  -0.8209  -0.6627  -0.6155
    -0.6096  -0.5467  -0.4364  -0.3518  -0.3295  -0.2998  -0.2342  -0.1981
    -0.1949  -0.0190  -0.0134   0.0381   0.0530   0.1252   0.1847   0.1994
     0.2301   0.3124   0.3479   0.3505   0.5757   0.6215   0.7696   0.7897
     0.8707   0.9146   0.9262   1.0115   1.0591   1.1231   1.1829   1.2182
     1.2401   1.3784   1.3880   1.4215   1.4230   1.4422   1.4931   1.4985
     1.5315   1.5478   1.5739   1.7460   1.7474   1.8385   2.0269   2.4769
     2.6595   2.6852   2.7807   2.8555   2.8675   2.9015   2.9149   6.1314
     6.1329   6.4056   7.1813   7.2019   7.8258   7.8282   8.1626   8.3032
     8.6069   8.6191   8.8559   9.0288   9.0686   9.2127   9.2945   9.3158
     9.4322

          k = 0.2500 0.2640 0.0000 ( 34141 PWs)   bands (ev):

   -35.5856 -35.5692 -22.6316 -22.6297 -22.4150 -22.3314 -16.8859 -16.8702
   -16.8583 -16.8439 -16.8335 -16.8171 -14.8482 -14.8459 -14.6232 -14.5984
   -14.5336 -14.4678 -14.4497 -14.1513 -14.1482 -14.0818 -14.0726 -13.9853
   -13.9446 -13.8991 -13.2466  -8.2237  -8.2219  -7.9872  -7.9206  -7.9186
    -7.8237  -7.7191  -7.6603  -7.6503  -7.6483  -7.4278  -7.2605  -2.9875
    -2.9768  -2.7459  -2.7018  -2.4478  -2.4265  -2.4250  -2.2978  -2.2955
    -2.2210  -2.1802  -2.1546  -2.1499  -1.8659  -1.4482  -1.4406  -1.4088
    -1.4067  -1.3445  -1.2905  -1.1848  -1.0149  -0.9544  -0.7548  -0.7236
    -0.7208  -0.6708  -0.6330  -0.5830  -0.5797  -0.5636  -0.4348  -0.4134
    -0.3886  -0.3377  -0.2517   0.0073   0.0893   0.2970   0.3684   0.3808
     0.5576   0.6132   0.7791   0.8171   0.8364   0.8462   0.9677   0.9789
     1.0306   1.1489   1.1891   1.2683   1.2767   1.3285   1.3784   1.3864
     1.4408   1.4578   1.4702   1.4964   1.5380   1.6017   1.6157   1.6245
     1.6801   1.7107   1.7827   1.8737   1.8746   1.8830   2.1982   2.4603
     2.9984   3.0060   3.2751   3.2809   3.3348   3.4138   3.4217   6.6389
     6.6739   6.6765   7.5703   7.5872   8.3593   8.3611   8.7200   8.7565
     8.8576   8.9988   9.0656   9.0760   9.2715   9.3492   9.3953   9.4402
     9.4799

          k = 0.2500 0.3960 0.0000 ( 34116 PWs)   bands (ev):

   -35.5812 -35.5649 -22.5712 -22.5693 -22.3568 -22.2758 -16.9813 -16.9644
   -16.8496 -16.8348 -16.7735 -16.7586 -14.8027 -14.8013 -14.4601 -14.4292
   -14.4203 -14.3601 -14.2890 -14.2094 -14.2035 -14.0846 -14.0755 -14.0429
   -13.9761 -13.9147 -13.2576  -8.3437  -8.3419  -8.1202  -7.9708  -7.9690
    -7.9365  -7.8643  -7.8624  -7.7394  -7.6964  -7.6316  -7.4928  -3.4864
    -3.4762  -3.2645  -3.2010  -3.1608  -2.9503  -2.9483  -2.4362  -2.4349
    -2.2160  -2.1522  -2.1117  -2.0963  -1.8546  -1.7891  -1.7787  -1.6635
    -1.6201  -1.4565  -1.4291  -1.3283  -1.1872  -1.1600  -1.0190  -0.8796
    -0.8369  -0.7914  -0.7899  -0.7827  -0.7766  -0.6052  -0.5747  -0.5435
    -0.4450  -0.4120  -0.3237   0.1248   0.2148   0.3321   0.4107   0.4440
     0.7147   0.8423   0.9836   0.9963   1.0051   1.0172   1.0974   1.2531
     1.2598   1.2989   1.3167   1.3317   1.3376   1.4742   1.5189   1.5492
     1.5630   1.6789   1.6940   1.7359   1.7708   1.7797   1.8022   1.8651
     1.9114   1.9186   1.9397   2.1578   2.2369   2.2726   2.2744   2.4597
     2.8308   2.8388   3.5009   3.5075   3.5865   3.6576   3.6909   6.6849
     6.8806   6.8847   7.7211   7.7606   8.7806   8.8084   8.8321   8.9078
     9.0725   9.1655   9.6666   9.6872   9.7994   9.8041   9.8381   9.8999
     9.9921

          k = 0.2500-0.5279 0.0000 ( 34148 PWs)   bands (ev):

   -35.5794 -35.5631 -22.5456 -22.5438 -22.3322 -22.2524 -17.0314 -17.0145
   -16.8441 -16.8293 -16.7341 -16.7192 -14.7994 -14.7977 -14.3995 -14.3538
   -14.3512 -14.3043 -14.2463 -14.2343 -14.1945 -14.0920 -14.0520 -14.0497
   -14.0214 -13.9455 -13.2607  -8.3439  -8.3420  -8.1395  -8.0587  -8.0569
    -7.9307  -7.9287  -7.9241  -7.7971  -7.7377  -7.6914  -7.6205  -3.6864
    -3.6754  -3.5128  -3.3995  -3.3801  -3.1779  -3.1760  -2.4433  -2.4421
    -2.1857  -2.1148  -2.0687  -2.0421  -1.9486  -1.9346  -1.8412  -1.8113
    -1.7538  -1.4786  -1.4534  -1.3766  -1.2591  -1.2410  -1.1112  -0.9677
    -0.9209  -0.8638  -0.8571  -0.8047  -0.8014  -0.6263  -0.5847  -0.5516
    -0.4627  -0.4368  -0.3367   0.1666   0.2505   0.3402   0.4300   0.4786
     0.7437   0.8843   1.0379   1.0482   1.0901   1.0955   1.1765   1.2085
     1.2116   1.3311   1.3576   1.4156   1.4345   1.5173   1.5208   1.5441
     1.6489   1.7606   1.7638   1.9073   1.9139   1.9943   2.0011   2.0355
     2.0439   2.0531   2.0703   2.0802   2.4059   2.4484   2.4500   2.5093
     2.6080   2.6189   3.5171   3.5272   3.6423   3.6933   3.7386   6.6407
     6.8455   6.8481   7.6817   7.7328   8.7700   8.8597   9.1503   9.2770
     9.5319   9.5344   9.6789   9.8274   9.8676   9.9805  10.0518  10.0791
    10.1215

          k = 0.3750 0.0000 0.0000 ( 34140 PWs)   bands (ev):

   -35.5891 -35.5728 -22.6687 -22.6669 -22.4510 -22.3681 -17.0313 -17.0171
   -16.8846 -16.8693 -16.6276 -16.6106 -15.0301 -15.0282 -14.8252 -14.6451
   -14.6358 -14.5984 -14.5827 -14.2014 -14.1982 -14.1346 -14.1246 -13.9314
   -13.9166 -13.9011 -13.3553  -7.9179  -7.9158  -7.7769  -7.6568  -7.6551
    -7.6417  -7.4797  -7.4779  -7.4231  -7.2532  -7.2457  -7.1145  -2.8809
    -2.8766  -2.7277  -2.6775  -2.3156  -2.3147  -1.9358  -1.6684  -1.6653
    -1.5780  -1.5568  -1.5153  -1.5101  -1.2002  -1.1981  -1.1695  -1.0551
    -1.0510  -1.0079  -1.0062  -0.9000  -0.8980  -0.8944  -0.8716  -0.7806
    -0.7148  -0.7137  -0.4575  -0.4194  -0.4136  -0.3128  -0.2583  -0.2529
    -0.2185  -0.2159   0.0506   0.0827   0.0832   0.0844   0.1842   0.2128
     0.3865   0.4188   0.4192   0.4197   0.4343   0.4497   0.4523   0.5114
     0.5461   0.7328   0.7483   0.8686   1.1124   1.1547   1.1989   1.1998
     1.2149   1.2291   1.3563   1.3676   1.4278   1.5049   1.5143   1.6259
     1.6503   1.7599   1.7798   1.7845   1.8224   1.8955   1.9241   2.1286
     2.1354   2.3294   2.3603   2.5819   2.6060   2.8106   2.8234   6.5199
     6.5213   6.7499   7.7568   7.7830   8.0143   8.0160   8.4730   8.4943
     8.6697   8.7790   8.8802   9.2467   9.3412   9.4836   9.4974   9.5061
     9.5833

          k = 0.3750 0.1320 0.0000 ( 34185 PWs)   bands (ev):

   -35.5873 -35.5710 -22.6470 -22.6452 -22.4299 -22.3478 -17.0227 -17.0085
   -16.8555 -16.8402 -16.6920 -16.6750 -14.9823 -14.9806 -14.7637 -14.6058
   -14.5920 -14.5366 -14.5230 -14.1730 -14.1705 -14.1134 -14.1050 -13.9667
   -13.9440 -13.9071 -13.3323  -7.9752  -7.9733  -7.8204  -7.8184  -7.8066
    -7.6628  -7.5920  -7.5694  -7.5675  -7.4521  -7.3512  -7.1873  -2.9441
    -2.9375  -2.7706  -2.7138  -2.3146  -2.3136  -2.0587  -2.0462  -1.9503
    -1.8792  -1.8466  -1.6014  -1.5991  -1.5118  -1.4586  -1.4544  -1.2994
    -1.2968  -1.2111  -1.1762  -1.0662  -0.9719  -0.9050  -0.7838  -0.7739
    -0.7294  -0.6875  -0.5020  -0.4162  -0.4051  -0.3569  -0.2920  -0.2518
    -0.2513  -0.0481  -0.0415   0.0566   0.0663   0.1084   0.1840   0.1960
     0.2109   0.4255   0.4564   0.4601   0.6527   0.6739   0.7400   0.8013
     0.8096   0.9436   0.9701   1.0438   1.1590   1.1917   1.2232   1.2310
     1.2903   1.3399   1.3741   1.3758   1.4720   1.5432   1.5443   1.6661
     1.7028   1.7164   1.7444   1.7984   1.8022   1.8256   1.8837   2.4658
     2.7236   2.7667   2.8068   2.9428   2.9529   3.1134   3.1310   6.6684
     6.6700   6.7194   7.8034   7.8207   8.0799   8.0815   8.4799   8.5190
     8.8784   8.9100   9.0263   9.2223   9.3273   9.4465   9.5106   9.6505
     9.6920

          k = 0.3750 0.2640 0.0000 ( 34193 PWs)   bands (ev):

   -35.5830 -35.5667 -22.5937 -22.5919 -22.3782 -22.2977 -17.0023 -16.9881
   -16.8364 -16.8193 -16.7803 -16.7652 -14.8601 -14.8587 -14.6019 -14.5113
   -14.4876 -14.3866 -14.3729 -14.1358 -14.1300 -14.1023 -14.0976 -14.0075
   -13.9803 -13.9085 -13.2745  -8.2764  -8.2746  -8.0426  -7.9551  -7.9533
    -7.8768  -7.8328  -7.8309  -7.7406  -7.6635  -7.6163  -7.4592  -3.2653
    -3.2511  -3.0086  -2.9517  -2.4895  -2.4872  -2.4250  -2.3772  -2.3703
    -2.3650  -2.3629  -2.2352  -2.2338  -1.9115  -1.7732  -1.7624  -1.5931
    -1.5647  -1.2485  -1.2349  -1.1641  -0.9920  -0.9477  -0.8709  -0.8675
    -0.8382  -0.7653  -0.6788  -0.6345  -0.6327  -0.5587  -0.5202  -0.4869
    -0.3730  -0.3609  -0.2775   0.0314   0.1264   0.3747   0.4787   0.5287
     0.6922   0.7200   0.8377   0.8522   1.0138   1.0225   1.0869   1.1001
     1.1608   1.2261   1.2308   1.2840   1.3920   1.4192   1.4277   1.4417
     1.5854   1.6341   1.6423   1.6470   1.7141   1.7401   1.7428   1.7634
     1.7689   1.8023   1.8220   1.8355   1.8371   1.9091   2.1646   2.4299
     2.9970   3.0091   3.3341   3.7292   3.7322   3.8322   3.8392   6.5073
     6.7140   6.7162   7.6277   7.6403   8.4181   8.4216   8.8005   8.8371
     8.9750   9.3342   9.4255   9.4310   9.5421   9.6240   9.7576   9.8288
     9.8663

          k = 0.3750 0.3960 0.0000 ( 34177 PWs)   bands (ev):

   -35.5787 -35.5623 -22.5390 -22.5372 -22.3252 -22.2466 -16.9850 -16.9702
   -16.9630 -16.9465 -16.7009 -16.6856 -14.7245 -14.7235 -14.4399 -14.4213
   -14.3418 -14.2282 -14.2258 -14.2151 -14.2071 -14.0667 -14.0632 -14.0042
   -13.9523 -13.9259 -13.2127  -8.5422  -8.5404  -8.3172  -8.2072  -8.2055
    -8.1380  -7.9582  -7.9559  -7.9457  -7.8022  -7.7744  -7.6619  -3.7461
    -3.7317  -3.4548  -3.4066  -3.1665  -2.9295  -2.9276  -2.6179  -2.6162
    -2.4862  -2.4622  -2.2638  -2.2627  -2.0849  -2.0690  -1.8975  -1.8269
    -1.7977  -1.3312  -1.2325  -1.2166  -1.1929  -1.1907  -1.0327  -0.9513
    -0.9468  -0.8655  -0.8536  -0.8114  -0.7978  -0.7288  -0.7051  -0.5758
    -0.3812  -0.3780  -0.2644   0.1813   0.2844   0.4334   0.6445   0.6799
     0.9451   1.0967   1.1614   1.1789   1.2298   1.2710   1.3030   1.3654
     1.3714   1.4905   1.4985   1.5011   1.5403   1.5883   1.6003   1.7320
     1.7769   1.7860   1.8042   1.8954   1.9204   1.9699   1.9980   2.0026
     2.0235   2.0692   2.1054   2.1855   2.1944   2.1961   2.2805   2.4813
     2.8180   2.8325   3.5884   4.2436   4.2486   4.3183   4.3224   6.1510
     6.4108   6.4129   7.3480   7.3841   8.8125   8.9595   8.9937   9.0389
     9.3920   9.4378   9.5127   9.5374   9.5699   9.6412   9.6825   9.8080
     9.9356

          k = 0.3750-0.5279 0.0000 ( 34192 PWs)   bands (ev):

   -35.5769 -35.5605 -22.5160 -22.5141 -22.3028 -22.2250 -17.0180 -17.0012
   -16.9724 -16.9581 -16.6656 -16.6503 -14.6628 -14.6618 -14.3945 -14.3901
   -14.2942 -14.2601 -14.1625 -14.1508 -14.1407 -14.0852 -14.0440 -14.0417
   -13.9499 -13.9330 -13.1856  -8.6243  -8.6224  -8.4125  -8.3523  -8.3506
    -8.2140  -8.0833  -7.9837  -7.9817  -7.9500  -7.7874  -7.6806  -3.9524
    -3.9381  -3.6611  -3.6090  -3.4362  -3.1548  -3.1528  -2.6364  -2.6347
    -2.4954  -2.4669  -2.2580  -2.2570  -2.1914  -2.1743  -1.9120  -1.8812
    -1.8810  -1.4060  -1.3204  -1.3087  -1.2381  -1.2295  -1.1041  -0.9524
    -0.9479  -0.9471  -0.9406  -0.9017  -0.8931  -0.7523  -0.7199  -0.5848
    -0.3662  -0.3639  -0.2428   0.2258   0.3213   0.4447   0.6974   0.7700
     1.0170   1.2725   1.2788   1.2859   1.3064   1.3132   1.3558   1.3627
     1.3890   1.5507   1.5684   1.6071   1.6186   1.7824   1.7876   1.8234
     1.8247   1.8822   1.9377   1.9771   2.0502   2.0534   2.1168   2.1432
     2.1521   2.2676   2.2773   2.2882   2.3735   2.3854   2.3879   2.5440
     2.5729   2.5927   3.6262   4.3821   4.3902   4.4679   4.4718   5.9716
     6.2331   6.2347   7.2410   7.2996   8.6648   8.9652   9.1392   9.1710
     9.3638   9.3880   9.5426   9.7344   9.7722   9.7739   9.8555   9.8640
     9.9043

          k =-0.5000 0.0000 0.0000 ( 34130 PWs)   bands (ev):

   -35.5880 -35.5717 -22.6495 -22.6477 -22.4325 -22.3516 -17.0836 -17.0696
   -16.8425 -16.8270 -16.6262 -16.6092 -15.0874 -15.0846 -14.8661 -14.6705
   -14.6362 -14.3792 -14.3614 -14.3210 -14.3063 -14.1815 -14.1792 -13.9364
   -13.9296 -13.9138 -13.4050  -7.9076  -7.9055  -7.7696  -7.6336  -7.6320
    -7.6271  -7.4436  -7.4418  -7.4129  -7.2192  -7.2177  -7.0843  -3.0230
    -3.0188  -2.8733  -2.8267  -2.3404  -2.3396  -1.9428  -1.6476  -1.6299
    -1.6231  -1.6207  -1.3894  -1.3869  -1.2612  -1.2041  -1.2020  -1.1690
    -1.1640  -1.0935  -1.0905  -1.0080  -0.9977  -0.9210  -0.9134  -0.8165
    -0.7982  -0.7971  -0.5245  -0.4761  -0.4246  -0.3453  -0.2910  -0.2761
    -0.2073  -0.2038   0.0183   0.0454   0.0773   0.0791   0.1402   0.1956
     0.3606   0.4148   0.4195   0.4210   0.4418   0.4451   0.4540   0.4572
     0.5609   0.7754   0.7902   0.8474   1.0673   1.1493   1.1509   1.1790
     1.3525   1.3693   1.3850   1.3872   1.3987   1.5925   1.5995   1.6441
     1.6697   1.6707   1.6976   1.8628   1.8744   1.9359   1.9672   2.1441
     2.1492   2.3263   2.3626   2.5854   2.6033   2.8441   2.8569   7.0253
     7.2920   7.2938   7.3447   7.3462   8.2576   8.3050   8.4561   8.5402
     8.6504   9.0404   9.1166   9.4237   9.4450   9.4588   9.6416   9.6725
     9.8525

          k =-0.5000 0.1320 0.0000 ( 34202 PWs)   bands (ev):

   -35.5862 -35.5699 -22.6288 -22.6269 -22.4123 -22.3319 -17.0744 -17.0603
   -16.8151 -16.7996 -16.6898 -16.6729 -15.0303 -15.0279 -14.7998 -14.6301
   -14.5952 -14.3392 -14.3229 -14.2618 -14.2484 -14.1599 -14.1577 -13.9753
   -13.9512 -13.9173 -13.3709  -7.9465  -7.9445  -7.7892  -7.7630  -7.7614
    -7.6486  -7.6465  -7.6429  -7.5334  -7.4325  -7.3459  -7.2911  -3.0927
    -3.0862  -2.9243  -2.8706  -2.3456  -2.3447  -2.0404  -2.0160  -1.9461
    -1.8221  -1.7992  -1.5960  -1.5938  -1.5136  -1.5017  -1.4843  -1.4149
    -1.4121  -1.3144  -1.2724  -1.0971  -0.9641  -0.9615  -0.8541  -0.8529
    -0.7320  -0.7050  -0.5076  -0.4545  -0.4430  -0.3803  -0.3183  -0.2759
    -0.2718  -0.0685  -0.0570   0.0566   0.0743   0.1036   0.1844   0.1962
     0.2026   0.5133   0.5305   0.5322   0.5446   0.5906   0.6672   0.7674
     0.8198   0.9499   1.0219   1.0641   1.1725   1.1986   1.2462   1.2916
     1.2932   1.2986   1.4085   1.4202   1.4854   1.6283   1.6425   1.6498
     1.6755   1.7316   1.7581   1.8682   1.8841   1.8999   1.9266   2.4492
     2.7341   2.7708   2.8021   2.9582   2.9694   3.1654   3.1853   6.8698
     7.1398   7.1413   7.6461   7.6481   8.1361   8.1779   8.4592   8.5078
     8.7613   9.2863   9.3431   9.4879   9.5634   9.5899   9.7023   9.7863
     9.7935

          k =-0.5000 0.2640 0.0000 ( 34216 PWs)   bands (ev):

   -35.5819 -35.5656 -22.5778 -22.5759 -22.3627 -22.2836 -17.0524 -17.0383
   -16.8330 -16.8160 -16.7440 -16.7286 -14.8791 -14.8773 -14.6253 -14.5339
   -14.4905 -14.2395 -14.2271 -14.1564 -14.1513 -14.1100 -14.1078 -14.0505
   -14.0177 -13.9045 -13.2852  -8.2153  -8.2134  -8.0642  -8.0625  -7.9887
    -7.8964  -7.8944  -7.8226  -7.8152  -7.7287  -7.6487  -7.6086  -3.4038
    -3.3895  -3.1548  -3.0987  -2.5159  -2.5138  -2.4157  -2.3989  -2.3939
    -2.3712  -2.3692  -2.2431  -2.2415  -1.9262  -1.9005  -1.8851  -1.6819
    -1.6458  -1.1642  -1.1638  -1.1435  -0.9534  -0.9517  -0.9265  -0.9038
    -0.8972  -0.8266  -0.7031  -0.6586  -0.6570  -0.5496  -0.5179  -0.4879
    -0.3812  -0.3783  -0.2864   0.0409   0.1408   0.4000   0.5143   0.5942
     0.7413   0.7580   0.8674   0.8726   1.0856   1.1012   1.1515   1.1618
     1.1826   1.2027   1.2028   1.2431   1.4386   1.4436   1.4724   1.5015
     1.6096   1.7067   1.7094   1.7207   1.7581   1.7627   1.7710   1.7965
     1.8241   1.8941   1.8969   1.9080   1.9211   1.9372   1.9979   2.3922
     2.9897   3.0029   3.3259   3.8692   3.8717   3.9645   3.9726   6.4340
     6.7100   6.7116   7.5543   7.5781   8.4553   8.4587   8.8931   8.9410
     9.0691   9.5040   9.5834   9.6011   9.6300   9.6971   9.7312   9.8616
     9.9213

          k =-0.5000 0.3960 0.0000 ( 34176 PWs)   bands (ev):

   -35.5776 -35.5613 -22.5256 -22.5237 -22.3119 -22.2343 -17.0308 -17.0167
   -16.9620 -16.9451 -16.6686 -16.6532 -14.6956 -14.6946 -14.4655 -14.4501
   -14.3198 -14.2170 -14.2055 -14.1379 -14.1304 -14.0620 -14.0598 -13.9846
   -13.9576 -13.9488 -13.1935  -8.5904  -8.5886  -8.3711  -8.3523  -8.3506
    -8.1850  -8.0871  -7.9742  -7.9721  -7.9428  -7.7924  -7.6694  -3.8773
    -3.8617  -3.5757  -3.5276  -3.1593  -2.9210  -2.9190  -2.6876  -2.6861
    -2.5597  -2.5445  -2.2800  -2.2791  -2.1891  -2.1666  -1.9018  -1.8898
    -1.8494  -1.3491  -1.2223  -1.2144  -1.0968  -1.0914  -1.0690  -1.0378
    -1.0085  -0.8751  -0.8716  -0.8150  -0.8002  -0.7981  -0.7764  -0.5679
    -0.3422  -0.3406  -0.2360   0.1984   0.3068   0.4713   0.7510   0.7831
     1.0421   1.1792   1.2730   1.2844   1.2867   1.3633   1.3882   1.3946
     1.4402   1.5155   1.5782   1.5797   1.5858   1.5951   1.6287   1.7832
     1.7886   1.8291   1.9004   1.9283   2.0029   2.0366   2.0605   2.0724
     2.1469   2.1615   2.1637   2.1677   2.2083   2.2355   2.3278   2.4437
     2.8059   2.8224   3.5731   4.5114   4.5165   4.5624   4.5669   5.9364
     6.2151   6.2165   7.1995   7.2319   8.8263   8.8826   8.9385   8.9863
     9.4323   9.4438   9.5993   9.6073   9.6800   9.7163   9.7255   9.8771
     9.9071

          k =-0.5000-0.5279 0.0000 ( 34236 PWs)   bands (ev):

   -35.5758 -35.5595 -22.5036 -22.5017 -22.2906 -22.2136 -17.0220 -17.0126
   -17.0079 -16.9957 -16.6353 -16.6199 -14.5965 -14.5961 -14.4368 -14.4317
   -14.2639 -14.2506 -14.1176 -14.0987 -14.0960 -14.0742 -14.0390 -14.0367
   -13.9426 -13.9171 -13.1535  -8.7365  -8.7346  -8.5228  -8.4684  -8.4667
    -8.3322  -8.1981  -8.0616  -8.0021  -7.9999  -7.8087  -7.6871  -4.0855
    -4.0701  -3.7763  -3.7276  -3.4327  -3.1453  -3.1433  -2.7199  -2.7184
    -2.5852  -2.5659  -2.2809  -2.2701  -2.2692  -2.2561  -1.9585  -1.9166
    -1.8786  -1.4348  -1.3374  -1.3248  -1.1634  -1.1538  -1.0995  -1.0155
    -1.0078  -0.9664  -0.9648  -0.9171  -0.8964  -0.8294  -0.7900  -0.5749
    -0.3133  -0.3117  -0.2088   0.2433   0.3449   0.4848   0.8270   0.9088
     1.1396   1.3535   1.3591   1.3670   1.3709   1.4064   1.4148   1.4691
     1.5830   1.6311   1.6419   1.6421   1.6593   1.6810   1.8706   1.8876
     1.9098   1.9170   2.0580   2.0619   2.0762   2.1097   2.1925   2.2030
     2.2241   2.3451   2.3555   2.3574   2.4267   2.4356   2.4384   2.5489
     2.5713   2.5991   3.6037   4.7056   4.7152   4.7699   4.7734   5.7091
     5.9879   5.9892   7.0759   7.1360   8.6717   8.9236   9.0481   9.0662
     9.0701   9.1170   9.5102   9.5750   9.6045   9.7462   9.8768   9.9866
    10.0375

     the Fermi energy is     2.5836 ev

!    total energy              =   -1842.86025206 Ry
     Harris-Foulkes estimate   =   -1842.86025206 Ry
     estimated scf accuracy    <          5.6E-11 Ry

     The total energy is the sum of the following terms:

     one-electron contribution =  -29883.79404233 Ry
     hartree contribution      =   15095.32684412 Ry
     xc contribution           =    -621.68293757 Ry
     ewald contribution        =   13567.29932296 Ry
     smearing contrib. (-TS)   =      -0.00943923 Ry

     convergence has been achieved in  38 iterations

     negative rho (up, down):  1.531E-03 0.000E+00

     Forces acting on atoms (cartesian axes, Ry/au):

     atom    1 type  4   force =     0.00000000    0.00000000   -0.00022035
     atom    2 type  3   force =     0.00000000    0.00000000    0.00043214
     atom    3 type  4   force =     0.00000000    0.00000000   -0.00080400
     atom    4 type  1   force =     0.00000000    0.00000000   -0.00037513
     atom    5 type  3   force =     0.00000000    0.00000000    0.00051565
     atom    6 type  4   force =     0.00000000    0.00000000    0.00046713
     atom    7 type  4   force =     0.00000000    0.00000000    0.00075903
     atom    8 type  2   force =     0.00000000    0.00000000   -0.00174117
     atom    9 type  4   force =     0.00000000    0.00000000    0.00178758
     atom   10 type  4   force =     0.00000000    0.00000000    0.00161309
     atom   11 type  3   force =     0.00000000    0.00000000    0.00122299
     atom   12 type  1   force =     0.00000000    0.00000000    0.00635907
     atom   13 type  4   force =     0.00000000    0.00000000   -0.00732721
     atom   14 type  4   force =     0.00000000    0.00000000    0.01862894
     atom   15 type  3   force =     0.00000000    0.00000000    0.03350844
     atom   16 type  4   force =     0.00000000    0.00000000   -0.02968341
     atom   17 type  1   force =     0.00000000    0.00000000   -0.01548178
     atom   18 type  3   force =     0.00000000    0.00000000   -0.01164489
     atom   19 type  4   force =     0.00000000    0.00000000    0.00131079
     atom   20 type  4   force =     0.00000000    0.00000000   -0.00013260
     atom   21 type  2   force =     0.00000000    0.00000000    0.00135246
     atom   22 type  4   force =     0.00000000    0.00000000   -0.00081007
     atom   23 type  4   force =     0.00000000    0.00000000   -0.00011567
     atom   24 type  3   force =     0.00000000    0.00000000   -0.00045357
     atom   25 type  1   force =     0.00000000    0.00000000    0.00034953
     atom   26 type  4   force =     0.00000000    0.00000000    0.00062635
     atom   27 type  3   force =     0.00000000    0.00000000   -0.00024539
     atom   28 type  4   force =     0.00000000    0.00000000    0.00010204

     Total force =     0.053124     Total SCF correction =     0.000023


     Computing stress (Cartesian axis) and pressure


     negative rho (up, down):  1.531E-03 0.000E+00
          total   stress  (Ry/bohr**3)                   (kbar)     P=       -5.62
   0.00000420   0.00000000   0.00000000            0.62        0.00        0.00
   0.00000000  -0.00004437   0.00000000            0.00       -6.53        0.00
   0.00000000   0.00000000  -0.00007434            0.00        0.00      -10.94


     number of scf cycles    =   2
     number of bfgs steps    =   1

     energy   old            =   -1842.8869342713 Ry
     energy   new            =   -1842.8602520591 Ry

     CASE: energy  _new > energy  _old


 %%%%%%%%%%%%%%%%%%%%%%%%%%%%%%%%%%%%%%%%%%%%%%%%%%%%%%%%%%%%%%%%%%%%%%%%%%%%%%
     Error in routine bfgs (1):
     dE0s is positive which should never happen
 %%%%%%%%%%%%%%%%%%%%%%%%%%%%%%%%%%%%%%%%%%%%%%%%%%%%%%%%%%%%%%%%%%%%%%%%%%%%%%

     stopping ...
