
     Program PWSCF v.6.5 starts on  9Jul2021 at 19:19:48 

     This program is part of the open-source Quantum ESPRESSO suite
     for quantum simulation of materials; please cite
         "P. Giannozzi et al., J. Phys.:Condens. Matter 21 395502 (2009);
         "P. Giannozzi et al., J. Phys.:Condens. Matter 29 465901 (2017);
          URL http://www.quantum-espresso.org", 
     in publications or presentations arising from this work. More details at
     http://www.quantum-espresso.org/quote

     Parallel version (MPI), running on    20 processors

     MPI processes distributed on     2 nodes
     R & G space division:  proc/nbgrp/npool/nimage =      20
     Reading input from CBCO_Y_cleave_1.0_sep.pwi
Warning: card &CELL ignored
Warning: card     CELL_DYNAMICS = 'BFGS' ignored
Warning: card     PRESS_CONV_THR = 0.5 ignored
Warning: card / ignored

     Current dimensions of program PWSCF are:
     Max number of different atomic species (ntypx) = 10
     Max number of k-points (npk) =  40000
     Max angular momentum in pseudopotentials (lmaxx) =  3

     Subspace diagonalization in iterative solution of the eigenvalue problem:
     one sub-group per band group will be used
     scalapack distributed-memory algorithm (size of sub-group:  4*  4 procs)

     Message from routine setup:
     using ibrav=0 with symmetry is DISCOURAGED, use correct ibrav instead
 
     Parallelization info
     --------------------
     sticks:   dense  smooth     PW     G-vecs:    dense   smooth      PW
     Min         149      50     14                71773    13820    2160
     Max         150      51     15                71810    13841    2205
     Sum        2991    1007    289              1435837   276553   43473
 


     bravais-lattice index     =            0
     lattice parameter (alat)  =       7.4270  a.u.
     unit-cell volume          =    4401.0322 (a.u.)^3
     number of atoms/cell      =           28
     number of atomic types    =            4
     number of electrons       =       227.00
     number of Kohn-Sham states=          137
     kinetic-energy cutoff     =      60.0000  Ry
     charge density cutoff     =     720.0000  Ry
     convergence threshold     =      1.0E-10
     mixing beta               =       0.7000
     number of iterations used =           10  local-TF  mixing
     Exchange-correlation= SLA PW PBE PBE
                           (   1   4   3   4   0   0   0)
     nstep                     =          300


     celldm(1)=   7.427040  celldm(2)=   0.000000  celldm(3)=   0.000000
     celldm(4)=   0.000000  celldm(5)=   0.000000  celldm(6)=   0.000000

     crystal axes: (cart. coord. in units of alat)
               a(1) = (   1.000000   0.000000   0.000000 )  
               a(2) = (   0.000000   0.947081   0.000000 )  
               a(3) = (   0.000000   0.000000  11.342795 )  

     reciprocal axes: (cart. coord. in units 2 pi/alat)
               b(1) = (  1.000000  0.000000  0.000000 )  
               b(2) = (  0.000000  1.055876  0.000000 )  
               b(3) = (  0.000000  0.000000  0.088162 )  


     PseudoPot. # 1 for Ba read from file:
     ./pseudo/Ba.pbe-nsp-van.UPF
     MD5 check sum: 2b9c31dd849566dd297d80989662b7a0
     Pseudo is Ultrasoft + core correction, Zval = 10.0
     Generated by new atomic code, or converted to UPF format
     Using radial grid of  907 points,  6 beta functions with: 
                l(1) =   0
                l(2) =   0
                l(3) =   1
                l(4) =   1
                l(5) =   2
                l(6) =   2
     Q(r) pseudized with  6 coefficients,  rinner =    1.200   1.200   1.200
                                                       1.200   1.200

     PseudoPot. # 2 for Ca read from file:
     ./pseudo/Ca.pbe-nsp-van.UPF
     MD5 check sum: 6471098428ff4fa451746d08035ff179
     Pseudo is Ultrasoft + core correction, Zval = 10.0
     Generated by new atomic code, or converted to UPF format
     Using radial grid of  845 points,  6 beta functions with: 
                l(1) =   0
                l(2) =   0
                l(3) =   1
                l(4) =   1
                l(5) =   2
                l(6) =   2
     Q(r) pseudized with  6 coefficients,  rinner =    1.200   1.200   1.200
                                                       1.200   1.200

     PseudoPot. # 3 for Cu read from file:
     ./pseudo/Cu.pbe-n-van_ak.UPF
     MD5 check sum: 34e3282627ffb533726feb647e090d62
     Pseudo is Ultrasoft + core correction, Zval = 11.0
     Generated by new atomic code, or converted to UPF format
     Using radial grid of  867 points,  6 beta functions with: 
                l(1) =   0
                l(2) =   0
                l(3) =   1
                l(4) =   1
                l(5) =   2
                l(6) =   2
     Q(r) pseudized with  8 coefficients,  rinner =    1.400   1.400   1.400
                                                       1.400   1.400

     PseudoPot. # 4 for O  read from file:
     ./pseudo/O.pbe-van_ak.UPF
     MD5 check sum: 783ce7fe4c79b6a4916957118fed0856
     Pseudo is Ultrasoft, Zval =  6.0
     Generated by new atomic code, or converted to UPF format
     Using radial grid of  737 points,  4 beta functions with: 
                l(1) =   0
                l(2) =   0
                l(3) =   1
                l(4) =   1
     Q(r) pseudized with  8 coefficients,  rinner =    0.800   0.800   0.800


     atomic species   valence    mass     pseudopotential
        Ba            10.00   137.32700     Ba( 1.00)
        Ca            10.00    40.07800     Ca( 1.00)
        Cu            11.00    63.54600     Cu( 1.00)
        O              6.00    15.99900     O ( 1.00)

      4 Sym. Ops. (no inversion) found



   Cartesian axes

     site n.     atom                  positions (alat units)
         1           O   tau(   1) = (   0.0000000   0.4735409  -0.0469745  )
         2           Cu  tau(   2) = (   0.0000000   0.0000000   0.0264565  )
         3           O   tau(   3) = (   0.0000000   0.0000000   0.5030914  )
         4           Ba  tau(   4) = (   0.5000000   0.4735409   0.5690292  )
         5           Cu  tau(   5) = (   0.0000000   0.0000000   1.0374254  )
         6           O   tau(   6) = (   0.5000000   0.0000000   1.0768099  )
         7           O   tau(   7) = (   0.0000000   0.4735409   1.1116985  )
         8           Ca  tau(   8) = (   0.5000000   0.4735409   1.4976260  )
         9           O   tau(   9) = (   0.0000000   0.4735409   1.8667529  )
        10           O   tau(  10) = (   0.5000000   0.0000000   1.9044124  )
        11           Cu  tau(  11) = (   0.0000000   0.0000000   1.9512546  )
        12           Ba  tau(  12) = (   0.5000000   0.4735409   2.4295764  )
        13           O   tau(  13) = (   0.0000000   0.0000000   2.5115362  )
        14           O   tau(  14) = (   0.0000000   0.4735409   2.9918528  )
        15           Cu  tau(  15) = (   0.0000000   0.0000000   2.9919088  )
        16           O   tau(  16) = (   0.0000000   0.0000000   3.4722686  )
        17           Ba  tau(  17) = (   0.5000000   0.4735409   3.5542208  )
        18           Cu  tau(  18) = (   0.0000000   0.0000000   4.0579686  )
        19           O   tau(  19) = (   0.5000000   0.0000000   4.1048108  )
        20           O   tau(  20) = (   0.0000000   0.4735409   4.0915774  )
        21           Ca  tau(  21) = (   0.5000000   0.4735409   4.4607145  )
        22           O   tau(  22) = (   0.0000000   0.4735409   5.1519659  )
        23           O   tau(  23) = (   0.5000000   0.0000000   5.1868545  )
        24           Cu  tau(  24) = (   0.0000000   0.0000000   5.1753539  )
        25           Ba  tau(  25) = (   0.5000000   0.4735409   5.6691914  )
        26           O   tau(  26) = (   0.0000000   0.0000000   5.7351190  )
        27           Cu  tau(  27) = (   0.0000000   0.0000000   6.2117589  )
        28           O   tau(  28) = (   0.0000000   0.4735409   6.2851772  )

     number of k points=    25  Gaussian smearing, width (Ry)=  0.0100
                       cart. coord. in units 2pi/alat
        k(    1) = (   0.0000000   0.0000000   0.0000000), wk =   0.0312500
        k(    2) = (   0.0000000   0.1319845   0.0000000), wk =   0.0625000
        k(    3) = (   0.0000000   0.2639689   0.0000000), wk =   0.0625000
        k(    4) = (   0.0000000   0.3959534   0.0000000), wk =   0.0625000
        k(    5) = (   0.0000000  -0.5279378   0.0000000), wk =   0.0312500
        k(    6) = (   0.1250000   0.0000000   0.0000000), wk =   0.0625000
        k(    7) = (   0.1250000   0.1319845   0.0000000), wk =   0.1250000
        k(    8) = (   0.1250000   0.2639689   0.0000000), wk =   0.1250000
        k(    9) = (   0.1250000   0.3959534   0.0000000), wk =   0.1250000
        k(   10) = (   0.1250000  -0.5279378   0.0000000), wk =   0.0625000
        k(   11) = (   0.2500000   0.0000000   0.0000000), wk =   0.0625000
        k(   12) = (   0.2500000   0.1319845   0.0000000), wk =   0.1250000
        k(   13) = (   0.2500000   0.2639689   0.0000000), wk =   0.1250000
        k(   14) = (   0.2500000   0.3959534   0.0000000), wk =   0.1250000
        k(   15) = (   0.2500000  -0.5279378   0.0000000), wk =   0.0625000
        k(   16) = (   0.3750000   0.0000000   0.0000000), wk =   0.0625000
        k(   17) = (   0.3750000   0.1319845   0.0000000), wk =   0.1250000
        k(   18) = (   0.3750000   0.2639689   0.0000000), wk =   0.1250000
        k(   19) = (   0.3750000   0.3959534   0.0000000), wk =   0.1250000
        k(   20) = (   0.3750000  -0.5279378   0.0000000), wk =   0.0625000
        k(   21) = (  -0.5000000   0.0000000   0.0000000), wk =   0.0312500
        k(   22) = (  -0.5000000   0.1319845   0.0000000), wk =   0.0625000
        k(   23) = (  -0.5000000   0.2639689   0.0000000), wk =   0.0625000
        k(   24) = (  -0.5000000   0.3959534   0.0000000), wk =   0.0625000
        k(   25) = (  -0.5000000  -0.5279378   0.0000000), wk =   0.0312500

     Dense  grid:  1435837 G-vectors     FFT dimensions: (  64,  64, 720)

     Smooth grid:   276553 G-vectors     FFT dimensions: (  40,  36, 432)

     Estimated max dynamical RAM per process >     458.17 MB

     Estimated total dynamical RAM >       8.95 GB

     Initial potential from superposition of free atoms

     starting charge  226.84630, renormalised to  227.00000

     negative rho (up, down):  3.471E-03 0.000E+00
     Starting wfcs are  195 randomized atomic wfcs

     total cpu time spent up to now is        9.8 secs

     Self-consistent Calculation

     iteration #  1     ecut=    60.00 Ry     beta= 0.70
     Davidson diagonalization with overlap
     ethr =  1.00E-02,  avg # of iterations =  2.0

     negative rho (up, down):  2.908E-04 0.000E+00

     total cpu time spent up to now is       25.4 secs

     total energy              =   -1839.47197440 Ry
     Harris-Foulkes estimate   =   -1845.34456642 Ry
     estimated scf accuracy    <      17.91691756 Ry

     iteration #  2     ecut=    60.00 Ry     beta= 0.70
     Davidson diagonalization with overlap
     ethr =  7.89E-03,  avg # of iterations =  2.0

     negative rho (up, down):  2.660E-04 0.000E+00

     total cpu time spent up to now is       42.4 secs

     total energy              =   -1842.05445350 Ry
     Harris-Foulkes estimate   =   -1843.90110555 Ry
     estimated scf accuracy    <      12.94892322 Ry

     iteration #  3     ecut=    60.00 Ry     beta= 0.70
     Davidson diagonalization with overlap
     ethr =  5.70E-03,  avg # of iterations =  1.3

     negative rho (up, down):  2.507E-04 0.000E+00

     total cpu time spent up to now is       57.0 secs

     total energy              =   -1842.63735493 Ry
     Harris-Foulkes estimate   =   -1843.00876173 Ry
     estimated scf accuracy    <       3.70032323 Ry

     iteration #  4     ecut=    60.00 Ry     beta= 0.70
     Davidson diagonalization with overlap
     ethr =  1.63E-03,  avg # of iterations =  1.2

     negative rho (up, down):  2.442E-04 0.000E+00

     total cpu time spent up to now is       71.2 secs

     total energy              =   -1842.77442403 Ry
     Harris-Foulkes estimate   =   -1842.95180499 Ry
     estimated scf accuracy    <       6.49170616 Ry

     iteration #  5     ecut=    60.00 Ry     beta= 0.70
     Davidson diagonalization with overlap
     ethr =  1.63E-03,  avg # of iterations =  1.0

     negative rho (up, down):  2.412E-04 0.000E+00

     total cpu time spent up to now is       85.5 secs

     total energy              =   -1842.82093985 Ry
     Harris-Foulkes estimate   =   -1842.84646010 Ry
     estimated scf accuracy    <       1.79845649 Ry

     iteration #  6     ecut=    60.00 Ry     beta= 0.70
     Davidson diagonalization with overlap
     ethr =  7.92E-04,  avg # of iterations =  1.0

     negative rho (up, down):  2.342E-04 0.000E+00

     total cpu time spent up to now is       99.7 secs

     total energy              =   -1842.80346175 Ry
     Harris-Foulkes estimate   =   -1842.83353798 Ry
     estimated scf accuracy    <       1.26841406 Ry

     iteration #  7     ecut=    60.00 Ry     beta= 0.70
     Davidson diagonalization with overlap
     ethr =  5.59E-04,  avg # of iterations =  2.2

     negative rho (up, down):  2.333E-04 0.000E+00

     total cpu time spent up to now is      115.2 secs

     total energy              =   -1842.80568787 Ry
     Harris-Foulkes estimate   =   -1842.81922066 Ry
     estimated scf accuracy    <       1.07897967 Ry

     iteration #  8     ecut=    60.00 Ry     beta= 0.70
     Davidson diagonalization with overlap
     ethr =  4.75E-04,  avg # of iterations =  2.0

     negative rho (up, down):  2.319E-04 0.000E+00

     total cpu time spent up to now is      130.6 secs

     total energy              =   -1842.80070806 Ry
     Harris-Foulkes estimate   =   -1842.81219865 Ry
     estimated scf accuracy    <       0.77717466 Ry

     iteration #  9     ecut=    60.00 Ry     beta= 0.70
     Davidson diagonalization with overlap
     ethr =  3.42E-04,  avg # of iterations =  3.3

     negative rho (up, down):  2.306E-04 0.000E+00

     total cpu time spent up to now is      146.9 secs

     total energy              =   -1842.79820263 Ry
     Harris-Foulkes estimate   =   -1842.80503281 Ry
     estimated scf accuracy    <       0.20574796 Ry

     iteration # 10     ecut=    60.00 Ry     beta= 0.70
     Davidson diagonalization with overlap
     ethr =  9.06E-05,  avg # of iterations =  7.9

     negative rho (up, down):  2.302E-04 0.000E+00

     total cpu time spent up to now is      169.0 secs

     total energy              =   -1842.79860103 Ry
     Harris-Foulkes estimate   =   -1842.80087435 Ry
     estimated scf accuracy    <       0.10234569 Ry

     iteration # 11     ecut=    60.00 Ry     beta= 0.70
     Davidson diagonalization with overlap
     ethr =  4.51E-05,  avg # of iterations =  2.4

     negative rho (up, down):  2.295E-04 0.000E+00

     total cpu time spent up to now is      184.4 secs

     total energy              =   -1842.79698668 Ry
     Harris-Foulkes estimate   =   -1842.79976742 Ry
     estimated scf accuracy    <       0.10463738 Ry

     iteration # 12     ecut=    60.00 Ry     beta= 0.70
     Davidson diagonalization with overlap
     ethr =  4.51E-05,  avg # of iterations =  2.0

     negative rho (up, down):  2.300E-04 0.000E+00

     total cpu time spent up to now is      199.4 secs

     total energy              =   -1842.79677356 Ry
     Harris-Foulkes estimate   =   -1842.79811257 Ry
     estimated scf accuracy    <       0.13107125 Ry

     iteration # 13     ecut=    60.00 Ry     beta= 0.70
     Davidson diagonalization with overlap
     ethr =  4.51E-05,  avg # of iterations =  1.0

     negative rho (up, down):  2.913E-04 0.000E+00

     total cpu time spent up to now is      213.4 secs

     total energy              =   -1842.79519763 Ry
     Harris-Foulkes estimate   =   -1842.79718393 Ry
     estimated scf accuracy    <       0.09756434 Ry

     iteration # 14     ecut=    60.00 Ry     beta= 0.70
     Davidson diagonalization with overlap
     ethr =  4.30E-05,  avg # of iterations =  1.6

     negative rho (up, down):  1.543E-03 0.000E+00

     total cpu time spent up to now is      227.9 secs

     total energy              =   -1842.79449106 Ry
     Harris-Foulkes estimate   =   -1842.79574841 Ry
     estimated scf accuracy    <       0.08005175 Ry

     iteration # 15     ecut=    60.00 Ry     beta= 0.70
     Davidson diagonalization with overlap
     ethr =  3.53E-05,  avg # of iterations =  2.5

     negative rho (up, down):  2.370E-04 0.000E+00

     total cpu time spent up to now is      243.4 secs

     total energy              =   -1842.79376985 Ry
     Harris-Foulkes estimate   =   -1842.79491874 Ry
     estimated scf accuracy    <       0.07290438 Ry

     iteration # 16     ecut=    60.00 Ry     beta= 0.70
     Davidson diagonalization with overlap
     ethr =  3.21E-05,  avg # of iterations =  1.0

     negative rho (up, down):  1.551E-02 0.000E+00

     total cpu time spent up to now is      257.4 secs

     total energy              =   -1842.79127567 Ry
     Harris-Foulkes estimate   =   -1842.79468857 Ry
     estimated scf accuracy    <       0.06254602 Ry

     iteration # 17     ecut=    60.00 Ry     beta= 0.70
     Davidson diagonalization with overlap
     ethr =  2.76E-05,  avg # of iterations =  6.4

     negative rho (up, down):  1.674E-02 0.000E+00

     total cpu time spent up to now is      277.6 secs

     total energy              =   -1842.79128786 Ry
     Harris-Foulkes estimate   =   -1842.79210124 Ry
     estimated scf accuracy    <       0.01689946 Ry

     iteration # 18     ecut=    60.00 Ry     beta= 0.70
     Davidson diagonalization with overlap
     ethr =  7.44E-06,  avg # of iterations =  9.2

     negative rho (up, down):  1.115E-02 0.000E+00

     total cpu time spent up to now is      300.6 secs

     total energy              =   -1842.79094395 Ry
     Harris-Foulkes estimate   =   -1842.79150843 Ry
     estimated scf accuracy    <       0.00802216 Ry

     iteration # 19     ecut=    60.00 Ry     beta= 0.70
     Davidson diagonalization with overlap
     ethr =  3.53E-06,  avg # of iterations =  7.4

     negative rho (up, down):  6.437E-03 0.000E+00

     total cpu time spent up to now is      322.0 secs

     total energy              =   -1842.79092511 Ry
     Harris-Foulkes estimate   =   -1842.79112300 Ry
     estimated scf accuracy    <       0.00535911 Ry

     iteration # 20     ecut=    60.00 Ry     beta= 0.70
     Davidson diagonalization with overlap
     ethr =  2.36E-06,  avg # of iterations =  6.9

     negative rho (up, down):  1.293E-03 0.000E+00

     total cpu time spent up to now is      342.4 secs

     total energy              =   -1842.79090244 Ry
     Harris-Foulkes estimate   =   -1842.79100328 Ry
     estimated scf accuracy    <       0.00157694 Ry

     iteration # 21     ecut=    60.00 Ry     beta= 0.70
     Davidson diagonalization with overlap
     c_bands:  1 eigenvalues not converged
     ethr =  6.95E-07,  avg # of iterations =  7.2

     negative rho (up, down):  1.309E-03 0.000E+00

     total cpu time spent up to now is      363.5 secs

     total energy              =   -1842.79092197 Ry
     Harris-Foulkes estimate   =   -1842.79094558 Ry
     estimated scf accuracy    <       0.00074523 Ry

     iteration # 22     ecut=    60.00 Ry     beta= 0.70
     Davidson diagonalization with overlap
     ethr =  3.28E-07,  avg # of iterations =  4.9

     negative rho (up, down):  1.086E-03 0.000E+00

     total cpu time spent up to now is      382.1 secs

     total energy              =   -1842.79096125 Ry
     Harris-Foulkes estimate   =   -1842.79094989 Ry
     estimated scf accuracy    <       0.00075526 Ry

     iteration # 23     ecut=    60.00 Ry     beta= 0.70
     Davidson diagonalization with overlap
     c_bands:  1 eigenvalues not converged
     c_bands:  1 eigenvalues not converged
     ethr =  3.28E-07,  avg # of iterations =  7.1

     negative rho (up, down):  1.201E-03 0.000E+00

     total cpu time spent up to now is      402.6 secs

     total energy              =   -1842.79096573 Ry
     Harris-Foulkes estimate   =   -1842.79097285 Ry
     estimated scf accuracy    <       0.00016584 Ry

     iteration # 24     ecut=    60.00 Ry     beta= 0.70
     Davidson diagonalization with overlap
     ethr =  7.31E-08,  avg # of iterations =  1.3

     negative rho (up, down):  1.190E-03 0.000E+00

     total cpu time spent up to now is      417.0 secs

     total energy              =   -1842.79096986 Ry
     Harris-Foulkes estimate   =   -1842.79096968 Ry
     estimated scf accuracy    <       0.00002611 Ry

     iteration # 25     ecut=    60.00 Ry     beta= 0.70
     Davidson diagonalization with overlap
     ethr =  1.15E-08,  avg # of iterations =  1.6

     negative rho (up, down):  1.496E-03 0.000E+00

     total cpu time spent up to now is      431.7 secs

     total energy              =   -1842.79097129 Ry
     Harris-Foulkes estimate   =   -1842.79097153 Ry
     estimated scf accuracy    <       0.00001797 Ry

     iteration # 26     ecut=    60.00 Ry     beta= 0.70
     Davidson diagonalization with overlap
     ethr =  7.92E-09,  avg # of iterations =  1.0

     negative rho (up, down):  1.470E-03 0.000E+00

     total cpu time spent up to now is      446.0 secs

     total energy              =   -1842.79097163 Ry
     Harris-Foulkes estimate   =   -1842.79097189 Ry
     estimated scf accuracy    <       0.00000402 Ry

     iteration # 27     ecut=    60.00 Ry     beta= 0.70
     Davidson diagonalization with overlap
     ethr =  1.77E-09,  avg # of iterations =  2.5

     negative rho (up, down):  1.522E-03 0.000E+00

     total cpu time spent up to now is      461.7 secs

     total energy              =   -1842.79097172 Ry
     Harris-Foulkes estimate   =   -1842.79097200 Ry
     estimated scf accuracy    <       0.00000467 Ry

     iteration # 28     ecut=    60.00 Ry     beta= 0.70
     Davidson diagonalization with overlap
     ethr =  1.77E-09,  avg # of iterations =  1.0

     negative rho (up, down):  1.579E-03 0.000E+00

     total cpu time spent up to now is      475.8 secs

     total energy              =   -1842.79097176 Ry
     Harris-Foulkes estimate   =   -1842.79097187 Ry
     estimated scf accuracy    <       0.00000189 Ry

     iteration # 29     ecut=    60.00 Ry     beta= 0.70
     Davidson diagonalization with overlap
     ethr =  8.34E-10,  avg # of iterations =  1.1

     negative rho (up, down):  1.554E-03 0.000E+00

     total cpu time spent up to now is      490.1 secs

     total energy              =   -1842.79097179 Ry
     Harris-Foulkes estimate   =   -1842.79097180 Ry
     estimated scf accuracy    <       0.00000072 Ry

     iteration # 30     ecut=    60.00 Ry     beta= 0.70
     Davidson diagonalization with overlap
     ethr =  3.18E-10,  avg # of iterations =  1.6

     negative rho (up, down):  1.512E-03 0.000E+00

     total cpu time spent up to now is      505.1 secs

     total energy              =   -1842.79097183 Ry
     Harris-Foulkes estimate   =   -1842.79097181 Ry
     estimated scf accuracy    <       0.00000035 Ry

     iteration # 31     ecut=    60.00 Ry     beta= 0.70
     Davidson diagonalization with overlap
     ethr =  1.53E-10,  avg # of iterations =  1.5

     negative rho (up, down):  1.502E-03 0.000E+00

     total cpu time spent up to now is      519.7 secs

     total energy              =   -1842.79097186 Ry
     Harris-Foulkes estimate   =   -1842.79097185 Ry
     estimated scf accuracy    <       0.00000011 Ry

     iteration # 32     ecut=    60.00 Ry     beta= 0.70
     Davidson diagonalization with overlap
     ethr =  4.80E-11,  avg # of iterations =  1.6

     negative rho (up, down):  1.505E-03 0.000E+00

     total cpu time spent up to now is      534.5 secs

     total energy              =   -1842.79097185 Ry
     Harris-Foulkes estimate   =   -1842.79097186 Ry
     estimated scf accuracy    <       0.00000005 Ry

     iteration # 33     ecut=    60.00 Ry     beta= 0.70
     Davidson diagonalization with overlap
     ethr =  2.07E-11,  avg # of iterations =  2.3

     negative rho (up, down):  1.503E-03 0.000E+00

     total cpu time spent up to now is      550.0 secs

     total energy              =   -1842.79097186 Ry
     Harris-Foulkes estimate   =   -1842.79097185 Ry
     estimated scf accuracy    <       0.00000003 Ry

     iteration # 34     ecut=    60.00 Ry     beta= 0.70
     Davidson diagonalization with overlap
     ethr =  1.13E-11,  avg # of iterations =  2.0

     negative rho (up, down):  1.505E-03 0.000E+00

     total cpu time spent up to now is      565.1 secs

     total energy              =   -1842.79097185 Ry
     Harris-Foulkes estimate   =   -1842.79097186 Ry
     estimated scf accuracy    <       0.00000003 Ry

     iteration # 35     ecut=    60.00 Ry     beta= 0.70
     Davidson diagonalization with overlap
     ethr =  1.13E-11,  avg # of iterations =  1.0

     negative rho (up, down):  1.508E-03 0.000E+00

     total cpu time spent up to now is      579.6 secs

     total energy              =   -1842.79097185 Ry
     Harris-Foulkes estimate   =   -1842.79097185 Ry
     estimated scf accuracy    <          8.1E-09 Ry

     iteration # 36     ecut=    60.00 Ry     beta= 0.70
     Davidson diagonalization with overlap
     ethr =  3.55E-12,  avg # of iterations =  1.2

     negative rho (up, down):  1.508E-03 0.000E+00

     total cpu time spent up to now is      594.0 secs

     total energy              =   -1842.79097185 Ry
     Harris-Foulkes estimate   =   -1842.79097185 Ry
     estimated scf accuracy    <          3.4E-09 Ry

     iteration # 37     ecut=    60.00 Ry     beta= 0.70
     Davidson diagonalization with overlap
     ethr =  1.51E-12,  avg # of iterations =  1.2

     negative rho (up, down):  1.505E-03 0.000E+00

     total cpu time spent up to now is      608.6 secs

     total energy              =   -1842.79097185 Ry
     Harris-Foulkes estimate   =   -1842.79097185 Ry
     estimated scf accuracy    <          1.2E-09 Ry

     iteration # 38     ecut=    60.00 Ry     beta= 0.70
     Davidson diagonalization with overlap
     ethr =  5.39E-13,  avg # of iterations =  2.7

     negative rho (up, down):  1.505E-03 0.000E+00

     total cpu time spent up to now is      624.9 secs

     total energy              =   -1842.79097185 Ry
     Harris-Foulkes estimate   =   -1842.79097185 Ry
     estimated scf accuracy    <          7.9E-10 Ry

     iteration # 39     ecut=    60.00 Ry     beta= 0.70
     Davidson diagonalization with overlap
     ethr =  3.46E-13,  avg # of iterations =  1.0

     negative rho (up, down):  1.505E-03 0.000E+00

     total cpu time spent up to now is      639.7 secs

     total energy              =   -1842.79097185 Ry
     Harris-Foulkes estimate   =   -1842.79097185 Ry
     estimated scf accuracy    <          3.5E-10 Ry

     iteration # 40     ecut=    60.00 Ry     beta= 0.70
     Davidson diagonalization with overlap
     ethr =  1.55E-13,  avg # of iterations =  1.9

     negative rho (up, down):  1.506E-03 0.000E+00

     total cpu time spent up to now is      654.5 secs

     total energy              =   -1842.79097185 Ry
     Harris-Foulkes estimate   =   -1842.79097185 Ry
     estimated scf accuracy    <          2.4E-10 Ry

     iteration # 41     ecut=    60.00 Ry     beta= 0.70
     Davidson diagonalization with overlap
     ethr =  1.04E-13,  avg # of iterations =  1.0

     negative rho (up, down):  1.506E-03 0.000E+00

     total cpu time spent up to now is      668.6 secs

     total energy              =   -1842.79097185 Ry
     Harris-Foulkes estimate   =   -1842.79097185 Ry
     estimated scf accuracy    <          1.9E-10 Ry

     iteration # 42     ecut=    60.00 Ry     beta= 0.70
     Davidson diagonalization with overlap
     ethr =  1.00E-13,  avg # of iterations =  1.0

     negative rho (up, down):  1.506E-03 0.000E+00

     total cpu time spent up to now is      682.3 secs

     End of self-consistent calculation

          k = 0.0000 0.0000 0.0000 ( 34661 PWs)   bands (ev):

   -37.4553 -35.5831 -22.7882 -22.7061 -22.5313 -22.2864 -18.6412 -18.4828
   -18.4532 -17.0875 -16.6343 -16.6229 -15.4702 -15.2982 -15.0168 -14.8419
   -14.6685 -14.5687 -14.5011 -14.4489 -14.1786 -13.9808 -13.9789 -13.8196
   -13.7111 -13.7006 -13.5694  -7.9449  -7.9195  -7.8820  -7.7114  -7.7109
    -7.6891  -7.5757  -7.5692  -7.4098  -7.4017  -7.3596  -7.2107  -2.3270
    -2.1994  -2.1037  -2.0080  -2.0066  -1.8270  -1.7623  -1.6650  -1.5352
    -1.4797  -1.3770  -1.2174  -1.2163  -1.1842  -1.1132  -1.0427  -0.9908
    -0.8372  -0.5901  -0.4557  -0.3738  -0.3400  -0.3258  -0.3019  -0.2714
    -0.2707  -0.2617  -0.2592  -0.2455  -0.2407  -0.1957  -0.1830  -0.1755
    -0.1510  -0.0919  -0.0343  -0.0209   0.0421   0.0561   0.0712   0.1017
     0.1020   0.1021   0.1679   0.1765   0.2220   0.3125   0.3268   0.4139
     0.6000   0.6575   0.7738   0.8021   0.8588   0.8848   0.9461   0.9707
     0.9728   1.0529   1.1100   1.1864   1.3518   1.3731   1.4832   1.5234
     1.5313   1.6678   1.6889   1.7453   1.8370   2.0371   2.0702   2.0772
     2.1084   2.1802   2.2217   2.2605   2.2763   2.5140   2.5388   4.5868
     5.2193   5.3581   5.8778   6.3127   6.7664   6.8739   7.0552   7.2455
     7.4001   7.9817   7.9992   8.1496   8.1854   8.3026   8.5410   8.5826
     8.6130

          k = 0.0000 0.1320 0.0000 ( 34589 PWs)   bands (ev):

   -37.4536 -35.5813 -22.7616 -22.6815 -22.5058 -22.2585 -18.6440 -18.4807
   -18.4794 -17.0514 -16.6955 -16.6320 -15.4105 -15.2095 -14.9590 -14.7874
   -14.6736 -14.5414 -14.4711 -14.4614 -14.1880 -14.0183 -13.9844 -13.8654
   -13.7552 -13.7299 -13.6320  -7.9386  -7.9191  -7.8342  -7.7314  -7.7099
    -7.6675  -7.6186  -7.5306  -7.4573  -7.3686  -7.3525  -7.2446  -2.3872
    -2.3769  -2.2156  -2.1523  -2.0757  -2.0456  -2.0430  -1.6953  -1.6684
    -1.6447  -1.6415  -1.6230  -1.5174  -1.3786  -1.3322  -1.1310  -1.0981
    -0.9047  -0.6790  -0.6439  -0.6248  -0.5531  -0.4987  -0.4647  -0.4592
    -0.4584  -0.4507  -0.3337  -0.2784  -0.2575  -0.2037  -0.1582  -0.1449
    -0.1312  -0.0592  -0.0129  -0.0034   0.0099   0.0574   0.1199   0.1253
     0.1455   0.1701   0.1756   0.2051   0.2601   0.2813   0.3728   0.5136
     0.6957   0.7141   0.7986   0.9387   1.0606   1.0820   1.0873   1.1501
     1.1872   1.1916   1.1977   1.2543   1.3760   1.4400   1.4438   1.5364
     1.5751   1.6005   1.7067   1.7155   1.8254   1.9313   1.9655   2.0263
     2.0841   2.0967   2.1090   2.4388   2.8006   2.8269   2.8715   4.8293
     5.5958   5.7043   6.1508   6.5798   7.0683   7.1003   7.2586   7.4977
     7.6350   7.9851   8.0044   8.1654   8.3645   8.5129   8.6416   8.6735
     8.7628

          k = 0.0000 0.2640 0.0000 ( 34465 PWs)   bands (ev):

   -37.4494 -35.5769 -22.6957 -22.6209 -22.4431 -22.1895 -18.6795 -18.5110
   -18.4758 -16.9593 -16.8498 -16.6263 -15.2505 -15.0099 -14.8163 -14.7224
   -14.6457 -14.5128 -14.4797 -14.4190 -14.1753 -14.0862 -14.0242 -13.9924
   -13.8259 -13.8018 -13.7851  -7.9243  -7.9186  -7.8217  -7.7340  -7.7137
    -7.6982  -7.5596  -7.5589  -7.4171  -7.3898  -7.3172  -7.2282  -3.0239
    -2.8306  -2.7084  -2.6082  -2.5957  -2.4256  -2.3491  -2.2782  -2.1742
    -2.0293  -1.9891  -1.7002  -1.5910  -1.4872  -1.4610  -1.3598  -1.2049
    -1.1755  -0.9657  -0.9103  -0.9044  -0.8475  -0.8043  -0.7528  -0.7155
    -0.7082  -0.6481  -0.5826  -0.5305  -0.5161  -0.4943  -0.4882  -0.3130
    -0.2603  -0.1240   0.0152   0.0196   0.0275   0.0789   0.1003   0.1549
     0.1850   0.2154   0.3110   0.3763   0.6162   0.6208   0.7003   0.8524
     0.8953   0.9466   0.9723   1.0060   1.1375   1.1674   1.1785   1.2123
     1.2751   1.2883   1.3105   1.3790   1.4225   1.4493   1.6142   1.6430
     1.6584   1.6875   1.8007   1.9050   1.9426   1.9625   1.9765   2.0078
     2.1035   2.1541   2.1665   2.5796   3.0434   3.1116   3.7329   5.3043
     6.4896   6.5825   6.7575   7.3118   7.3543   7.5650   7.7548   7.8913
     8.2996   8.3341   8.4639   8.6688   8.6855   8.7091   8.8632   8.9128
     9.1239

          k = 0.0000 0.3960 0.0000 ( 34424 PWs)   bands (ev):

   -37.4452 -35.5725 -22.6275 -22.5585 -22.3784 -22.1179 -18.7470 -18.5067
   -18.4708 -16.9861 -16.8576 -16.6207 -15.0379 -14.9315 -14.7135 -14.6799
   -14.6460 -14.4857 -14.4075 -14.3609 -14.1460 -14.1020 -14.0896 -14.0766
   -13.9566 -13.9118 -13.8784  -7.9187  -7.9066  -7.8999  -7.8278  -7.6947
    -7.6492  -7.5853  -7.4441  -7.4105  -7.3784  -7.2968  -7.0952  -3.5895
    -3.4186  -3.2857  -3.2591  -3.0550  -2.9925  -2.9612  -2.3690  -2.2066
    -2.0650  -2.0312  -1.8428  -1.8082  -1.6346  -1.5257  -1.5183  -1.3700
    -1.2400  -1.2137  -1.1779  -1.1191  -1.0725  -1.0051  -0.9577  -0.9410
    -0.9295  -0.8558  -0.8161  -0.7472  -0.7298  -0.7027  -0.5513  -0.3321
    -0.2811  -0.1602  -0.1225  -0.0080   0.0324   0.0380   0.1283   0.1469
     0.1666   0.1808   0.3776   0.4957   0.7850   0.8081   0.8557   0.8792
     0.9321   0.9462   0.9883   1.0948   1.1014   1.1383   1.1552   1.2064
     1.3787   1.4353   1.5070   1.5878   1.6167   1.6225   1.6763   1.7321
     1.7517   1.9368   1.9875   2.0247   2.0723   2.0894   2.1828   2.2506
     2.2615   2.3707   2.3963   2.5292   2.9381   3.0966   4.3058   5.7609
     7.1893   7.3834   7.4382   7.5644   7.5660   7.8344   8.2635   8.5244
     8.6846   8.7477   8.9428   8.9981   9.0937   9.1000   9.2584   9.4291
     9.5256

          k = 0.0000-0.5279 0.0000 ( 34482 PWs)   bands (ev):

   -37.4434 -35.5706 -22.5986 -22.5320 -22.3509 -22.0874 -18.7788 -18.5002
   -18.4687 -17.0382 -16.8127 -16.6183 -14.9738 -14.8378 -14.8117 -14.7115
   -14.5656 -14.4903 -14.2737 -14.2682 -14.2324 -14.1239 -14.0694 -14.0556
   -14.0432 -14.0108 -13.9082  -7.9296  -7.9183  -7.8848  -7.8780  -7.6904
    -7.6853  -7.5294  -7.4221  -7.3976  -7.3945  -7.2446  -7.0372  -3.8105
    -3.6789  -3.5010  -3.4645  -3.2342  -3.2119  -3.1958  -2.3852  -2.2146
    -2.1581  -2.0642  -1.9376  -1.7626  -1.7086  -1.6189  -1.4925  -1.4441
    -1.3108  -1.2674  -1.2302  -1.1979  -1.1834  -1.1045  -1.0719  -1.0361
    -0.9630  -0.9342  -0.9313  -0.8343  -0.8145  -0.7782  -0.5203  -0.2974
    -0.2884  -0.2550  -0.0847  -0.0663   0.0380   0.0440   0.1229   0.1454
     0.1737   0.1774   0.3944   0.4251   0.7600   0.8199   0.8331   0.8614
     0.8660   0.9821   1.0109   1.0244   1.1214   1.1270   1.1689   1.3217
     1.3819   1.4795   1.5762   1.6921   1.7129   1.7384   1.7406   1.9636
     2.0159   2.0236   2.0374   2.0476   2.0681   2.2270   2.2297   2.2389
     2.2897   2.4927   2.5323   2.5542   2.7608   3.0074   4.4808   5.9982
     7.0556   7.4953   7.6868   7.8400   7.8498   8.0738   8.4812   8.7610
     8.8812   8.9749   9.0098   9.0615   9.3076   9.3606   9.4057   9.4121
     9.4457

          k = 0.1250 0.0000 0.0000 ( 34573 PWs)   bands (ev):

   -37.4544 -35.5820 -22.7702 -22.6891 -22.5141 -22.2677 -18.6383 -18.5021
   -18.4521 -17.0541 -16.7146 -16.6215 -15.4278 -15.1959 -14.9786 -14.8633
   -14.7141 -14.5740 -14.5225 -14.4691 -14.1875 -14.0058 -13.9908 -13.8404
   -13.7641 -13.7315 -13.6024  -7.9755  -7.9453  -7.8202  -7.7532  -7.6566
    -7.6491  -7.5397  -7.5156  -7.4098  -7.3794  -7.3156  -7.1772  -2.3698
    -2.3273  -2.1862  -2.0465  -1.9726  -1.8691  -1.8045  -1.8037  -1.7336
    -1.4527  -1.4500  -1.3596  -1.2153  -1.2136  -1.1647  -1.0631  -1.0356
    -0.8675  -0.6631  -0.6115  -0.5703  -0.5114  -0.4395  -0.4280  -0.3771
    -0.3555  -0.3363  -0.3095  -0.2649  -0.2448  -0.2241  -0.1998  -0.1918
    -0.1590  -0.0815  -0.0427  -0.0234   0.0733   0.0774   0.0947   0.0983
     0.1186   0.1827   0.1974   0.2265   0.2325   0.3512   0.3825   0.4252
     0.5742   0.7204   0.7463   0.7959   0.8534   0.8776   0.9029   1.0080
     1.0130   1.1909   1.2148   1.2378   1.3590   1.3687   1.4842   1.5347
     1.5986   1.6403   1.7123   1.8724   1.9502   1.9808   2.0058   2.0590
     2.1011   2.1755   2.1845   2.1891   2.3265   2.5736   2.5853   4.7821
     5.3996   5.5186   6.0532   6.4992   6.9807   7.0256   7.1839   7.4538
     7.5879   7.9557   8.0684   8.1366   8.3035   8.4082   8.5653   8.7888
     8.8416

          k = 0.1250 0.1320 0.0000 ( 34564 PWs)   bands (ev):

   -37.4527 -35.5802 -22.7443 -22.6652 -22.4894 -22.2406 -18.6407 -18.5061
   -18.4725 -17.0190 -16.7176 -16.6847 -15.3696 -15.1147 -14.9229 -14.8063
   -14.7084 -14.5441 -14.4893 -14.4776 -14.1885 -14.0290 -13.9967 -13.8797
   -13.7977 -13.7601 -13.6536  -7.9647  -7.9610  -7.8825  -7.7887  -7.7222
    -7.6190  -7.6085  -7.4901  -7.4630  -7.3462  -7.3385  -7.1371  -2.4360
    -2.4206  -2.2255  -2.1988  -2.1371  -2.0751  -2.0215  -1.8482  -1.7745
    -1.6828  -1.6781  -1.6356  -1.6250  -1.4466  -1.3769  -1.3317  -1.1374
    -0.9327  -0.8201  -0.7973  -0.7139  -0.6773  -0.6273  -0.5415  -0.5317
    -0.5209  -0.5001  -0.4749  -0.3634  -0.2808  -0.2622  -0.2023  -0.1980
    -0.1298  -0.1216  -0.0371  -0.0144   0.0157   0.0679   0.1356   0.1567
     0.1941   0.2071   0.2162   0.2331   0.2925   0.3685   0.5209   0.6394
     0.6950   0.8236   0.8887   0.9595   1.0238   1.0462   1.1354   1.1494
     1.1866   1.2246   1.2682   1.2876   1.3220   1.3333   1.4700   1.5597
     1.5947   1.6635   1.6854   1.7285   1.7790   1.8706   1.9247   2.1694
     2.2398   2.3480   2.4734   2.5507   2.8134   2.8433   2.8850   4.9590
     5.7382   5.8402   6.2740   6.7326   7.2211   7.2764   7.3601   7.6865
     7.8023   7.9061   8.0188   8.3089   8.4726   8.5065   8.6918   8.8981
     8.9225

          k = 0.1250 0.2640 0.0000 ( 34463 PWs)   bands (ev):

   -37.4485 -35.5758 -22.6805 -22.6063 -22.4285 -22.1736 -18.6756 -18.5276
   -18.4779 -16.9298 -16.8467 -16.6972 -15.2138 -14.9408 -14.7858 -14.7086
   -14.6557 -14.5197 -14.4742 -14.4191 -14.1707 -14.0783 -14.0459 -13.9838
   -13.8436 -13.8257 -13.7832  -8.0336  -7.9382  -7.9195  -7.9114  -7.7478
    -7.7065  -7.6095  -7.5405  -7.4804  -7.3831  -7.3330  -7.1192  -3.0541
    -2.8537  -2.6992  -2.6182  -2.6044  -2.4261  -2.3457  -2.2776  -2.2218
    -2.1397  -2.0343  -1.7988  -1.7393  -1.6499  -1.4981  -1.4810  -1.3670
    -1.1991  -1.1867  -1.0079  -0.9766  -0.9017  -0.8735  -0.8536  -0.8401
    -0.7459  -0.7279  -0.6906  -0.6148  -0.5603  -0.5284  -0.4953  -0.4183
    -0.3175  -0.1797  -0.1268  -0.0431  -0.0293   0.1177   0.1992   0.2115
     0.2640   0.3946   0.4691   0.5009   0.7291   0.7375   0.7638   0.8052
     0.9417   1.0219   1.0729   1.1067   1.1286   1.2189   1.2948   1.3088
     1.3323   1.3642   1.3794   1.4030   1.4235   1.5385   1.5876   1.6095
     1.6493   1.6694   1.7010   1.8555   1.9407   1.9875   2.0427   2.2202
     2.4992   2.5501   2.7004   2.7859   3.0545   3.1251   3.7338   5.3510
     6.5506   6.6508   6.7462   7.3907   7.4258   7.5697   7.6578   8.0556
     8.3945   8.4721   8.4935   8.6723   8.7531   8.8048   8.9300   9.0065
     9.1465

          k = 0.1250 0.3960 0.0000 ( 34482 PWs)   bands (ev):

   -37.4444 -35.5714 -22.6145 -22.5457 -22.3657 -22.1044 -18.7436 -18.5268
   -18.4688 -16.9809 -16.8311 -16.6886 -15.0080 -14.8966 -14.6777 -14.6328
   -14.6057 -14.4735 -14.3986 -14.3422 -14.1409 -14.1249 -14.0799 -14.0760
   -13.9370 -13.9174 -13.8722  -8.0640  -7.9938  -7.9310  -7.9057  -7.7996
    -7.7133  -7.6545  -7.5589  -7.5091  -7.4143  -7.3727  -7.1569  -3.6345
    -3.4115  -3.3260  -3.2809  -3.0837  -2.9841  -2.9541  -2.3773  -2.2310
    -2.0861  -2.0701  -1.9115  -1.7894  -1.6540  -1.6448  -1.5984  -1.5709
    -1.4745  -1.3583  -1.3243  -1.1949  -1.1571  -1.1359  -1.1057  -0.9933
    -0.9277  -0.8721  -0.8617  -0.7971  -0.7566  -0.7469  -0.5880  -0.5168
    -0.3692  -0.2009  -0.1783  -0.0434  -0.0163   0.1350   0.2059   0.2137
     0.2233   0.4348   0.5872   0.6676   0.6891   0.9040   0.9519   0.9709
     1.0520   1.0915   1.1378   1.1703   1.1993   1.2333   1.3134   1.3900
     1.4626   1.4698   1.5532   1.6216   1.6556   1.7155   1.7229   1.7767
     1.8723   1.9608   2.0162   2.0611   2.1456   2.3378   2.3657   2.3793
     2.4898   2.6045   2.6353   2.7300   2.9979   3.1886   4.2885   5.7539
     7.1057   7.2447   7.3024   7.4311   7.4803   7.8655   8.1333   8.5134
     8.6647   8.7169   8.9165   8.9304   8.9644   9.3329   9.4199   9.5553
     9.6754

          k = 0.1250-0.5279 0.0000 ( 34444 PWs)   bands (ev):

   -37.4426 -35.5696 -22.5866 -22.5201 -22.3391 -22.0749 -18.7755 -18.5229
   -18.4638 -17.0326 -16.7877 -16.6849 -14.9291 -14.8255 -14.7780 -14.6628
   -14.4932 -14.4512 -14.2732 -14.2652 -14.2118 -14.1564 -14.0704 -14.0420
   -14.0293 -14.0003 -13.8900  -8.0587  -8.0064  -7.9358  -7.8984  -7.8144
    -7.7176  -7.6887  -7.5483  -7.5253  -7.4267  -7.3979  -7.1892  -3.8601
    -3.6758  -3.5276  -3.5130  -3.2621  -3.2124  -3.1872  -2.3983  -2.2385
    -2.0830  -2.0751  -1.8697  -1.8403  -1.8196  -1.6461  -1.6170  -1.5780
    -1.5135  -1.4515  -1.3804  -1.3526  -1.2623  -1.2600  -1.1927  -1.0808
    -0.9768  -0.9427  -0.9397  -0.8471  -0.8395  -0.8230  -0.5656  -0.5528
    -0.3566  -0.2098  -0.1937  -0.0433   0.0044   0.1466   0.1890   0.2160
     0.2180   0.4356   0.6181   0.6470   0.7003   0.9154   0.9416   0.9584
     0.9766   1.0323   1.1370   1.1937   1.2685   1.2831   1.3449   1.3537
     1.4900   1.5263   1.6778   1.7559   1.7819   1.7868   2.0110   2.0352
     2.0401   2.0439   2.2011   2.2308   2.3247   2.3487   2.3851   2.4803
     2.5032   2.5302   2.5483   2.6160   2.8769   3.1568   4.4536   5.9539
     7.1016   7.2125   7.3918   7.5237   7.7878   7.9078   8.3181   8.5629
     8.7522   8.9253   9.0588   9.3056   9.4689   9.4875   9.5179   9.5497
     9.7334

          k = 0.2500 0.0000 0.0000 ( 34590 PWs)   bands (ev):

   -37.4524 -35.5794 -22.7259 -22.6474 -22.4718 -22.2215 -18.6412 -18.5376
   -18.4496 -16.9688 -16.8788 -16.6182 -15.3186 -14.9984 -14.9235 -14.8969
   -14.7954 -14.5978 -14.5679 -14.5297 -14.2016 -14.0519 -14.0376 -13.9052
   -13.8630 -13.8135 -13.6681  -8.0249  -7.9467  -7.7564  -7.7336  -7.5759
    -7.5680  -7.4664  -7.4308  -7.4006  -7.3037  -7.2404  -7.0939  -2.7085
    -2.5629  -2.3614  -2.2691  -2.2066  -2.1221  -1.9096  -1.8707  -1.7437
    -1.6443  -1.4682  -1.4001  -1.2120  -1.2086  -1.1518  -1.1231  -1.1069
    -0.9541  -0.9533  -0.9164  -0.7666  -0.7660  -0.7623  -0.6341  -0.5652
    -0.5454  -0.5278  -0.4877  -0.3702  -0.3048  -0.2810  -0.2478  -0.2178
    -0.1899  -0.1754  -0.0795  -0.0079   0.0796   0.0817   0.0820   0.0821
     0.1116   0.1877   0.2538   0.2753   0.3266   0.4495   0.4580   0.5465
     0.6593   0.6652   0.7251   0.8381   0.8979   0.9421   1.0357   1.0775
     1.0970   1.1104   1.2831   1.3108   1.4201   1.4427   1.4574   1.5747
     1.6628   1.7407   1.7592   1.8171   1.8408   1.8893   2.0396   2.0409
     2.0987   2.1064   2.2561   2.3703   2.4944   2.6816   2.7450   5.2163
     5.8570   5.9537   6.4281   7.0440   7.3113   7.4187   7.5579   7.8994
     7.9201   8.0937   8.1131   8.4883   8.6271   8.6680   8.8897   9.0053
     9.1607

          k = 0.2500 0.1320 0.0000 ( 34551 PWs)   bands (ev):

   -37.4507 -35.5776 -22.7020 -22.6252 -22.4489 -22.1965 -18.6407 -18.5477
   -18.4665 -16.9367 -16.8724 -16.6844 -15.2643 -14.9481 -14.8601 -14.8461
   -14.7462 -14.5624 -14.5306 -14.5204 -14.1875 -14.0493 -14.0371 -13.9175
   -13.8885 -13.8374 -13.6958  -8.0227  -8.0152  -7.8703  -7.7958  -7.7717
    -7.6112  -7.5423  -7.5149  -7.4164  -7.3346  -7.2704  -7.0568  -2.7626
    -2.6127  -2.3971  -2.2953  -2.2139  -2.1978  -2.1029  -2.0888  -1.9510
    -1.9058  -1.6996  -1.6466  -1.6261  -1.6008  -1.4139  -1.3695  -1.2729
    -1.1762  -1.0417  -1.0145  -0.9737  -0.9049  -0.8662  -0.7674  -0.6653
    -0.6433  -0.6183  -0.5227  -0.5123  -0.4495  -0.3367  -0.3276  -0.2913
    -0.2126  -0.1711  -0.0287   0.0298   0.0496   0.1045   0.1521   0.1806
     0.2218   0.2648   0.2936   0.3331   0.4537   0.5749   0.6259   0.7658
     0.8519   0.8863   0.9205   0.9751   0.9982   1.0677   1.0908   1.1496
     1.2018   1.2430   1.3079   1.3824   1.4374   1.4809   1.5136   1.5376
     1.6207   1.6486   1.7062   1.7316   1.7509   1.9398   2.0194   2.2792
     2.4790   2.6692   2.7067   2.8608   2.8751   2.9563   2.9673   5.2900
     6.1182   6.2171   6.5241   7.1980   7.3542   7.5321   7.7453   7.8146
     8.1185   8.2628   8.3005   8.5661   8.6534   8.8292   9.0047   9.0570
     9.1674

          k = 0.2500 0.2640 0.0000 ( 34523 PWs)   bands (ev):

   -37.4465 -35.5732 -22.6433 -22.5706 -22.3926 -22.1349 -18.6668 -18.5779
   -18.4713 -16.8723 -16.8484 -16.8209 -15.1199 -14.8590 -14.7189 -14.6891
   -14.6057 -14.5427 -14.4728 -14.4100 -14.1624 -14.0867 -14.0591 -13.9648
   -13.8877 -13.8871 -13.7765  -8.2355  -8.1076  -8.0053  -7.9321  -7.9079
    -7.7373  -7.7221  -7.6621  -7.5291  -7.4106  -7.3928  -7.1603  -3.2050
    -2.9910  -2.7356  -2.6928  -2.6335  -2.5071  -2.4394  -2.3390  -2.3103
    -2.2320  -2.1778  -2.1680  -2.0846  -1.8782  -1.7197  -1.5755  -1.4488
    -1.4203  -1.3830  -1.2549  -1.2045  -1.1457  -1.0317  -0.8872  -0.8460
    -0.8438  -0.7859  -0.7374  -0.7276  -0.5998  -0.5852  -0.5778  -0.5480
    -0.3961  -0.3420  -0.3057   0.0133   0.1194   0.2488   0.3200   0.3689
     0.5537   0.5823   0.6339   0.6913   0.7894   0.8461   0.9028   0.9619
     1.0652   1.0886   1.1283   1.2148   1.2570   1.2671   1.3856   1.4429
     1.4550   1.4643   1.5401   1.5522   1.5604   1.6237   1.6380   1.7057
     1.7157   1.7327   1.7856   1.8605   1.9200   1.9602   2.1550   2.3414
     2.9892   3.0600   3.1605   3.2740   3.4260   3.4463   3.7355   5.4863
     6.6045   6.6613   6.7956   7.2994   7.5253   7.5908   7.7968   8.3466
     8.4793   8.5803   8.6800   8.7377   8.9885   9.0743   9.0897   9.2859
     9.3402

          k = 0.2500 0.3960 0.0000 ( 34490 PWs)   bands (ev):

   -37.4424 -35.5689 -22.5829 -22.5146 -22.3347 -22.0714 -18.7352 -18.5798
   -18.4584 -16.9689 -16.8367 -16.7625 -14.9344 -14.8154 -14.6066 -14.5862
   -14.4679 -14.4372 -14.3659 -14.2964 -14.2112 -14.0947 -14.0734 -14.0421
   -13.9353 -13.8934 -13.8579  -8.3556  -8.2596  -8.0973  -7.9824  -7.9478
    -7.8760  -7.8436  -7.8011  -7.6814  -7.6040  -7.5000  -7.3511  -3.7987
    -3.4913  -3.3844  -3.3601  -3.1976  -2.9634  -2.9368  -2.5176  -2.4490
    -2.2624  -2.2241  -2.1316  -2.0842  -2.0450  -1.8530  -1.8033  -1.7341
    -1.5805  -1.5361  -1.5051  -1.4168  -1.2772  -1.2102  -1.1228  -1.0772
    -0.9198  -0.8630  -0.8321  -0.7999  -0.7954  -0.7927  -0.6722  -0.5518
    -0.5390  -0.4186  -0.3699   0.0982   0.1734   0.2949   0.3526   0.4432
     0.6719   0.7375   0.8029   0.8187   0.9809   1.0110   1.1368   1.2506
     1.2764   1.2937   1.3270   1.3925   1.4812   1.5088   1.5608   1.5848
     1.6232   1.6611   1.6713   1.7062   1.7376   1.7812   1.8064   1.8909
     1.9238   2.0244   2.0381   2.0816   2.2571   2.2594   2.3058   2.4227
     2.8213   2.9005   3.5041   3.5196   3.6627   3.8072   4.2406   5.7226
     6.4705   6.8689   7.0541   7.1949   7.4222   7.7532   8.0188   8.5775
     8.7236   8.8001   8.9339   9.0456   9.0835   9.4998   9.6827   9.8171
     9.8845

          k = 0.2500-0.5279 0.0000 ( 34528 PWs)   bands (ev):

   -37.4406 -35.5671 -22.5574 -22.4909 -22.3103 -22.0445 -18.7678 -18.5769
   -18.4516 -17.0190 -16.8312 -16.7229 -14.8121 -14.7985 -14.6939 -14.5328
   -14.3609 -14.3577 -14.2708 -14.2600 -14.2208 -14.1562 -14.0649 -14.0372
   -13.9845 -13.9677 -13.8472  -8.3557  -8.2919  -8.1029  -8.0705  -7.9745
    -7.9423  -7.8912  -7.8372  -7.7180  -7.6995  -7.5881  -7.4251  -4.0355
    -3.6975  -3.6475  -3.6167  -3.3914  -3.1910  -3.1663  -2.4806  -2.4563
    -2.2511  -2.2485  -2.2158  -2.0954  -1.9939  -1.9583  -1.8520  -1.8320
    -1.6818  -1.6387  -1.5669  -1.4530  -1.3216  -1.2828  -1.2151  -1.1677
    -0.9615  -0.9391  -0.8725  -0.8650  -0.8245  -0.8124  -0.6624  -0.5526
    -0.5487  -0.4469  -0.3875   0.1119   0.2082   0.3061   0.3706   0.4762
     0.6861   0.7906   0.8466   0.9083   1.0380   1.0832   1.2007   1.2251
     1.2813   1.3778   1.4266   1.4588   1.4632   1.5072   1.5578   1.6734
     1.6913   1.7132   1.7769   1.8201   1.9142   1.9490   1.9959   2.0435
     2.0446   2.0805   2.1691   2.2056   2.4326   2.4351   2.4677   2.4857
     2.6001   2.6778   3.5244   3.6055   3.6977   3.8839   4.3770   5.8333
     6.3647   6.8335   7.0221   7.2332   7.3358   7.7221   8.0780   8.6113
     8.7732   8.8733   9.2139   9.5209   9.6805   9.6909   9.7843   9.8454
     9.8766

          k = 0.3750 0.0000 0.0000 ( 34518 PWs)   bands (ev):

   -37.4504 -35.5768 -22.6804 -22.6047 -22.4286 -22.1741 -18.6667 -18.5491
   -18.4470 -17.0186 -16.8736 -16.6149 -15.2028 -15.0425 -14.9798 -14.8793
   -14.6512 -14.6265 -14.5945 -14.5346 -14.2132 -14.1457 -14.0759 -13.9924
   -13.9252 -13.9118 -13.7171  -8.0546  -7.9292  -7.7310  -7.6687  -7.5048
    -7.4915  -7.3902  -7.3839  -7.3787  -7.2249  -7.1803  -7.0065  -3.0585
    -2.8905  -2.7063  -2.6924  -2.3291  -2.1604  -2.0066  -1.7032  -1.6616
    -1.5793  -1.4997  -1.4977  -1.2751  -1.2136  -1.2109  -1.2064  -1.1868
    -1.1551  -1.1280  -1.0188  -1.0157  -1.0038  -0.8920  -0.8775  -0.7455
    -0.7280  -0.6352  -0.5747  -0.5097  -0.4291  -0.3785  -0.2711  -0.2343
    -0.2236  -0.1972  -0.1884   0.0033   0.0641   0.0691   0.0704   0.0823
     0.1298   0.1737   0.2151   0.2919   0.4056   0.4297   0.4680   0.4761
     0.5269   0.7149   0.8083   0.8550   0.9120   1.0910   1.1305   1.1594
     1.1865   1.2326   1.2415   1.3240   1.3524   1.5061   1.5363   1.6022
     1.6882   1.7253   1.7788   1.8130   1.9193   1.9195   1.9822   2.0991
     2.1321   2.1790   2.3008   2.4656   2.6015   2.8060   2.8946   5.6669
     6.5067   6.6051   6.7743   7.1359   7.6834   7.7553   7.7731   8.0018
     8.2207   8.4716   8.5585   8.7286   8.8776   9.0395   9.1771   9.3398
     9.4300

          k = 0.3750 0.1320 0.0000 ( 34583 PWs)   bands (ev):

   -37.4487 -35.5750 -22.6587 -22.5843 -22.4076 -22.1513 -18.6625 -18.5657
   -18.4607 -17.0101 -16.8445 -16.6794 -15.1505 -14.9946 -14.9114 -14.8237
   -14.6156 -14.6042 -14.5363 -14.4866 -14.1853 -14.1227 -14.0599 -13.9775
   -13.9430 -13.9370 -13.7260  -8.0579  -7.9869  -7.8320  -7.7566  -7.7225
    -7.5813  -7.5650  -7.4793  -7.4612  -7.3184  -7.3128  -7.0839  -3.1225
    -2.9521  -2.7504  -2.7263  -2.3279  -2.1903  -2.0930  -2.0399  -2.0058
    -1.8629  -1.7000  -1.6146  -1.6132  -1.5633  -1.5361  -1.4750  -1.4157
    -1.3918  -1.3105  -1.1926  -1.1283  -1.0688  -1.0158  -0.9067  -0.7964
    -0.7103  -0.6753  -0.6429  -0.6020  -0.5267  -0.4139  -0.3729  -0.3369
    -0.2664  -0.2224  -0.0558   0.0406   0.0828   0.1402   0.1794   0.1944
     0.2247   0.3016   0.3687   0.4411   0.4780   0.5194   0.6664   0.7720
     0.8192   0.8213   0.9674   1.0859   1.1119   1.1531   1.1910   1.2020
     1.2290   1.2480   1.2869   1.3617   1.4661   1.5406   1.5640   1.6313
     1.7148   1.7537   1.7842   1.7966   1.8886   1.9560   2.0720   2.2459
     2.6623   2.7309   2.7500   2.9246   2.9811   3.1440   3.1607   5.6689
     6.6555   6.6984   6.7772   7.0988   7.6372   7.7897   7.8226   8.0672
     8.2419   8.5005   8.6533   8.8617   8.9401   9.0787   9.2904   9.4109
     9.4930

          k = 0.3750 0.2640 0.0000 ( 34595 PWs)   bands (ev):

   -37.4445 -35.5706 -22.6054 -22.5342 -22.3561 -22.0953 -18.6618 -18.6263
   -18.4614 -16.9897 -16.8237 -16.7693 -15.0157 -14.8725 -14.7223 -14.6764
   -14.5858 -14.5128 -14.3881 -14.3646 -14.1449 -14.1120 -14.0393 -13.9875
   -13.9615 -13.9201 -13.7661  -8.2883  -8.1698  -8.0503  -7.9668  -7.9520
    -7.8445  -7.7927  -7.7653  -7.6839  -7.5900  -7.4747  -7.3094  -3.4787
    -3.2671  -2.9904  -2.9439  -2.6470  -2.6187  -2.4995  -2.3867  -2.3795
    -2.3515  -2.3229  -2.2487  -2.1457  -2.0385  -1.9572  -1.7762  -1.6239
    -1.5439  -1.4721  -1.2945  -1.2430  -1.0369  -1.0166  -0.9974  -0.9022
    -0.8784  -0.8486  -0.7985  -0.7469  -0.7418  -0.6470  -0.6174  -0.6111
    -0.4837  -0.3714  -0.3095   0.0575   0.2466   0.3357   0.4506   0.5128
     0.6981   0.7312   0.7642   0.8255   0.8463   0.9867   1.0095   1.0655
     1.1494   1.1710   1.2224   1.2430   1.3129   1.4120   1.4230   1.4535
     1.5379   1.5552   1.6216   1.6423   1.6979   1.7312   1.7510   1.7836
     1.8232   1.8312   1.8378   1.9034   1.9788   2.1329   2.1759   2.2730
     2.9906   3.0639   3.6099   3.7047   3.7410   3.8627   3.9012   5.6644
     6.3346   6.7014   6.8796   7.1022   7.5117   7.6454   7.9850   8.4071
     8.5728   8.7025   8.8285   8.8492   9.3472   9.4206   9.5031   9.6202
     9.6720

          k = 0.3750 0.3960 0.0000 ( 34549 PWs)   bands (ev):

   -37.4404 -35.5663 -22.5508 -22.4830 -22.3033 -22.0379 -18.7263 -18.6334
   -18.4467 -16.9724 -16.9505 -16.6896 -14.8590 -14.7376 -14.5868 -14.4921
   -14.4681 -14.4173 -14.2498 -14.2316 -14.2245 -14.0782 -14.0584 -13.9858
   -13.9689 -13.8875 -13.8224  -8.5540  -8.4610  -8.2910  -8.2191  -8.0580
    -8.0371  -8.0099  -7.9692  -7.8743  -7.7328  -7.7271  -7.4582  -4.0458
    -3.7464  -3.5112  -3.4454  -3.3327  -2.9427  -2.9196  -2.7858  -2.6296
    -2.5657  -2.4670  -2.3484  -2.2773  -2.1534  -2.0870  -1.9520  -1.8405
    -1.7383  -1.6506  -1.4030  -1.2435  -1.2063  -1.1619  -1.1517  -1.0980
    -1.0575  -0.9577  -0.8662  -0.8575  -0.8501  -0.7913  -0.7068  -0.6902
    -0.6033  -0.3938  -0.3012   0.1863   0.3024   0.3836   0.5811   0.7026
     0.9539   0.9866   1.0404   1.1112   1.1631   1.2426   1.3523   1.3658
     1.3968   1.4691   1.4863   1.5772   1.5897   1.6040   1.6664   1.7210
     1.7600   1.7775   1.8065   1.8520   1.9351   1.9454   1.9670   2.0011
     2.0206   2.0883   2.1083   2.1781   2.1819   2.2283   2.4464   2.4874
     2.8121   2.9148   4.1260   4.2427   4.2785   4.3407   4.5064   5.6710
     5.9011   6.3983   6.6003   7.1409   7.3779   7.4344   8.1452   8.6991
     8.7826   8.9806   9.2320   9.3083   9.4113   9.4922   9.5540   9.6374
     9.6594

          k = 0.3750-0.5279 0.0000 ( 34580 PWs)   bands (ev):

   -37.4387 -35.5645 -22.5277 -22.4614 -22.2810 -22.0136 -18.7600 -18.6298
   -18.4392 -17.0057 -16.9598 -16.6541 -14.7758 -14.6763 -14.6055 -14.3950
   -14.3722 -14.2811 -14.2690 -14.2587 -14.1425 -14.0699 -14.0568 -14.0294
   -13.9939 -13.9235 -13.8033  -8.6361  -8.5689  -8.3791  -8.3642  -8.2034
    -8.1078  -8.0335  -7.9953  -7.9707  -7.8649  -7.7466  -7.5039  -4.2871
    -3.9529  -3.7683  -3.6746  -3.5738  -3.1680  -3.1457  -2.8038  -2.6482
    -2.5814  -2.4786  -2.4528  -2.2715  -2.1937  -2.1536  -1.9428  -1.9222
    -1.8321  -1.6818  -1.4723  -1.3292  -1.2686  -1.2591  -1.2152  -1.1465
    -1.0710  -0.9564  -0.9521  -0.9201  -0.8821  -0.8792  -0.7275  -0.7140
    -0.5702  -0.3795  -0.2819   0.2149   0.3220   0.3942   0.6265   0.7756
     1.0138   1.1056   1.1224   1.1611   1.2677   1.3072   1.3567   1.5304
     1.5471   1.5647   1.5949   1.6504   1.7286   1.7656   1.7794   1.7857
     1.8245   1.8334   1.9440   2.0301   2.0303   2.0350   2.0658   2.1430
     2.1706   2.1927   2.2441   2.2912   2.3717   2.3985   2.5158   2.5697
     2.6536   2.6929   4.2168   4.3965   4.4608   4.4896   4.6853   5.6565
     5.7469   6.2206   6.4359   7.2251   7.2881   7.3480   8.1792   8.6805
     8.7411   9.1103   9.2576   9.3639   9.3884   9.7166   9.7383   9.7815
     9.8167

          k =-0.5000 0.0000 0.0000 ( 34514 PWs)   bands (ev):

   -37.4495 -35.5757 -22.6613 -22.5868 -22.4104 -22.1541 -18.6827 -18.5479
   -18.4460 -17.0711 -16.8314 -16.6135 -15.1667 -15.0986 -14.9789 -14.9009
   -14.6819 -14.6656 -14.4781 -14.3860 -14.3183 -14.1954 -14.0722 -14.0313
   -13.9990 -13.9256 -13.7335  -8.0632  -7.9189  -7.7154  -7.6456  -7.4822
    -7.4554  -7.3717  -7.3669  -7.3577  -7.1913  -7.1588  -6.9690  -3.1959
    -3.0325  -2.8662  -2.8502  -2.3540  -2.1538  -2.0157  -1.6510  -1.6139
    -1.5455  -1.5325  -1.3780  -1.3738  -1.3231  -1.2966  -1.2454  -1.2175
    -1.2134  -1.2073  -1.1732  -1.0610  -0.9911  -0.9106  -0.9001  -0.8849
    -0.8115  -0.6933  -0.5753  -0.5582  -0.4880  -0.4226  -0.2859  -0.2755
    -0.2245  -0.2148  -0.1924   0.0064   0.0553   0.0638   0.0644   0.0654
     0.1358   0.1796   0.1877   0.3010   0.4041   0.4054   0.4303   0.4614
     0.5250   0.7244   0.7624   0.8357   0.9039   1.1362   1.1492   1.1728
     1.2603   1.2870   1.3068   1.3692   1.3998   1.4688   1.5565   1.5940
     1.6560   1.7096   1.7313   1.8730   1.9398   1.9597   2.1097   2.1207
     2.1472   2.2058   2.3022   2.4788   2.6163   2.8418   2.9492   5.9126
     6.9122   6.9338   7.2793   7.3315   7.3925   7.4541   7.7009   7.8046
     8.2733   8.5489   8.9939   9.0277   9.0524   9.0894   9.1535   9.4589
     9.5604

          k =-0.5000 0.1320 0.0000 ( 34570 PWs)   bands (ev):

   -37.4478 -35.5739 -22.6405 -22.5671 -22.3902 -22.1323 -18.6780 -18.5664
   -18.4582 -17.0618 -16.8039 -16.6772 -15.1094 -15.0418 -14.9138 -14.8383
   -14.6620 -14.6253 -14.4333 -14.3452 -14.2604 -14.1734 -14.0571 -13.9995
   -13.9994 -13.9630 -13.7356  -8.0662  -7.9580  -7.7750  -7.7360  -7.6584
    -7.6046  -7.5826  -7.4898  -7.4398  -7.4044  -7.2860  -7.1407  -3.2663
    -3.1006  -2.9034  -2.9022  -2.3590  -2.1891  -2.0319  -2.0266  -2.0022
    -1.8063  -1.7112  -1.6862  -1.6092  -1.6053  -1.5160  -1.5116  -1.4550
    -1.4257  -1.4245  -1.3003  -1.1830  -1.1133  -1.0897  -0.9235  -0.8673
    -0.7179  -0.6967  -0.6541  -0.6461  -0.5477  -0.4502  -0.3982  -0.3485
    -0.2901  -0.2511  -0.0703   0.0520   0.0910   0.1445   0.1826   0.2077
     0.2335   0.3378   0.3912   0.4030   0.5167   0.5632   0.5998   0.7485
     0.7736   0.7820   0.9893   1.0799   1.1173   1.1628   1.1923   1.2668
     1.2816   1.2921   1.3300   1.4210   1.4220   1.5887   1.5961   1.6399
     1.7194   1.7478   1.7658   1.8802   1.9240   2.0874   2.1520   2.2230
     2.6949   2.7254   2.7567   2.9392   3.0023   3.1971   3.2287   5.8743
     6.6982   6.9677   7.1270   7.3142   7.6079   7.6342   7.7182   7.8681
     8.1791   8.4816   8.9578   9.0323   9.2019   9.2971   9.4646   9.5426
     9.6690

          k =-0.5000 0.2640 0.0000 ( 34584 PWs)   bands (ev):

   -37.4437 -35.5696 -22.5895 -22.5190 -22.3407 -22.0787 -18.6669 -18.6391
   -18.4570 -17.0398 -16.8204 -16.7329 -14.9696 -14.8912 -14.7285 -14.6698
   -14.6185 -14.5289 -14.3244 -14.2424 -14.1635 -14.1230 -14.0297 -14.0295
   -14.0037 -13.9235 -13.7605  -8.2271  -8.1469  -8.0762  -8.0089  -7.9335
    -7.9078  -7.8999  -7.7562  -7.7439  -7.6907  -7.5814  -7.3625  -3.6128
    -3.4054  -3.1355  -3.0967  -2.6703  -2.6100  -2.5249  -2.4140  -2.3923
    -2.3675  -2.3212  -2.2565  -2.1541  -2.1476  -1.9739  -1.8992  -1.6712
    -1.6193  -1.5695  -1.2537  -1.1623  -1.0805  -0.9666  -0.9630  -0.9084
    -0.8914  -0.8588  -0.8573  -0.7833  -0.7764  -0.6721  -0.6370  -0.6251
    -0.4878  -0.3925  -0.3098   0.0735   0.2882   0.3668   0.5051   0.5745
     0.7380   0.8135   0.8267   0.8551   0.9239   1.0037   1.0506   1.0930
     1.1783   1.1926   1.2413   1.2972   1.3744   1.3781   1.4343   1.4848
     1.5573   1.5676   1.5974   1.7013   1.7213   1.7638   1.7846   1.8459
     1.8641   1.9134   1.9420   1.9612   1.9820   2.0720   2.2089   2.2820
     2.9840   3.0562   3.7155   3.7459   3.8672   3.9930   4.0528   5.7685
     6.1760   6.6971   6.8620   7.0923   7.4595   7.5775   8.0581   8.4449
     8.5422   8.8404   9.0269   9.0784   9.4772   9.5125   9.5919   9.6102
     9.8230

          k =-0.5000 0.3960 0.0000 ( 34556 PWs)   bands (ev):

   -37.4396 -35.5652 -22.5373 -22.4698 -22.2901 -22.0238 -18.7222 -18.6558
   -18.4416 -17.0182 -16.9496 -16.6572 -14.8276 -14.7084 -14.5812 -14.4801
   -14.4522 -14.4301 -14.2303 -14.2178 -14.1349 -14.0749 -14.0228 -14.0126
   -13.9698 -13.8997 -13.8011  -8.6022  -8.5233  -8.3642  -8.3402  -8.1948
    -8.0847  -8.0412  -7.9985  -7.9855  -7.8629  -7.7425  -7.4839  -4.1681
    -3.8767  -3.6060  -3.5589  -3.3327  -2.9342  -2.9125  -2.8623  -2.6994
    -2.6810  -2.5372  -2.4347  -2.2937  -2.1837  -2.1608  -1.9592  -1.8790
    -1.8103  -1.7104  -1.3149  -1.2314  -1.2242  -1.1853  -1.1108  -1.1041
    -1.0428  -1.0200  -0.9028  -0.8849  -0.8322  -0.7779  -0.7677  -0.7661
    -0.5845  -0.3557  -0.2692   0.2115   0.3494   0.4173   0.6874   0.8107
     1.0377   1.0975   1.1351   1.2700   1.2963   1.3017   1.3859   1.4241
     1.4692   1.5511   1.5640   1.5902   1.5985   1.6282   1.7178   1.7352
     1.7623   1.8293   1.8629   1.8858   2.0008   2.0037   2.0476   2.0661
     2.0757   2.1507   2.1509   2.2061   2.2161   2.2867   2.3927   2.5910
     2.8009   2.9051   4.1228   4.5047   4.5156   4.5833   4.7733   5.6534
     5.6800   6.2022   6.3976   7.1679   7.2282   7.3744   8.1905   8.7345
     8.9254   9.0824   9.2213   9.2326   9.4412   9.5234   9.6287   9.6787
     9.7496

          k =-0.5000-0.5279 0.0000 ( 34620 PWs)   bands (ev):

   -37.4379 -35.5635 -22.5153 -22.4490 -22.2688 -22.0007 -18.7568 -18.6513
   -18.4340 -17.0094 -17.0002 -16.6238 -14.7678 -14.6107 -14.5676 -14.4353
   -14.2843 -14.2684 -14.2630 -14.2594 -14.0915 -14.0511 -14.0252 -14.0178
   -14.0028 -13.9295 -13.7826  -8.7482  -8.6819  -8.4907  -8.4803  -8.3168
    -8.2153  -8.0922  -8.0492  -8.0127  -7.9759  -7.7580  -7.5308  -4.4097
    -4.0850  -3.8573  -3.7642  -3.5964  -3.1585  -3.1374  -2.8967  -2.7318
    -2.7158  -2.5640  -2.5263  -2.2838  -2.2739  -2.1606  -1.9475  -1.9436
    -1.8858  -1.7417  -1.3961  -1.3446  -1.3022  -1.2513  -1.1674  -1.1422
    -1.0836  -1.0197  -0.9797  -0.9493  -0.8799  -0.8590  -0.8005  -0.7968
    -0.5441  -0.3269  -0.2421   0.2442   0.3667   0.4290   0.7491   0.9114
     1.1010   1.2031   1.2562   1.3474   1.3553   1.3681   1.4088   1.5069
     1.6371   1.6481   1.6711   1.7358   1.7629   1.7975   1.8576   1.8779
     1.8829   1.9318   2.0134   2.0218   2.0700   2.1349   2.1507   2.1757
     2.2059   2.2499   2.3431   2.3703   2.3906   2.4332   2.5471   2.5718
     2.6745   2.7508   4.1935   4.7138   4.7700   4.7868   5.0017   5.4263
     5.6750   5.9751   6.1819   7.1232   7.2093   7.3564   8.2061   8.6882
     9.0325   9.0750   9.1152   9.1391   9.1804   9.4987   9.5729   9.6842
     9.7667

     the Fermi energy is     2.5702 ev

!    total energy              =   -1842.79097185 Ry
     Harris-Foulkes estimate   =   -1842.79097185 Ry
     estimated scf accuracy    <          9.8E-11 Ry

     The total energy is the sum of the following terms:

     one-electron contribution =  -30001.28808624 Ry
     hartree contribution      =   15153.31478455 Ry
     xc contribution           =    -621.66688426 Ry
     ewald contribution        =   13626.85776869 Ry
     smearing contrib. (-TS)   =      -0.00855459 Ry

     convergence has been achieved in  42 iterations

     negative rho (up, down):  1.506E-03 0.000E+00

     Forces acting on atoms (cartesian axes, Ry/au):

     atom    1 type  4   force =     0.00000000    0.00000000   -0.00017921
     atom    2 type  3   force =     0.00000000    0.00000000    0.00039447
     atom    3 type  4   force =     0.00000000    0.00000000   -0.00078363
     atom    4 type  1   force =     0.00000000    0.00000000   -0.00028660
     atom    5 type  3   force =     0.00000000    0.00000000    0.00055058
     atom    6 type  4   force =     0.00000000    0.00000000   -0.00002617
     atom    7 type  4   force =     0.00000000    0.00000000    0.00030737
     atom    8 type  2   force =     0.00000000    0.00000000   -0.00056074
     atom    9 type  4   force =     0.00000000    0.00000000    0.00029092
     atom   10 type  4   force =     0.00000000    0.00000000    0.00033190
     atom   11 type  3   force =     0.00000000    0.00000000    0.00011939
     atom   12 type  1   force =     0.00000000    0.00000000   -0.00001749
     atom   13 type  4   force =     0.00000000    0.00000000    0.00243557
     atom   14 type  4   force =     0.00000000    0.00000000    0.00223202
     atom   15 type  3   force =     0.00000000    0.00000000   -0.00216349
     atom   16 type  4   force =     0.00000000    0.00000000   -0.00091690
     atom   17 type  1   force =     0.00000000    0.00000000   -0.01200853
     atom   18 type  3   force =     0.00000000    0.00000000   -0.01130469
     atom   19 type  4   force =     0.00000000    0.00000000    0.02874395
     atom   20 type  4   force =     0.00000000    0.00000000    0.04582606
     atom   21 type  2   force =     0.00000000    0.00000000    0.00181809
     atom   22 type  4   force =     0.00000000    0.00000000   -0.03066615
     atom   23 type  4   force =     0.00000000    0.00000000   -0.02367544
     atom   24 type  3   force =     0.00000000    0.00000000    0.00800062
     atom   25 type  1   force =     0.00000000    0.00000000   -0.01337267
     atom   26 type  4   force =     0.00000000    0.00000000    0.01057341
     atom   27 type  3   force =     0.00000000    0.00000000   -0.00801335
     atom   28 type  4   force =     0.00000000    0.00000000    0.00235069

     Total force =     0.070092     Total SCF correction =     0.000015


     Computing stress (Cartesian axis) and pressure


     negative rho (up, down):  1.506E-03 0.000E+00
          total   stress  (Ry/bohr**3)                   (kbar)     P=       -3.67
  -0.00001216   0.00000000   0.00000000           -1.79        0.00        0.00
   0.00000000   0.00004039   0.00000000            0.00        5.94        0.00
   0.00000000   0.00000000  -0.00010307            0.00        0.00      -15.16


     number of scf cycles    =   2
     number of bfgs steps    =   1

     energy   old            =   -1842.8561279684 Ry
     energy   new            =   -1842.7909718516 Ry

     CASE: energy  _new > energy  _old

     new trust radius        =       0.4290821726 bohr
     new conv_thr            =            1.0E-10 Ry


ATOMIC_POSITIONS (angstrom)
O             0.0000000000        1.8611200000       -0.1867886807    0   0   0
Cu            0.0000000000        0.0000000000        0.1052014246    0   0   0
O             0.0000000000        0.0000000000        2.0004863324    0   0   0
Ba            1.9651100000        1.8611200000        2.2626804966    0   0   0
Cu            0.0000000000        0.0000000000        4.1252050455    0   0   0
O             1.9651100000        0.0000000000        4.2818133213    0   0   0
O             0.0000000000        1.8611200000        4.4205440324    0   0   0
Ca            1.9651100000        1.8611200000        5.9551412323    0   0   0
O             0.0000000000        1.8611200000        7.4229327957    0   0   0
O             1.9651100000        0.0000000000        7.5726814287    0   0   0
Cu            0.0000000000        0.0000000000        7.7589440011    0   0   0
Ba            1.9651100000        1.8611200000        9.6609367897    0   0   0
O             0.0000000000        0.0000000000        9.9868406452    0   0   0
O             0.0000000000        1.8611200000       11.8967655282    0   0   0
Cu            0.0000000000        0.0000000000       11.8969881125    0   0   0
O             0.0000000000        0.0000000000       13.8070849924    0   0   0
Ba            1.9651100000        1.8611200000       14.1329584956    0   0   0
Cu            0.0000000000        0.0000000000       15.9976099279
O             1.9651100000        0.0000000000       16.1867434501
O             0.0000000000        1.8611200000       16.4104418141
Ca            1.9651100000        1.8611200000       17.8782358011
O             0.0000000000        1.8611200000       19.6909799596
O             1.9651100000        0.0000000000       20.0255062774
Cu            0.0000000000        0.0000000000       20.2592896416
Ba            1.9651100000        1.8611200000       22.0906089074
O             0.0000000000        0.0000000000       22.2097767976
Cu            0.0000000000        0.0000000000       24.1766943154    0   0   0
O             0.0000000000        1.8611200000       24.4686338333    0   0   0


     NEW-OLD atomic charge density approx. for the potential

     negative rho (up, down):  1.375E-02 0.000E+00

     total cpu time spent up to now is      717.2 secs

     Self-consistent Calculation

     iteration #  1     ecut=    60.00 Ry     beta= 0.70
     Davidson diagonalization with overlap
     c_bands:  3 eigenvalues not converged
     c_bands:  1 eigenvalues not converged
     c_bands:  1 eigenvalues not converged
     c_bands:  1 eigenvalues not converged
     c_bands:  1 eigenvalues not converged
     c_bands:  2 eigenvalues not converged
     c_bands:  1 eigenvalues not converged
     c_bands:  3 eigenvalues not converged
     c_bands:  1 eigenvalues not converged
     c_bands:  1 eigenvalues not converged
     c_bands:  1 eigenvalues not converged
     c_bands:  2 eigenvalues not converged
     c_bands:  1 eigenvalues not converged
     c_bands:  2 eigenvalues not converged
     c_bands:  1 eigenvalues not converged
     c_bands:  2 eigenvalues not converged
     c_bands:  1 eigenvalues not converged
     ethr =  1.00E-06,  avg # of iterations = 19.7

     negative rho (up, down):  4.652E-03 0.000E+00

     total cpu time spent up to now is      781.3 secs

     total energy              =   -1842.79579387 Ry
     Harris-Foulkes estimate   =   -1842.94476677 Ry
     estimated scf accuracy    <       2.30423743 Ry

     iteration #  2     ecut=    60.00 Ry     beta= 0.70
     Davidson diagonalization with overlap
     ethr =  1.02E-03,  avg # of iterations =  1.0

     negative rho (up, down):  4.640E-03 0.000E+00

     total cpu time spent up to now is      795.2 secs

     total energy              =   -1842.68476298 Ry
     Harris-Foulkes estimate   =   -1842.95872260 Ry
     estimated scf accuracy    <       3.92980370 Ry

     iteration #  3     ecut=    60.00 Ry     beta= 0.70
     Davidson diagonalization with overlap
     ethr =  1.02E-03,  avg # of iterations =  2.0

     negative rho (up, down):  2.503E-03 0.000E+00

     total cpu time spent up to now is      810.2 secs

     total energy              =   -1842.85542014 Ry
     Harris-Foulkes estimate   =   -1842.91123386 Ry
     estimated scf accuracy    <       1.95847456 Ry

     iteration #  4     ecut=    60.00 Ry     beta= 0.70
     Davidson diagonalization with overlap
     ethr =  8.63E-04,  avg # of iterations =  1.0

     negative rho (up, down):  2.256E-03 0.000E+00

     total cpu time spent up to now is      824.6 secs

     total energy              =   -1842.85579148 Ry
     Harris-Foulkes estimate   =   -1842.87394243 Ry
     estimated scf accuracy    <       1.17226919 Ry

     iteration #  5     ecut=    60.00 Ry     beta= 0.70
     Davidson diagonalization with overlap
     ethr =  5.16E-04,  avg # of iterations =  1.0

     negative rho (up, down):  1.801E-03 0.000E+00

     total cpu time spent up to now is      838.8 secs

     total energy              =   -1842.84879949 Ry
     Harris-Foulkes estimate   =   -1842.86468310 Ry
     estimated scf accuracy    <       0.46993786 Ry

     iteration #  6     ecut=    60.00 Ry     beta= 0.70
     Davidson diagonalization with overlap
     ethr =  2.07E-04,  avg # of iterations =  2.9

     negative rho (up, down):  1.538E-03 0.000E+00

     total cpu time spent up to now is      855.0 secs

     total energy              =   -1842.85335568 Ry
     Harris-Foulkes estimate   =   -1842.85720706 Ry
     estimated scf accuracy    <       0.13029362 Ry

     iteration #  7     ecut=    60.00 Ry     beta= 0.70
     Davidson diagonalization with overlap
     ethr =  5.74E-05,  avg # of iterations =  8.3

     negative rho (up, down):  1.329E-03 0.000E+00

     total cpu time spent up to now is      877.7 secs

     total energy              =   -1842.85353689 Ry
     Harris-Foulkes estimate   =   -1842.85568022 Ry
     estimated scf accuracy    <       0.04891761 Ry

     iteration #  8     ecut=    60.00 Ry     beta= 0.70
     Davidson diagonalization with overlap
     ethr =  2.15E-05,  avg # of iterations =  6.0

     negative rho (up, down):  1.183E-03 0.000E+00

     total cpu time spent up to now is      897.4 secs

     total energy              =   -1842.85401294 Ry
     Harris-Foulkes estimate   =   -1842.85457764 Ry
     estimated scf accuracy    <       0.00765929 Ry

     iteration #  9     ecut=    60.00 Ry     beta= 0.70
     Davidson diagonalization with overlap
     c_bands:  1 eigenvalues not converged
     ethr =  3.37E-06,  avg # of iterations = 10.2

     negative rho (up, down):  1.181E-03 0.000E+00

     total cpu time spent up to now is      922.6 secs

     total energy              =   -1842.85392495 Ry
     Harris-Foulkes estimate   =   -1842.85435001 Ry
     estimated scf accuracy    <       0.00540433 Ry

     iteration # 10     ecut=    60.00 Ry     beta= 0.70
     Davidson diagonalization with overlap
     ethr =  2.38E-06,  avg # of iterations =  1.4

     negative rho (up, down):  1.183E-03 0.000E+00

     total cpu time spent up to now is      937.4 secs

     total energy              =   -1842.85411779 Ry
     Harris-Foulkes estimate   =   -1842.85422772 Ry
     estimated scf accuracy    <       0.00633784 Ry

     iteration # 11     ecut=    60.00 Ry     beta= 0.70
     Davidson diagonalization with overlap
     ethr =  2.38E-06,  avg # of iterations =  1.0

     negative rho (up, down):  1.214E-03 0.000E+00

     total cpu time spent up to now is      951.5 secs

     total energy              =   -1842.85412821 Ry
     Harris-Foulkes estimate   =   -1842.85416743 Ry
     estimated scf accuracy    <       0.00195377 Ry

     iteration # 12     ecut=    60.00 Ry     beta= 0.70
     Davidson diagonalization with overlap
     ethr =  8.61E-07,  avg # of iterations =  1.0

     negative rho (up, down):  1.253E-03 0.000E+00

     total cpu time spent up to now is      965.7 secs

     total energy              =   -1842.85413104 Ry
     Harris-Foulkes estimate   =   -1842.85415283 Ry
     estimated scf accuracy    <       0.00123339 Ry

     iteration # 13     ecut=    60.00 Ry     beta= 0.70
     Davidson diagonalization with overlap
     ethr =  5.43E-07,  avg # of iterations =  1.0

     negative rho (up, down):  1.285E-03 0.000E+00

     total cpu time spent up to now is      980.0 secs

     total energy              =   -1842.85413160 Ry
     Harris-Foulkes estimate   =   -1842.85414197 Ry
     estimated scf accuracy    <       0.00038130 Ry

     iteration # 14     ecut=    60.00 Ry     beta= 0.70
     Davidson diagonalization with overlap
     ethr =  1.68E-07,  avg # of iterations =  1.0

     negative rho (up, down):  1.304E-03 0.000E+00

     total cpu time spent up to now is      994.0 secs

     total energy              =   -1842.85413607 Ry
     Harris-Foulkes estimate   =   -1842.85413713 Ry
     estimated scf accuracy    <       0.00021218 Ry

     iteration # 15     ecut=    60.00 Ry     beta= 0.70
     Davidson diagonalization with overlap
     ethr =  9.35E-08,  avg # of iterations =  1.0

     negative rho (up, down):  1.312E-03 0.000E+00

     total cpu time spent up to now is     1007.9 secs

     total energy              =   -1842.85413451 Ry
     Harris-Foulkes estimate   =   -1842.85413694 Ry
     estimated scf accuracy    <       0.00015885 Ry

     iteration # 16     ecut=    60.00 Ry     beta= 0.70
     Davidson diagonalization with overlap
     ethr =  7.00E-08,  avg # of iterations =  1.0

     negative rho (up, down):  1.333E-03 0.000E+00

     total cpu time spent up to now is     1021.6 secs

     total energy              =   -1842.85413525 Ry
     Harris-Foulkes estimate   =   -1842.85413603 Ry
     estimated scf accuracy    <       0.00004307 Ry

     iteration # 17     ecut=    60.00 Ry     beta= 0.70
     Davidson diagonalization with overlap
     ethr =  1.90E-08,  avg # of iterations =  1.0

     negative rho (up, down):  1.344E-03 0.000E+00

     total cpu time spent up to now is     1035.3 secs

     total energy              =   -1842.85413512 Ry
     Harris-Foulkes estimate   =   -1842.85413555 Ry
     estimated scf accuracy    <       0.00002090 Ry

     iteration # 18     ecut=    60.00 Ry     beta= 0.70
     Davidson diagonalization with overlap
     ethr =  9.21E-09,  avg # of iterations =  1.0

     negative rho (up, down):  1.367E-03 0.000E+00

     total cpu time spent up to now is     1049.3 secs

     total energy              =   -1842.85413491 Ry
     Harris-Foulkes estimate   =   -1842.85413539 Ry
     estimated scf accuracy    <       0.00001175 Ry

     iteration # 19     ecut=    60.00 Ry     beta= 0.70
     Davidson diagonalization with overlap
     ethr =  5.18E-09,  avg # of iterations =  1.0

     negative rho (up, down):  1.375E-03 0.000E+00

     total cpu time spent up to now is     1063.8 secs

     total energy              =   -1842.85413509 Ry
     Harris-Foulkes estimate   =   -1842.85413517 Ry
     estimated scf accuracy    <       0.00000218 Ry

     iteration # 20     ecut=    60.00 Ry     beta= 0.70
     Davidson diagonalization with overlap
     ethr =  9.61E-10,  avg # of iterations =  2.2

     negative rho (up, down):  1.391E-03 0.000E+00

     total cpu time spent up to now is     1077.9 secs

     total energy              =   -1842.85413507 Ry
     Harris-Foulkes estimate   =   -1842.85413514 Ry
     estimated scf accuracy    <       0.00000111 Ry

     iteration # 21     ecut=    60.00 Ry     beta= 0.70
     Davidson diagonalization with overlap
     ethr =  4.91E-10,  avg # of iterations =  1.0

     negative rho (up, down):  1.402E-03 0.000E+00

     total cpu time spent up to now is     1091.0 secs

     total energy              =   -1842.85413506 Ry
     Harris-Foulkes estimate   =   -1842.85413510 Ry
     estimated scf accuracy    <       0.00000076 Ry

     iteration # 22     ecut=    60.00 Ry     beta= 0.70
     Davidson diagonalization with overlap
     ethr =  3.33E-10,  avg # of iterations =  1.0

     negative rho (up, down):  1.411E-03 0.000E+00

     total cpu time spent up to now is     1104.1 secs

     total energy              =   -1842.85413504 Ry
     Harris-Foulkes estimate   =   -1842.85413507 Ry
     estimated scf accuracy    <       0.00000038 Ry

     iteration # 23     ecut=    60.00 Ry     beta= 0.70
     Davidson diagonalization with overlap
     ethr =  1.67E-10,  avg # of iterations =  1.1

     negative rho (up, down):  1.414E-03 0.000E+00

     total cpu time spent up to now is     1117.3 secs

     total energy              =   -1842.85413504 Ry
     Harris-Foulkes estimate   =   -1842.85413505 Ry
     estimated scf accuracy    <       0.00000028 Ry

     iteration # 24     ecut=    60.00 Ry     beta= 0.70
     Davidson diagonalization with overlap
     ethr =  1.23E-10,  avg # of iterations =  1.0

     negative rho (up, down):  1.413E-03 0.000E+00

     total cpu time spent up to now is     1130.4 secs

     total energy              =   -1842.85413504 Ry
     Harris-Foulkes estimate   =   -1842.85413504 Ry
     estimated scf accuracy    <       0.00000024 Ry

     iteration # 25     ecut=    60.00 Ry     beta= 0.70
     Davidson diagonalization with overlap
     ethr =  1.06E-10,  avg # of iterations =  1.0

     negative rho (up, down):  1.430E-03 0.000E+00

     total cpu time spent up to now is     1144.1 secs

     total energy              =   -1842.85413500 Ry
     Harris-Foulkes estimate   =   -1842.85413505 Ry
     estimated scf accuracy    <       0.00000022 Ry

     iteration # 26     ecut=    60.00 Ry     beta= 0.70
     Davidson diagonalization with overlap
     ethr =  9.55E-11,  avg # of iterations =  1.0

     negative rho (up, down):  1.456E-03 0.000E+00

     total cpu time spent up to now is     1158.3 secs

     total energy              =   -1842.85413496 Ry
     Harris-Foulkes estimate   =   -1842.85413501 Ry
     estimated scf accuracy    <       0.00000028 Ry

     iteration # 27     ecut=    60.00 Ry     beta= 0.70
     Davidson diagonalization with overlap
     ethr =  9.55E-11,  avg # of iterations =  1.0

     negative rho (up, down):  1.469E-03 0.000E+00

     total cpu time spent up to now is     1172.3 secs

[...]

   -36.0503 -35.7381 -23.0741 -22.6812 -22.4561 -22.4298 -17.3128 -17.2100
   -17.1055 -17.1010 -16.9763 -16.8927 -15.0955 -14.7735 -14.5206 -14.4863
   -14.4384 -14.4090 -14.2918 -14.2481 -14.1931 -14.1507 -14.1461 -14.0749
   -14.0041 -13.9504 -13.8812  -8.8534  -8.4390  -8.3834  -8.3610  -8.1999
    -8.1726  -8.0613  -7.9653  -7.8646  -7.8357  -7.7223  -7.6796  -3.5097
    -3.4285  -3.2352  -3.1308  -2.9949  -2.9846  -2.7676  -2.4124  -2.3136
    -2.2958  -2.1665  -2.1036  -2.0262  -1.9996  -1.8478  -1.7837  -1.6436
    -1.5295  -1.4914  -1.4348  -1.3392  -1.2564  -1.1668  -1.0211  -0.9569
    -0.9092  -0.8663  -0.8415  -0.8206  -0.8003  -0.6649  -0.5741  -0.5350
    -0.4609  -0.4301  -0.3175   0.0164   0.0831   0.1426   0.3303   0.3688
     0.4716   0.5888   0.7212   0.7690   0.8889   0.9196   0.9757   1.0886
     1.1387   1.2067   1.2157   1.2409   1.2690   1.3039   1.4017   1.4455
     1.4806   1.5282   1.5363   1.6275   1.6803   1.7339   1.7472   1.7767
     1.8143   1.8877   1.8944   2.0150   2.0305   2.1929   2.2066   2.3552
     2.5968   2.7262   3.1739   3.3875   3.4493   3.5945   4.0558   6.4599
     6.5092   6.8014   7.6034   7.7366   8.3952   8.6585   8.7018   8.7640
     8.8996   9.0194   9.1658   9.3603   9.4175   9.5770   9.5818   9.6758
     9.7525

          k = 0.2500-0.5279 0.0000 ( 34528 PWs)   bands (ev):

   -36.0488 -35.7363 -23.0496 -22.6562 -22.4313 -22.4059 -17.3432 -17.2063
   -17.1474 -17.0864 -16.9713 -16.8575 -15.1038 -14.7602 -14.4183 -14.4163
   -14.3598 -14.2985 -14.2833 -14.2478 -14.1712 -14.1655 -14.1474 -14.1217
   -14.0763 -14.0084 -13.8825  -8.8331  -8.5547  -8.4403  -8.3633  -8.2078
    -8.1767  -8.1510  -8.0269  -7.9436  -7.8929  -7.7856  -7.7616  -3.7257
    -3.6852  -3.4279  -3.3031  -3.2215  -3.1214  -2.8570  -2.4029  -2.3403
    -2.3059  -2.1183  -2.0661  -2.0089  -1.9852  -1.9661  -1.9180  -1.7666
    -1.6281  -1.5542  -1.4720  -1.3371  -1.2870  -1.2556  -1.0540  -1.0011
    -0.9866  -0.9740  -0.9156  -0.8349  -0.8273  -0.6716  -0.6058  -0.5892
    -0.5617  -0.4539  -0.3279   0.0879   0.1696   0.2087   0.3618   0.4076
     0.4614   0.5420   0.7833   0.8830   0.9837   0.9971   1.0263   1.0534
     1.1148   1.1436   1.1499   1.2602   1.3179   1.3889   1.3973   1.4344
     1.5394   1.5609   1.6472   1.6833   1.8583   1.8879   1.9046   1.9420
     1.9851   2.0006   2.0095   2.0440   2.1905   2.3451   2.3799   2.3831
     2.4007   2.4985   3.1494   3.3598   3.4681   3.6268   4.1903   6.3722
     6.4315   6.7639   7.5634   7.7053   8.5347   8.7691   8.8125   9.0707
     9.3366   9.4403   9.4410   9.4850   9.5161   9.7232   9.7888   9.8252
     9.8534

          k = 0.3750 0.0000 0.0000 ( 34518 PWs)   bands (ev):

   -36.0566 -35.7457 -23.1675 -22.7768 -22.5517 -22.5225 -17.3479 -17.1459
   -17.1409 -17.1180 -16.9928 -16.7812 -15.2470 -15.0191 -15.0040 -14.6897
   -14.6581 -14.5793 -14.4424 -14.3319 -14.2574 -14.1899 -14.1021 -14.0109
   -13.9760 -13.9578 -13.7952  -8.3725  -8.1179  -8.0255  -7.9562  -7.9365
    -7.7536  -7.7501  -7.5737  -7.5298  -7.4640  -7.3458  -7.3066  -2.9064
    -2.8863  -2.7515  -2.7166  -2.4565  -2.2434  -2.1844  -1.7999  -1.7062
    -1.6950  -1.6662  -1.5731  -1.5584  -1.3807  -1.3290  -1.2480  -1.1903
    -1.1863  -1.1761  -1.1347  -1.0572  -1.0016  -0.9252  -0.9239  -0.8998
    -0.8474  -0.7763  -0.7261  -0.6753  -0.5865  -0.4331  -0.3498  -0.3224
    -0.2874  -0.2446  -0.2037  -0.1113   0.0424   0.1147   0.1392   0.1744
     0.1911   0.3864   0.3970   0.4416   0.4559   0.4735   0.6016   0.6625
     0.6918   0.8303   0.8365   0.8664   0.9491   0.9989   1.0816   1.1144
     1.1334   1.1876   1.2687   1.3947   1.4399   1.4716   1.5543   1.5968
     1.6263   1.6644   1.7086   1.7446   1.8671   1.9870   2.0667   2.0814
     2.2258   2.3320   2.4783   2.5429   2.6260   2.7159   2.7543   6.2480
     6.4375   6.7626   7.3881   7.6532   7.6562   7.9345   8.1809   8.3705
     8.5179   8.6277   9.0237   9.1866   9.2797   9.2985   9.3177   9.4248
     9.4542

          k = 0.3750 0.1320 0.0000 ( 34583 PWs)   bands (ev):

   -36.0551 -35.7440 -23.1467 -22.7556 -22.5305 -22.5019 -17.3429 -17.1524
   -17.1333 -17.1293 -16.9663 -16.8386 -15.2090 -14.9661 -14.9384 -14.6497
   -14.6005 -14.5397 -14.4051 -14.3034 -14.2303 -14.1681 -14.0806 -14.0275
   -14.0058 -13.9595 -13.8011  -8.4213  -8.3070  -8.0722  -8.0352  -7.9631
    -7.9196  -7.8019  -7.6794  -7.6652  -7.6434  -7.4442  -7.4004  -2.9633
    -2.9358  -2.7955  -2.7655  -2.4581  -2.2558  -2.1885  -2.0782  -1.9884
    -1.9241  -1.8527  -1.7099  -1.6577  -1.6073  -1.5692  -1.4814  -1.4522
    -1.3434  -1.2359  -1.2332  -1.1573  -1.1091  -1.0990  -1.0161  -0.9029
    -0.7592  -0.7433  -0.7148  -0.5554  -0.5361  -0.4189  -0.4004  -0.3429
    -0.2998  -0.2118  -0.0969  -0.0166   0.0853   0.0900   0.1349   0.2096
     0.3112   0.3579   0.4121   0.4693   0.5136   0.6311   0.7005   0.7450
     0.8096   0.9011   0.9284   1.0531   1.0711   1.0925   1.1198   1.1813
     1.2147   1.2599   1.2962   1.3886   1.4924   1.5129   1.5360   1.5951
     1.6363   1.6843   1.6863   1.7390   1.7878   1.8260   1.8863   2.2966
     2.6780   2.6967   2.8359   2.8916   3.0016   3.0698   3.1881   6.3847
     6.5909   6.6686   7.5428   7.6950   7.7527   8.0004   8.2177   8.3938
     8.5933   8.7971   8.9197   9.0507   9.1351   9.2442   9.3888   9.4637
     9.4741

          k = 0.3750 0.2640 0.0000 ( 34595 PWs)   bands (ev):

   -36.0515 -35.7398 -23.0958 -22.7033 -22.4784 -22.4512 -17.3310 -17.2300
   -17.1151 -17.0913 -16.9688 -16.8982 -15.1155 -14.8378 -14.7497 -14.5533
   -14.4614 -14.4362 -14.3097 -14.2343 -14.1894 -14.1580 -14.0860 -14.0455
   -14.0113 -13.9637 -13.8301  -8.7782  -8.3765  -8.3678  -8.3223  -8.1483
    -8.0968  -8.0470  -7.9357  -7.8607  -7.7950  -7.7035  -7.6685  -3.2755
    -3.1072  -3.0248  -2.9685  -2.6419  -2.5436  -2.5064  -2.4062  -2.3954
    -2.2794  -2.2493  -2.1834  -2.1711  -2.0135  -1.8232  -1.6549  -1.6407
    -1.5682  -1.4378  -1.3283  -1.2566  -1.0777  -0.9679  -0.9564  -0.9100
    -0.8966  -0.8340  -0.7560  -0.6820  -0.6686  -0.5973  -0.5864  -0.5213
    -0.3683  -0.2940  -0.1244  -0.0944   0.0070   0.1643   0.2947   0.4144
     0.4361   0.6191   0.7454   0.7736   0.7893   0.9004   0.9514   1.0041
     1.0992   1.1272   1.1634   1.1882   1.2956   1.3501   1.3626   1.3725
     1.4876   1.5183   1.5682   1.5893   1.6210   1.6410   1.6687   1.6927
     1.7072   1.7134   1.7563   1.7923   1.8430   1.9452   2.0553   2.2475
     2.7760   2.8976   3.4968   3.5667   3.6728   3.7695   3.8052   6.3225
     6.3539   6.6394   7.5029   7.6231   8.0626   8.3331   8.4452   8.7144
     8.7983   9.0387   9.2001   9.2887   9.3018   9.3676   9.4416   9.5108
     9.6287

          k = 0.3750 0.3960 0.0000 ( 34549 PWs)   bands (ev):

   -36.0479 -35.7356 -23.0436 -22.6498 -22.4250 -22.3994 -17.3199 -17.3044
   -17.1005 -17.0840 -17.0515 -16.8266 -15.0198 -14.6911 -14.4992 -14.4602
   -14.3324 -14.2943 -14.2598 -14.2039 -14.1636 -14.1583 -14.1309 -14.0347
   -13.9936 -13.9692 -13.8716  -9.0592  -8.7098  -8.6380  -8.3956  -8.3709
    -8.3621  -8.3006  -8.0863  -8.0500  -7.9684  -7.9099  -7.7704  -3.7577
    -3.4878  -3.4005  -3.3324  -3.1984  -2.9746  -2.9279  -2.6604  -2.5121
    -2.4285  -2.3347  -2.1920  -2.1770  -2.1391  -2.0596  -1.9151  -1.8915
    -1.7014  -1.6184  -1.2851  -1.2122  -1.1977  -1.1746  -1.0277  -0.9992
    -0.9830  -0.9113  -0.8827  -0.8500  -0.7875  -0.7551  -0.6726  -0.5873
    -0.4708  -0.3649  -0.2455   0.0546   0.1591   0.2786   0.4664   0.5560
     0.6778   0.8609   0.9425   0.9826   1.0165   1.1105   1.1817   1.2041
     1.2753   1.3130   1.3194   1.4272   1.4578   1.4709   1.5230   1.5297
     1.6601   1.6677   1.7038   1.7546   1.7726   1.8260   1.8960   1.9676
     1.9921   2.0414   2.0619   2.1012   2.1277   2.1389   2.1945   2.3596
     2.5802   2.7169   3.7783   3.8914   4.1539   4.2021   4.2712   5.8917
     5.9763   6.3376   7.2205   7.4360   8.2313   8.8382   8.8470   8.9147
     8.9956   9.1820   9.3012   9.3584   9.4014   9.4808   9.5107   9.6224
     9.7076

          k = 0.3750-0.5279 0.0000 ( 34580 PWs)   bands (ev):

   -36.0464 -35.7339 -23.0216 -22.6273 -22.4025 -22.3776 -17.3360 -17.3137
   -17.1355 -17.0884 -17.0346 -16.7952 -14.9799 -14.6174 -14.4449 -14.3004
   -14.2938 -14.2624 -14.2462 -14.2172 -14.1586 -14.1237 -14.1134 -14.0670
   -14.0239 -14.0028 -13.8593  -9.1368  -8.8838  -8.7220  -8.4800  -8.4566
    -8.4481  -8.3671  -8.2493  -8.0826  -8.0698  -7.9288  -7.7858  -3.9646
    -3.7222  -3.6181  -3.4783  -3.3214  -3.1986  -3.1061  -2.6739  -2.5214
    -2.4363  -2.3463  -2.2513  -2.1848  -2.1755  -2.0606  -2.0111  -1.9789
    -1.7771  -1.6470  -1.3649  -1.2942  -1.2430  -1.1792  -1.0211  -1.0027
    -1.0018  -1.0009  -0.9991  -0.9406  -0.7811  -0.7796  -0.7779  -0.5858
    -0.5576  -0.3463  -0.2445   0.1785   0.2781   0.3051   0.5878   0.6036
     0.6816   0.8434   1.0991   1.1079   1.1449   1.1817   1.2260   1.2499
     1.2631   1.3176   1.3314   1.4934   1.4966   1.5514   1.5878   1.6586
     1.6892   1.7168   1.8248   1.8331   1.9655   1.9887   2.0115   2.1054
     2.1338   2.1634   2.2065   2.2580   2.2785   2.3016   2.3200   2.3497
     2.4328   2.4673   3.8406   3.9528   4.2660   4.3495   4.4165   5.6972
     5.7724   6.1611   7.1209   7.3660   8.2055   8.7225   8.8685   8.8869
     8.9816   9.2385   9.4550   9.4758   9.5095   9.6424   9.6811   9.7794
     9.8653

          k =-0.5000 0.0000 0.0000 ( 34514 PWs)   bands (ev):

   -36.0556 -35.7447 -23.1491 -22.7583 -22.5336 -22.5049 -17.3919 -17.1892
   -17.1173 -17.1168 -16.9547 -16.7799 -15.3086 -15.0685 -15.0387 -14.7053
   -14.5319 -14.4520 -14.3757 -14.3466 -14.2421 -14.2250 -14.1697 -14.0851
   -14.0488 -13.9925 -13.8126  -8.3567  -8.0841  -8.0134  -7.9311  -7.9199
    -7.7278  -7.7272  -7.5386  -7.5249  -7.4539  -7.3125  -7.2740  -3.0537
    -2.9784  -2.8938  -2.8610  -2.5213  -2.2632  -2.1872  -1.8008  -1.7766
    -1.6581  -1.6367  -1.6096  -1.4414  -1.4005  -1.3825  -1.2482  -1.2474
    -1.2304  -1.2154  -1.2073  -1.1734  -1.0389  -1.0353  -1.0060  -0.9526
    -0.9365  -0.8658  -0.7593  -0.7542  -0.6503  -0.4899  -0.3931  -0.3676
    -0.2771  -0.2370  -0.2082  -0.1732   0.0369   0.1070   0.1088   0.1539
     0.1723   0.3786   0.4117   0.4334   0.4361   0.4429   0.5908   0.6435
     0.7481   0.7622   0.8627   0.8815   0.9061   1.0123   1.0625   1.1462
     1.2826   1.3338   1.3581   1.3763   1.3858   1.5685   1.5741   1.6022
     1.7514   1.7792   1.7853   1.8380   1.8885   1.8926   1.9092   2.0956
     2.2227   2.3567   2.4661   2.5500   2.6174   2.7442   2.7544   6.9147
     6.9366   7.1332   7.2143   7.2611   7.7521   8.1640   8.4427   8.5892
     8.6233   8.9346   9.0517   9.1678   9.2471   9.3034   9.3377   9.3894
     9.4892

          k =-0.5000 0.1320 0.0000 ( 34570 PWs)   bands (ev):

   -36.0541 -35.7430 -23.1293 -22.7379 -22.5132 -22.4851 -17.3866 -17.1809
   -17.1504 -17.1021 -16.9297 -16.8366 -15.2586 -15.0085 -14.9676 -14.6641
   -14.4935 -14.4133 -14.3422 -14.2952 -14.2202 -14.1991 -14.1439 -14.0667
   -14.0596 -14.0254 -13.8114  -8.3715  -8.2286  -8.1437  -8.0440  -7.9481
    -7.8570  -7.7566  -7.7461  -7.6502  -7.5714  -7.5171  -7.4863  -3.1164
    -3.0360  -2.9443  -2.9195  -2.5223  -2.2798  -2.2007  -2.0489  -1.9624
    -1.8722  -1.8154  -1.7025  -1.6527  -1.6191  -1.6009  -1.5367  -1.5003
    -1.4441  -1.3355  -1.3070  -1.2280  -1.1680  -1.0969  -1.0752  -0.9335
    -0.8151  -0.8112  -0.7362  -0.5755  -0.5658  -0.4569  -0.4226  -0.3822
    -0.3257  -0.2529  -0.1162  -0.0101   0.0806   0.0907   0.1366   0.2800
     0.3247   0.3642   0.4014   0.4871   0.5574   0.5666   0.5976   0.7193
     0.8029   0.9140   0.9433   1.0134   1.0780   1.1017   1.1289   1.2153
     1.2686   1.3594   1.3784   1.4253   1.5013   1.5585   1.6082   1.6099
     1.6489   1.6677   1.7422   1.8113   1.8437   1.8583   1.9323   2.2703
     2.6839   2.6989   2.8414   2.9100   3.0242   3.1150   3.2208   6.7195
     6.7748   7.0629   7.4423   7.5655   7.9532   8.0529   8.2012   8.3702
     8.8305   8.8500   9.1816   9.2217   9.2690   9.4003   9.4774   9.5605
     9.6269

          k =-0.5000 0.2640 0.0000 ( 34584 PWs)   bands (ev):

   -36.0505 -35.7388 -23.0806 -22.6879 -22.4632 -22.4364 -17.3738 -17.2281
   -17.1612 -17.0658 -16.9659 -16.8654 -15.1302 -14.8533 -14.7673 -14.5651
   -14.3997 -14.3152 -14.2622 -14.2066 -14.1710 -14.1419 -14.1116 -14.0844
   -14.0814 -13.9983 -13.8267  -8.6803  -8.5630  -8.3419  -8.3025  -8.1586
    -8.0940  -8.0262  -7.9989  -7.9514  -7.8658  -7.8382  -7.7175  -3.4148
    -3.2338  -3.1689  -3.1144  -2.6330  -2.5706  -2.5589  -2.4265  -2.3951
    -2.2800  -2.2639  -2.1962  -2.1756  -1.9958  -1.9498  -1.7634  -1.7195
    -1.6196  -1.5335  -1.2514  -1.1970  -1.0699  -0.9613  -0.9461  -0.9359
    -0.9116  -0.8824  -0.7866  -0.7099  -0.6890  -0.6050  -0.5864  -0.5366
    -0.3792  -0.2405  -0.1849  -0.1028   0.0217   0.1760   0.3566   0.4614
     0.4632   0.6587   0.8001   0.8034   0.8520   0.9399   1.0328   1.0491
     1.0894   1.1312   1.1373   1.1779   1.3372   1.3607   1.4157   1.4378
     1.5024   1.5250   1.5701   1.5942   1.6440   1.6758   1.7023   1.7360
     1.7557   1.7951   1.8540   1.8618   1.9199   1.9970   2.0533   2.1909
     2.7718   2.8919   3.5322   3.6534   3.8107   3.8935   3.9336   6.2084
     6.2985   6.6359   7.4310   7.5942   8.1109   8.3654   8.5483   8.8830
     8.9121   9.0388   9.2427   9.4336   9.5100   9.5181   9.5806   9.6548
     9.6640

          k =-0.5000 0.3960 0.0000 ( 34556 PWs)   bands (ev):

   -36.0469 -35.7346 -23.0308 -22.6367 -22.4120 -22.3867 -17.3611 -17.3028
   -17.1418 -17.0841 -17.0282 -16.7976 -14.9881 -14.6630 -14.5060 -14.4682
   -14.3055 -14.2501 -14.2114 -14.1857 -14.1657 -14.1277 -14.0859 -14.0316
   -14.0200 -13.9710 -13.8672  -9.0985  -8.8815  -8.6857  -8.4482  -8.4445
    -8.4173  -8.3619  -8.2501  -8.0842  -8.0624  -7.9458  -7.7681  -3.8869
    -3.5978  -3.5265  -3.3730  -3.3154  -2.9663  -2.9531  -2.7379  -2.5855
    -2.4560  -2.3722  -2.2457  -2.1984  -2.1883  -2.0516  -2.0229  -1.9411
    -1.7488  -1.6819  -1.2530  -1.2209  -1.1177  -1.1017  -1.0886  -1.0799
    -0.9660  -0.9316  -0.9032  -0.8429  -0.8385  -0.8289  -0.6664  -0.5627
    -0.4574  -0.3265  -0.2045   0.0691   0.1813   0.3303   0.5153   0.6526
     0.7479   0.9817   1.0458   1.0859   1.1190   1.2009   1.2271   1.2493
     1.3298   1.3358   1.3523   1.4660   1.5152   1.5243   1.5877   1.6137
     1.6165   1.7132   1.7264   1.7848   1.8191   1.8975   1.9742   1.9942
     2.0475   2.0594   2.1014   2.1423   2.2063   2.2359   2.3071   2.3450
     2.5756   2.7064   3.8998   4.0106   4.3592   4.4543   4.5149   5.6716
     5.7518   6.1450   7.0670   7.3160   8.1394   8.7792   8.8370   8.8800
     8.9063   9.2888   9.3480   9.4337   9.4983   9.5290   9.5894   9.6022
     9.7199

          k =-0.5000-0.5279 0.0000 ( 34620 PWs)   bands (ev):

   -36.0454 -35.7329 -23.0099 -22.6151 -22.3904 -22.3657 -17.3559 -17.3330
   -17.1339 -17.1306 -17.0122 -16.7679 -14.9239 -14.5454 -14.4803 -14.2989
   -14.2890 -14.2648 -14.1882 -14.1698 -14.1560 -14.1088 -14.0710 -14.0660
   -13.9946 -13.9805 -13.8627  -9.2581  -9.0099  -8.8350  -8.5901  -8.5698
    -8.5653  -8.3733  -8.3690  -8.1805  -8.0845  -7.9644  -7.7855  -4.0954
    -3.8041  -3.6933  -3.5932  -3.4274  -3.1892  -3.1577  -2.7669  -2.6103
    -2.4580  -2.3942  -2.3416  -2.1883  -2.1858  -2.1070  -2.0567  -2.0138
    -1.8200  -1.7021  -1.3688  -1.2739  -1.1878  -1.1611  -1.0690  -1.0578
    -1.0248  -1.0001  -0.9963  -0.9432  -0.8688  -0.8552  -0.7530  -0.5753
    -0.5253  -0.2977  -0.1837   0.2044   0.3046   0.3553   0.6356   0.7259
     0.8296   0.9893   1.1403   1.2007   1.2052   1.2691   1.3024   1.3105
     1.3155   1.3715   1.4427   1.4950   1.5703   1.6082   1.6114   1.6811
     1.7884   1.8387   1.8961   1.9360   1.9960   2.0209   2.0560   2.1078
     2.1965   2.2571   2.2871   2.2914   2.3049   2.3201   2.4087   2.4444
     2.4770   2.4854   3.9687   4.1189   4.5028   4.6554   4.7156   5.4379
     5.5000   5.9201   6.9546   7.2424   8.0777   8.6251   8.7276   8.8337
     8.8794   8.9610   9.2595   9.4357   9.4970   9.5342   9.6905   9.7955
    10.0911

     the Fermi energy is     2.5009 ev

!    total energy              =   -1842.86729635 Ry
     Harris-Foulkes estimate   =   -1842.86729635 Ry
     estimated scf accuracy    <          5.3E-11 Ry

     The total energy is the sum of the following terms:

     one-electron contribution =  -31135.09700536 Ry
     hartree contribution      =   15720.03079011 Ry
     xc contribution           =    -621.51153557 Ry
     ewald contribution        =   14193.71967772 Ry
     smearing contrib. (-TS)   =      -0.00922325 Ry

     convergence has been achieved in  33 iterations

     negative rho (up, down):  1.479E-03 0.000E+00

     Forces acting on atoms (cartesian axes, Ry/au):

     atom    1 type  4   force =     0.00000000    0.00000000    0.00132673
     atom    2 type  3   force =     0.00000000    0.00000000    0.01117240
     atom    3 type  4   force =     0.00000000    0.00000000   -0.00781582
     atom    4 type  1   force =     0.00000000    0.00000000    0.00300910
     atom    5 type  3   force =     0.00000000    0.00000000   -0.00148514
     atom    6 type  4   force =     0.00000000    0.00000000    0.00128816
     atom    7 type  4   force =     0.00000000    0.00000000    0.00236629
     atom    8 type  2   force =     0.00000000    0.00000000   -0.00045290
     atom    9 type  4   force =     0.00000000    0.00000000   -0.00153028
     atom   10 type  4   force =     0.00000000    0.00000000   -0.00150886
     atom   11 type  3   force =     0.00000000    0.00000000    0.00043610
     atom   12 type  1   force =     0.00000000    0.00000000   -0.00078980
     atom   13 type  4   force =     0.00000000    0.00000000    0.00909206
     atom   14 type  4   force =     0.00000000    0.00000000    0.00025512
     atom   15 type  3   force =     0.00000000    0.00000000   -0.00203740
     atom   16 type  4   force =     0.00000000    0.00000000   -0.00581145
     atom   17 type  1   force =     0.00000000    0.00000000   -0.00189022
     atom   18 type  3   force =     0.00000000    0.00000000    0.02074870
     atom   19 type  4   force =     0.00000000    0.00000000    0.01325672
     atom   20 type  4   force =     0.00000000    0.00000000   -0.00750101
     atom   21 type  2   force =     0.00000000    0.00000000    0.00599563
     atom   22 type  4   force =     0.00000000    0.00000000    0.02416571
     atom   23 type  4   force =     0.00000000    0.00000000    0.00412292
     atom   24 type  3   force =     0.00000000    0.00000000   -0.06519442
     atom   25 type  1   force =     0.00000000    0.00000000   -0.01427940
     atom   26 type  4   force =     0.00000000    0.00000000    0.03030024
     atom   27 type  3   force =     0.00000000    0.00000000   -0.01016920
     atom   28 type  4   force =     0.00000000    0.00000000   -0.00706999

     Total force =     0.081681     Total SCF correction =     0.000027


     Computing stress (Cartesian axis) and pressure


     negative rho (up, down):  1.479E-03 0.000E+00
          total   stress  (Ry/bohr**3)                   (kbar)     P=      -13.29
  -0.00003036   0.00000000   0.00000000           -4.47        0.00        0.00
   0.00000000  -0.00008657   0.00000000            0.00      -12.74        0.00
   0.00000000   0.00000000  -0.00015408            0.00        0.00      -22.67


     number of scf cycles    =   7
     number of bfgs steps    =   3

     energy   old            =   -1842.8841079969 Ry
     energy   new            =   -1842.8672963508 Ry

     CASE: energy  _new > energy  _old


 %%%%%%%%%%%%%%%%%%%%%%%%%%%%%%%%%%%%%%%%%%%%%%%%%%%%%%%%%%%%%%%%%%%%%%%%%%%%%%
     Error in routine bfgs (1):
     dE0s is positive which should never happen
 %%%%%%%%%%%%%%%%%%%%%%%%%%%%%%%%%%%%%%%%%%%%%%%%%%%%%%%%%%%%%%%%%%%%%%%%%%%%%%

     stopping ...
