
     Program PWSCF v.6.5 starts on 28Jun2021 at 12:38:41 

     This program is part of the open-source Quantum ESPRESSO suite
     for quantum simulation of materials; please cite
         "P. Giannozzi et al., J. Phys.:Condens. Matter 21 395502 (2009);
         "P. Giannozzi et al., J. Phys.:Condens. Matter 29 465901 (2017);
          URL http://www.quantum-espresso.org", 
     in publications or presentations arising from this work. More details at
     http://www.quantum-espresso.org/quote

     Parallel version (MPI), running on    20 processors

     MPI processes distributed on    15 nodes
     R & G space division:  proc/nbgrp/npool/nimage =      20
     Reading input from CBCO_BaO_cleave_2.75_sep.pwi
Warning: card &CELL ignored
Warning: card     CELL_DYNAMICS = 'BFGS' ignored
Warning: card     PRESS_CONV_THR = 0.5 ignored
Warning: card / ignored

     Current dimensions of program PWSCF are:
     Max number of different atomic species (ntypx) = 10
     Max number of k-points (npk) =  40000
     Max angular momentum in pseudopotentials (lmaxx) =  3

     Subspace diagonalization in iterative solution of the eigenvalue problem:
     one sub-group per band group will be used
     scalapack distributed-memory algorithm (size of sub-group:  4*  4 procs)

     Message from routine setup:
     using ibrav=0 with symmetry is DISCOURAGED, use correct ibrav instead
 
     Parallelization info
     --------------------
     sticks:   dense  smooth     PW     G-vecs:    dense   smooth      PW
     Min         149      50     14                74579    14362    2244
     Max         150      51     15                74618    14385    2291
     Sum        2991    1007    289              1491985   287417   45181
 


     bravais-lattice index     =            0
     lattice parameter (alat)  =       7.4270  a.u.
     unit-cell volume          =    4573.7972 (a.u.)^3
     number of atoms/cell      =           28
     number of atomic types    =            4
     number of electrons       =       227.00
     number of Kohn-Sham states=          137
     kinetic-energy cutoff     =      60.0000  Ry
     charge density cutoff     =     720.0000  Ry
     convergence threshold     =      1.0E-08
     mixing beta               =       0.5000
     number of iterations used =           10  local-TF  mixing
     Exchange-correlation= SLA PW PBE PBE
                           (   1   4   3   4   0   0   0)
     nstep                     =          300


     celldm(1)=   7.427040  celldm(2)=   0.000000  celldm(3)=   0.000000
     celldm(4)=   0.000000  celldm(5)=   0.000000  celldm(6)=   0.000000

     crystal axes: (cart. coord. in units of alat)
               a(1) = (   1.000000   0.000000   0.000000 )  
               a(2) = (   0.000000   0.947081   0.000000 )  
               a(3) = (   0.000000   0.000000  11.788063 )  

     reciprocal axes: (cart. coord. in units 2 pi/alat)
               b(1) = (  1.000000  0.000000  0.000000 )  
               b(2) = (  0.000000  1.055876  0.000000 )  
               b(3) = (  0.000000  0.000000  0.084832 )  


     PseudoPot. # 1 for Ba read from file:
     ./pseudo/Ba.pbe-nsp-van.UPF
     MD5 check sum: 2b9c31dd849566dd297d80989662b7a0
     Pseudo is Ultrasoft + core correction, Zval = 10.0
     Generated by new atomic code, or converted to UPF format
     Using radial grid of  907 points,  6 beta functions with: 
                l(1) =   0
                l(2) =   0
                l(3) =   1
                l(4) =   1
                l(5) =   2
                l(6) =   2
     Q(r) pseudized with  6 coefficients,  rinner =    1.200   1.200   1.200
                                                       1.200   1.200

     PseudoPot. # 2 for Ca read from file:
     ./pseudo/Ca.pbe-nsp-van.UPF
     MD5 check sum: 6471098428ff4fa451746d08035ff179
     Pseudo is Ultrasoft + core correction, Zval = 10.0
     Generated by new atomic code, or converted to UPF format
     Using radial grid of  845 points,  6 beta functions with: 
                l(1) =   0
                l(2) =   0
                l(3) =   1
                l(4) =   1
                l(5) =   2
                l(6) =   2
     Q(r) pseudized with  6 coefficients,  rinner =    1.200   1.200   1.200
                                                       1.200   1.200

     PseudoPot. # 3 for Cu read from file:
     ./pseudo/Cu.pbe-n-van_ak.UPF
     MD5 check sum: 34e3282627ffb533726feb647e090d62
     Pseudo is Ultrasoft + core correction, Zval = 11.0
     Generated by new atomic code, or converted to UPF format
     Using radial grid of  867 points,  6 beta functions with: 
                l(1) =   0
                l(2) =   0
                l(3) =   1
                l(4) =   1
                l(5) =   2
                l(6) =   2
     Q(r) pseudized with  8 coefficients,  rinner =    1.400   1.400   1.400
                                                       1.400   1.400

     PseudoPot. # 4 for O  read from file:
     ./pseudo/O.pbe-van_ak.UPF
     MD5 check sum: 783ce7fe4c79b6a4916957118fed0856
     Pseudo is Ultrasoft, Zval =  6.0
     Generated by new atomic code, or converted to UPF format
     Using radial grid of  737 points,  4 beta functions with: 
                l(1) =   0
                l(2) =   0
                l(3) =   1
                l(4) =   1
     Q(r) pseudized with  8 coefficients,  rinner =    0.800   0.800   0.800


     atomic species   valence    mass     pseudopotential
        Ba            10.00   137.32700     Ba( 1.00)
        Ca            10.00    40.07800     Ca( 1.00)
        Cu            11.00    63.54600     Cu( 1.00)
        O              6.00    15.99900     O ( 1.00)

      4 Sym. Ops. (no inversion) found



   Cartesian axes

     site n.     atom                  positions (alat units)
         1           O   tau(   1) = (   0.0000000   0.4735409  -0.0469745  )
         2           Cu  tau(   2) = (   0.0000000   0.0000000   0.0264565  )
         3           O   tau(   3) = (   0.0000000   0.0000000   0.5030914  )
         4           Ba  tau(   4) = (   0.5000000   0.4735409   0.5690292  )
         5           Cu  tau(   5) = (   0.0000000   0.0000000   1.0374254  )
         6           O   tau(   6) = (   0.5000000   0.0000000   1.0768099  )
         7           O   tau(   7) = (   0.0000000   0.4735409   1.1116985  )
         8           Ca  tau(   8) = (   0.5000000   0.4735409   1.4976260  )
         9           O   tau(   9) = (   0.0000000   0.4735409   1.8667529  )
        10           O   tau(  10) = (   0.5000000   0.0000000   1.9044124  )
        11           Cu  tau(  11) = (   0.0000000   0.0000000   1.9512546  )
        12           Ba  tau(  12) = (   0.5000000   0.4735409   2.4295764  )
        13           O   tau(  13) = (   0.0000000   0.0000000   2.5115362  )
        14           O   tau(  14) = (   0.0000000   0.4735409   2.9918528  )
        15           Cu  tau(  15) = (   0.0000000   0.0000000   2.9919088  )
        16           O   tau(  16) = (   0.0000000   0.0000000   3.4722686  )
        17           Ba  tau(  17) = (   0.5000000   0.4735409   3.5542208  )
        18           Cu  tau(  18) = (   0.0000000   0.0000000   4.7322311  )
        19           O   tau(  19) = (   0.5000000   0.0000000   4.7790733  )
        20           O   tau(  20) = (   0.0000000   0.4735409   4.8167277  )
        21           Ca  tau(  21) = (   0.5000000   0.4735409   5.1858647  )
        22           O   tau(  22) = (   0.0000000   0.4735409   5.5717897  )
        23           O   tau(  23) = (   0.5000000   0.0000000   5.6066783  )
        24           Cu  tau(  24) = (   0.0000000   0.0000000   5.6460654  )
        25           Ba  tau(  25) = (   0.5000000   0.4735409   6.1144590  )
        26           O   tau(  26) = (   0.0000000   0.0000000   6.1803867  )
        27           Cu  tau(  27) = (   0.0000000   0.0000000   6.6570266  )
        28           O   tau(  28) = (   0.0000000   0.4735409   6.7304449  )

     number of k points=    25  Gaussian smearing, width (Ry)=  0.0100
                       cart. coord. in units 2pi/alat
        k(    1) = (   0.0000000   0.0000000   0.0000000), wk =   0.0312500
        k(    2) = (   0.0000000   0.1319845   0.0000000), wk =   0.0625000
        k(    3) = (   0.0000000   0.2639689   0.0000000), wk =   0.0625000
        k(    4) = (   0.0000000   0.3959534   0.0000000), wk =   0.0625000
        k(    5) = (   0.0000000  -0.5279378   0.0000000), wk =   0.0312500
        k(    6) = (   0.1250000   0.0000000   0.0000000), wk =   0.0625000
        k(    7) = (   0.1250000   0.1319845   0.0000000), wk =   0.1250000
        k(    8) = (   0.1250000   0.2639689   0.0000000), wk =   0.1250000
        k(    9) = (   0.1250000   0.3959534   0.0000000), wk =   0.1250000
        k(   10) = (   0.1250000  -0.5279378   0.0000000), wk =   0.0625000
        k(   11) = (   0.2500000   0.0000000   0.0000000), wk =   0.0625000
        k(   12) = (   0.2500000   0.1319845   0.0000000), wk =   0.1250000
        k(   13) = (   0.2500000   0.2639689   0.0000000), wk =   0.1250000
        k(   14) = (   0.2500000   0.3959534   0.0000000), wk =   0.1250000
        k(   15) = (   0.2500000  -0.5279378   0.0000000), wk =   0.0625000
        k(   16) = (   0.3750000   0.0000000   0.0000000), wk =   0.0625000
        k(   17) = (   0.3750000   0.1319845   0.0000000), wk =   0.1250000
        k(   18) = (   0.3750000   0.2639689   0.0000000), wk =   0.1250000
        k(   19) = (   0.3750000   0.3959534   0.0000000), wk =   0.1250000
        k(   20) = (   0.3750000  -0.5279378   0.0000000), wk =   0.0625000
        k(   21) = (  -0.5000000   0.0000000   0.0000000), wk =   0.0312500
        k(   22) = (  -0.5000000   0.1319845   0.0000000), wk =   0.0625000
        k(   23) = (  -0.5000000   0.2639689   0.0000000), wk =   0.0625000
        k(   24) = (  -0.5000000   0.3959534   0.0000000), wk =   0.0625000
        k(   25) = (  -0.5000000  -0.5279378   0.0000000), wk =   0.0312500

     Dense  grid:  1491985 G-vectors     FFT dimensions: (  64,  64, 750)

     Smooth grid:   287417 G-vectors     FFT dimensions: (  40,  36, 432)

     Estimated max dynamical RAM per process >     475.81 MB

     Estimated total dynamical RAM >       9.29 GB

     Initial potential from superposition of free atoms

     starting charge  226.84630, renormalised to  227.00000

     negative rho (up, down):  3.436E-03 0.000E+00
     Starting wfcs are  195 randomized atomic wfcs

     total cpu time spent up to now is       11.5 secs

     Self-consistent Calculation

     iteration #  1     ecut=    60.00 Ry     beta= 0.50
     Davidson diagonalization with overlap
     ethr =  1.00E-02,  avg # of iterations =  2.0

     negative rho (up, down):  4.902E-04 0.000E+00

     total cpu time spent up to now is       29.4 secs

     total energy              =   -1840.78549559 Ry
     Harris-Foulkes estimate   =   -1845.41084007 Ry
     estimated scf accuracy    <      19.84254724 Ry

     iteration #  2     ecut=    60.00 Ry     beta= 0.50
     Davidson diagonalization with overlap
     ethr =  8.74E-03,  avg # of iterations =  2.0

     negative rho (up, down):  2.679E-04 0.000E+00

     total cpu time spent up to now is       46.8 secs

     total energy              =   -1842.50412110 Ry
     Harris-Foulkes estimate   =   -1843.36095441 Ry
     estimated scf accuracy    <       5.02985603 Ry

     iteration #  3     ecut=    60.00 Ry     beta= 0.50
     Davidson diagonalization with overlap
     ethr =  2.22E-03,  avg # of iterations =  2.0

     negative rho (up, down):  2.502E-04 0.000E+00

     total cpu time spent up to now is       64.2 secs

     total energy              =   -1842.85794464 Ry
     Harris-Foulkes estimate   =   -1843.00300265 Ry
     estimated scf accuracy    <       4.40817868 Ry

     iteration #  4     ecut=    60.00 Ry     beta= 0.50
     Davidson diagonalization with overlap
     ethr =  1.94E-03,  avg # of iterations =  1.0

     negative rho (up, down):  2.432E-04 0.000E+00

     total cpu time spent up to now is       80.1 secs

     total energy              =   -1842.85301259 Ry
     Harris-Foulkes estimate   =   -1842.93348740 Ry
     estimated scf accuracy    <       1.48548457 Ry

     iteration #  5     ecut=    60.00 Ry     beta= 0.50
     Davidson diagonalization with overlap
     ethr =  6.54E-04,  avg # of iterations =  1.6

     negative rho (up, down):  2.384E-04 0.000E+00

     total cpu time spent up to now is       97.0 secs

     total energy              =   -1842.83850256 Ry
     Harris-Foulkes estimate   =   -1842.90410603 Ry
     estimated scf accuracy    <       2.77108428 Ry

     iteration #  6     ecut=    60.00 Ry     beta= 0.50
     Davidson diagonalization with overlap
     ethr =  6.54E-04,  avg # of iterations =  1.4

     negative rho (up, down):  2.346E-04 0.000E+00

     total cpu time spent up to now is      113.6 secs

     total energy              =   -1842.82350813 Ry
     Harris-Foulkes estimate   =   -1842.86137910 Ry
     estimated scf accuracy    <       1.02623684 Ry

     iteration #  7     ecut=    60.00 Ry     beta= 0.50
     Davidson diagonalization with overlap
     ethr =  4.52E-04,  avg # of iterations =  3.7

     negative rho (up, down):  2.337E-04 0.000E+00

     total cpu time spent up to now is      133.0 secs

     total energy              =   -1842.82452978 Ry
     Harris-Foulkes estimate   =   -1842.83716716 Ry
     estimated scf accuracy    <       0.57873628 Ry

     iteration #  8     ecut=    60.00 Ry     beta= 0.50
     Davidson diagonalization with overlap
     ethr =  2.55E-04,  avg # of iterations =  4.2

     negative rho (up, down):  2.327E-04 0.000E+00

     total cpu time spent up to now is      153.1 secs

     total energy              =   -1842.82043644 Ry
     Harris-Foulkes estimate   =   -1842.83071596 Ry
     estimated scf accuracy    <       0.27266642 Ry

     iteration #  9     ecut=    60.00 Ry     beta= 0.50
     Davidson diagonalization with overlap
     ethr =  1.20E-04,  avg # of iterations =  5.4

     negative rho (up, down):  2.338E-04 0.000E+00

     total cpu time spent up to now is      174.7 secs

     total energy              =   -1842.81628015 Ry
     Harris-Foulkes estimate   =   -1842.82420088 Ry
     estimated scf accuracy    <       0.20689214 Ry

     iteration # 10     ecut=    60.00 Ry     beta= 0.50
     Davidson diagonalization with overlap
     ethr =  9.11E-05,  avg # of iterations =  4.6

     negative rho (up, down):  2.350E-04 0.000E+00

     total cpu time spent up to now is      194.9 secs

     total energy              =   -1842.81328562 Ry
     Harris-Foulkes estimate   =   -1842.81873540 Ry
     estimated scf accuracy    <       0.07421409 Ry

     iteration # 11     ecut=    60.00 Ry     beta= 0.50
     Davidson diagonalization with overlap
     ethr =  3.27E-05,  avg # of iterations =  8.5

     negative rho (up, down):  2.363E-04 0.000E+00

     total cpu time spent up to now is      221.0 secs

     total energy              =   -1842.81208829 Ry
     Harris-Foulkes estimate   =   -1842.81508233 Ry
     estimated scf accuracy    <       0.02339792 Ry

     iteration # 12     ecut=    60.00 Ry     beta= 0.50
     Davidson diagonalization with overlap
     ethr =  1.03E-05,  avg # of iterations =  8.8

     negative rho (up, down):  2.360E-04 0.000E+00

     total cpu time spent up to now is      248.4 secs

     total energy              =   -1842.81211103 Ry
     Harris-Foulkes estimate   =   -1842.81303058 Ry
     estimated scf accuracy    <       0.01597440 Ry

     iteration # 13     ecut=    60.00 Ry     beta= 0.50
     Davidson diagonalization with overlap
     ethr =  7.04E-06,  avg # of iterations =  1.2

     negative rho (up, down):  4.052E-04 0.000E+00

     total cpu time spent up to now is      264.2 secs

     total energy              =   -1842.81117173 Ry
     Harris-Foulkes estimate   =   -1842.81229394 Ry
     estimated scf accuracy    <       0.01923921 Ry

     iteration # 14     ecut=    60.00 Ry     beta= 0.50
     Davidson diagonalization with overlap
     ethr =  7.04E-06,  avg # of iterations =  5.2

     negative rho (up, down):  7.097E-04 0.000E+00

     total cpu time spent up to now is      284.8 secs

     total energy              =   -1842.81085582 Ry
     Harris-Foulkes estimate   =   -1842.81141583 Ry
     estimated scf accuracy    <       0.03256476 Ry

     iteration # 15     ecut=    60.00 Ry     beta= 0.50
     Davidson diagonalization with overlap
     ethr =  7.04E-06,  avg # of iterations =  1.7

     negative rho (up, down):  2.341E-04 0.000E+00

     total cpu time spent up to now is      300.8 secs

     total energy              =   -1842.81090897 Ry
     Harris-Foulkes estimate   =   -1842.81094449 Ry
     estimated scf accuracy    <       0.03365225 Ry

     iteration # 16     ecut=    60.00 Ry     beta= 0.50
     Davidson diagonalization with overlap
     ethr =  7.04E-06,  avg # of iterations =  2.4

     negative rho (up, down):  2.366E-04 0.000E+00

     total cpu time spent up to now is      318.0 secs

     total energy              =   -1842.80991156 Ry
     Harris-Foulkes estimate   =   -1842.81102609 Ry
     estimated scf accuracy    <       0.02459714 Ry

     iteration # 17     ecut=    60.00 Ry     beta= 0.50
     Davidson diagonalization with overlap
     ethr =  7.04E-06,  avg # of iterations =  3.6

     negative rho (up, down):  1.709E-03 0.000E+00

     total cpu time spent up to now is      336.5 secs

     total energy              =   -1842.80846336 Ry
     Harris-Foulkes estimate   =   -1842.81004133 Ry
     estimated scf accuracy    <       0.01907676 Ry

     iteration # 18     ecut=    60.00 Ry     beta= 0.50
     Davidson diagonalization with overlap
     ethr =  7.04E-06,  avg # of iterations =  5.5

     negative rho (up, down):  1.457E-03 0.000E+00

     total cpu time spent up to now is      357.9 secs

     total energy              =   -1842.80810073 Ry
     Harris-Foulkes estimate   =   -1842.80860339 Ry
     estimated scf accuracy    <       0.01033206 Ry

     iteration # 19     ecut=    60.00 Ry     beta= 0.50
     Davidson diagonalization with overlap
     ethr =  4.55E-06,  avg # of iterations =  4.7

     negative rho (up, down):  2.527E-03 0.000E+00

     total cpu time spent up to now is      378.1 secs

     total energy              =   -1842.80778392 Ry
     Harris-Foulkes estimate   =   -1842.80815529 Ry
     estimated scf accuracy    <       0.00613361 Ry

     iteration # 20     ecut=    60.00 Ry     beta= 0.50
     Davidson diagonalization with overlap
     ethr =  2.70E-06,  avg # of iterations =  9.0

     negative rho (up, down):  2.814E-04 0.000E+00

     total cpu time spent up to now is      404.6 secs

     total energy              =   -1842.80772843 Ry
     Harris-Foulkes estimate   =   -1842.80784589 Ry
     estimated scf accuracy    <       0.00266040 Ry

     iteration # 21     ecut=    60.00 Ry     beta= 0.50
     Davidson diagonalization with overlap
     ethr =  1.17E-06,  avg # of iterations =  4.4

     negative rho (up, down):  3.237E-04 0.000E+00

     total cpu time spent up to now is      424.7 secs

     total energy              =   -1842.80774981 Ry
     Harris-Foulkes estimate   =   -1842.80779094 Ry
     estimated scf accuracy    <       0.00114894 Ry

     iteration # 22     ecut=    60.00 Ry     beta= 0.50
     Davidson diagonalization with overlap
     ethr =  5.06E-07,  avg # of iterations =  3.0

     negative rho (up, down):  2.179E-03 0.000E+00

     total cpu time spent up to now is      442.6 secs

     total energy              =   -1842.80771499 Ry
     Harris-Foulkes estimate   =   -1842.80777203 Ry
     estimated scf accuracy    <       0.00094306 Ry

     iteration # 23     ecut=    60.00 Ry     beta= 0.50
     Davidson diagonalization with overlap
     ethr =  4.15E-07,  avg # of iterations =  5.5

     negative rho (up, down):  1.730E-03 0.000E+00

     total cpu time spent up to now is      464.0 secs

     total energy              =   -1842.80774199 Ry
     Harris-Foulkes estimate   =   -1842.80774448 Ry
     estimated scf accuracy    <       0.00034896 Ry

     iteration # 24     ecut=    60.00 Ry     beta= 0.50
     Davidson diagonalization with overlap
     c_bands:  1 eigenvalues not converged
     c_bands:  1 eigenvalues not converged
     ethr =  1.54E-07,  avg # of iterations =  5.8

     negative rho (up, down):  1.645E-03 0.000E+00

     total cpu time spent up to now is      485.5 secs

     total energy              =   -1842.80775181 Ry
     Harris-Foulkes estimate   =   -1842.80775476 Ry
     estimated scf accuracy    <       0.00010089 Ry

     iteration # 25     ecut=    60.00 Ry     beta= 0.50
     Davidson diagonalization with overlap
     ethr =  4.44E-08,  avg # of iterations =  1.3

     negative rho (up, down):  1.349E-03 0.000E+00

     total cpu time spent up to now is      501.3 secs

     total energy              =   -1842.80775221 Ry
     Harris-Foulkes estimate   =   -1842.80775521 Ry
     estimated scf accuracy    <       0.00004389 Ry

     iteration # 26     ecut=    60.00 Ry     beta= 0.50
     Davidson diagonalization with overlap
     ethr =  1.93E-08,  avg # of iterations =  3.7

     negative rho (up, down):  1.486E-03 0.000E+00

     total cpu time spent up to now is      519.0 secs

     total energy              =   -1842.80775208 Ry
     Harris-Foulkes estimate   =   -1842.80775451 Ry
     estimated scf accuracy    <       0.00003695 Ry

     iteration # 27     ecut=    60.00 Ry     beta= 0.50
     Davidson diagonalization with overlap
     ethr =  1.63E-08,  avg # of iterations =  1.0

     negative rho (up, down):  1.601E-03 0.000E+00

     total cpu time spent up to now is      533.7 secs

     total energy              =   -1842.80775238 Ry
     Harris-Foulkes estimate   =   -1842.80775347 Ry
     estimated scf accuracy    <       0.00000532 Ry

     iteration # 28     ecut=    60.00 Ry     beta= 0.50
     Davidson diagonalization with overlap
     ethr =  2.34E-09,  avg # of iterations =  2.6

     negative rho (up, down):  1.583E-03 0.000E+00

     total cpu time spent up to now is      550.6 secs

     total energy              =   -1842.80775258 Ry
     Harris-Foulkes estimate   =   -1842.80775279 Ry
     estimated scf accuracy    <       0.00000273 Ry

     iteration # 29     ecut=    60.00 Ry     beta= 0.50
     Davidson diagonalization with overlap
     ethr =  1.20E-09,  avg # of iterations =  1.3

     negative rho (up, down):  1.533E-03 0.000E+00

     total cpu time spent up to now is      566.8 secs

     total energy              =   -1842.80775261 Ry
     Harris-Foulkes estimate   =   -1842.80775270 Ry
     estimated scf accuracy    <       0.00000059 Ry

     iteration # 30     ecut=    60.00 Ry     beta= 0.50
     Davidson diagonalization with overlap
     ethr =  2.58E-10,  avg # of iterations =  2.9

     negative rho (up, down):  1.499E-03 0.000E+00

     total cpu time spent up to now is      585.3 secs

     total energy              =   -1842.80775271 Ry
     Harris-Foulkes estimate   =   -1842.80775269 Ry
     estimated scf accuracy    <       0.00000026 Ry

     iteration # 31     ecut=    60.00 Ry     beta= 0.50
     Davidson diagonalization with overlap
     ethr =  1.16E-10,  avg # of iterations =  1.4

     negative rho (up, down):  1.489E-03 0.000E+00

     total cpu time spent up to now is      601.0 secs

     total energy              =   -1842.80775273 Ry
     Harris-Foulkes estimate   =   -1842.80775272 Ry
     estimated scf accuracy    <       0.00000006 Ry

     iteration # 32     ecut=    60.00 Ry     beta= 0.50
     Davidson diagonalization with overlap
     ethr =  2.53E-11,  avg # of iterations =  2.9

     negative rho (up, down):  1.488E-03 0.000E+00

     total cpu time spent up to now is      619.9 secs

     total energy              =   -1842.80775273 Ry
     Harris-Foulkes estimate   =   -1842.80775273 Ry
     estimated scf accuracy    <       0.00000005 Ry

     iteration # 33     ecut=    60.00 Ry     beta= 0.50
     Davidson diagonalization with overlap
     ethr =  2.01E-11,  avg # of iterations =  1.0

     negative rho (up, down):  1.489E-03 0.000E+00

     total cpu time spent up to now is      635.2 secs

     total energy              =   -1842.80775273 Ry
     Harris-Foulkes estimate   =   -1842.80775273 Ry
     estimated scf accuracy    <       0.00000003 Ry

     iteration # 34     ecut=    60.00 Ry     beta= 0.50
     Davidson diagonalization with overlap
     ethr =  1.11E-11,  avg # of iterations =  1.0

     negative rho (up, down):  1.494E-03 0.000E+00

     total cpu time spent up to now is      650.8 secs

     total energy              =   -1842.80775272 Ry
     Harris-Foulkes estimate   =   -1842.80775273 Ry
     estimated scf accuracy    <       0.00000001 Ry

     iteration # 35     ecut=    60.00 Ry     beta= 0.50
     Davidson diagonalization with overlap
     ethr =  6.18E-12,  avg # of iterations =  1.0

     negative rho (up, down):  1.502E-03 0.000E+00

     total cpu time spent up to now is      665.8 secs

     End of self-consistent calculation

          k = 0.0000 0.0000 0.0000 ( 35977 PWs)   bands (ev):

   -35.8116 -35.6167 -24.5702 -23.0032 -23.0008 -22.8173 -17.3155 -17.0971
   -16.8628 -16.8514 -16.6829 -16.6631 -15.5240 -15.3794 -15.2701 -14.8848
   -14.8754 -14.7963 -14.5416 -14.3930 -14.3867 -14.1997 -14.1743 -14.1653
   -14.0524 -13.9707 -13.6693  -9.8365  -9.3990  -9.3240  -8.1352  -8.1302
    -8.0969  -8.0952  -8.0048  -7.9040  -7.9016  -7.8608  -7.6943  -2.5430
    -2.5410  -2.4347  -2.0430  -2.0346  -1.9957  -1.8875  -1.8417  -1.7663
    -1.7355  -1.7078  -1.6141  -1.4731  -1.4341  -1.4318  -1.4254  -1.2113
    -1.0654  -1.0305  -0.6718  -0.6699  -0.5927  -0.5877  -0.5822  -0.5322
    -0.5039  -0.4816  -0.4779  -0.4760  -0.4696  -0.4551  -0.3743  -0.3504
    -0.3224  -0.3053  -0.2502  -0.2486  -0.1148  -0.1136  -0.1124  -0.1084
    -0.1068  -0.0625  -0.0415  -0.0049   0.0724   0.1047   0.1947   0.2170
     0.4592   0.4610   0.4946   0.6695   0.6703   0.7231   0.7641   0.9100
     0.9643   1.0204   1.1264   1.1681   1.1712   1.1934   1.2296   1.2466
     1.3373   1.3559   1.4005   1.5799   1.6014   1.7789   1.7891   1.8108
     1.8245   1.8365   1.9626   1.9755   1.9798   2.3150   2.3216   4.2078
     4.8959   5.0049   5.0315   5.7558   6.0773   6.4036   6.5494   6.5749
     7.0182   7.3198   7.7627   7.9070   8.0339   8.1778   8.2994   8.3678
     8.4098

          k = 0.0000 0.1320 0.0000 ( 35963 PWs)   bands (ev):

   -35.8098 -35.6148 -24.5493 -22.9766 -22.9741 -22.7918 -17.2794 -17.0607
   -16.9238 -16.8604 -16.7350 -16.6806 -15.4350 -15.3007 -15.2168 -14.8906
   -14.8742 -14.7687 -14.5130 -14.4026 -14.3911 -14.2365 -14.2031 -14.1812
   -14.1041 -14.0200 -13.6922  -9.8258  -9.3648  -9.3627  -8.1346  -8.1302
    -8.0491  -8.0474  -8.0029  -7.9457  -7.9434  -7.8157  -7.7427  -2.6003
    -2.5990  -2.4789  -2.3748  -2.3614  -2.2725  -2.0637  -2.0624  -1.8666
    -1.8575  -1.8561  -1.8249  -1.7490  -1.6014  -1.4618  -1.4507  -1.4117
    -1.0816  -0.9750  -0.8876  -0.8397  -0.8273  -0.7691  -0.7674  -0.6740
    -0.6729  -0.5655  -0.5184  -0.4024  -0.3898  -0.3628  -0.3614  -0.3612
    -0.3593  -0.2408  -0.2290  -0.2272  -0.2094  -0.1435  -0.0977  -0.0903
    -0.0895  -0.0542   0.0515   0.0623   0.1336   0.1470   0.2368   0.2582
     0.2972   0.6068   0.6431   0.7926   0.8667   0.8674   0.8693   0.8932
     0.9159   0.9445   0.9511   1.0208   1.1966   1.2286   1.2609   1.3056
     1.3727   1.3763   1.5132   1.5616   1.5771   1.5976   1.7122   1.7811
     1.7903   1.8208   2.0424   2.1279   2.4570   2.6024   2.6131   4.4647
     5.2146   5.3813   5.3864   6.0514   6.3498   6.6012   6.8541   6.8700
     7.2532   7.5155   7.9345   7.9919   8.0910   8.2544   8.3716   8.4269
     8.4799

          k = 0.0000 0.2640 0.0000 ( 35845 PWs)   bands (ev):

   -35.8054 -35.6104 -24.4981 -22.9107 -22.9082 -22.7291 -17.1874 -17.0779
   -16.9688 -16.8875 -16.8548 -16.6749 -15.2329 -15.1438 -15.0776 -14.9410
   -14.8913 -14.7079 -14.4539 -14.3954 -14.3902 -14.3563 -14.2526 -14.2406
   -14.2201 -14.0903 -13.7496  -9.7939  -9.4560  -9.2727  -8.1339  -8.1302
    -8.0367  -8.0339  -7.9977  -7.9287  -7.9269  -7.8472  -7.7025  -3.0857
    -3.0363  -3.0307  -2.8479  -2.6445  -2.6400  -2.6027  -2.4947  -2.4924
    -2.4237  -2.0076  -1.8117  -1.7775  -1.6945  -1.6895  -1.6694  -1.3699
    -1.3023  -1.2079  -1.2054  -1.1245  -1.0189  -1.0188  -0.9254  -0.8668
    -0.8532  -0.7648  -0.7463  -0.7115  -0.7089  -0.6640  -0.5651  -0.5603
    -0.4656  -0.3676  -0.2264  -0.2007  -0.1988  -0.1206  -0.1001  -0.0069
     0.0445   0.1497   0.2307   0.3016   0.3261   0.3937   0.4789   0.4858
     0.5477   0.5541   0.7479   0.7809   0.8521   0.9137   0.9276   0.9520
     0.9529   0.9996   1.0535   1.0851   1.0954   1.1533   1.3133   1.3226
     1.4872   1.5059   1.5103   1.6379   1.6883   1.7600   1.7619   1.7816
     1.8294   1.9000   2.1785   2.2232   2.8251   2.8283   3.2939   4.9960
     6.0513   6.2742   6.2750   6.3962   7.0827   7.1727   7.6226   7.6754
     7.6896   7.9073   8.3151   8.4363   8.4834   8.5550   8.6518   8.7463
     8.8249

          k = 0.0000 0.3960 0.0000 ( 35802 PWs)   bands (ev):

   -35.8010 -35.6060 -24.4457 -22.8425 -22.8400 -22.6644 -17.2143 -17.0857
   -17.0244 -16.8654 -16.8492 -16.6692 -15.1468 -15.1363 -14.9116 -14.9041
   -14.7990 -14.6805 -14.5713 -14.4299 -14.4034 -14.3293 -14.3128 -14.3095
   -14.1884 -14.1446 -13.8320  -9.7431  -9.5503  -9.1787  -8.1338  -8.1303
    -8.1149  -8.1119  -7.9923  -7.9383  -7.8002  -7.7984  -7.5824  -3.8085
    -3.5023  -3.4932  -3.2877  -3.2107  -3.2072  -3.0486  -2.5852  -2.5830
    -2.4505  -2.3596  -2.0229  -2.0158  -1.7481  -1.7139  -1.6305  -1.5211
    -1.4295  -1.3729  -1.3238  -1.3161  -1.2878  -1.2722  -1.0878  -1.0632
    -1.0385  -0.9655  -0.9580  -0.9329  -0.9023  -0.8656  -0.7292  -0.5769
    -0.4683  -0.4611  -0.4508  -0.1837  -0.1820  -0.0865  -0.0863  -0.0597
     0.0351   0.1920   0.2112   0.2749   0.3672   0.3726   0.5563   0.7104
     0.7126   0.7224   0.7476   0.8104   0.8609   0.9138   0.9225   0.9241
     1.0062   1.0196   1.1488   1.1661   1.4033   1.4143   1.5013   1.5223
     1.5608   1.6333   1.6942   1.7141   1.7475   1.7662   1.9443   1.9793
     2.1337   2.1535   2.1548   2.1562   2.7195   2.7218   3.8457   5.5058
     6.2151   7.0938   7.2220   7.2228   7.7488   7.9768   8.1093   8.2646
     8.4667   8.4831   8.7241   8.8428   8.8662   8.9204   8.9516   9.0317
     9.1715

          k = 0.0000-0.5279 0.0000 ( 35874 PWs)   bands (ev):

   -35.7992 -35.6041 -24.4236 -22.8136 -22.8111 -22.6369 -17.2664 -17.0760
   -17.0408 -16.8468 -16.8206 -16.6669 -15.1888 -15.1810 -14.8076 -14.7920
   -14.6993 -14.6976 -14.6790 -14.4703 -14.4499 -14.3542 -14.2914 -14.2849
   -14.1815 -14.1171 -13.8959  -9.7023  -9.6054  -9.1386  -8.1445  -8.1416
    -8.1335  -8.1298  -7.9843  -7.9784  -7.7443  -7.7425  -7.5304  -4.0761
    -3.6804  -3.6730  -3.4599  -3.4412  -3.4328  -3.2181  -2.6013  -2.5991
    -2.4894  -2.4597  -2.1529  -2.1479  -1.7264  -1.6778  -1.6602  -1.5232
    -1.4820  -1.4495  -1.4124  -1.4117  -1.4076  -1.2413  -1.2136  -1.1818
    -1.1353  -1.0506  -1.0488  -1.0107  -0.9521  -0.8896  -0.8000  -0.5616
    -0.5561  -0.4556  -0.4490  -0.1780  -0.1763  -0.0987  -0.0754  -0.0467
     0.0350   0.0566   0.1808   0.1977   0.3331   0.3884   0.5927   0.6190
     0.6362   0.7849   0.7972   0.9055   0.9071   0.9087   0.9275   0.9460
     1.1099   1.1271   1.1592   1.2060   1.5181   1.5184   1.5286   1.5827
     1.7777   1.7972   1.8099   1.8278   1.8434   1.8966   1.9160   2.0121
     2.0123   2.0801   2.3162   2.3178   2.5415   2.5424   4.0256   5.6588
     6.3317   7.3176   7.6345   7.6365   7.6649   8.3291   8.6706   8.7303
     8.7821   8.8044   8.8209   8.8461   8.8939   8.9465   9.1023   9.1204
     9.2067

          k = 0.1250 0.0000 0.0000 ( 35941 PWs)   bands (ev):

   -35.8105 -35.6156 -24.5568 -22.9852 -22.9827 -22.8000 -17.2821 -17.0629
   -16.9429 -16.8500 -16.7647 -16.6617 -15.4217 -15.2914 -15.2882 -14.9307
   -14.9142 -14.8012 -14.5437 -14.4020 -14.3966 -14.2367 -14.2083 -14.1778
   -14.0724 -14.0055 -13.6781  -9.8599  -9.3435  -9.3007  -8.1608  -8.1565
    -8.0403  -8.0333  -8.0330  -7.8716  -7.8691  -7.8011  -7.6639  -2.5850
    -2.5839  -2.4569  -2.0862  -2.0716  -2.0355  -2.0215  -2.0102  -1.9661
    -1.7138  -1.7047  -1.6775  -1.5700  -1.4924  -1.4321  -1.4297  -1.2394
    -1.1648  -1.0394  -0.8487  -0.8248  -0.7284  -0.7256  -0.6167  -0.6078
    -0.5538  -0.5508  -0.5398  -0.4865  -0.4741  -0.4626  -0.4137  -0.4093
    -0.4007  -0.3706  -0.2814  -0.1292  -0.1220  -0.1197  -0.1160  -0.1015
    -0.0173  -0.0161  -0.0007   0.0049   0.0700   0.1412   0.2010   0.2982
     0.5301   0.5567   0.5742   0.5908   0.6291   0.7498   0.7732   0.8261
     0.9684   0.9929   1.0034   1.1331   1.1909   1.2065   1.2403   1.2663
     1.3244   1.3647   1.5041   1.5099   1.6855   1.7076   1.7643   1.7751
     1.8719   1.9111   1.9883   2.0095   2.1484   2.3557   2.3577   4.4000
     5.0944   5.1852   5.1979   5.9829   6.2845   6.5527   6.7637   6.7845
     7.1847   7.6061   7.9065   8.0371   8.1533   8.2272   8.3708   8.4593
     8.4864

          k = 0.1250 0.1320 0.0000 ( 35914 PWs)   bands (ev):

   -35.8087 -35.6137 -24.5364 -22.9593 -22.9568 -22.7753 -17.2470 -17.0275
   -16.9459 -16.9131 -16.7656 -16.7263 -15.3397 -15.2359 -15.2197 -14.9255
   -14.9019 -14.7714 -14.5071 -14.4030 -14.3955 -14.2769 -14.2142 -14.1954
   -14.1180 -14.0481 -13.6982  -9.8379  -9.4973  -9.2089  -8.1797  -8.1768
    -8.0978  -8.0943  -8.0333  -7.8957  -7.8336  -7.8314  -7.6237  -2.6374
    -2.6347  -2.4957  -2.3607  -2.3451  -2.2515  -2.0718  -2.0652  -2.0597
    -2.0388  -2.0066  -1.8515  -1.8502  -1.6791  -1.6195  -1.4824  -1.4513
    -1.1537  -1.0336  -0.9738  -0.9508  -0.9081  -0.8800  -0.8742  -0.7715
    -0.7144  -0.7143  -0.5785  -0.4951  -0.4610  -0.4374  -0.4114  -0.3953
    -0.3506  -0.2505  -0.2492  -0.2098  -0.1892  -0.0757  -0.0601  -0.0448
    -0.0161  -0.0072   0.0634   0.0724   0.1069   0.1678   0.1895   0.3070
     0.4705   0.6484   0.7372   0.8042   0.8238   0.8267   0.8909   0.9770
     0.9895   1.0285   1.0455   1.0592   1.0872   1.0905   1.1565   1.3342
     1.3671   1.3817   1.4473   1.4498   1.5559   1.6105   1.6652   1.7445
     2.1279   2.1447   2.2779   2.4699   2.4787   2.6135   2.6183   4.6135
     5.3883   5.5236   5.5258   6.2040   6.5080   6.7219   7.0598   7.0724
     7.4185   7.6040   7.9894   8.0776   8.2121   8.3100   8.3938   8.5667
     8.6687

          k = 0.1250 0.2640 0.0000 ( 35831 PWs)   bands (ev):

   -35.8043 -35.6093 -24.4864 -22.8955 -22.8930 -22.7144 -17.1580 -17.0748
   -16.9390 -16.9256 -16.8842 -16.7471 -15.1618 -15.0986 -15.0888 -14.9290
   -14.8660 -14.7031 -14.4308 -14.3939 -14.3855 -14.3571 -14.2673 -14.2423
   -14.2368 -14.1041 -13.7467  -9.7917  -9.6369  -9.1960  -8.2485  -8.2462
    -8.1346  -8.1310  -8.0411  -7.9992  -7.8245  -7.8223  -7.6185  -3.0859
    -3.0508  -3.0473  -2.8594  -2.6458  -2.6405  -2.6046  -2.4940  -2.4918
    -2.4302  -2.0386  -2.0108  -2.0045  -1.9204  -1.7004  -1.6890  -1.6201
    -1.3522  -1.2427  -1.1988  -1.1970  -1.1646  -1.1226  -1.0773  -0.9170
    -0.9059  -0.9047  -0.8737  -0.7961  -0.7467  -0.7180  -0.6512  -0.5534
    -0.4219  -0.4028  -0.3839  -0.2628  -0.2131  -0.0362  -0.0303   0.0167
     0.1158   0.1533   0.2129   0.2714   0.3792   0.5275   0.5353   0.5713
     0.7554   0.7634   0.8048   0.8095   0.8813   0.9536   1.0196   1.0432
     1.0780   1.1059   1.1284   1.1547   1.1755   1.1876   1.2015   1.3157
     1.3811   1.4175   1.5081   1.6127   1.7192   1.7280   1.7566   1.8506
     2.3251   2.3389   2.5190   2.6726   2.8344   2.8488   3.2953   5.1057
     6.0919   6.3353   6.3360   6.3866   7.1633   7.2792   7.5923   7.8397
     7.8454   7.8954   8.3288   8.4677   8.5695   8.6359   8.6959   8.7907
     8.8983

          k = 0.1250 0.3960 0.0000 ( 35858 PWs)   bands (ev):

   -35.7999 -35.6049 -24.4352 -22.8295 -22.8270 -22.6517 -17.2092 -17.0592
   -17.0193 -16.9170 -16.8382 -16.7387 -15.1116 -15.1036 -14.9020 -14.8317
   -14.7382 -14.6578 -14.5439 -14.4099 -14.3845 -14.3608 -14.3070 -14.3044
   -14.2111 -14.1395 -13.8155  -9.7592  -9.6826  -9.2437  -8.2790  -8.2763
    -8.1462  -8.1426  -8.0919  -7.9998  -7.8695  -7.8675  -7.6585  -3.7955
    -3.5441  -3.5310  -3.3171  -3.2021  -3.1987  -3.0668  -2.5933  -2.5913
    -2.4618  -2.3020  -2.0051  -1.9972  -1.8723  -1.8411  -1.8149  -1.6122
    -1.5685  -1.5358  -1.4850  -1.4193  -1.3584  -1.3095  -1.2888  -1.1414
    -1.0908  -1.0782  -1.0728  -0.9928  -0.9710  -0.8819  -0.8372  -0.6070
    -0.5112  -0.4519  -0.4268  -0.2400  -0.2224  -0.0145  -0.0117   0.0181
     0.0580   0.2271   0.2396   0.4212   0.4856   0.5460   0.6867   0.6927
     0.7516   0.8419   0.8541   0.9557   0.9837   1.0043   1.0129   1.0448
     1.0801   1.1553   1.1801   1.3625   1.4397   1.4737   1.5013   1.5468
     1.5890   1.6583   1.6897   1.7700   1.9385   1.9857   2.1223   2.1233
     2.2725   2.2889   2.4727   2.5865   2.7745   2.8039   3.8415   5.5488
     6.0909   7.0375   7.0878   7.0882   7.5827   7.8871   8.0290   8.1351
     8.4486   8.4588   8.6290   8.6872   8.9362   8.9745   9.1469   9.2323
     9.3296

          k = 0.1250-0.5279 0.0000 ( 35776 PWs)   bands (ev):

   -35.7981 -35.6031 -24.4137 -22.8016 -22.7991 -22.6251 -17.2607 -17.0705
   -17.0159 -16.9133 -16.7948 -16.7350 -15.1440 -15.1370 -14.7633 -14.7213
   -14.6742 -14.6571 -14.6415 -14.4544 -14.4291 -14.3883 -14.2882 -14.2850
   -14.1663 -14.1365 -13.8679  -9.7282  -9.7040  -9.2736  -8.2737  -8.2707
    -8.1510  -8.1475  -8.1018  -7.9986  -7.9037  -7.9019  -7.6844  -4.0647
    -3.7298  -3.7182  -3.4940  -3.4320  -3.4275  -3.2427  -2.6143  -2.6123
    -2.4744  -2.3977  -2.0353  -2.0267  -1.8267  -1.8030  -1.7340  -1.7140
    -1.6964  -1.6707  -1.5844  -1.4425  -1.4399  -1.3822  -1.3552  -1.2958
    -1.1825  -1.1598  -1.1537  -1.0804  -1.0642  -0.9355  -0.8645  -0.6060
    -0.5122  -0.4601  -0.4369  -0.2128  -0.2031  -0.0009  -0.0007   0.0203
     0.0643   0.2373   0.2486   0.2660   0.4234   0.5344   0.7157   0.7344
     0.7436   0.7437   0.8005   1.0334   1.0462   1.0547   1.0834   1.0878
     1.1007   1.1496   1.2420   1.3932   1.5592   1.6199   1.7600   1.8024
     1.8099   1.8117   1.8364   1.9909   2.0461   2.0642   2.1325   2.1405
     2.2874   2.2886   2.3287   2.4296   2.6522   2.6915   4.0210   5.5611
     6.4421   6.9740   7.3082   7.3110   7.4775   7.9825   8.1046   8.4801
     8.7513   8.8931   8.9707   9.0801   9.0885   9.1036   9.3785   9.4304
     9.6089

          k = 0.2500 0.0000 0.0000 ( 35944 PWs)   bands (ev):

   -35.8079 -35.6129 -24.5240 -22.9409 -22.9384 -22.7577 -17.1970 -17.1068
   -16.9765 -16.9300 -16.8467 -16.6583 -15.3546 -15.2182 -15.1650 -15.0168
   -14.9487 -14.8264 -14.5537 -14.4169 -14.4135 -14.3769 -14.2524 -14.2032
   -14.1160 -14.0700 -13.7015  -9.8833  -9.2462  -9.2432  -8.1622  -8.1582
    -8.0623  -7.9485  -7.9466  -7.7909  -7.7883  -7.7176  -7.5884  -2.7783
    -2.7728  -2.6115  -2.4214  -2.4194  -2.3553  -2.1893  -1.9630  -1.9404
    -1.8741  -1.6973  -1.6498  -1.5959  -1.5471  -1.4287  -1.4264  -1.3340
    -1.3145  -1.1895  -1.1059  -1.0652  -0.9814  -0.9801  -0.8719  -0.8666
    -0.7455  -0.7422  -0.6236  -0.6021  -0.5572  -0.5540  -0.4725  -0.4672
    -0.4615  -0.4546  -0.4021  -0.2455  -0.1842  -0.1347  -0.1324  -0.0276
    -0.0274   0.1105   0.1124   0.2100   0.2290   0.2982   0.3332   0.4156
     0.4478   0.4556   0.5003   0.6578   0.6907   0.7211   0.7573   0.8494
     1.0037   1.0618   1.0901   1.0924   1.1149   1.1815   1.2008   1.2545
     1.3358   1.3501   1.4821   1.5725   1.6587   1.6639   1.7804   1.8207
     1.8731   2.0144   2.0544   2.2225   2.3844   2.4645   2.4668   4.8550
     5.5930   5.6425   5.6435   6.4383   6.8208   7.0286   7.3412   7.3565
     7.4830   7.8408   8.2624   8.3120   8.4664   8.5056   8.5581   8.7294
     8.7689

          k = 0.2500 0.1320 0.0000 ( 35895 PWs)   bands (ev):

   -35.8061 -35.6111 -24.5048 -22.9170 -22.9145 -22.7348 -17.1650 -17.1003
   -16.9460 -16.9216 -16.9128 -16.7242 -15.2914 -15.1664 -15.1291 -14.9692
   -14.8973 -14.7917 -14.5049 -14.4023 -14.4014 -14.3768 -14.2533 -14.2171
   -14.1489 -14.0977 -13.7153  -9.8596  -9.5269  -9.1380  -8.2304  -8.2278
    -8.0881  -8.0823  -8.0822  -7.8985  -7.7573  -7.7550  -7.5552  -2.8294
    -2.8179  -2.6468  -2.4130  -2.4117  -2.3488  -2.3095  -2.3017  -2.1866
    -2.1815  -2.0866  -1.9833  -1.8424  -1.8407  -1.6823  -1.5783  -1.5500
    -1.2935  -1.2298  -1.2265  -1.1896  -1.1098  -1.0303  -0.9891  -0.9076
    -0.8709  -0.8366  -0.8165  -0.7285  -0.5784  -0.5578  -0.4762  -0.4297
    -0.3802  -0.3310  -0.2500  -0.2379  -0.2163  -0.1034  -0.0911  -0.0157
    -0.0068   0.1014   0.1132   0.1178   0.2324   0.3769   0.4569   0.5295
     0.5580   0.6881   0.6965   0.7134   0.8278   0.8700   0.8744   0.9806
     0.9835   1.0474   1.0657   1.1379   1.1822   1.2054   1.2264   1.2669
     1.2692   1.3253   1.5130   1.5175   1.5811   1.5888   1.7960   1.8245
     2.4362   2.4726   2.5225   2.6388   2.6570   2.6821   2.8562   5.0054
     5.8282   5.9030   5.9037   6.3992   6.9683   7.1597   7.4724   7.5989
     7.6071   7.8776   8.2264   8.3832   8.4150   8.5226   8.6403   8.8272
     8.9308

          k = 0.2500 0.2640 0.0000 ( 35885 PWs)   bands (ev):

   -35.8018 -35.6067 -24.4578 -22.8583 -22.8558 -22.6785 -17.1013 -17.0757
   -17.0492 -16.9182 -16.8658 -16.8548 -15.1202 -15.0745 -15.0620 -14.8322
   -14.7692 -14.7060 -14.3953 -14.3790 -14.3777 -14.3731 -14.3064 -14.2641
   -14.2100 -14.1377 -13.7418  -9.8394  -9.7855  -9.2444  -8.4505  -8.4482
    -8.2395  -8.1472  -8.1438  -8.0125  -7.8771  -7.8747  -7.6783  -3.2115
    -3.1763  -3.0370  -2.9512  -2.6682  -2.6540  -2.6301  -2.5252  -2.5252
    -2.4787  -2.3834  -2.3805  -2.3245  -2.1161  -1.9751  -1.6695  -1.6349
    -1.6333  -1.6155  -1.5331  -1.3827  -1.2641  -1.2351  -1.1256  -1.1178
    -0.9490  -0.9315  -0.9054  -0.8689  -0.8097  -0.8079  -0.7393  -0.6350
    -0.5715  -0.4867  -0.3577  -0.2698  -0.2136  -0.1465   0.0475   0.1083
     0.1586   0.3055   0.3616   0.5688   0.5704   0.6146   0.7130   0.7465
     0.7497   0.8442   0.9843   1.0275   1.0389   1.0970   1.1370   1.1455
     1.1644   1.1839   1.2397   1.2568   1.3040   1.3245   1.3635   1.3870
     1.4603   1.4681   1.5597   1.6428   1.6447   1.7105   1.8592   1.9047
     2.7730   2.7739   3.0551   3.0751   3.1940   3.3022   3.3670   5.4110
     5.8658   6.4457   6.4462   6.5622   7.3535   7.5073   7.6021   7.9947
     8.1318   8.1337   8.2784   8.5059   8.7915   8.8165   8.8449   8.9804
     9.0510

          k = 0.2500 0.3960 0.0000 ( 35860 PWs)   bands (ev):

   -35.7974 -35.6023 -24.4098 -22.7979 -22.7954 -22.6207 -17.1971 -17.0651
   -17.0074 -16.9905 -16.8883 -16.7685 -15.0300 -15.0258 -14.8895 -14.6601
   -14.6298 -14.6172 -14.4720 -14.4365 -14.3824 -14.3267 -14.2938 -14.2868
   -14.2248 -14.1341 -13.7737  -9.9932  -9.7352  -9.4557  -8.5705  -8.5679
    -8.3701  -8.1975  -8.1945  -8.0910  -8.0884  -8.0310  -7.8965  -3.7717
    -3.6997  -3.6756  -3.4344  -3.1828  -3.1779  -3.1409  -2.6634  -2.6633
    -2.5216  -2.3498  -2.3428  -2.2945  -2.1627  -2.0592  -1.9986  -1.9783
    -1.8318  -1.7002  -1.6690  -1.5912  -1.5715  -1.3808  -1.3595  -1.2081
    -1.0841  -1.0377  -1.0172  -1.0076  -1.0016  -0.8511  -0.8414  -0.7756
    -0.6724  -0.6417  -0.4160  -0.2566  -0.0923  -0.0591   0.1188   0.1421
     0.2350   0.4432   0.5773   0.7520   0.7653   0.7657   0.8761   0.8812
     1.0384   1.0779   1.0962   1.1037   1.1120   1.1789   1.2770   1.2823
     1.3554   1.3642   1.4849   1.4896   1.5226   1.5496   1.5733   1.6026
     1.6211   1.6854   1.7361   1.7847   1.9955   2.0438   2.0448   2.0626
     2.6047   2.6061   3.2832   3.3175   3.4341   3.5831   3.8274   5.3577
     6.0134   6.6524   6.6548   6.8923   7.4207   7.5153   7.6228   8.2621
     8.5798   8.5939   8.7635   8.8049   9.0156   9.1827   9.4510   9.4901
     9.5392

          k = 0.2500-0.5279 0.0000 ( 35892 PWs)   bands (ev):

   -35.7956 -35.6005 -24.3896 -22.7724 -22.7698 -22.5962 -17.2472 -17.0596
   -17.0571 -16.9510 -16.8830 -16.7290 -15.0268 -15.0222 -14.6755 -14.6494
   -14.5777 -14.5611 -14.5576 -14.4570 -14.4207 -14.3714 -14.2813 -14.2794
   -14.1470 -14.1358 -13.7982 -10.0227  -9.7099  -9.5731  -8.5707  -8.5677
    -8.3891  -8.2855  -8.2834  -8.1574  -8.1539  -8.0464  -8.0074  -4.0410
    -3.9009  -3.8761  -3.6265  -3.4096  -3.4055  -3.3351  -2.6710  -2.6707
    -2.5243  -2.3145  -2.3039  -2.2824  -2.2265  -2.1433  -2.1351  -2.0072
    -1.9362  -1.7592  -1.7571  -1.6438  -1.6399  -1.4629  -1.4508  -1.2302
    -1.1769  -1.1180  -1.0883  -1.0297  -1.0164  -0.9195  -0.8265  -0.7861
    -0.7108  -0.6677  -0.4151  -0.2542  -0.0619  -0.0045   0.1538   0.1909
     0.3252   0.4782   0.6449   0.6663   0.8223   0.8672   0.8702   0.8910
     0.9849   1.0151   1.1247   1.2118   1.2706   1.2748   1.2902   1.3088
     1.3825   1.4158   1.4589   1.5675   1.6901   1.7290   1.7474   1.7873
     1.8114   1.8322   1.8537   1.9588   2.0397   2.1803   2.2200   2.2206
     2.3826   2.3846   3.3026   3.3445   3.4706   3.6131   3.9982   5.1618
     6.5959   6.6182   6.6396   6.6422   7.2911   7.3737   7.5037   8.2483
     8.8936   9.0308   9.2605   9.2912   9.3050   9.3677   9.5406   9.6518
     9.7412

          k = 0.3750 0.0000 0.0000 ( 35878 PWs)   bands (ev):

   -35.8053 -35.6102 -24.4907 -22.8954 -22.8929 -22.7145 -17.2468 -17.1017
   -17.0730 -16.8767 -16.8433 -16.6550 -15.4307 -15.2562 -15.2495 -14.8764
   -14.8380 -14.8328 -14.5242 -14.5107 -14.4252 -14.4207 -14.3476 -14.2447
   -14.1487 -14.1164 -13.7321  -9.8794  -9.1841  -9.1811  -8.1447  -8.1407
    -8.0551  -7.8836  -7.8819  -7.7065  -7.7039  -7.6688  -7.5097  -3.1067
    -3.0975  -2.9461  -2.5981  -2.5445  -2.5432  -2.4023  -1.8829  -1.8425
    -1.8041  -1.7398  -1.7271  -1.6139  -1.5522  -1.4986  -1.4303  -1.4280
    -1.4000  -1.3411  -1.2379  -1.2324  -1.2204  -1.1098  -1.0893  -1.0851
    -0.9453  -0.9423  -0.8286  -0.7968  -0.6788  -0.5920  -0.5722  -0.5512
    -0.4633  -0.4561  -0.4382  -0.3277  -0.2080  -0.1476  -0.1453  -0.0392
    -0.0351   0.1887   0.1915   0.1942   0.2100   0.2169   0.2182   0.3139
     0.3834   0.5312   0.6592   0.7421   0.7539   0.7957   0.8339   0.9711
     0.9714   0.9968   1.0777   1.0954   1.1328   1.1602   1.2851   1.3435
     1.4078   1.5322   1.5385   1.5464   1.5742   1.6802   1.8400   1.9113
     1.9663   2.0450   2.0886   2.3344   2.4052   2.5822   2.5876   5.3938
     6.0678   6.2915   6.2922   6.7333   7.2038   7.5431   7.7819   7.7872
     7.7994   8.2485   8.3411   8.4463   8.5691   8.6069   9.1093   9.1926
     9.2814

          k = 0.3750 0.1320 0.0000 ( 35915 PWs)   bands (ev):

   -35.8035 -35.6085 -24.4727 -22.8737 -22.8712 -22.6935 -17.2382 -17.0726
   -17.0643 -16.9078 -16.8475 -16.7192 -15.3582 -15.2086 -15.2026 -14.8369
   -14.7890 -14.7764 -14.4754 -14.4744 -14.3995 -14.3976 -14.3299 -14.2376
   -14.1840 -14.1250 -13.7422  -9.8584  -9.4638  -9.1873  -8.2019  -8.1990
    -8.0809  -8.0469  -8.0444  -7.8486  -7.7962  -7.7937  -7.6030  -3.1694
    -3.1537  -2.9908  -2.6196  -2.5431  -2.5421  -2.4108  -2.2618  -2.2269
    -2.1062  -2.0751  -1.9199  -1.8311  -1.8291  -1.7311  -1.6774  -1.6354
    -1.5267  -1.5172  -1.4488  -1.3623  -1.2226  -1.1081  -1.0364  -1.0361
    -1.0125  -0.9234  -0.9057  -0.8722  -0.7138  -0.6338  -0.6055  -0.4820
    -0.4736  -0.2832  -0.2577  -0.2258  -0.2123  -0.1194  -0.0671  -0.0290
    -0.0167   0.0365   0.2230   0.2275   0.2750   0.4191   0.4654   0.4797
     0.5771   0.6296   0.7049   0.7681   0.8522   0.9286   0.9741   1.0044
     1.0169   1.0212   1.1165   1.1440   1.1493   1.1605   1.3176   1.3770
     1.4401   1.4910   1.5349   1.5521   1.5872   1.7852   1.8593   1.9890
     2.4948   2.5385   2.5645   2.7278   2.7674   2.9022   3.0168   5.5103
     6.1226   6.4408   6.4412   6.4664   7.2976   7.5904   7.7826   7.8523
     7.8536   8.2424   8.3095   8.4317   8.5459   8.7312   9.0487   9.2015
     9.2856

          k = 0.3750 0.2640 0.0000 ( 35933 PWs)   bands (ev):

   -35.7992 -35.6041 -24.4288 -22.8204 -22.8179 -22.6420 -17.2179 -17.0521
   -17.0436 -16.9974 -16.8626 -16.7728 -15.1584 -15.0867 -15.0827 -14.7410
   -14.6867 -14.6281 -14.4032 -14.3881 -14.3600 -14.3360 -14.3280 -14.2232
   -14.2224 -14.1568 -13.7480  -9.8993  -9.7822  -9.4280  -8.5032  -8.5008
    -8.2967  -8.1818  -8.1790  -8.0595  -8.0566  -8.0265  -7.8788  -3.4878
    -3.4451  -3.2281  -3.0021  -2.8417  -2.7150  -2.7046  -2.5944  -2.5944
    -2.5815  -2.4651  -2.4630  -2.3956  -2.3839  -2.0096  -1.9576  -1.9450
    -1.8125  -1.5572  -1.4993  -1.4282  -1.3901  -1.2092  -1.1391  -1.1275
    -1.0910  -1.0558  -0.9502  -0.8732  -0.8639  -0.8600  -0.7464  -0.7207
    -0.5896  -0.5838  -0.4589  -0.1548  -0.1300  -0.0772   0.1459   0.1810
     0.2486   0.4215   0.4716   0.6046   0.6141   0.7756   0.7932   0.7937
     0.9182   0.9831   1.0094   1.0349   1.0791   1.1610   1.2180   1.2289
     1.2521   1.2661   1.3671   1.3837   1.4171   1.4676   1.4914   1.5396
     1.5408   1.5698   1.5999   1.6024   1.7151   1.8501   1.8646   2.0618
     2.7731   2.7749   3.3099   3.5091   3.5216   3.6248   3.7769   5.5051
     5.8452   6.4856   6.4869   6.6035   7.4096   7.4375   7.7369   8.1852
     8.1972   8.2622   8.4622   8.6578   8.8771   9.0876   9.2022   9.2881
     9.3442

          k = 0.3750 0.3960 0.0000 ( 35913 PWs)   bands (ev):

   -35.7948 -35.5998 -24.3840 -22.7658 -22.7633 -22.5892 -17.2006 -17.1788
   -17.0243 -16.9909 -16.9178 -16.6930 -14.9521 -14.9501 -14.8846 -14.6482
   -14.5941 -14.4708 -14.4496 -14.3920 -14.3836 -14.2938 -14.2893 -14.2400
   -14.1536 -14.1437 -13.7337 -10.2075  -9.7495  -9.7051  -8.7690  -8.7662
    -8.5691  -8.4340  -8.4321  -8.1896  -8.1833  -8.1807  -8.0555  -3.9681
    -3.9170  -3.7475  -3.6413  -3.3081  -3.1589  -3.1572  -2.8444  -2.8437
    -2.7023  -2.4935  -2.4915  -2.4467  -2.4063  -2.3187  -2.2417  -2.1207
    -2.0164  -1.8402  -1.6405  -1.4344  -1.4219  -1.4199  -1.4096  -1.1767
    -1.1556  -1.1050  -1.0810  -1.0701  -1.0170  -0.9300  -0.8319  -0.8041
    -0.6611  -0.6079  -0.6050  -0.0587  -0.0440   0.0316   0.2466   0.3861
     0.4885   0.6326   0.7949   0.9422   0.9441   0.9777   1.0742   1.1016
     1.1347   1.1792   1.2681   1.2688   1.3132   1.3567   1.4198   1.4848
     1.5118   1.5397   1.5601   1.5622   1.5816   1.7070   1.7367   1.7749
     1.7798   1.7814   1.8677   1.8740   1.9661   1.9669   2.0223   2.2946
     2.5928   2.5965   3.7999   4.0290   4.0389   4.1067   4.2514   4.9013
     6.1823   6.1830   6.2555   6.7450   7.0477   7.1565   7.6293   8.1225
     8.7649   8.7738   9.0039   9.0698   9.2625   9.3204   9.3254   9.3707
     9.4285

          k = 0.3750-0.5279 0.0000 ( 35952 PWs)   bands (ev):

   -35.7930 -35.5980 -24.3652 -22.7427 -22.7402 -22.5670 -17.2339 -17.1880
   -17.0440 -17.0135 -16.8824 -16.6577 -14.8905 -14.8899 -14.6734 -14.6147
   -14.5648 -14.5262 -14.4825 -14.3988 -14.3747 -14.2781 -14.2734 -14.2713
   -14.1273 -14.0906 -13.7256 -10.3179  -9.8495  -9.7115  -8.8511  -8.8480
    -8.6645  -8.5791  -8.5774  -8.3172  -8.2105  -8.2063  -8.0696  -4.1758
    -4.1232  -4.0143  -3.8417  -3.5122  -3.3842  -3.3824  -2.8630  -2.8622
    -2.7152  -2.4884  -2.4858  -2.4445  -2.4263  -2.4076  -2.3483  -2.1883
    -2.0704  -1.9458  -1.7115  -1.5367  -1.5271  -1.4556  -1.4451  -1.1759
    -1.1725  -1.1658  -1.1465  -1.1163  -1.1001  -0.9389  -0.9055  -0.8181
    -0.6584  -0.5947  -0.5936  -0.0337  -0.0207   0.0724   0.2647   0.4747
     0.6554   0.7017   0.9262   1.0506   1.0524   1.0571   1.0942   1.1453
     1.1592   1.1848   1.3339   1.3946   1.4195   1.4603   1.5610   1.5666
     1.5719   1.5887   1.7127   1.7518   1.7976   1.8040   1.8267   1.8346
     1.8738   1.9231   1.9944   2.0460   2.0887   2.1545   2.1569   2.3482
     2.3538   2.4310   3.9316   4.1763   4.1846   4.2538   4.3920   4.6700
     6.0057   6.0059   6.5845   6.6524   6.9066   7.0624   7.4737   7.9725
     8.9090   8.9418   8.9839   9.1363   9.2409   9.3320   9.5107   9.5991
     9.6088

          k =-0.5000 0.0000 0.0000 ( 35878 PWs)   bands (ev):

   -35.8042 -35.6091 -24.4767 -22.8763 -22.8737 -22.6962 -17.2991 -17.1259
   -17.0596 -16.8420 -16.8330 -16.6536 -15.4665 -15.3121 -15.3056 -14.9049
   -14.8043 -14.6594 -14.5426 -14.4977 -14.4288 -14.4281 -14.4066 -14.3045
   -14.1558 -14.1345 -13.7478  -9.8722  -9.1613  -9.1592  -8.1344  -8.1304
    -8.0461  -7.8605  -7.8588  -7.6704  -7.6677  -7.6553  -7.4761  -3.2487
    -3.2398  -3.0887  -2.7528  -2.5697  -2.5681  -2.3998  -1.8735  -1.8360
    -1.8241  -1.7835  -1.6463  -1.5991  -1.5659  -1.4670  -1.4376  -1.4340
    -1.4319  -1.3937  -1.3917  -1.3623  -1.3021  -1.2205  -1.1260  -1.0278
    -1.0258  -1.0258  -0.9211  -0.9107  -0.7466  -0.6488  -0.5775  -0.5728
    -0.5018  -0.4535  -0.4322  -0.3407  -0.1987  -0.1529  -0.1506  -0.0749
    -0.0684   0.1155   0.1886   0.1910   0.1966   0.2138   0.2180   0.2825
     0.3498   0.5915   0.7231   0.7616   0.7688   0.7884   0.8030   0.9211
     0.9211   1.0099   1.1466   1.1630   1.1729   1.2779   1.3723   1.4350
     1.4394   1.4425   1.4453   1.5565   1.6455   1.7250   1.9274   1.9679
     1.9976   2.0587   2.0928   2.3387   2.3772   2.6111   2.6156   5.8996
     5.9111   6.8478   7.0646   7.0652   7.1157   7.1169   7.1958   8.0384
     8.3192   8.3498   8.4036   8.5274   8.6626   8.8036   9.2313   9.2483
     9.2840

          k =-0.5000 0.1320 0.0000 ( 35958 PWs)   bands (ev):

   -35.8024 -35.6074 -24.4593 -22.8555 -22.8530 -22.6761 -17.2899 -17.1165
   -17.0321 -16.9056 -16.8055 -16.7171 -15.3895 -15.2553 -15.2493 -14.8629
   -14.7664 -14.6151 -14.4837 -14.4632 -14.4026 -14.3945 -14.3852 -14.2711
   -14.1942 -14.1337 -13.7581  -9.8508  -9.3747  -9.2793  -8.1731  -8.1697
    -8.0657  -7.9899  -7.9882  -7.8734  -7.8705  -7.7761  -7.6901  -3.3178
    -3.3027  -3.1412  -2.7802  -2.5745  -2.5732  -2.4233  -2.2301  -2.1913
    -2.0915  -2.0277  -1.8783  -1.8258  -1.8237  -1.7377  -1.7341  -1.6664
    -1.6412  -1.6314  -1.5531  -1.3933  -1.2504  -1.2002  -1.0834  -1.0817
    -1.0599  -0.9226  -0.9165  -0.8440  -0.8271  -0.6707  -0.6494  -0.5055
    -0.5030  -0.2910  -0.2651  -0.1946  -0.1828  -0.1377  -0.0561  -0.0321
    -0.0235   0.0053   0.2845   0.3023   0.3027   0.3542   0.4000   0.4261
     0.5682   0.6008   0.6131   0.8196   0.8937   0.9219   0.9754   1.0034
     1.0215   1.0644   1.0692   1.1281   1.2036   1.2921   1.3859   1.4078
     1.4727   1.4988   1.5119   1.6507   1.6893   1.7640   1.9840   2.0739
     2.5069   2.5408   2.5643   2.7461   2.7897   2.9564   3.0440   5.9468
     5.9814   6.4127   6.9122   6.9133   7.3808   7.4192   7.4205   7.9474
     7.9844   8.2412   8.4998   8.5536   8.6495   9.0563   9.3127   9.3338
     9.4018

          k =-0.5000 0.2640 0.0000 ( 35936 PWs)   bands (ev):

   -35.7981 -35.6030 -24.4167 -22.8045 -22.8020 -22.6266 -17.2679 -17.0944
   -17.0488 -16.9610 -16.8593 -16.7350 -15.1767 -15.1046 -15.1003 -14.7624
   -14.6777 -14.5017 -14.3834 -14.3809 -14.3542 -14.3446 -14.3365 -14.2665
   -14.1857 -14.1500 -13.7575  -9.8660  -9.7802  -9.5609  -8.4421  -8.4391
    -8.2910  -8.2894  -8.2495  -8.1230  -8.1193  -8.0572  -8.0069  -3.6261
    -3.5837  -3.3722  -2.9942  -2.9797  -2.7406  -2.7317  -2.6113  -2.6041
    -2.5929  -2.4740  -2.4708  -2.4159  -2.3999  -2.1252  -2.0607  -1.9635
    -1.9121  -1.6378  -1.4633  -1.3465  -1.3436  -1.1828  -1.1809  -1.1624
    -1.1239  -1.0750  -0.9902  -0.8887  -0.8864  -0.8640  -0.7820  -0.7217
    -0.6074  -0.6025  -0.4739  -0.1312  -0.1242   0.0159   0.2028   0.2591
     0.2662   0.4627   0.5087   0.6358   0.6399   0.7361   0.8731   0.8835
     0.9230   0.9671   0.9726   1.0195   1.0228   1.2385   1.2549   1.2578
     1.2639   1.3425   1.3786   1.4488   1.4935   1.5001   1.5407   1.5573
     1.5835   1.5991   1.6117   1.6788   1.7066   1.8210   1.9705   2.1721
     2.7660   2.7683   3.3155   3.6487   3.6615   3.7590   3.8992   5.3447
     6.1874   6.4294   6.4823   6.4856   7.3141   7.3544   7.8013   8.1850
     8.2296   8.3524   8.5688   8.8987   9.1405   9.1997   9.3710   9.3885
     9.4186

          k =-0.5000 0.3960 0.0000 ( 35932 PWs)   bands (ev):

   -35.7938 -35.5987 -24.3733 -22.7523 -22.7498 -22.5760 -17.2464 -17.1778
   -17.0726 -16.9881 -16.8855 -16.6595 -14.9234 -14.9206 -14.8845 -14.6744
   -14.6039 -14.4395 -14.3776 -14.3734 -14.3526 -14.2914 -14.2894 -14.2025
   -14.1916 -14.0932 -13.7191 -10.2779  -9.8397  -9.7374  -8.8172  -8.8142
    -8.6251  -8.5791  -8.5774  -8.3241  -8.2009  -8.1969  -8.0691  -4.0983
    -4.0431  -3.8034  -3.6988  -3.4140  -3.1507  -3.1487  -2.9143  -2.9141
    -2.7696  -2.5488  -2.5096  -2.5077  -2.4155  -2.4144  -2.3373  -2.1243
    -2.0759  -1.9163  -1.6309  -1.4483  -1.4381  -1.3217  -1.3027  -1.2643
    -1.2450  -1.1020  -1.0961  -1.0493  -1.0184  -0.9968  -0.8376  -0.7821
    -0.7476  -0.5717  -0.5700  -0.0465   0.0344   0.0844   0.2796   0.4920
     0.6408   0.7222   0.8708   1.0312   1.0644   1.0812   1.0821   1.1172
     1.1659   1.2144   1.3380   1.3418   1.3480   1.4211   1.4714   1.5235
     1.5370   1.5709   1.5933   1.6032   1.6717   1.7443   1.7763   1.8433
     1.8487   1.8651   1.9269   1.9354   1.9770   1.9813   2.0181   2.4231
     2.5805   2.5854   3.7948   4.2942   4.3014   4.3529   4.4856   4.7053
     5.9872   5.9882   6.4184   6.6674   6.8754   7.0016   7.6911   7.9824
     8.7111   8.7149   9.0530   9.1780   9.2447   9.3452   9.4035   9.4697
     9.4906

          k =-0.5000-0.5279 0.0000 ( 36012 PWs)   bands (ev):

   -35.7920 -35.5969 -24.3550 -22.7303 -22.7278 -22.5547 -17.2376 -17.2284
   -17.0637 -17.0386 -16.8521 -16.6263 -14.8269 -14.8246 -14.6784 -14.6505
   -14.5885 -14.4859 -14.4485 -14.3961 -14.3222 -14.2698 -14.2662 -14.1941
   -14.1609 -14.0528 -13.6946 -10.4416  -9.9549  -9.7146  -8.9633  -8.9601
    -8.7759  -8.6952  -8.6935  -8.4305  -8.2290  -8.2242  -8.0854  -4.3069
    -4.2502  -4.0346  -3.9340  -3.6166  -3.3750  -3.3729  -2.9468  -2.9465
    -2.7973  -2.5633  -2.5080  -2.4996  -2.4978  -2.4314  -2.4147  -2.1947
    -2.1095  -2.0127  -1.6978  -1.5630  -1.5551  -1.3864  -1.3675  -1.2393
    -1.2142  -1.1959  -1.1942  -1.1193  -1.0748  -0.9632  -0.8989  -0.8437
    -0.7377  -0.5434  -0.5412  -0.0107   0.0702   0.1088   0.2997   0.6020
     0.7794   0.8162   1.0348   1.1324   1.1395   1.1448   1.1641   1.2066
     1.2323   1.2576   1.4001   1.4621   1.4638   1.5607   1.6240   1.6312
     1.6837   1.6881   1.7069   1.7800   1.8047   1.8579   1.8985   1.9333
     1.9714   1.9761   2.0496   2.1280   2.1308   2.1387   2.2046   2.3237
     2.3313   2.5646   3.9169   4.4626   4.4953   4.5047   4.5571   4.6760
     5.7603   5.7612   6.6244   6.6252   6.7254   6.8890   7.6425   7.8303
     8.7946   8.8205   8.8461   8.8668   9.1929   9.3034   9.3276   9.4198
     9.6000

     the Fermi energy is     2.3556 ev

!    total energy              =   -1842.80775271 Ry
     Harris-Foulkes estimate   =   -1842.80775272 Ry
     estimated scf accuracy    <          2.3E-09 Ry

     The total energy is the sum of the following terms:

     one-electron contribution =  -26217.53547804 Ry
     hartree contribution      =   13259.51048047 Ry
     xc contribution           =    -621.54844816 Ry
     ewald contribution        =   11736.77306133 Ry
     smearing contrib. (-TS)   =      -0.00736830 Ry

     convergence has been achieved in  35 iterations

     negative rho (up, down):  1.502E-03 0.000E+00

     Forces acting on atoms (cartesian axes, Ry/au):

     atom    1 type  4   force =     0.00000000    0.00000000   -0.00015381
     atom    2 type  3   force =     0.00000000    0.00000000    0.00035100
     atom    3 type  4   force =     0.00000000    0.00000000   -0.00080408
     atom    4 type  1   force =     0.00000000    0.00000000   -0.00032718
     atom    5 type  3   force =     0.00000000    0.00000000    0.00063974
     atom    6 type  4   force =     0.00000000    0.00000000    0.00018571
     atom    7 type  4   force =     0.00000000    0.00000000    0.00054416
     atom    8 type  2   force =     0.00000000    0.00000000   -0.00119735
     atom    9 type  4   force =     0.00000000    0.00000000    0.00063617
     atom   10 type  4   force =     0.00000000    0.00000000    0.00094500
     atom   11 type  3   force =     0.00000000    0.00000000    0.00047364
     atom   12 type  1   force =     0.00000000    0.00000000   -0.00320665
     atom   13 type  4   force =     0.00000000    0.00000000    0.00731504
     atom   14 type  4   force =     0.00000000    0.00000000    0.02057471
     atom   15 type  3   force =     0.00000000    0.00000000   -0.02369384
     atom   16 type  4   force =     0.00000000    0.00000000    0.03908178
     atom   17 type  1   force =     0.00000000    0.00000000   -0.03377261
     atom   18 type  3   force =     0.00000000    0.00000000   -0.01129695
     atom   19 type  4   force =     0.00000000    0.00000000    0.01314012
     atom   20 type  4   force =     0.00000000    0.00000000    0.00453065
     atom   21 type  2   force =     0.00000000    0.00000000   -0.01801722
     atom   22 type  4   force =     0.00000000    0.00000000    0.00076032
     atom   23 type  4   force =     0.00000000    0.00000000    0.00241911
     atom   24 type  3   force =     0.00000000    0.00000000   -0.00000433
     atom   25 type  1   force =     0.00000000    0.00000000    0.00016783
     atom   26 type  4   force =     0.00000000    0.00000000    0.00112451
     atom   27 type  3   force =     0.00000000    0.00000000   -0.00073588
     atom   28 type  4   force =     0.00000000    0.00000000    0.00032042

     Total force =     0.065560     Total SCF correction =     0.000078


     Computing stress (Cartesian axis) and pressure


     negative rho (up, down):  1.502E-03 0.000E+00
          total   stress  (Ry/bohr**3)                   (kbar)     P=       -8.41
  -0.00009875   0.00000000   0.00000000          -14.53        0.00        0.00
   0.00000000  -0.00004063   0.00000000            0.00       -5.98        0.00
   0.00000000   0.00000000  -0.00003210            0.00        0.00       -4.72


     number of scf cycles    =   2
     number of bfgs steps    =   1

     energy   old            =   -1842.8980068294 Ry
     energy   new            =   -1842.8077527089 Ry

     CASE: energy  _new > energy  _old


 %%%%%%%%%%%%%%%%%%%%%%%%%%%%%%%%%%%%%%%%%%%%%%%%%%%%%%%%%%%%%%%%%%%%%%%%%%%%%%
     Error in routine bfgs (1):
     dE0s is positive which should never happen
 %%%%%%%%%%%%%%%%%%%%%%%%%%%%%%%%%%%%%%%%%%%%%%%%%%%%%%%%%%%%%%%%%%%%%%%%%%%%%%

     stopping ...
