
     Program PWSCF v.6.5 starts on 28Jun2021 at 23:33:28 

     This program is part of the open-source Quantum ESPRESSO suite
     for quantum simulation of materials; please cite
         "P. Giannozzi et al., J. Phys.:Condens. Matter 21 395502 (2009);
         "P. Giannozzi et al., J. Phys.:Condens. Matter 29 465901 (2017);
          URL http://www.quantum-espresso.org", 
     in publications or presentations arising from this work. More details at
     http://www.quantum-espresso.org/quote

     Parallel version (MPI), running on    20 processors

     MPI processes distributed on     5 nodes
     R & G space division:  proc/nbgrp/npool/nimage =      20
     Reading input from CBCO_Y_cleave_0.25_sep.pwi
Warning: card &CELL ignored
Warning: card     CELL_DYNAMICS = 'BFGS' ignored
Warning: card     PRESS_CONV_THR = 0.5 ignored
Warning: card / ignored

     Current dimensions of program PWSCF are:
     Max number of different atomic species (ntypx) = 10
     Max number of k-points (npk) =  40000
     Max angular momentum in pseudopotentials (lmaxx) =  3

     Subspace diagonalization in iterative solution of the eigenvalue problem:
     one sub-group per band group will be used
     scalapack distributed-memory algorithm (size of sub-group:  4*  4 procs)

     Message from routine setup:
     using ibrav=0 with symmetry is DISCOURAGED, use correct ibrav instead
 
     Parallelization info
     --------------------
     sticks:   dense  smooth     PW     G-vecs:    dense   smooth      PW
     Min         149      50     14                70565    13584    2122
     Max         150      51     15                70602    13609    2165
     Sum        2991    1007    289              1411709   271883   42721
 


     bravais-lattice index     =            0
     lattice parameter (alat)  =       7.4270  a.u.
     unit-cell volume          =    4326.9901 (a.u.)^3
     number of atoms/cell      =           28
     number of atomic types    =            4
     number of electrons       =       227.00
     number of Kohn-Sham states=          137
     kinetic-energy cutoff     =      60.0000  Ry
     charge density cutoff     =     720.0000  Ry
     convergence threshold     =      1.0E-10
     mixing beta               =       0.7000
     number of iterations used =           10  local-TF  mixing
     Exchange-correlation= SLA PW PBE PBE
                           (   1   4   3   4   0   0   0)
     nstep                     =          300


     celldm(1)=   7.427040  celldm(2)=   0.000000  celldm(3)=   0.000000
     celldm(4)=   0.000000  celldm(5)=   0.000000  celldm(6)=   0.000000

     crystal axes: (cart. coord. in units of alat)
               a(1) = (   1.000000   0.000000   0.000000 )  
               a(2) = (   0.000000   0.947081   0.000000 )  
               a(3) = (   0.000000   0.000000  11.151966 )  

     reciprocal axes: (cart. coord. in units 2 pi/alat)
               b(1) = (  1.000000  0.000000  0.000000 )  
               b(2) = (  0.000000  1.055876  0.000000 )  
               b(3) = (  0.000000  0.000000  0.089670 )  


     PseudoPot. # 1 for Ba read from file:
     ./pseudo/Ba.pbe-nsp-van.UPF
     MD5 check sum: 2b9c31dd849566dd297d80989662b7a0
     Pseudo is Ultrasoft + core correction, Zval = 10.0
     Generated by new atomic code, or converted to UPF format
     Using radial grid of  907 points,  6 beta functions with: 
                l(1) =   0
                l(2) =   0
                l(3) =   1
                l(4) =   1
                l(5) =   2
                l(6) =   2
     Q(r) pseudized with  6 coefficients,  rinner =    1.200   1.200   1.200
                                                       1.200   1.200

     PseudoPot. # 2 for Ca read from file:
     ./pseudo/Ca.pbe-nsp-van.UPF
     MD5 check sum: 6471098428ff4fa451746d08035ff179
     Pseudo is Ultrasoft + core correction, Zval = 10.0
     Generated by new atomic code, or converted to UPF format
     Using radial grid of  845 points,  6 beta functions with: 
                l(1) =   0
                l(2) =   0
                l(3) =   1
                l(4) =   1
                l(5) =   2
                l(6) =   2
     Q(r) pseudized with  6 coefficients,  rinner =    1.200   1.200   1.200
                                                       1.200   1.200

     PseudoPot. # 3 for Cu read from file:
     ./pseudo/Cu.pbe-n-van_ak.UPF
     MD5 check sum: 34e3282627ffb533726feb647e090d62
     Pseudo is Ultrasoft + core correction, Zval = 11.0
     Generated by new atomic code, or converted to UPF format
     Using radial grid of  867 points,  6 beta functions with: 
                l(1) =   0
                l(2) =   0
                l(3) =   1
                l(4) =   1
                l(5) =   2
                l(6) =   2
     Q(r) pseudized with  8 coefficients,  rinner =    1.400   1.400   1.400
                                                       1.400   1.400

     PseudoPot. # 4 for O  read from file:
     ./pseudo/O.pbe-van_ak.UPF
     MD5 check sum: 783ce7fe4c79b6a4916957118fed0856
     Pseudo is Ultrasoft, Zval =  6.0
     Generated by new atomic code, or converted to UPF format
     Using radial grid of  737 points,  4 beta functions with: 
                l(1) =   0
                l(2) =   0
                l(3) =   1
                l(4) =   1
     Q(r) pseudized with  8 coefficients,  rinner =    0.800   0.800   0.800


     atomic species   valence    mass     pseudopotential
        Ba            10.00   137.32700     Ba( 1.00)
        Ca            10.00    40.07800     Ca( 1.00)
        Cu            11.00    63.54600     Cu( 1.00)
        O              6.00    15.99900     O ( 1.00)

      4 Sym. Ops. (no inversion) found



   Cartesian axes

     site n.     atom                  positions (alat units)
         1           O   tau(   1) = (   0.0000000   0.4735409  -0.0469745  )
         2           Cu  tau(   2) = (   0.0000000   0.0000000   0.0264565  )
         3           O   tau(   3) = (   0.0000000   0.0000000   0.5030914  )
         4           Ba  tau(   4) = (   0.5000000   0.4735409   0.5690292  )
         5           Cu  tau(   5) = (   0.0000000   0.0000000   1.0374254  )
         6           O   tau(   6) = (   0.5000000   0.0000000   1.0768099  )
         7           O   tau(   7) = (   0.0000000   0.4735409   1.1116985  )
         8           Ca  tau(   8) = (   0.5000000   0.4735409   1.4976260  )
         9           O   tau(   9) = (   0.0000000   0.4735409   1.8667529  )
        10           O   tau(  10) = (   0.5000000   0.0000000   1.9044124  )
        11           Cu  tau(  11) = (   0.0000000   0.0000000   1.9512546  )
        12           Ba  tau(  12) = (   0.5000000   0.4735409   2.4295764  )
        13           O   tau(  13) = (   0.0000000   0.0000000   2.5115362  )
        14           O   tau(  14) = (   0.0000000   0.4735409   2.9918528  )
        15           Cu  tau(  15) = (   0.0000000   0.0000000   2.9919088  )
        16           O   tau(  16) = (   0.0000000   0.0000000   3.4722686  )
        17           Ba  tau(  17) = (   0.5000000   0.4735409   3.5542208  )
        18           Cu  tau(  18) = (   0.0000000   0.0000000   4.0325248  )
        19           O   tau(  19) = (   0.5000000   0.0000000   4.0793669  )
        20           O   tau(  20) = (   0.0000000   0.4735409   4.1170213  )
        21           Ca  tau(  21) = (   0.5000000   0.4735409   4.4861584  )
        22           O   tau(  22) = (   0.0000000   0.4735409   4.9356930  )
        23           O   tau(  23) = (   0.5000000   0.0000000   4.9705816  )
        24           Cu  tau(  24) = (   0.0000000   0.0000000   5.0099687  )
        25           Ba  tau(  25) = (   0.5000000   0.4735409   5.4783624  )
        26           O   tau(  26) = (   0.0000000   0.0000000   5.5442900  )
        27           Cu  tau(  27) = (   0.0000000   0.0000000   6.0209299  )
        28           O   tau(  28) = (   0.0000000   0.4735409   6.0943482  )

     number of k points=    25  Gaussian smearing, width (Ry)=  0.0100
                       cart. coord. in units 2pi/alat
        k(    1) = (   0.0000000   0.0000000   0.0000000), wk =   0.0312500
        k(    2) = (   0.0000000   0.1319845   0.0000000), wk =   0.0625000
        k(    3) = (   0.0000000   0.2639689   0.0000000), wk =   0.0625000
        k(    4) = (   0.0000000   0.3959534   0.0000000), wk =   0.0625000
        k(    5) = (   0.0000000  -0.5279378   0.0000000), wk =   0.0312500
        k(    6) = (   0.1250000   0.0000000   0.0000000), wk =   0.0625000
        k(    7) = (   0.1250000   0.1319845   0.0000000), wk =   0.1250000
        k(    8) = (   0.1250000   0.2639689   0.0000000), wk =   0.1250000
        k(    9) = (   0.1250000   0.3959534   0.0000000), wk =   0.1250000
        k(   10) = (   0.1250000  -0.5279378   0.0000000), wk =   0.0625000
        k(   11) = (   0.2500000   0.0000000   0.0000000), wk =   0.0625000
        k(   12) = (   0.2500000   0.1319845   0.0000000), wk =   0.1250000
        k(   13) = (   0.2500000   0.2639689   0.0000000), wk =   0.1250000
        k(   14) = (   0.2500000   0.3959534   0.0000000), wk =   0.1250000
        k(   15) = (   0.2500000  -0.5279378   0.0000000), wk =   0.0625000
        k(   16) = (   0.3750000   0.0000000   0.0000000), wk =   0.0625000
        k(   17) = (   0.3750000   0.1319845   0.0000000), wk =   0.1250000
        k(   18) = (   0.3750000   0.2639689   0.0000000), wk =   0.1250000
        k(   19) = (   0.3750000   0.3959534   0.0000000), wk =   0.1250000
        k(   20) = (   0.3750000  -0.5279378   0.0000000), wk =   0.0625000
        k(   21) = (  -0.5000000   0.0000000   0.0000000), wk =   0.0312500
        k(   22) = (  -0.5000000   0.1319845   0.0000000), wk =   0.0625000
        k(   23) = (  -0.5000000   0.2639689   0.0000000), wk =   0.0625000
        k(   24) = (  -0.5000000   0.3959534   0.0000000), wk =   0.0625000
        k(   25) = (  -0.5000000  -0.5279378   0.0000000), wk =   0.0312500

     Dense  grid:  1411709 G-vectors     FFT dimensions: (  64,  64, 720)

     Smooth grid:   271883 G-vectors     FFT dimensions: (  40,  36, 432)

     Estimated max dynamical RAM per process >     450.82 MB

     Estimated total dynamical RAM >       8.81 GB

     Initial potential from superposition of free atoms

     starting charge  226.84630, renormalised to  227.00000

     negative rho (up, down):  3.550E-03 0.000E+00
     Starting wfcs are  195 randomized atomic wfcs

     total cpu time spent up to now is        9.7 secs

     Self-consistent Calculation

     iteration #  1     ecut=    60.00 Ry     beta= 0.70
     Davidson diagonalization with overlap
     ethr =  1.00E-02,  avg # of iterations =  2.0

     negative rho (up, down):  2.775E-04 0.000E+00

     total cpu time spent up to now is       25.0 secs

     total energy              =   -1839.51561519 Ry
     Harris-Foulkes estimate   =   -1845.33789306 Ry
     estimated scf accuracy    <      18.37968548 Ry

     iteration #  2     ecut=    60.00 Ry     beta= 0.70
     Davidson diagonalization with overlap
     ethr =  8.10E-03,  avg # of iterations =  2.0

     negative rho (up, down):  2.543E-04 0.000E+00

     total cpu time spent up to now is       41.3 secs

     total energy              =   -1842.05677227 Ry
     Harris-Foulkes estimate   =   -1843.94182110 Ry
     estimated scf accuracy    <      12.99221460 Ry

     iteration #  3     ecut=    60.00 Ry     beta= 0.70
     Davidson diagonalization with overlap
     ethr =  5.72E-03,  avg # of iterations =  1.7

     negative rho (up, down):  2.419E-04 0.000E+00

     total cpu time spent up to now is       55.8 secs

     total energy              =   -1842.66367649 Ry
     Harris-Foulkes estimate   =   -1843.13963092 Ry
     estimated scf accuracy    <       4.53473445 Ry

     iteration #  4     ecut=    60.00 Ry     beta= 0.70
     Davidson diagonalization with overlap
     ethr =  2.00E-03,  avg # of iterations =  1.2

     negative rho (up, down):  2.376E-04 0.000E+00

     total cpu time spent up to now is       69.7 secs

     total energy              =   -1842.83847680 Ry
     Harris-Foulkes estimate   =   -1843.04562290 Ry
     estimated scf accuracy    <       6.83894570 Ry

     iteration #  5     ecut=    60.00 Ry     beta= 0.70
     Davidson diagonalization with overlap
     ethr =  2.00E-03,  avg # of iterations =  1.0

     negative rho (up, down):  2.345E-04 0.000E+00

     total cpu time spent up to now is       83.4 secs

     total energy              =   -1842.90057104 Ry
     Harris-Foulkes estimate   =   -1842.93121992 Ry
     estimated scf accuracy    <       0.80832759 Ry

     iteration #  6     ecut=    60.00 Ry     beta= 0.70
     Davidson diagonalization with overlap
     ethr =  3.56E-04,  avg # of iterations =  1.6

     negative rho (up, down):  2.338E-04 0.000E+00

     total cpu time spent up to now is       97.8 secs

     total energy              =   -1842.90883641 Ry
     Harris-Foulkes estimate   =   -1842.93304255 Ry
     estimated scf accuracy    <       2.45958204 Ry

     iteration #  7     ecut=    60.00 Ry     beta= 0.70
     Davidson diagonalization with overlap
     ethr =  3.56E-04,  avg # of iterations =  1.0

     negative rho (up, down):  2.337E-04 0.000E+00

     total cpu time spent up to now is      111.7 secs

     total energy              =   -1842.91432691 Ry
     Harris-Foulkes estimate   =   -1842.92263130 Ry
     estimated scf accuracy    <       1.50518709 Ry

     iteration #  8     ecut=    60.00 Ry     beta= 0.70
     Davidson diagonalization with overlap
     ethr =  3.56E-04,  avg # of iterations =  1.0

     negative rho (up, down):  2.335E-04 0.000E+00

     total cpu time spent up to now is      125.5 secs

     total energy              =   -1842.90259922 Ry
     Harris-Foulkes estimate   =   -1842.91657138 Ry
     estimated scf accuracy    <       0.90647421 Ry

     iteration #  9     ecut=    60.00 Ry     beta= 0.70
     Davidson diagonalization with overlap
     ethr =  3.56E-04,  avg # of iterations =  1.2

     negative rho (up, down):  2.337E-04 0.000E+00

     total cpu time spent up to now is      139.7 secs

     total energy              =   -1842.90069666 Ry
     Harris-Foulkes estimate   =   -1842.90711401 Ry
     estimated scf accuracy    <       0.30765652 Ry

     iteration # 10     ecut=    60.00 Ry     beta= 0.70
     Davidson diagonalization with overlap
     ethr =  1.36E-04,  avg # of iterations =  6.2

     negative rho (up, down):  2.337E-04 0.000E+00

     total cpu time spent up to now is      159.2 secs

     total energy              =   -1842.89941017 Ry
     Harris-Foulkes estimate   =   -1842.90264007 Ry
     estimated scf accuracy    <       0.11677416 Ry

     iteration # 11     ecut=    60.00 Ry     beta= 0.70
     Davidson diagonalization with overlap
     ethr =  5.14E-05,  avg # of iterations =  7.0

     negative rho (up, down):  2.335E-04 0.000E+00

     total cpu time spent up to now is      179.5 secs

     total energy              =   -1842.89775813 Ry
     Harris-Foulkes estimate   =   -1842.90019994 Ry
     estimated scf accuracy    <       0.08005074 Ry

     iteration # 12     ecut=    60.00 Ry     beta= 0.70
     Davidson diagonalization with overlap
     ethr =  3.53E-05,  avg # of iterations =  3.2

     negative rho (up, down):  1.471E-03 0.000E+00

     total cpu time spent up to now is      195.4 secs

     total energy              =   -1842.89597080 Ry
     Harris-Foulkes estimate   =   -1842.89825765 Ry
     estimated scf accuracy    <       0.07581613 Ry

     iteration # 13     ecut=    60.00 Ry     beta= 0.70
     Davidson diagonalization with overlap
     ethr =  3.34E-05,  avg # of iterations =  2.0

     negative rho (up, down):  6.586E-03 0.000E+00

     total cpu time spent up to now is      210.1 secs

     total energy              =   -1842.89526271 Ry
     Harris-Foulkes estimate   =   -1842.89645280 Ry
     estimated scf accuracy    <       0.02834831 Ry

     iteration # 14     ecut=    60.00 Ry     beta= 0.70
     Davidson diagonalization with overlap
     ethr =  1.25E-05,  avg # of iterations =  7.6

     negative rho (up, down):  5.755E-03 0.000E+00

     total cpu time spent up to now is      231.3 secs

     total energy              =   -1842.89467055 Ry
     Harris-Foulkes estimate   =   -1842.89559154 Ry
     estimated scf accuracy    <       0.01701280 Ry

     iteration # 15     ecut=    60.00 Ry     beta= 0.70
     Davidson diagonalization with overlap
     c_bands:  1 eigenvalues not converged
     ethr =  7.49E-06,  avg # of iterations =  3.3

     negative rho (up, down):  2.168E-02 0.000E+00

     total cpu time spent up to now is      247.7 secs

     total energy              =   -1842.89297514 Ry
     Harris-Foulkes estimate   =   -1842.89485758 Ry
     estimated scf accuracy    <       0.01579942 Ry

     iteration # 16     ecut=    60.00 Ry     beta= 0.70
     Davidson diagonalization with overlap
     ethr =  6.96E-06,  avg # of iterations =  8.2

     negative rho (up, down):  2.086E-02 0.000E+00

     total cpu time spent up to now is      270.4 secs

     total energy              =   -1842.89256784 Ry
     Harris-Foulkes estimate   =   -1842.89321960 Ry
     estimated scf accuracy    <       0.00405239 Ry

     iteration # 17     ecut=    60.00 Ry     beta= 0.70
     Davidson diagonalization with overlap
     ethr =  1.79E-06,  avg # of iterations =  8.6

     negative rho (up, down):  1.934E-02 0.000E+00

     total cpu time spent up to now is      292.9 secs

     total energy              =   -1842.89220234 Ry
     Harris-Foulkes estimate   =   -1842.89276726 Ry
     estimated scf accuracy    <       0.00375067 Ry

     iteration # 18     ecut=    60.00 Ry     beta= 0.70
     Davidson diagonalization with overlap
     ethr =  1.65E-06,  avg # of iterations =  8.5

     negative rho (up, down):  1.571E-02 0.000E+00

     total cpu time spent up to now is      315.6 secs

     total energy              =   -1842.89212129 Ry
     Harris-Foulkes estimate   =   -1842.89232191 Ry
     estimated scf accuracy    <       0.00178497 Ry

     iteration # 19     ecut=    60.00 Ry     beta= 0.70
     Davidson diagonalization with overlap
     ethr =  7.86E-07,  avg # of iterations =  3.5

     negative rho (up, down):  7.470E-03 0.000E+00

     total cpu time spent up to now is      332.0 secs

     total energy              =   -1842.89190916 Ry
     Harris-Foulkes estimate   =   -1842.89215629 Ry
     estimated scf accuracy    <       0.00141310 Ry

     iteration # 20     ecut=    60.00 Ry     beta= 0.70
     Davidson diagonalization with overlap
     ethr =  6.23E-07,  avg # of iterations =  5.4

     negative rho (up, down):  1.486E-03 0.000E+00

     total cpu time spent up to now is      350.9 secs

     total energy              =   -1842.89186664 Ry
     Harris-Foulkes estimate   =   -1842.89194603 Ry
     estimated scf accuracy    <       0.00035200 Ry

     iteration # 21     ecut=    60.00 Ry     beta= 0.70
     Davidson diagonalization with overlap
     c_bands:  1 eigenvalues not converged
     c_bands:  1 eigenvalues not converged
     ethr =  1.55E-07,  avg # of iterations =  8.8

     negative rho (up, down):  1.731E-03 0.000E+00

     total cpu time spent up to now is      373.7 secs

     total energy              =   -1842.89190657 Ry
     Harris-Foulkes estimate   =   -1842.89189530 Ry
     estimated scf accuracy    <       0.00020134 Ry

     iteration # 22     ecut=    60.00 Ry     beta= 0.70
     Davidson diagonalization with overlap
     ethr =  8.87E-08,  avg # of iterations =  4.0

     negative rho (up, down):  1.427E-03 0.000E+00

     total cpu time spent up to now is      390.8 secs

     total energy              =   -1842.89193956 Ry
     Harris-Foulkes estimate   =   -1842.89192026 Ry
     estimated scf accuracy    <       0.00005606 Ry

     iteration # 23     ecut=    60.00 Ry     beta= 0.70
     Davidson diagonalization with overlap
     ethr =  2.47E-08,  avg # of iterations =  4.4

     negative rho (up, down):  1.085E-03 0.000E+00

     total cpu time spent up to now is      408.5 secs

     total energy              =   -1842.89194218 Ry
     Harris-Foulkes estimate   =   -1842.89194200 Ry
     estimated scf accuracy    <       0.00006951 Ry

     iteration # 24     ecut=    60.00 Ry     beta= 0.70
     Davidson diagonalization with overlap
     ethr =  2.47E-08,  avg # of iterations =  1.6

     negative rho (up, down):  1.184E-03 0.000E+00

     total cpu time spent up to now is      423.0 secs

     total energy              =   -1842.89194221 Ry
     Harris-Foulkes estimate   =   -1842.89194272 Ry
     estimated scf accuracy    <       0.00002527 Ry

     iteration # 25     ecut=    60.00 Ry     beta= 0.70
     Davidson diagonalization with overlap
     ethr =  1.11E-08,  avg # of iterations =  1.0

     negative rho (up, down):  1.431E-03 0.000E+00

     total cpu time spent up to now is      436.7 secs

     total energy              =   -1842.89194221 Ry
     Harris-Foulkes estimate   =   -1842.89194263 Ry
     estimated scf accuracy    <       0.00000727 Ry

     iteration # 26     ecut=    60.00 Ry     beta= 0.70
     Davidson diagonalization with overlap
     ethr =  3.20E-09,  avg # of iterations =  1.5

     negative rho (up, down):  1.335E-03 0.000E+00

     total cpu time spent up to now is      450.9 secs

     total energy              =   -1842.89194246 Ry
     Harris-Foulkes estimate   =   -1842.89194257 Ry
     estimated scf accuracy    <       0.00000469 Ry

     iteration # 27     ecut=    60.00 Ry     beta= 0.70
     Davidson diagonalization with overlap
     ethr =  2.07E-09,  avg # of iterations =  1.1

     negative rho (up, down):  1.426E-03 0.000E+00

     total cpu time spent up to now is      464.9 secs

     total energy              =   -1842.89194250 Ry
     Harris-Foulkes estimate   =   -1842.89194262 Ry
     estimated scf accuracy    <       0.00000141 Ry

     iteration # 28     ecut=    60.00 Ry     beta= 0.70
     Davidson diagonalization with overlap
     ethr =  6.22E-10,  avg # of iterations =  2.2

     negative rho (up, down):  1.483E-03 0.000E+00

     total cpu time spent up to now is      479.8 secs

     total energy              =   -1842.89194247 Ry
     Harris-Foulkes estimate   =   -1842.89194256 Ry
     estimated scf accuracy    <       0.00000052 Ry

     iteration # 29     ecut=    60.00 Ry     beta= 0.70
     Davidson diagonalization with overlap
     ethr =  2.27E-10,  avg # of iterations =  2.3

     negative rho (up, down):  1.496E-03 0.000E+00

     total cpu time spent up to now is      494.8 secs

     total energy              =   -1842.89194247 Ry
     Harris-Foulkes estimate   =   -1842.89194249 Ry
     estimated scf accuracy    <       0.00000005 Ry

     iteration # 30     ecut=    60.00 Ry     beta= 0.70
     Davidson diagonalization with overlap
     ethr =  2.39E-11,  avg # of iterations =  3.6

     negative rho (up, down):  1.490E-03 0.000E+00

     total cpu time spent up to now is      513.4 secs

     total energy              =   -1842.89194248 Ry
     Harris-Foulkes estimate   =   -1842.89194248 Ry
     estimated scf accuracy    <       0.00000012 Ry

     iteration # 31     ecut=    60.00 Ry     beta= 0.70
     Davidson diagonalization with overlap
     ethr =  2.39E-11,  avg # of iterations =  1.0

     negative rho (up, down):  1.496E-03 0.000E+00

     total cpu time spent up to now is      527.3 secs

     total energy              =   -1842.89194247 Ry
     Harris-Foulkes estimate   =   -1842.89194249 Ry
     estimated scf accuracy    <       0.00000004 Ry

     iteration # 32     ecut=    60.00 Ry     beta= 0.70
     Davidson diagonalization with overlap
     ethr =  1.74E-11,  avg # of iterations =  1.0

     negative rho (up, down):  1.494E-03 0.000E+00

     total cpu time spent up to now is      541.0 secs

     total energy              =   -1842.89194248 Ry
     Harris-Foulkes estimate   =   -1842.89194248 Ry
     estimated scf accuracy    <       0.00000002 Ry

     iteration # 33     ecut=    60.00 Ry     beta= 0.70
     Davidson diagonalization with overlap
     ethr =  9.97E-12,  avg # of iterations =  1.0

     negative rho (up, down):  1.494E-03 0.000E+00

     total cpu time spent up to now is      555.0 secs

     total energy              =   -1842.89194248 Ry
     Harris-Foulkes estimate   =   -1842.89194248 Ry
     estimated scf accuracy    <          5.8E-09 Ry

     iteration # 34     ecut=    60.00 Ry     beta= 0.70
     Davidson diagonalization with overlap
     ethr =  2.57E-12,  avg # of iterations =  1.0

     negative rho (up, down):  1.492E-03 0.000E+00

     total cpu time spent up to now is      568.7 secs

     total energy              =   -1842.89194248 Ry
     Harris-Foulkes estimate   =   -1842.89194248 Ry
     estimated scf accuracy    <          5.5E-09 Ry

     iteration # 35     ecut=    60.00 Ry     beta= 0.70
     Davidson diagonalization with overlap
     ethr =  2.44E-12,  avg # of iterations =  1.0

     negative rho (up, down):  1.494E-03 0.000E+00

     total cpu time spent up to now is      582.4 secs

     total energy              =   -1842.89194248 Ry
     Harris-Foulkes estimate   =   -1842.89194248 Ry
     estimated scf accuracy    <          1.9E-09 Ry

     iteration # 36     ecut=    60.00 Ry     beta= 0.70
     Davidson diagonalization with overlap
     ethr =  8.48E-13,  avg # of iterations =  1.0

     negative rho (up, down):  1.495E-03 0.000E+00

     total cpu time spent up to now is      596.3 secs

     total energy              =   -1842.89194248 Ry
     Harris-Foulkes estimate   =   -1842.89194248 Ry
     estimated scf accuracy    <          1.5E-09 Ry

     iteration # 37     ecut=    60.00 Ry     beta= 0.70
     Davidson diagonalization with overlap
     ethr =  6.48E-13,  avg # of iterations =  1.0

     negative rho (up, down):  1.494E-03 0.000E+00

     total cpu time spent up to now is      609.7 secs

     total energy              =   -1842.89194248 Ry
     Harris-Foulkes estimate   =   -1842.89194247 Ry
     estimated scf accuracy    <          3.8E-10 Ry

     iteration # 38     ecut=    60.00 Ry     beta= 0.70
     Davidson diagonalization with overlap
     ethr =  1.66E-13,  avg # of iterations =  1.3

     negative rho (up, down):  1.494E-03 0.000E+00

     total cpu time spent up to now is      623.2 secs

     End of self-consistent calculation

          k = 0.0000 0.0000 0.0000 ( 34019 PWs)   bands (ev):

   -36.0890 -35.5007 -22.7057 -22.6593 -22.4936 -22.4415 -17.3608 -17.1159
   -17.1143 -17.0052 -16.5519 -16.5405 -15.2160 -15.1772 -14.7763 -14.7282
   -14.5859 -14.5664 -14.4864 -14.0960 -14.0954 -13.8965 -13.8911 -13.7496
   -13.7379 -13.6553 -13.5427  -7.8370  -7.7995  -7.7704  -7.7594  -7.6797
    -7.6222  -7.6065  -7.5653  -7.5400  -7.4831  -7.3710  -7.3199  -2.2445
    -2.2384  -2.1706  -1.7672  -1.7444  -1.6810  -1.6508  -1.6057  -1.5826
    -1.4531  -1.4078  -1.3975  -1.3499  -1.1354  -1.1348  -0.9803  -0.9544
    -0.7532  -0.5089  -0.3731  -0.3675  -0.3620  -0.2911  -0.2754  -0.2221
    -0.1791  -0.1691  -0.1648  -0.1602  -0.1596  -0.1290  -0.1137  -0.0835
    -0.0625   0.0035   0.0483   0.0563   0.1832   0.1843   0.1845   0.2214
     0.2325   0.2371   0.2589   0.2675   0.3583   0.3691   0.3956   0.4097
     0.5078   0.8817   0.8883   0.9674   0.9774   1.0372   1.0719   1.2683
     1.2908   1.4155   1.4321   1.4704   1.4735   1.5329   1.5666   1.5949
     1.6191   1.6195   1.6261   1.8501   1.9229   1.9829   2.1220   2.1733
     2.2389   2.2690   2.2949   2.3672   2.3776   2.6145   2.6221   5.2833
     5.3024   5.7995   6.1436   6.4851   6.8486   6.8654   7.2175   7.3887
     8.0579   8.1789   8.3440   8.4056   8.5728   8.6970   8.7343   9.1705
     9.1828

          k = 0.0000 0.1320 0.0000 ( 34015 PWs)   bands (ev):

   -36.0874 -35.4989 -22.6790 -22.6326 -22.4681 -22.4161 -17.3402 -17.1578
   -17.1122 -16.9691 -16.6131 -16.5495 -15.1274 -15.1044 -14.7304 -14.6937
   -14.5911 -14.5574 -14.4591 -14.1054 -14.1043 -13.9138 -13.9019 -13.7852
   -13.7831 -13.6992 -13.5999  -7.8366  -7.7692  -7.7516  -7.7113  -7.6804
    -7.6487  -7.6186  -7.6074  -7.4954  -7.4377  -7.4194  -7.3664  -2.3035
    -2.2863  -2.2291  -2.0900  -2.0622  -1.9864  -1.9661  -1.5799  -1.5751
    -1.5623  -1.5590  -1.5584  -1.4354  -1.3935  -1.2764  -1.2065  -1.0253
    -0.8885  -0.5649  -0.5612  -0.5412  -0.4705  -0.4605  -0.3949  -0.3750
    -0.3505  -0.2658  -0.2529  -0.2163  -0.1146  -0.0731  -0.0625  -0.0623
    -0.0232   0.0434   0.0697   0.0768   0.0839   0.0930   0.2079   0.2085
     0.2123   0.2465   0.2737   0.2770   0.3354   0.3644   0.4299   0.4550
     0.8189   0.9860   1.0404   1.1388   1.1557   1.1580   1.1646   1.1818
     1.2368   1.2749   1.3082   1.4736   1.4967   1.5325   1.5660   1.6213
     1.6393   1.6831   1.7527   1.8207   1.9115   1.9759   2.0660   2.0915
     2.1251   2.1782   2.2081   2.5995   2.8847   2.9065   2.9738   5.6702
     5.6784   6.1186   6.4033   6.6985   7.1527   7.1671   7.5422   7.6592
     8.2323   8.3691   8.5383   8.6064   8.8010   8.8295   8.9800   9.2516
     9.2576

          k = 0.0000 0.2640 0.0000 ( 33931 PWs)   bands (ev):

   -36.0834 -35.4945 -22.6131 -22.5666 -22.4052 -22.3536 -17.3131 -17.2294
   -17.1072 -16.8770 -16.7674 -16.5439 -14.9280 -14.9265 -14.6878 -14.6399
   -14.5657 -14.5240 -14.3972 -14.0927 -14.0900 -14.0119 -13.9417 -13.9076
   -13.8701 -13.7709 -13.7192  -7.8361  -7.7670  -7.7392  -7.6991  -7.6833
    -7.6312  -7.6084  -7.5904  -7.5265  -7.4657  -7.3835  -7.3238  -2.7511
    -2.7088  -2.6590  -2.5740  -2.5099  -2.3431  -2.3357  -2.1956  -2.1924
    -2.1383  -1.5799  -1.5099  -1.5047  -1.3896  -1.3790  -1.3516  -1.3323
    -0.9374  -0.9278  -0.8586  -0.7875  -0.7225  -0.7118  -0.7023  -0.5663
    -0.5315  -0.4902  -0.4816  -0.4488  -0.4260  -0.4117  -0.4101  -0.2397
    -0.2049   0.0005   0.0813   0.0981   0.1052   0.1476   0.1798   0.2381
     0.2766   0.2983   0.4579   0.4843   0.7024   0.7219   0.7822   0.7854
     1.0140   1.0535   1.0655   1.1309   1.2003   1.2212   1.2500   1.2600
     1.2647   1.2932   1.3385   1.3898   1.4179   1.4726   1.6784   1.7409
     1.7919   1.7925   1.8979   1.9985   2.0174   2.0381   2.0592   2.0630
     2.0798   2.1771   2.3161   2.7168   3.1242   3.1335   3.8159   6.5722
     6.5790   6.8856   6.9714   7.3952   7.9726   7.9776   8.3799   8.4498
     8.7259   8.7783   8.8432   8.9433   8.9690   9.0725   9.1936   9.3807
     9.4047

          k = 0.0000 0.3960 0.0000 ( 33860 PWs)   bands (ev):

   -36.0795 -35.4901 -22.5449 -22.4983 -22.3404 -22.2890 -17.3765 -17.2012
   -17.1022 -16.9037 -16.7753 -16.5382 -14.8490 -14.8476 -14.6112 -14.5972
   -14.4473 -14.3984 -14.3353 -14.1519 -14.0604 -14.0361 -14.0191 -14.0058
   -13.9904 -13.8698 -13.7936  -7.8361  -7.8173  -7.7789  -7.7644  -7.6830
    -7.6239  -7.5951  -7.5531  -7.5027  -7.4613  -7.2650  -7.2028  -3.3593
    -3.2032  -3.1521  -3.0337  -2.9737  -2.9099  -2.9076  -2.2865  -2.2817
    -2.1790  -1.9193  -1.7231  -1.6895  -1.4439  -1.4064  -1.2927  -1.2812
    -1.1635  -1.0572  -1.0338  -0.9900  -0.9646  -0.9342  -0.9010  -0.8159
    -0.7857  -0.7575  -0.7130  -0.6720  -0.6646  -0.6274  -0.6182  -0.2579
    -0.2228  -0.1231  -0.0168   0.1150   0.1227   0.1390   0.2110   0.2207
     0.2477   0.2655   0.5750   0.5819   0.8674   0.8978   0.9556   0.9883
     1.0119   1.0240   1.0452   1.0564   1.1739   1.1821   1.2209   1.2247
     1.2302   1.4750   1.6225   1.6671   1.7061   1.7077   1.7510   1.8087
     1.8347   1.8463   2.0176   2.0669   2.0685   2.0809   2.1645   2.2821
     2.3435   2.4533   2.4542   2.6276   3.0153   3.0268   4.3737   7.4892
     7.5196   7.5336   7.8609   8.3479   8.6008   8.6924   8.7657   8.7756
     9.0046   9.1761   9.1766   9.3001   9.4348   9.5012   9.5444   9.6112
     9.7795

          k = 0.0000-0.5279 0.0000 ( 33926 PWs)   bands (ev):

   -36.0778 -35.4882 -22.5160 -22.4693 -22.3129 -22.2616 -17.4118 -17.1783
   -17.1002 -16.9558 -16.7303 -16.5359 -14.8912 -14.8815 -14.4836 -14.4684
   -14.4437 -14.3940 -14.2061 -14.1634 -14.1513 -14.1239 -14.0416 -13.9888
   -13.9869 -13.9464 -13.8225  -7.8470  -7.8357  -7.8085  -7.7636  -7.6749
    -7.6642  -7.5936  -7.5867  -7.4468  -7.4051  -7.2137  -7.1504  -3.6239
    -3.3820  -3.3320  -3.2013  -3.1523  -3.1363  -3.1300  -2.3026  -2.2981
    -2.1918  -2.0474  -1.8533  -1.8232  -1.4112  -1.3557  -1.2606  -1.2490
    -1.2069  -1.1451  -1.1154  -1.0853  -1.0813  -1.0005  -0.9363  -0.9297
    -0.9182  -0.8696  -0.8247  -0.7517  -0.7509  -0.7017  -0.6899  -0.2267
    -0.2231  -0.1907  -0.0257   0.1206   0.1263   0.1285   0.2058   0.2349
     0.2567   0.2601   0.5060   0.5240   0.8411   0.9008   0.9028   0.9399
     0.9451   0.9717   1.0926   1.1083   1.2040   1.2125   1.2259   1.4014
     1.4356   1.4769   1.6046   1.6837   1.8126   1.8225   1.8569   1.8610
     1.9939   2.0985   2.1050   2.1115   2.1127   2.1176   2.1506   2.3019
     2.3301   2.5765   2.6149   2.6157   2.8356   2.8495   4.5481   7.8114
     7.9103   7.9327   8.4685   8.5253   8.6001   8.8853   8.9963   9.0603
     9.0922   9.2565   9.2794   9.3964   9.4245   9.4944   9.8175  10.0382
    10.1050

          k = 0.1250 0.0000 0.0000 ( 34005 PWs)   bands (ev):

   -36.0881 -35.4996 -22.6876 -22.6412 -22.4762 -22.4244 -17.3424 -17.1560
   -17.1147 -16.9718 -16.6322 -16.5391 -15.1138 -15.1044 -14.7860 -14.7366
   -14.6315 -14.5973 -14.4917 -14.1049 -14.1047 -13.9094 -13.9077 -13.7804
   -13.7596 -13.7105 -13.5708  -7.8627  -7.8031  -7.7378  -7.7277  -7.6899
    -7.6494  -7.5741  -7.5327  -7.4723  -7.4245  -7.3406  -7.2895  -2.2872
    -2.2767  -2.2006  -1.8253  -1.7864  -1.7399  -1.7237  -1.7220  -1.6842
    -1.6522  -1.6248  -1.3675  -1.3228  -1.1333  -1.1327  -1.0195  -0.9749
    -0.7834  -0.6171  -0.5632  -0.5185  -0.4287  -0.3967  -0.3206  -0.3090
    -0.2963  -0.2537  -0.2439  -0.2215  -0.1833  -0.1587  -0.1290  -0.1081
    -0.0703  -0.0244   0.0212   0.0435   0.1764   0.1773   0.2019   0.2389
     0.2800   0.2904   0.3111   0.3137   0.4371   0.4520   0.4673   0.5076
     0.5161   0.8765   0.8874   0.9632   0.9900   1.0557   1.1378   1.1918
     1.2742   1.3014   1.3167   1.4477   1.4823   1.4827   1.5711   1.5842
     1.6113   1.6340   1.8994   1.9787   2.0506   2.0729   2.1276   2.1316
     2.1787   2.2222   2.2956   2.3562   2.4288   2.6563   2.6572   5.4741
     5.4823   6.0236   6.3334   6.6320   7.0634   7.0740   7.4093   7.6002
     8.2060   8.3129   8.5213   8.5764   8.8079   8.8906   9.0138   9.2587
     9.3032

          k = 0.1250 0.1320 0.0000 ( 33966 PWs)   bands (ev):

   -36.0864 -35.4978 -22.6618 -22.6153 -22.4515 -22.3998 -17.3235 -17.1557
   -17.1526 -16.9367 -16.6352 -16.6023 -15.0364 -15.0322 -14.7311 -14.7100
   -14.6259 -14.5777 -14.4618 -14.1059 -14.1048 -13.9260 -13.9142 -13.8140
   -13.7976 -13.7452 -13.6186  -7.8820  -7.8314  -7.7999  -7.7431  -7.7242
    -7.6471  -7.5691  -7.5363  -7.5138  -7.4953  -7.3007  -7.2473  -2.3405
    -2.3189  -2.2512  -2.0831  -2.0487  -1.9650  -1.9464  -1.7909  -1.7654
    -1.6947  -1.6654  -1.5851  -1.5530  -1.5511  -1.2829  -1.2085  -1.0643
    -0.9141  -0.7422  -0.7147  -0.5953  -0.5625  -0.5409  -0.4829  -0.4599
    -0.4195  -0.4125  -0.4032  -0.1941  -0.1683  -0.1408  -0.1138  -0.0725
    -0.0317   0.0069   0.0532   0.0741   0.0856   0.1010   0.2244   0.2390
     0.2505   0.3005   0.3118   0.3410   0.3520   0.3780   0.6032   0.6286
     0.8092   1.0395   1.1139   1.1291   1.1390   1.2083   1.2273   1.2505
     1.2965   1.3149   1.3655   1.3765   1.3962   1.4174   1.4329   1.5868
     1.6785   1.6841   1.7468   1.7928   1.8001   1.8903   2.0991   2.3348
     2.4270   2.4904   2.5396   2.6662   2.8963   2.9119   2.9881   5.8185
     5.8208   6.2937   6.5277   6.8306   7.3589   7.3694   7.7235   7.8673
     8.3776   8.4923   8.6849   8.7486   8.9166   9.0340   9.1414   9.1952
     9.2914

          k = 0.1250 0.2640 0.0000 ( 33895 PWs)   bands (ev):

   -36.0825 -35.4934 -22.5979 -22.5513 -22.3904 -22.3390 -17.3048 -17.2216
   -17.1439 -16.8475 -16.7643 -16.6148 -14.8757 -14.8584 -14.6741 -14.6262
   -14.5775 -14.5155 -14.3918 -14.0881 -14.0838 -14.0127 -13.9634 -13.9001
   -13.8894 -13.7883 -13.7239  -7.9510  -7.9098  -7.8369  -7.7687  -7.7335
    -7.6986  -7.6403  -7.6081  -7.5269  -7.4867  -7.2948  -7.2410  -2.7734
    -2.7244  -2.6575  -2.5788  -2.5187  -2.3436  -2.3347  -2.1950  -2.1915
    -2.1497  -1.7491  -1.7156  -1.6508  -1.6184  -1.5376  -1.3996  -1.3530
    -0.9841  -0.9165  -0.9035  -0.8802  -0.8418  -0.8204  -0.7816  -0.7729
    -0.6664  -0.6083  -0.5992  -0.5207  -0.4712  -0.4229  -0.4051  -0.2434
    -0.2277  -0.0957  -0.0274   0.0322   0.0665   0.1196   0.2680   0.2904
     0.3879   0.4863   0.5823   0.6071   0.8127   0.8250   0.8638   0.8941
     0.9356   1.1050   1.1132   1.1873   1.1930   1.2549   1.3410   1.3898
     1.4027   1.4245   1.4588   1.4776   1.4978   1.5061   1.5838   1.6572
     1.7025   1.7331   1.7744   1.8039   2.0234   2.0264   2.1373   2.3508
     2.6239   2.6771   2.7674   2.8924   3.1335   3.1447   3.8167   6.6332
     6.6418   6.8772   7.0295   7.4733   8.1381   8.1446   8.5551   8.6102
     8.7218   8.8123   8.9003   8.9086   9.0411   9.1248   9.2149   9.2940
     9.4041

          k = 0.1250 0.3960 0.0000 ( 33906 PWs)   bands (ev):

   -36.0786 -35.4890 -22.5320 -22.4853 -22.3275 -22.2764 -17.3728 -17.1957
   -17.1320 -16.8985 -16.7488 -16.6062 -14.8140 -14.8140 -14.5630 -14.5233
   -14.4258 -14.3837 -14.3218 -14.1476 -14.0584 -14.0417 -14.0400 -13.9955
   -13.9881 -13.8603 -13.7885  -7.9815  -7.9423  -7.8484  -7.7781  -7.7743
    -7.7313  -7.6649  -7.6191  -7.5720  -7.5313  -7.3289  -7.2818  -3.3490
    -3.2437  -3.1865  -3.0646  -3.0023  -2.9015  -2.8992  -2.2947  -2.2886
    -2.1928  -1.8708  -1.7067  -1.6585  -1.5852  -1.5677  -1.5063  -1.4784
    -1.2471  -1.2065  -1.1597  -1.1271  -1.0914  -1.0225  -1.0077  -0.9120
    -0.8258  -0.7908  -0.7842  -0.7742  -0.7176  -0.6774  -0.6608  -0.2991
    -0.2677  -0.1569  -0.0583   0.0434   0.0687   0.1735   0.2866   0.2937
     0.4071   0.5296   0.7511   0.7712   0.8007   0.9868   0.9967   1.0528
     1.0645   1.1359   1.1618   1.1914   1.2724   1.2942   1.3160   1.3238
     1.4129   1.5594   1.6530   1.7295   1.7380   1.7681   1.8053   1.8175
     1.8873   1.9641   1.9921   2.0727   2.1541   2.4204   2.4217   2.4649
     2.5725   2.6091   2.7352   2.8159   3.0637   3.0867   4.3578   7.2246
     7.3803   7.3867   7.7408   8.2178   8.5737   8.6662   8.7486   8.7573
     9.0082   9.1968   9.2973   9.4669   9.5569   9.6351   9.6674   9.7683
     9.8995

          k = 0.1250-0.5279 0.0000 ( 33848 PWs)   bands (ev):

   -36.0769 -35.4872 -22.5040 -22.4573 -22.3009 -22.2498 -17.4080 -17.1784
   -17.1242 -16.9502 -16.7054 -16.6025 -14.8465 -14.8367 -14.4256 -14.4111
   -14.4000 -14.3562 -14.2150 -14.1755 -14.1327 -14.1041 -14.0743 -13.9878
   -13.9871 -13.9295 -13.8062  -7.9761  -7.9378  -7.8533  -7.7856  -7.7822
    -7.7190  -7.6852  -7.6223  -7.6059  -7.5647  -7.3511  -7.3074  -3.6152
    -3.4305  -3.3731  -3.2406  -3.1806  -3.1298  -3.1285  -2.3157  -2.3101
    -2.2089  -1.9475  -1.7366  -1.7037  -1.5253  -1.4612  -1.4405  -1.4296
    -1.4079  -1.3695  -1.2949  -1.2661  -1.2544  -1.1083  -1.0887  -0.9377
    -0.9205  -0.8621  -0.8520  -0.8501  -0.7794  -0.7702  -0.7637  -0.3052
    -0.2509  -0.1707  -0.0709   0.0359   0.0918   0.1960   0.2974   0.3006
     0.4059   0.5324   0.7286   0.7505   0.8127   0.9912   1.0174   1.0255
     1.0411   1.0484   1.1062   1.1146   1.3425   1.3655   1.4332   1.4334
     1.4669   1.5815   1.6190   1.8637   1.8867   1.9387   1.9829   2.0933
     2.1044   2.1176   2.1261   2.1410   2.3223   2.4311   2.4475   2.5624
     2.5858   2.5870   2.6136   2.6525   2.9298   2.9635   4.5239   7.3376
     7.5771   7.6064   7.9555   8.4026   8.5791   8.9625   9.0798   9.1463
     9.2095   9.3874   9.3902   9.5262   9.6263   9.8224   9.8254  10.1252
    10.1603

          k = 0.2500 0.0000 0.0000 ( 34032 PWs)   bands (ev):

   -36.0858 -35.4970 -22.6433 -22.5967 -22.4336 -22.3825 -17.3166 -17.2291
   -17.1119 -16.8865 -16.7964 -16.5358 -14.9477 -14.9160 -14.8467 -14.7570
   -14.7130 -14.6255 -14.5154 -14.1191 -14.1182 -13.9747 -13.9535 -13.8586
   -13.8425 -13.7900 -13.6267  -7.8644  -7.8022  -7.7884  -7.6511  -7.6333
    -7.6063  -7.4934  -7.4515  -7.3973  -7.3360  -7.2652  -7.2141  -2.4806
    -2.4412  -2.3658  -2.2539  -2.1240  -2.0836  -2.0549  -1.6629  -1.6613
    -1.5627  -1.5462  -1.3854  -1.3469  -1.1413  -1.1299  -1.1294  -1.0338
    -0.9101  -0.8646  -0.8633  -0.7020  -0.6840  -0.6317  -0.5833  -0.5688
    -0.5530  -0.4453  -0.4349  -0.3560  -0.2570  -0.2185  -0.2009  -0.1652
    -0.1568  -0.1050  -0.0863   0.0519   0.1634   0.1646   0.2702   0.2894
     0.3699   0.4092   0.4299   0.4817   0.5111   0.5433   0.5523   0.6340
     0.6900   0.7459   0.7944   1.0044   1.0170   1.1183   1.1372   1.2019
     1.3471   1.3662   1.3833   1.3937   1.4773   1.4974   1.5310   1.5442
     1.6573   1.6814   1.8614   1.9628   2.0189   2.0674   2.1168   2.1427
     2.1498   2.3163   2.4028   2.5402   2.5890   2.7644   2.7738   5.9395
     5.9431   6.5441   6.7649   7.1326   7.6355   7.6408   7.9431   8.1543
     8.5779   8.6035   8.8080   8.9788   9.2015   9.2427   9.3638   9.3780
     9.4283

          k = 0.2500 0.1320 0.0000 ( 33975 PWs)   bands (ev):

   -36.0842 -35.4952 -22.6195 -22.5729 -22.4107 -22.3597 -17.3056 -17.2202
   -17.1498 -16.8544 -16.7900 -16.6020 -14.8983 -14.8656 -14.7854 -14.7155
   -14.6638 -14.5872 -14.4799 -14.1049 -14.1036 -13.9735 -13.9545 -13.8870
   -13.8494 -13.8246 -13.6542  -7.9328  -7.8841  -7.8114  -7.7876  -7.7273
    -7.6582  -7.5835  -7.5146  -7.4597  -7.4192  -7.2292  -7.1804  -2.5309
    -2.4826  -2.4040  -2.2892  -2.1155  -2.0742  -2.0483  -2.0075  -1.9831
    -1.8984  -1.8706  -1.6077  -1.5436  -1.5434  -1.3365  -1.2838  -1.2118
    -1.0101  -0.9409  -0.9126  -0.8638  -0.8563  -0.8245  -0.7934  -0.5739
    -0.5432  -0.5235  -0.4597  -0.3967  -0.3396  -0.2584  -0.2428  -0.1353
    -0.1295  -0.0069   0.0543   0.0752   0.1170   0.1534   0.2279   0.2636
     0.2822   0.3308   0.4111   0.4156   0.6372   0.6976   0.7341   0.8598
     0.9575   0.9861   0.9959   1.0542   1.1385   1.1631   1.2669   1.2941
     1.3189   1.4064   1.4317   1.4652   1.4778   1.5205   1.5634   1.5655
     1.6181   1.6271   1.7250   1.8159   1.8499   1.8719   2.1073   2.4429
     2.7499   2.7854   2.8954   2.9437   2.9623   2.9819   3.0618   6.2008
     6.2067   6.6530   6.8687   7.2810   7.8969   7.8989   8.2162   8.3864
     8.6883   8.7119   8.8777   8.9668   9.1435   9.2023   9.2784   9.3688
     9.5221

          k = 0.2500 0.2640 0.0000 ( 33963 PWs)   bands (ev):

   -36.0803 -35.4908 -22.5608 -22.5141 -22.3543 -22.3034 -17.2978 -17.2465
   -17.1692 -16.7899 -16.7660 -16.7385 -14.7961 -14.7764 -14.6313 -14.5862
   -14.5235 -14.4873 -14.3908 -14.0798 -14.0709 -14.0254 -14.0042 -13.9354
   -13.8834 -13.8339 -13.7282  -8.1530  -8.1125  -7.9279  -7.8764  -7.8495
    -7.7807  -7.6859  -7.6231  -7.5795  -7.5398  -7.3476  -7.3025  -2.9096
    -2.8458  -2.7226  -2.6465  -2.5448  -2.3568  -2.3382  -2.2279  -2.2171
    -2.2075  -2.1316  -2.0853  -2.0435  -2.0139  -1.5234  -1.3662  -1.3501
    -1.3369  -1.2822  -1.2436  -1.1753  -0.9981  -0.9175  -0.8711  -0.7692
    -0.6760  -0.6478  -0.6195  -0.5921  -0.5131  -0.5081  -0.4839  -0.3694
    -0.3135  -0.2830  -0.2476   0.0730   0.1653   0.2149   0.3997   0.4412
     0.5808   0.6711   0.7756   0.8615   0.8828   0.9310   0.9446   1.0447
     1.0491   1.2190   1.2854   1.3436   1.3497   1.3861   1.4602   1.4691
     1.5129   1.5432   1.5509   1.5974   1.6457   1.6703   1.7073   1.7109
     1.7374   1.7744   1.8040   1.8103   1.9433   1.9474   2.2512   2.4513
     3.0717   3.0787   3.3561   3.3846   3.4680   3.5078   3.8199   6.7005
     6.7438   6.7535   7.2207   7.6736   8.4292   8.4452   8.4831   8.8193
     8.9214   8.9917   9.0968   9.1558   9.2964   9.4066   9.4265   9.5195
     9.5828

          k = 0.2500 0.3960 0.0000 ( 33940 PWs)   bands (ev):

   -36.0764 -35.4865 -22.5003 -22.4536 -22.2963 -22.2456 -17.3641 -17.2516
   -17.1283 -16.8865 -16.7543 -16.6801 -14.7328 -14.7328 -14.4536 -14.3845
   -14.3605 -14.3536 -14.2847 -14.1473 -14.1289 -14.0403 -14.0116 -13.9797
   -13.9561 -13.8398 -13.7817  -8.2730  -8.2341  -8.0503  -8.0034  -7.8998
    -7.8394  -7.7935  -7.7443  -7.7267  -7.6747  -7.5407  -7.5060  -3.4114
    -3.3540  -3.2974  -3.1795  -3.1155  -2.8808  -2.8790  -2.3664  -2.3473
    -2.2594  -2.1134  -2.0465  -1.9964  -1.9616  -1.7584  -1.6994  -1.6321
    -1.5653  -1.4682  -1.3630  -1.3196  -1.1775  -1.0775  -1.0283  -0.8972
    -0.8430  -0.7751  -0.7237  -0.7173  -0.7081  -0.6971  -0.5977  -0.4930
    -0.4552  -0.3589  -0.3335   0.1768   0.2544   0.2878   0.4482   0.5148
     0.7120   0.8820   0.9041   1.0636   1.0684   1.0909   1.1307   1.3273
     1.3474   1.3507   1.3848   1.4099   1.4337   1.5249   1.5872   1.6229
     1.6520   1.6929   1.7261   1.7939   1.8269   1.8627   1.8702   1.9095
     1.9786   2.0073   2.0646   2.1345   2.1904   2.3420   2.3445   2.5032
     2.9036   2.9106   3.5859   3.6009   3.7102   3.7442   4.3151   6.5762
     6.9444   6.9520   7.3985   7.8374   8.7032   8.8705   8.8851   8.9397
     9.1486   9.2386   9.5559   9.7312   9.7613   9.8197   9.8912   9.9882
    10.0704

          k = 0.2500-0.5279 0.0000 ( 33964 PWs)   bands (ev):

   -36.0747 -35.4847 -22.4748 -22.4280 -22.2718 -22.2212 -17.3992 -17.2470
   -17.1085 -16.9367 -16.7489 -16.6405 -14.7296 -14.7200 -14.3156 -14.3003
   -14.2784 -14.2670 -14.2614 -14.1821 -14.1390 -14.0883 -14.0511 -13.9823
   -13.9811 -13.8929 -13.7722  -8.2732  -8.2351  -8.0695  -8.0100  -7.9880
    -7.9448  -7.8597  -7.7928  -7.7816  -7.7401  -7.6045  -7.5883  -3.6269
    -3.5841  -3.5180  -3.3743  -3.3096  -3.1085  -3.1070  -2.3738  -2.3573
    -2.2689  -2.0555  -2.0055  -1.9485  -1.9186  -1.9105  -1.8539  -1.7759
    -1.7034  -1.5139  -1.3922  -1.3447  -1.2435  -1.1607  -1.1238  -0.9364
    -0.9173  -0.8530  -0.8015  -0.7815  -0.7300  -0.7142  -0.6030  -0.5062
    -0.4683  -0.3863  -0.3634   0.1963   0.2862   0.3219   0.4713   0.5513
     0.7412   0.9411   1.0105   1.1182   1.1540   1.1660   1.1756   1.2808
     1.2863   1.3398   1.4197   1.4566   1.5300   1.5773   1.5855   1.6066
     1.6739   1.8091   1.8430   1.9170   1.9965   2.0433   2.0646   2.0790
     2.1043   2.1265   2.1627   2.2467   2.3015   2.5177   2.5200   2.5448
     2.6818   2.6904   3.6056   3.6169   3.7432   3.7790   4.4575   6.4851
     6.9053   6.9162   7.3818   7.8064   8.8271   9.0164   9.1577   9.3225
     9.4422   9.6035   9.6532   9.8100   9.9116   9.9307   9.9512   9.9904
    10.1422

          k = 0.3750 0.0000 0.0000 ( 33964 PWs)   bands (ev):

   -36.0835 -35.4943 -22.5979 -22.5512 -22.3901 -22.3396 -17.3713 -17.2110
   -17.1091 -16.9363 -16.7912 -16.5325 -14.9670 -14.9606 -14.9285 -14.6333
   -14.5789 -14.5667 -14.5150 -14.1328 -14.1281 -14.0886 -14.0579 -13.9453
   -13.9301 -13.8310 -13.6679  -7.8471  -7.8123  -7.7777  -7.5966  -7.5861
    -7.5459  -7.4090  -7.3666  -7.3460  -7.2918  -7.1866  -7.1355  -2.8080
    -2.7539  -2.6888  -2.6224  -2.2465  -2.2340  -2.1204  -1.5795  -1.5579
    -1.4967  -1.4614  -1.4204  -1.4180  -1.2554  -1.1342  -1.1312  -1.1310
    -1.1060  -1.0557  -0.9574  -0.9334  -0.8767  -0.8271  -0.8119  -0.7961
    -0.7556  -0.6455  -0.6353  -0.5073  -0.3606  -0.3291  -0.3037  -0.1782
    -0.1526  -0.1454  -0.0991   0.0010   0.1505   0.1517   0.2572   0.2790
     0.3054   0.4882   0.5035   0.5048   0.5112   0.5247   0.5573   0.5743
     0.6327   0.8352   0.8720   0.9544   1.0612   1.2195   1.2691   1.2753
     1.3162   1.3447   1.4274   1.4366   1.5875   1.6189   1.6210   1.7123
     1.7396   1.7946   1.8391   1.8983   1.9014   1.9930   2.0113   2.1999
     2.2314   2.3296   2.4576   2.6323   2.7048   2.8776   2.8902   6.5893
     6.5964   6.9106   7.4305   7.8560   8.0843   8.0938   8.3951   8.5629
     8.7419   8.8190   9.0742   9.2723   9.4087   9.4235   9.5727   9.5797
     9.6326

          k = 0.3750 0.1320 0.0000 ( 33991 PWs)   bands (ev):

   -36.0819 -35.4926 -22.5762 -22.5294 -22.3690 -22.3186 -17.3652 -17.2035
   -17.1407 -16.9277 -16.7621 -16.5970 -14.9181 -14.9122 -14.8591 -14.5883
   -14.5319 -14.5253 -14.4548 -14.1036 -14.1023 -14.0688 -14.0386 -13.9678
   -13.9191 -13.8648 -13.6779  -7.9043  -7.8471  -7.8327  -7.7494  -7.6972
    -7.6321  -7.5261  -7.4987  -7.4706  -7.4579  -7.2765  -7.2289  -2.8697
    -2.8098  -2.7340  -2.6659  -2.2453  -2.2314  -2.1251  -1.9619  -1.9307
    -1.8145  -1.7825  -1.6132  -1.5321  -1.5320  -1.3961  -1.3655  -1.3420
    -1.2281  -1.1675  -1.1552  -1.1103  -1.0592  -0.9639  -0.8333  -0.7135
    -0.7082  -0.6005  -0.5559  -0.4648  -0.4366  -0.3336  -0.3274  -0.1860
    -0.1838  -0.0416   0.0269   0.0753   0.1259   0.1770   0.2627   0.2642
     0.3192   0.3284   0.5239   0.5260   0.5761   0.7523   0.7797   0.8466
     0.8778   0.9856   1.0524   1.0843   1.2300   1.2473   1.2682   1.3208
     1.3677   1.4117   1.4445   1.4507   1.6236   1.6445   1.6634   1.7381
     1.7457   1.7932   1.8217   1.8791   1.8891   1.9189   1.9771   2.4160
     2.8278   2.8423   2.9691   3.0268   3.0772   3.1767   3.2393   6.7381
     6.7472   6.8053   7.4581   7.9031   8.1497   8.1622   8.3196   8.5842
     8.9554   8.9958   9.1124   9.3515   9.3827   9.5244   9.5837   9.6561
     9.7235

          k = 0.3750 0.2640 0.0000 ( 33991 PWs)   bands (ev):

   -36.0781 -35.4882 -22.5229 -22.4761 -22.3175 -22.2671 -17.3512 -17.2634
   -17.1335 -16.9074 -16.7413 -16.6870 -14.7931 -14.7900 -14.6666 -14.4770
   -14.4302 -14.4098 -14.3060 -14.0666 -14.0624 -14.0450 -14.0295 -14.0058
   -13.9062 -13.8678 -13.7223  -8.2057  -8.1649  -7.9858  -7.9326  -7.8842
    -7.8255  -7.7619  -7.7294  -7.7131  -7.6341  -7.5322  -7.4958  -3.1852
    -3.1140  -2.9717  -2.9056  -2.5318  -2.4169  -2.3794  -2.3205  -2.2969
    -2.2882  -2.2706  -2.1661  -2.1596  -2.1094  -1.6948  -1.6764  -1.5471
    -1.5281  -1.4523  -1.1722  -1.1414  -0.9739  -0.8890  -0.8427  -0.8140
    -0.7909  -0.7575  -0.7034  -0.6385  -0.5643  -0.5632  -0.5275  -0.4578
    -0.4007  -0.2940  -0.2875   0.1180   0.1998   0.3563   0.5168   0.5472
     0.7078   0.7814   0.8463   0.9075   0.9143   1.0912   1.0959   1.1348
     1.2532   1.2829   1.3111   1.3365   1.4654   1.4860   1.5025   1.5280
     1.6737   1.6813   1.7194   1.7387   1.7570   1.8018   1.8203   1.8335
     1.8436   1.8674   1.8903   1.9152   1.9340   1.9794   2.2205   2.3915
     3.0723   3.0781   3.7719   3.8118   3.8448   3.9006   3.9484   6.4416
     6.7839   6.7918   7.2967   7.7277   8.4539   8.4899   8.5799   8.9205
     9.2536   9.3975   9.4962   9.5098   9.5941   9.6419   9.7651   9.8478
     9.8883

          k = 0.3750 0.3960 0.0000 ( 33993 PWs)   bands (ev):

   -36.0742 -35.4839 -22.4682 -22.4214 -22.2646 -22.2143 -17.3563 -17.3330
   -17.0908 -16.8900 -16.8681 -16.6072 -14.6551 -14.6524 -14.4141 -14.3575
   -14.3338 -14.2737 -14.1490 -14.1427 -14.1382 -14.0239 -13.9956 -13.9807
   -13.9011 -13.8236 -13.7899  -8.4715  -8.4327  -8.2484  -8.2007  -8.1365
    -8.0980  -7.9126  -7.8866  -7.8175  -7.8079  -7.7578  -7.6111  -3.6650
    -3.5882  -3.4211  -3.3542  -3.2426  -2.8602  -2.8589  -2.5470  -2.5137
    -2.4321  -2.3840  -2.1948  -2.1812  -2.1148  -2.0076  -1.9848  -1.7879
    -1.7547  -1.5445  -1.1809  -1.1258  -1.1214  -1.1194  -1.0628  -0.8759
    -0.8622  -0.8504  -0.8068  -0.7806  -0.7576  -0.7062  -0.6772  -0.6089
    -0.5217  -0.3113  -0.3075   0.2568   0.3500   0.4062   0.6655   0.7437
     0.9692   1.1001   1.1352   1.2429   1.2480   1.3185   1.3744   1.4379
     1.4493   1.5111   1.5687   1.5785   1.6102   1.6136   1.6751   1.7899
     1.8361   1.8519   1.8583   1.9210   1.9814   1.9958   2.0401   2.0615
     2.0861   2.1154   2.1748   2.2536   2.2637   2.2783   2.3154   2.5208
     2.8924   2.9001   4.2212   4.3257   4.3609   4.3886   4.4226   6.0041
     6.4807   6.4846   7.0528   7.4624   8.9729   9.0403   9.0607   9.1296
     9.2836   9.5206   9.5893   9.6082   9.6433   9.7206   9.7302   9.8391
     9.9064

          k = 0.3750-0.5279 0.0000 ( 34004 PWs)   bands (ev):

   -36.0726 -35.4821 -22.4452 -22.3984 -22.2423 -22.1921 -17.3904 -17.3296
   -17.0716 -16.9233 -16.8774 -16.5718 -14.5937 -14.5859 -14.3210 -14.3127
   -14.2104 -14.2021 -14.1925 -14.1779 -14.0606 -14.0369 -13.9779 -13.9742
   -13.9732 -13.8657 -13.7557  -8.5535  -8.5154  -8.3431  -8.2881  -8.2817
    -8.2441  -8.0703  -7.9127  -7.8957  -7.8421  -7.7948  -7.6268  -3.8720
    -3.7944  -3.6371  -3.5639  -3.4845  -3.0854  -3.0845  -2.5656  -2.5313
    -2.4464  -2.3925  -2.1890  -2.1750  -2.1150  -2.1135  -2.0903  -1.8776
    -1.8361  -1.5666  -1.2570  -1.2253  -1.1932  -1.1522  -1.1231  -0.8996
    -0.8924  -0.8734  -0.8695  -0.8517  -0.8466  -0.7954  -0.7035  -0.6337
    -0.4902  -0.2970  -0.2931   0.2911   0.3864   0.4220   0.7244   0.8325
     1.0454   1.2356   1.3002   1.3516   1.3652   1.3875   1.4094   1.4364
     1.4622   1.5844   1.6359   1.6595   1.6982   1.7953   1.8220   1.8559
     1.8758   1.9091   1.9415   2.0151   2.1120   2.1196   2.1391   2.1986
     2.2269   2.2718   2.3354   2.3740   2.4394   2.4543   2.4981   2.5855
     2.6482   2.6591   4.3113   4.4637   4.5137   4.5385   4.5702   5.8110
     6.3030   6.3060   6.9706   7.3717   8.9180   9.0758   9.1684   9.2455
     9.4225   9.4576   9.6129   9.6860   9.7002   9.7776   9.8699   9.9565
    10.0575

          k =-0.5000 0.0000 0.0000 ( 33930 PWs)   bands (ev):

   -36.0826 -35.4933 -22.5787 -22.5319 -22.3717 -22.3215 -17.4040 -17.1908
   -17.1079 -16.9887 -16.7490 -16.5311 -15.0190 -15.0141 -14.9651 -14.6153
   -14.5730 -14.4379 -14.3019 -14.2360 -14.2070 -14.1156 -14.1128 -13.9762
   -13.9758 -13.8435 -13.6816  -7.8370  -7.8141  -7.7647  -7.5772  -7.5630
    -7.5254  -7.3728  -7.3303  -7.3302  -7.2812  -7.1531  -7.1019  -2.9500
    -2.8948  -2.8285  -2.7675  -2.2714  -2.2624  -2.1199  -1.5682  -1.5330
    -1.5318  -1.4967  -1.3200  -1.2921  -1.2810  -1.2433  -1.1375  -1.1349
    -1.1348  -1.1344  -1.0909  -1.0300  -0.9930  -0.9327  -0.9097  -0.8183
    -0.7772  -0.7289  -0.7192  -0.5772  -0.4225  -0.3755  -0.3258  -0.1929
    -0.1444  -0.1322  -0.1033  -0.0749   0.1452   0.1464   0.2255   0.2763
     0.2806   0.4879   0.4880   0.4984   0.5139   0.5225   0.5277   0.5723
     0.6468   0.8619   0.8863   0.9342   1.0058   1.2188   1.2251   1.2922
     1.4441   1.4553   1.4822   1.5172   1.5651   1.6762   1.7185   1.7237
     1.7387   1.7448   1.8455   1.9493   1.9547   1.9720   2.0429   2.2162
     2.2404   2.3193   2.4621   2.6280   2.7231   2.9023   2.9272   7.0466
     7.3619   7.3823   7.4127   7.4140   7.9893   8.2180   8.3567   8.6315
     9.0248   9.1025   9.1386   9.4238   9.5073   9.5413   9.6800   9.7044
     9.8812

          k =-0.5000 0.1320 0.0000 ( 33986 PWs)   bands (ev):

   -36.0810 -35.4915 -22.5579 -22.5111 -22.3515 -22.3013 -17.3979 -17.1887
   -17.1344 -16.9795 -16.7215 -16.5948 -14.9608 -14.9567 -14.8915 -14.5721
   -14.5336 -14.3978 -14.2616 -14.1780 -14.1724 -14.0933 -14.0908 -13.9986
   -13.9457 -13.8809 -13.6850  -7.8755  -7.8295  -7.8071  -7.6924  -7.6551
    -7.6027  -7.5757  -7.5312  -7.4576  -7.3960  -7.3679  -7.3137  -3.0181
    -2.9569  -2.8817  -2.8189  -2.2764  -2.2660  -2.1363  -1.9310  -1.8952
    -1.7654  -1.7263  -1.6048  -1.5270  -1.5266  -1.4291  -1.4096  -1.3969
    -1.3428  -1.2743  -1.2556  -1.2167  -1.0746  -0.9943  -0.8497  -0.7846
    -0.7775  -0.6128  -0.5660  -0.5042  -0.4529  -0.3700  -0.3643  -0.2076
    -0.2056  -0.0681   0.0125   0.0799   0.1344   0.1772   0.2647   0.2655
     0.3153   0.4338   0.4351   0.5993   0.5995   0.6754   0.7236   0.8272
     0.8633   0.9856   1.0712   1.1070   1.1784   1.2529   1.2665   1.3643
     1.3698   1.4137   1.5030   1.5407   1.6629   1.7179   1.7209   1.7670
     1.8014   1.8257   1.8337   1.9160   1.9622   1.9870   2.0069   2.3900
     2.8342   2.8412   2.9791   3.0448   3.0942   3.2236   3.2929   6.8433
     7.2095   7.2296   7.6677   7.7167   7.8815   8.1716   8.2617   8.5650
     9.2901   9.3427   9.3809   9.5042   9.5566   9.6298   9.6669   9.8472
     9.8845

          k =-0.5000 0.2640 0.0000 ( 33976 PWs)   bands (ev):

   -36.0771 -35.4872 -22.5070 -22.4602 -22.3020 -22.2518 -17.3833 -17.2612
   -17.1157 -16.9575 -16.7380 -16.6505 -14.8088 -14.8044 -14.6868 -14.4674
   -14.4389 -14.3002 -14.1600 -14.0991 -14.0810 -14.0528 -14.0414 -14.0404
   -13.9476 -13.8711 -13.7165  -8.1445  -8.1001  -7.9936  -7.9567  -7.9508
    -7.8650  -7.8253  -7.7645  -7.7586  -7.7350  -7.6544  -7.5647  -3.3235
    -3.2513  -3.1122  -3.0513  -2.5229  -2.4424  -2.4048  -2.3414  -2.3100
    -2.2962  -2.2864  -2.1740  -2.1697  -2.1164  -1.8235  -1.7947  -1.6268
    -1.5800  -1.5308  -1.0929  -1.0517  -0.9350  -0.8840  -0.8798  -0.8415
    -0.8024  -0.7929  -0.7462  -0.6649  -0.5894  -0.5879  -0.5280  -0.4779
    -0.4048  -0.3099  -0.3048   0.1361   0.2122   0.4058   0.5737   0.5890
     0.7511   0.8199   0.9134   0.9362   0.9380   1.1576   1.1749   1.1815
     1.2574   1.2745   1.2817   1.2848   1.4667   1.5189   1.5584   1.5954
     1.6802   1.6873   1.7806   1.7873   1.8145   1.8294   1.8469   1.8841
     1.8996   1.9425   1.9662   1.9978   2.0326   2.0715   2.1086   2.3350
     3.0653   3.0710   3.7895   3.9488   3.9685   4.0300   4.0779   6.3221
     6.7797   6.7941   7.2478   7.6603   8.5155   8.5275   8.6667   9.1085
     9.3405   9.4698   9.5461   9.6743   9.7128   9.8349   9.8888   9.9298
     9.9818

          k =-0.5000 0.3960 0.0000 ( 33992 PWs)   bands (ev):

   -36.0733 -35.4828 -22.4548 -22.4080 -22.2514 -22.2012 -17.3690 -17.3504
   -17.0738 -16.9359 -16.8672 -16.5749 -14.6259 -14.6202 -14.4196 -14.3729
   -14.3411 -14.2041 -14.1354 -14.1274 -14.0528 -14.0184 -13.9923 -13.9911
   -13.8877 -13.8216 -13.7953  -8.5197  -8.4805  -8.3039  -8.2816  -8.2491
    -8.2450  -8.0670  -7.9032  -7.8917  -7.8338  -7.8235  -7.6148  -3.7952
    -3.7167  -3.5356  -3.4724  -3.2439  -2.8516  -2.8507  -2.6168  -2.5848
    -2.4974  -2.4560  -2.2111  -2.2020  -2.1288  -2.1177  -2.0729  -1.8565
    -1.7845  -1.5983  -1.1496  -1.1347  -1.0986  -1.0222  -1.0041  -0.9618
    -0.9385  -0.8381  -0.8029  -0.7999  -0.7696  -0.7557  -0.6963  -0.6842
    -0.5014  -0.2731  -0.2693   0.2809   0.3716   0.4635   0.7700   0.8403
     1.0734   1.2138   1.2165   1.3596   1.3656   1.3845   1.4086   1.4712
     1.4906   1.5241   1.6311   1.6461   1.6471   1.6735   1.7110   1.8330
     1.8376   1.8973   1.9430   1.9608   2.0280   2.0793   2.0931   2.1309
     2.1477   2.1615   2.2294   2.2333   2.3018   2.3724   2.4420   2.4678
     2.8802   2.8885   4.2225   4.5906   4.6046   4.6372   4.6659   5.7843
     6.2847   6.2928   6.9144   7.3117   8.9413   9.0090   9.0594   9.2121
     9.3325   9.4678   9.5253   9.7136   9.7181   9.7891   9.7950   9.8419
     9.9462

          k =-0.5000-0.5279 0.0000 ( 34028 PWs)   bands (ev):

   -36.0716 -35.4811 -22.4328 -22.3860 -22.2300 -22.1799 -17.3868 -17.3631
   -17.0553 -16.9271 -16.9178 -16.5414 -14.5282 -14.5222 -14.3532 -14.3469
   -14.1923 -14.1807 -14.1596 -14.1550 -14.0095 -13.9922 -13.9693 -13.9685
   -13.9513 -13.8474 -13.7660  -8.6657  -8.6274  -8.4540  -8.4004  -8.3977
    -8.3611  -8.1912  -7.9842  -7.9312  -7.8617  -7.8400  -7.6319  -4.0037
    -3.9236  -3.7397  -3.6733  -3.5051  -3.0759  -3.0753  -2.6492  -2.6164
    -2.5242  -2.4820  -2.2121  -2.2012  -2.1922  -2.1603  -2.1286  -1.9316
    -1.8514  -1.6194  -1.2638  -1.2498  -1.1488  -1.0857  -1.0675  -0.9371
    -0.9132  -0.8971  -0.8955  -0.8737  -0.8719  -0.7966  -0.7885  -0.7129
    -0.4579  -0.2443  -0.2413   0.3184   0.4098   0.4777   0.8481   0.9633
     1.1798   1.3169   1.4320   1.4485   1.4487   1.4595   1.4886   1.4923
     1.5168   1.6668   1.6779   1.7218   1.7242   1.7588   1.9104   1.9411
     1.9763   1.9970   2.0518   2.0863   2.1393   2.1499   2.2145   2.2344
     2.2808   2.3019   2.4234   2.4257   2.4785   2.5152   2.6175   2.6235
     2.6360   2.6378   4.3106   4.7832   4.8077   4.8477   4.8680   5.5522
     6.0576   6.0632   6.8205   7.2083   8.9238   9.0083   9.1161   9.1407
     9.1855   9.2240   9.5398   9.6337   9.6590   9.6913   9.7939   9.9188
    10.0971

     the Fermi energy is     2.6527 ev

!    total energy              =   -1842.89194248 Ry
     Harris-Foulkes estimate   =   -1842.89194248 Ry
     estimated scf accuracy    <          9.3E-11 Ry

     The total energy is the sum of the following terms:

     one-electron contribution =  -30711.09234381 Ry
     hartree contribution      =   15509.24435492 Ry
     xc contribution           =    -621.75471519 Ry
     ewald contribution        =   13980.71884708 Ry
     smearing contrib. (-TS)   =      -0.00808547 Ry

     convergence has been achieved in  38 iterations

     negative rho (up, down):  1.494E-03 0.000E+00

     Forces acting on atoms (cartesian axes, Ry/au):

     atom    1 type  4   force =     0.00000000    0.00000000   -0.00015422
     atom    2 type  3   force =     0.00000000    0.00000000    0.00038358
     atom    3 type  4   force =     0.00000000    0.00000000   -0.00074997
     atom    4 type  1   force =     0.00000000    0.00000000   -0.00028731
     atom    5 type  3   force =     0.00000000    0.00000000    0.00055992
     atom    6 type  4   force =     0.00000000    0.00000000   -0.00001839
     atom    7 type  4   force =     0.00000000    0.00000000    0.00034490
     atom    8 type  2   force =     0.00000000    0.00000000   -0.00060413
     atom    9 type  4   force =     0.00000000    0.00000000    0.00022864
     atom   10 type  4   force =     0.00000000    0.00000000    0.00017821
     atom   11 type  3   force =     0.00000000    0.00000000    0.00025736
     atom   12 type  1   force =     0.00000000    0.00000000    0.00023833
     atom   13 type  4   force =     0.00000000    0.00000000    0.00131252
     atom   14 type  4   force =     0.00000000    0.00000000    0.00050402
     atom   15 type  3   force =     0.00000000    0.00000000   -0.00079207
     atom   16 type  4   force =     0.00000000    0.00000000   -0.00055808
     atom   17 type  1   force =     0.00000000    0.00000000   -0.00319714
     atom   18 type  3   force =     0.00000000    0.00000000    0.00065976
     atom   19 type  4   force =     0.00000000    0.00000000    0.01186392
     atom   20 type  4   force =     0.00000000    0.00000000    0.01337544
     atom   21 type  2   force =     0.00000000    0.00000000    0.02042482
     atom   22 type  4   force =     0.00000000    0.00000000   -0.01615246
     atom   23 type  4   force =     0.00000000    0.00000000   -0.01457105
     atom   24 type  3   force =     0.00000000    0.00000000   -0.00559861
     atom   25 type  1   force =     0.00000000    0.00000000   -0.00813091
     atom   26 type  4   force =     0.00000000    0.00000000    0.00079729
     atom   27 type  3   force =     0.00000000    0.00000000   -0.00056992
     atom   28 type  4   force =     0.00000000    0.00000000    0.00025555

     Total force =     0.035389     Total SCF correction =     0.000007


     Computing stress (Cartesian axis) and pressure


     negative rho (up, down):  1.494E-03 0.000E+00
          total   stress  (Ry/bohr**3)                   (kbar)     P=       -3.49
  -0.00000808   0.00000000   0.00000000           -1.19        0.00        0.00
   0.00000000  -0.00000406   0.00000000            0.00       -0.60        0.00
   0.00000000   0.00000000  -0.00005897            0.00        0.00       -8.68


     number of scf cycles    =   6
     number of bfgs steps    =   2

     energy   old            =   -1842.8901462644 Ry
     energy   new            =   -1842.8919424760 Ry

     CASE: energy  _new < energy  _old


     WARNING: bfgs curvature condition failed, Theta= 0.830
     new trust radius        =       0.4882847982 bohr
     new conv_thr            =            1.8E-12 Ry


ATOMIC_POSITIONS (angstrom)
O             0.0000000000        1.8611200000       -0.1846200000    0   0   0
Cu            0.0000000000        0.0000000000        0.1039800000    0   0   0
O             0.0000000000        0.0000000000        1.9772600000    0   0   0
Ba            1.9651100000        1.8611200000        2.2364100000    0   0   0
Cu            0.0000000000        0.0000000000        4.0773100000    0   0   0
O             1.9651100000        0.0000000000        4.2321000000    0   0   0
O             0.0000000000        1.8611200000        4.3692200000    0   0   0
Ca            1.9651100000        1.8611200000        5.8860000000    0   0   0
O             0.0000000000        1.8611200000        7.3367500000    0   0   0
O             1.9651100000        0.0000000000        7.4847600000    0   0   0
Cu            0.0000000000        0.0000000000        7.6688600000    0   0   0
Ba            1.9651100000        1.8611200000        9.5594232696    0   0   0
O             0.0000000000        0.0000000000        9.8759158490    0   0   0
O             0.0000000000        1.8611200000       11.7788292207    0   0   0
Cu            0.0000000000        0.0000000000       11.8468713204    0   0   0
O             0.0000000000        0.0000000000       13.8080261226
Ba            1.9651100000        1.8611200000       14.1950583323
Cu            0.0000000000        0.0000000000       16.0881630812
O             1.9651100000        0.0000000000       16.2888758092
O             0.0000000000        1.8611200000       16.4348128798
Ca            1.9651100000        1.8611200000       17.8899791865
O             0.0000000000        1.8611200000       19.3932256501
O             1.9651100000        0.0000000000       19.5308483288
Cu            0.0000000000        0.0000000000       19.6885003823
Ba            1.9651100000        1.8611200000       21.5311700000    0   0   0
O             0.0000000000        0.0000000000       21.7902800000    0   0   0
Cu            0.0000000000        0.0000000000       23.6635800000    0   0   0
O             0.0000000000        1.8611200000       23.9521300000    0   0   0


     NEW-OLD atomic charge density approx. for the potential

     negative rho (up, down):  3.246E-03 0.000E+00

     total cpu time spent up to now is      651.7 secs

     Self-consistent Calculation

     iteration #  1     ecut=    60.00 Ry     beta= 0.70
     Davidson diagonalization with overlap
     c_bands:  1 eigenvalues not converged
     c_bands:  1 eigenvalues not converged
     c_bands:  1 eigenvalues not converged
     c_bands:  2 eigenvalues not converged
     c_bands:  1 eigenvalues not converged
     c_bands:  1 eigenvalues not converged
     ethr =  1.00E-06,  avg # of iterations = 16.2

     negative rho (up, down):  1.976E-03 0.000E+00

     total cpu time spent up to now is      713.2 secs

     total energy              =   -1842.84479395 Ry
     Harris-Foulkes estimate   =   -1842.92128564 Ry
     estimated scf accuracy    <       1.39269425 Ry

     iteration #  2     ecut=    60.00 Ry     beta= 0.70
     Davidson diagonalization with overlap
     ethr =  6.14E-04,  avg # of iterations =  1.0

     negative rho (up, down):  1.775E-03 0.000E+00

     total cpu time spent up to now is      726.7 secs

     total energy              =   -1842.84672901 Ry
     Harris-Foulkes estimate   =   -1842.94896287 Ry
     estimated scf accuracy    <       1.69976738 Ry

     iteration #  3     ecut=    60.00 Ry     beta= 0.70
     Davidson diagonalization with overlap
     ethr =  6.14E-04,  avg # of iterations =  1.0

     negative rho (up, down):  1.716E-03 0.000E+00

     total cpu time spent up to now is      740.4 secs

     total energy              =   -1842.89470638 Ry
     Harris-Foulkes estimate   =   -1842.91070775 Ry
     estimated scf accuracy    <       0.36923007 Ry

     iteration #  4     ecut=    60.00 Ry     beta= 0.70
     Davidson diagonalization with overlap
     ethr =  1.63E-04,  avg # of iterations =  1.0

     negative rho (up, down):  1.488E-03 0.000E+00

     total cpu time spent up to now is      754.1 secs

     total energy              =   -1842.89492062 Ry
     Harris-Foulkes estimate   =   -1842.90145344 Ry
     estimated scf accuracy    <       0.13116730 Ry

     iteration #  5     ecut=    60.00 Ry     beta= 0.70
     Davidson diagonalization with overlap
     ethr =  5.78E-05,  avg # of iterations =  5.2

     negative rho (up, down):  1.431E-03 0.000E+00

     total cpu time spent up to now is      772.6 secs

     total energy              =   -1842.89497854 Ry
     Harris-Foulkes estimate   =   -1842.89948178 Ry
     estimated scf accuracy    <       0.05277022 Ry

     iteration #  6     ecut=    60.00 Ry     beta= 0.70
     Davidson diagonalization with overlap
     ethr =  2.32E-05,  avg # of iterations =  3.4

     negative rho (up, down):  1.408E-03 0.000E+00

     total cpu time spent up to now is      788.8 secs

     total energy              =   -1842.89715992 Ry
     Harris-Foulkes estimate   =   -1842.89757528 Ry
     estimated scf accuracy    <       0.04073926 Ry

     iteration #  7     ecut=    60.00 Ry     beta= 0.70
     Davidson diagonalization with overlap
     ethr =  1.79E-05,  avg # of iterations =  1.5

     negative rho (up, down):  1.308E-03 0.000E+00

     total cpu time spent up to now is      802.8 secs

     total energy              =   -1842.89702908 Ry
     Harris-Foulkes estimate   =   -1842.89744986 Ry
     estimated scf accuracy    <       0.01163465 Ry

     iteration #  8     ecut=    60.00 Ry     beta= 0.70
     Davidson diagonalization with overlap
     ethr =  5.13E-06,  avg # of iterations =  8.6

     negative rho (up, down):  1.246E-03 0.000E+00

     total cpu time spent up to now is      825.0 secs

     total energy              =   -1842.89705755 Ry
     Harris-Foulkes estimate   =   -1842.89729072 Ry
     estimated scf accuracy    <       0.01236229 Ry

     iteration #  9     ecut=    60.00 Ry     beta= 0.70
     Davidson diagonalization with overlap
     ethr =  5.13E-06,  avg # of iterations =  1.0

     negative rho (up, down):  1.247E-03 0.000E+00

     total cpu time spent up to now is      838.7 secs

     total energy              =   -1842.89709061 Ry
     Harris-Foulkes estimate   =   -1842.89718784 Ry
     estimated scf accuracy    <       0.00291777 Ry

     iteration # 10     ecut=    60.00 Ry     beta= 0.70
     Davidson diagonalization with overlap
     ethr =  1.29E-06,  avg # of iterations =  1.8

     negative rho (up, down):  1.242E-03 0.000E+00

     total cpu time spent up to now is      853.0 secs

     total energy              =   -1842.89711139 Ry
     Harris-Foulkes estimate   =   -1842.89714705 Ry
     estimated scf accuracy    <       0.00146182 Ry

     iteration # 11     ecut=    60.00 Ry     beta= 0.70
     Davidson diagonalization with overlap
     ethr =  6.44E-07,  avg # of iterations =  1.4

     negative rho (up, down):  1.248E-03 0.000E+00

     total cpu time spent up to now is      866.9 secs

     total energy              =   -1842.89712693 Ry
     Harris-Foulkes estimate   =   -1842.89712995 Ry
     estimated scf accuracy    <       0.00059723 Ry

     iteration # 12     ecut=    60.00 Ry     beta= 0.70
     Davidson diagonalization with overlap
     ethr =  2.63E-07,  avg # of iterations =  1.0

     negative rho (up, down):  1.253E-03 0.000E+00

     total cpu time spent up to now is      880.5 secs

     total energy              =   -1842.89712646 Ry
     Harris-Foulkes estimate   =   -1842.89713069 Ry
     estimated scf accuracy    <       0.00067974 Ry

     iteration # 13     ecut=    60.00 Ry     beta= 0.70
     Davidson diagonalization with overlap
     ethr =  2.63E-07,  avg # of iterations =  1.0

     negative rho (up, down):  1.267E-03 0.000E+00

     total cpu time spent up to now is      894.0 secs

     total energy              =   -1842.89712495 Ry
     Harris-Foulkes estimate   =   -1842.89712946 Ry
     estimated scf accuracy    <       0.00038806 Ry

     iteration # 14     ecut=    60.00 Ry     beta= 0.70
     Davidson diagonalization with overlap
     ethr =  1.71E-07,  avg # of iterations =  1.6

     negative rho (up, down):  1.310E-03 0.000E+00

     total cpu time spent up to now is      908.2 secs

     total energy              =   -1842.89712321 Ry
     Harris-Foulkes estimate   =   -1842.89712706 Ry
     estimated scf accuracy    <       0.00010885 Ry

     iteration # 15     ecut=    60.00 Ry     beta= 0.70
     Davidson diagonalization with overlap
     ethr =  4.79E-08,  avg # of iterations =  1.0

     negative rho (up, down):  1.313E-03 0.000E+00

     total cpu time spent up to now is      922.2 secs

     total energy              =   -1842.89712391 Ry
     Harris-Foulkes estimate   =   -1842.89712530 Ry
     estimated scf accuracy    <       0.00003449 Ry

     iteration # 16     ecut=    60.00 Ry     beta= 0.70
     Davidson diagonalization with overlap
     ethr =  1.52E-08,  avg # of iterations =  1.1

     negative rho (up, down):  1.335E-03 0.000E+00

     total cpu time spent up to now is      935.9 secs

     total energy              =   -1842.89712445 Ry
     Harris-Foulkes estimate   =   -1842.89712547 Ry
     estimated scf accuracy    <       0.00007793 Ry

     iteration # 17     ecut=    60.00 Ry     beta= 0.70
     Davidson diagonalization with overlap
     ethr =  1.52E-08,  avg # of iterations =  1.0

     negative rho (up, down):  1.371E-03 0.000E+00

     total cpu time spent up to now is      949.6 secs

     total energy              =   -1842.89712428 Ry
     Harris-Foulkes estimate   =   -1842.89712487 Ry
     estimated scf accuracy    <       0.00002807 Ry

     iteration # 18     ecut=    60.00 Ry     beta= 0.70
     Davidson diagonalization with overlap
     ethr =  1.24E-08,  avg # of iterations =  1.0

     negative rho (up, down):  1.375E-03 0.000E+00

     total cpu time spent up to now is      963.4 secs

     total energy              =   -1842.89712438 Ry
     Harris-Foulkes estimate   =   -1842.89712479 Ry
     estimated scf accuracy    <       0.00000738 Ry

     iteration # 19     ecut=    60.00 Ry     beta= 0.70
     Davidson diagonalization with overlap
     ethr =  3.25E-09,  avg # of iterations =  1.1

     negative rho (up, down):  1.391E-03 0.000E+00

     total cpu time spent up to now is      977.0 secs

     total energy              =   -1842.89712451 Ry
     Harris-Foulkes estimate   =   -1842.89712463 Ry
     estimated scf accuracy    <       0.00000247 Ry

     iteration # 20     ecut=    60.00 Ry     beta= 0.70
     Davidson diagonalization with overlap
     ethr =  1.09E-09,  avg # of iterations =  1.4

     negative rho (up, down):  1.401E-03 0.000E+00

     total cpu time spent up to now is      991.0 secs

     total energy              =   -1842.89712449 Ry
     Harris-Foulkes estimate   =   -1842.89712456 Ry
     estimated scf accuracy    <       0.00000099 Ry

     iteration # 21     ecut=    60.00 Ry     beta= 0.70
     Davidson diagonalization with overlap
     ethr =  4.38E-10,  avg # of iterations =  1.2

     negative rho (up, down):  1.421E-03 0.000E+00

     total cpu time spent up to now is     1004.6 secs

     total energy              =   -1842.89712444 Ry
     Harris-Foulkes estimate   =   -1842.89712455 Ry
     estimated scf accuracy    <       0.00000171 Ry

     iteration # 22     ecut=    60.00 Ry     beta= 0.70
     Davidson diagonalization with overlap
     ethr =  4.38E-10,  avg # of iterations =  1.0

     negative rho (up, down):  1.441E-03 0.000E+00

     total cpu time spent up to now is     1018.2 secs

     total energy              =   -1842.89712443 Ry
     Harris-Foulkes estimate   =   -1842.89712449 Ry
     estimated scf accuracy    <       0.00000065 Ry

     iteration # 23     ecut=    60.00 Ry     beta= 0.70
     Davidson diagonalization with overlap
     ethr =  2.87E-10,  avg # of iterations =  1.0

     negative rho (up, down):  1.449E-03 0.000E+00

     total cpu time spent up to now is     1032.0 secs

     total energy              =   -1842.89712442 Ry
     Harris-Foulkes estimate   =   -1842.89712445 Ry
     estimated scf accuracy    <       0.00000110 Ry

     iteration # 24     ecut=    60.00 Ry     beta= 0.70
     Davidson diagonalization with overlap
     ethr =  2.87E-10,  avg # of iterations =  1.0

     negative rho (up, down):  1.482E-03 0.000E+00

     total cpu time spent up to now is     1045.6 secs

     total energy              =   -1842.89712435 Ry
     Harris-Foulkes estimate   =   -1842.89712443 Ry
     estimated scf accuracy    <       0.00000041 Ry

     iteration # 25     ecut=    60.00 Ry     beta= 0.70
     Davidson diagonalization with overlap
     ethr =  1.79E-10,  avg # of iterations =  1.0

     negative rho (up, down):  1.496E-03 0.000E+00

     total cpu time spent up to now is     1059.4 secs

     total energy              =   -1842.89712433 Ry
     Harris-Foulkes estimate   =   -1842.89712436 Ry
     estimated scf accuracy    <       0.00000018 Ry

     iteration # 26     ecut=    60.00 Ry     beta= 0.70
     Davidson diagonalization with overlap
     ethr =  7.83E-11,  avg # of iterations =  1.0

     negative rho (up, down):  1.501E-03 0.000E+00

     total cpu time spent up to now is     1073.1 secs

     total energy              =   -1842.89712432 Ry
     Harris-Foulkes estimate   =   -1842.89712433 Ry
     estimated scf accuracy    <       0.00000017 Ry

     iteration # 27     ecut=    60.00 Ry     beta= 0.70
     Davidson diagonalization with overlap
     ethr =  7.33E-11,  avg # of iterations =  1.0

     negative rho (up, down):  1.510E-03 0.000E+00

     total cpu time spent up to now is     1086.7 secs

     total energy              =   -1842.89712431 Ry
     Harris-Foulkes estimate   =   -1842.89712432 Ry
     estimated scf accuracy    <          8.9E-09 Ry

     iteration # 28     ecut=    60.00 Ry     beta= 0.70
     Davidson diagonalization with overlap
     ethr =  3.91E-12,  avg # of iterations =  3.1

     negative rho (up, down):  1.509E-03 0.000E+00

     total cpu time spent up to now is     1103.0 secs

     total energy              =   -1842.89712431 Ry
     Harris-Foulkes estimate   =   -1842.89712431 Ry
     estimated scf accuracy    <          2.5E-09 Ry

     iteration # 29     ecut=    60.00 Ry     beta= 0.70
     Davidson diagonalization with overlap
     ethr =  1.10E-12,  avg # of iterations =  1.8

     negative rho (up, down):  1.512E-03 0.000E+00

     total cpu time spent up to now is     1117.2 secs

     total energy              =   -1842.89712431 Ry
     Harris-Foulkes estimate   =   -1842.89712431 Ry
     estimated scf accuracy    <          1.1E-09 Ry

     iteration # 30     ecut=    60.00 Ry     beta= 0.70
     Davidson diagonalization with overlap
     ethr =  4.64E-13,  avg # of iterations =  1.8

     negative rho (up, down):  1.511E-03 0.000E+00

     total cpu time spent up to now is     1131.6 secs

     total energy              =   -1842.89712431 Ry
     Harris-Foulkes estimate   =   -1842.89712431 Ry
     estimated scf accuracy    <          6.3E-10 Ry

     iteration # 31     ecut=    60.00 Ry     beta= 0.70
     Davidson diagonalization with overlap
     ethr =  2.76E-13,  avg # of iterations =  1.4

     negative rho (up, down):  1.511E-03 0.000E+00

     total cpu time spent up to now is     1145.5 secs

     total energy              =   -1842.89712431 Ry
     Harris-Foulkes estimate   =   -1842.89712431 Ry
     estimated scf accuracy    <          3.5E-10 Ry

     iteration # 32     ecut=    60.00 Ry     beta= 0.70
     Davidson diagonalization with overlap
     ethr =  1.56E-13,  avg # of iterations =  1.0

     negative rho (up, down):  1.512E-03 0.000E+00

     total cpu time spent up to now is     1159.1 secs

[...]

   -35.6952 -35.4885 -22.5122 -22.5120 -22.4313 -22.1942 -17.0440 -16.9202
   -16.8885 -16.8304 -16.7572 -16.6817 -14.7461 -14.7445 -14.3892 -14.3668
   -14.3602 -14.3055 -14.2713 -14.1352 -14.1343 -14.0318 -14.0187 -13.9852
   -13.9212 -13.8479 -13.6546  -8.2871  -8.2848  -8.1638  -7.9408  -7.9116
    -7.9019  -7.8076  -7.8053  -7.8045  -7.7231  -7.5755  -7.4554  -3.4171
    -3.3787  -3.2663  -3.1220  -3.1082  -2.8942  -2.8927  -2.3784  -2.3674
    -2.1672  -2.0899  -2.0493  -2.0319  -1.9050  -1.7341  -1.7072  -1.6521
    -1.5524  -1.4534  -1.3711  -1.3303  -1.1503  -1.0903  -1.0305  -0.8079
    -0.7936  -0.7740  -0.7276  -0.7257  -0.7184  -0.7092  -0.5232  -0.4671
    -0.4583  -0.3582  -0.3373   0.1835   0.2647   0.2886   0.4426   0.4978
     0.7365   0.8820   0.9248   1.0499   1.0522   1.0861   1.1023   1.3159
     1.3324   1.3482   1.3798   1.3966   1.4050   1.5166   1.5774   1.6037
     1.6487   1.6794   1.7214   1.7875   1.8075   1.8541   1.8811   1.9162
     1.9678   1.9977   2.0088   2.1660   2.1744   2.3278   2.3300   2.5118
     2.8880   2.8931   3.5754   3.5790   3.7099   3.7374   4.2126   6.6490
     6.9322   6.9402   7.6683   7.8332   8.8088   8.8637   8.8890   8.9373
     9.1676   9.2125   9.6551   9.7563   9.7714   9.8228   9.8894  10.0083
    10.0183

          k = 0.2500-0.5279 0.0000 ( 33964 PWs)   bands (ev):

   -35.6934 -35.4867 -22.4866 -22.4865 -22.4076 -22.1700 -17.0883 -16.9387
   -16.9149 -16.7986 -16.7517 -16.6421 -14.7411 -14.7389 -14.2975 -14.2894
   -14.2797 -14.2482 -14.1903 -14.1467 -14.1331 -14.0901 -13.9970 -13.9951
   -13.9942 -13.8813 -13.6655  -8.2883  -8.2850  -8.1909  -7.9998  -7.9980
    -7.9438  -7.8714  -7.8652  -7.8606  -7.7991  -7.5933  -7.5638  -3.6197
    -3.5789  -3.5281  -3.3124  -3.3040  -3.1220  -3.1204  -2.3858  -2.3756
    -2.1655  -2.0454  -2.0064  -1.9751  -1.8971  -1.8682  -1.8655  -1.7932
    -1.6884  -1.4920  -1.3967  -1.3611  -1.2199  -1.1747  -1.1267  -0.8813
    -0.8550  -0.8399  -0.8012  -0.7870  -0.7410  -0.7337  -0.5142  -0.4814
    -0.4717  -0.3858  -0.3665   0.2170   0.2944   0.3085   0.4640   0.5312
     0.7640   0.9424   1.0339   1.1124   1.1268   1.1526   1.1564   1.2671
     1.2731   1.3439   1.4198   1.4515   1.5130   1.5489   1.5717   1.5769
     1.6606   1.7948   1.8198   1.9614   1.9887   2.0432   2.0652   2.0700
     2.1025   2.1178   2.1587   2.1623   2.3348   2.5036   2.5057   2.5547
     2.6654   2.6725   3.5929   3.5987   3.7420   3.7715   4.3423   6.5633
     6.8941   6.9043   7.6234   7.8032   8.8551   8.9280   9.2027   9.3196
     9.5615   9.5922   9.6992   9.8842   9.8984   9.9448  10.0236  10.0915
    10.1486

          k = 0.3750 0.0000 0.0000 ( 33964 PWs)   bands (ev):

   -35.7027 -35.4964 -22.6097 -22.6092 -22.5233 -22.2874 -17.0745 -16.9394
   -16.9292 -16.7926 -16.7358 -16.5347 -14.9748 -14.9709 -14.8471 -14.5894
   -14.5776 -14.5509 -14.5086 -14.1440 -14.1408 -14.0793 -14.0573 -13.9226
   -13.8829 -13.8265 -13.5881  -7.8672  -7.8581  -7.8487  -7.5987  -7.5981
    -7.5921  -7.5033  -7.4208  -7.4201  -7.3024  -7.2239  -7.0765  -2.8192
    -2.7950  -2.6343  -2.6093  -2.2586  -2.2514  -1.9862  -1.5893  -1.5744
    -1.5004  -1.4859  -1.4456  -1.4246  -1.1661  -1.1451  -1.1429  -1.0793
    -1.0625  -1.0209  -0.9451  -0.9212  -0.8414  -0.8174  -0.8012  -0.7848
    -0.7780  -0.6575  -0.6527  -0.4796  -0.3712  -0.3272  -0.2473  -0.1866
    -0.1667  -0.1555  -0.0490   0.0241   0.1373   0.1397   0.2479   0.2642
     0.3346   0.4759   0.4922   0.4959   0.5051   0.5213   0.5727   0.6226
     0.6452   0.8161   0.8342   1.0032   1.0119   1.2155   1.2547   1.2572
     1.2971   1.3222   1.4172   1.4251   1.5791   1.5938   1.6091   1.6892
     1.7335   1.8263   1.8297   1.8608   1.8980   1.9724   2.0010   2.1924
     2.2228   2.3317   2.4685   2.6234   2.6772   2.8586   2.8769   6.5756
     6.5773   6.9482   7.7114   7.8578   8.0693   8.0724   8.4532   8.5629
     8.6551   8.8362   9.3640   9.3964   9.4036   9.5224   9.5696   9.5760
     9.5999

          k = 0.3750 0.1320 0.0000 ( 33991 PWs)   bands (ev):

   -35.7010 -35.4946 -22.5880 -22.5875 -22.5028 -22.2666 -17.0671 -16.9308
   -16.9052 -16.7893 -16.7635 -16.5992 -14.9269 -14.9233 -14.7784 -14.5487
   -14.5350 -14.4952 -14.4497 -14.1170 -14.1141 -14.0549 -14.0394 -13.9308
   -13.8951 -13.8570 -13.5916  -7.9161  -7.9103  -7.8859  -7.7613  -7.7584
    -7.6609  -7.6117  -7.5113  -7.5104  -7.4248  -7.4040  -7.1631  -2.8798
    -2.8526  -2.6801  -2.6503  -2.2574  -2.2499  -2.0090  -1.9694  -1.9439
    -1.8107  -1.7848  -1.5753  -1.5465  -1.5439  -1.3947  -1.3826  -1.2617
    -1.2387  -1.2130  -1.1283  -1.0986  -0.9930  -0.9297  -0.7692  -0.7206
    -0.7156  -0.5968  -0.5766  -0.4337  -0.4093  -0.3455  -0.3364  -0.1984
    -0.1955   0.0064   0.0163   0.0924   0.1292   0.1993   0.2503   0.2548
     0.3314   0.3731   0.5111   0.5125   0.6073   0.7452   0.7562   0.8504
     0.8725   0.9881   1.0432   1.0568   1.2228   1.2408   1.2625   1.3064
     1.3442   1.3933   1.4305   1.4328   1.6145   1.6270   1.6447   1.7165
     1.7588   1.7816   1.8201   1.8678   1.8729   1.8959   1.9636   2.4090
     2.8152   2.8262   2.9692   3.0168   3.0472   3.1770   3.2251   6.7249
     6.7262   6.8560   7.7644   7.9007   8.1361   8.1378   8.4610   8.5880
     8.8780   9.0267   9.1604   9.3616   9.4799   9.5449   9.5788   9.6909
     9.7442

          k = 0.3750 0.2640 0.0000 ( 33991 PWs)   bands (ev):

   -35.6969 -35.4903 -22.5347 -22.5344 -22.4525 -22.2154 -17.0498 -16.9191
   -16.9104 -16.8358 -16.7433 -16.6885 -14.8042 -14.8016 -14.5913 -14.4515
   -14.4369 -14.3544 -14.3023 -14.0750 -14.0719 -14.0399 -14.0390 -13.9616
   -13.8981 -13.8573 -13.6104  -8.2179  -8.2175  -8.0830  -7.8961  -7.8880
    -7.8842  -7.7882  -7.7737  -7.7737  -7.7059  -7.5720  -7.4367  -3.1919
    -3.1565  -2.9280  -2.8902  -2.4869  -2.4286  -2.4106  -2.3088  -2.3064
    -2.2774  -2.2758  -2.1781  -2.1752  -1.9793  -1.7015  -1.6879  -1.5299
    -1.5156  -1.4160  -1.1802  -1.1606  -0.9467  -0.8864  -0.8206  -0.8056
    -0.7781  -0.7559  -0.6560  -0.6210  -0.5774  -0.5754  -0.4860  -0.4072
    -0.3971  -0.3038  -0.2965   0.1098   0.1835   0.3896   0.5281   0.5367
     0.7203   0.7721   0.8811   0.8953   0.9036   1.0772   1.0799   1.1336
     1.2355   1.2812   1.2974   1.3173   1.4658   1.4747   1.4960   1.5107
     1.6536   1.7054   1.7168   1.7342   1.7606   1.7923   1.8117   1.8190
     1.8253   1.8647   1.8745   1.9038   1.9138   1.9237   2.2024   2.3944
     3.0562   3.0629   3.7306   3.7984   3.8089   3.9033   3.9362   6.5200
     6.7690   6.7726   7.5735   7.7232   8.4686   8.4782   8.7553   8.9207
     9.2509   9.4120   9.4874   9.4988   9.5769   9.6893   9.7199   9.8952
     9.9323

          k = 0.3750 0.3960 0.0000 ( 33993 PWs)   bands (ev):

   -35.6928 -35.4860 -22.4800 -22.4800 -22.4011 -22.1630 -17.0391 -17.0244
   -16.8928 -16.8704 -16.7711 -16.6086 -14.6675 -14.6668 -14.3712 -14.3551
   -14.3174 -14.1978 -14.1522 -14.1487 -14.1391 -14.0117 -14.0069 -13.9506
   -13.8811 -13.8458 -13.6354  -8.4858  -8.4833  -8.3540  -8.1495  -8.1484
    -8.1378  -8.0050  -7.8985  -7.8871  -7.8448  -7.7405  -7.5974  -3.6713
    -3.6290  -3.3785  -3.3372  -3.1982  -2.8739  -2.8721  -2.5592  -2.5406
    -2.3884  -2.3747  -2.2068  -2.1994  -2.0135  -2.0024  -1.9901  -1.7746
    -1.7493  -1.5049  -1.1759  -1.1396  -1.1374  -1.1348  -1.0538  -0.8859
    -0.8772  -0.7985  -0.7911  -0.7635  -0.7285  -0.7039  -0.6357  -0.6063
    -0.4508  -0.3253  -0.3229   0.2487   0.3302   0.4344   0.6592   0.7228
     0.9731   1.1240   1.1427   1.2297   1.2324   1.3080   1.3435   1.4248
     1.4327   1.5207   1.5538   1.5572   1.6153   1.6297   1.6701   1.7782
     1.8179   1.8355   1.8443   1.9124   1.9716   1.9993   2.0366   2.0782
     2.1102   2.1354   2.1641   2.1862   2.2513   2.2519   2.2747   2.5308
     2.8755   2.8851   4.1417   4.3121   4.3274   4.3803   4.4120   6.1002
     6.4622   6.4691   7.2795   7.4596   8.9865   9.0170   9.0512   9.1406
     9.3789   9.5093   9.5226   9.5875   9.6129   9.7085   9.7343   9.8929
     9.9088

          k = 0.3750-0.5279 0.0000 ( 34004 PWs)   bands (ev):

   -35.6910 -35.4842 -22.4570 -22.4570 -22.3794 -22.1409 -17.0771 -17.0243
   -16.9254 -16.8804 -16.7420 -16.5732 -14.6056 -14.6042 -14.3260 -14.3213
   -14.1991 -14.1956 -14.1423 -14.1187 -14.0613 -14.0072 -13.9891 -13.9861
   -13.9039 -13.8633 -13.6339  -8.5689  -8.5653  -8.4507  -8.2953  -8.2935
    -8.2243  -8.1462  -7.9243  -7.9119  -7.8911  -7.8297  -7.6106  -3.8782
    -3.8331  -3.5968  -3.5366  -3.4466  -3.0994  -3.0973  -2.5778  -2.5583
    -2.4013  -2.3799  -2.2010  -2.1934  -2.1208  -2.1100  -1.9927  -1.8612
    -1.8328  -1.5321  -1.2616  -1.2437  -1.1910  -1.1659  -1.1230  -0.8873
    -0.8846  -0.8799  -0.8720  -0.8183  -0.8017  -0.7987  -0.6652  -0.6255
    -0.4186  -0.3107  -0.3088   0.2873   0.3678   0.4453   0.7138   0.8077
     1.0450   1.2635   1.3007   1.3384   1.3452   1.3780   1.3858   1.4236
     1.4350   1.5937   1.6392   1.6588   1.6882   1.7873   1.8079   1.8406
     1.8545   1.9211   1.9396   2.0160   2.0965   2.1078   2.1274   2.2210
     2.2489   2.2905   2.3212   2.3673   2.3774   2.4423   2.4428   2.6045
     2.6303   2.6438   4.2244   4.4500   4.4784   4.5266   4.5584   5.9122
     6.2833   6.2912   7.1746   7.3707   8.8440   9.0649   9.1877   9.2300
     9.2997   9.4565   9.6413   9.6788   9.8114   9.8570   9.9044   9.9230
     9.9977

          k =-0.5000 0.0000 0.0000 ( 33930 PWs)   bands (ev):

   -35.7017 -35.4953 -22.5905 -22.5901 -22.5060 -22.2694 -17.1194 -16.9918
   -16.8949 -16.7503 -16.7345 -16.5333 -15.0281 -15.0271 -14.8810 -14.6051
   -14.5776 -14.3629 -14.2937 -14.2395 -14.2311 -14.1297 -14.1230 -13.9490
   -13.9072 -13.8398 -13.6091  -7.8583  -7.8477  -7.8373  -7.5773  -7.5769
    -7.5749  -7.5039  -7.3846  -7.3840  -7.2709  -7.2073  -7.0434  -2.9613
    -2.9357  -2.7745  -2.7571  -2.2835  -2.2774  -1.9803  -1.5738  -1.5582
    -1.5416  -1.5262  -1.3287  -1.3006  -1.1794  -1.1684  -1.1488  -1.1468
    -1.1040  -1.1008  -1.0833  -1.0694  -0.9205  -0.9126  -0.8580  -0.8287
    -0.8210  -0.7410  -0.7362  -0.5473  -0.4322  -0.3730  -0.2692  -0.2026
    -0.1563  -0.1433  -0.0538  -0.0494   0.1320   0.1344   0.2107   0.2447
     0.3278   0.4743   0.4759   0.4985   0.5087   0.5174   0.5325   0.6281
     0.6488   0.8635   0.9071   0.9285   0.9578   1.2042   1.2070   1.2814
     1.4304   1.4452   1.4748   1.4769   1.5360   1.6694   1.7012   1.7039
     1.7260   1.7267   1.8083   1.9421   1.9549   1.9810   2.0434   2.2095
     2.2325   2.3222   2.4726   2.6159   2.6905   2.8857   2.9127   7.1012
     7.3499   7.3519   7.3992   7.4020   8.2060   8.3667   8.5322   8.6248
     9.0029   9.1606   9.3603   9.4482   9.4795   9.5375   9.6384   9.7208
     9.8309

          k =-0.5000 0.1320 0.0000 ( 33986 PWs)   bands (ev):

   -35.7000 -35.4935 -22.5698 -22.5694 -22.4863 -22.2494 -17.1116 -16.9826
   -16.8728 -16.7868 -16.7227 -16.5970 -14.9711 -14.9702 -14.8085 -14.5639
   -14.5383 -14.3219 -14.2544 -14.1827 -14.1819 -14.1075 -14.1014 -13.9397
   -13.9207 -13.8759 -13.6053  -7.8873  -7.8778  -7.8694  -7.7064  -7.7043
    -7.6160  -7.5989  -7.5877  -7.5871  -7.4805  -7.3304  -7.2572  -3.0285
    -2.9997  -2.8288  -2.8056  -2.2885  -2.2821  -2.0127  -1.9392  -1.9132
    -1.7586  -1.7286  -1.5671  -1.5412  -1.5385  -1.4359  -1.4233  -1.3543
    -1.3259  -1.3013  -1.2341  -1.2058  -1.0052  -0.9550  -0.7968  -0.7933
    -0.7515  -0.6170  -0.6037  -0.4691  -0.4298  -0.3803  -0.3729  -0.2212
    -0.2193  -0.0158   0.0022   0.0975   0.1394   0.1991   0.2518   0.2539
     0.3323   0.4643   0.4822   0.5855   0.5872   0.6647   0.6908   0.8337
     0.8596   0.9702   1.0836   1.0996   1.1922   1.2357   1.2534   1.3493
     1.3531   1.3919   1.4947   1.5011   1.6442   1.6940   1.7100   1.7413
     1.7775   1.7996   1.8151   1.9439   1.9515   1.9635   2.0071   2.3844
     2.8219   2.8287   2.9760   3.0336   3.0647   3.2237   3.2772   6.9090
     7.1976   7.1986   7.6971   7.7049   8.1337   8.2561   8.4141   8.5728
     9.2566   9.3386   9.3994   9.5940   9.6368   9.6453   9.7094   9.7700
     9.8448

          k =-0.5000 0.2640 0.0000 ( 33976 PWs)   bands (ev):

   -35.6959 -35.4892 -22.5188 -22.5186 -22.4379 -22.2002 -17.0931 -16.9606
   -16.9158 -16.8066 -16.7401 -16.6518 -14.8201 -14.8196 -14.6105 -14.4655
   -14.4435 -14.2198 -14.1554 -14.0916 -14.0907 -14.0562 -14.0516 -14.0047
   -13.9361 -13.8593 -13.6089  -8.1563  -8.1543  -8.0306  -8.0077  -8.0055
    -7.8839  -7.8377  -7.8359  -7.8288  -7.7711  -7.6140  -7.5535  -3.3302
    -3.2936  -3.0713  -3.0370  -2.4782  -2.4541  -2.4353  -2.3211  -2.3180
    -2.2935  -2.2931  -2.1859  -2.1842  -1.9848  -1.8284  -1.8125  -1.6198
    -1.5781  -1.4644  -1.0976  -1.0739  -0.9050  -0.8965  -0.8959  -0.8377
    -0.8098  -0.7619  -0.6678  -0.6509  -0.6032  -0.6013  -0.4742  -0.4143
    -0.4052  -0.3240  -0.3217   0.1262   0.1946   0.4314   0.5709   0.5998
     0.7645   0.8092   0.9217   0.9262   0.9496   1.1584   1.1617   1.1660
     1.2514   1.2574   1.2637   1.2719   1.4769   1.5167   1.5478   1.5708
     1.6650   1.7022   1.7697   1.7744   1.7892   1.8389   1.8483   1.8862
     1.8967   1.9228   1.9788   1.9917   2.0042   2.0067   2.0703   2.3390
     3.0492   3.0564   3.7345   3.9371   3.9416   4.0322   4.0680   6.4105
     6.7652   6.7679   7.4989   7.6561   8.5039   8.5159   8.9283   9.1255
     9.2383   9.5771   9.6299   9.6611   9.6791   9.7145   9.8664   9.9325
     9.9775

          k =-0.5000 0.3960 0.0000 ( 33992 PWs)   bands (ev):

   -35.6918 -35.4849 -22.4666 -22.4666 -22.3885 -22.1499 -17.0748 -17.0278
   -16.9390 -16.8693 -16.7446 -16.5762 -14.6376 -14.6370 -14.3917 -14.3796
   -14.3133 -14.1416 -14.1389 -14.1156 -14.0514 -14.0069 -14.0042 -13.9492
   -13.8799 -13.8462 -13.6268  -8.5339  -8.5315  -8.4053  -8.2959  -8.2935
    -8.1867  -8.1514  -7.9148  -7.9026  -7.8771  -7.8584  -7.6047  -3.8012
    -3.7582  -3.4954  -3.4596  -3.1964  -2.8655  -2.8636  -2.6291  -2.6099
    -2.4586  -2.4488  -2.2232  -2.2173  -2.1222  -2.0958  -1.9987  -1.8411
    -1.7840  -1.5497  -1.1608  -1.1538  -1.0776  -1.0329  -1.0224  -0.9732
    -0.9628  -0.8153  -0.8136  -0.7481  -0.7215  -0.7106  -0.6906  -0.6831
    -0.4321  -0.2870  -0.2851   0.2685   0.3509   0.4892   0.7654   0.8177
     1.0695   1.2101   1.2515   1.3422   1.3507   1.3735   1.3944   1.4609
     1.4643   1.5313   1.6294   1.6344   1.6397   1.6694   1.7188   1.8143
     1.8227   1.8879   1.9228   1.9609   2.0301   2.0641   2.1108   2.1262
     2.1584   2.1815   2.2209   2.2219   2.2869   2.3293   2.3736   2.4831
     2.8634   2.8745   4.1294   4.5777   4.5851   4.6222   4.6577   5.8908
     6.2669   6.2729   7.1242   7.3093   8.9517   8.9986   9.0145   9.1269
     9.3474   9.5232   9.6081   9.6308   9.7619   9.7702   9.8630   9.9039
     9.9555

          k =-0.5000-0.5279 0.0000 ( 34028 PWs)   bands (ev):

   -35.6901 -35.4831 -22.4447 -22.4446 -22.3677 -22.1288 -17.0725 -17.0674
   -16.9301 -16.9199 -16.7170 -16.5427 -14.5402 -14.5398 -14.3609 -14.3598
   -14.1851 -14.1777 -14.1410 -14.0742 -14.0115 -13.9847 -13.9798 -13.9206
   -13.9129 -13.8409 -13.6276  -8.6812  -8.6775  -8.5565  -8.4121  -8.4096
    -8.3380  -8.2630  -7.9795  -7.9427  -7.9295  -7.8707  -7.6200  -4.0097
    -3.9642  -3.6991  -3.6574  -3.4583  -3.0900  -3.0878  -2.6615  -2.6415
    -2.4847  -2.4719  -2.2169  -2.2133  -2.2073  -2.1853  -1.9996  -1.9140
    -1.8516  -1.5780  -1.2756  -1.2682  -1.1321  -1.0970  -1.0861  -0.9473
    -0.9400  -0.9114  -0.9091  -0.8216  -0.7975  -0.7699  -0.7534  -0.7059
    -0.3928  -0.2581  -0.2563   0.3084   0.3901   0.5013   0.8376   0.9367
     1.1677   1.3527   1.4188   1.4268   1.4366   1.4419   1.4748   1.4779
     1.4875   1.6845   1.6947   1.7164   1.7387   1.7526   1.8982   1.9346
     1.9614   1.9727   2.0507   2.0798   2.1239   2.1422   2.1952   2.2549
     2.2892   2.3252   2.4104   2.4140   2.4648   2.5158   2.5209   2.6061
     2.6217   2.6564   4.2055   4.7702   4.7900   4.8268   4.8593   5.6662
     6.0384   6.0457   7.0066   7.2081   8.8629   9.0180   9.0502   9.1038
     9.1514   9.1860   9.4351   9.6933   9.7692   9.7898   9.9618   9.9619
    10.0890

     the Fermi energy is     2.6403 ev

!    total energy              =   -1842.89918746 Ry
     Harris-Foulkes estimate   =   -1842.89918746 Ry
     estimated scf accuracy    <          9.8E-13 Ry

     The total energy is the sum of the following terms:

     one-electron contribution =  -30540.61157297 Ry
     hartree contribution      =   15424.07578333 Ry
     xc contribution           =    -621.73652511 Ry
     ewald contribution        =   13895.38134890 Ry
     smearing contrib. (-TS)   =      -0.00822160 Ry

     convergence has been achieved in  33 iterations

     negative rho (up, down):  1.517E-03 0.000E+00

     Forces acting on atoms (cartesian axes, Ry/au):

     atom    1 type  4   force =     0.00000000    0.00000000   -0.00011718
     atom    2 type  3   force =     0.00000000    0.00000000    0.00034384
     atom    3 type  4   force =     0.00000000    0.00000000   -0.00073140
     atom    4 type  1   force =     0.00000000    0.00000000   -0.00028460
     atom    5 type  3   force =     0.00000000    0.00000000    0.00051635
     atom    6 type  4   force =     0.00000000    0.00000000   -0.00017520
     atom    7 type  4   force =     0.00000000    0.00000000    0.00030577
     atom    8 type  2   force =     0.00000000    0.00000000    0.00017867
     atom    9 type  4   force =     0.00000000    0.00000000   -0.00035338
     atom   10 type  4   force =     0.00000000    0.00000000   -0.00058528
     atom   11 type  3   force =     0.00000000    0.00000000    0.00261743
     atom   12 type  1   force =     0.00000000    0.00000000    0.00426578
     atom   13 type  4   force =     0.00000000    0.00000000    0.02072678
     atom   14 type  4   force =     0.00000000    0.00000000   -0.00416453
     atom   15 type  3   force =     0.00000000    0.00000000   -0.02214004
     atom   16 type  4   force =     0.00000000    0.00000000    0.01028662
     atom   17 type  1   force =     0.00000000    0.00000000   -0.00294791
     atom   18 type  3   force =     0.00000000    0.00000000    0.00456994
     atom   19 type  4   force =     0.00000000    0.00000000   -0.00125690
     atom   20 type  4   force =     0.00000000    0.00000000   -0.00119270
     atom   21 type  2   force =     0.00000000    0.00000000    0.00777771
     atom   22 type  4   force =     0.00000000    0.00000000   -0.00612527
     atom   23 type  4   force =     0.00000000    0.00000000   -0.00539342
     atom   24 type  3   force =     0.00000000    0.00000000   -0.00266254
     atom   25 type  1   force =     0.00000000    0.00000000   -0.00344845
     atom   26 type  4   force =     0.00000000    0.00000000    0.00024351
     atom   27 type  3   force =     0.00000000    0.00000000   -0.00048977
     atom   28 type  4   force =     0.00000000    0.00000000    0.00023616

     Total force =     0.016510     Total SCF correction =     0.000004


     Computing stress (Cartesian axis) and pressure


     negative rho (up, down):  1.517E-03 0.000E+00
          total   stress  (Ry/bohr**3)                   (kbar)     P=       -4.42
  -0.00001143   0.00000000   0.00000000           -1.68        0.00        0.00
   0.00000000  -0.00002063   0.00000000            0.00       -3.03        0.00
   0.00000000   0.00000000  -0.00005805            0.00        0.00       -8.54


     number of scf cycles    =  19
     number of bfgs steps    =   7

     energy   old            =   -1842.8998259657 Ry
     energy   new            =   -1842.8991874607 Ry

     CASE: energy  _new > energy  _old


 %%%%%%%%%%%%%%%%%%%%%%%%%%%%%%%%%%%%%%%%%%%%%%%%%%%%%%%%%%%%%%%%%%%%%%%%%%%%%%
     Error in routine bfgs (1):
     dE0s is positive which should never happen
 %%%%%%%%%%%%%%%%%%%%%%%%%%%%%%%%%%%%%%%%%%%%%%%%%%%%%%%%%%%%%%%%%%%%%%%%%%%%%%

     stopping ...
