
     Program PWSCF v.6.5 starts on 28Jun2021 at 19:16:48 

     This program is part of the open-source Quantum ESPRESSO suite
     for quantum simulation of materials; please cite
         "P. Giannozzi et al., J. Phys.:Condens. Matter 21 395502 (2009);
         "P. Giannozzi et al., J. Phys.:Condens. Matter 29 465901 (2017);
          URL http://www.quantum-espresso.org", 
     in publications or presentations arising from this work. More details at
     http://www.quantum-espresso.org/quote

     Parallel version (MPI), running on    20 processors

     MPI processes distributed on    15 nodes
     R & G space division:  proc/nbgrp/npool/nimage =      20
     Reading input from CBCO_BaO_cleave_0.75_sep.pwi
Warning: card &CELL ignored
Warning: card     CELL_DYNAMICS = 'BFGS' ignored
Warning: card     PRESS_CONV_THR = 5 ignored
Warning: card / ignored

     Current dimensions of program PWSCF are:
     Max number of different atomic species (ntypx) = 10
     Max number of k-points (npk) =  40000
     Max angular momentum in pseudopotentials (lmaxx) =  3

     Subspace diagonalization in iterative solution of the eigenvalue problem:
     one sub-group per band group will be used
     scalapack distributed-memory algorithm (size of sub-group:  4*  4 procs)

     Message from routine setup:
     using ibrav=0 with symmetry is DISCOURAGED, use correct ibrav instead
 
     Parallelization info
     --------------------
     sticks:   dense  smooth     PW     G-vecs:    dense   smooth      PW
     Min         149      50     14                71365    13742    2148
     Max         150      51     15                71404    13765    2191
     Sum        2991    1007    289              1427725   274999   43215
 


     bravais-lattice index     =            0
     lattice parameter (alat)  =       7.4270  a.u.
     unit-cell volume          =    4376.3515 (a.u.)^3
     number of atoms/cell      =           28
     number of atomic types    =            4
     number of electrons       =       227.00
     number of Kohn-Sham states=          137
     kinetic-energy cutoff     =      60.0000  Ry
     charge density cutoff     =     720.0000  Ry
     convergence threshold     =      1.0E-10
     mixing beta               =       0.5000
     number of iterations used =           10  local-TF  mixing
     Exchange-correlation= SLA PW PBE PBE
                           (   1   4   3   4   0   0   0)
     nstep                     =          300


     celldm(1)=   7.427040  celldm(2)=   0.000000  celldm(3)=   0.000000
     celldm(4)=   0.000000  celldm(5)=   0.000000  celldm(6)=   0.000000

     crystal axes: (cart. coord. in units of alat)
               a(1) = (   1.000000   0.000000   0.000000 )  
               a(2) = (   0.000000   0.947081   0.000000 )  
               a(3) = (   0.000000   0.000000  11.279186 )  

     reciprocal axes: (cart. coord. in units 2 pi/alat)
               b(1) = (  1.000000  0.000000  0.000000 )  
               b(2) = (  0.000000  1.055876  0.000000 )  
               b(3) = (  0.000000  0.000000  0.088659 )  


     PseudoPot. # 1 for Ba read from file:
     ./pseudo/Ba.pbe-nsp-van.UPF
     MD5 check sum: 2b9c31dd849566dd297d80989662b7a0
     Pseudo is Ultrasoft + core correction, Zval = 10.0
     Generated by new atomic code, or converted to UPF format
     Using radial grid of  907 points,  6 beta functions with: 
                l(1) =   0
                l(2) =   0
                l(3) =   1
                l(4) =   1
                l(5) =   2
                l(6) =   2
     Q(r) pseudized with  6 coefficients,  rinner =    1.200   1.200   1.200
                                                       1.200   1.200

     PseudoPot. # 2 for Ca read from file:
     ./pseudo/Ca.pbe-nsp-van.UPF
     MD5 check sum: 6471098428ff4fa451746d08035ff179
     Pseudo is Ultrasoft + core correction, Zval = 10.0
     Generated by new atomic code, or converted to UPF format
     Using radial grid of  845 points,  6 beta functions with: 
                l(1) =   0
                l(2) =   0
                l(3) =   1
                l(4) =   1
                l(5) =   2
                l(6) =   2
     Q(r) pseudized with  6 coefficients,  rinner =    1.200   1.200   1.200
                                                       1.200   1.200

     PseudoPot. # 3 for Cu read from file:
     ./pseudo/Cu.pbe-n-van_ak.UPF
     MD5 check sum: 34e3282627ffb533726feb647e090d62
     Pseudo is Ultrasoft + core correction, Zval = 11.0
     Generated by new atomic code, or converted to UPF format
     Using radial grid of  867 points,  6 beta functions with: 
                l(1) =   0
                l(2) =   0
                l(3) =   1
                l(4) =   1
                l(5) =   2
                l(6) =   2
     Q(r) pseudized with  8 coefficients,  rinner =    1.400   1.400   1.400
                                                       1.400   1.400

     PseudoPot. # 4 for O  read from file:
     ./pseudo/O.pbe-van_ak.UPF
     MD5 check sum: 783ce7fe4c79b6a4916957118fed0856
     Pseudo is Ultrasoft, Zval =  6.0
     Generated by new atomic code, or converted to UPF format
     Using radial grid of  737 points,  4 beta functions with: 
                l(1) =   0
                l(2) =   0
                l(3) =   1
                l(4) =   1
     Q(r) pseudized with  8 coefficients,  rinner =    0.800   0.800   0.800


     atomic species   valence    mass     pseudopotential
        Ba            10.00   137.32700     Ba( 1.00)
        Ca            10.00    40.07800     Ca( 1.00)
        Cu            11.00    63.54600     Cu( 1.00)
        O              6.00    15.99900     O ( 1.00)

      4 Sym. Ops. (no inversion) found



   Cartesian axes

     site n.     atom                  positions (alat units)
         1           O   tau(   1) = (   0.0000000   0.4735409  -0.0469745  )
         2           Cu  tau(   2) = (   0.0000000   0.0000000   0.0264565  )
         3           O   tau(   3) = (   0.0000000   0.0000000   0.5030914  )
         4           Ba  tau(   4) = (   0.5000000   0.4735409   0.5690292  )
         5           Cu  tau(   5) = (   0.0000000   0.0000000   1.0374254  )
         6           O   tau(   6) = (   0.5000000   0.0000000   1.0768099  )
         7           O   tau(   7) = (   0.0000000   0.4735409   1.1116985  )
         8           Ca  tau(   8) = (   0.5000000   0.4735409   1.4976260  )
         9           O   tau(   9) = (   0.0000000   0.4735409   1.8667529  )
        10           O   tau(  10) = (   0.5000000   0.0000000   1.9044124  )
        11           Cu  tau(  11) = (   0.0000000   0.0000000   1.9512546  )
        12           Ba  tau(  12) = (   0.5000000   0.4735409   2.4295764  )
        13           O   tau(  13) = (   0.0000000   0.0000000   2.5115362  )
        14           O   tau(  14) = (   0.0000000   0.4735409   2.9918528  )
        15           Cu  tau(  15) = (   0.0000000   0.0000000   2.9919088  )
        16           O   tau(  16) = (   0.0000000   0.0000000   3.4722686  )
        17           Ba  tau(  17) = (   0.5000000   0.4735409   3.5542208  )
        18           Cu  tau(  18) = (   0.0000000   0.0000000   4.2233538  )
        19           O   tau(  19) = (   0.5000000   0.0000000   4.2701959  )
        20           O   tau(  20) = (   0.0000000   0.4735409   4.3078503  )
        21           Ca  tau(  21) = (   0.5000000   0.4735409   4.6769874  )
        22           O   tau(  22) = (   0.0000000   0.4735409   5.0629123  )
        23           O   tau(  23) = (   0.5000000   0.0000000   5.0978010  )
        24           Cu  tau(  24) = (   0.0000000   0.0000000   5.1371881  )
        25           Ba  tau(  25) = (   0.5000000   0.4735409   5.6055817  )
        26           O   tau(  26) = (   0.0000000   0.0000000   5.6715093  )
        27           Cu  tau(  27) = (   0.0000000   0.0000000   6.1481493  )
        28           O   tau(  28) = (   0.0000000   0.4735409   6.2215676  )

     number of k points=    25  Gaussian smearing, width (Ry)=  0.0100
                       cart. coord. in units 2pi/alat
        k(    1) = (   0.0000000   0.0000000   0.0000000), wk =   0.0312500
        k(    2) = (   0.0000000   0.1319845   0.0000000), wk =   0.0625000
        k(    3) = (   0.0000000   0.2639689   0.0000000), wk =   0.0625000
        k(    4) = (   0.0000000   0.3959534   0.0000000), wk =   0.0625000
        k(    5) = (   0.0000000  -0.5279378   0.0000000), wk =   0.0312500
        k(    6) = (   0.1250000   0.0000000   0.0000000), wk =   0.0625000
        k(    7) = (   0.1250000   0.1319845   0.0000000), wk =   0.1250000
        k(    8) = (   0.1250000   0.2639689   0.0000000), wk =   0.1250000
        k(    9) = (   0.1250000   0.3959534   0.0000000), wk =   0.1250000
        k(   10) = (   0.1250000  -0.5279378   0.0000000), wk =   0.0625000
        k(   11) = (   0.2500000   0.0000000   0.0000000), wk =   0.0625000
        k(   12) = (   0.2500000   0.1319845   0.0000000), wk =   0.1250000
        k(   13) = (   0.2500000   0.2639689   0.0000000), wk =   0.1250000
        k(   14) = (   0.2500000   0.3959534   0.0000000), wk =   0.1250000
        k(   15) = (   0.2500000  -0.5279378   0.0000000), wk =   0.0625000
        k(   16) = (   0.3750000   0.0000000   0.0000000), wk =   0.0625000
        k(   17) = (   0.3750000   0.1319845   0.0000000), wk =   0.1250000
        k(   18) = (   0.3750000   0.2639689   0.0000000), wk =   0.1250000
        k(   19) = (   0.3750000   0.3959534   0.0000000), wk =   0.1250000
        k(   20) = (   0.3750000  -0.5279378   0.0000000), wk =   0.0625000
        k(   21) = (  -0.5000000   0.0000000   0.0000000), wk =   0.0312500
        k(   22) = (  -0.5000000   0.1319845   0.0000000), wk =   0.0625000
        k(   23) = (  -0.5000000   0.2639689   0.0000000), wk =   0.0625000
        k(   24) = (  -0.5000000   0.3959534   0.0000000), wk =   0.0625000
        k(   25) = (  -0.5000000  -0.5279378   0.0000000), wk =   0.0312500

     Dense  grid:  1427725 G-vectors     FFT dimensions: (  64,  64, 720)

     Smooth grid:   274999 G-vectors     FFT dimensions: (  40,  36, 432)

     Estimated max dynamical RAM per process >     455.52 MB

     Estimated total dynamical RAM >       8.90 GB

     Initial potential from superposition of free atoms

     starting charge  226.84630, renormalised to  227.00000

     negative rho (up, down):  3.473E-03 0.000E+00
     Starting wfcs are  195 randomized atomic wfcs

     total cpu time spent up to now is       10.3 secs

     Self-consistent Calculation

     iteration #  1     ecut=    60.00 Ry     beta= 0.50
     Davidson diagonalization with overlap
     ethr =  1.00E-02,  avg # of iterations =  2.0

     negative rho (up, down):  4.828E-04 0.000E+00

     total cpu time spent up to now is       26.0 secs

     total energy              =   -1840.93067792 Ry
     Harris-Foulkes estimate   =   -1845.35116982 Ry
     estimated scf accuracy    <      17.61296606 Ry

     iteration #  2     ecut=    60.00 Ry     beta= 0.50
     Davidson diagonalization with overlap
     ethr =  7.76E-03,  avg # of iterations =  2.0

     negative rho (up, down):  2.529E-04 0.000E+00

     total cpu time spent up to now is       41.5 secs

     total energy              =   -1842.51547453 Ry
     Harris-Foulkes estimate   =   -1843.26934984 Ry
     estimated scf accuracy    <       5.32467188 Ry

     iteration #  3     ecut=    60.00 Ry     beta= 0.50
     Davidson diagonalization with overlap
     ethr =  2.35E-03,  avg # of iterations =  1.2

     negative rho (up, down):  2.355E-04 0.000E+00

     total cpu time spent up to now is       55.9 secs

     total energy              =   -1842.85009124 Ry
     Harris-Foulkes estimate   =   -1843.00019736 Ry
     estimated scf accuracy    <       2.82681795 Ry

     iteration #  4     ecut=    60.00 Ry     beta= 0.50
     Davidson diagonalization with overlap
     ethr =  1.25E-03,  avg # of iterations =  1.0

     negative rho (up, down):  2.303E-04 0.000E+00

     total cpu time spent up to now is       70.1 secs

     total energy              =   -1842.86496558 Ry
     Harris-Foulkes estimate   =   -1842.93450572 Ry
     estimated scf accuracy    <       0.43225974 Ry

     iteration #  5     ecut=    60.00 Ry     beta= 0.50
     Davidson diagonalization with overlap
     ethr =  1.90E-04,  avg # of iterations =  5.6

     negative rho (up, down):  2.289E-04 0.000E+00

     total cpu time spent up to now is       91.7 secs

     total energy              =   -1842.90194375 Ry
     Harris-Foulkes estimate   =   -1842.91244309 Ry
     estimated scf accuracy    <       1.08768385 Ry

     iteration #  6     ecut=    60.00 Ry     beta= 0.50
     Davidson diagonalization with overlap
     ethr =  1.90E-04,  avg # of iterations =  1.0

     negative rho (up, down):  2.259E-04 0.000E+00

     total cpu time spent up to now is      105.6 secs

     total energy              =   -1842.88911992 Ry
     Harris-Foulkes estimate   =   -1842.90633794 Ry
     estimated scf accuracy    <       0.60776673 Ry

     iteration #  7     ecut=    60.00 Ry     beta= 0.50
     Davidson diagonalization with overlap
     ethr =  1.90E-04,  avg # of iterations =  1.0

     negative rho (up, down):  2.257E-04 0.000E+00

     total cpu time spent up to now is      119.5 secs

     total energy              =   -1842.88812163 Ry
     Harris-Foulkes estimate   =   -1842.89669702 Ry
     estimated scf accuracy    <       1.13615332 Ry

     iteration #  8     ecut=    60.00 Ry     beta= 0.50
     Davidson diagonalization with overlap
     ethr =  1.90E-04,  avg # of iterations =  1.0

     negative rho (up, down):  2.255E-04 0.000E+00

     total cpu time spent up to now is      133.4 secs

     total energy              =   -1842.88359766 Ry
     Harris-Foulkes estimate   =   -1842.89178470 Ry
     estimated scf accuracy    <       0.64145426 Ry

     iteration #  9     ecut=    60.00 Ry     beta= 0.50
     Davidson diagonalization with overlap
     ethr =  1.90E-04,  avg # of iterations =  1.0

     negative rho (up, down):  2.250E-04 0.000E+00

     total cpu time spent up to now is      147.1 secs

     total energy              =   -1842.88062089 Ry
     Harris-Foulkes estimate   =   -1842.88618189 Ry
     estimated scf accuracy    <       0.23748253 Ry

     iteration # 10     ecut=    60.00 Ry     beta= 0.50
     Davidson diagonalization with overlap
     ethr =  1.05E-04,  avg # of iterations =  2.3

     negative rho (up, down):  2.258E-04 0.000E+00

     total cpu time spent up to now is      162.5 secs

     total energy              =   -1842.87685275 Ry
     Harris-Foulkes estimate   =   -1842.88211369 Ry
     estimated scf accuracy    <       0.11695381 Ry

     iteration # 11     ecut=    60.00 Ry     beta= 0.50
     Davidson diagonalization with overlap
     ethr =  5.15E-05,  avg # of iterations =  6.5

     negative rho (up, down):  2.261E-04 0.000E+00

     total cpu time spent up to now is      183.7 secs

     total energy              =   -1842.87637204 Ry
     Harris-Foulkes estimate   =   -1842.87804586 Ry
     estimated scf accuracy    <       0.05530254 Ry

     iteration # 12     ecut=    60.00 Ry     beta= 0.50
     Davidson diagonalization with overlap
     c_bands:  1 eigenvalues not converged
     ethr =  2.44E-05,  avg # of iterations =  5.1

     negative rho (up, down):  2.264E-04 0.000E+00

     total cpu time spent up to now is      202.8 secs

     total energy              =   -1842.87523342 Ry
     Harris-Foulkes estimate   =   -1842.87671541 Ry
     estimated scf accuracy    <       0.03945335 Ry

     iteration # 13     ecut=    60.00 Ry     beta= 0.50
     Davidson diagonalization with overlap
     ethr =  1.74E-05,  avg # of iterations =  3.4

     negative rho (up, down):  2.749E-03 0.000E+00

     total cpu time spent up to now is      219.3 secs

     total energy              =   -1842.87378101 Ry
     Harris-Foulkes estimate   =   -1842.87540457 Ry
     estimated scf accuracy    <       0.02999664 Ry

     iteration # 14     ecut=    60.00 Ry     beta= 0.50
     Davidson diagonalization with overlap
     ethr =  1.32E-05,  avg # of iterations =  4.3

     negative rho (up, down):  8.535E-03 0.000E+00

     total cpu time spent up to now is      237.2 secs

     total energy              =   -1842.87308179 Ry
     Harris-Foulkes estimate   =   -1842.87399119 Ry
     estimated scf accuracy    <       0.02936944 Ry

     iteration # 15     ecut=    60.00 Ry     beta= 0.50
     Davidson diagonalization with overlap
     ethr =  1.29E-05,  avg # of iterations =  5.0

     negative rho (up, down):  1.949E-02 0.000E+00

     total cpu time spent up to now is      255.8 secs

     total energy              =   -1842.87192185 Ry
     Harris-Foulkes estimate   =   -1842.87318421 Ry
     estimated scf accuracy    <       0.03156420 Ry

     iteration # 16     ecut=    60.00 Ry     beta= 0.50
     Davidson diagonalization with overlap
     ethr =  1.29E-05,  avg # of iterations =  6.4

     negative rho (up, down):  2.403E-02 0.000E+00

     total cpu time spent up to now is      276.4 secs

     total energy              =   -1842.87125025 Ry
     Harris-Foulkes estimate   =   -1842.87205229 Ry
     estimated scf accuracy    <       0.02064185 Ry

     iteration # 17     ecut=    60.00 Ry     beta= 0.50
     Davidson diagonalization with overlap
     ethr =  9.09E-06,  avg # of iterations =  5.2

     negative rho (up, down):  2.100E-02 0.000E+00

     total cpu time spent up to now is      295.6 secs

     total energy              =   -1842.87047821 Ry
     Harris-Foulkes estimate   =   -1842.87132236 Ry
     estimated scf accuracy    <       0.01396650 Ry

     iteration # 18     ecut=    60.00 Ry     beta= 0.50
     Davidson diagonalization with overlap
     ethr =  6.15E-06,  avg # of iterations =  8.0

     negative rho (up, down):  1.909E-02 0.000E+00

     total cpu time spent up to now is      318.6 secs

     total energy              =   -1842.87023069 Ry
     Harris-Foulkes estimate   =   -1842.87057795 Ry
     estimated scf accuracy    <       0.00564186 Ry

     iteration # 19     ecut=    60.00 Ry     beta= 0.50
     Davidson diagonalization with overlap
     ethr =  2.49E-06,  avg # of iterations =  9.2

     negative rho (up, down):  8.485E-03 0.000E+00

     total cpu time spent up to now is      343.7 secs

     total energy              =   -1842.86996709 Ry
     Harris-Foulkes estimate   =   -1842.87027371 Ry
     estimated scf accuracy    <       0.00194790 Ry

     iteration # 20     ecut=    60.00 Ry     beta= 0.50
     Davidson diagonalization with overlap
     c_bands:  1 eigenvalues not converged
     c_bands:  1 eigenvalues not converged
     ethr =  8.58E-07,  avg # of iterations =  7.6

     negative rho (up, down):  5.311E-03 0.000E+00

     total cpu time spent up to now is      366.4 secs

     total energy              =   -1842.86998786 Ry
     Harris-Foulkes estimate   =   -1842.87001983 Ry
     estimated scf accuracy    <       0.00048660 Ry

     iteration # 21     ecut=    60.00 Ry     beta= 0.50
     Davidson diagonalization with overlap
     c_bands:  1 eigenvalues not converged
     ethr =  2.14E-07,  avg # of iterations =  6.9

     negative rho (up, down):  2.121E-03 0.000E+00

     total cpu time spent up to now is      387.6 secs

     total energy              =   -1842.86997309 Ry
     Harris-Foulkes estimate   =   -1842.87000180 Ry
     estimated scf accuracy    <       0.00014561 Ry

     iteration # 22     ecut=    60.00 Ry     beta= 0.50
     Davidson diagonalization with overlap
     c_bands:  1 eigenvalues not converged
     ethr =  6.41E-08,  avg # of iterations =  8.8

     negative rho (up, down):  1.379E-03 0.000E+00

     total cpu time spent up to now is      411.6 secs

     total energy              =   -1842.86999842 Ry
     Harris-Foulkes estimate   =   -1842.86997611 Ry
     estimated scf accuracy    <       0.00004851 Ry

     iteration # 23     ecut=    60.00 Ry     beta= 0.50
     Davidson diagonalization with overlap
     c_bands:  1 eigenvalues not converged
     ethr =  2.14E-08,  avg # of iterations =  5.6

     negative rho (up, down):  1.412E-03 0.000E+00

     total cpu time spent up to now is      431.3 secs

     total energy              =   -1842.87000153 Ry
     Harris-Foulkes estimate   =   -1842.87000114 Ry
     estimated scf accuracy    <       0.00002115 Ry

     iteration # 24     ecut=    60.00 Ry     beta= 0.50
     Davidson diagonalization with overlap
     ethr =  9.32E-09,  avg # of iterations =  1.3

     negative rho (up, down):  1.356E-03 0.000E+00

     total cpu time spent up to now is      445.6 secs

     total energy              =   -1842.87000225 Ry
     Harris-Foulkes estimate   =   -1842.87000211 Ry
     estimated scf accuracy    <       0.00000923 Ry

     iteration # 25     ecut=    60.00 Ry     beta= 0.50
     Davidson diagonalization with overlap
     ethr =  4.06E-09,  avg # of iterations =  1.6

     negative rho (up, down):  1.401E-03 0.000E+00

     total cpu time spent up to now is      460.8 secs

     total energy              =   -1842.87000241 Ry
     Harris-Foulkes estimate   =   -1842.87000259 Ry
     estimated scf accuracy    <       0.00000388 Ry

     iteration # 26     ecut=    60.00 Ry     beta= 0.50
     Davidson diagonalization with overlap
     ethr =  1.71E-09,  avg # of iterations =  1.3

     negative rho (up, down):  1.523E-03 0.000E+00

     total cpu time spent up to now is      475.1 secs

     total energy              =   -1842.87000234 Ry
     Harris-Foulkes estimate   =   -1842.87000251 Ry
     estimated scf accuracy    <       0.00000161 Ry

     iteration # 27     ecut=    60.00 Ry     beta= 0.50
     Davidson diagonalization with overlap
     ethr =  7.11E-10,  avg # of iterations =  2.1

     negative rho (up, down):  1.529E-03 0.000E+00

     total cpu time spent up to now is      490.3 secs

     total energy              =   -1842.87000238 Ry
     Harris-Foulkes estimate   =   -1842.87000241 Ry
     estimated scf accuracy    <       0.00000070 Ry

     iteration # 28     ecut=    60.00 Ry     beta= 0.50
     Davidson diagonalization with overlap
     ethr =  3.08E-10,  avg # of iterations =  1.8

     negative rho (up, down):  1.538E-03 0.000E+00

     total cpu time spent up to now is      505.3 secs

     total energy              =   -1842.87000238 Ry
     Harris-Foulkes estimate   =   -1842.87000240 Ry
     estimated scf accuracy    <       0.00000030 Ry

     iteration # 29     ecut=    60.00 Ry     beta= 0.50
     Davidson diagonalization with overlap
     ethr =  1.33E-10,  avg # of iterations =  1.9

     negative rho (up, down):  1.518E-03 0.000E+00

     total cpu time spent up to now is      520.4 secs

     total energy              =   -1842.87000241 Ry
     Harris-Foulkes estimate   =   -1842.87000239 Ry
     estimated scf accuracy    <       0.00000011 Ry

     iteration # 30     ecut=    60.00 Ry     beta= 0.50
     Davidson diagonalization with overlap
     ethr =  4.83E-11,  avg # of iterations =  2.8

     negative rho (up, down):  1.526E-03 0.000E+00

     total cpu time spent up to now is      536.9 secs

     total energy              =   -1842.87000240 Ry
     Harris-Foulkes estimate   =   -1842.87000242 Ry
     estimated scf accuracy    <       0.00000004 Ry

     iteration # 31     ecut=    60.00 Ry     beta= 0.50
     Davidson diagonalization with overlap
     ethr =  1.64E-11,  avg # of iterations =  2.5

     negative rho (up, down):  1.521E-03 0.000E+00

     total cpu time spent up to now is      552.8 secs

     total energy              =   -1842.87000241 Ry
     Harris-Foulkes estimate   =   -1842.87000241 Ry
     estimated scf accuracy    <          9.1E-09 Ry

     iteration # 32     ecut=    60.00 Ry     beta= 0.50
     Davidson diagonalization with overlap
     ethr =  4.01E-12,  avg # of iterations =  3.0

     negative rho (up, down):  1.523E-03 0.000E+00

     total cpu time spent up to now is      570.9 secs

     total energy              =   -1842.87000241 Ry
     Harris-Foulkes estimate   =   -1842.87000241 Ry
     estimated scf accuracy    <          6.7E-09 Ry

     iteration # 33     ecut=    60.00 Ry     beta= 0.50
     Davidson diagonalization with overlap
     ethr =  2.96E-12,  avg # of iterations =  1.0

     negative rho (up, down):  1.523E-03 0.000E+00

     total cpu time spent up to now is      584.7 secs

     total energy              =   -1842.87000241 Ry
     Harris-Foulkes estimate   =   -1842.87000241 Ry
     estimated scf accuracy    <          1.4E-09 Ry

     iteration # 34     ecut=    60.00 Ry     beta= 0.50
     Davidson diagonalization with overlap
     ethr =  6.26E-13,  avg # of iterations =  1.9

     negative rho (up, down):  1.522E-03 0.000E+00

     total cpu time spent up to now is      599.8 secs

     total energy              =   -1842.87000241 Ry
     Harris-Foulkes estimate   =   -1842.87000241 Ry
     estimated scf accuracy    <          1.1E-09 Ry

     iteration # 35     ecut=    60.00 Ry     beta= 0.50
     Davidson diagonalization with overlap
     ethr =  4.72E-13,  avg # of iterations =  1.0

     negative rho (up, down):  1.521E-03 0.000E+00

     total cpu time spent up to now is      613.8 secs

     total energy              =   -1842.87000242 Ry
     Harris-Foulkes estimate   =   -1842.87000241 Ry
     estimated scf accuracy    <          2.3E-10 Ry

     iteration # 36     ecut=    60.00 Ry     beta= 0.50
     Davidson diagonalization with overlap
     ethr =  1.00E-13,  avg # of iterations =  2.7

     negative rho (up, down):  1.521E-03 0.000E+00

     total cpu time spent up to now is      630.2 secs

     total energy              =   -1842.87000242 Ry
     Harris-Foulkes estimate   =   -1842.87000242 Ry
     estimated scf accuracy    <          1.0E-10 Ry

     iteration # 37     ecut=    60.00 Ry     beta= 0.50
     Davidson diagonalization with overlap
     ethr =  1.00E-13,  avg # of iterations =  1.0

     negative rho (up, down):  1.521E-03 0.000E+00

     total cpu time spent up to now is      643.7 secs

     End of self-consistent calculation

          k = 0.0000 0.0000 0.0000 ( 34429 PWs)   bands (ev):

   -35.5814 -35.4684 -23.2591 -22.7850 -22.7848 -22.5362 -17.0858 -16.9503
   -16.6325 -16.6212 -16.5294 -16.5152 -15.2961 -15.2029 -14.8714 -14.6656
   -14.6586 -14.5668 -14.4127 -14.1755 -14.1733 -13.9761 -13.9562 -13.8194
   -13.7011 -13.5887 -13.4967  -8.4848  -8.1631  -8.0458  -7.9164  -7.9148
    -7.8788  -7.8788  -7.7194  -7.6859  -7.6856  -7.5807  -7.4140  -2.3248
    -2.3238  -2.0738  -1.8235  -1.8210  -1.7602  -1.6628  -1.6340  -1.5884
    -1.5350  -1.4762  -1.4572  -1.3276  -1.2159  -1.2144  -1.0798  -0.8628
    -0.6563  -0.6217  -0.4538  -0.4525  -0.3744  -0.3701  -0.3006  -0.2905
    -0.2599  -0.2586  -0.2475  -0.2398  -0.1915  -0.1891  -0.1609  -0.1415
    -0.1252  -0.1217  -0.0328  -0.0309   0.1035   0.1049   0.1050   0.1075
     0.1623   0.1791   0.2042   0.3142   0.3244   0.3306   0.3762   0.3791
     0.5556   0.6284   0.7930   0.8871   0.8879   0.9493   0.9751   1.1885
     1.2275   1.3544   1.3630   1.3795   1.4061   1.4503   1.5217   1.5228
     1.6864   1.7825   1.8179   1.8310   1.9247   1.9479   1.9800   2.0238
     2.0451   2.1039   2.1398   2.2536   2.2623   2.5326   2.5414   5.2065
     5.2233   5.4969   6.1432   6.1848   6.6416   6.7706   6.7884   7.1798
     7.9446   7.9938   8.1365   8.2989   8.3701   8.5889   8.6278   8.8809
     9.0967

          k = 0.0000 0.1320 0.0000 ( 34389 PWs)   bands (ev):

   -35.5796 -35.4666 -23.2373 -22.7583 -22.7581 -22.5107 -17.0497 -16.9139
   -16.6938 -16.6301 -16.5871 -16.5270 -15.2073 -15.1201 -14.8159 -14.6708
   -14.6586 -14.5396 -14.3826 -14.1850 -14.1813 -13.9814 -13.9705 -13.8653
   -13.7463 -13.6151 -13.5617  -8.4742  -8.1244  -8.0929  -7.9159  -7.9147
    -7.8310  -7.8310  -7.7286  -7.7274  -7.7160  -7.5357  -7.4619  -2.3822
    -2.3817  -2.1847  -2.1503  -2.1164  -2.0097  -1.9106  -1.6980  -1.6424
    -1.6398  -1.6386  -1.6165  -1.5173  -1.3361  -1.3109  -1.2928  -1.1198
    -0.6673  -0.6368  -0.6216  -0.5663  -0.5513  -0.5499  -0.5264  -0.4568
    -0.4547  -0.3334  -0.2155  -0.2026  -0.1797  -0.1563  -0.1432  -0.1419
    -0.0868  -0.0561  -0.0115  -0.0095   0.0123   0.0471   0.1275   0.1284
     0.1631   0.1834   0.2552   0.2841   0.3235   0.3747   0.3821   0.4730
     0.6803   0.7526   0.9273   1.0403   1.0533   1.0848   1.0851   1.1465
     1.1586   1.1921   1.3945   1.3997   1.4241   1.5151   1.5205   1.5356
     1.6589   1.6739   1.7687   1.7882   1.8169   1.9232   1.9556   1.9861
     2.0128   2.0470   2.2186   2.4013   2.7851   2.8210   2.8562   5.5920
     5.5990   5.8142   6.4552   6.5202   6.8798   7.0743   7.0859   7.4668
     8.1340   8.1751   8.3109   8.4723   8.5918   8.6704   8.7930   8.9991
     9.1911

          k = 0.0000 0.2640 0.0000 ( 34275 PWs)   bands (ev):

   -35.5752 -35.4622 -23.1840 -22.6925 -22.6922 -22.4480 -16.9576 -16.8481
   -16.8213 -16.7404 -16.6245 -16.5214 -15.0074 -14.9483 -14.7199 -14.6844
   -14.6677 -14.4782 -14.3093 -14.1724 -14.1614 -14.0209 -14.0133 -13.9926
   -13.8206 -13.7391 -13.6655  -8.4466  -8.1942  -8.0279  -7.9155  -7.9147
    -7.8185  -7.8180  -7.7116  -7.7106  -7.7105  -7.5656  -7.4225  -2.8277
    -2.8168  -2.7245  -2.6014  -2.4605  -2.4225  -2.4215  -2.2765  -2.2751
    -2.0673  -1.6432  -1.5883  -1.5676  -1.4718  -1.4611  -1.4491  -1.2597
    -0.9784  -0.9497  -0.9263  -0.8025  -0.8018  -0.7933  -0.6454  -0.6391
    -0.5570  -0.5305  -0.5148  -0.4935  -0.4913  -0.4810  -0.4034  -0.3130
    -0.2111  -0.0952   0.0168   0.0187   0.0831   0.1002   0.1117   0.2185
     0.2520   0.3809   0.4281   0.4317   0.6221   0.6953   0.7065   0.7200
     0.8240   0.8897   0.9749   1.0364   1.1256   1.1540   1.1698   1.1705
     1.1843   1.2000   1.2740   1.3034   1.3606   1.5777   1.6127   1.6234
     1.6513   1.7159   1.7613   1.9328   1.9471   1.9778   1.9795   1.9886
     2.0494   2.1131   2.3423   2.5286   3.0424   3.0476   3.6875   6.4917
     6.4926   6.5434   7.2165   7.3147   7.6282   7.8945   7.9007   8.0419
     8.3407   8.6505   8.7298   8.7659   8.9385   8.9715   9.0817   9.2476
     9.3949

          k = 0.0000 0.3960 0.0000 ( 34242 PWs)   bands (ev):

   -35.5708 -35.4578 -23.1292 -22.6243 -22.6240 -22.3832 -16.9844 -16.8755
   -16.8559 -16.7197 -16.6188 -16.5157 -14.9284 -14.9223 -14.6776 -14.6025
   -14.5020 -14.4226 -14.2587 -14.1472 -14.1002 -14.0993 -14.0875 -14.0339
   -13.9377 -13.8725 -13.7496  -8.4087  -8.2892  -7.9269  -7.9154  -7.9147
    -7.8967  -7.8962  -7.7062  -7.6560  -7.5821  -7.5821  -7.3025  -3.4547
    -3.2825  -3.2783  -3.0530  -2.9931  -2.9895  -2.9008  -2.3670  -2.3659
    -2.0913  -1.9827  -1.8049  -1.7948  -1.5232  -1.5026  -1.3728  -1.1923
    -1.1909  -1.1638  -1.1394  -1.0700  -1.0669  -0.9565  -0.8549  -0.8308
    -0.8268  -0.7445  -0.7408  -0.7347  -0.7016  -0.5806  -0.5330  -0.3265
    -0.2780  -0.1129  -0.0714   0.0338   0.0357   0.1302   0.1326   0.1743
     0.2168   0.4494   0.4987   0.5559   0.7239   0.7854   0.8014   0.8977
     0.9067   0.9310   0.9337   0.9692   1.0215   1.0945   1.1404   1.1415
     1.1709   1.3472   1.4701   1.5566   1.6236   1.6287   1.7293   1.7540
     1.7678   1.8494   1.9436   1.9543   1.9829   2.0241   2.1391   2.2526
     2.3112   2.3726   2.3737   2.4784   2.9349   2.9419   4.2650   7.1916
     7.4388   7.4400   7.6136   8.2606   8.3618   8.5739   8.6036   8.6868
     8.7005   9.0957   9.0967   9.1346   9.1881   9.3503   9.4591   9.5012
     9.5891

          k = 0.0000-0.5279 0.0000 ( 34286 PWs)   bands (ev):

   -35.5689 -35.4559 -23.1061 -22.5953 -22.5951 -22.3558 -17.0366 -16.9273
   -16.8109 -16.6748 -16.6165 -16.5133 -14.9707 -14.9657 -14.5630 -14.5025
   -14.4903 -14.3113 -14.2781 -14.2296 -14.1224 -14.0746 -14.0665 -14.0518
   -13.9753 -13.9084 -13.8172  -8.3694  -8.3482  -7.9264  -7.9258  -7.9151
    -7.9142  -7.8836  -7.6976  -7.6965  -7.5262  -7.5261  -7.2505  -3.7230
    -3.4611  -3.4577  -3.2316  -3.2235  -3.2093  -3.0705  -2.3831  -2.3820
    -2.1093  -2.0999  -1.9351  -1.9268  -1.4908  -1.4662  -1.3349  -1.2840
    -1.2229  -1.2173  -1.1948  -1.1921  -1.1033  -1.0425  -0.9641  -0.9441
    -0.9335  -0.8325  -0.8313  -0.8272  -0.7768  -0.6577  -0.5277  -0.2925
    -0.2581  -0.1555  -0.1212   0.0395   0.0413   0.1295   0.1388   0.1795
     0.2142   0.4261   0.4483   0.5045   0.6680   0.6890   0.8183   0.8339
     0.8614   0.9365   0.9709   1.0167   1.0369   1.1233   1.1245   1.2981
     1.3519   1.3948   1.4664   1.5091   1.7357   1.7431   1.7486   1.7901
     2.0189   2.0245   2.0268   2.0709   2.0929   2.1590   2.1671   2.1715
     2.1908   2.4687   2.5342   2.5353   2.7555   2.7643   4.4507   7.2625
     7.8521   7.8527   8.0082   8.1938   8.9257   8.9334   8.9679   8.9769
     9.0118   9.0488   9.1040   9.3130   9.3261   9.3950   9.6144   9.6837
     9.8788

          k = 0.1250 0.0000 0.0000 ( 34399 PWs)   bands (ev):

   -35.5803 -35.4673 -23.2447 -22.7670 -22.7667 -22.5189 -17.0524 -16.9163
   -16.7127 -16.6198 -16.6101 -16.5138 -15.1938 -15.1076 -14.8896 -14.7112
   -14.6990 -14.5720 -14.4150 -14.1845 -14.1827 -13.9879 -13.9697 -13.8402
   -13.7510 -13.6008 -13.5388  -8.5120  -8.1106  -8.0201  -7.9421  -7.9409
    -7.8170  -7.8168  -7.7513  -7.6534  -7.6531  -7.5202  -7.3836  -2.3672
    -2.3665  -2.1068  -1.8655  -1.8608  -1.8011  -1.7967  -1.7917  -1.7314
    -1.6032  -1.5650  -1.4459  -1.4115  -1.2138  -1.2123  -1.0973  -0.8896
    -0.7529  -0.6623  -0.6182  -0.5973  -0.5109  -0.5077  -0.3764  -0.3360
    -0.3332  -0.3235  -0.2784  -0.2626  -0.2425  -0.2245  -0.1965  -0.1950
    -0.1766  -0.1151  -0.0450   0.0612   0.0963   0.0977   0.1244   0.1683
     0.2008   0.2009   0.2233   0.2716   0.2990   0.3840   0.4283   0.4711
     0.6365   0.7640   0.7976   0.8081   0.8895   0.9904   1.0277   1.1896
     1.2088   1.2180   1.3613   1.3710   1.4022   1.4399   1.4917   1.5335
     1.5916   1.8502   1.8818   1.8823   1.9160   1.9732   1.9960   2.0068
     2.0928   2.1349   2.1841   2.2495   2.3107   2.5719   2.5764   5.3963
     5.4029   5.7016   6.3844   6.4227   6.7952   6.9832   6.9948   7.3935
     8.0740   8.1276   8.2693   8.4472   8.5842   8.7846   8.8468   9.0610
     9.2620

          k = 0.1250 0.1320 0.0000 ( 34364 PWs)   bands (ev):

   -35.5785 -35.4655 -23.2235 -22.7411 -22.7409 -22.4942 -17.0173 -16.8809
   -16.7158 -16.6830 -16.6123 -16.5773 -15.1125 -15.0342 -14.8320 -14.7056
   -14.6883 -14.5422 -14.3794 -14.1855 -14.1834 -13.9935 -13.9854 -13.8799
   -13.7855 -13.6240 -13.5902  -8.4878  -8.2423  -7.9614  -7.9609  -7.9559
    -7.8793  -7.8786  -7.7463  -7.6167  -7.6154  -7.6130  -7.3431  -2.4190
    -2.4178  -2.1941  -2.1352  -2.1103  -1.9963  -1.8983  -1.8444  -1.8386
    -1.7659  -1.7046  -1.6338  -1.6326  -1.5751  -1.3400  -1.2846  -1.1541
    -0.7998  -0.7866  -0.7329  -0.6727  -0.6669  -0.5611  -0.5445  -0.5269
    -0.4971  -0.4962  -0.4202  -0.2613  -0.2292  -0.2002  -0.1840  -0.1292
    -0.0695  -0.0489  -0.0182   0.0083   0.0163   0.1175   0.1566   0.1655
     0.1956   0.2263   0.2738   0.2930   0.3035   0.3446   0.5241   0.6164
     0.6491   0.9014   1.0004   1.0408   1.0425   1.1192   1.1367   1.2205
     1.2328   1.2436   1.2849   1.3018   1.3159   1.4210   1.5712   1.5961
     1.6403   1.6632   1.6698   1.6793   1.7259   1.7426   2.0532   2.1347
     2.3494   2.3529   2.5359   2.6090   2.8001   2.8290   2.8640   5.7381
     5.7412   5.9701   6.6490   6.7096   7.0219   7.2792   7.2862   7.6638
     8.1753   8.2937   8.4305   8.6072   8.7393   8.7719   8.9538   9.1397
     9.2406

          k = 0.1250 0.2640 0.0000 ( 34297 PWs)   bands (ev):

   -35.5741 -35.4611 -23.1715 -22.6773 -22.6770 -22.4333 -16.9281 -16.8450
   -16.7912 -16.7375 -16.6954 -16.5928 -14.9380 -14.8962 -14.7061 -14.6783
   -14.6612 -14.4727 -14.2924 -14.1677 -14.1612 -14.0429 -14.0327 -13.9834
   -13.8359 -13.7361 -13.6667  -8.4450  -8.3782  -8.0304  -8.0302  -7.9530
    -7.9163  -7.9156  -7.7583  -7.7111  -7.6063  -7.6062  -7.3379  -2.8506
    -2.8377  -2.7141  -2.6117  -2.4665  -2.4230  -2.4218  -2.2759  -2.2745
    -2.0809  -1.7953  -1.7923  -1.7280  -1.6183  -1.5259  -1.4770  -1.4595
    -1.0362  -0.9864  -0.9797  -0.9553  -0.9150  -0.8595  -0.7702  -0.7282
    -0.6880  -0.6876  -0.5623  -0.5439  -0.5336  -0.4939  -0.4650  -0.3145
    -0.2295  -0.1245  -0.0411  -0.0333  -0.0147   0.1172   0.1963   0.2189
     0.3660   0.4139   0.5039   0.5726   0.6805   0.7492   0.7530   0.8038
     0.9188   1.0134   1.0266   1.0757   1.1080   1.1826   1.2825   1.3123
     1.3414   1.3441   1.3796   1.3844   1.4088   1.5007   1.5523   1.5890
     1.6350   1.6452   1.6490   1.8549   1.9417   1.9452   1.9941   2.2553
     2.5466   2.5505   2.7651   2.8309   3.0533   3.0614   3.6896   6.5525
     6.5536   6.5688   7.2971   7.3932   7.7651   7.9771   8.0586   8.0643
     8.5008   8.5930   8.7790   8.8281   8.9449   9.0034   9.1130   9.1937
     9.2074

          k = 0.1250 0.3960 0.0000 ( 34292 PWs)   bands (ev):

   -35.5697 -35.4567 -23.1183 -22.6113 -22.6111 -22.3705 -16.9793 -16.8704
   -16.8294 -16.6927 -16.6868 -16.5843 -14.8935 -14.8889 -14.6035 -14.5377
   -14.4920 -14.4082 -14.2354 -14.1379 -14.1261 -14.0959 -14.0785 -14.0587
   -13.9156 -13.8617 -13.7358  -8.4819  -8.3622  -8.0608  -8.0604  -8.0041
    -7.9278  -7.9271  -7.8092  -7.7094  -7.6513  -7.6513  -7.3778  -3.4435
    -3.3234  -3.3169  -3.0819  -2.9848  -2.9811  -2.9219  -2.3751  -2.3741
    -2.1080  -1.9218  -1.7859  -1.7829  -1.6472  -1.6319  -1.5726  -1.4343
    -1.3261  -1.2982  -1.2455  -1.1692  -1.1155  -1.1135  -1.0141  -0.8901
    -0.8674  -0.8654  -0.8239  -0.7855  -0.7481  -0.6997  -0.5175  -0.3650
    -0.3180  -0.1754  -0.0574  -0.0383   0.0149   0.1601   0.2078   0.2150
     0.4120   0.4563   0.6129   0.6786   0.7379   0.9064   0.9091   0.9676
     1.0442   1.0648   1.0741   1.1168   1.1465   1.1950   1.2345   1.2418
     1.2788   1.4210   1.5232   1.6556   1.6842   1.7139   1.7255   1.7562
     1.8555   1.9196   1.9446   2.0088   2.0826   2.3399   2.3408   2.3785
     2.4947   2.5006   2.7097   2.7622   2.9946   3.0085   4.2541   6.9171
     7.3041   7.3051   7.6759   8.1343   8.1916   8.4049   8.5820   8.6677
     8.6791   8.9158   9.1346   9.3174   9.3935   9.5141   9.5495   9.6287
     9.6493

          k = 0.1250-0.5279 0.0000 ( 34244 PWs)   bands (ev):

   -35.5679 -35.4549 -23.0958 -22.5834 -22.5831 -22.3439 -17.0309 -16.9217
   -16.7860 -16.6831 -16.6492 -16.5807 -14.9260 -14.9215 -14.4905 -14.4509
   -14.4406 -14.3096 -14.2610 -14.2084 -14.1551 -14.0709 -14.0674 -14.0176
   -13.9995 -13.8873 -13.7908  -8.4901  -8.3497  -8.0555  -8.0550  -8.0325
    -7.9326  -7.9319  -7.8201  -7.7075  -7.6856  -7.6854  -7.4036  -3.7129
    -3.5098  -3.5038  -3.2600  -3.2144  -3.2094  -3.0983  -2.3962  -2.3952
    -2.1176  -2.0153  -1.8159  -1.8118  -1.6033  -1.5928  -1.5088  -1.4880
    -1.4572  -1.3440  -1.3349  -1.3136  -1.2006  -1.1912  -1.1766  -0.9464
    -0.9423  -0.9407  -0.9208  -0.8743  -0.8447  -0.8046  -0.5065  -0.3556
    -0.3113  -0.1924  -0.0657  -0.0270   0.0378   0.1725   0.2181   0.2203
     0.4133   0.4684   0.6397   0.6481   0.7187   0.8493   0.9373   0.9480
     0.9597   0.9617   1.0311   1.1475   1.1510   1.2675   1.2790   1.3505
     1.4222   1.4495   1.4976   1.7187   1.7842   1.8277   2.0127   2.0273
     2.0373   2.0454   2.1407   2.1776   2.2009   2.3520   2.3548   2.4552
     2.5052   2.5062   2.5589   2.6122   2.8739   2.8910   4.4346   6.9045
     7.5257   7.5262   7.9710   8.1545   8.3129   8.4226   8.7837   9.0439
     9.1257   9.3005   9.3136   9.4189   9.5124   9.7737   9.8136   9.8453
     9.9632

          k = 0.2500 0.0000 0.0000 ( 34384 PWs)   bands (ev):

   -35.5777 -35.4647 -23.2094 -22.7227 -22.7224 -22.4766 -16.9672 -16.8768
   -16.8295 -16.7752 -16.6165 -16.5105 -14.9957 -14.9606 -14.9435 -14.7931
   -14.7458 -14.5955 -14.4256 -14.1986 -14.1975 -14.0346 -14.0032 -13.8976
   -13.8538 -13.6318 -13.6248  -8.5367  -8.0258  -7.9567  -7.9436  -7.9426
    -7.7711  -7.7304  -7.7303  -7.5727  -7.5724  -7.4364  -7.3080  -2.5596
    -2.5577  -2.3477  -2.2041  -2.2032  -2.0998  -2.0149  -1.7404  -1.7278
    -1.6419  -1.4947  -1.4662  -1.4187  -1.2105  -1.2090  -1.1477  -0.9699
    -0.9609  -0.9119  -0.8530  -0.7640  -0.7630  -0.7506  -0.6336  -0.5567
    -0.5284  -0.5247  -0.4747  -0.4424  -0.3108  -0.2798  -0.2448  -0.2432
    -0.2129  -0.1872  -0.0937  -0.0803   0.0836   0.0850   0.1889   0.1896
     0.2114   0.3283   0.3300   0.4583   0.4613   0.5007   0.5565   0.5980
     0.6670   0.6812   0.7714   0.9050   0.9479   0.9942   1.0323   1.0563
     1.2849   1.2980   1.3131   1.3281   1.4209   1.4517   1.4654   1.5665
     1.6510   1.7074   1.7326   1.8696   1.8886   1.9993   2.0368   2.0647
     2.0990   2.1065   2.3246   2.4833   2.5202   2.6785   2.6841   5.8587
     5.8600   6.1826   7.0227   7.0422   7.2143   7.5595   7.5656   7.9457
     8.1806   8.4912   8.5307   8.7163   8.9371   9.2556   9.2880   9.4185
     9.5132

          k = 0.2500 0.1320 0.0000 ( 34351 PWs)   bands (ev):

   -35.5759 -35.4629 -23.1896 -22.6988 -22.6986 -22.4537 -16.9350 -16.8704
   -16.7971 -16.7688 -16.6827 -16.5762 -14.9453 -14.9210 -14.8800 -14.7440
   -14.6941 -14.5602 -14.3801 -14.1846 -14.1845 -14.0339 -14.0160 -13.9165
   -13.8731 -13.6512 -13.6463  -8.5162  -8.2658  -8.0122  -8.0119  -7.8932
    -7.8671  -7.8665  -7.7948  -7.6151  -7.5391  -7.5389  -7.2745  -2.6095
    -2.6039  -2.3854  -2.1975  -2.1946  -2.1369  -2.0872  -2.0572  -2.0126
    -1.9405  -1.8250  -1.7192  -1.6244  -1.6232  -1.4020  -1.3562  -1.2528
    -1.0177  -1.0134  -0.9652  -0.9096  -0.8801  -0.7959  -0.7298  -0.6261
    -0.6107  -0.5866  -0.5574  -0.4592  -0.3870  -0.3328  -0.3018  -0.2099
    -0.1950  -0.0258  -0.0216   0.0279   0.0566   0.1027   0.1596   0.2025
     0.2152   0.3316   0.3362   0.3686   0.5344   0.6133   0.6520   0.7826
     0.8532   0.9088   0.9188   0.9685   1.0647   1.0844   1.1597   1.1940
     1.2251   1.2752   1.3835   1.4093   1.4361   1.4828   1.4861   1.5319
     1.5734   1.6566   1.6755   1.7374   1.7411   1.8880   2.0166   2.1965
     2.6698   2.6835   2.8527   2.8649   2.8742   2.9313   2.9994   6.1203
     6.1212   6.3243   7.1826   7.2010   7.4321   7.8175   7.8209   8.0252
     8.2634   8.6104   8.6209   8.8456   8.8597   9.0607   9.1832   9.2918
     9.4059

          k = 0.2500 0.2640 0.0000 ( 34331 PWs)   bands (ev):

   -35.5715 -35.4585 -23.1411 -22.6401 -22.6399 -22.3974 -16.8705 -16.8466
   -16.8192 -16.7624 -16.7153 -16.7115 -14.8559 -14.8484 -14.7090 -14.6040
   -14.5630 -14.4717 -14.2593 -14.1594 -14.1575 -14.0840 -14.0629 -13.9641
   -13.8761 -13.7281 -13.6717  -8.5821  -8.4376  -8.2323  -8.2321  -8.0154
    -7.9510  -7.9289  -7.9283  -7.7216  -7.6589  -7.6586  -7.3973  -2.9879
    -2.9661  -2.7341  -2.6605  -2.5209  -2.4361  -2.4341  -2.3081  -2.3072
    -2.2115  -2.1652  -2.1636  -2.0211  -1.9769  -1.5908  -1.4458  -1.4202
    -1.4161  -1.4093  -1.2750  -1.1635  -1.0603  -0.9439  -0.9014  -0.7823
    -0.7283  -0.7203  -0.6122  -0.5964  -0.5877  -0.5759  -0.5247  -0.3951
    -0.3403  -0.3014  -0.2590   0.0199   0.0765   0.1215   0.3298   0.3536
     0.5296   0.5702   0.6346   0.7840   0.8035   0.8494   0.9093   0.9638
     0.9668   1.1421   1.2195   1.2626   1.2881   1.3292   1.3769   1.4036
     1.4591   1.4733   1.5076   1.5206   1.5354   1.6085   1.6241   1.6409
     1.6838   1.6887   1.7091   1.8604   1.8630   1.9342   2.1050   2.3109
     2.9901   2.9925   3.2769   3.2873   3.4268   3.5231   3.6974   6.4610
     6.6630   6.6636   7.5603   7.5908   7.7656   8.0539   8.3496   8.3507
     8.6486   8.7480   8.9182   9.0119   9.0592   9.2212   9.3061   9.3511
     9.4264

          k = 0.2500 0.3960 0.0000 ( 34334 PWs)   bands (ev):

   -35.5672 -35.4541 -23.0915 -22.5797 -22.5794 -22.3395 -16.9672 -16.8586
   -16.8348 -16.7607 -16.7323 -16.6240 -14.8123 -14.8098 -14.4860 -14.4352
   -14.4205 -14.3701 -14.2088 -14.1820 -14.1072 -14.0926 -14.0780 -14.0423
   -13.8829 -13.8161 -13.7011  -8.7432  -8.3863  -8.3524  -8.3520  -8.2332
    -8.0820  -7.9792  -7.9787  -7.8728  -7.8725  -7.7398  -7.6135  -3.4895
    -3.4649  -3.4112  -3.1972  -3.0139  -2.9605  -2.9604  -2.4463  -2.4457
    -2.2293  -2.1292  -2.1235  -2.0004  -1.9297  -1.8241  -1.7698  -1.7578
    -1.5768  -1.5096  -1.4434  -1.4158  -1.2714  -1.1569  -1.1408  -0.8718
    -0.8277  -0.8027  -0.7935  -0.7898  -0.7439  -0.7192  -0.5390  -0.5013
    -0.4786  -0.4057  -0.3274   0.0831   0.1600   0.1987   0.3691   0.4165
     0.6747   0.6856   0.8697   0.9825   0.9835   1.0124   1.0747   1.2527
     1.2863   1.2930   1.3232   1.3285   1.4260   1.4570   1.5051   1.5152
     1.5830   1.5926   1.6496   1.7280   1.7483   1.7814   1.8086   1.8802
     1.9148   1.9383   1.9757   2.0406   2.1779   2.2615   2.2624   2.4066
     2.8215   2.8247   3.5066   3.5267   3.6634   3.7468   4.2236   6.2605
     6.8707   6.8717   7.5626   7.7447   8.0147   8.3013   8.6561   8.8015
     8.8151   9.0373   9.2916   9.4166   9.6856   9.7434   9.8062   9.8915
     9.9062

          k = 0.2500-0.5279 0.0000 ( 34344 PWs)   bands (ev):

   -35.5654 -35.4523 -23.0706 -22.5542 -22.5539 -22.3151 -17.0174 -16.9084
   -16.8293 -16.7269 -16.7212 -16.5843 -14.8090 -14.8059 -14.3576 -14.3567
   -14.3474 -14.3058 -14.2252 -14.2193 -14.1510 -14.0634 -14.0619 -14.0201
   -13.9438 -13.8273 -13.7261  -8.7764  -8.3652  -8.3525  -8.3520  -8.3445
    -8.1078  -8.0673  -8.0672  -7.9390  -7.9383  -7.7557  -7.7206  -3.7073
    -3.6672  -3.6626  -3.3904  -3.2103  -3.1881  -3.1849  -2.4538  -2.4531
    -2.2156  -2.0916  -2.0854  -1.9719  -1.9602  -1.9276  -1.8850  -1.8769
    -1.6811  -1.6241  -1.4752  -1.4459  -1.3435  -1.2428  -1.2315  -0.9401
    -0.9093  -0.8634  -0.8114  -0.8055  -0.8025  -0.8012  -0.5530  -0.5048
    -0.4895  -0.4243  -0.3375   0.0936   0.1895   0.2337   0.3840   0.4510
     0.7092   0.7720   0.9864   1.0393   1.0864   1.0873   1.0906   1.2024
     1.2248   1.2602   1.3730   1.4479   1.4582   1.4785   1.5082   1.5321
     1.5439   1.6945   1.7324   1.9023   1.9169   1.9556   1.9975   2.0250
     2.0437   2.0804   2.1087   2.1513   2.3067   2.4371   2.4380   2.4427
     2.5991   2.6035   3.5266   3.5517   3.6984   3.7785   4.3853   6.1212
     6.8347   6.8364   7.4949   7.7174   8.1378   8.3981   8.6315   9.1147
     9.1753   9.2647   9.5237   9.5360   9.7664   9.8659   9.9469  10.0832
    10.1089

          k = 0.3750 0.0000 0.0000 ( 34362 PWs)   bands (ev):

   -35.5751 -35.4620 -23.1735 -22.6772 -22.6770 -22.4334 -17.0167 -16.9150
   -16.8720 -16.7330 -16.6132 -16.5071 -15.0406 -15.0341 -15.0106 -14.6473
   -14.6253 -14.5974 -14.3880 -14.2105 -14.2041 -14.1432 -14.0654 -13.9782
   -13.9110 -13.6912 -13.6684  -8.5288  -7.9768  -7.9261  -7.9253  -7.8913
    -7.7599  -7.6655  -7.6655  -7.4883  -7.4880  -7.3881  -7.2292  -2.8872
    -2.8840  -2.7064  -2.4954  -2.3269  -2.3258  -2.0522  -1.6583  -1.6326
    -1.5765  -1.5391  -1.4970  -1.3840  -1.2121  -1.2110  -1.2102  -1.1822
    -1.0410  -1.0125  -1.0067  -0.9947  -0.9025  -0.8957  -0.8772  -0.7706
    -0.7288  -0.7249  -0.6951  -0.6294  -0.4372  -0.4003  -0.2615  -0.2395
    -0.2270  -0.2267  -0.1649  -0.1213   0.0707   0.0721   0.1494   0.1774
     0.1880   0.4068   0.4090   0.4309   0.4330   0.4661   0.5351   0.5620
     0.7530   0.7808   0.7989   0.8622   0.9166   1.0711   1.1893   1.1895
     1.2304   1.2858   1.3536   1.3649   1.4809   1.4809   1.5286   1.5562
     1.6609   1.7578   1.7748   1.8113   1.9190   1.9455   2.0637   2.1327
     2.1500   2.1761   2.3713   2.5729   2.5866   2.7928   2.8070   6.5088
     6.5097   6.6314   7.7067   7.7769   7.7964   8.0047   8.0058   8.1449
     8.4831   8.5484   8.7014   9.2587   9.3272   9.4689   9.4994   9.5751
     9.5909

          k = 0.3750 0.1320 0.0000 ( 34383 PWs)   bands (ev):

   -35.5733 -35.4602 -23.1552 -22.6555 -22.6553 -22.4124 -17.0081 -16.9064
   -16.8428 -16.7038 -16.6777 -16.5713 -14.9918 -14.9870 -14.9405 -14.6066
   -14.5811 -14.5367 -14.3337 -14.1824 -14.1805 -14.1198 -14.0585 -13.9668
   -13.9378 -13.6954 -13.6827  -8.5118  -8.2052  -7.9837  -7.9832  -7.9512
    -7.8289  -7.8285  -7.7862  -7.5781  -7.5777  -7.5666  -7.3224  -2.9489
    -2.9412  -2.7504  -2.5229  -2.3257  -2.3247  -2.0782  -2.0270  -2.0168
    -1.8547  -1.7577  -1.7183  -1.6130  -1.6116  -1.4708  -1.4334  -1.3275
    -1.3064  -1.3036  -1.1922  -1.0571  -1.0062  -0.8882  -0.8109  -0.7847
    -0.7280  -0.6695  -0.6177  -0.5663  -0.5465  -0.4125  -0.4044  -0.2635
    -0.2605  -0.0531  -0.0434   0.0517   0.1253   0.1341   0.1786   0.1926
     0.2121   0.3677   0.4384   0.4452   0.4577   0.6730   0.6865   0.7987
     0.8254   0.8889   0.9646   1.0283   1.1222   1.1398   1.1899   1.2275
     1.2675   1.3147   1.3646   1.3706   1.4964   1.5446   1.5554   1.5834
     1.7074   1.7470   1.7618   1.7973   1.8715   1.9446   2.0696   2.1939
     2.7464   2.7549   2.8868   2.9611   2.9747   3.1387   3.1838   6.5663
     6.6583   6.6589   7.7527   7.8252   7.8675   8.0681   8.0702   8.0766
     8.5028   8.6611   8.9152   8.9952   9.2484   9.3718   9.4960   9.5280
     9.6450

          k = 0.3750 0.2640 0.0000 ( 34389 PWs)   bands (ev):

   -35.5689 -35.4559 -23.1103 -22.6022 -22.6020 -22.3608 -16.9878 -16.8861
   -16.8221 -16.7676 -16.7140 -16.6295 -14.8694 -14.8664 -14.7461 -14.5109
   -14.4790 -14.3874 -14.2126 -14.1421 -14.1256 -14.1091 -14.0660 -13.9881
   -13.9060 -13.7195 -13.6914  -8.6366  -8.4354  -8.2851  -8.2848  -8.2111
    -8.0088  -7.9636  -7.9632  -7.8413  -7.8408  -7.7348  -7.5969  -3.2643
    -3.2368  -2.9894  -2.7447  -2.6506  -2.4960  -2.4930  -2.3771  -2.3764
    -2.3501  -2.2478  -2.2456  -2.2273  -2.0390  -1.7739  -1.7400  -1.6114
    -1.5339  -1.4516  -1.2536  -1.2324  -1.0596  -0.9420  -0.9209  -0.8707
    -0.8525  -0.7987  -0.6569  -0.6477  -0.6404  -0.6332  -0.5086  -0.4824
    -0.3985  -0.3673  -0.3270   0.0536   0.1143   0.2822   0.4235   0.4604
     0.6447   0.6881   0.7200   0.8222   0.8358   1.0102   1.0123   1.1142
     1.1745   1.2112   1.2419   1.2474   1.4074   1.4178   1.4622   1.4745
     1.5164   1.5868   1.6345   1.6509   1.6742   1.7124   1.7473   1.7568
     1.7709   1.8108   1.8232   1.8337   1.9148   2.0980   2.1410   2.2309
     2.9902   2.9941   3.6882   3.7338   3.7386   3.8611   3.9436   6.1818
     6.7037   6.7044   7.5003   7.6427   7.9597   8.2507   8.4098   8.4236
     8.8276   9.0539   9.2273   9.2444   9.4254   9.4478   9.5114   9.7584
     9.7997

          k = 0.3750 0.3960 0.0000 ( 34365 PWs)   bands (ev):

   -35.5646 -35.4516 -23.0644 -22.5476 -22.5473 -22.3080 -16.9705 -16.9488
   -16.8677 -16.8416 -16.6879 -16.5495 -14.7345 -14.7330 -14.4875 -14.4181
   -14.3874 -14.2313 -14.2226 -14.1817 -14.0753 -14.0728 -14.0179 -13.9860
   -13.8884 -13.7463 -13.6726  -8.9472  -8.5508  -8.5504  -8.5133  -8.3916
    -8.2790  -8.2159  -8.2158  -7.9661  -7.9653  -7.9023  -7.7613  -3.7437
    -3.7097  -3.4493  -3.3577  -3.1977  -2.9411  -2.9398  -2.6277  -2.6261
    -2.4649  -2.3110  -2.2746  -2.2741  -2.0861  -2.0518  -2.0470  -1.8406
    -1.7502  -1.6618  -1.2887  -1.2100  -1.2043  -1.2032  -1.1871  -0.9548
    -0.9470  -0.8633  -0.8569  -0.7940  -0.7089  -0.7021  -0.6651  -0.5827
    -0.4716  -0.3911  -0.3887   0.1509   0.2596   0.3302   0.5101   0.6394
     0.8628   0.9885   1.0813   1.1606   1.1632   1.2588   1.2844   1.3588
     1.3863   1.4805   1.4887   1.4969   1.5848   1.6211   1.6970   1.7157
     1.7448   1.7694   1.7988   1.8664   1.8977   1.9348   1.9488   1.9675
     2.0095   2.0360   2.0794   2.1502   2.1833   2.1842   2.3900   2.4308
     2.8096   2.8158   4.1605   4.2506   4.2642   4.3402   4.4226   5.6850
     6.4003   6.4013   7.1616   7.3784   8.1278   8.2195   8.8519   8.9855
     9.0024   9.1113   9.3847   9.5067   9.5286   9.5834   9.6223   9.7388
     9.9025

          k = 0.3750-0.5279 0.0000 ( 34392 PWs)   bands (ev):

   -35.5628 -35.4498 -23.0451 -22.5245 -22.5243 -22.2858 -17.0040 -16.9578
   -16.8953 -16.8563 -16.6524 -16.5142 -14.6732 -14.6723 -14.3920 -14.3585
   -14.3039 -14.2795 -14.2020 -14.1405 -14.0606 -14.0555 -14.0538 -13.9591
   -13.9078 -13.7394 -13.6619  -9.0587  -8.6420  -8.6329  -8.6323  -8.3835
    -8.3676  -8.3610  -8.3610  -8.0258  -7.9918  -7.9908  -7.7750  -3.9503
    -3.9158  -3.6900  -3.5870  -3.3990  -3.1664  -3.1650  -2.6462  -2.6447
    -2.4759  -2.3135  -2.2685  -2.2682  -2.1932  -2.1629  -2.0495  -1.9234
    -1.8508  -1.7068  -1.3595  -1.3162  -1.3015  -1.2355  -1.2297  -0.9539
    -0.9501  -0.9492  -0.9392  -0.8784  -0.8048  -0.7433  -0.6681  -0.5800
    -0.4572  -0.3775  -0.3757   0.1827   0.2980   0.3442   0.5382   0.7216
     0.9319   1.1164   1.2524   1.2722   1.2922   1.3091   1.3490   1.3597
     1.3942   1.5509   1.6015   1.6557   1.6965   1.7214   1.7559   1.7660
     1.8110   1.8586   1.8924   1.9958   2.0181   2.0489   2.0597   2.1009
     2.1501   2.1908   2.2123   2.2899   2.3720   2.3746   2.4982   2.5411
     2.5645   2.5737   4.2699   4.3939   4.4198   4.4877   4.5659   5.4737
     6.2228   6.2236   7.0414   7.2893   8.0725   8.2493   8.7660   9.0125
     9.1426   9.1624   9.3734   9.5144   9.6153   9.7782   9.8486   9.8671
     9.8982

          k =-0.5000 0.0000 0.0000 ( 34370 PWs)   bands (ev):

   -35.5740 -35.4609 -23.1585 -22.6581 -22.6578 -22.4151 -17.0691 -16.9675
   -16.8298 -16.6900 -16.6118 -16.5057 -15.0978 -15.0898 -15.0425 -14.6651
   -14.6025 -14.3855 -14.3168 -14.2396 -14.2286 -14.1924 -14.1552 -14.0175
   -13.9256 -13.7128 -13.6865  -8.5184  -7.9654  -7.9158  -7.9150  -7.8635
    -7.7490  -7.6424  -7.6424  -7.4522  -7.4518  -7.3749  -7.1956  -3.0292
    -3.0264  -2.8511  -2.6485  -2.3519  -2.3508  -2.0497  -1.6485  -1.6182
    -1.6106  -1.5766  -1.3707  -1.2871  -1.2624  -1.2399  -1.2159  -1.2145
    -1.1704  -1.1508  -1.0753  -0.9916  -0.9905  -0.9347  -0.8939  -0.8395
    -0.8097  -0.8084  -0.7982  -0.7235  -0.4988  -0.4531  -0.2727  -0.2413
    -0.2320  -0.2117  -0.1860  -0.1720   0.0654   0.0668   0.1393   0.1530
     0.1547   0.4068   0.4084   0.4320   0.4335   0.4584   0.5025   0.5305
     0.6878   0.8226   0.8662   0.8736   0.8901   1.1214   1.1388   1.1392
     1.3663   1.3749   1.4014   1.4109   1.4393   1.4673   1.5962   1.6496
     1.6577   1.6591   1.7170   1.8738   1.9597   2.0826   2.0903   2.1459
     2.1618   2.1803   2.3807   2.5578   2.5927   2.8200   2.8421   6.8126
     7.2822   7.2824   7.3334   7.3344   7.7587   8.1711   8.2741   8.5512
     8.5841   8.6221   9.0518   9.3467   9.4428   9.4610   9.5522   9.6327
     9.6613

          k =-0.5000 0.1320 0.0000 ( 34378 PWs)   bands (ev):

   -35.5722 -35.4591 -23.1407 -22.6373 -22.6370 -22.3950 -17.0598 -16.9583
   -16.8023 -16.6755 -16.6623 -16.5692 -15.0400 -15.0334 -14.9684 -14.6246
   -14.5644 -14.3443 -14.2586 -14.1988 -14.1973 -14.1705 -14.1269 -13.9838
   -13.9633 -13.7101 -13.7028  -8.4991  -8.0852  -8.0832  -7.9548  -7.9542
    -7.7718  -7.7718  -7.7684  -7.6552  -7.6547  -7.4955  -7.4093  -3.0974
    -3.0902  -2.9029  -2.6818  -2.3569  -2.3558  -2.0864  -1.9982  -1.9824
    -1.7983  -1.7124  -1.7104  -1.6077  -1.6063  -1.5092  -1.4652  -1.4220
    -1.4180  -1.3455  -1.3034  -1.1039  -1.0970  -0.8723  -0.8653  -0.8642
    -0.7114  -0.6763  -0.6559  -0.6459  -0.5747  -0.4490  -0.4428  -0.2873
    -0.2868  -0.0674  -0.0530   0.0657   0.1347   0.1418   0.1868   0.1880
     0.2765   0.3035   0.4328   0.5185   0.5198   0.5973   0.6092   0.7710
     0.8073   0.9135   0.9419   1.0584   1.1170   1.1427   1.1864   1.2484
     1.2845   1.2857   1.4212   1.4802   1.4835   1.5424   1.6358   1.6776
     1.6995   1.7272   1.7401   1.8806   1.9239   2.0691   2.1546   2.1803
     2.7535   2.7583   2.8940   2.9804   2.9951   3.1913   3.2220   6.6175
     7.1300   7.1302   7.6300   7.6372   7.7378   8.1810   8.2650   8.2851
     8.4807   8.8089   9.1711   9.2938   9.5106   9.5731   9.5807   9.6424
     9.6719

          k =-0.5000 0.2640 0.0000 ( 34396 PWs)   bands (ev):

   -35.5679 -35.4548 -23.0973 -22.5863 -22.5860 -22.3455 -17.0378 -16.9364
   -16.8188 -16.7312 -16.7109 -16.5922 -14.8883 -14.8839 -14.7636 -14.5280
   -14.4751 -14.2410 -14.1603 -14.1486 -14.1295 -14.1200 -14.0495 -14.0312
   -13.9089 -13.7154 -13.7109  -8.5862  -8.4343  -8.3634  -8.2239  -8.2233
    -8.0730  -8.0730  -7.9627  -7.9046  -7.9040  -7.7748  -7.7146  -3.4027
    -3.3754  -3.1351  -2.8885  -2.6434  -2.5214  -2.5183  -2.3895  -2.3866
    -2.3655  -2.2617  -2.2534  -2.2485  -2.0439  -1.8984  -1.8598  -1.6745
    -1.5634  -1.5448  -1.1775  -1.1447  -1.0377  -0.9647  -0.9635  -0.8982
    -0.8744  -0.8204  -0.6963  -0.6696  -0.6689  -0.6573  -0.5070  -0.4827
    -0.3895  -0.3887  -0.3603   0.0640   0.1269   0.3506   0.4637   0.5032
     0.6869   0.7422   0.7826   0.8536   0.8588   1.0959   1.0995   1.1443
     1.1789   1.1872   1.2170   1.2219   1.3994   1.4776   1.4779   1.5137
     1.5408   1.5641   1.6732   1.7035   1.7129   1.7658   1.8041   1.8199
     1.8352   1.8380   1.9126   1.9330   1.9672   2.0393   2.1684   2.2460
     2.9832   2.9876   3.6993   3.8702   3.8755   3.9929   4.0699   6.0422
     6.6997   6.7002   7.3784   7.5785   8.0716   8.4102   8.4472   8.4562
     9.0197   9.1937   9.2275   9.4261   9.5890   9.5950   9.6186   9.7347
     9.8394

          k =-0.5000 0.3960 0.0000 ( 34384 PWs)   bands (ev):

   -35.5635 -35.4505 -23.0531 -22.5341 -22.5338 -22.2949 -17.0163 -16.9479
   -16.9149 -16.8396 -16.6556 -16.5165 -14.7053 -14.7032 -14.4958 -14.4375
   -14.4006 -14.2157 -14.1724 -14.1335 -14.0734 -14.0719 -13.9704 -13.9584
   -13.9012 -13.7131 -13.6669  -9.0095  -8.6403  -8.5990  -8.5985  -8.3945
    -8.3610  -8.3610  -8.3397  -8.0372  -7.9824  -7.9815  -7.7719  -3.8740
    -3.8369  -3.5584  -3.3643  -3.3104  -2.9327  -2.9312  -2.6980  -2.6958
    -2.5361  -2.4019  -2.2916  -2.2905  -2.1863  -2.1528  -2.0552  -1.8866
    -1.8146  -1.6888  -1.2538  -1.2284  -1.2248  -1.1007  -1.0933  -1.0423
    -1.0376  -0.8822  -0.8806  -0.7782  -0.7701  -0.6966  -0.6875  -0.6140
    -0.4780  -0.3537  -0.3527   0.1670   0.2803   0.4063   0.5738   0.7340
     0.9505   1.1232   1.1644   1.2923   1.2931   1.2975   1.3145   1.3925
     1.4205   1.5361   1.5638   1.5685   1.5884   1.6875   1.7153   1.7478
     1.7672   1.8303   1.8491   1.9383   1.9684   1.9818   1.9946   2.0296
     2.0735   2.1133   2.1536   2.1588   2.2016   2.2724   2.3730   2.5198
     2.7973   2.8048   4.1597   4.5146   4.5179   4.5839   4.6616   5.4659
     6.2049   6.2053   6.9968   7.2308   8.1377   8.2097   8.7570   8.9328
     9.0093   9.2076   9.4352   9.5336   9.5850   9.6605   9.7479   9.8594
     9.9044

          k =-0.5000-0.5279 0.0000 ( 34420 PWs)   bands (ev):

   -35.5618 -35.4487 -23.0345 -22.5121 -22.5119 -22.2736 -17.0074 -16.9986
   -16.9061 -16.8900 -16.6221 -16.4833 -14.6084 -14.6076 -14.4325 -14.3855
   -14.3038 -14.2612 -14.1993 -14.0895 -14.0522 -14.0482 -13.9831 -13.9298
   -13.9174 -13.6916 -13.6377  -9.1754  -8.7547  -8.7450  -8.7444  -8.4950
    -8.4771  -8.4771  -8.3698  -8.1406  -8.0103  -8.0088  -7.7876  -4.0823
    -4.0441  -3.7659  -3.6243  -3.5106  -3.1570  -3.1555  -2.7306  -2.7283
    -2.5628  -2.4206  -2.2817  -2.2806  -2.2788  -2.2541  -2.0534  -1.9575
    -1.9031  -1.7305  -1.3435  -1.3412  -1.3194  -1.1650  -1.1583  -1.0168
    -1.0071  -0.9779  -0.9767  -0.8786  -0.8036  -0.8016  -0.7028  -0.5727
    -0.4829  -0.3251  -0.3239   0.2018   0.3199   0.4209   0.6086   0.8470
     1.0439   1.2933   1.3192   1.3533   1.3582   1.3699   1.4095   1.4121
     1.4436   1.6359   1.6595   1.7508   1.7616   1.8173   1.8385   1.8897
     1.9141   1.9231   1.9903   1.9944   2.0520   2.0839   2.0879   2.1091
     2.2037   2.2547   2.3460   2.3480   2.3608   2.4343   2.5401   2.5515
     2.5594   2.6761   4.2643   4.7149   4.7238   4.7859   4.8564   5.2295
     5.9780   5.9781   6.8629   7.1286   8.0731   8.1782   8.5951   9.0414
     9.0570   9.1002   9.2834   9.3025   9.5336   9.5662   9.8888   9.9749
    10.1127

     the Fermi energy is     2.5732 ev

!    total energy              =   -1842.87000242 Ry
     Harris-Foulkes estimate   =   -1842.87000242 Ry
     estimated scf accuracy    <          4.4E-11 Ry

     The total energy is the sum of the following terms:

     one-electron contribution =  -29489.49259542 Ry
     hartree contribution      =   14897.84680166 Ry
     xc contribution           =    -621.62108184 Ry
     ewald contribution        =   13370.40475372 Ry
     smearing contrib. (-TS)   =      -0.00788053 Ry

     convergence has been achieved in  37 iterations

     negative rho (up, down):  1.521E-03 0.000E+00

     Forces acting on atoms (cartesian axes, Ry/au):

     atom    1 type  4   force =     0.00000000    0.00000000   -0.00017941
     atom    2 type  3   force =     0.00000000    0.00000000    0.00040147
     atom    3 type  4   force =     0.00000000    0.00000000   -0.00077351
     atom    4 type  1   force =     0.00000000    0.00000000   -0.00027139
     atom    5 type  3   force =     0.00000000    0.00000000    0.00058781
     atom    6 type  4   force =     0.00000000    0.00000000    0.00000494
     atom    7 type  4   force =     0.00000000    0.00000000    0.00028042
     atom    8 type  2   force =     0.00000000    0.00000000   -0.00064246
     atom    9 type  4   force =     0.00000000    0.00000000    0.00022175
     atom   10 type  4   force =     0.00000000    0.00000000    0.00020119
     atom   11 type  3   force =     0.00000000    0.00000000    0.00020160
     atom   12 type  1   force =     0.00000000    0.00000000   -0.00066315
     atom   13 type  4   force =     0.00000000    0.00000000    0.00436449
     atom   14 type  4   force =     0.00000000    0.00000000    0.00856219
     atom   15 type  3   force =     0.00000000    0.00000000   -0.00548450
     atom   16 type  4   force =     0.00000000    0.00000000    0.00647305
     atom   17 type  1   force =     0.00000000    0.00000000    0.01543349
     atom   18 type  3   force =     0.00000000    0.00000000   -0.00283285
     atom   19 type  4   force =     0.00000000    0.00000000   -0.00737488
     atom   20 type  4   force =     0.00000000    0.00000000   -0.00625100
     atom   21 type  2   force =     0.00000000    0.00000000   -0.01462227
     atom   22 type  4   force =     0.00000000    0.00000000    0.00027580
     atom   23 type  4   force =     0.00000000    0.00000000    0.00131325
     atom   24 type  3   force =     0.00000000    0.00000000   -0.00024347
     atom   25 type  1   force =     0.00000000    0.00000000    0.00028755
     atom   26 type  4   force =     0.00000000    0.00000000    0.00104012
     atom   27 type  3   force =     0.00000000    0.00000000   -0.00057497
     atom   28 type  4   force =     0.00000000    0.00000000    0.00026476

     Total force =     0.026435     Total SCF correction =     0.000008


     Computing stress (Cartesian axis) and pressure


     negative rho (up, down):  1.521E-03 0.000E+00
          total   stress  (Ry/bohr**3)                   (kbar)     P=       -7.18
  -0.00006028   0.00000000   0.00000000           -8.87        0.00        0.00
   0.00000000  -0.00003473   0.00000000            0.00       -5.11        0.00
   0.00000000   0.00000000  -0.00005137            0.00        0.00       -7.56


     number of scf cycles    =   2
     number of bfgs steps    =   1

     energy   old            =   -1842.8867910130 Ry
     energy   new            =   -1842.8700024156 Ry

     CASE: energy  _new > energy  _old


 %%%%%%%%%%%%%%%%%%%%%%%%%%%%%%%%%%%%%%%%%%%%%%%%%%%%%%%%%%%%%%%%%%%%%%%%%%%%%%
     Error in routine bfgs (1):
     dE0s is positive which should never happen
 %%%%%%%%%%%%%%%%%%%%%%%%%%%%%%%%%%%%%%%%%%%%%%%%%%%%%%%%%%%%%%%%%%%%%%%%%%%%%%

     stopping ...
