
     Program PWSCF v.6.5 starts on  9Jul2021 at 18:51:48 

     This program is part of the open-source Quantum ESPRESSO suite
     for quantum simulation of materials; please cite
         "P. Giannozzi et al., J. Phys.:Condens. Matter 21 395502 (2009);
         "P. Giannozzi et al., J. Phys.:Condens. Matter 29 465901 (2017);
          URL http://www.quantum-espresso.org", 
     in publications or presentations arising from this work. More details at
     http://www.quantum-espresso.org/quote

     Parallel version (MPI), running on    20 processors

     MPI processes distributed on     2 nodes
     R & G space division:  proc/nbgrp/npool/nimage =      20
     Reading input from CBCO_Y_cleave_0.5_sep.pwi
Warning: card &CELL ignored
Warning: card     CELL_DYNAMICS = 'BFGS' ignored
Warning: card     PRESS_CONV_THR = 0.5 ignored
Warning: card / ignored

     Current dimensions of program PWSCF are:
     Max number of different atomic species (ntypx) = 10
     Max number of k-points (npk) =  40000
     Max angular momentum in pseudopotentials (lmaxx) =  3

     Subspace diagonalization in iterative solution of the eigenvalue problem:
     one sub-group per band group will be used
     scalapack distributed-memory algorithm (size of sub-group:  4*  4 procs)

     Message from routine setup:
     using ibrav=0 with symmetry is DISCOURAGED, use correct ibrav instead
 
     Parallelization info
     --------------------
     sticks:   dense  smooth     PW     G-vecs:    dense   smooth      PW
     Min         149      50     14                70963    13664    2134
     Max         150      51     15                71000    13687    2179
     Sum        2991    1007    289              1419661   273473   42977
 


     bravais-lattice index     =            0
     lattice parameter (alat)  =       7.4270  a.u.
     unit-cell volume          =    4351.6708 (a.u.)^3
     number of atoms/cell      =           28
     number of atomic types    =            4
     number of electrons       =       227.00
     number of Kohn-Sham states=          137
     kinetic-energy cutoff     =      60.0000  Ry
     charge density cutoff     =     720.0000  Ry
     convergence threshold     =      1.0E-10
     mixing beta               =       0.7000
     number of iterations used =           10  local-TF  mixing
     Exchange-correlation= SLA PW PBE PBE
                           (   1   4   3   4   0   0   0)
     nstep                     =          300


     celldm(1)=   7.427040  celldm(2)=   0.000000  celldm(3)=   0.000000
     celldm(4)=   0.000000  celldm(5)=   0.000000  celldm(6)=   0.000000

     crystal axes: (cart. coord. in units of alat)
               a(1) = (   1.000000   0.000000   0.000000 )  
               a(2) = (   0.000000   0.947081   0.000000 )  
               a(3) = (   0.000000   0.000000  11.215576 )  

     reciprocal axes: (cart. coord. in units 2 pi/alat)
               b(1) = (  1.000000  0.000000  0.000000 )  
               b(2) = (  0.000000  1.055876  0.000000 )  
               b(3) = (  0.000000  0.000000  0.089162 )  


     PseudoPot. # 1 for Ba read from file:
     ./pseudo/Ba.pbe-nsp-van.UPF
     MD5 check sum: 2b9c31dd849566dd297d80989662b7a0
     Pseudo is Ultrasoft + core correction, Zval = 10.0
     Generated by new atomic code, or converted to UPF format
     Using radial grid of  907 points,  6 beta functions with: 
                l(1) =   0
                l(2) =   0
                l(3) =   1
                l(4) =   1
                l(5) =   2
                l(6) =   2
     Q(r) pseudized with  6 coefficients,  rinner =    1.200   1.200   1.200
                                                       1.200   1.200

     PseudoPot. # 2 for Ca read from file:
     ./pseudo/Ca.pbe-nsp-van.UPF
     MD5 check sum: 6471098428ff4fa451746d08035ff179
     Pseudo is Ultrasoft + core correction, Zval = 10.0
     Generated by new atomic code, or converted to UPF format
     Using radial grid of  845 points,  6 beta functions with: 
                l(1) =   0
                l(2) =   0
                l(3) =   1
                l(4) =   1
                l(5) =   2
                l(6) =   2
     Q(r) pseudized with  6 coefficients,  rinner =    1.200   1.200   1.200
                                                       1.200   1.200

     PseudoPot. # 3 for Cu read from file:
     ./pseudo/Cu.pbe-n-van_ak.UPF
     MD5 check sum: 34e3282627ffb533726feb647e090d62
     Pseudo is Ultrasoft + core correction, Zval = 11.0
     Generated by new atomic code, or converted to UPF format
     Using radial grid of  867 points,  6 beta functions with: 
                l(1) =   0
                l(2) =   0
                l(3) =   1
                l(4) =   1
                l(5) =   2
                l(6) =   2
     Q(r) pseudized with  8 coefficients,  rinner =    1.400   1.400   1.400
                                                       1.400   1.400

     PseudoPot. # 4 for O  read from file:
     ./pseudo/O.pbe-van_ak.UPF
     MD5 check sum: 783ce7fe4c79b6a4916957118fed0856
     Pseudo is Ultrasoft, Zval =  6.0
     Generated by new atomic code, or converted to UPF format
     Using radial grid of  737 points,  4 beta functions with: 
                l(1) =   0
                l(2) =   0
                l(3) =   1
                l(4) =   1
     Q(r) pseudized with  8 coefficients,  rinner =    0.800   0.800   0.800


     atomic species   valence    mass     pseudopotential
        Ba            10.00   137.32700     Ba( 1.00)
        Ca            10.00    40.07800     Ca( 1.00)
        Cu            11.00    63.54600     Cu( 1.00)
        O              6.00    15.99900     O ( 1.00)

      4 Sym. Ops. (no inversion) found



   Cartesian axes

     site n.     atom                  positions (alat units)
         1           O   tau(   1) = (   0.0000000   0.4735409  -0.0472155  )
         2           Cu  tau(   2) = (   0.0000000   0.0000000   0.0265923  )
         3           O   tau(   3) = (   0.0000000   0.0000000   0.5056726  )
         4           Ba  tau(   4) = (   0.5000000   0.4735409   0.5719487  )
         5           Cu  tau(   5) = (   0.0000000   0.0000000   1.0427481  )
         6           O   tau(   6) = (   0.5000000   0.0000000   1.0823347  )
         7           O   tau(   7) = (   0.0000000   0.4735409   1.1174023  )
         8           Ca  tau(   8) = (   0.5000000   0.4735409   1.5053099  )
         9           O   tau(   9) = (   0.0000000   0.4735409   1.8763307  )
        10           O   tau(  10) = (   0.5000000   0.0000000   1.9141834  )
        11           Cu  tau(  11) = (   0.0000000   0.0000000   1.9612659  )
        12           Ba  tau(  12) = (   0.5000000   0.4735409   2.4420418  )
        13           O   tau(  13) = (   0.0000000   0.0000000   2.5244221  )
        14           O   tau(  14) = (   0.0000000   0.4735409   3.0072031  )
        15           Cu  tau(  15) = (   0.0000000   0.0000000   3.0072594  )
        16           O   tau(  16) = (   0.0000000   0.0000000   3.4900838  )
        17           Ba  tau(  17) = (   0.5000000   0.4735409   3.5724564  )
        18           Cu  tau(  18) = (   0.0000000   0.0000000   4.0552130  )
        19           O   tau(  19) = (   0.5000000   0.0000000   4.1033120  )
        20           O   tau(  20) = (   0.0000000   0.4735409   4.1369603  )
        21           Ca  tau(  21) = (   0.5000000   0.4735409   4.5079779  )
        22           O   tau(  22) = (   0.0000000   0.4735409   4.9222725  )
        23           O   tau(  23) = (   0.5000000   0.0000000   5.0266662  )
        24           Cu  tau(  24) = (   0.0000000   0.0000000   5.0631874  )
        25           Ba  tau(  25) = (   0.5000000   0.4735409   5.5126900  )
        26           O   tau(  26) = (   0.0000000   0.0000000   5.5792161  )
        27           Cu  tau(  27) = (   0.0000000   0.0000000   6.0582137  )
        28           O   tau(  28) = (   0.0000000   0.4735409   6.1320087  )

     number of k points=    25  Gaussian smearing, width (Ry)=  0.0100
                       cart. coord. in units 2pi/alat
        k(    1) = (   0.0000000   0.0000000   0.0000000), wk =   0.0312500
        k(    2) = (   0.0000000   0.1319845   0.0000000), wk =   0.0625000
        k(    3) = (   0.0000000   0.2639689   0.0000000), wk =   0.0625000
        k(    4) = (   0.0000000   0.3959534   0.0000000), wk =   0.0625000
        k(    5) = (   0.0000000  -0.5279378   0.0000000), wk =   0.0312500
        k(    6) = (   0.1250000   0.0000000   0.0000000), wk =   0.0625000
        k(    7) = (   0.1250000   0.1319845   0.0000000), wk =   0.1250000
        k(    8) = (   0.1250000   0.2639689   0.0000000), wk =   0.1250000
        k(    9) = (   0.1250000   0.3959534   0.0000000), wk =   0.1250000
        k(   10) = (   0.1250000  -0.5279378   0.0000000), wk =   0.0625000
        k(   11) = (   0.2500000   0.0000000   0.0000000), wk =   0.0625000
        k(   12) = (   0.2500000   0.1319845   0.0000000), wk =   0.1250000
        k(   13) = (   0.2500000   0.2639689   0.0000000), wk =   0.1250000
        k(   14) = (   0.2500000   0.3959534   0.0000000), wk =   0.1250000
        k(   15) = (   0.2500000  -0.5279378   0.0000000), wk =   0.0625000
        k(   16) = (   0.3750000   0.0000000   0.0000000), wk =   0.0625000
        k(   17) = (   0.3750000   0.1319845   0.0000000), wk =   0.1250000
        k(   18) = (   0.3750000   0.2639689   0.0000000), wk =   0.1250000
        k(   19) = (   0.3750000   0.3959534   0.0000000), wk =   0.1250000
        k(   20) = (   0.3750000  -0.5279378   0.0000000), wk =   0.0625000
        k(   21) = (  -0.5000000   0.0000000   0.0000000), wk =   0.0312500
        k(   22) = (  -0.5000000   0.1319845   0.0000000), wk =   0.0625000
        k(   23) = (  -0.5000000   0.2639689   0.0000000), wk =   0.0625000
        k(   24) = (  -0.5000000   0.3959534   0.0000000), wk =   0.0625000
        k(   25) = (  -0.5000000  -0.5279378   0.0000000), wk =   0.0312500

     Dense  grid:  1419661 G-vectors     FFT dimensions: (  64,  64, 720)

     Smooth grid:   273473 G-vectors     FFT dimensions: (  40,  36, 432)

     Estimated max dynamical RAM per process >     453.21 MB

     Estimated total dynamical RAM >       8.85 GB

     Initial potential from superposition of free atoms

     starting charge  226.84630, renormalised to  227.00000

     negative rho (up, down):  3.475E-03 0.000E+00
     Starting wfcs are  195 randomized atomic wfcs

     total cpu time spent up to now is       97.2 secs

     Self-consistent Calculation

     iteration #  1     ecut=    60.00 Ry     beta= 0.70
     Davidson diagonalization with overlap
     ethr =  1.00E-02,  avg # of iterations =  2.0

     negative rho (up, down):  2.775E-04 0.000E+00

     total cpu time spent up to now is      121.4 secs

     total energy              =   -1839.48318459 Ry
     Harris-Foulkes estimate   =   -1845.31544542 Ry
     estimated scf accuracy    <      18.50932076 Ry

     iteration #  2     ecut=    60.00 Ry     beta= 0.70
     Davidson diagonalization with overlap
     ethr =  8.15E-03,  avg # of iterations =  2.0

     negative rho (up, down):  2.525E-04 0.000E+00

     total cpu time spent up to now is      137.6 secs

     total energy              =   -1842.10205999 Ry
     Harris-Foulkes estimate   =   -1843.94378919 Ry
     estimated scf accuracy    <      12.40459275 Ry

     iteration #  3     ecut=    60.00 Ry     beta= 0.70
     Davidson diagonalization with overlap
     ethr =  5.46E-03,  avg # of iterations =  1.7

     negative rho (up, down):  2.401E-04 0.000E+00

     total cpu time spent up to now is      152.0 secs

     total energy              =   -1842.65283493 Ry
     Harris-Foulkes estimate   =   -1843.11256404 Ry
     estimated scf accuracy    <       4.26271771 Ry

     iteration #  4     ecut=    60.00 Ry     beta= 0.70
     Davidson diagonalization with overlap
     ethr =  1.88E-03,  avg # of iterations =  1.1

     negative rho (up, down):  2.346E-04 0.000E+00

     total cpu time spent up to now is      165.6 secs

     total energy              =   -1842.84639036 Ry
     Harris-Foulkes estimate   =   -1843.03637794 Ry
     estimated scf accuracy    <       7.50838396 Ry

     iteration #  5     ecut=    60.00 Ry     beta= 0.70
     Davidson diagonalization with overlap
     ethr =  1.88E-03,  avg # of iterations =  1.0

     negative rho (up, down):  2.310E-04 0.000E+00

     total cpu time spent up to now is      179.2 secs

     total energy              =   -1842.89836324 Ry
     Harris-Foulkes estimate   =   -1842.92382747 Ry
     estimated scf accuracy    <       1.16540279 Ry

     iteration #  6     ecut=    60.00 Ry     beta= 0.70
     Davidson diagonalization with overlap
     ethr =  5.13E-04,  avg # of iterations =  1.0

     negative rho (up, down):  2.299E-04 0.000E+00

     total cpu time spent up to now is      193.1 secs

     total energy              =   -1842.90436636 Ry
     Harris-Foulkes estimate   =   -1842.91906671 Ry
     estimated scf accuracy    <       2.05148520 Ry

     iteration #  7     ecut=    60.00 Ry     beta= 0.70
     Davidson diagonalization with overlap
     ethr =  5.13E-04,  avg # of iterations =  1.0

     negative rho (up, down):  2.293E-04 0.000E+00

     total cpu time spent up to now is      207.4 secs

     total energy              =   -1842.89885231 Ry
     Harris-Foulkes estimate   =   -1842.91094713 Ry
     estimated scf accuracy    <       1.25532070 Ry

     iteration #  8     ecut=    60.00 Ry     beta= 0.70
     Davidson diagonalization with overlap
     ethr =  5.13E-04,  avg # of iterations =  1.1

     negative rho (up, down):  2.297E-04 0.000E+00

     total cpu time spent up to now is      222.0 secs

     total energy              =   -1842.89498750 Ry
     Harris-Foulkes estimate   =   -1842.90368969 Ry
     estimated scf accuracy    <       0.66838013 Ry

     iteration #  9     ecut=    60.00 Ry     beta= 0.70
     Davidson diagonalization with overlap
     ethr =  2.94E-04,  avg # of iterations =  1.6

     negative rho (up, down):  2.295E-04 0.000E+00

     total cpu time spent up to now is      236.9 secs

     total energy              =   -1842.89122408 Ry
     Harris-Foulkes estimate   =   -1842.89791423 Ry
     estimated scf accuracy    <       0.27782445 Ry

     iteration # 10     ecut=    60.00 Ry     beta= 0.70
     Davidson diagonalization with overlap
     ethr =  1.22E-04,  avg # of iterations =  5.9

     negative rho (up, down):  2.294E-04 0.000E+00

     total cpu time spent up to now is      256.7 secs

     total energy              =   -1842.89029930 Ry
     Harris-Foulkes estimate   =   -1842.89343730 Ry
     estimated scf accuracy    <       0.07554331 Ry

     iteration # 11     ecut=    60.00 Ry     beta= 0.70
     Davidson diagonalization with overlap
     ethr =  3.33E-05,  avg # of iterations =  6.8

     negative rho (up, down):  2.294E-04 0.000E+00

     total cpu time spent up to now is      278.0 secs

     total energy              =   -1842.88945922 Ry
     Harris-Foulkes estimate   =   -1842.89100522 Ry
     estimated scf accuracy    <       0.04799355 Ry

     iteration # 12     ecut=    60.00 Ry     beta= 0.70
     Davidson diagonalization with overlap
     ethr =  2.11E-05,  avg # of iterations =  3.1

     negative rho (up, down):  8.438E-04 0.000E+00

     total cpu time spent up to now is      294.7 secs

     total energy              =   -1842.88732942 Ry
     Harris-Foulkes estimate   =   -1842.89004486 Ry
     estimated scf accuracy    <       0.06855085 Ry

     iteration # 13     ecut=    60.00 Ry     beta= 0.70
     Davidson diagonalization with overlap
     ethr =  2.11E-05,  avg # of iterations =  3.0

     negative rho (up, down):  5.233E-03 0.000E+00

     total cpu time spent up to now is      311.3 secs

     total energy              =   -1842.88680009 Ry
     Harris-Foulkes estimate   =   -1842.88798979 Ry
     estimated scf accuracy    <       0.03026535 Ry

     iteration # 14     ecut=    60.00 Ry     beta= 0.70
     Davidson diagonalization with overlap
     ethr =  1.33E-05,  avg # of iterations =  5.8

     negative rho (up, down):  9.021E-03 0.000E+00

     total cpu time spent up to now is      330.5 secs

     total energy              =   -1842.88596449 Ry
     Harris-Foulkes estimate   =   -1842.88700885 Ry
     estimated scf accuracy    <       0.01201926 Ry

     iteration # 15     ecut=    60.00 Ry     beta= 0.70
     Davidson diagonalization with overlap
     c_bands:  1 eigenvalues not converged
     ethr =  5.29E-06,  avg # of iterations =  8.2

     negative rho (up, down):  1.952E-02 0.000E+00

     total cpu time spent up to now is      352.9 secs

     total energy              =   -1842.88448547 Ry
     Harris-Foulkes estimate   =   -1842.88612504 Ry
     estimated scf accuracy    <       0.01453361 Ry

     iteration # 16     ecut=    60.00 Ry     beta= 0.70
     Davidson diagonalization with overlap
     ethr =  5.29E-06,  avg # of iterations =  7.6

     negative rho (up, down):  2.125E-02 0.000E+00

     total cpu time spent up to now is      375.4 secs

     total energy              =   -1842.88407015 Ry
     Harris-Foulkes estimate   =   -1842.88467095 Ry
     estimated scf accuracy    <       0.00408611 Ry

     iteration # 17     ecut=    60.00 Ry     beta= 0.70
     Davidson diagonalization with overlap
     c_bands:  1 eigenvalues not converged
     c_bands:  1 eigenvalues not converged
     ethr =  1.80E-06,  avg # of iterations =  9.7

     negative rho (up, down):  1.811E-02 0.000E+00

     total cpu time spent up to now is      400.3 secs

     total energy              =   -1842.88364054 Ry
     Harris-Foulkes estimate   =   -1842.88422901 Ry
     estimated scf accuracy    <       0.00355448 Ry

     iteration # 18     ecut=    60.00 Ry     beta= 0.70
     Davidson diagonalization with overlap
     c_bands:  1 eigenvalues not converged
     ethr =  1.57E-06,  avg # of iterations =  7.6

     negative rho (up, down):  1.189E-02 0.000E+00

     total cpu time spent up to now is      422.7 secs

     total energy              =   -1842.88344601 Ry
     Harris-Foulkes estimate   =   -1842.88375713 Ry
     estimated scf accuracy    <       0.00361303 Ry

     iteration # 19     ecut=    60.00 Ry     beta= 0.70
     Davidson diagonalization with overlap
     ethr =  1.57E-06,  avg # of iterations =  4.7

     negative rho (up, down):  1.184E-02 0.000E+00

     total cpu time spent up to now is      441.3 secs

     total energy              =   -1842.88345914 Ry
     Harris-Foulkes estimate   =   -1842.88350288 Ry
     estimated scf accuracy    <       0.00128958 Ry

     iteration # 20     ecut=    60.00 Ry     beta= 0.70
     Davidson diagonalization with overlap
     ethr =  5.68E-07,  avg # of iterations =  7.0

     negative rho (up, down):  2.373E-03 0.000E+00

     total cpu time spent up to now is      462.3 secs

     total energy              =   -1842.88331472 Ry
     Harris-Foulkes estimate   =   -1842.88350482 Ry
     estimated scf accuracy    <       0.00033607 Ry

     iteration # 21     ecut=    60.00 Ry     beta= 0.70
     Davidson diagonalization with overlap
     c_bands:  1 eigenvalues not converged
     c_bands:  1 eigenvalues not converged
     c_bands:  1 eigenvalues not converged
     c_bands:  1 eigenvalues not converged
     ethr =  1.48E-07,  avg # of iterations = 11.0

     negative rho (up, down):  2.098E-03 0.000E+00

     total cpu time spent up to now is      488.6 secs

     total energy              =   -1842.88335690 Ry
     Harris-Foulkes estimate   =   -1842.88333517 Ry
     estimated scf accuracy    <       0.00028562 Ry

     iteration # 22     ecut=    60.00 Ry     beta= 0.70
     Davidson diagonalization with overlap
     ethr =  1.26E-07,  avg # of iterations =  3.2

     negative rho (up, down):  1.512E-03 0.000E+00

     total cpu time spent up to now is      505.6 secs

     total energy              =   -1842.88336840 Ry
     Harris-Foulkes estimate   =   -1842.88336413 Ry
     estimated scf accuracy    <       0.00012412 Ry

     iteration # 23     ecut=    60.00 Ry     beta= 0.70
     Davidson diagonalization with overlap
     ethr =  5.47E-08,  avg # of iterations =  3.6

     negative rho (up, down):  1.399E-03 0.000E+00

     total cpu time spent up to now is      522.6 secs

     total energy              =   -1842.88338036 Ry
     Harris-Foulkes estimate   =   -1842.88337178 Ry
     estimated scf accuracy    <       0.00004330 Ry

     iteration # 24     ecut=    60.00 Ry     beta= 0.70
     Davidson diagonalization with overlap
     ethr =  1.91E-08,  avg # of iterations =  3.7

     negative rho (up, down):  1.288E-03 0.000E+00

     total cpu time spent up to now is      540.1 secs

     total energy              =   -1842.88338302 Ry
     Harris-Foulkes estimate   =   -1842.88338274 Ry
     estimated scf accuracy    <       0.00002561 Ry

     iteration # 25     ecut=    60.00 Ry     beta= 0.70
     Davidson diagonalization with overlap
     ethr =  1.13E-08,  avg # of iterations =  1.0

     negative rho (up, down):  1.341E-03 0.000E+00

     total cpu time spent up to now is      554.5 secs

     total energy              =   -1842.88338325 Ry
     Harris-Foulkes estimate   =   -1842.88338364 Ry
     estimated scf accuracy    <       0.00001463 Ry

     iteration # 26     ecut=    60.00 Ry     beta= 0.70
     Davidson diagonalization with overlap
     ethr =  6.45E-09,  avg # of iterations =  1.0

     negative rho (up, down):  1.433E-03 0.000E+00

     total cpu time spent up to now is      568.8 secs

     total energy              =   -1842.88338312 Ry
     Harris-Foulkes estimate   =   -1842.88338349 Ry
     estimated scf accuracy    <       0.00000729 Ry

     iteration # 27     ecut=    60.00 Ry     beta= 0.70
     Davidson diagonalization with overlap
     ethr =  3.21E-09,  avg # of iterations =  1.0

     negative rho (up, down):  1.448E-03 0.000E+00

     total cpu time spent up to now is      582.8 secs

     total energy              =   -1842.88338317 Ry
     Harris-Foulkes estimate   =   -1842.88338329 Ry
     estimated scf accuracy    <       0.00000452 Ry

     iteration # 28     ecut=    60.00 Ry     beta= 0.70
     Davidson diagonalization with overlap
     ethr =  1.99E-09,  avg # of iterations =  1.1

     negative rho (up, down):  1.480E-03 0.000E+00

     total cpu time spent up to now is      597.3 secs

     total energy              =   -1842.88338317 Ry
     Harris-Foulkes estimate   =   -1842.88338323 Ry
     estimated scf accuracy    <       0.00000117 Ry

     iteration # 29     ecut=    60.00 Ry     beta= 0.70
     Davidson diagonalization with overlap
     ethr =  5.16E-10,  avg # of iterations =  1.7

     negative rho (up, down):  1.484E-03 0.000E+00

     total cpu time spent up to now is      612.2 secs

     total energy              =   -1842.88338317 Ry
     Harris-Foulkes estimate   =   -1842.88338319 Ry
     estimated scf accuracy    <       0.00000030 Ry

     iteration # 30     ecut=    60.00 Ry     beta= 0.70
     Davidson diagonalization with overlap
     ethr =  1.34E-10,  avg # of iterations =  2.6

     negative rho (up, down):  1.472E-03 0.000E+00

     total cpu time spent up to now is      628.5 secs

     total energy              =   -1842.88338320 Ry
     Harris-Foulkes estimate   =   -1842.88338319 Ry
     estimated scf accuracy    <       0.00000004 Ry

     iteration # 31     ecut=    60.00 Ry     beta= 0.70
     Davidson diagonalization with overlap
     ethr =  1.61E-11,  avg # of iterations =  3.3

     negative rho (up, down):  1.472E-03 0.000E+00

     total cpu time spent up to now is      646.1 secs

     total energy              =   -1842.88338320 Ry
     Harris-Foulkes estimate   =   -1842.88338321 Ry
     estimated scf accuracy    <       0.00000003 Ry

     iteration # 32     ecut=    60.00 Ry     beta= 0.70
     Davidson diagonalization with overlap
     ethr =  1.50E-11,  avg # of iterations =  1.0

     negative rho (up, down):  1.472E-03 0.000E+00

     total cpu time spent up to now is      660.8 secs

     total energy              =   -1842.88338321 Ry
     Harris-Foulkes estimate   =   -1842.88338321 Ry
     estimated scf accuracy    <       0.00000003 Ry

     iteration # 33     ecut=    60.00 Ry     beta= 0.70
     Davidson diagonalization with overlap
     ethr =  1.18E-11,  avg # of iterations =  1.0

     negative rho (up, down):  1.473E-03 0.000E+00

     total cpu time spent up to now is      675.2 secs

     total energy              =   -1842.88338320 Ry
     Harris-Foulkes estimate   =   -1842.88338321 Ry
     estimated scf accuracy    <       0.00000001 Ry

     iteration # 34     ecut=    60.00 Ry     beta= 0.70
     Davidson diagonalization with overlap
     ethr =  5.87E-12,  avg # of iterations =  1.0

     negative rho (up, down):  1.480E-03 0.000E+00

     total cpu time spent up to now is      689.7 secs

     total energy              =   -1842.88338319 Ry
     Harris-Foulkes estimate   =   -1842.88338320 Ry
     estimated scf accuracy    <          8.0E-09 Ry

     iteration # 35     ecut=    60.00 Ry     beta= 0.70
     Davidson diagonalization with overlap
     ethr =  3.51E-12,  avg # of iterations =  1.0

     negative rho (up, down):  1.486E-03 0.000E+00

     total cpu time spent up to now is      703.9 secs

     total energy              =   -1842.88338318 Ry
     Harris-Foulkes estimate   =   -1842.88338319 Ry
     estimated scf accuracy    <          2.0E-09 Ry

     iteration # 36     ecut=    60.00 Ry     beta= 0.70
     Davidson diagonalization with overlap
     ethr =  8.84E-13,  avg # of iterations =  1.7

     negative rho (up, down):  1.487E-03 0.000E+00

     total cpu time spent up to now is      718.9 secs

     total energy              =   -1842.88338318 Ry
     Harris-Foulkes estimate   =   -1842.88338318 Ry
     estimated scf accuracy    <          1.4E-09 Ry

     iteration # 37     ecut=    60.00 Ry     beta= 0.70
     Davidson diagonalization with overlap
     ethr =  6.03E-13,  avg # of iterations =  1.0

     negative rho (up, down):  1.488E-03 0.000E+00

     total cpu time spent up to now is      732.9 secs

     total energy              =   -1842.88338318 Ry
     Harris-Foulkes estimate   =   -1842.88338318 Ry
     estimated scf accuracy    <          5.2E-10 Ry

     iteration # 38     ecut=    60.00 Ry     beta= 0.70
     Davidson diagonalization with overlap
     ethr =  2.30E-13,  avg # of iterations =  1.2

     negative rho (up, down):  1.488E-03 0.000E+00

     total cpu time spent up to now is      747.5 secs

     total energy              =   -1842.88338318 Ry
     Harris-Foulkes estimate   =   -1842.88338318 Ry
     estimated scf accuracy    <          2.8E-10 Ry

     iteration # 39     ecut=    60.00 Ry     beta= 0.70
     Davidson diagonalization with overlap
     ethr =  1.24E-13,  avg # of iterations =  1.5

     negative rho (up, down):  1.490E-03 0.000E+00

     total cpu time spent up to now is      762.2 secs

     total energy              =   -1842.88338318 Ry
     Harris-Foulkes estimate   =   -1842.88338318 Ry
     estimated scf accuracy    <          5.4E-10 Ry

     iteration # 40     ecut=    60.00 Ry     beta= 0.70
     Davidson diagonalization with overlap
     ethr =  1.24E-13,  avg # of iterations =  1.1

     negative rho (up, down):  1.490E-03 0.000E+00

     total cpu time spent up to now is      776.2 secs

     End of self-consistent calculation

          k = 0.0000 0.0000 0.0000 ( 34267 PWs)   bands (ev):

   -36.0984 -35.5832 -22.8018 -22.7650 -22.5596 -22.5038 -17.3699 -17.1463
   -17.1026 -17.0665 -16.6324 -16.6221 -15.2561 -15.1401 -14.7960 -14.7395
   -14.6570 -14.6119 -14.5430 -14.1965 -14.1321 -13.9355 -13.9340 -13.7820
   -13.7245 -13.6739 -13.5662  -7.9233  -7.9006  -7.8798  -7.8533  -7.7515
    -7.7093  -7.6860  -7.6607  -7.5973  -7.5409  -7.4316  -7.3778  -2.4444
    -2.2377  -2.1608  -1.8211  -1.7942  -1.7889  -1.7280  -1.6562  -1.6247
    -1.4974  -1.4763  -1.4418  -1.3569  -1.1778  -1.1651  -0.9967  -0.9888
    -0.7717  -0.5479  -0.5247  -0.4740  -0.3902  -0.3362  -0.2761  -0.2339
    -0.2192  -0.2072  -0.2040  -0.1955  -0.1944  -0.1883  -0.1530  -0.1414
    -0.0985  -0.0465   0.0089   0.0432   0.1464   0.1481   0.1599   0.1655
     0.1789   0.2152   0.2213   0.2889   0.3371   0.3541   0.3581   0.4566
     0.4730   0.8281   0.8356   0.9241   0.9326   0.9952   1.0332   1.2230
     1.3295   1.3753   1.3978   1.4307   1.4406   1.5335   1.5378   1.5751
     1.5768   1.5933   1.7034   1.7976   1.8624   1.8980   2.0697   2.1772
     2.2126   2.2363   2.3064   2.3185   2.3961   2.5673   2.6383   5.2213
     5.2459   5.7610   6.1184   6.4346   6.7099   6.7797   7.1426   7.3140
     8.0102   8.1236   8.2716   8.3563   8.4479   8.6062   8.6469   9.0807
     9.0967

          k = 0.0000 0.1320 0.0000 ( 34203 PWs)   bands (ev):

   -36.0968 -35.5814 -22.7743 -22.7386 -22.5344 -22.4786 -17.3539 -17.1825
   -17.1006 -17.0312 -16.6918 -16.6301 -15.1686 -15.0760 -14.7656 -14.7343
   -14.6216 -14.6146 -14.5141 -14.1904 -14.1451 -13.9581 -13.9420 -13.8258
   -13.7577 -13.7192 -13.6249  -7.8994  -7.8948  -7.8746  -7.8058  -7.7514
    -7.7364  -7.7034  -7.6819  -7.5531  -7.4959  -7.4805  -7.4245  -2.4806
    -2.3070  -2.2329  -2.1268  -2.0931  -2.0150  -2.0022  -1.6301  -1.6121
    -1.6042  -1.6023  -1.5911  -1.4796  -1.3293  -1.3197  -1.2745  -1.0634
    -0.9006  -0.5880  -0.5785  -0.5761  -0.5636  -0.4891  -0.4319  -0.4168
    -0.3933  -0.3285  -0.2996  -0.2895  -0.1637  -0.1130  -0.1015  -0.0938
    -0.0578   0.0066   0.0310   0.0483   0.0513   0.1663   0.1688   0.1743
     0.1894   0.2075   0.2309   0.2325   0.2975   0.3134   0.3857   0.4049
     0.7846   0.9345   0.9954   1.0926   1.1033   1.1197   1.1215   1.1518
     1.1892   1.2335   1.3415   1.4308   1.4569   1.5199   1.5395   1.5895
     1.6497   1.6584   1.7158   1.7691   1.8519   1.8923   2.0131   2.0388
     2.1216   2.1397   2.2695   2.5400   2.8271   2.8633   2.9212   5.6129
     5.6250   6.0887   6.3918   6.6402   6.9930   7.0855   7.4695   7.5867
     8.1835   8.3053   8.4823   8.5399   8.6613   8.7478   8.8802   9.1840
     9.2707

          k = 0.0000 0.2640 0.0000 ( 34079 PWs)   bands (ev):

   -36.0929 -35.5770 -22.7064 -22.6732 -22.4722 -22.4164 -17.3422 -17.2373
   -17.0957 -16.9416 -16.8410 -16.6245 -14.9677 -14.9527 -14.8001 -14.6607
   -14.5955 -14.5220 -14.4481 -14.1489 -14.1386 -14.0488 -13.9833 -13.9468
   -13.8453 -13.7966 -13.7516  -7.9267  -7.8972  -7.7997  -7.7950  -7.7518
    -7.7512  -7.6863  -7.6706  -7.5885  -7.5245  -7.4421  -7.3828  -2.7875
    -2.7272  -2.6378  -2.6076  -2.5541  -2.3713  -2.3180  -2.2353  -2.2100
    -2.1370  -1.5987  -1.5552  -1.5492  -1.4228  -1.4089  -1.2949  -1.2507
    -0.9943  -0.9404  -0.9042  -0.8451  -0.8250  -0.7398  -0.7251  -0.6056
    -0.5638  -0.4951  -0.4827  -0.4685  -0.4516  -0.4128  -0.3734  -0.2691
    -0.1148  -0.0345   0.0095   0.0524   0.0607   0.0647   0.1394   0.1992
     0.2354   0.2448   0.3472   0.4164   0.5670   0.6568   0.7297   0.7349
     0.9719   1.0109   1.0295   1.0852   1.1205   1.1715   1.2006   1.2155
     1.2414   1.2461   1.2888   1.3570   1.4050   1.4959   1.6182   1.6901
     1.7376   1.7458   1.8202   1.9205   1.9666   1.9850   2.0127   2.0166
     2.0236   2.1243   2.2650   2.6610   3.0099   3.0659   3.7470   6.5227
     6.5293   6.8301   7.0147   7.3260   7.7601   7.9123   8.3260   8.3770
     8.6314   8.7217   8.7489   8.9099   8.9302   8.9758   9.1333   9.3306
     9.3314

          k = 0.0000 0.3960 0.0000 ( 34048 PWs)   bands (ev):

   -36.0890 -35.5727 -22.6361 -22.6056 -22.4081 -22.3522 -17.4001 -17.2153
   -17.0908 -16.9736 -16.8429 -16.6189 -15.0224 -14.8679 -14.6418 -14.6353
   -14.4555 -14.4022 -14.3663 -14.1827 -14.1030 -14.0717 -14.0668 -14.0501
   -13.9740 -13.9032 -13.8325  -7.9474  -7.8953  -7.8741  -7.8640  -7.7478
    -7.6863  -7.6563  -7.6206  -7.6131  -7.5589  -7.3247  -7.2629  -3.3969
    -3.2422  -3.1072  -3.0171  -3.0003  -2.9498  -2.6672  -2.3790  -2.2853
    -2.1746  -1.9368  -1.7420  -1.6658  -1.4848  -1.4446  -1.3295  -1.1983
    -1.1581  -1.1103  -1.0770  -1.0725  -1.0054  -0.9425  -0.9165  -0.8258
    -0.7934  -0.7778  -0.7058  -0.7032  -0.6661  -0.5873  -0.5734  -0.2971
    -0.2155  -0.1462  -0.0462   0.0756   0.0783   0.0847   0.1730   0.1813
     0.1915   0.2263   0.4823   0.5356   0.6663   0.8190   0.9199   0.9389
     0.9617   0.9685   0.9934   1.0381   1.0958   1.1249   1.1493   1.1671
     1.2092   1.4182   1.5597   1.5798   1.6416   1.6424   1.6583   1.7307
     1.7705   1.7773   1.9041   1.9765   1.9778   2.0252   2.1264   2.2188
     2.2915   2.4078   2.4100   2.5756   2.8509   2.9580   4.2954   7.4402
     7.4708   7.4862   7.9119   8.2770   8.5455   8.6707   8.6877   8.7115
     8.8479   9.0994   9.1121   9.2188   9.3458   9.4082   9.4793   9.5379
     9.7316

          k = 0.0000-0.5279 0.0000 ( 34110 PWs)   bands (ev):

   -36.0874 -35.5709 -22.6062 -22.5769 -22.3809 -22.3251 -17.4318 -17.1965
   -17.0887 -17.0244 -16.7995 -16.6166 -15.0787 -14.9057 -14.5244 -14.4910
   -14.4498 -14.4259 -14.2267 -14.1889 -14.1696 -14.0963 -14.0904 -14.0359
   -14.0354 -13.9852 -13.8624  -7.9483  -7.9038  -7.8957  -7.8945  -7.7359
    -7.7290  -7.6551  -7.6466  -7.5635  -7.5035  -7.2739  -7.2109  -3.6626
    -3.4207  -3.2758  -3.2175  -3.1929  -3.1720  -2.7438  -2.4155  -2.3008
    -2.1870  -2.0646  -1.8724  -1.8077  -1.4515  -1.3768  -1.2931  -1.2622
    -1.2569  -1.1584  -1.1330  -1.1304  -1.0491  -1.0256  -0.9580  -0.9383
    -0.8999  -0.8906  -0.7925  -0.7808  -0.7424  -0.6856  -0.6821  -0.2660
    -0.2448  -0.1955  -0.0435   0.0797   0.0842   0.0888   0.1585   0.2083
     0.2100   0.2216   0.4624   0.4760   0.6958   0.8152   0.8512   0.8918
     0.9204   0.9475   1.0401   1.0919   1.1158   1.1489   1.1617   1.1928
     1.3571   1.4124   1.5505   1.6186   1.6291   1.7359   1.7740   1.7805
     1.8607   2.0056   2.0493   2.0499   2.0603   2.0692   2.0948   2.2455
     2.2932   2.5285   2.5694   2.5714   2.6421   2.7782   4.4660   7.7617
     7.8663   7.8767   8.4168   8.5729   8.5751   8.9255   8.9510   9.0140
     9.0145   9.1969   9.2304   9.3555   9.3794   9.4133   9.5660   9.9548
    10.0037

          k = 0.1250 0.0000 0.0000 ( 34183 PWs)   bands (ev):

   -36.0975 -35.5821 -22.7839 -22.7471 -22.5424 -22.4868 -17.3489 -17.1504
   -17.1452 -17.0338 -16.7092 -16.6207 -15.1560 -15.0630 -14.8135 -14.7787
   -14.6557 -14.6497 -14.5469 -14.2002 -14.1432 -13.9513 -13.9481 -13.8038
   -13.7581 -13.7299 -13.5957  -7.9482  -7.9244  -7.8176  -7.7941  -7.7924
    -7.7151  -7.6768  -7.6285  -7.5319  -7.4831  -7.4015  -7.3476  -2.4769
    -2.2829  -2.1938  -1.8765  -1.8270  -1.8048  -1.7667  -1.7665  -1.7640
    -1.6994  -1.6652  -1.4450  -1.4103  -1.1755  -1.1629  -1.0357  -1.0081
    -0.8011  -0.7103  -0.6175  -0.5749  -0.4938  -0.4727  -0.3816  -0.3662
    -0.3423  -0.2723  -0.2696  -0.2613  -0.2214  -0.1964  -0.1581  -0.1519
    -0.1063  -0.0671  -0.0230   0.0018   0.1393   0.1534   0.1582   0.1844
     0.2429   0.2483   0.2676   0.3733   0.4132   0.4256   0.4600   0.4938
     0.5744   0.8304   0.8582   0.9137   0.9364   1.0255   1.0892   1.1301
     1.2242   1.2543   1.4125   1.4382   1.4500   1.4557   1.5260   1.5423
     1.5490   1.5873   1.8486   1.9325   2.0205   2.0222   2.1129   2.1465
     2.2099   2.2345   2.3051   2.3548   2.3708   2.6016   2.6592   5.4130
     5.4269   5.9817   6.3184   6.5774   6.9323   6.9955   7.3370   7.5293
     8.1604   8.2591   8.4611   8.5390   8.6900   8.7942   8.9091   9.1693
     9.2160

          k = 0.1250 0.1320 0.0000 ( 34158 PWs)   bands (ev):

   -36.0958 -35.5803 -22.7573 -22.7215 -22.5179 -22.4623 -17.3346 -17.1800
   -17.1474 -16.9996 -16.7121 -16.6815 -15.0755 -15.0048 -14.7895 -14.7550
   -14.6484 -14.6106 -14.5161 -14.1884 -14.1466 -13.9706 -13.9551 -13.8412
   -13.7889 -13.7647 -13.6443  -8.0009  -7.9396  -7.8594  -7.8463  -7.7879
    -7.7124  -7.6391  -7.6304  -7.5910  -7.5744  -7.3604  -7.3057  -2.5092
    -2.3443  -2.2559  -2.1216  -2.0813  -1.9969  -1.9824  -1.8426  -1.8063
    -1.7384  -1.6351  -1.6208  -1.5965  -1.5816  -1.3205  -1.2700  -1.1043
    -0.9268  -0.8435  -0.7387  -0.6371  -0.6067  -0.5637  -0.5053  -0.4994
    -0.4685  -0.4441  -0.4359  -0.3275  -0.2144  -0.1590  -0.1480  -0.0981
    -0.0828  -0.0291   0.0111   0.0352   0.0575   0.1742   0.1882   0.2006
     0.2503   0.2571   0.2718   0.3041   0.3262   0.3431   0.5570   0.5855
     0.7690   0.9913   1.0687   1.0898   1.1096   1.1507   1.1750   1.2089
     1.2456   1.2718   1.3181   1.3315   1.3471   1.3775   1.5430   1.5607
     1.6314   1.6416   1.6946   1.7526   1.8207   1.8473   2.0529   2.2786
     2.3807   2.4618   2.5662   2.6192   2.8395   2.8689   2.9329   5.7618
     5.7680   6.2568   6.5295   6.7679   7.2103   7.2931   7.6531   7.7988
     8.3275   8.4292   8.6336   8.6916   8.8335   8.8896   9.0812   9.1525
     9.2232

          k = 0.1250 0.2640 0.0000 ( 34093 PWs)   bands (ev):

   -36.0920 -35.5760 -22.6915 -22.6581 -22.4576 -22.4020 -17.3327 -17.2266
   -17.1399 -16.9128 -16.8379 -16.6926 -14.9217 -14.8969 -14.7668 -14.6500
   -14.6065 -14.5048 -14.4428 -14.1424 -14.1338 -14.0498 -14.0048 -13.9397
   -13.8695 -13.8138 -13.7551  -8.0669  -8.0059  -7.8980  -7.8912  -7.7906
    -7.7649  -7.7013  -7.6718  -7.6276  -7.5826  -7.3549  -7.3003  -2.8091
    -2.7340  -2.6488  -2.6180  -2.5618  -2.3713  -2.3061  -2.2303  -2.2123
    -2.1501  -1.7963  -1.7561  -1.6927  -1.5697  -1.5626  -1.4182  -1.3517
    -1.0359  -0.9504  -0.9231  -0.9215  -0.8774  -0.8259  -0.8215  -0.8163
    -0.6835  -0.6368  -0.6301  -0.5254  -0.4986  -0.4559  -0.3118  -0.2702
    -0.2014  -0.1303  -0.0691   0.0043   0.0258   0.0361   0.2142   0.2520
     0.3018   0.4269   0.5092   0.5421   0.7356   0.7753   0.7970   0.8245
     0.8523   1.0527   1.0773   1.1412   1.1475   1.2105   1.2816   1.3390
     1.3527   1.3881   1.4153   1.4389   1.4565   1.5059   1.5392   1.6144
     1.6480   1.6862   1.7296   1.7616   1.9763   1.9781   2.0807   2.3024
     2.5752   2.5880   2.7195   2.8403   3.0117   3.0785   3.7475   6.5838
     6.5924   6.8177   7.0864   7.4035   7.9541   8.0801   8.5017   8.5472
     8.6505   8.7678   8.7928   8.8462   8.9801   9.0357   9.1391   9.2299
     9.3641

          k = 0.1250 0.3960 0.0000 ( 34104 PWs)   bands (ev):

   -36.0881 -35.5716 -22.6234 -22.5927 -22.3954 -22.3397 -17.3961 -17.2021
   -17.1316 -16.9686 -16.8171 -16.6842 -14.9883 -14.8317 -14.5911 -14.5647
   -14.4377 -14.3773 -14.3543 -14.1740 -14.1045 -14.0841 -14.0708 -14.0385
   -13.9886 -13.8919 -13.8268  -8.0601  -8.0376  -7.9338  -7.9069  -7.8389
    -7.7915  -7.7258  -7.6845  -7.6787  -7.6285  -7.3899  -7.3417  -3.3866
    -3.2818  -3.1446  -3.0453  -2.9970  -2.9414  -2.6975  -2.3728  -2.2945
    -2.1894  -1.8932  -1.7357  -1.6524  -1.6273  -1.6058  -1.5411  -1.4009
    -1.2845  -1.2323  -1.2034  -1.1348  -1.1098  -1.0624  -1.0198  -0.9257
    -0.8308  -0.8230  -0.8059  -0.7629  -0.7438  -0.7052  -0.5364  -0.3346
    -0.2894  -0.1883  -0.1019   0.0093   0.0310   0.1233   0.2470   0.2589
     0.3313   0.4701   0.6421   0.7132   0.7461   0.8476   0.9349   0.9913
     1.0073   1.0877   1.1009   1.1442   1.2016   1.2361   1.2628   1.2990
     1.3300   1.4996   1.5857   1.6198   1.6710   1.6933   1.7528   1.7830
     1.8376   1.8918   1.9211   2.0156   2.1146   2.3745   2.3759   2.4165
     2.4452   2.5253   2.6912   2.7629   2.8615   3.0202   4.2795   7.1764
     7.3331   7.3449   7.8177   8.1452   8.5390   8.6141   8.6922   8.6995
     8.9324   9.0004   9.1950   9.3978   9.4702   9.5392   9.5737   9.6969
     9.8354

          k = 0.1250-0.5279 0.0000 ( 34036 PWs)   bands (ev):

   -36.0864 -35.5698 -22.5945 -22.5650 -22.3691 -22.3134 -17.4282 -17.1851
   -17.1273 -17.0190 -16.7752 -16.6806 -15.0328 -14.8606 -14.4547 -14.4489
   -14.4031 -14.3884 -14.2252 -14.1729 -14.1501 -14.1267 -14.1101 -14.0366
   -14.0361 -13.9673 -13.8450  -8.0328  -8.0256  -7.9545  -7.9109  -7.8506
    -7.7801  -7.7453  -7.7353  -7.6801  -7.6628  -7.4121  -7.3674  -3.6538
    -3.4683  -3.3214  -3.2227  -3.2093  -3.1698  -2.7920  -2.4093  -2.3145
    -2.2048  -1.9689  -1.7612  -1.6827  -1.5666  -1.4945  -1.4802  -1.4520
    -1.4173  -1.3555  -1.3122  -1.3120  -1.2044  -1.1476  -1.0825  -0.9564
    -0.9442  -0.8999  -0.8802  -0.8412  -0.8064  -0.7895  -0.6680  -0.3374
    -0.2800  -0.1948  -0.1154   0.0024   0.0576   0.1744   0.2601   0.2696
     0.3512   0.4738   0.6673   0.6878   0.7647   0.8234   0.9541   0.9761
     0.9901   1.0113   1.0603   1.0675   1.1778   1.2882   1.3606   1.3787
     1.3888   1.5219   1.5613   1.7793   1.8219   1.8509   1.8727   2.0205
     2.0450   2.0640   2.0669   2.0796   2.2835   2.2894   2.3809   2.5149
     2.5399   2.5427   2.5632   2.5905   2.6893   2.8977   4.4421   7.2899
     7.5500   7.5526   8.0225   8.3264   8.5344   8.9827   9.0002   9.0897
     9.1108   9.3361   9.3501   9.4900   9.5435   9.6524   9.7497   9.9823
    10.0578

          k = 0.2500 0.0000 0.0000 ( 34204 PWs)   bands (ev):

   -36.0951 -35.5795 -22.7400 -22.7032 -22.5003 -22.4453 -17.3136 -17.2391
   -17.1423 -16.9506 -16.8677 -16.6175 -14.9544 -14.9395 -14.8741 -14.8294
   -14.7410 -14.6014 -14.5659 -14.2035 -14.1611 -14.0120 -13.9949 -13.8724
   -13.8470 -13.8295 -13.6550  -7.9316  -7.9256  -7.8522  -7.7446  -7.7064
    -7.7006  -7.5958  -7.5484  -7.4564  -7.3955  -7.3269  -7.2727  -2.5950
    -2.4990  -2.3984  -2.2965  -2.1430  -2.1262  -2.0714  -1.7587  -1.7055
    -1.6757  -1.6101  -1.4693  -1.4215  -1.1713  -1.1588  -1.1571  -1.0641
    -1.0231  -0.9025  -0.8803  -0.8313  -0.7272  -0.6718  -0.6446  -0.6239
    -0.5984  -0.4601  -0.4596  -0.4172  -0.3378  -0.2590  -0.2393  -0.2117
    -0.1958  -0.1617  -0.1224   0.0100   0.1264   0.1401   0.2301   0.2589
     0.3285   0.3724   0.4369   0.4547   0.4982   0.5085   0.5892   0.6619
     0.6977   0.7589   0.8462   0.9647   0.9815   1.0654   1.0825   1.1581
     1.2813   1.3111   1.3421   1.3919   1.4586   1.4882   1.4914   1.5079
     1.5938   1.6278   1.8011   1.9106   1.9785   2.0716   2.0826   2.1301
     2.2484   2.3262   2.4624   2.5304   2.5439   2.7080   2.7418   5.8849
     5.8862   6.4808   6.7830   7.0670   7.5343   7.5775   7.8793   8.0914
     8.5159   8.5276   8.7621   8.9452   9.1494   9.2437   9.2833   9.3286
     9.3495

          k = 0.2500 0.1320 0.0000 ( 34143 PWs)   bands (ev):

   -36.0935 -35.5777 -22.7154 -22.6796 -22.4776 -22.4225 -17.3057 -17.2346
   -17.1717 -16.9194 -16.8614 -16.6812 -14.9226 -14.9007 -14.8143 -14.7753
   -14.6950 -14.5608 -14.5303 -14.1826 -14.1477 -14.0176 -13.9971 -13.8843
   -13.8700 -13.8566 -13.6823  -8.0587  -7.9893  -7.8702  -7.8471  -7.8180
    -7.7209  -7.6487  -7.5760  -7.5676  -7.5152  -7.2897  -7.2392  -2.6283
    -2.5507  -2.4403  -2.3304  -2.1361  -2.1270  -2.0675  -2.0497  -2.0167
    -1.9240  -1.9162  -1.6417  -1.5869  -1.5768  -1.3729  -1.3453  -1.2495
    -1.0553  -0.9943  -0.9618  -0.9177  -0.8923  -0.8411  -0.8273  -0.6677
    -0.5765  -0.5567  -0.5253  -0.4447  -0.3872  -0.2838  -0.2657  -0.1697
    -0.1633  -0.1308   0.0134   0.0656   0.1135   0.1761   0.1913   0.2302
     0.2798   0.3463   0.3746   0.4106   0.5966   0.6557   0.6896   0.8161
     0.9397   0.9566   0.9837   1.0102   1.1044   1.1233   1.2165   1.2620
     1.2809   1.3572   1.3712   1.4235   1.4429   1.4706   1.5145   1.5200
     1.5792   1.6594   1.6861   1.7630   1.8168   1.8946   2.0535   2.3835
     2.7038   2.7617   2.8877   2.8915   2.9130   2.9976   3.0081   6.1495
     6.1510   6.5919   6.9018   7.2134   7.7858   7.8377   8.1563   8.3282
     8.6138   8.6426   8.8597   8.9174   9.0994   9.1248   9.2119   9.3162
     9.4363

          k = 0.2500 0.2640 0.0000 ( 34141 PWs)   bands (ev):

   -36.0897 -35.5734 -22.6549 -22.6213 -22.4218 -22.3666 -17.3176 -17.2527
   -17.1782 -16.8611 -16.8341 -16.8133 -14.9008 -14.8007 -14.6628 -14.6204
   -14.5631 -14.4509 -14.4404 -14.1291 -14.1242 -14.0674 -14.0466 -13.9264
   -13.9251 -13.8587 -13.7573  -8.2741  -8.2082  -7.9859  -7.9348  -7.9082
    -7.8933  -7.7520  -7.6845  -7.6827  -7.6361  -7.4089  -7.3620  -2.9420
    -2.8510  -2.7430  -2.6872  -2.5837  -2.3862  -2.3004  -2.2674  -2.2428
    -2.2199  -2.1736  -2.1057  -2.0524  -2.0380  -1.5486  -1.4043  -1.3802
    -1.3689  -1.3106  -1.2328  -1.1714  -1.0428  -0.9497  -0.8903  -0.8080
    -0.7174  -0.6839  -0.6546  -0.5683  -0.5525  -0.5315  -0.4707  -0.3594
    -0.3211  -0.2947  -0.2172  -0.0052   0.0648   0.1736   0.3615   0.3969
     0.4656   0.6159   0.7321   0.7648   0.8261   0.8869   0.9008   0.9932
     1.0246   1.1551   1.2037   1.2873   1.2988   1.3295   1.3962   1.4200
     1.4773   1.4988   1.5065   1.5532   1.5901   1.6218   1.6643   1.6842
     1.6925   1.7463   1.7679   1.7751   1.8948   1.8979   2.1954   2.3986
     2.9904   3.0122   3.2786   3.3102   3.3997   3.4586   3.7495   6.6521
     6.6945   6.7054   7.2972   7.6025   8.3521   8.3785   8.4622   8.7501
     8.7833   8.8945   8.9977   9.0786   9.2178   9.3298   9.3674   9.4554
     9.5162

          k = 0.2500 0.3960 0.0000 ( 34116 PWs)   bands (ev):

   -36.0858 -35.5691 -22.5925 -22.5613 -22.3645 -22.3092 -17.3870 -17.2489
   -17.1434 -16.9570 -16.8274 -16.7503 -14.9040 -14.7483 -14.4832 -14.4145
   -14.3981 -14.3306 -14.3042 -14.1710 -14.1671 -14.0706 -14.0581 -14.0079
   -13.9972 -13.8667 -13.8177  -8.3596  -8.3293  -8.1140  -8.0622  -7.9832
    -7.9546  -7.8987  -7.8517  -7.7852  -7.7317  -7.6031  -7.5669  -3.4459
    -3.3744  -3.2766  -3.1572  -3.0301  -2.9207  -2.8171  -2.3817  -2.3555
    -2.2766  -2.1577  -2.0727  -2.0085  -1.9940  -1.7935  -1.7408  -1.6377
    -1.5142  -1.4812  -1.3866  -1.2923  -1.2145  -1.1087  -0.9894  -0.9090
    -0.8495  -0.8189  -0.7627  -0.7580  -0.7480  -0.6254  -0.5480  -0.5166
    -0.4931  -0.3792  -0.3650   0.1292   0.1938   0.2214   0.4096   0.4567
     0.6164   0.8219   0.8519   0.9006   1.0141   1.0221   1.0528   1.1840
     1.2827   1.2991   1.3323   1.3609   1.3952   1.4658   1.5391   1.5456
     1.5991   1.6261   1.6511   1.7441   1.7799   1.8100   1.8230   1.8600
     1.9232   1.9648   1.9722   2.0915   2.1326   2.2954   2.3011   2.4558
     2.8090   2.8438   3.3580   3.5389   3.6112   3.6929   4.2368   6.5295
     6.9001   6.9190   7.5121   7.7608   8.6439   8.7720   8.8124   8.8697
     9.0615   9.1632   9.3438   9.5567   9.6981   9.7336   9.8203   9.8619
     9.9137

          k = 0.2500-0.5279 0.0000 ( 34148 PWs)   bands (ev):

   -36.0842 -35.5673 -22.5661 -22.5360 -22.3403 -22.2849 -17.4196 -17.2445
   -17.1263 -17.0059 -16.8220 -16.7121 -14.9130 -14.7425 -14.3415 -14.3266
   -14.3152 -14.3006 -14.2226 -14.1893 -14.1422 -14.1389 -14.0946 -14.0321
   -14.0303 -13.9280 -13.8075  -8.3299  -8.3224  -8.1350  -8.1154  -8.0704
    -8.0433  -7.9619  -7.9163  -7.8384  -7.7945  -7.6663  -7.6493  -3.6618
    -3.6194  -3.4779  -3.3509  -3.2065  -3.1481  -2.9625  -2.3880  -2.3841
    -2.2799  -2.1008  -2.0362  -1.9686  -1.9526  -1.9475  -1.8929  -1.7701
    -1.6176  -1.5509  -1.4201  -1.3064  -1.2611  -1.1942  -1.0569  -0.9482
    -0.9088  -0.8957  -0.8281  -0.7953  -0.7658  -0.6599  -0.6172  -0.5559
    -0.5045  -0.4103  -0.3988   0.1603   0.2481   0.2876   0.4338   0.5147
     0.6738   0.8733   0.8775   0.9648   1.0773   1.1145   1.1181   1.1501
     1.2365   1.2774   1.3202   1.3906   1.4157   1.4939   1.5332   1.6056
     1.6200   1.7523   1.7701   1.8330   1.9508   1.9836   2.0018   2.0304
     2.0648   2.0773   2.1072   2.1211   2.2592   2.4713   2.4780   2.4985
     2.5765   2.6206   3.3310   3.5587   3.6373   3.7268   4.3758   6.4379
     6.8641   6.8866   7.4931   7.7278   8.7797   8.9279   8.9819   9.2120
     9.2991   9.5403   9.5489   9.7559   9.8022   9.8671   9.9134   9.9306
    10.0193

          k = 0.3750 0.0000 0.0000 ( 34140 PWs)   bands (ev):

   -36.0928 -35.5769 -22.6950 -22.6582 -22.4574 -22.4026 -17.3772 -17.2161
   -17.1395 -17.0037 -16.8579 -16.6142 -15.0526 -14.9808 -14.9520 -14.6680
   -14.6091 -14.5623 -14.4822 -14.2033 -14.1751 -14.1146 -14.0879 -13.9740
   -13.9588 -13.8798 -13.6995  -7.9072  -7.8756  -7.8707  -7.7160  -7.6644
    -7.6418  -7.5112  -7.4648  -7.4044  -7.3513  -7.2492  -7.1948  -2.8419
    -2.8308  -2.7415  -2.6652  -2.3667  -2.2503  -2.1199  -1.6970  -1.6233
    -1.6028  -1.5442  -1.5238  -1.4662  -1.2802  -1.1883  -1.1711  -1.1588
    -1.1332  -1.1002  -1.0157  -0.9776  -0.9720  -0.9098  -0.8450  -0.8408
    -0.8304  -0.6689  -0.6593  -0.5432  -0.4444  -0.3927  -0.3610  -0.2347
    -0.1955  -0.1899  -0.1355  -0.0423   0.1133   0.1270   0.2164   0.2446
     0.2767   0.4521   0.4597   0.4651   0.4931   0.5203   0.5292   0.5832
     0.7853   0.8684   0.9089   0.9369   1.0050   1.1675   1.2162   1.2290
     1.2714   1.3175   1.3787   1.4897   1.5445   1.5660   1.5774   1.6725
     1.7283   1.7464   1.7918   1.8453   1.8572   1.9577   2.1017   2.1538
     2.2046   2.3623   2.5304   2.6200   2.6519   2.8301   2.8647   6.5372
     6.5376   6.8593   7.4214   7.7891   8.0298   8.0332   8.3844   8.4991
     8.6546   8.7471   9.1357   9.2298   9.3062   9.3761   9.5024   9.5265
     9.5624

          k = 0.3750 0.1320 0.0000 ( 34185 PWs)   bands (ev):

   -36.0912 -35.5751 -22.6726 -22.6367 -22.4365 -22.3818 -17.3714 -17.2221
   -17.1564 -16.9954 -16.8296 -16.6764 -15.0129 -14.9316 -14.8828 -14.6229
   -14.5680 -14.5031 -14.4409 -14.1766 -14.1473 -14.0950 -14.0782 -13.9901
   -13.9462 -13.9103 -13.7086  -8.0051  -7.9610  -7.8907  -7.8071  -7.8069
    -7.6953  -7.6004  -7.5895  -7.5552  -7.5310  -7.3382  -7.2884  -2.9021
    -2.8888  -2.7887  -2.7076  -2.3615  -2.2522  -2.1289  -2.0035  -1.9721
    -1.8510  -1.8291  -1.6456  -1.5755  -1.5660  -1.4738  -1.4225  -1.3715
    -1.2685  -1.2204  -1.1520  -1.1407  -1.0815  -1.0111  -0.8915  -0.8188
    -0.7312  -0.6599  -0.6403  -0.5032  -0.4778  -0.3628  -0.3426  -0.2247
    -0.2211  -0.1674  -0.0153   0.0777   0.1256   0.1619   0.2188   0.2686
     0.2862   0.3862   0.4845   0.5205   0.5328   0.7101   0.7423   0.8183
     0.8323   0.9355   1.0060   1.1013   1.1861   1.2019   1.2757   1.3183
     1.3293   1.3824   1.3939   1.4204   1.5838   1.5953   1.6142   1.6614
     1.6986   1.7498   1.8042   1.8309   1.8424   1.9203   1.9399   2.3582
     2.7784   2.8408   2.9202   2.9770   3.0472   3.1756   3.2393   6.6879
     6.6891   6.7569   7.4865   7.8343   8.0956   8.0988   8.2963   8.5208
     8.8479   8.9297   9.0649   9.2788   9.2823   9.4740   9.5455   9.5590
     9.6534

          k = 0.3750 0.2640 0.0000 ( 34193 PWs)   bands (ev):

   -36.0874 -35.5709 -22.6176 -22.5837 -22.3855 -22.3306 -17.3581 -17.2918
   -17.1371 -16.9758 -16.8161 -16.7567 -14.9152 -14.8075 -14.6914 -14.5077
   -14.4711 -14.3562 -14.3346 -14.1234 -14.1066 -14.0977 -14.0742 -14.0115
   -13.9539 -13.8897 -13.7504  -8.3259  -8.2607  -8.0433  -7.9905  -7.9723
    -7.9394  -7.8208  -7.8180  -7.7924  -7.6926  -7.5957  -7.5569  -3.2170
    -3.1337  -3.0091  -2.9454  -2.5697  -2.4606  -2.3901  -2.3775  -2.3293
    -2.3169  -2.2404  -2.1792  -2.1518  -2.1076  -1.7394  -1.7058  -1.5763
    -1.5039  -1.4441  -1.2091  -1.1950  -1.0246  -0.9276  -0.8698  -0.8593
    -0.8308  -0.7667  -0.6865  -0.6396  -0.6049  -0.6017  -0.5512  -0.4435
    -0.3413  -0.3191  -0.2205  -0.0334   0.1009   0.3059   0.4803   0.4987
     0.5582   0.7267   0.8079   0.8477   0.8653   1.0431   1.0477   1.0937
     1.2077   1.2309   1.2512   1.2744   1.4134   1.4409   1.4549   1.4923
     1.6228   1.6394   1.6714   1.6854   1.7116   1.7339   1.7556   1.7755
     1.7859   1.8185   1.8418   1.8716   1.8786   2.0057   2.1655   2.3382
     2.9785   3.0139   3.7059   3.7513   3.7724   3.8371   3.8940   6.3953
     6.7345   6.7487   7.4054   7.6531   8.3690   8.4367   8.4691   8.8531
     9.1691   9.1996   9.4316   9.4594   9.5056   9.5662   9.6483   9.7214
     9.8055

          k = 0.3750 0.3960 0.0000 ( 34177 PWs)   bands (ev):

   -36.0835 -35.5666 -22.5611 -22.5295 -22.3331 -22.2781 -17.3783 -17.3409
   -17.1000 -16.9592 -16.9392 -16.6795 -14.8160 -14.6690 -14.4409 -14.3884
   -14.3582 -14.2087 -14.1963 -14.1861 -14.1722 -14.0603 -14.0424 -14.0264
   -13.9465 -13.8456 -13.8181  -8.5541  -8.5279  -8.3126  -8.2723  -8.2596
    -8.1922  -7.9695  -7.9420  -7.9385  -7.8650  -7.8177  -7.6719  -3.6978
    -3.5773  -3.4000  -3.2895  -3.2605  -2.9002  -2.8797  -2.5859  -2.4880
    -2.4281  -2.3459  -2.2520  -2.1984  -2.1160  -2.0529  -2.0004  -1.8029
    -1.6750  -1.5770  -1.2174  -1.1695  -1.1534  -1.1375  -0.9702  -0.9182
    -0.8899  -0.8681  -0.8263  -0.8005  -0.7565  -0.7402  -0.6583  -0.5605
    -0.5336  -0.3342  -0.3319   0.1903   0.2613   0.3590   0.5957   0.6517
     0.8543   1.0629   1.0777   1.0832   1.1785   1.1988   1.2861   1.3648
     1.3887   1.4459   1.5059   1.5201   1.5529   1.5620   1.6245   1.7341
     1.7452   1.8019   1.8142   1.8660   1.9082   1.9481   1.9972   2.0132
     2.0460   2.0711   2.1333   2.1742   2.2166   2.2267   2.2847   2.4720
     2.7804   2.8346   4.0432   4.1665   4.2842   4.3148   4.3694   5.9579
     6.4316   6.4552   7.1922   7.3834   8.7123   8.9140   8.9881   9.0379
     9.1926   9.4404   9.4623   9.5211   9.5602   9.6365   9.6519   9.7459
     9.8412

          k = 0.3750-0.5279 0.0000 ( 34192 PWs)   bands (ev):

   -36.0819 -35.5648 -22.5372 -22.5066 -22.3111 -22.2560 -17.4111 -17.3365
   -17.0835 -16.9931 -16.9469 -16.6454 -14.7754 -14.6045 -14.3584 -14.3099
   -14.2362 -14.2276 -14.2196 -14.1144 -14.1072 -14.1020 -14.0241 -14.0221
   -14.0120 -13.9009 -13.7832  -8.6106  -8.6001  -8.4413  -8.4095  -8.3484
    -8.3381  -8.1263  -7.9794  -7.9660  -7.9566  -7.8491  -7.6854  -3.9049
    -3.7825  -3.6202  -3.5286  -3.3787  -3.1251  -3.0963  -2.6027  -2.5005
    -2.4371  -2.3622  -2.2581  -2.1926  -2.1613  -2.1159  -2.1015  -1.8865
    -1.7482  -1.6017  -1.2948  -1.2361  -1.2253  -1.1822  -1.0104  -0.9201
    -0.9173  -0.9146  -0.9114  -0.8673  -0.8456  -0.7613  -0.6828  -0.6580
    -0.5104  -0.3402  -0.3161   0.2536   0.3442   0.3798   0.6830   0.7865
     0.9624   0.9712   1.1988   1.2338   1.2788   1.3080   1.3421   1.3525
     1.3958   1.5159   1.5592   1.5879   1.6297   1.6926   1.7363   1.8052
     1.8386   1.8728   1.8860   1.9651   2.0647   2.0705   2.0897   2.1641
     2.1917   2.2271   2.2777   2.3341   2.3384   2.4079   2.4490   2.5209
     2.5394   2.5902   4.1071   4.2622   4.4281   4.4645   4.5161   5.7644
     6.2542   6.2781   7.1168   7.2934   8.7371   8.8288   9.0630   9.1640
     9.2874   9.3835   9.4092   9.6288   9.6615   9.6939   9.7941   9.9022
     9.9986

          k =-0.5000 0.0000 0.0000 ( 34130 PWs)   bands (ev):

   -36.0918 -35.5758 -22.6760 -22.6393 -22.4393 -22.3847 -17.4141 -17.1927
   -17.1383 -17.0548 -16.8170 -16.6128 -15.1088 -15.0363 -14.9880 -14.6454
   -14.6012 -14.3575 -14.3036 -14.2748 -14.2351 -14.1783 -14.1575 -14.0425
   -14.0018 -13.8947 -13.7145  -7.8966  -7.8747  -7.8319  -7.7221  -7.6450
    -7.6190  -7.4750  -7.4290  -7.3883  -7.3408  -7.2161  -7.1615  -2.9859
    -2.9577  -2.8821  -2.8105  -2.4166  -2.2732  -2.1178  -1.6896  -1.6635
    -1.5931  -1.5755  -1.4524  -1.3433  -1.2968  -1.2845  -1.1735  -1.1713
    -1.1630  -1.1611  -1.1316  -1.0598  -1.0596  -1.0050  -0.9546  -0.9161
    -0.8641  -0.7543  -0.7432  -0.6070  -0.4609  -0.4583  -0.4123  -0.2512
    -0.1838  -0.1830  -0.1398  -0.1136   0.1080   0.1216   0.1842   0.2405
     0.2560   0.4489   0.4496   0.4678   0.4771   0.4776   0.5270   0.5982
     0.8175   0.8647   0.8989   0.9487   0.9603   1.1654   1.1824   1.2368
     1.3951   1.4393   1.4909   1.5053   1.5245   1.6400   1.6543   1.6808
     1.6867   1.7793   1.8901   1.9011   1.9138   1.9592   1.9913   2.1703
     2.2139   2.3626   2.5289   2.6217   2.6698   2.8639   2.8920   7.0020
     7.3013   7.3117   7.3619   7.3644   7.8704   8.2930   8.3745   8.5686
     9.0286   9.0711   9.0930   9.3198   9.4149   9.4628   9.4946   9.6298
     9.6519

          k =-0.5000 0.1320 0.0000 ( 34202 PWs)   bands (ev):

   -36.0903 -35.5741 -22.6546 -22.6186 -22.4193 -22.3646 -17.4081 -17.2094
   -17.1450 -17.0459 -16.7902 -16.6742 -15.0578 -14.9781 -14.9147 -14.6022
   -14.5610 -14.3170 -14.2682 -14.2190 -14.2076 -14.1564 -14.1357 -14.0618
   -13.9704 -13.9307 -13.7167  -7.9324  -7.9085  -7.8873  -7.8528  -7.7484
    -7.6672  -7.6406  -7.6335  -7.5152  -7.4559  -7.4328  -7.3743  -3.0523
    -3.0263  -2.9367  -2.8608  -2.4130  -2.2811  -2.1382  -1.9727  -1.9390
    -1.8097  -1.7737  -1.6366  -1.5704  -1.5600  -1.5245  -1.4659  -1.4167
    -1.3789  -1.3346  -1.2578  -1.2159  -1.1157  -1.0330  -0.9177  -0.8597
    -0.7965  -0.7054  -0.6558  -0.5380  -0.4949  -0.3996  -0.3775  -0.2489
    -0.2362  -0.1918  -0.0310   0.0875   0.1248   0.1539   0.2203   0.2646
     0.3932   0.3944   0.3954   0.5600   0.6133   0.6332   0.6770   0.7847
     0.8176   0.9323   1.0301   1.0982   1.1539   1.2012   1.3089   1.3134
     1.3444   1.4036   1.4597   1.5326   1.6081   1.6630   1.6787   1.7245
     1.7457   1.7744   1.7815   1.8719   1.9209   1.9556   1.9873   2.3340
     2.7842   2.8462   2.9252   2.9965   3.0746   3.2259   3.2923   6.7983
     7.1595   7.1599   7.6463   7.6653   7.9679   8.0458   8.1927   8.5009
     9.2356   9.2612   9.3136   9.3747   9.4643   9.5661   9.5812   9.7297
     9.7780

          k =-0.5000 0.2640 0.0000 ( 34216 PWs)   bands (ev):

   -36.0864 -35.5698 -22.6019 -22.5680 -22.3702 -22.3154 -17.3936 -17.2895
   -17.1172 -17.0246 -16.8129 -16.7213 -14.9263 -14.8255 -14.7112 -14.4982
   -14.4613 -14.2152 -14.1822 -14.1488 -14.1247 -14.1099 -14.1040 -14.0858
   -13.9950 -13.8935 -13.7447  -8.2333  -8.1981  -8.1572  -8.0496  -8.0063
    -7.9237  -7.8840  -7.8353  -7.8211  -7.7982  -7.7155  -7.6298  -3.3557
    -3.2757  -3.1554  -3.0915  -2.5609  -2.4867  -2.4283  -2.4033  -2.3432
    -2.3277  -2.2430  -2.1896  -2.1427  -2.1123  -1.8672  -1.8219  -1.6363
    -1.5555  -1.5460  -1.1331  -1.1113  -0.9942  -0.9506  -0.9057  -0.8721
    -0.8512  -0.7857  -0.7155  -0.6673  -0.6311  -0.6261  -0.5553  -0.4507
    -0.3362  -0.3104  -0.2453  -0.0505   0.1149   0.3521   0.5260   0.5451
     0.5903   0.7648   0.8787   0.8910   0.8949   1.0845   1.1152   1.1318
     1.2111   1.2232   1.2284   1.2657   1.4124   1.4717   1.5164   1.5743
     1.6297   1.6399   1.7108   1.7367   1.7381   1.7828   1.8036   1.8077
     1.8525   1.8811   1.9171   1.9539   1.9780   2.0196   2.1292   2.2823
     2.9706   3.0076   3.7236   3.8895   3.9023   3.9667   4.0246   6.2761
     6.7304   6.7491   7.3647   7.5846   8.3932   8.4729   8.5257   9.0431
     9.2597   9.2912   9.4538   9.5946   9.6416   9.7574   9.7593   9.8382
     9.9070

          k =-0.5000 0.3960 0.0000 ( 34176 PWs)   bands (ev):

   -36.0826 -35.5655 -22.5479 -22.5161 -22.3200 -22.2651 -17.3794 -17.3734
   -17.0805 -17.0037 -16.9385 -16.6482 -14.7785 -14.6398 -14.4471 -14.4040
   -14.3487 -14.1756 -14.1715 -14.1092 -14.1010 -14.0898 -14.0477 -14.0391
   -13.9374 -13.8420 -13.8155  -8.5793  -8.5760  -8.4488  -8.3687  -8.3382
    -8.3086  -8.1229  -7.9572  -7.9546  -7.9436  -7.8779  -7.6748  -3.8278
    -3.7081  -3.5157  -3.4161  -3.2840  -2.8917  -2.8812  -2.6587  -2.5572
    -2.5008  -2.3608  -2.2810  -2.2114  -2.1606  -2.1261  -2.0896  -1.8478
    -1.7392  -1.6274  -1.1853  -1.1445  -1.1370  -1.0566  -1.0057  -0.9697
    -0.9076  -0.8475  -0.8400  -0.8366  -0.8098  -0.7448  -0.7357  -0.5393
    -0.5204  -0.3057  -0.2936   0.2080   0.2812   0.4159   0.6669   0.7456
     0.9455   1.1572   1.1597   1.1852   1.2742   1.3296   1.3328   1.4044
     1.4248   1.4857   1.5467   1.5700   1.6008   1.6218   1.6563   1.7558
     1.7916   1.8384   1.8820   1.9100   1.9403   2.0233   2.0516   2.0897
     2.0988   2.1248   2.1732   2.1870   2.2585   2.3225   2.4035   2.4196
     2.7673   2.8238   4.1470   4.2982   4.5446   4.5612   4.6136   5.7384
     6.2366   6.2584   7.0634   7.2318   8.6241   8.9339   8.9617   9.1285
     9.1749   9.3045   9.4470   9.6395   9.6538   9.7121   9.7133   9.7595
     9.8827

          k =-0.5000-0.5279 0.0000 ( 34236 PWs)   bands (ev):

   -36.0810 -35.5638 -22.5252 -22.4942 -22.2989 -22.2439 -17.4076 -17.3736
   -17.0645 -16.9952 -16.9878 -16.6160 -14.7104 -14.5371 -14.3972 -14.3294
   -14.2188 -14.2186 -14.1962 -14.0763 -14.0703 -14.0642 -14.0189 -14.0169
   -13.9609 -13.8982 -13.7834  -8.7231  -8.7106  -8.5665  -8.5210  -8.4607
    -8.4546  -8.2470  -8.0480  -7.9865  -7.9833  -7.8921  -7.6898  -4.0363
    -3.9101  -3.7187  -3.5546  -3.5229  -3.1156  -3.1009  -2.6899  -2.5836
    -2.5264  -2.3583  -2.3096  -2.2550  -2.2009  -2.1747  -2.1261  -1.9172
    -1.7978  -1.6503  -1.3004  -1.2257  -1.1972  -1.1220  -0.9892  -0.9827
    -0.9414  -0.9287  -0.9284  -0.8811  -0.8470  -0.8469  -0.7638  -0.6515
    -0.4798  -0.2851  -0.2646   0.2800   0.3652   0.4340   0.8048   0.9162
     0.9904   1.1058   1.2856   1.3437   1.3800   1.3915   1.4022   1.4265
     1.4487   1.5971   1.6376   1.6679   1.6696   1.6884   1.7316   1.8896
     1.9271   1.9866   1.9975   2.0441   2.0778   2.0978   2.1637   2.1953
     2.2456   2.2613   2.3666   2.3793   2.4221   2.4777   2.4931   2.5450
     2.5676   2.5915   4.2312   4.4117   4.7436   4.7643   4.8154   5.5065
     6.0101   6.0289   6.9796   7.1315   8.6360   8.8322   9.0229   9.0320
     9.1086   9.1256   9.4256   9.4558   9.5845   9.6512   9.7065   9.8719
    10.0166

     the Fermi energy is     2.6008 ev

!    total energy              =   -1842.88338318 Ry
     Harris-Foulkes estimate   =   -1842.88338318 Ry
     estimated scf accuracy    <          1.9E-11 Ry

     The total energy is the sum of the following terms:

     one-electron contribution =  -30817.07039809 Ry
     hartree contribution      =   15561.82942778 Ry
     xc contribution           =    -621.68854425 Ry
     ewald contribution        =   14034.05459483 Ry
     smearing contrib. (-TS)   =      -0.00846346 Ry

     convergence has been achieved in  40 iterations

     negative rho (up, down):  1.490E-03 0.000E+00

     Forces acting on atoms (cartesian axes, Ry/au):

     atom    1 type  4   force =     0.00000000    0.00000000    0.00030825
     atom    2 type  3   force =     0.00000000    0.00000000    0.00401487
     atom    3 type  4   force =     0.00000000    0.00000000   -0.00310620
     atom    4 type  1   force =     0.00000000    0.00000000    0.00079207
     atom    5 type  3   force =     0.00000000    0.00000000   -0.00016322
     atom    6 type  4   force =     0.00000000    0.00000000    0.00038928
     atom    7 type  4   force =     0.00000000    0.00000000    0.00097629
     atom    8 type  2   force =     0.00000000    0.00000000   -0.00056123
     atom    9 type  4   force =     0.00000000    0.00000000   -0.00033387
     atom   10 type  4   force =     0.00000000    0.00000000   -0.00035838
     atom   11 type  3   force =     0.00000000    0.00000000    0.00036463
     atom   12 type  1   force =     0.00000000    0.00000000   -0.00016952
     atom   13 type  4   force =     0.00000000    0.00000000    0.00411418
     atom   14 type  4   force =     0.00000000    0.00000000    0.00061871
     atom   15 type  3   force =     0.00000000    0.00000000   -0.00087998
     atom   16 type  4   force =     0.00000000    0.00000000   -0.00333364
     atom   17 type  1   force =     0.00000000    0.00000000   -0.00245755
     atom   18 type  3   force =     0.00000000    0.00000000   -0.00182631
     atom   19 type  4   force =     0.00000000    0.00000000    0.01267136
     atom   20 type  4   force =     0.00000000    0.00000000    0.01038509
     atom   21 type  2   force =     0.00000000    0.00000000    0.02249277
     atom   22 type  4   force =     0.00000000    0.00000000    0.00931668
     atom   23 type  4   force =     0.00000000    0.00000000   -0.01176309
     atom   24 type  3   force =     0.00000000    0.00000000   -0.04018516
     atom   25 type  1   force =     0.00000000    0.00000000   -0.00273021
     atom   26 type  4   force =     0.00000000    0.00000000    0.00217501
     atom   27 type  3   force =     0.00000000    0.00000000   -0.00057959
     atom   28 type  4   force =     0.00000000    0.00000000   -0.00017123

     Total force =     0.051282     Total SCF correction =     0.000012


     Computing stress (Cartesian axis) and pressure


     negative rho (up, down):  1.490E-03 0.000E+00
          total   stress  (Ry/bohr**3)                   (kbar)     P=       -6.29
  -0.00001225   0.00000000   0.00000000           -1.80        0.00        0.00
   0.00000000  -0.00003385   0.00000000            0.00       -4.98        0.00
   0.00000000   0.00000000  -0.00008215            0.00        0.00      -12.09


     number of scf cycles    =   2
     number of bfgs steps    =   1

     energy   old            =   -1842.8992065785 Ry
     energy   new            =   -1842.8833831783 Ry

     CASE: energy  _new > energy  _old


 %%%%%%%%%%%%%%%%%%%%%%%%%%%%%%%%%%%%%%%%%%%%%%%%%%%%%%%%%%%%%%%%%%%%%%%%%%%%%%
     Error in routine bfgs (1):
     dE0s is positive which should never happen
 %%%%%%%%%%%%%%%%%%%%%%%%%%%%%%%%%%%%%%%%%%%%%%%%%%%%%%%%%%%%%%%%%%%%%%%%%%%%%%

     stopping ...
