
     Program PWSCF v.6.5 starts on  7Jul2021 at 22:27:27 

     This program is part of the open-source Quantum ESPRESSO suite
     for quantum simulation of materials; please cite
         "P. Giannozzi et al., J. Phys.:Condens. Matter 21 395502 (2009);
         "P. Giannozzi et al., J. Phys.:Condens. Matter 29 465901 (2017);
          URL http://www.quantum-espresso.org", 
     in publications or presentations arising from this work. More details at
     http://www.quantum-espresso.org/quote

     Parallel version (MPI), running on    20 processors

     MPI processes distributed on     2 nodes
     R & G space division:  proc/nbgrp/npool/nimage =      20
     Reading input from CBCO_BaO_cleave_1.25_sep.pwi
Warning: card &CELL ignored
Warning: card     CELL_DYNAMICS = 'BFGS' ignored
Warning: card     PRESS_CONV_THR = 1 ignored
Warning: card / ignored

     Current dimensions of program PWSCF are:
     Max number of different atomic species (ntypx) = 10
     Max number of k-points (npk) =  40000
     Max angular momentum in pseudopotentials (lmaxx) =  3

     Subspace diagonalization in iterative solution of the eigenvalue problem:
     one sub-group per band group will be used
     scalapack distributed-memory algorithm (size of sub-group:  4*  4 procs)

     Message from routine setup:
     using ibrav=0 with symmetry is DISCOURAGED, use correct ibrav instead
 
     Parallelization info
     --------------------
     sticks:   dense  smooth     PW     G-vecs:    dense   smooth      PW
     Min         149      50     14                72165    13894    2172
     Max         150      51     15                72202    13919    2217
     Sum        2991    1007    289              1443693   278079   43709
 


     bravais-lattice index     =            0
     lattice parameter (alat)  =       7.4270  a.u.
     unit-cell volume          =    4425.7129 (a.u.)^3
     number of atoms/cell      =           28
     number of atomic types    =            4
     number of electrons       =       227.00
     number of Kohn-Sham states=          137
     kinetic-energy cutoff     =      60.0000  Ry
     charge density cutoff     =     720.0000  Ry
     convergence threshold     =      1.0E-10
     mixing beta               =       0.5000
     number of iterations used =           10  local-TF  mixing
     Exchange-correlation= SLA PW PBE PBE
                           (   1   4   3   4   0   0   0)
     nstep                     =          300


     celldm(1)=   7.427040  celldm(2)=   0.000000  celldm(3)=   0.000000
     celldm(4)=   0.000000  celldm(5)=   0.000000  celldm(6)=   0.000000

     crystal axes: (cart. coord. in units of alat)
               a(1) = (   1.000000   0.000000   0.000000 )  
               a(2) = (   0.000000   0.947081   0.000000 )  
               a(3) = (   0.000000   0.000000  11.406405 )  

     reciprocal axes: (cart. coord. in units 2 pi/alat)
               b(1) = (  1.000000  0.000000  0.000000 )  
               b(2) = (  0.000000  1.055876  0.000000 )  
               b(3) = (  0.000000  0.000000  0.087670 )  


     PseudoPot. # 1 for Ba read from file:
     ./pseudo/Ba.pbe-nsp-van.UPF
     MD5 check sum: 2b9c31dd849566dd297d80989662b7a0
     Pseudo is Ultrasoft + core correction, Zval = 10.0
     Generated by new atomic code, or converted to UPF format
     Using radial grid of  907 points,  6 beta functions with: 
                l(1) =   0
                l(2) =   0
                l(3) =   1
                l(4) =   1
                l(5) =   2
                l(6) =   2
     Q(r) pseudized with  6 coefficients,  rinner =    1.200   1.200   1.200
                                                       1.200   1.200

     PseudoPot. # 2 for Ca read from file:
     ./pseudo/Ca.pbe-nsp-van.UPF
     MD5 check sum: 6471098428ff4fa451746d08035ff179
     Pseudo is Ultrasoft + core correction, Zval = 10.0
     Generated by new atomic code, or converted to UPF format
     Using radial grid of  845 points,  6 beta functions with: 
                l(1) =   0
                l(2) =   0
                l(3) =   1
                l(4) =   1
                l(5) =   2
                l(6) =   2
     Q(r) pseudized with  6 coefficients,  rinner =    1.200   1.200   1.200
                                                       1.200   1.200

     PseudoPot. # 3 for Cu read from file:
     ./pseudo/Cu.pbe-n-van_ak.UPF
     MD5 check sum: 34e3282627ffb533726feb647e090d62
     Pseudo is Ultrasoft + core correction, Zval = 11.0
     Generated by new atomic code, or converted to UPF format
     Using radial grid of  867 points,  6 beta functions with: 
                l(1) =   0
                l(2) =   0
                l(3) =   1
                l(4) =   1
                l(5) =   2
                l(6) =   2
     Q(r) pseudized with  8 coefficients,  rinner =    1.400   1.400   1.400
                                                       1.400   1.400

     PseudoPot. # 4 for O  read from file:
     ./pseudo/O.pbe-van_ak.UPF
     MD5 check sum: 783ce7fe4c79b6a4916957118fed0856
     Pseudo is Ultrasoft, Zval =  6.0
     Generated by new atomic code, or converted to UPF format
     Using radial grid of  737 points,  4 beta functions with: 
                l(1) =   0
                l(2) =   0
                l(3) =   1
                l(4) =   1
     Q(r) pseudized with  8 coefficients,  rinner =    0.800   0.800   0.800


     atomic species   valence    mass     pseudopotential
        Ba            10.00   137.32700     Ba( 1.00)
        Ca            10.00    40.07800     Ca( 1.00)
        Cu            11.00    63.54600     Cu( 1.00)
        O              6.00    15.99900     O ( 1.00)

      4 Sym. Ops. (no inversion) found



   Cartesian axes

     site n.     atom                  positions (alat units)
         1           O   tau(   1) = (   0.0000000   0.4735409  -0.0469745  )
         2           Cu  tau(   2) = (   0.0000000   0.0000000   0.0264565  )
         3           O   tau(   3) = (   0.0000000   0.0000000   0.5030914  )
         4           Ba  tau(   4) = (   0.5000000   0.4735409   0.5690292  )
         5           Cu  tau(   5) = (   0.0000000   0.0000000   1.0374254  )
         6           O   tau(   6) = (   0.5000000   0.0000000   1.0768099  )
         7           O   tau(   7) = (   0.0000000   0.4735409   1.1116985  )
         8           Ca  tau(   8) = (   0.5000000   0.4735409   1.4976260  )
         9           O   tau(   9) = (   0.0000000   0.4735409   1.8667529  )
        10           O   tau(  10) = (   0.5000000   0.0000000   1.9044124  )
        11           Cu  tau(  11) = (   0.0000000   0.0000000   1.9512546  )
        12           Ba  tau(  12) = (   0.5000000   0.4735409   2.4295764  )
        13           O   tau(  13) = (   0.0000000   0.0000000   2.5115362  )
        14           O   tau(  14) = (   0.0000000   0.4735409   2.9918528  )
        15           Cu  tau(  15) = (   0.0000000   0.0000000   2.9919088  )
        16           O   tau(  16) = (   0.0000000   0.0000000   3.4722686  )
        17           Ba  tau(  17) = (   0.5000000   0.4735409   3.5542208  )
        18           Cu  tau(  18) = (   0.0000000   0.0000000   4.3505731  )
        19           O   tau(  19) = (   0.5000000   0.0000000   4.3974153  )
        20           O   tau(  20) = (   0.0000000   0.4735409   4.4350697  )
        21           Ca  tau(  21) = (   0.5000000   0.4735409   4.8042067  )
        22           O   tau(  22) = (   0.0000000   0.4735409   5.1901317  )
        23           O   tau(  23) = (   0.5000000   0.0000000   5.2250203  )
        24           Cu  tau(  24) = (   0.0000000   0.0000000   5.2644074  )
        25           Ba  tau(  25) = (   0.5000000   0.4735409   5.7328010  )
        26           O   tau(  26) = (   0.0000000   0.0000000   5.7987286  )
        27           Cu  tau(  27) = (   0.0000000   0.0000000   6.2753686  )
        28           O   tau(  28) = (   0.0000000   0.4735409   6.3487869  )

     number of k points=    25  Gaussian smearing, width (Ry)=  0.0100
                       cart. coord. in units 2pi/alat
        k(    1) = (   0.0000000   0.0000000   0.0000000), wk =   0.0312500
        k(    2) = (   0.0000000   0.1319845   0.0000000), wk =   0.0625000
        k(    3) = (   0.0000000   0.2639689   0.0000000), wk =   0.0625000
        k(    4) = (   0.0000000   0.3959534   0.0000000), wk =   0.0625000
        k(    5) = (   0.0000000  -0.5279378   0.0000000), wk =   0.0312500
        k(    6) = (   0.1250000   0.0000000   0.0000000), wk =   0.0625000
        k(    7) = (   0.1250000   0.1319845   0.0000000), wk =   0.1250000
        k(    8) = (   0.1250000   0.2639689   0.0000000), wk =   0.1250000
        k(    9) = (   0.1250000   0.3959534   0.0000000), wk =   0.1250000
        k(   10) = (   0.1250000  -0.5279378   0.0000000), wk =   0.0625000
        k(   11) = (   0.2500000   0.0000000   0.0000000), wk =   0.0625000
        k(   12) = (   0.2500000   0.1319845   0.0000000), wk =   0.1250000
        k(   13) = (   0.2500000   0.2639689   0.0000000), wk =   0.1250000
        k(   14) = (   0.2500000   0.3959534   0.0000000), wk =   0.1250000
        k(   15) = (   0.2500000  -0.5279378   0.0000000), wk =   0.0625000
        k(   16) = (   0.3750000   0.0000000   0.0000000), wk =   0.0625000
        k(   17) = (   0.3750000   0.1319845   0.0000000), wk =   0.1250000
        k(   18) = (   0.3750000   0.2639689   0.0000000), wk =   0.1250000
        k(   19) = (   0.3750000   0.3959534   0.0000000), wk =   0.1250000
        k(   20) = (   0.3750000  -0.5279378   0.0000000), wk =   0.0625000
        k(   21) = (  -0.5000000   0.0000000   0.0000000), wk =   0.0312500
        k(   22) = (  -0.5000000   0.1319845   0.0000000), wk =   0.0625000
        k(   23) = (  -0.5000000   0.2639689   0.0000000), wk =   0.0625000
        k(   24) = (  -0.5000000   0.3959534   0.0000000), wk =   0.0625000
        k(   25) = (  -0.5000000  -0.5279378   0.0000000), wk =   0.0312500

     Dense  grid:  1443693 G-vectors     FFT dimensions: (  64,  64, 729)

     Smooth grid:   278079 G-vectors     FFT dimensions: (  40,  36, 432)

     Estimated max dynamical RAM per process >     460.71 MB

     Estimated total dynamical RAM >       9.00 GB

     Initial potential from superposition of free atoms

     starting charge  226.84630, renormalised to  227.00000

     negative rho (up, down):  3.455E-03 0.000E+00
     Starting wfcs are  195 randomized atomic wfcs

     total cpu time spent up to now is        9.9 secs

     Self-consistent Calculation

     iteration #  1     ecut=    60.00 Ry     beta= 0.50
     Davidson diagonalization with overlap
     ethr =  1.00E-02,  avg # of iterations =  2.0

     negative rho (up, down):  4.989E-04 0.000E+00

     total cpu time spent up to now is       24.7 secs

     total energy              =   -1840.89369741 Ry
     Harris-Foulkes estimate   =   -1845.36542105 Ry
     estimated scf accuracy    <      17.91813851 Ry

     iteration #  2     ecut=    60.00 Ry     beta= 0.50
     Davidson diagonalization with overlap
     ethr =  7.89E-03,  avg # of iterations =  2.0

     negative rho (up, down):  2.669E-04 0.000E+00

     total cpu time spent up to now is       39.4 secs

     total energy              =   -1842.49938268 Ry
     Harris-Foulkes estimate   =   -1843.27156253 Ry
     estimated scf accuracy    <       4.68696935 Ry

     iteration #  3     ecut=    60.00 Ry     beta= 0.50
     Davidson diagonalization with overlap
     ethr =  2.06E-03,  avg # of iterations =  1.7

     negative rho (up, down):  2.487E-04 0.000E+00

     total cpu time spent up to now is       53.6 secs

     total energy              =   -1842.85019026 Ry
     Harris-Foulkes estimate   =   -1842.99050054 Ry
     estimated scf accuracy    <       3.62889813 Ry

     iteration #  4     ecut=    60.00 Ry     beta= 0.50
     Davidson diagonalization with overlap
     ethr =  1.60E-03,  avg # of iterations =  1.0

     negative rho (up, down):  2.404E-04 0.000E+00

     total cpu time spent up to now is       67.0 secs

     total energy              =   -1842.84822522 Ry
     Harris-Foulkes estimate   =   -1842.92500662 Ry
     estimated scf accuracy    <       0.62678782 Ry

     iteration #  5     ecut=    60.00 Ry     beta= 0.50
     Davidson diagonalization with overlap
     ethr =  2.76E-04,  avg # of iterations =  4.5

     negative rho (up, down):  2.377E-04 0.000E+00

     total cpu time spent up to now is       84.3 secs

     total energy              =   -1842.87143113 Ry
     Harris-Foulkes estimate   =   -1842.89007150 Ry
     estimated scf accuracy    <       1.30301700 Ry

     iteration #  6     ecut=    60.00 Ry     beta= 0.50
     Davidson diagonalization with overlap
     ethr =  2.76E-04,  avg # of iterations =  1.4

     negative rho (up, down):  2.339E-04 0.000E+00

     total cpu time spent up to now is       98.0 secs

     total energy              =   -1842.86207825 Ry
     Harris-Foulkes estimate   =   -1842.88019579 Ry
     estimated scf accuracy    <       0.57438794 Ry

     iteration #  7     ecut=    60.00 Ry     beta= 0.50
     Davidson diagonalization with overlap
     ethr =  2.53E-04,  avg # of iterations =  1.6

     negative rho (up, down):  2.326E-04 0.000E+00

     total cpu time spent up to now is      112.0 secs

     total energy              =   -1842.86316191 Ry
     Harris-Foulkes estimate   =   -1842.87047563 Ry
     estimated scf accuracy    <       0.87724955 Ry

     iteration #  8     ecut=    60.00 Ry     beta= 0.50
     Davidson diagonalization with overlap
     ethr =  2.53E-04,  avg # of iterations =  1.0

     negative rho (up, down):  2.315E-04 0.000E+00

     total cpu time spent up to now is      125.4 secs

     total energy              =   -1842.85692661 Ry
     Harris-Foulkes estimate   =   -1842.86726462 Ry
     estimated scf accuracy    <       0.52427556 Ry

     iteration #  9     ecut=    60.00 Ry     beta= 0.50
     Davidson diagonalization with overlap
     ethr =  2.31E-04,  avg # of iterations =  1.3

     negative rho (up, down):  2.320E-04 0.000E+00

     total cpu time spent up to now is      139.3 secs

     total energy              =   -1842.85625824 Ry
     Harris-Foulkes estimate   =   -1842.86052627 Ry
     estimated scf accuracy    <       0.15629214 Ry

     iteration # 10     ecut=    60.00 Ry     beta= 0.50
     Davidson diagonalization with overlap
     ethr =  6.89E-05,  avg # of iterations =  7.3

     negative rho (up, down):  2.346E-04 0.000E+00

     total cpu time spent up to now is      159.4 secs

     total energy              =   -1842.85135690 Ry
     Harris-Foulkes estimate   =   -1842.85774369 Ry
     estimated scf accuracy    <       0.09134070 Ry

     iteration # 11     ecut=    60.00 Ry     beta= 0.50
     Davidson diagonalization with overlap
     ethr =  4.02E-05,  avg # of iterations =  5.8

     negative rho (up, down):  2.347E-04 0.000E+00

     total cpu time spent up to now is      177.8 secs

     total energy              =   -1842.85168520 Ry
     Harris-Foulkes estimate   =   -1842.85309116 Ry
     estimated scf accuracy    <       0.03372914 Ry

     iteration # 12     ecut=    60.00 Ry     beta= 0.50
     Davidson diagonalization with overlap
     c_bands:  1 eigenvalues not converged
     ethr =  1.49E-05,  avg # of iterations =  7.3

     negative rho (up, down):  2.343E-04 0.000E+00

     total cpu time spent up to now is      197.8 secs

     total energy              =   -1842.85068945 Ry
     Harris-Foulkes estimate   =   -1842.85197137 Ry
     estimated scf accuracy    <       0.03122326 Ry

     iteration # 13     ecut=    60.00 Ry     beta= 0.50
     Davidson diagonalization with overlap
     ethr =  1.38E-05,  avg # of iterations =  2.5

     negative rho (up, down):  1.474E-03 0.000E+00

     total cpu time spent up to now is      212.7 secs

     total energy              =   -1842.84970225 Ry
     Harris-Foulkes estimate   =   -1842.85086606 Ry
     estimated scf accuracy    <       0.03503948 Ry

     iteration # 14     ecut=    60.00 Ry     beta= 0.50
     Davidson diagonalization with overlap
     ethr =  1.38E-05,  avg # of iterations =  3.0

     negative rho (up, down):  3.705E-03 0.000E+00

     total cpu time spent up to now is      228.0 secs

     total energy              =   -1842.84907235 Ry
     Harris-Foulkes estimate   =   -1842.84986104 Ry
     estimated scf accuracy    <       0.03852179 Ry

     iteration # 15     ecut=    60.00 Ry     beta= 0.50
     Davidson diagonalization with overlap
     c_bands:  1 eigenvalues not converged
     ethr =  1.38E-05,  avg # of iterations =  3.9

     negative rho (up, down):  9.889E-03 0.000E+00

     total cpu time spent up to now is      244.3 secs

     total energy              =   -1842.84798374 Ry
     Harris-Foulkes estimate   =   -1842.84916656 Ry
     estimated scf accuracy    <       0.04005801 Ry

     iteration # 16     ecut=    60.00 Ry     beta= 0.50
     Davidson diagonalization with overlap
     ethr =  1.38E-05,  avg # of iterations =  5.7

     negative rho (up, down):  1.484E-02 0.000E+00

     total cpu time spent up to now is      262.7 secs

     total energy              =   -1842.84691595 Ry
     Harris-Foulkes estimate   =   -1842.84806900 Ry
     estimated scf accuracy    <       0.02872548 Ry

     iteration # 17     ecut=    60.00 Ry     beta= 0.50
     Davidson diagonalization with overlap
     ethr =  1.27E-05,  avg # of iterations =  6.0

     negative rho (up, down):  1.620E-02 0.000E+00

     total cpu time spent up to now is      281.5 secs

     total energy              =   -1842.84614604 Ry
     Harris-Foulkes estimate   =   -1842.84701458 Ry
     estimated scf accuracy    <       0.01625450 Ry

     iteration # 18     ecut=    60.00 Ry     beta= 0.50
     Davidson diagonalization with overlap
     c_bands:  2 eigenvalues not converged
     ethr =  7.16E-06,  avg # of iterations =  8.2

     negative rho (up, down):  1.233E-02 0.000E+00

     total cpu time spent up to now is      303.1 secs

     total energy              =   -1842.84599151 Ry
     Harris-Foulkes estimate   =   -1842.84626567 Ry
     estimated scf accuracy    <       0.00569010 Ry

     iteration # 19     ecut=    60.00 Ry     beta= 0.50
     Davidson diagonalization with overlap
     ethr =  2.51E-06,  avg # of iterations = 10.2

     negative rho (up, down):  6.024E-03 0.000E+00

     total cpu time spent up to now is      326.6 secs

     total energy              =   -1842.84594414 Ry
     Harris-Foulkes estimate   =   -1842.84607441 Ry
     estimated scf accuracy    <       0.00061861 Ry

     iteration # 20     ecut=    60.00 Ry     beta= 0.50
     Davidson diagonalization with overlap
     c_bands:  1 eigenvalues not converged
     ethr =  2.73E-07,  avg # of iterations =  8.2

     negative rho (up, down):  3.015E-03 0.000E+00

     total cpu time spent up to now is      348.1 secs

     total energy              =   -1842.84592810 Ry
     Harris-Foulkes estimate   =   -1842.84596899 Ry
     estimated scf accuracy    <       0.00039467 Ry

     iteration # 21     ecut=    60.00 Ry     beta= 0.50
     Davidson diagonalization with overlap
     c_bands:  1 eigenvalues not converged
     c_bands:  1 eigenvalues not converged
     c_bands:  1 eigenvalues not converged
     ethr =  1.74E-07,  avg # of iterations = 10.2

     negative rho (up, down):  1.252E-03 0.000E+00

     total cpu time spent up to now is      371.6 secs

     total energy              =   -1842.84592215 Ry
     Harris-Foulkes estimate   =   -1842.84594146 Ry
     estimated scf accuracy    <       0.00014037 Ry

     iteration # 22     ecut=    60.00 Ry     beta= 0.50
     Davidson diagonalization with overlap
     c_bands:  1 eigenvalues not converged
     ethr =  6.18E-08,  avg # of iterations =  7.5

     negative rho (up, down):  1.664E-03 0.000E+00

     total cpu time spent up to now is      391.9 secs

     total energy              =   -1842.84593209 Ry
     Harris-Foulkes estimate   =   -1842.84592907 Ry
     estimated scf accuracy    <       0.00004708 Ry

     iteration # 23     ecut=    60.00 Ry     beta= 0.50
     Davidson diagonalization with overlap
     ethr =  2.07E-08,  avg # of iterations =  3.4

     negative rho (up, down):  1.796E-03 0.000E+00

     total cpu time spent up to now is      407.7 secs

     total energy              =   -1842.84593564 Ry
     Harris-Foulkes estimate   =   -1842.84593470 Ry
     estimated scf accuracy    <       0.00002760 Ry

     iteration # 24     ecut=    60.00 Ry     beta= 0.50
     Davidson diagonalization with overlap
     ethr =  1.22E-08,  avg # of iterations =  1.0

     negative rho (up, down):  1.637E-03 0.000E+00

     total cpu time spent up to now is      421.4 secs

     total energy              =   -1842.84593423 Ry
     Harris-Foulkes estimate   =   -1842.84593645 Ry
     estimated scf accuracy    <       0.00000971 Ry

     iteration # 25     ecut=    60.00 Ry     beta= 0.50
     Davidson diagonalization with overlap
     ethr =  4.28E-09,  avg # of iterations =  2.8

     negative rho (up, down):  1.558E-03 0.000E+00

     total cpu time spent up to now is      436.8 secs

     total energy              =   -1842.84593361 Ry
     Harris-Foulkes estimate   =   -1842.84593468 Ry
     estimated scf accuracy    <       0.00000686 Ry

     iteration # 26     ecut=    60.00 Ry     beta= 0.50
     Davidson diagonalization with overlap
     ethr =  3.02E-09,  avg # of iterations =  1.4

     negative rho (up, down):  1.523E-03 0.000E+00

     total cpu time spent up to now is      450.6 secs

     total energy              =   -1842.84593387 Ry
     Harris-Foulkes estimate   =   -1842.84593391 Ry
     estimated scf accuracy    <       0.00000145 Ry

     iteration # 27     ecut=    60.00 Ry     beta= 0.50
     Davidson diagonalization with overlap
     ethr =  6.39E-10,  avg # of iterations =  3.1

     negative rho (up, down):  1.544E-03 0.000E+00

     total cpu time spent up to now is      466.4 secs

     total energy              =   -1842.84593386 Ry
     Harris-Foulkes estimate   =   -1842.84593396 Ry
     estimated scf accuracy    <       0.00000078 Ry

     iteration # 28     ecut=    60.00 Ry     beta= 0.50
     Davidson diagonalization with overlap
     ethr =  3.44E-10,  avg # of iterations =  1.7

     negative rho (up, down):  1.535E-03 0.000E+00

     total cpu time spent up to now is      480.5 secs

     total energy              =   -1842.84593390 Ry
     Harris-Foulkes estimate   =   -1842.84593390 Ry
     estimated scf accuracy    <       0.00000015 Ry

     iteration # 29     ecut=    60.00 Ry     beta= 0.50
     Davidson diagonalization with overlap
     ethr =  6.64E-11,  avg # of iterations =  3.2

     negative rho (up, down):  1.531E-03 0.000E+00

     total cpu time spent up to now is      497.7 secs

     total energy              =   -1842.84593392 Ry
     Harris-Foulkes estimate   =   -1842.84593392 Ry
     estimated scf accuracy    <       0.00000005 Ry

     iteration # 30     ecut=    60.00 Ry     beta= 0.50
     Davidson diagonalization with overlap
     ethr =  2.39E-11,  avg # of iterations =  1.6

     negative rho (up, down):  1.520E-03 0.000E+00

     total cpu time spent up to now is      511.9 secs

     total energy              =   -1842.84593393 Ry
     Harris-Foulkes estimate   =   -1842.84593392 Ry
     estimated scf accuracy    <       0.00000004 Ry

     iteration # 31     ecut=    60.00 Ry     beta= 0.50
     Davidson diagonalization with overlap
     ethr =  1.61E-11,  avg # of iterations =  1.6

     negative rho (up, down):  1.522E-03 0.000E+00

     total cpu time spent up to now is      526.0 secs

     total energy              =   -1842.84593393 Ry
     Harris-Foulkes estimate   =   -1842.84593393 Ry
     estimated scf accuracy    <          3.1E-09 Ry

     iteration # 32     ecut=    60.00 Ry     beta= 0.50
     Davidson diagonalization with overlap
     ethr =  1.37E-12,  avg # of iterations =  3.0

     negative rho (up, down):  1.520E-03 0.000E+00

     total cpu time spent up to now is      545.2 secs

     total energy              =   -1842.84593393 Ry
     Harris-Foulkes estimate   =   -1842.84593393 Ry
     estimated scf accuracy    <          1.7E-09 Ry

     iteration # 33     ecut=    60.00 Ry     beta= 0.50
     Davidson diagonalization with overlap
     ethr =  7.63E-13,  avg # of iterations =  1.0

     negative rho (up, down):  1.520E-03 0.000E+00

     total cpu time spent up to now is      558.6 secs

     total energy              =   -1842.84593393 Ry
     Harris-Foulkes estimate   =   -1842.84593393 Ry
     estimated scf accuracy    <          1.0E-09 Ry

     iteration # 34     ecut=    60.00 Ry     beta= 0.50
     Davidson diagonalization with overlap
     ethr =  4.54E-13,  avg # of iterations =  1.0

     negative rho (up, down):  1.519E-03 0.000E+00

     total cpu time spent up to now is      572.2 secs

     total energy              =   -1842.84593393 Ry
     Harris-Foulkes estimate   =   -1842.84593393 Ry
     estimated scf accuracy    <          2.9E-10 Ry

     iteration # 35     ecut=    60.00 Ry     beta= 0.50
     Davidson diagonalization with overlap
     ethr =  1.26E-13,  avg # of iterations =  1.8

     negative rho (up, down):  1.517E-03 0.000E+00

     total cpu time spent up to now is      586.4 secs

     total energy              =   -1842.84593394 Ry
     Harris-Foulkes estimate   =   -1842.84593393 Ry
     estimated scf accuracy    <          2.9E-10 Ry

     iteration # 36     ecut=    60.00 Ry     beta= 0.50
     Davidson diagonalization with overlap
     ethr =  1.26E-13,  avg # of iterations =  1.0

     negative rho (up, down):  1.515E-03 0.000E+00

     total cpu time spent up to now is      599.5 secs

     End of self-consistent calculation

          k = 0.0000 0.0000 0.0000 ( 34843 PWs)   bands (ev):

   -35.6431 -35.5026 -23.7000 -22.8440 -22.8436 -22.6043 -17.1473 -16.9816
   -16.6942 -16.6828 -16.5661 -16.5501 -15.3571 -15.2451 -14.9651 -14.7248
   -14.7171 -14.6283 -14.4358 -14.2344 -14.2312 -14.0361 -14.0130 -13.8817
   -13.7809 -13.6371 -13.5939  -8.9296  -8.5669  -8.4707  -7.9755  -7.9735
    -7.9378  -7.9378  -7.7896  -7.7449  -7.7444  -7.6481  -7.4820  -2.3839
    -2.3827  -2.1525  -1.8827  -1.8794  -1.8231  -1.7231  -1.6900  -1.6237
    -1.5971  -1.5380  -1.5032  -1.3382  -1.2752  -1.2733  -1.1757  -0.9594
    -0.7306  -0.7106  -0.5130  -0.5114  -0.4337  -0.4290  -0.3644  -0.3449
    -0.3191  -0.3175  -0.3153  -0.3020  -0.2865  -0.2681  -0.2171  -0.1982
    -0.1865  -0.1752  -0.0918  -0.0898   0.0443   0.0459   0.0460   0.0489
     0.0949   0.1194   0.1481   0.2403   0.2499   0.2701   0.3128   0.3264
     0.5242   0.5411   0.7163   0.8280   0.8289   0.8905   0.9093   1.1281
     1.1721   1.2812   1.2943   1.3221   1.3486   1.3645   1.4508   1.4586
     1.5839   1.7301   1.7432   1.7680   1.8284   1.8970   1.9060   1.9588
     1.9848   2.0357   2.0719   2.1815   2.1824   2.4727   2.4818   5.0753
     5.1635   5.2172   5.8171   6.0579   6.4749   6.7097   6.7136   6.9920
     7.5802   7.9205   8.0719   8.1435   8.2525   8.4339   8.5366   8.6703
     9.0166

          k = 0.0000 0.1320 0.0000 ( 34781 PWs)   bands (ev):

   -35.6413 -35.5008 -23.6787 -22.8174 -22.8170 -22.5788 -17.1112 -16.9452
   -16.7554 -16.6919 -16.6220 -16.5638 -15.2683 -15.1641 -14.9097 -14.7302
   -14.7166 -14.6010 -14.4057 -14.2439 -14.2382 -14.0411 -14.0280 -13.9284
   -13.8253 -13.7061 -13.6178  -8.9190  -8.5294  -8.5147  -7.9750  -7.9735
    -7.8900  -7.8900  -7.7902  -7.7862  -7.7839  -7.6030  -7.5301  -2.4412
    -2.4407  -2.2493  -2.2075  -2.1831  -2.0772  -1.9497  -1.7902  -1.7026
    -1.6989  -1.6975  -1.6727  -1.5795  -1.4019  -1.3365  -1.3226  -1.2144
    -0.7767  -0.6940  -0.6786  -0.6254  -0.6122  -0.6105  -0.6087  -0.5159
    -0.5137  -0.3962  -0.2725  -0.2635  -0.2323  -0.2234  -0.2025  -0.2008
    -0.1696  -0.1093  -0.0706  -0.0684  -0.0476  -0.0016   0.0683   0.0694
     0.0945   0.1205   0.1995   0.2249   0.2504   0.3136   0.3496   0.4208
     0.5656   0.6735   0.8577   0.9809   0.9926   1.0258   1.0261   1.0862
     1.0981   1.1291   1.2816   1.3483   1.3517   1.4398   1.4464   1.4612
     1.5871   1.6691   1.6875   1.7140   1.7513   1.8019   1.9294   1.9332
     1.9474   1.9491   2.2035   2.2992   2.7018   2.7607   2.7835   5.4377
     5.5398   5.5559   6.1281   6.3972   6.6855   7.0118   7.0154   7.2557
     7.7184   8.0921   8.2374   8.2695   8.4678   8.5673   8.6996   8.8713
     9.0229

          k = 0.0000 0.2640 0.0000 ( 34663 PWs)   bands (ev):

   -35.6368 -35.4964 -23.6266 -22.7515 -22.7511 -22.5161 -17.0191 -16.9096
   -16.8530 -16.7749 -16.6862 -16.5581 -15.0679 -14.9987 -14.7801 -14.7619
   -14.7386 -14.5396 -14.3355 -14.2314 -14.2143 -14.0802 -14.0696 -14.0592
   -13.9004 -13.8758 -13.6761  -8.8895  -8.6110  -8.4364  -7.9745  -7.9735
    -7.8775  -7.8768  -7.7821  -7.7695  -7.7695  -7.6343  -7.4899  -2.8881
    -2.8750  -2.8090  -2.6684  -2.4994  -2.4814  -2.4772  -2.3357  -2.3340
    -2.1471  -1.7324  -1.6484  -1.6243  -1.5253  -1.5237  -1.5159  -1.2751
    -1.0364  -1.0280  -1.0019  -0.9011  -0.8608  -0.8599  -0.7053  -0.6972
    -0.5939  -0.5922  -0.5736  -0.5527  -0.5503  -0.5331  -0.4464  -0.3769
    -0.2540  -0.1917  -0.0423  -0.0402   0.0062   0.0406   0.0551   0.1604
     0.1816   0.3204   0.3732   0.4116   0.5608   0.6286   0.6470   0.6769
     0.6837   0.8162   0.9140   0.9871   1.0031   1.0852   1.1107   1.1116
     1.1164   1.1447   1.2198   1.2348   1.2859   1.4895   1.5475   1.5476
     1.5862   1.6612   1.6817   1.8657   1.8733   1.9187   1.9205   1.9319
     2.0170   2.0375   2.3128   2.4283   2.9840   2.9873   3.5832   6.1823
     6.4327   6.4337   6.8264   7.2167   7.2570   7.6056   7.8356   7.8423
     8.2050   8.4591   8.5922   8.7043   8.8482   8.9035   9.0026   9.0190
     9.3028

          k = 0.0000 0.3960 0.0000 ( 34610 PWs)   bands (ev):

   -35.6324 -35.4919 -23.5732 -22.6833 -22.6829 -22.4513 -17.0460 -16.9174
   -16.9105 -16.7508 -16.6806 -16.5525 -14.9874 -14.9801 -14.7388 -14.6532
   -14.5872 -14.4932 -14.2965 -14.2118 -14.1623 -14.1565 -14.1479 -14.0860
   -14.0675 -13.9477 -13.7596  -8.8445  -8.7067  -8.3391  -7.9745  -7.9735
    -7.9557  -7.9549  -7.7768  -7.7249  -7.6410  -7.6410  -7.3699  -3.5440
    -3.3418  -3.3369  -3.1159  -3.0522  -3.0485  -2.9364  -2.4262  -2.4247
    -2.1703  -2.0743  -1.8619  -1.8575  -1.5834  -1.5595  -1.4387  -1.2734
    -1.2530  -1.2024  -1.1910  -1.1292  -1.1237  -1.0587  -0.9189  -0.8883
    -0.8866  -0.8043  -0.7997  -0.7763  -0.7645  -0.6183  -0.5638  -0.3889
    -0.3276  -0.2008  -0.1619  -0.0253  -0.0232   0.0711   0.0734   0.1149
     0.1618   0.4382   0.4462   0.5074   0.5708   0.6540   0.7245   0.8302
     0.8658   0.8709   0.8856   0.9093   0.9789   1.0313   1.0812   1.0827
     1.1333   1.2520   1.3755   1.4470   1.5644   1.5696   1.6675   1.6918
     1.7125   1.8111   1.8835   1.8959   1.9034   1.9424   2.1030   2.1798
     2.2650   2.3135   2.3148   2.3847   2.8767   2.8812   4.1575   6.7837
     6.9697   7.3807   7.3812   7.9952   8.1971   8.3426   8.3796   8.6263
     8.6381   9.0137   9.0342   9.0416   9.0943   9.1488   9.3741   9.4258
     9.4414

          k = 0.0000-0.5279 0.0000 ( 34682 PWs)   bands (ev):

   -35.6306 -35.4901 -23.5507 -22.6544 -22.6539 -22.4239 -17.0981 -16.9623
   -16.8725 -16.7060 -16.6782 -16.5501 -15.0297 -15.0239 -14.6240 -14.5560
   -14.5537 -14.3986 -14.3263 -14.3026 -14.1894 -14.1846 -14.1333 -14.1257
   -14.0060 -13.9812 -13.8283  -8.7918  -8.7764  -8.2975  -7.9854  -7.9846
    -7.9741  -7.9730  -7.7684  -7.7653  -7.5851  -7.5851  -7.3179  -3.8125
    -3.5203  -3.5164  -3.2925  -3.2826  -3.2700  -3.1061  -2.4422  -2.4408
    -2.2013  -2.1787  -1.9926  -1.9889  -1.5519  -1.5229  -1.4194  -1.3451
    -1.2937  -1.2751  -1.2540  -1.2507  -1.1365  -1.1303  -1.0363  -1.0056
    -0.9874  -0.8917  -0.8902  -0.8675  -0.8401  -0.6930  -0.5539  -0.3566
    -0.3107  -0.2520  -0.2041  -0.0196  -0.0176   0.0706   0.0803   0.1199
     0.1618   0.3651   0.4494   0.4672   0.5170   0.5355   0.7574   0.7763
     0.8006   0.8622   0.9573   0.9792   0.9816   1.0642   1.0657   1.2030
     1.2827   1.3433   1.3764   1.4010   1.6786   1.6825   1.6852   1.7347
     1.9591   1.9619   1.9679   2.0095   2.0425   2.0822   2.0883   2.1263
     2.1386   2.3769   2.4750   2.4763   2.6970   2.7035   4.3425   6.6818
     7.5408   7.7893   7.7936   7.8324   8.4950   8.8506   8.9012   8.9205
     8.9503   8.9627   9.0644   9.2111   9.2674   9.3091   9.3261   9.5756
     9.7237

          k = 0.1250 0.0000 0.0000 ( 34755 PWs)   bands (ev):

   -35.6420 -35.5015 -23.6861 -22.8260 -22.8256 -22.5870 -17.1140 -16.9475
   -16.7744 -16.6815 -16.6473 -16.5487 -15.2547 -15.1516 -14.9838 -14.7705
   -14.7569 -14.6334 -14.4380 -14.2434 -14.2407 -14.0478 -14.0263 -13.9030
   -13.8353 -13.6755 -13.6044  -8.9552  -8.5127  -8.4462  -8.0012  -7.9997
    -7.8761  -7.8757  -7.8226  -7.7124  -7.7120  -7.5880  -7.4516  -2.4263
    -2.4254  -2.1834  -1.9249  -1.9184  -1.8605  -1.8554  -1.8551  -1.7942
    -1.6171  -1.6012  -1.5077  -1.4553  -1.2731  -1.2713  -1.1931  -0.9864
    -0.8337  -0.7328  -0.6746  -0.6668  -0.5701  -0.5666  -0.4387  -0.3951
    -0.3946  -0.3921  -0.3335  -0.3229  -0.2941  -0.2856  -0.2763  -0.2605
    -0.2339  -0.2059  -0.1091   0.0191   0.0370   0.0388   0.0629   0.1102
     0.1418   0.1420   0.1575   0.1972   0.2167   0.3195   0.3677   0.4228
     0.6173   0.6732   0.7379   0.7460   0.8151   0.9289   0.9635   1.1199
     1.1476   1.1563   1.2347   1.3105   1.3449   1.3912   1.4298   1.4684
     1.5865   1.7297   1.7380   1.7793   1.8562   1.8910   1.9164   1.9361
     2.0596   2.0761   2.1133   2.2280   2.2376   2.5128   2.5171   5.2983
     5.3437   5.3903   6.0442   6.3025   6.6230   6.9197   6.9265   7.1880
     7.6590   8.0646   8.2003   8.3787   8.4439   8.5927   8.7476   8.9022
     9.1083

          k = 0.1250 0.1320 0.0000 ( 34736 PWs)   bands (ev):

   -35.6402 -35.4997 -23.6654 -22.8001 -22.7997 -22.5623 -17.0788 -16.9122
   -16.7775 -16.7446 -16.6490 -16.6126 -15.1733 -15.0803 -14.9264 -14.7650
   -14.7454 -14.6036 -14.4017 -14.2444 -14.2410 -14.0530 -14.0428 -13.9430
   -13.8691 -13.7305 -13.6254  -8.9316  -8.6551  -8.3690  -8.0204  -8.0197
    -7.9383  -7.9374  -7.8176  -7.6829  -7.6742  -7.6742  -7.4110  -2.4780
    -2.4767  -2.2610  -2.1919  -2.1753  -2.0618  -1.9370  -1.9038  -1.8953
    -1.8304  -1.7957  -1.6929  -1.6916  -1.5897  -1.4075  -1.3287  -1.2460
    -0.8654  -0.8430  -0.8208  -0.7316  -0.7265  -0.6441  -0.6229  -0.5850
    -0.5560  -0.5553  -0.4618  -0.3227  -0.2841  -0.2629  -0.2410  -0.1993
    -0.1504  -0.1129  -0.0808  -0.0479  -0.0454   0.0767   0.0964   0.1093
     0.1327   0.1641   0.2107   0.2358   0.2496   0.2743   0.4581   0.5275
     0.5862   0.8283   0.9220   0.9813   0.9827   1.0465   1.0858   1.1477
     1.1604   1.1746   1.2212   1.2441   1.2505   1.3274   1.5209   1.5319
     1.5501   1.6003   1.6068   1.6222   1.6541   1.7334   1.9255   2.0245
     2.2899   2.2965   2.4690   2.5788   2.7178   2.7696   2.7888   5.6087
     5.6822   5.6919   6.3177   6.5938   6.8044   7.2107   7.2205   7.3908
     7.7827   8.2348   8.3623   8.3976   8.5802   8.6831   8.8655   8.9013
     9.0657

          k = 0.1250 0.2640 0.0000 ( 34685 PWs)   bands (ev):

   -35.6358 -35.4953 -23.6145 -22.7363 -22.7359 -22.5014 -16.9897 -16.9066
   -16.8230 -16.7718 -16.7570 -16.6299 -14.9982 -14.9494 -14.7726 -14.7661
   -14.7149 -14.5343 -14.3154 -14.2267 -14.2154 -14.1028 -14.0898 -14.0495
   -13.9160 -13.8731 -13.6745  -8.8869  -8.7930  -8.3607  -8.0894  -8.0890
    -7.9753  -7.9743  -7.8274  -7.7833  -7.6653  -7.6651  -7.4058  -2.9107
    -2.8955  -2.7986  -2.6792  -2.5036  -2.4819  -2.4775  -2.3351  -2.3334
    -2.1593  -1.8548  -1.8502  -1.7978  -1.7005  -1.5528  -1.5306  -1.5154
    -1.1088  -1.0434  -1.0405  -1.0117  -0.9965  -0.9289  -0.8664  -0.7656
    -0.7468  -0.7467  -0.6246  -0.5943  -0.5763  -0.5544  -0.5150  -0.3769
    -0.2752  -0.1921  -0.1383  -0.0863  -0.0730   0.0737   0.1366   0.1542
     0.2930   0.3365   0.4419   0.5216   0.5508   0.6885   0.6914   0.7415
     0.8805   0.9473   0.9672   1.0177   1.0457   1.1418   1.1740   1.2510
     1.2607   1.2909   1.3020   1.3238   1.3432   1.4097   1.5015   1.5188
     1.5276   1.5840   1.6120   1.8357   1.8716   1.8878   1.8955   2.1540
     2.4871   2.4929   2.7019   2.7866   2.9951   3.0019   3.5852   6.2575
     6.4938   6.4947   6.8323   7.3016   7.3347   7.6216   7.9995   8.0029
     8.2923   8.3688   8.7143   8.7612   8.8666   8.9447   9.0131   9.0585
     9.1285

          k = 0.1250 0.3960 0.0000 ( 34670 PWs)   bands (ev):

   -35.6314 -35.4909 -23.5625 -22.6703 -22.6699 -22.4386 -17.0408 -16.9054
   -16.8909 -16.7485 -16.7237 -16.6214 -14.9525 -14.9469 -14.6649 -14.5903
   -14.5796 -14.4758 -14.2740 -14.1980 -14.1914 -14.1516 -14.1397 -14.0959
   -14.0542 -13.9417 -13.7444  -8.8971  -8.8000  -8.4095  -8.1198  -8.1192
    -7.9868  -7.9858  -7.8787  -7.7829  -7.7103  -7.7102  -7.4456  -3.5324
    -3.3830  -3.3751  -3.1449  -3.0437  -3.0400  -2.9559  -2.4343  -2.4329
    -2.1861  -2.0152  -1.8451  -1.8412  -1.7074  -1.6885  -1.6372  -1.4571
    -1.3893  -1.3491  -1.3317  -1.2347  -1.1801  -1.1700  -1.0425  -0.9884
    -0.9270  -0.9237  -0.8943  -0.8405  -0.8086  -0.7402  -0.5518  -0.4271
    -0.3690  -0.2429  -0.1489  -0.0864  -0.0406   0.1078   0.1485   0.1540
     0.3416   0.3635   0.5016   0.6174   0.6886   0.8470   0.8491   0.8840
     0.9412   1.0047   1.0086   1.0613   1.1086   1.1295   1.1750   1.1864
     1.2494   1.3166   1.4278   1.5887   1.6222   1.6276   1.6651   1.7000
     1.7883   1.8641   1.8900   1.9120   2.0505   2.2808   2.2815   2.2858
     2.4346   2.4431   2.6470   2.7133   2.9367   2.9493   4.1491   6.6087
     6.9666   7.2455   7.2460   7.9540   8.0747   8.1027   8.2772   8.6083
     8.6166   8.8284   8.9603   9.1535   9.3157   9.3910   9.4519   9.5072
     9.5708

          k = 0.1250-0.5279 0.0000 ( 34632 PWs)   bands (ev):

   -35.6296 -35.4891 -23.5406 -22.6424 -22.6420 -22.4120 -17.0924 -16.9567
   -16.8475 -16.7447 -16.6804 -16.6178 -14.9850 -14.9798 -14.5514 -14.5162
   -14.4935 -14.3966 -14.3099 -14.2800 -14.2177 -14.1519 -14.1298 -14.1264
   -14.0281 -13.9635 -13.8007  -8.8977  -8.7931  -8.4382  -8.1145  -8.1137
    -7.9917  -7.9906  -7.8888  -7.7814  -7.7446  -7.7445  -7.4714  -3.8021
    -3.5691  -3.5621  -3.3226  -3.2735  -3.2685  -3.1321  -2.4553  -2.4540
    -2.1957  -2.1102  -1.8751  -1.8702  -1.6630  -1.6499  -1.5689  -1.5444
    -1.5221  -1.4230  -1.4063  -1.3359  -1.2669  -1.2458  -1.1995  -1.0352
    -1.0067  -0.9995  -0.9980  -0.9284  -0.9041  -0.8451  -0.5388  -0.4199
    -0.3649  -0.2575  -0.1579  -0.0698  -0.0137   0.1176   0.1590   0.1601
     0.3377   0.3816   0.5332   0.5863   0.6748   0.7038   0.8770   0.8908
     0.9002   0.9027   0.9690   1.0801   1.1527   1.2081   1.2196   1.2793
     1.3557   1.3736   1.3841   1.6218   1.7237   1.7722   1.9509   1.9683
     1.9748   1.9841   2.0741   2.1077   2.1661   2.2927   2.2964   2.3624
     2.4460   2.4472   2.4972   2.5622   2.8154   2.8331   4.3309   6.4753
     7.4571   7.4672   7.5230   7.6874   8.2474   8.2945   8.3254   8.9748
     9.0546   9.0870   9.2510   9.2644   9.4104   9.6823   9.7424   9.7587
     9.8099

          k = 0.2500 0.0000 0.0000 ( 34786 PWs)   bands (ev):

   -35.6394 -35.4989 -23.6522 -22.7817 -22.7813 -22.5447 -17.0287 -16.9385
   -16.8608 -16.8125 -16.6781 -16.5454 -15.0556 -15.0387 -15.0144 -14.8533
   -14.7988 -14.6574 -14.4482 -14.2576 -14.2561 -14.0959 -14.0569 -13.9784
   -13.9311 -13.7521 -13.6312  -8.9791  -8.4224  -8.3859  -8.0027  -8.0014
    -7.8448  -7.7894  -7.7893  -7.6317  -7.6312  -7.5043  -7.3761  -2.6187
    -2.6162  -2.4135  -2.2627  -2.2622  -2.1171  -2.0870  -1.8003  -1.7859
    -1.7041  -1.5340  -1.5279  -1.4655  -1.2698  -1.2679  -1.2428  -1.0585
    -1.0420  -0.9616  -0.9210  -0.8229  -0.8220  -0.8182  -0.6963  -0.6339
    -0.5871  -0.5836  -0.5086  -0.4916  -0.3732  -0.3371  -0.3107  -0.3040
    -0.3020  -0.2552  -0.1866  -0.1334   0.0243   0.0261   0.1026   0.1294
     0.1339   0.2691   0.2711   0.3929   0.4026   0.4455   0.4972   0.5522
     0.6080   0.6311   0.7502   0.8207   0.8699   0.8883   0.9491   0.9804
     1.2247   1.2407   1.2532   1.2708   1.3580   1.3814   1.4086   1.4764
     1.5702   1.6001   1.6552   1.8132   1.8282   1.8632   1.9714   1.9941
     2.0255   2.1008   2.2506   2.4128   2.4891   2.6200   2.6246   5.7956
     5.8010   5.8553   6.5997   6.9240   7.0375   7.4664   7.5025   7.5806
     7.9366   8.4292   8.4636   8.6569   8.7785   8.9220   9.2171   9.2547
     9.3533

          k = 0.2500 0.1320 0.0000 ( 34751 PWs)   bands (ev):

   -35.6376 -35.4971 -23.6327 -22.7578 -22.7574 -22.5218 -16.9966 -16.9320
   -16.8290 -16.8055 -16.7443 -16.6111 -15.0049 -14.9764 -14.9750 -14.8046
   -14.7473 -14.6221 -14.4012 -14.2435 -14.2434 -14.0939 -14.0703 -13.9842
   -13.9622 -13.7796 -13.6461  -8.9564  -8.6814  -8.3026  -8.0712  -8.0707
    -7.9262  -7.9253  -7.8678  -7.6846  -7.5981  -7.5978  -7.3425  -2.6687
    -2.6620  -2.4510  -2.2553  -2.2536  -2.1646  -2.1471  -2.1041  -2.0796
    -2.0053  -1.8664  -1.8105  -1.6837  -1.6821  -1.4677  -1.4074  -1.3418
    -1.0790  -1.0711  -1.0348  -0.9623  -0.9292  -0.8824  -0.7604  -0.6970
    -0.6763  -0.6659  -0.6201  -0.5323  -0.4359  -0.3938  -0.3522  -0.2693
    -0.2500  -0.0870  -0.0808  -0.0578  -0.0244   0.0491   0.0932   0.1422
     0.1534   0.2693   0.2769   0.3183   0.4132   0.5500   0.5979   0.7233
     0.8102   0.8498   0.8591   0.8854   0.9895   1.0036   1.1107   1.1265
     1.1656   1.1837   1.3216   1.3544   1.3709   1.4204   1.4272   1.4537
     1.4653   1.5497   1.6436   1.6783   1.6860   1.8911   1.9016   2.0819
     2.6087   2.6264   2.7660   2.8040   2.8147   2.8582   2.9644   6.0170
     6.0620   6.0625   6.7799   7.0811   7.1399   7.5404   7.7587   7.7661
     8.1513   8.4266   8.5480   8.5630   8.7956   8.9869   9.0947   9.1238
     9.3133

          k = 0.2500 0.2640 0.0000 ( 34733 PWs)   bands (ev):

   -35.6332 -35.4927 -23.5851 -22.6991 -22.6987 -22.4655 -16.9323 -16.9080
   -16.8808 -16.7998 -16.7504 -16.7425 -14.9150 -14.9060 -14.8027 -14.6652
   -14.6179 -14.5343 -14.2773 -14.2184 -14.2163 -14.1439 -14.1174 -14.0292
   -13.9601 -13.8628 -13.6730  -8.9941  -8.8803  -8.4149  -8.2913  -8.2910
    -8.0249  -7.9879  -7.9870  -7.7953  -7.7179  -7.7175  -7.4653  -3.0478
    -3.0229  -2.8027  -2.7449  -2.5473  -2.4950  -2.4905  -2.3671  -2.3661
    -2.2774  -2.2238  -2.2228  -2.0800  -2.0175  -1.6873  -1.5060  -1.4776
    -1.4752  -1.4646  -1.3405  -1.1830  -1.1414  -1.0019  -0.9762  -0.8737
    -0.7878  -0.7771  -0.6822  -0.6539  -0.6481  -0.6221  -0.5671  -0.4592
    -0.3997  -0.3550  -0.2806  -0.0338  -0.0044   0.0233   0.2602   0.2822
     0.4524   0.4623   0.5469   0.7244   0.7401   0.7863   0.8578   0.9052
     0.9072   1.0844   1.1542   1.1965   1.2297   1.2830   1.2885   1.3283
     1.3801   1.4158   1.4308   1.4581   1.4794   1.5276   1.5586   1.5691
     1.6122   1.6340   1.6480   1.8021   1.8037   1.9353   1.9904   2.2038
     2.9311   2.9332   3.2172   3.2295   3.3645   3.4817   3.5934   6.2711
     6.6037   6.6046   6.8335   7.5183   7.5288   7.6436   8.2903   8.2917
     8.3461   8.6752   8.7162   8.9187   8.9927   9.1145   9.2276   9.2702
     9.3030

          k = 0.2500 0.3960 0.0000 ( 34712 PWs)   bands (ev):

   -35.6288 -35.4883 -23.5365 -22.6387 -22.6383 -22.4076 -17.0288 -16.8965
   -16.8936 -16.8223 -16.7699 -16.6547 -14.8712 -14.8683 -14.5751 -14.4955
   -14.4771 -14.4361 -14.2697 -14.2336 -14.1532 -14.1380 -14.1255 -14.1069
   -13.9845 -13.9305 -13.7053  -9.1545  -8.8259  -8.6292  -8.4114  -8.4108
    -8.1558  -8.0382  -8.0375  -7.9318  -7.9313  -7.8133  -7.6826  -3.5520
    -3.5218  -3.4969  -3.2607  -3.0431  -3.0193  -3.0172  -2.5053  -2.5046
    -2.2981  -2.1871  -2.1833  -2.0611  -1.9629  -1.9074  -1.8274  -1.8245
    -1.6432  -1.5381  -1.5057  -1.4640  -1.3606  -1.2126  -1.2069  -0.9435
    -0.8836  -0.8746  -0.8545  -0.8469  -0.8275  -0.7544  -0.6023  -0.5420
    -0.5283  -0.4598  -0.3480   0.0098   0.0690   0.1291   0.2966   0.3460
     0.5649   0.5916   0.7874   0.9232   0.9242   0.9489   1.0230   1.1873
     1.2246   1.2297   1.2603   1.2673   1.3629   1.3991   1.4327   1.4497
     1.4770   1.5618   1.5735   1.6654   1.6940   1.7170   1.7524   1.8110
     1.8292   1.8751   1.9037   1.9524   2.1610   2.2025   2.2035   2.3064
     2.7625   2.7653   3.4464   3.4699   3.6017   3.7020   4.1252   6.0181
     6.8110   6.8120   7.0334   7.6522   7.7466   7.8491   8.3206   8.7408
     8.7527   8.8928   9.0387   9.3057   9.6228   9.6626   9.6875   9.7650
     9.8267

          k = 0.2500-0.5279 0.0000 ( 34740 PWs)   bands (ev):

   -35.6270 -35.4865 -23.5160 -22.6132 -22.6127 -22.3832 -17.0789 -16.9434
   -16.8910 -16.7827 -16.7646 -16.6152 -14.8680 -14.8644 -14.4203 -14.4171
   -14.4044 -14.3928 -14.2829 -14.2754 -14.2217 -14.1226 -14.1208 -14.0589
   -14.0443 -13.9210 -13.7323  -9.1869  -8.8002  -8.7463  -8.4115  -8.4107
    -8.1763  -8.1263  -8.1261  -7.9980  -7.9971  -7.8289  -7.7920  -3.7873
    -3.7330  -3.7220  -3.4537  -3.2542  -3.2470  -3.2272  -2.5128  -2.5120
    -2.2856  -2.1490  -2.1458  -2.0444  -2.0216  -1.9823  -1.9583  -1.9097
    -1.7330  -1.6632  -1.5425  -1.5012  -1.4303  -1.2995  -1.2956  -1.0032
    -0.9648  -0.9244  -0.9058  -0.8690  -0.8615  -0.8368  -0.6161  -0.5583
    -0.5387  -0.4696  -0.3525   0.0162   0.0984   0.1698   0.3084   0.3834
     0.6261   0.6642   0.8930   0.9771   1.0274   1.0277   1.0391   1.1244
     1.1526   1.1690   1.3030   1.3893   1.4080   1.4276   1.4483   1.4975
     1.5085   1.5893   1.6330   1.8034   1.8561   1.8998   1.9350   1.9675
     1.9796   2.0162   2.0470   2.0772   2.2860   2.3457   2.3782   2.3792
     2.5401   2.5440   3.4663   3.4956   3.6371   3.7333   4.2926   5.8443
     6.7742   6.7773   7.1657   7.6449   7.8135   7.9007   8.1178   8.7893
     9.0976   9.1933   9.4647   9.4755   9.6388   9.8025   9.8928  10.0196
    10.0392

          k = 0.3750 0.0000 0.0000 ( 34726 PWs)   bands (ev):

   -35.6367 -35.4962 -23.6176 -22.7362 -22.7358 -22.5015 -17.0783 -16.9533
   -16.9335 -16.7632 -16.6748 -16.5420 -15.1122 -15.0935 -15.0923 -14.7079
   -14.6810 -14.6615 -14.4128 -14.2702 -14.2628 -14.2085 -14.1112 -14.0788
   -13.9749 -13.8088 -13.6648  -8.9726  -8.3666  -8.3237  -7.9852  -7.9840
    -7.8355  -7.7245  -7.7244  -7.5473  -7.5468  -7.4556  -7.2974  -2.9465
    -2.9422  -2.7699  -2.5103  -2.3860  -2.3847  -2.1315  -1.7187  -1.6900
    -1.6373  -1.5923  -1.5587  -1.4296  -1.3045  -1.2714  -1.2695  -1.2555
    -1.1401  -1.0719  -1.0650  -1.0304  -0.9669  -0.9549  -0.9398  -0.8402
    -0.7869  -0.7838  -0.7207  -0.6967  -0.4995  -0.4579  -0.3309  -0.3251
    -0.2983  -0.2890  -0.2277  -0.2081   0.0115   0.0132   0.0518   0.1197
     0.1248   0.3475   0.3502   0.3721   0.3742   0.3996   0.4714   0.5188
     0.6349   0.6991   0.7626   0.8431   0.8467   0.9807   1.1301   1.1304
     1.1672   1.2340   1.2936   1.3085   1.3209   1.3665   1.4563   1.4981
     1.5926   1.7012   1.7117   1.7472   1.8560   1.9123   1.9289   2.0823
     2.1156   2.1321   2.2908   2.5178   2.5276   2.7351   2.7461   6.3565
     6.4501   6.4512   6.9878   7.4927   7.7137   7.9113   7.9460   7.9496
     8.4156   8.4898   8.5589   8.7532   9.2689   9.3762   9.4359   9.4516
     9.4740

          k = 0.3750 0.1320 0.0000 ( 34759 PWs)   bands (ev):

   -35.6349 -35.4944 -23.5995 -22.7145 -22.7141 -22.4805 -17.0698 -16.9447
   -16.9044 -16.7393 -16.7341 -16.6062 -15.0527 -15.0453 -15.0336 -14.6677
   -14.6369 -14.6005 -14.3602 -14.2415 -14.2394 -14.1835 -14.1047 -14.0588
   -14.0089 -13.8155 -13.6771  -8.9530  -8.6189  -8.3579  -8.0427  -8.0420
    -7.8879  -7.8873  -7.8613  -7.6373  -7.6366  -7.6349  -7.3904  -3.0084
    -2.9990  -2.8140  -2.5344  -2.3847  -2.3835  -2.1528  -2.0906  -2.0744
    -1.9179  -1.8099  -1.8006  -1.6723  -1.6705  -1.5324  -1.4869  -1.4156
    -1.3659  -1.3617  -1.2583  -1.1288  -1.0170  -0.9381  -0.8848  -0.8475
    -0.7838  -0.7518  -0.6816  -0.6439  -0.6061  -0.4726  -0.4620  -0.3227
    -0.3188  -0.1136  -0.1019  -0.0156   0.0513   0.0736   0.0987   0.1330
     0.1373   0.2873   0.3663   0.3866   0.3911   0.6112   0.6311   0.7355
     0.7725   0.8048   0.9045   0.9645   1.0477   1.0710   1.1295   1.1538
     1.1932   1.2611   1.3052   1.3135   1.3605   1.4335   1.4840   1.5280
     1.6417   1.6854   1.6899   1.7347   1.7873   1.9267   2.0711   2.0821
     2.6845   2.6958   2.7942   2.8962   2.9185   3.0745   3.1369   6.3551
     6.5993   6.5999   6.9980   7.4712   7.7614   7.8928   8.0113   8.0117
     8.4386   8.4614   8.6009   8.8334   9.1309   9.2871   9.3391   9.4456
     9.5784

          k = 0.3750 0.2640 0.0000 ( 34779 PWs)   bands (ev):

   -35.6306 -35.4901 -23.5553 -22.6612 -22.6608 -22.4289 -17.0494 -16.9243
   -16.8837 -16.8292 -16.7490 -16.6597 -14.9284 -14.9250 -14.8393 -14.5722
   -14.5348 -14.4510 -14.2520 -14.2016 -14.1821 -14.1685 -14.1048 -14.0510
   -13.9963 -13.8499 -13.6848  -9.0512  -8.8762  -8.6062  -8.3441  -8.3436
    -8.0816  -8.0226  -8.0220  -7.9003  -7.8996  -7.8085  -7.6654  -3.3243
    -3.2928  -3.0526  -2.7543  -2.7407  -2.5551  -2.5506  -2.4361  -2.4354
    -2.4124  -2.3066  -2.3045  -2.2687  -2.1192  -1.8349  -1.7936  -1.6895
    -1.6133  -1.4639  -1.3158  -1.2860  -1.1485  -1.0013  -0.9872  -0.9318
    -0.9066  -0.8826  -0.7336  -0.7078  -0.7024  -0.6704  -0.5524  -0.5462
    -0.4460  -0.4266  -0.3606  -0.0044   0.0411   0.1942   0.3341   0.3933
     0.5619   0.5760   0.6445   0.7620   0.7757   0.9511   0.9530   1.0570
     1.1170   1.1410   1.1817   1.1889   1.3424   1.3454   1.3761   1.4107
     1.4654   1.4981   1.5290   1.5823   1.6180   1.6207   1.6804   1.6980
     1.7041   1.7494   1.7560   1.7712   1.9091   1.9925   2.1315   2.1417
     2.9311   2.9345   3.5936   3.6731   3.6773   3.7968   3.8968   5.9972
     6.6447   6.6453   6.9630   7.5500   7.6266   7.7373   8.3501   8.3563
     8.6940   8.7439   9.0151   9.0863   9.2471   9.3656   9.4306   9.5989
     9.6949

          k = 0.3750 0.3960 0.0000 ( 34747 PWs)   bands (ev):

   -35.6263 -35.4857 -23.5101 -22.6066 -22.6062 -22.3761 -17.0321 -17.0104
   -16.9055 -16.8769 -16.7495 -16.5798 -14.7934 -14.7918 -14.5762 -14.4805
   -14.4428 -14.2939 -14.2841 -14.2355 -14.1344 -14.1316 -14.0504 -14.0409
   -13.9587 -13.8916 -13.6693  -9.3626  -8.9047  -8.8223  -8.6098  -8.6092
    -8.3549  -8.2749  -8.2747  -8.0252  -8.0240  -7.9730  -7.8367  -3.8038
    -3.7653  -3.5197  -3.4384  -3.2143  -3.0003  -2.9987  -2.6866  -2.6851
    -2.5279  -2.3444  -2.3329  -2.3318  -2.1478  -2.1295  -2.0968  -1.9088
    -1.7715  -1.7480  -1.3804  -1.2659  -1.2636  -1.2615  -1.2568  -1.0145
    -1.0028  -0.9236  -0.9143  -0.8608  -0.7869  -0.7428  -0.7301  -0.6030
    -0.5092  -0.4499  -0.4471   0.0810   0.1974   0.2444   0.4047   0.5732
     0.7849   0.8751   0.9952   1.1015   1.1032   1.1949   1.2258   1.2976
     1.3305   1.4116   1.4259   1.4306   1.5165   1.5827   1.6130   1.6684
     1.6814   1.6937   1.7248   1.7988   1.8293   1.8499   1.8854   1.8980
     1.9472   1.9876   2.0017   2.0679   2.1244   2.1252   2.3244   2.3852
     2.7504   2.7561   4.0777   4.1925   4.1995   4.2770   4.3734   5.4630
     6.3413   6.3421   6.9172   7.3092   7.6105   7.7034   8.5232   8.7052
     8.9278   8.9542   9.2946   9.4440   9.4719   9.5149   9.5513   9.6584
     9.8617

          k = 0.3750-0.5279 0.0000 ( 34780 PWs)   bands (ev):

   -35.6245 -35.4839 -23.4911 -22.5835 -22.5831 -22.3539 -17.0656 -17.0195
   -16.9303 -16.8944 -16.7140 -16.5446 -14.7321 -14.7312 -14.4524 -14.4138
   -14.3904 -14.3406 -14.2533 -14.2033 -14.1344 -14.1148 -14.1128 -13.9875
   -13.9854 -13.8658 -13.6609  -9.4740  -9.0306  -8.8027  -8.6919  -8.6910
    -8.4520  -8.4200  -8.4200  -8.1000  -8.0510  -8.0495  -7.8508  -4.0105
    -3.9714  -3.7700  -3.6576  -3.4169  -3.2256  -3.2239  -2.7051  -2.7037
    -2.5391  -2.3451  -2.3271  -2.3256  -2.2550  -2.2070  -2.1303  -1.9906
    -1.8630  -1.8066  -1.4506  -1.3732  -1.3696  -1.2935  -1.2910  -1.0137
    -1.0091  -1.0083  -0.9946  -0.9424  -0.8309  -0.8207  -0.7362  -0.6051
    -0.4959  -0.4367  -0.4342   0.1142   0.2371   0.2585   0.4241   0.6556
     0.8549   1.0152   1.1656   1.2136   1.2183   1.2482   1.2956   1.2980
     1.3375   1.4777   1.5302   1.6051   1.6126   1.6720   1.6772   1.7111
     1.7378   1.8066   1.8377   1.9396   1.9521   1.9874   1.9974   2.0070
     2.0888   2.1035   2.1372   2.2267   2.3130   2.3156   2.3953   2.5054
     2.5138   2.5282   4.1975   4.3367   4.3537   4.4248   4.5153   5.2409
     6.1637   6.1646   6.8652   7.2216   7.6032   7.6993   8.4667   8.5273
     9.0748   9.0975   9.3110   9.4262   9.4995   9.7094   9.7841   9.8108
     9.8241

          k =-0.5000 0.0000 0.0000 ( 34714 PWs)   bands (ev):

   -35.6356 -35.4951 -23.6032 -22.7171 -22.7167 -22.4832 -17.1307 -17.0060
   -16.8913 -16.7200 -16.6735 -16.5406 -15.1613 -15.1482 -15.1336 -14.7281
   -14.6554 -14.4515 -14.3773 -14.2874 -14.2773 -14.2522 -14.1906 -14.1260
   -13.9872 -13.8276 -13.6815  -8.9635  -8.3515  -8.2974  -7.9749  -7.9737
    -7.8256  -7.7014  -7.7013  -7.5112  -7.5107  -7.4422  -7.2638  -3.0885
    -3.0846  -2.9144  -2.6646  -2.4110  -2.4096  -2.1293  -1.7088  -1.6732
    -1.6712  -1.6333  -1.4322  -1.3388  -1.3364  -1.3334  -1.2752  -1.2734
    -1.2300  -1.2076  -1.1753  -1.0523  -1.0375  -0.9750  -0.9543  -0.8902
    -0.8689  -0.8673  -0.8174  -0.8167  -0.5623  -0.5124  -0.3341  -0.3302
    -0.3005  -0.2983  -0.2714  -0.2182   0.0062   0.0079   0.0547   0.0838
     0.0915   0.3475   0.3495   0.3727   0.3742   0.3918   0.4389   0.4818
     0.5488   0.7633   0.8211   0.8270   0.8796   1.0201   1.0797   1.0802
     1.2570   1.2971   1.3078   1.3146   1.3399   1.4163   1.5360   1.5956
     1.5984   1.6003   1.6454   1.8125   1.8968   1.9424   2.0665   2.0957
     2.1209   2.1464   2.2980   2.5074   2.5225   2.7611   2.7806   6.6064
     6.9527   7.2232   7.2235   7.2745   7.2755   7.7781   8.2106   8.4129
     8.4897   8.5743   8.6995   8.9925   9.3995   9.3999   9.5062   9.5082
     9.5121

          k =-0.5000 0.1320 0.0000 ( 34798 PWs)   bands (ev):

   -35.6338 -35.4933 -23.5856 -22.6963 -22.6959 -22.4631 -17.1215 -16.9968
   -16.8638 -16.7371 -16.6924 -16.6041 -15.1007 -15.0918 -15.0616 -14.6874
   -14.6175 -14.4099 -14.3190 -14.2497 -14.2492 -14.2300 -14.1595 -14.0894
   -14.0250 -13.8269 -13.6949  -8.9425  -8.5155  -8.4691  -8.0138  -8.0130
    -7.8451  -7.8308  -7.8308  -7.7142  -7.7135  -7.5629  -7.4777  -3.1569
    -3.1480  -2.9663  -2.6946  -2.4159  -2.4146  -2.1635  -2.0602  -2.0394
    -1.8620  -1.8016  -1.7575  -1.6670  -1.6652  -1.5696  -1.5181  -1.4812
    -1.4759  -1.4332  -1.3687  -1.1710  -1.1098  -0.9332  -0.9245  -0.9230
    -0.7716  -0.7636  -0.7150  -0.6931  -0.6685  -0.5094  -0.5009  -0.3464
    -0.3458  -0.1275  -0.1107   0.0022   0.0689   0.0822   0.1276   0.1287
     0.1505   0.2221   0.3797   0.4594   0.4609   0.5353   0.5531   0.7018
     0.7577   0.8222   0.8788   0.9946   1.0444   1.0797   1.1245   1.1604
     1.2252   1.2268   1.3279   1.3567   1.4298   1.4344   1.5735   1.6210
     1.6232   1.6670   1.6729   1.8190   1.8609   2.0494   2.0694   2.1583
     2.6927   2.6989   2.7994   2.9152   2.9391   3.1282   3.1699   6.4477
     6.9767   7.0710   7.0712   7.5782   7.5804   7.7053   8.1191   8.2111
     8.4131   8.5237   8.7478   9.2231   9.3428   9.3650   9.5044   9.5659
     9.6102

          k =-0.5000 0.2640 0.0000 ( 34772 PWs)   bands (ev):

   -35.6295 -35.4890 -23.5428 -22.6453 -22.6449 -22.4136 -17.0995 -16.9748
   -16.8804 -16.7927 -16.7458 -16.6222 -14.9475 -14.9424 -14.8563 -14.5904
   -14.5285 -14.3056 -14.2198 -14.2045 -14.1871 -14.1791 -14.0938 -14.0774
   -14.0009 -13.8435 -13.6987  -9.0092  -8.8747  -8.7492  -8.2829  -8.2821
    -8.1319  -8.1319  -8.0343  -7.9637  -7.9627  -7.8433  -7.7891  -3.4628
    -3.4314  -3.1981  -2.8964  -2.7336  -2.5806  -2.5764  -2.4490  -2.4457
    -2.4271  -2.3167  -2.3123  -2.2960  -2.1241  -1.9591  -1.9113  -1.7374
    -1.6580  -1.5521  -1.2449  -1.1983  -1.1290  -1.0239  -1.0224  -0.9585
    -0.9274  -0.9027  -0.7564  -0.7331  -0.7276  -0.7190  -0.5565  -0.5388
    -0.4485  -0.4472  -0.3832   0.0030   0.0568   0.2767   0.3604   0.4388
     0.6154   0.6478   0.6788   0.7942   0.7996   1.0361   1.0409   1.0864
     1.1157   1.1254   1.1508   1.1700   1.3089   1.3720   1.4148   1.4565
     1.4862   1.4957   1.5672   1.6430   1.6554   1.7052   1.7342   1.7492
     1.7585   1.7648   1.8326   1.8496   1.8917   2.0294   2.0766   2.2525
     2.9241   2.9280   3.6014   3.8105   3.8170   3.9299   4.0207   5.8499
     6.6407   6.6412   6.9687   7.5156   7.7093   7.7277   8.3864   8.3906
     8.7725   8.9483   8.9990   9.2933   9.3255   9.5354   9.5610   9.6323
     9.7470

          k =-0.5000 0.3960 0.0000 ( 34764 PWs)   bands (ev):

   -35.6252 -35.4847 -23.4991 -22.5931 -22.5927 -22.3630 -17.0779 -17.0095
   -16.9532 -16.8746 -16.7172 -16.5467 -14.7642 -14.7621 -14.5813 -14.5031
   -14.4545 -14.2758 -14.2260 -14.1968 -14.1327 -14.1309 -14.0324 -13.9858
   -13.9728 -13.8605 -13.6575  -9.4285  -9.0257  -8.8279  -8.6580  -8.6572
    -8.4200  -8.4200  -8.4122  -8.1082  -8.0415  -8.0402  -7.8492  -3.9342
    -3.8920  -3.6220  -3.4502  -3.3248  -2.9919  -2.9902  -2.7570  -2.7548
    -2.5986  -2.4383  -2.3507  -2.3493  -2.2470  -2.1967  -2.1355  -1.9485
    -1.8301  -1.7862  -1.3589  -1.2877  -1.2825  -1.1603  -1.1496  -1.1022
    -1.0935  -0.9415  -0.9388  -0.8423  -0.8359  -0.7408  -0.7092  -0.6903
    -0.5111  -0.4129  -0.4116   0.0941   0.2184   0.3399   0.4469   0.6685
     0.8762   1.0397   1.0536   1.2317   1.2354   1.2365   1.2496   1.3316
     1.3659   1.4505   1.5007   1.5078   1.5237   1.6363   1.6613   1.6922
     1.7200   1.7334   1.7809   1.8282   1.9076   1.9116   1.9499   1.9646
     2.0117   2.0630   2.0945   2.1025   2.1059   2.1972   2.2705   2.5143
     2.7381   2.7451   4.0757   4.4556   4.4581   4.5218   4.6093   5.2483
     6.1460   6.1463   6.8100   7.1673   7.6024   7.6697   8.4973   8.7167
     8.8728   8.9196   9.3696   9.4547   9.4892   9.5800   9.6819   9.8092
     9.8426

          k =-0.5000-0.5279 0.0000 ( 34796 PWs)   bands (ev):

   -35.6234 -35.4829 -23.4807 -22.5711 -22.5707 -22.3417 -17.0691 -17.0601
   -16.9444 -16.9250 -16.6837 -16.5135 -14.6676 -14.6664 -14.4932 -14.4393
   -14.3900 -14.3215 -14.2508 -14.1519 -14.1113 -14.1073 -14.0653 -13.9915
   -13.9454 -13.8303 -13.6305  -9.5934  -9.1398  -8.8050  -8.8041  -8.8032
    -8.5635  -8.5361  -8.5361  -8.2134  -8.0694  -8.0675  -7.8655  -4.1425
    -4.0991  -3.8322  -3.7078  -3.5256  -3.2162  -3.2144  -2.7896  -2.7873
    -2.6255  -2.4549  -2.3408  -2.3394  -2.3388  -2.2955  -2.1338  -2.0184
    -1.9237  -1.8285  -1.4260  -1.4027  -1.3993  -1.2247  -1.2145  -1.0766
    -1.0625  -1.0371  -1.0356  -0.9428  -0.8698  -0.8266  -0.7174  -0.6678
    -0.5125  -0.3843  -0.3827   0.1295   0.2591   0.3571   0.4704   0.7809
     0.9712   1.1756   1.2375   1.2948   1.2954   1.3093   1.3507   1.3565
     1.3859   1.5731   1.5873   1.7084   1.7281   1.7304   1.7418   1.8289
     1.8350   1.8519   1.9391   1.9757   1.9838   1.9854   2.0291   2.0386
     2.1423   2.2001   2.2497   2.2870   2.2891   2.3727   2.4530   2.4808
     2.4915   2.6628   4.1907   4.6564   4.6624   4.7244   4.8020   5.0079
     5.9191   5.9192   6.7197   7.0641   7.5841   7.6242   8.3163   8.7614
     8.9817   9.0001   9.0383   9.1942   9.4338   9.5001   9.8058   9.8596
    10.0517

     the Fermi energy is     2.5143 ev

!    total energy              =   -1842.84593394 Ry
     Harris-Foulkes estimate   =   -1842.84593394 Ry
     estimated scf accuracy    <          9.1E-11 Ry

     The total energy is the sum of the following terms:

     one-electron contribution =  -28579.25335752 Ry
     hartree contribution      =   14442.06830388 Ry
     xc contribution           =    -621.57327696 Ry
     ewald contribution        =   12915.91996389 Ry
     smearing contrib. (-TS)   =      -0.00756723 Ry

     convergence has been achieved in  36 iterations

     negative rho (up, down):  1.515E-03 0.000E+00

     Forces acting on atoms (cartesian axes, Ry/au):

     atom    1 type  4   force =     0.00000000    0.00000000   -0.00018024
     atom    2 type  3   force =     0.00000000    0.00000000    0.00041724
     atom    3 type  4   force =     0.00000000    0.00000000   -0.00077579
     atom    4 type  1   force =     0.00000000    0.00000000   -0.00027797
     atom    5 type  3   force =     0.00000000    0.00000000    0.00058746
     atom    6 type  4   force =     0.00000000    0.00000000    0.00004352
     atom    7 type  4   force =     0.00000000    0.00000000    0.00031679
     atom    8 type  2   force =     0.00000000    0.00000000   -0.00075109
     atom    9 type  4   force =     0.00000000    0.00000000    0.00020740
     atom   10 type  4   force =     0.00000000    0.00000000    0.00023942
     atom   11 type  3   force =     0.00000000    0.00000000    0.00048566
     atom   12 type  1   force =     0.00000000    0.00000000   -0.00105727
     atom   13 type  4   force =     0.00000000    0.00000000    0.00540818
     atom   14 type  4   force =     0.00000000    0.00000000    0.01268373
     atom   15 type  3   force =     0.00000000    0.00000000   -0.01078008
     atom   16 type  4   force =     0.00000000    0.00000000    0.01399842
     atom   17 type  1   force =     0.00000000    0.00000000    0.00133343
     atom   18 type  3   force =     0.00000000    0.00000000   -0.00481613
     atom   19 type  4   force =     0.00000000    0.00000000   -0.00048904
     atom   20 type  4   force =     0.00000000    0.00000000   -0.00293791
     atom   21 type  2   force =     0.00000000    0.00000000   -0.01654765
     atom   22 type  4   force =     0.00000000    0.00000000    0.00036118
     atom   23 type  4   force =     0.00000000    0.00000000    0.00162789
     atom   24 type  3   force =     0.00000000    0.00000000   -0.00013727
     atom   25 type  1   force =     0.00000000    0.00000000    0.00027370
     atom   26 type  4   force =     0.00000000    0.00000000    0.00110335
     atom   27 type  3   force =     0.00000000    0.00000000   -0.00063967
     atom   28 type  4   force =     0.00000000    0.00000000    0.00030270

     Total force =     0.027941     Total SCF correction =     0.000029


     Computing stress (Cartesian axis) and pressure


     negative rho (up, down):  1.515E-03 0.000E+00
          total   stress  (Ry/bohr**3)                   (kbar)     P=       -8.26
  -0.00007917   0.00000000   0.00000000          -11.65        0.00        0.00
   0.00000000  -0.00003992   0.00000000            0.00       -5.87        0.00
   0.00000000   0.00000000  -0.00004939            0.00        0.00       -7.27


     BFGS Geometry Optimization

     number of scf cycles    =   1
     number of bfgs steps    =   0

     energy   new            =   -1842.8459339375 Ry

     new trust radius        =       0.0165476506 bohr
     new conv_thr            =            1.0E-10 Ry


ATOMIC_POSITIONS (angstrom)
O             0.0000000000        1.8611200000       -0.1846200000    0   0   0
Cu            0.0000000000        0.0000000000        0.1039800000    0   0   0
O             0.0000000000        0.0000000000        1.9772600000    0   0   0
Ba            1.9651100000        1.8611200000        2.2364100000    0   0   0
Cu            0.0000000000        0.0000000000        4.0773100000    0   0   0
O             1.9651100000        0.0000000000        4.2321000000    0   0   0
O             0.0000000000        1.8611200000        4.3692200000    0   0   0
Ca            1.9651100000        1.8611200000        5.8860000000    0   0   0
O             0.0000000000        1.8611200000        7.3367500000    0   0   0
O             1.9651100000        0.0000000000        7.4847600000    0   0   0
Cu            0.0000000000        0.0000000000        7.6688600000    0   0   0
Ba            1.9651100000        1.8611200000        9.5487700000    0   0   0
O             0.0000000000        0.0000000000        9.8708900000    0   0   0
O             0.0000000000        1.8611200000       11.7653519418
Cu            0.0000000000        0.0000000000       11.7531554295
O             0.0000000000        0.0000000000       13.6541876473
Ba            1.9651100000        1.8611200000       13.9695756207
Cu            0.0000000000        0.0000000000       17.0961614139
O             1.9651100000        0.0000000000       17.2825512123
O             0.0000000000        1.8611200000       17.4292453252
Ca            1.9651100000        1.8611200000       18.8728333604
O             0.0000000000        1.8611200000       20.3983600000    0   0   0
O             1.9651100000        0.0000000000       20.5354800000    0   0   0
Cu            0.0000000000        0.0000000000       20.6902800000    0   0   0
Ba            1.9651100000        1.8611200000       22.5311700000    0   0   0
O             0.0000000000        0.0000000000       22.7902800000    0   0   0
Cu            0.0000000000        0.0000000000       24.6635800000    0   0   0
O             0.0000000000        1.8611200000       24.9521300000    0   0   0


     NEW-OLD atomic charge density approx. for the potential

     negative rho (up, down):  1.569E-03 0.000E+00

     total cpu time spent up to now is      630.4 secs

     Self-consistent Calculation

     iteration #  1     ecut=    60.00 Ry     beta= 0.50
     Davidson diagonalization with overlap
     ethr =  1.00E-06,  avg # of iterations =  4.0

     negative rho (up, down):  1.530E-03 0.000E+00

     total cpu time spent up to now is      653.7 secs

     total energy              =   -1842.84658932 Ry
     Harris-Foulkes estimate   =   -1842.84661988 Ry
     estimated scf accuracy    <       0.00108773 Ry

     iteration #  2     ecut=    60.00 Ry     beta= 0.50
     Davidson diagonalization with overlap
     ethr =  4.79E-07,  avg # of iterations =  1.0

     negative rho (up, down):  1.520E-03 0.000E+00

     total cpu time spent up to now is      667.0 secs

     total energy              =   -1842.84661766 Ry
     Harris-Foulkes estimate   =   -1842.84664905 Ry
     estimated scf accuracy    <       0.00037836 Ry

     iteration #  3     ecut=    60.00 Ry     beta= 0.50
     Davidson diagonalization with overlap
     ethr =  1.67E-07,  avg # of iterations =  1.0

     negative rho (up, down):  1.514E-03 0.000E+00

     total cpu time spent up to now is      680.6 secs

     total energy              =   -1842.84663789 Ry
     Harris-Foulkes estimate   =   -1842.84664422 Ry
     estimated scf accuracy    <       0.00024704 Ry

     iteration #  4     ecut=    60.00 Ry     beta= 0.50
     Davidson diagonalization with overlap
     ethr =  1.09E-07,  avg # of iterations =  1.0

     negative rho (up, down):  1.510E-03 0.000E+00

     total cpu time spent up to now is      694.0 secs

     total energy              =   -1842.84663557 Ry
     Harris-Foulkes estimate   =   -1842.84664092 Ry
     estimated scf accuracy    <       0.00014053 Ry

     iteration #  5     ecut=    60.00 Ry     beta= 0.50
     Davidson diagonalization with overlap
     ethr =  6.19E-08,  avg # of iterations =  1.0

     negative rho (up, down):  1.506E-03 0.000E+00

     total cpu time spent up to now is      707.5 secs

     total energy              =   -1842.84663545 Ry
     Harris-Foulkes estimate   =   -1842.84663760 Ry
     estimated scf accuracy    <       0.00008077 Ry

     iteration #  6     ecut=    60.00 Ry     beta= 0.50
     Davidson diagonalization with overlap
     ethr =  3.56E-08,  avg # of iterations =  1.0

     negative rho (up, down):  1.501E-03 0.000E+00

     total cpu time spent up to now is      721.0 secs

     total energy              =   -1842.84663457 Ry
     Harris-Foulkes estimate   =   -1842.84663623 Ry
     estimated scf accuracy    <       0.00003380 Ry

     iteration #  7     ecut=    60.00 Ry     beta= 0.50
     Davidson diagonalization with overlap
     ethr =  1.49E-08,  avg # of iterations =  1.0

     negative rho (up, down):  1.497E-03 0.000E+00

     total cpu time spent up to now is      734.5 secs

     total energy              =   -1842.84663435 Ry
     Harris-Foulkes estimate   =   -1842.84663511 Ry
     estimated scf accuracy    <       0.00001173 Ry

     iteration #  8     ecut=    60.00 Ry     beta= 0.50
     Davidson diagonalization with overlap
     ethr =  5.17E-09,  avg # of iterations =  1.4

     negative rho (up, down):  1.496E-03 0.000E+00

     total cpu time spent up to now is      748.4 secs

     total energy              =   -1842.84663418 Ry
     Harris-Foulkes estimate   =   -1842.84663457 Ry
     estimated scf accuracy    <       0.00000295 Ry

     iteration #  9     ecut=    60.00 Ry     beta= 0.50
     Davidson diagonalization with overlap
     ethr =  1.30E-09,  avg # of iterations =  2.6

     negative rho (up, down):  1.496E-03 0.000E+00

     total cpu time spent up to now is      763.7 secs

     total energy              =   -1842.84663432 Ry
     Harris-Foulkes estimate   =   -1842.84663438 Ry
     estimated scf accuracy    <       0.00000374 Ry

     iteration # 10     ecut=    60.00 Ry     beta= 0.50
     Davidson diagonalization with overlap
     ethr =  1.30E-09,  avg # of iterations =  1.0

     negative rho (up, down):  1.497E-03 0.000E+00

     total cpu time spent up to now is      777.4 secs

     total energy              =   -1842.84663433 Ry
     Harris-Foulkes estimate   =   -1842.84663435 Ry
     estimated scf accuracy    <       0.00000109 Ry

     iteration # 11     ecut=    60.00 Ry     beta= 0.50
     Davidson diagonalization with overlap
     ethr =  4.79E-10,  avg # of iterations =  1.0

     negative rho (up, down):  1.499E-03 0.000E+00

     total cpu time spent up to now is      790.9 secs

     total energy              =   -1842.84663434 Ry
     Harris-Foulkes estimate   =   -1842.84663435 Ry
     estimated scf accuracy    <       0.00000062 Ry

     iteration # 12     ecut=    60.00 Ry     beta= 0.50
     Davidson diagonalization with overlap
     ethr =  2.75E-10,  avg # of iterations =  1.0

     negative rho (up, down):  1.501E-03 0.000E+00

     total cpu time spent up to now is      804.4 secs

     total energy              =   -1842.84663433 Ry
     Harris-Foulkes estimate   =   -1842.84663434 Ry
     estimated scf accuracy    <       0.00000029 Ry

     iteration # 13     ecut=    60.00 Ry     beta= 0.50
     Davidson diagonalization with overlap
     ethr =  1.27E-10,  avg # of iterations =  1.0

     negative rho (up, down):  1.503E-03 0.000E+00

     total cpu time spent up to now is      818.0 secs

     total energy              =   -1842.84663433 Ry
     Harris-Foulkes estimate   =   -1842.84663434 Ry
     estimated scf accuracy    <       0.00000016 Ry

     iteration # 14     ecut=    60.00 Ry     beta= 0.50
     Davidson diagonalization with overlap
     ethr =  7.21E-11,  avg # of iterations =  1.0

     negative rho (up, down):  1.505E-03 0.000E+00

     total cpu time spent up to now is      831.4 secs

     total energy              =   -1842.84663433 Ry
     Harris-Foulkes estimate   =   -1842.84663433 Ry
     estimated scf accuracy    <       0.00000006 Ry

     iteration # 15     ecut=    60.00 Ry     beta= 0.50
     Davidson diagonalization with overlap
     ethr =  2.68E-11,  avg # of iterations =  1.4

     negative rho (up, down):  1.507E-03 0.000E+00

     total cpu time spent up to now is      845.2 secs

     total energy              =   -1842.84663432 Ry
     Harris-Foulkes estimate   =   -1842.84663433 Ry
     estimated scf accuracy    <       0.00000003 Ry

     iteration # 16     ecut=    60.00 Ry     beta= 0.50
     Davidson diagonalization with overlap
     ethr =  1.43E-11,  avg # of iterations =  1.1

     negative rho (up, down):  1.509E-03 0.000E+00

     total cpu time spent up to now is      858.8 secs

     total energy              =   -1842.84663432 Ry
     Harris-Foulkes estimate   =   -1842.84663432 Ry
     estimated scf accuracy    <       0.00000002 Ry

     iteration # 17     ecut=    60.00 Ry     beta= 0.50
     Davidson diagonalization with overlap
     ethr =  6.90E-12,  avg # of iterations =  1.3

     negative rho (up, down):  1.510E-03 0.000E+00

     total cpu time spent up to now is      872.6 secs

     total energy              =   -1842.84663432 Ry
     Harris-Foulkes estimate   =   -1842.84663432 Ry
     estimated scf accuracy    <          6.5E-09 Ry

     iteration # 18     ecut=    60.00 Ry     beta= 0.50
     Davidson diagonalization with overlap
     ethr =  2.86E-12,  avg # of iterations =  1.8

     negative rho (up, down):  1.513E-03 0.000E+00

     total cpu time spent up to now is      886.7 secs

     total energy              =   -1842.84663432 Ry
     Harris-Foulkes estimate   =   -1842.84663432 Ry
     estimated scf accuracy    <          3.6E-09 Ry

     iteration # 19     ecut=    60.00 Ry     beta= 0.50
     Davidson diagonalization with overlap
     ethr =  1.60E-12,  avg # of iterations =  1.0

     negative rho (up, down):  1.514E-03 0.000E+00

     total cpu time spent up to now is      900.2 secs

     total energy              =   -1842.84663431 Ry
     Harris-Foulkes estimate   =   -1842.84663432 Ry
     estimated scf accuracy    <          1.5E-09 Ry

     iteration # 20     ecut=    60.00 Ry     beta= 0.50
     Davidson diagonalization with overlap
     ethr =  6.74E-13,  avg # of iterations =  1.5

     negative rho (up, down):  1.515E-03 0.000E+00

     total cpu time spent up to now is      914.1 secs

     total energy              =   -1842.84663431 Ry
     Harris-Foulkes estimate   =   -1842.84663431 Ry
     estimated scf accuracy    <          1.1E-09 Ry

     iteration # 21     ecut=    60.00 Ry     beta= 0.50
     Davidson diagonalization with overlap
     ethr =  4.87E-13,  avg # of iterations =  1.0

     negative rho (up, down):  1.518E-03 0.000E+00

     total cpu time spent up to now is      927.6 secs

     total energy              =   -1842.84663431 Ry
     Harris-Foulkes estimate   =   -1842.84663431 Ry
     estimated scf accuracy    <          8.1E-10 Ry

     iteration # 22     ecut=    60.00 Ry     beta= 0.50
     Davidson diagonalization with overlap
     ethr =  3.57E-13,  avg # of iterations =  1.0

     negative rho (up, down):  1.518E-03 0.000E+00

     total cpu time spent up to now is      941.2 secs

     total energy              =   -1842.84663431 Ry
     Harris-Foulkes estimate   =   -1842.84663431 Ry
     estimated scf accuracy    <          3.4E-10 Ry

     iteration # 23     ecut=    60.00 Ry     beta= 0.50
     Davidson diagonalization with overlap
     ethr =  1.52E-13,  avg # of iterations =  1.4

     negative rho (up, down):  1.521E-03 0.000E+00

     total cpu time spent up to now is      954.9 secs

     total energy              =   -1842.84663431 Ry
     Harris-Foulkes estimate   =   -1842.84663431 Ry
     estimated scf accuracy    <          2.8E-10 Ry

     iteration # 24     ecut=    60.00 Ry     beta= 0.50
     Davidson diagonalization with overlap
     ethr =  1.24E-13,  avg # of iterations =  1.2

     negative rho (up, down):  1.521E-03 0.000E+00

     total cpu time spent up to now is      968.7 secs

     total energy              =   -1842.84663430 Ry
     Harris-Foulkes estimate   =   -1842.84663431 Ry
     estimated scf accuracy    <          1.1E-10 Ry

     iteration # 25     ecut=    60.00 Ry     beta= 0.50
     Davidson diagonalization with overlap
     ethr =  1.00E-13,  avg # of iterations =  1.0

     negative rho (up, down):  1.521E-03 0.000E+00

     total cpu time spent up to now is      981.7 secs

     End of self-consistent calculation

          k = 0.0000 0.0000 0.0000 ( 34843 PWs)   bands (ev):

   -35.6468 -35.4988 -23.6653 -22.8463 -22.8416 -22.6210 -17.1511 -16.9765
   -16.6979 -16.6866 -16.5627 -16.5464 -15.3604 -15.2447 -14.9604 -14.7273
   -14.7185 -14.6320 -14.4335 -14.2367 -14.2324 -14.0389 -14.0067 -13.8861
   -13.8005 -13.5973 -13.5947  -8.8988  -8.5319  -8.4360  -7.9779  -7.9704
    -7.9401  -7.9362  -7.8055  -7.7472  -7.7427  -7.6654  -7.4988  -2.3854
    -2.3849  -2.1532  -1.8851  -1.8751  -1.8269  -1.7262  -1.6837  -1.6276
    -1.6011  -1.5415  -1.5017  -1.3436  -1.2772  -1.2756  -1.1765  -0.9417
    -0.7173  -0.6933  -0.5145  -0.5136  -0.4354  -0.4311  -0.3666  -0.3473
    -0.3202  -0.3197  -0.3175  -0.3052  -0.2823  -0.2683  -0.2187  -0.1988
    -0.1853  -0.1776  -0.0935  -0.0920   0.0422   0.0436   0.0438   0.0497
     0.0912   0.1168   0.1456   0.2436   0.2452   0.2673   0.3145   0.3218
     0.5256   0.5410   0.7261   0.8267   0.8269   0.8909   0.9108   1.1256
     1.1728   1.2822   1.2917   1.3279   1.3523   1.3656   1.4484   1.4551
     1.5869   1.7277   1.7315   1.7660   1.8407   1.8958   1.9052   1.9584
     1.9825   2.0305   2.0691   2.1740   2.1885   2.4714   2.4797   5.0807
     5.1614   5.2214   5.8362   6.0567   6.4767   6.7069   6.7145   6.9859
     7.5861   7.9185   8.0701   8.1611   8.2535   8.4354   8.5352   8.6694
     9.0138

          k = 0.0000 0.1320 0.0000 ( 34781 PWs)   bands (ev):

   -35.6450 -35.4970 -23.6440 -22.8196 -22.8149 -22.5956 -17.1149 -16.9401
   -16.7591 -16.6956 -16.6183 -16.5603 -15.2715 -15.1637 -14.9051 -14.7327
   -14.7178 -14.6047 -14.4035 -14.2462 -14.2393 -14.0438 -14.0221 -13.9346
   -13.8433 -13.6655 -13.6194  -8.8875  -8.4944  -8.4793  -7.9774  -7.9704
    -7.8923  -7.8884  -7.8039  -7.7884  -7.7845  -7.6202  -7.5471  -2.4435
    -2.4413  -2.2527  -2.2054  -2.1852  -2.0783  -1.9524  -1.7883  -1.7056
    -1.7008  -1.6998  -1.6666  -1.5836  -1.4044  -1.3346  -1.3279  -1.2029
    -0.7639  -0.6934  -0.6804  -0.6217  -0.6116  -0.6110  -0.5941  -0.5168
    -0.5159  -0.3994  -0.2737  -0.2667  -0.2328  -0.2248  -0.2045  -0.2031
    -0.1694  -0.1102  -0.0723  -0.0706  -0.0502  -0.0013   0.0664   0.0671
     0.0909   0.1174   0.1982   0.2224   0.2502   0.3103   0.3518   0.4170
     0.5726   0.6741   0.8599   0.9826   0.9958   1.0239   1.0252   1.0855
     1.1010   1.1249   1.2853   1.3479   1.3513   1.4416   1.4452   1.4636
     1.5867   1.6657   1.6848   1.7157   1.7493   1.8031   1.9272   1.9340
     1.9441   1.9455   2.2011   2.2906   2.7021   2.7596   2.7825   5.4450
     5.5376   5.5562   6.1485   6.3973   6.6892   7.0109   7.0147   7.2523
     7.7210   8.0900   8.2400   8.2872   8.4702   8.5709   8.6999   8.8668
     9.0383

          k = 0.0000 0.2640 0.0000 ( 34663 PWs)   bands (ev):

   -35.6406 -35.4926 -23.5919 -22.7538 -22.7490 -22.5328 -17.0229 -16.9134
   -16.8475 -16.7717 -16.6899 -16.5547 -15.0710 -14.9986 -14.7825 -14.7580
   -14.7389 -14.5437 -14.3337 -14.2339 -14.2150 -14.0827 -14.0709 -14.0652
   -13.9071 -13.8413 -13.6765  -8.8564  -8.5742  -8.4012  -7.9768  -7.9703
    -7.8798  -7.8751  -7.7982  -7.7718  -7.7679  -7.6516  -7.5070  -2.8904
    -2.8729  -2.8072  -2.6718  -2.5008  -2.4837  -2.4785  -2.3375  -2.3363
    -2.1479  -1.7257  -1.6512  -1.6189  -1.5276  -1.5247  -1.5156  -1.2798
    -1.0380  -1.0251  -1.0024  -0.8895  -0.8620  -0.8611  -0.7075  -0.6968
    -0.5968  -0.5834  -0.5665  -0.5546  -0.5525  -0.5300  -0.4511  -0.3793
    -0.2530  -0.1892  -0.0439  -0.0424   0.0065   0.0381   0.0544   0.1570
     0.1794   0.3177   0.3750   0.4148   0.5575   0.6275   0.6446   0.6764
     0.6929   0.8169   0.9106   0.9895   1.0065   1.0833   1.1093   1.1098
     1.1158   1.1445   1.2190   1.2354   1.2837   1.4886   1.5424   1.5461
     1.5839   1.6660   1.6788   1.8615   1.8740   1.9169   1.9183   1.9322
     2.0145   2.0371   2.3114   2.4216   2.9822   2.9857   3.5777   6.1891
[...]
     1.5072   1.5885   1.6314   1.7919   1.8506   1.9141   1.9306   1.9656
     1.9758   2.0109   2.0440   2.0745   2.2762   2.3415   2.3750   2.3751
     2.5383   2.5401   3.4611   3.4972   3.6312   3.7285   4.2696   5.8610
     6.7731   6.7733   7.1819   7.6385   7.8224   7.9581   8.1494   8.8168
     9.0916   9.2052   9.4603   9.4728   9.6268   9.7917   9.9069  10.0095
    10.0399

          k = 0.3750 0.0000 0.0000 ( 34726 PWs)   bands (ev):

   -35.6437 -35.4882 -23.5532 -22.7404 -22.7310 -22.5340 -17.0851 -16.9449
   -16.9404 -16.7536 -16.6818 -16.5342 -15.1086 -15.0946 -15.0927 -14.7127
   -14.6826 -14.6690 -14.4024 -14.2749 -14.2654 -14.2150 -14.1037 -14.0791
   -13.9831 -13.7764 -13.6646  -8.9147  -8.2914  -8.2592  -7.9894  -7.9769
    -7.8633  -7.7286  -7.7206  -7.5515  -7.5425  -7.4909  -7.3294  -2.9508
    -2.9370  -2.7795  -2.5119  -2.3887  -2.3875  -2.1350  -1.7237  -1.6828
    -1.6432  -1.5892  -1.5645  -1.4363  -1.3034  -1.2748  -1.2736  -1.2612
    -1.1148  -1.0760  -1.0602  -1.0124  -0.9678  -0.9458  -0.9452  -0.8175
    -0.7885  -0.7878  -0.7266  -0.6940  -0.5021  -0.4598  -0.3349  -0.3178
    -0.3013  -0.2928  -0.2269  -0.2122   0.0077   0.0091   0.0571   0.1202
     0.1228   0.3460   0.3462   0.3679   0.3729   0.4003   0.4656   0.5196
     0.6391   0.6937   0.7609   0.8448   0.8496   1.0024   1.1263   1.1278
     1.1644   1.2389   1.2908   1.3074   1.3278   1.3599   1.4515   1.5053
     1.5868   1.7055   1.7064   1.7391   1.8479   1.8913   1.9186   2.0770
     2.1150   2.1207   2.2902   2.5168   2.5241   2.7340   2.7422   6.3681
     6.4470   6.4481   7.0349   7.5447   7.7052   7.9298   7.9421   7.9534
     8.4062   8.4954   8.5591   8.7549   9.2647   9.3725   9.4308   9.4700
     9.4967

          k = 0.3750 0.1320 0.0000 ( 34759 PWs)   bands (ev):

   -35.6419 -35.4864 -23.5351 -22.7187 -22.7093 -22.5130 -17.0765 -16.9364
   -16.9113 -16.7463 -16.7244 -16.5984 -15.0559 -15.0475 -15.0267 -14.6726
   -14.6383 -14.6077 -14.3503 -14.2458 -14.2421 -14.1900 -14.0973 -14.0627
   -14.0180 -13.7780 -13.6763  -8.8949  -8.5529  -8.2859  -8.0468  -8.0361
    -7.8931  -7.8887  -7.8822  -7.6683  -7.6411  -7.6324  -7.4238  -3.0129
    -2.9928  -2.8238  -2.5368  -2.3876  -2.3861  -2.1564  -2.0940  -2.0690
    -1.9228  -1.8119  -1.8059  -1.6757  -1.6746  -1.5381  -1.4843  -1.3912
    -1.3689  -1.3555  -1.2641  -1.1300  -1.0205  -0.9242  -0.8814  -0.8489
    -0.7830  -0.7502  -0.6642  -0.6342  -0.6037  -0.4761  -0.4640  -0.3267
    -0.3216  -0.1179  -0.1048  -0.0183   0.0519   0.0692   0.1005   0.1296
     0.1353   0.2931   0.3682   0.3826   0.3902   0.6065   0.6363   0.7311
     0.7733   0.8072   0.9010   0.9628   1.0497   1.0688   1.1280   1.1523
     1.1896   1.2648   1.3011   1.3133   1.3672   1.4420   1.4789   1.5396
     1.6368   1.6786   1.6902   1.7302   1.7796   1.9213   2.0604   2.0628
     2.6803   2.6946   2.7893   2.8911   2.9184   3.0688   3.1331   6.3604
     6.5958   6.5975   7.0405   7.5315   7.7545   7.9084   8.0071   8.0107
     8.4284   8.5006   8.6146   8.8167   9.1308   9.2889   9.3421   9.4420
     9.5753

          k = 0.3750 0.2640 0.0000 ( 34779 PWs)   bands (ev):

   -35.6376 -35.4821 -23.4908 -22.6654 -22.6560 -22.4615 -17.0562 -16.9161
   -16.8907 -16.8361 -16.7414 -16.6502 -14.9326 -14.9269 -14.8333 -14.5772
   -14.5352 -14.4583 -14.2452 -14.2066 -14.1837 -14.1733 -14.0976 -14.0598
   -14.0181 -13.7928 -13.6824  -8.9875  -8.8187  -8.5356  -8.3482  -8.3395
    -8.1133  -8.0267  -8.0160  -7.9044  -7.8948  -7.8376  -7.6990  -3.3298
    -3.2835  -3.0622  -2.7590  -2.7366  -2.5592  -2.5482  -2.4395  -2.4383
    -2.4189  -2.3091  -2.3085  -2.2698  -2.1223  -1.8398  -1.7876  -1.6818
    -1.6018  -1.4662  -1.3195  -1.2851  -1.1474  -1.0043  -0.9883  -0.9360
    -0.9046  -0.8777  -0.7222  -0.7108  -0.7061  -0.6697  -0.5534  -0.5220
    -0.4469  -0.4292  -0.3599  -0.0058   0.0406   0.1971   0.3301   0.3912
     0.5683   0.5822   0.6415   0.7597   0.7717   0.9488   0.9493   1.0530
     1.1181   1.1426   1.1794   1.1908   1.3388   1.3427   1.3732   1.4096
     1.4647   1.4940   1.5314   1.5769   1.6313   1.6367   1.6764   1.6960
     1.7004   1.7480   1.7558   1.7673   1.9032   1.9881   2.1176   2.1307
     2.9286   2.9306   3.5803   3.6681   3.6790   3.7896   3.8910   6.0003
     6.6410   6.6442   7.0027   7.5551   7.6445   7.7672   8.3460   8.3557
     8.7329   8.7454   9.0231   9.1080   9.2641   9.3601   9.4312   9.5952
     9.6876

          k = 0.3750 0.3960 0.0000 ( 34747 PWs)   bands (ev):

   -35.6332 -35.4777 -23.4456 -22.6107 -22.6013 -22.4087 -17.0389 -17.0173
   -16.8976 -16.8694 -16.7564 -16.5704 -14.7975 -14.7936 -14.5745 -14.4850
   -14.4420 -14.3030 -14.2898 -14.2309 -14.1388 -14.1340 -14.0703 -14.0333
   -13.9847 -13.8121 -13.6651  -9.2984  -8.8387  -8.7647  -8.6140  -8.6053
    -8.3869  -8.2790  -8.2710  -8.0295  -8.0169  -8.0071  -7.8644  -3.8092
    -3.7554  -3.5233  -3.4387  -3.2181  -3.0035  -3.0028  -2.6891  -2.6849
    -2.5355  -2.3452  -2.3370  -2.3331  -2.1531  -2.1305  -2.0920  -1.9110
    -1.7628  -1.7395  -1.3787  -1.2692  -1.2660  -1.2637  -1.2575  -1.0191
    -1.0022  -0.9286  -0.9166  -0.8661  -0.7782  -0.7370  -0.7283  -0.6004
    -0.4758  -0.4526  -0.4461   0.0799   0.1946   0.2473   0.4018   0.5702
     0.7828   0.8908   0.9946   1.0992   1.1004   1.1904   1.2286   1.2928
     1.3318   1.4122   1.4245   1.4271   1.5147   1.5795   1.6137   1.6670
     1.6854   1.6912   1.7232   1.7959   1.8303   1.8507   1.8865   1.8982
     1.9421   1.9920   2.0036   2.0612   2.1211   2.1219   2.3192   2.3720
     2.7483   2.7521   4.0595   4.1899   4.1980   4.2700   4.3668   5.4679
     6.3379   6.3404   6.9363   7.3017   7.6378   7.7416   8.5462   8.7497
     8.9233   8.9584   9.2834   9.4340   9.4766   9.5172   9.5359   9.6369
     9.8449

          k = 0.3750-0.5279 0.0000 ( 34780 PWs)   bands (ev):

   -35.6314 -35.4759 -23.4266 -22.5877 -22.5783 -22.3864 -17.0726 -17.0263
   -16.9228 -16.8865 -16.7210 -16.5353 -14.7362 -14.7330 -14.4574 -14.4123
   -14.3911 -14.3492 -14.2488 -14.2103 -14.1573 -14.1178 -14.1169 -13.9855
   -13.9784 -13.8074 -13.6559  -9.4089  -8.9661  -8.7456  -8.6960  -8.6871
    -8.4845  -8.4241  -8.4164  -8.1340  -8.0552  -8.0424  -7.8784  -4.0157
    -3.9616  -3.7678  -3.6633  -3.4202  -3.2288  -3.2280  -2.7077  -2.7032
    -2.5471  -2.3460  -2.3312  -2.3269  -2.2603  -2.2025  -2.1303  -1.9939
    -1.8619  -1.7911  -1.4487  -1.3751  -1.3718  -1.2975  -1.2920  -1.0184
    -1.0138  -1.0114  -0.9933  -0.9499  -0.8292  -0.8135  -0.7254  -0.6020
    -0.4591  -0.4394  -0.4355   0.1132   0.2340   0.2616   0.4216   0.6521
     0.8530   1.0240   1.1694   1.2139   1.2168   1.2431   1.2937   1.2985
     1.3371   1.4773   1.5300   1.6036   1.6200   1.6692   1.6790   1.7111
     1.7361   1.8058   1.8333   1.9375   1.9488   1.9837   1.9969   2.0080
     2.0833   2.0944   2.1557   2.2204   2.3101   2.3115   2.3910   2.5036
     2.5097   2.5148   4.1792   4.3359   4.3487   4.4178   4.5086   5.2455
     6.1605   6.1626   6.8774   7.2128   7.6170   7.7537   8.5085   8.5614
     9.0706   9.1009   9.2999   9.4300   9.4735   9.6835   9.7802   9.8056
     9.8099

          k =-0.5000 0.0000 0.0000 ( 34714 PWs)   bands (ev):

   -35.6426 -35.4871 -23.5387 -22.7212 -22.7118 -22.5158 -17.1375 -16.9976
   -16.8983 -16.7104 -16.6804 -16.5328 -15.1634 -15.1503 -15.1272 -14.7331
   -14.6550 -14.4584 -14.3838 -14.2804 -14.2778 -14.2565 -14.1847 -14.1227
   -13.9951 -13.8007 -13.6804  -8.9064  -8.2735  -8.2328  -7.9791  -7.9663
    -7.8528  -7.7055  -7.6978  -7.5153  -7.5063  -7.4780  -7.2958  -3.0928
    -3.0794  -2.9237  -2.6652  -2.4137  -2.4130  -2.1336  -1.7144  -1.6763
    -1.6703  -1.6277  -1.4378  -1.3463  -1.3455  -1.3303  -1.2786  -1.2775
    -1.2348  -1.2009  -1.1510  -1.0592  -1.0181  -0.9570  -0.9435  -0.8875
    -0.8713  -0.8705  -0.8233  -0.8110  -0.5644  -0.5142  -0.3393  -0.3229
    -0.3013  -0.2988  -0.2758  -0.2227   0.0024   0.0038   0.0597   0.0849
     0.0905   0.3440   0.3455   0.3706   0.3711   0.3946   0.4336   0.4837
     0.5509   0.7575   0.8248   0.8258   0.8828   1.0422   1.0761   1.0774
     1.2612   1.2900   1.3059   1.3138   1.3337   1.4218   1.5305   1.5961
     1.5962   1.6090   1.6380   1.8056   1.8886   1.9175   2.0616   2.0905
     2.1192   2.1344   2.2963   2.5034   2.5216   2.7594   2.7767   6.6131
     7.0061   7.2192   7.2231   7.2714   7.2715   7.8459   8.1999   8.4409
     8.4831   8.5761   8.7210   8.9754   9.3928   9.3979   9.4839   9.4933
     9.5193

          k =-0.5000 0.1320 0.0000 ( 34798 PWs)   bands (ev):

   -35.6408 -35.4853 -23.5212 -22.7004 -22.6910 -22.4956 -17.1282 -16.9884
   -16.8708 -16.7441 -16.6829 -16.5963 -15.1043 -15.0938 -15.0544 -14.6924
   -14.6169 -14.4170 -14.3252 -14.2504 -14.2429 -14.2343 -14.1530 -14.0898
   -14.0332 -13.7949 -13.6934  -8.8855  -8.4512  -8.3932  -8.0180  -8.0059
    -7.8726  -7.8349  -7.8272  -7.7183  -7.7089  -7.5985  -7.5095  -3.1614
    -3.1417  -2.9759  -2.6960  -2.4187  -2.4177  -2.1668  -2.0640  -2.0344
    -1.8671  -1.8064  -1.7627  -1.6705  -1.6693  -1.5753  -1.5141  -1.4854
    -1.4703  -1.3986  -1.3764  -1.1783  -1.1137  -0.9271  -0.9266  -0.9096
    -0.7715  -0.7600  -0.6992  -0.6889  -0.6612  -0.5128  -0.5029  -0.3504
    -0.3486  -0.1321  -0.1137  -0.0018   0.0673   0.0776   0.1235   0.1253
     0.1605   0.2260   0.3838   0.4560   0.4568   0.5308   0.5567   0.6982
     0.7602   0.8249   0.8839   0.9884   1.0458   1.0756   1.1218   1.1591
     1.2209   1.2245   1.3473   1.3509   1.4244   1.4392   1.5677   1.6159
     1.6374   1.6658   1.6719   1.8116   1.8528   2.0442   2.0512   2.1463
     2.6885   2.6968   2.7932   2.9100   2.9383   3.1227   3.1659   6.4500
     7.0275   7.0670   7.0710   7.5740   7.5777   7.7662   8.1125   8.2188
     8.4051   8.5726   8.7697   9.2067   9.3345   9.3732   9.4974   9.5669
     9.6104

          k =-0.5000 0.2640 0.0000 ( 34772 PWs)   bands (ev):

   -35.6365 -35.4810 -23.4783 -22.6495 -22.6401 -22.4461 -17.1062 -16.9665
   -16.8874 -16.7997 -16.7383 -16.6128 -14.9516 -14.9443 -14.8504 -14.5952
   -14.5277 -14.3133 -14.2243 -14.1986 -14.1897 -14.1834 -14.1036 -14.0702
   -14.0191 -13.7898 -13.6958  -8.9455  -8.8179  -8.6780  -8.2870  -8.2776
    -8.1361  -8.1284  -8.0655  -7.9678  -7.9558  -7.8781  -7.8171  -3.4682
    -3.4219  -3.2076  -2.9006  -2.7294  -2.5848  -2.5738  -2.4537  -2.4479
    -2.4329  -2.3194  -2.3164  -2.2974  -2.1287  -1.9645  -1.9056  -1.7435
    -1.6294  -1.5538  -1.2480  -1.1961  -1.1280  -1.0265  -1.0265  -0.9633
    -0.9256  -0.9028  -0.7391  -0.7356  -0.7309  -0.7190  -0.5594  -0.5131
    -0.4526  -0.4492  -0.3811   0.0019   0.0553   0.2777   0.3572   0.4362
     0.6132   0.6667   0.6754   0.7912   0.7955   1.0320   1.0392   1.0874
     1.1113   1.1233   1.1511   1.1755   1.3109   1.3694   1.4097   1.4527
     1.4839   1.4954   1.5859   1.6389   1.6547   1.6996   1.7305   1.7575
     1.7651   1.7695   1.8306   1.8421   1.8818   2.0246   2.0624   2.2385
     2.9216   2.9240   3.5866   3.8059   3.8182   3.9229   4.0146   5.8532
     6.6370   6.6404   7.0035   7.5085   7.7348   7.7687   8.3835   8.3889
     8.7942   8.9752   9.0119   9.3157   9.3486   9.5304   9.5598   9.6150
     9.7431

          k =-0.5000 0.3960 0.0000 ( 34764 PWs)   bands (ev):

   -35.6322 -35.4767 -23.4345 -22.5973 -22.5879 -22.3955 -17.0847 -17.0165
   -16.9451 -16.8671 -16.7241 -16.5375 -14.7684 -14.7640 -14.5801 -14.5068
   -14.4533 -14.2815 -14.2209 -14.2052 -14.1357 -14.1350 -14.0410 -14.0136
   -13.9785 -13.7782 -13.6532  -9.3651  -8.9592  -8.7715  -8.6622  -8.6532
    -8.4443  -8.4241  -8.4165  -8.1427  -8.0457  -8.0330  -7.8762  -3.9397
    -3.8815  -3.6296  -3.4465  -3.3289  -2.9951  -2.9942  -2.7588  -2.7554
    -2.6057  -2.4377  -2.3534  -2.3529  -2.2526  -2.1922  -2.1370  -1.9540
    -1.8300  -1.7647  -1.3561  -1.2920  -1.2836  -1.1648  -1.1501  -1.1068
    -1.0923  -0.9459  -0.9413  -0.8502  -0.8437  -0.7213  -0.7067  -0.6851
    -0.4709  -0.4156  -0.4156   0.0932   0.2154   0.3408   0.4455   0.6651
     0.8739   1.0496   1.0598   1.2291   1.2343   1.2366   1.2457   1.3271
     1.3675   1.4542   1.4983   1.5040   1.5192   1.6350   1.6595   1.6890
     1.7192   1.7407   1.7779   1.8311   1.9058   1.9106   1.9547   1.9652
     2.0059   2.0706   2.0903   2.0983   2.1118   2.1886   2.2631   2.4998
     2.7358   2.7410   4.0559   4.4514   4.4594   4.5151   4.6023   5.2501
     6.1420   6.1452   6.8248   7.1587   7.6496   7.6898   8.5400   8.7489
     8.8677   8.9250   9.3546   9.4321   9.4853   9.5715   9.6584   9.8216
     9.8461

          k =-0.5000-0.5279 0.0000 ( 34796 PWs)   bands (ev):

   -35.6304 -35.4749 -23.4162 -22.5753 -22.5659 -22.3742 -17.0759 -17.0671
   -16.9363 -16.9175 -16.6906 -16.5044 -14.6705 -14.6697 -14.4984 -14.4378
   -14.3906 -14.3276 -14.2459 -14.1586 -14.1144 -14.1115 -14.0929 -13.9998
   -13.9382 -13.7585 -13.6259  -9.5301  -9.0753  -8.8082  -8.7993  -8.7485
    -8.5957  -8.5402  -8.5326  -8.2477  -8.0736  -8.0604  -7.8924  -4.1479
    -4.0887  -3.8373  -3.7063  -3.5293  -3.2195  -3.2185  -2.7912  -2.7879
    -2.6329  -2.4542  -2.3444  -2.3434  -2.3430  -2.2913  -2.1338  -2.0237
    -1.9231  -1.8106  -1.4231  -1.4069  -1.4003  -1.2292  -1.2153  -1.0814
    -1.0609  -1.0403  -1.0397  -0.9505  -0.8764  -0.8243  -0.7057  -0.6564
    -0.4686  -0.3872  -0.3868   0.1285   0.2559   0.3581   0.4697   0.7772
     0.9687   1.1941   1.2320   1.2918   1.2967   1.3044   1.3462   1.3566
     1.3862   1.5681   1.5876   1.7066   1.7258   1.7382   1.7499   1.8282
     1.8351   1.8487   1.9357   1.9701   1.9838   1.9850   2.0268   2.0385
     2.1364   2.2222   2.2421   2.2828   2.2876   2.3658   2.4497   2.4787
     2.4874   2.6493   4.1700   4.6529   4.6626   4.7181   4.7951   5.0081
     5.9151   5.9179   6.7304   7.0547   7.5969   7.6761   8.3610   8.8020
     8.9769   9.0013   9.0254   9.2010   9.3983   9.4738   9.7967   9.8585
    10.0768

     the Fermi energy is     2.5104 ev

!    total energy              =   -1842.84724346 Ry
     Harris-Foulkes estimate   =   -1842.84724346 Ry
     estimated scf accuracy    <          7.7E-13 Ry

     The total energy is the sum of the following terms:

     one-electron contribution =  -28585.72593395 Ry
     hartree contribution      =   14445.30947759 Ry
     xc contribution           =    -621.56871021 Ry
     ewald contribution        =   12919.14544988 Ry
     smearing contrib. (-TS)   =      -0.00752677 Ry

     convergence has been achieved in  29 iterations

     negative rho (up, down):  1.522E-03 0.000E+00

     Forces acting on atoms (cartesian axes, Ry/au):

     atom    1 type  4   force =     0.00000000    0.00000000   -0.00019125
     atom    2 type  3   force =     0.00000000    0.00000000    0.00043327
     atom    3 type  4   force =     0.00000000    0.00000000   -0.00078250
     atom    4 type  1   force =     0.00000000    0.00000000   -0.00027798
     atom    5 type  3   force =     0.00000000    0.00000000    0.00058932
     atom    6 type  4   force =     0.00000000    0.00000000    0.00009544
     atom    7 type  4   force =     0.00000000    0.00000000    0.00033723
     atom    8 type  2   force =     0.00000000    0.00000000   -0.00089690
     atom    9 type  4   force =     0.00000000    0.00000000    0.00059675
     atom   10 type  4   force =     0.00000000    0.00000000    0.00067968
     atom   11 type  3   force =     0.00000000    0.00000000    0.00000767
     atom   12 type  1   force =     0.00000000    0.00000000   -0.00173128
     atom   13 type  4   force =     0.00000000    0.00000000    0.00274856
     atom   14 type  4   force =     0.00000000    0.00000000    0.01352597
     atom   15 type  3   force =     0.00000000    0.00000000   -0.00057711
     atom   16 type  4   force =     0.00000000    0.00000000    0.00544306
     atom   17 type  1   force =     0.00000000    0.00000000    0.00148887
     atom   18 type  3   force =     0.00000000    0.00000000   -0.00483339
     atom   19 type  4   force =     0.00000000    0.00000000   -0.00105132
     atom   20 type  4   force =     0.00000000    0.00000000   -0.00326345
     atom   21 type  2   force =     0.00000000    0.00000000   -0.01284196
     atom   22 type  4   force =     0.00000000    0.00000000   -0.00025037
     atom   23 type  4   force =     0.00000000    0.00000000    0.00108298
     atom   24 type  3   force =     0.00000000    0.00000000   -0.00036933
     atom   25 type  1   force =     0.00000000    0.00000000   -0.00070161
     atom   26 type  4   force =     0.00000000    0.00000000    0.00109595
     atom   27 type  3   force =     0.00000000    0.00000000   -0.00065896
     atom   28 type  4   force =     0.00000000    0.00000000    0.00030266

     Total force =     0.020376     Total SCF correction =     0.000003


     Computing stress (Cartesian axis) and pressure


     negative rho (up, down):  1.522E-03 0.000E+00
          total   stress  (Ry/bohr**3)                   (kbar)     P=       -8.57
  -0.00007914   0.00000000   0.00000000          -11.64        0.00        0.00
   0.00000000  -0.00004126   0.00000000            0.00       -6.07        0.00
   0.00000000   0.00000000  -0.00005428            0.00        0.00       -7.98


     number of scf cycles    =   5
     number of bfgs steps    =   3

     energy   old            =   -1842.8479779293 Ry
     energy   new            =   -1842.8472434630 Ry

     CASE: energy  _new > energy  _old

     new trust radius        =       0.0334845663 bohr
     new conv_thr            =            1.0E-12 Ry


ATOMIC_POSITIONS (angstrom)
O             0.0000000000        1.8611200000       -0.1847874640    0   0   0
Cu            0.0000000000        0.0000000000        0.1040743175    0   0   0
O             0.0000000000        0.0000000000        1.9790535210    0   0   0
Ba            1.9651100000        1.8611200000        2.2384385893    0   0   0
Cu            0.0000000000        0.0000000000        4.0810084217    0   0   0
O             1.9651100000        0.0000000000        4.2359388277    0   0   0
O             0.0000000000        1.8611200000        4.3731832057    0   0   0
Ca            1.9651100000        1.8611200000        5.8913390373    0   0   0
O             0.0000000000        1.8611200000        7.3434049748    0   0   0
O             1.9651100000        0.0000000000        7.4915492308    0   0   0
Cu            0.0000000000        0.0000000000        7.6758162231    0   0   0
Ba            1.9651100000        1.8611200000        9.5574314405    0   0   0
O             0.0000000000        0.0000000000        9.8798436272    0   0   0
O             0.0000000000        1.8449451727       11.7575229576
Cu            0.0000000000        0.0000000000       11.7504778719
O             0.0000000000        0.0000000000       13.6469615794
Ba            1.9651100000        1.8772948273       13.9657507565
Cu            0.0000000000        0.0000000000       17.0556094360
O             1.9651100000        0.0000000000       17.2576185823
O             0.0000000000        1.8772948273       17.3886426900
Ca            1.9651100000        1.8449451727       18.8363230611
O             0.0000000000        1.8611200000       20.3761989842    0   0   0
O             1.9651100000        0.0000000000       20.5134433622    0   0   0
Cu            0.0000000000        0.0000000000       20.6683837773    0   0   0
Ba            1.9651100000        1.8611200000       22.5109436006    0   0   0
O             0.0000000000        0.0000000000       22.7702886326    0   0   0
Cu            0.0000000000        0.0000000000       24.6452878542    0   0   0
O             0.0000000000        1.8611200000       24.9340995904    0   0   0



 %%%%%%%%%%%%%%%%%%%%%%%%%%%%%%%%%%%%%%%%%%%%%%%%%%%%%%%%%%%%%%%%%%%%%%%%%%%%%%
     Error in routine checkallsym (1):
     some of the original symmetry operations not satisfied
 %%%%%%%%%%%%%%%%%%%%%%%%%%%%%%%%%%%%%%%%%%%%%%%%%%%%%%%%%%%%%%%%%%%%%%%%%%%%%%

     stopping ...
