
     Program PWSCF v.6.5 starts on  9Jul2021 at 12:44: 5 

     This program is part of the open-source Quantum ESPRESSO suite
     for quantum simulation of materials; please cite
         "P. Giannozzi et al., J. Phys.:Condens. Matter 21 395502 (2009);
         "P. Giannozzi et al., J. Phys.:Condens. Matter 29 465901 (2017);
          URL http://www.quantum-espresso.org", 
     in publications or presentations arising from this work. More details at
     http://www.quantum-espresso.org/quote

     Parallel version (MPI), running on    20 processors

     MPI processes distributed on     2 nodes
     R & G space division:  proc/nbgrp/npool/nimage =      20
     Reading input from CBCO_Y_cleave_0.5_sep.pwi
Warning: card &CELL ignored
Warning: card     CELL_DYNAMICS = 'BFGS' ignored
Warning: card     PRESS_CONV_THR = 0.5 ignored
Warning: card / ignored

     Current dimensions of program PWSCF are:
     Max number of different atomic species (ntypx) = 10
     Max number of k-points (npk) =  40000
     Max angular momentum in pseudopotentials (lmaxx) =  3

     Subspace diagonalization in iterative solution of the eigenvalue problem:
     one sub-group per band group will be used
     scalapack distributed-memory algorithm (size of sub-group:  4*  4 procs)

     Message from routine setup:
     using ibrav=0 with symmetry is DISCOURAGED, use correct ibrav instead
 
     Parallelization info
     --------------------
     sticks:   dense  smooth     PW     G-vecs:    dense   smooth      PW
     Min         149      50     14                70963    13664    2134
     Max         150      51     15                71000    13687    2179
     Sum        2991    1007    289              1419661   273473   42977
 


     bravais-lattice index     =            0
     lattice parameter (alat)  =       7.4270  a.u.
     unit-cell volume          =    4351.6708 (a.u.)^3
     number of atoms/cell      =           28
     number of atomic types    =            4
     number of electrons       =       227.00
     number of Kohn-Sham states=          137
     kinetic-energy cutoff     =      60.0000  Ry
     charge density cutoff     =     720.0000  Ry
     convergence threshold     =      1.0E-10
     mixing beta               =       0.7000
     number of iterations used =           10  local-TF  mixing
     Exchange-correlation= SLA PW PBE PBE
                           (   1   4   3   4   0   0   0)
     nstep                     =          300


     celldm(1)=   7.427040  celldm(2)=   0.000000  celldm(3)=   0.000000
     celldm(4)=   0.000000  celldm(5)=   0.000000  celldm(6)=   0.000000

     crystal axes: (cart. coord. in units of alat)
               a(1) = (   1.000000   0.000000   0.000000 )  
               a(2) = (   0.000000   0.947081   0.000000 )  
               a(3) = (   0.000000   0.000000  11.215576 )  

     reciprocal axes: (cart. coord. in units 2 pi/alat)
               b(1) = (  1.000000  0.000000  0.000000 )  
               b(2) = (  0.000000  1.055876  0.000000 )  
               b(3) = (  0.000000  0.000000  0.089162 )  


     PseudoPot. # 1 for Ba read from file:
     ./pseudo/Ba.pbe-nsp-van.UPF
     MD5 check sum: 2b9c31dd849566dd297d80989662b7a0
     Pseudo is Ultrasoft + core correction, Zval = 10.0
     Generated by new atomic code, or converted to UPF format
     Using radial grid of  907 points,  6 beta functions with: 
                l(1) =   0
                l(2) =   0
                l(3) =   1
                l(4) =   1
                l(5) =   2
                l(6) =   2
     Q(r) pseudized with  6 coefficients,  rinner =    1.200   1.200   1.200
                                                       1.200   1.200

     PseudoPot. # 2 for Ca read from file:
     ./pseudo/Ca.pbe-nsp-van.UPF
     MD5 check sum: 6471098428ff4fa451746d08035ff179
     Pseudo is Ultrasoft + core correction, Zval = 10.0
     Generated by new atomic code, or converted to UPF format
     Using radial grid of  845 points,  6 beta functions with: 
                l(1) =   0
                l(2) =   0
                l(3) =   1
                l(4) =   1
                l(5) =   2
                l(6) =   2
     Q(r) pseudized with  6 coefficients,  rinner =    1.200   1.200   1.200
                                                       1.200   1.200

     PseudoPot. # 3 for Cu read from file:
     ./pseudo/Cu.pbe-n-van_ak.UPF
     MD5 check sum: 34e3282627ffb533726feb647e090d62
     Pseudo is Ultrasoft + core correction, Zval = 11.0
     Generated by new atomic code, or converted to UPF format
     Using radial grid of  867 points,  6 beta functions with: 
                l(1) =   0
                l(2) =   0
                l(3) =   1
                l(4) =   1
                l(5) =   2
                l(6) =   2
     Q(r) pseudized with  8 coefficients,  rinner =    1.400   1.400   1.400
                                                       1.400   1.400

     PseudoPot. # 4 for O  read from file:
     ./pseudo/O.pbe-van_ak.UPF
     MD5 check sum: 783ce7fe4c79b6a4916957118fed0856
     Pseudo is Ultrasoft, Zval =  6.0
     Generated by new atomic code, or converted to UPF format
     Using radial grid of  737 points,  4 beta functions with: 
                l(1) =   0
                l(2) =   0
                l(3) =   1
                l(4) =   1
     Q(r) pseudized with  8 coefficients,  rinner =    0.800   0.800   0.800


     atomic species   valence    mass     pseudopotential
        Ba            10.00   137.32700     Ba( 1.00)
        Ca            10.00    40.07800     Ca( 1.00)
        Cu            11.00    63.54600     Cu( 1.00)
        O              6.00    15.99900     O ( 1.00)

      4 Sym. Ops. (no inversion) found



   Cartesian axes

     site n.     atom                  positions (alat units)
         1           O   tau(   1) = (   0.0000000   0.4735409  -0.0469745  )
         2           Cu  tau(   2) = (   0.0000000   0.0000000   0.0264565  )
         3           O   tau(   3) = (   0.0000000   0.0000000   0.5030914  )
         4           Ba  tau(   4) = (   0.5000000   0.4735409   0.5690292  )
         5           Cu  tau(   5) = (   0.0000000   0.0000000   1.0374254  )
         6           O   tau(   6) = (   0.5000000   0.0000000   1.0768099  )
         7           O   tau(   7) = (   0.0000000   0.4735409   1.1116985  )
         8           Ca  tau(   8) = (   0.5000000   0.4735409   1.4976260  )
         9           O   tau(   9) = (   0.0000000   0.4735409   1.8667529  )
        10           O   tau(  10) = (   0.5000000   0.0000000   1.9044124  )
        11           Cu  tau(  11) = (   0.0000000   0.0000000   1.9512546  )
        12           Ba  tau(  12) = (   0.5000000   0.4735409   2.4295764  )
        13           O   tau(  13) = (   0.0000000   0.0000000   2.5115362  )
        14           O   tau(  14) = (   0.0000000   0.4735409   2.9918528  )
        15           Cu  tau(  15) = (   0.0000000   0.0000000   2.9919088  )
        16           O   tau(  16) = (   0.0000000   0.0000000   3.4468248  )
        17           Ba  tau(  17) = (   0.5000000   0.4735409   3.5287769  )
        18           Cu  tau(  18) = (   0.0000000   0.0000000   4.0579686  )
        19           O   tau(  19) = (   0.5000000   0.0000000   4.1048108  )
        20           O   tau(  20) = (   0.0000000   0.4735409   4.0915774  )
        21           Ca  tau(  21) = (   0.5000000   0.4735409   4.4607145  )
        22           O   tau(  22) = (   0.0000000   0.4735409   5.0247465  )
        23           O   tau(  23) = (   0.5000000   0.0000000   5.0596352  )
        24           Cu  tau(  24) = (   0.0000000   0.0000000   5.0481345  )
        25           Ba  tau(  25) = (   0.5000000   0.4735409   5.5419720  )
        26           O   tau(  26) = (   0.0000000   0.0000000   5.6078996  )
        27           Cu  tau(  27) = (   0.0000000   0.0000000   6.0845396  )
        28           O   tau(  28) = (   0.0000000   0.4735409   6.1579579  )

     number of k points=    25  Gaussian smearing, width (Ry)=  0.0100
                       cart. coord. in units 2pi/alat
        k(    1) = (   0.0000000   0.0000000   0.0000000), wk =   0.0312500
        k(    2) = (   0.0000000   0.1319845   0.0000000), wk =   0.0625000
        k(    3) = (   0.0000000   0.2639689   0.0000000), wk =   0.0625000
        k(    4) = (   0.0000000   0.3959534   0.0000000), wk =   0.0625000
        k(    5) = (   0.0000000  -0.5279378   0.0000000), wk =   0.0312500
        k(    6) = (   0.1250000   0.0000000   0.0000000), wk =   0.0625000
        k(    7) = (   0.1250000   0.1319845   0.0000000), wk =   0.1250000
        k(    8) = (   0.1250000   0.2639689   0.0000000), wk =   0.1250000
        k(    9) = (   0.1250000   0.3959534   0.0000000), wk =   0.1250000
        k(   10) = (   0.1250000  -0.5279378   0.0000000), wk =   0.0625000
        k(   11) = (   0.2500000   0.0000000   0.0000000), wk =   0.0625000
        k(   12) = (   0.2500000   0.1319845   0.0000000), wk =   0.1250000
        k(   13) = (   0.2500000   0.2639689   0.0000000), wk =   0.1250000
        k(   14) = (   0.2500000   0.3959534   0.0000000), wk =   0.1250000
        k(   15) = (   0.2500000  -0.5279378   0.0000000), wk =   0.0625000
        k(   16) = (   0.3750000   0.0000000   0.0000000), wk =   0.0625000
        k(   17) = (   0.3750000   0.1319845   0.0000000), wk =   0.1250000
        k(   18) = (   0.3750000   0.2639689   0.0000000), wk =   0.1250000
        k(   19) = (   0.3750000   0.3959534   0.0000000), wk =   0.1250000
        k(   20) = (   0.3750000  -0.5279378   0.0000000), wk =   0.0625000
        k(   21) = (  -0.5000000   0.0000000   0.0000000), wk =   0.0312500
        k(   22) = (  -0.5000000   0.1319845   0.0000000), wk =   0.0625000
        k(   23) = (  -0.5000000   0.2639689   0.0000000), wk =   0.0625000
        k(   24) = (  -0.5000000   0.3959534   0.0000000), wk =   0.0625000
        k(   25) = (  -0.5000000  -0.5279378   0.0000000), wk =   0.0312500

     Dense  grid:  1419661 G-vectors     FFT dimensions: (  64,  64, 720)

     Smooth grid:   273473 G-vectors     FFT dimensions: (  40,  36, 432)

     Estimated max dynamical RAM per process >     453.21 MB

     Estimated total dynamical RAM >       8.85 GB

     Initial potential from superposition of free atoms

     starting charge  226.84630, renormalised to  227.00000

     negative rho (up, down):  3.516E-03 0.000E+00
     Starting wfcs are  195 randomized atomic wfcs

     total cpu time spent up to now is       95.8 secs

     Self-consistent Calculation

     iteration #  1     ecut=    60.00 Ry     beta= 0.70
     Davidson diagonalization with overlap
     ethr =  1.00E-02,  avg # of iterations =  2.0

     negative rho (up, down):  2.872E-04 0.000E+00

     total cpu time spent up to now is      120.4 secs

     total energy              =   -1839.51270126 Ry
     Harris-Foulkes estimate   =   -1845.34186029 Ry
     estimated scf accuracy    <      17.81949825 Ry

     iteration #  2     ecut=    60.00 Ry     beta= 0.70
     Davidson diagonalization with overlap
     ethr =  7.85E-03,  avg # of iterations =  2.0

     negative rho (up, down):  2.623E-04 0.000E+00

     total cpu time spent up to now is      135.7 secs

     total energy              =   -1842.02499590 Ry
     Harris-Foulkes estimate   =   -1843.90362279 Ry
     estimated scf accuracy    <      13.50375399 Ry

     iteration #  3     ecut=    60.00 Ry     beta= 0.70
     Davidson diagonalization with overlap
     ethr =  5.95E-03,  avg # of iterations =  1.4

     negative rho (up, down):  2.464E-04 0.000E+00

     total cpu time spent up to now is      148.7 secs

     total energy              =   -1842.65416433 Ry
     Harris-Foulkes estimate   =   -1843.07096647 Ry
     estimated scf accuracy    <       3.76659980 Ry

     iteration #  4     ecut=    60.00 Ry     beta= 0.70
     Davidson diagonalization with overlap
     ethr =  1.66E-03,  avg # of iterations =  1.4

     negative rho (up, down):  2.407E-04 0.000E+00

     total cpu time spent up to now is      161.7 secs

     total energy              =   -1842.79280009 Ry
     Harris-Foulkes estimate   =   -1842.99785721 Ry
     estimated scf accuracy    <       6.96835449 Ry

     iteration #  5     ecut=    60.00 Ry     beta= 0.70
     Davidson diagonalization with overlap
     ethr =  1.66E-03,  avg # of iterations =  1.0

     negative rho (up, down):  2.368E-04 0.000E+00

     total cpu time spent up to now is      174.5 secs

     total energy              =   -1842.85784738 Ry
     Harris-Foulkes estimate   =   -1842.88396963 Ry
     estimated scf accuracy    <       0.78447891 Ry

     iteration #  6     ecut=    60.00 Ry     beta= 0.70
     Davidson diagonalization with overlap
     ethr =  3.46E-04,  avg # of iterations =  2.4

     negative rho (up, down):  2.347E-04 0.000E+00

     total cpu time spent up to now is      188.5 secs

     total energy              =   -1842.85887254 Ry
     Harris-Foulkes estimate   =   -1842.87182334 Ry
     estimated scf accuracy    <       1.20355691 Ry

     iteration #  7     ecut=    60.00 Ry     beta= 0.70
     Davidson diagonalization with overlap
     ethr =  3.46E-04,  avg # of iterations =  1.2

     negative rho (up, down):  2.344E-04 0.000E+00

     total cpu time spent up to now is      201.6 secs

     total energy              =   -1842.85626557 Ry
     Harris-Foulkes estimate   =   -1842.86844621 Ry
     estimated scf accuracy    <       1.28111192 Ry

     iteration #  8     ecut=    60.00 Ry     beta= 0.70
     Davidson diagonalization with overlap
     ethr =  3.46E-04,  avg # of iterations =  1.2

     negative rho (up, down):  2.342E-04 0.000E+00

     total cpu time spent up to now is      214.9 secs

     total energy              =   -1842.85610023 Ry
     Harris-Foulkes estimate   =   -1842.86151293 Ry
     estimated scf accuracy    <       0.56709414 Ry

     iteration #  9     ecut=    60.00 Ry     beta= 0.70
     Davidson diagonalization with overlap
     ethr =  2.50E-04,  avg # of iterations =  2.4

     negative rho (up, down):  2.337E-04 0.000E+00

     total cpu time spent up to now is      229.0 secs

     total energy              =   -1842.85034094 Ry
     Harris-Foulkes estimate   =   -1842.85789388 Ry
     estimated scf accuracy    <       0.35240931 Ry

     iteration # 10     ecut=    60.00 Ry     beta= 0.70
     Davidson diagonalization with overlap
     ethr =  1.55E-04,  avg # of iterations =  4.8

     negative rho (up, down):  2.337E-04 0.000E+00

     total cpu time spent up to now is      245.4 secs

     total energy              =   -1842.84854508 Ry
     Harris-Foulkes estimate   =   -1842.85238895 Ry
     estimated scf accuracy    <       0.11789478 Ry

     iteration # 11     ecut=    60.00 Ry     beta= 0.70
     Davidson diagonalization with overlap
     ethr =  5.19E-05,  avg # of iterations =  8.1

     negative rho (up, down):  2.341E-04 0.000E+00

     total cpu time spent up to now is      265.4 secs

     total energy              =   -1842.84774384 Ry
     Harris-Foulkes estimate   =   -1842.84959646 Ry
     estimated scf accuracy    <       0.09320256 Ry

     iteration # 12     ecut=    60.00 Ry     beta= 0.70
     Davidson diagonalization with overlap
     ethr =  4.11E-05,  avg # of iterations =  2.0

     negative rho (up, down):  2.596E-04 0.000E+00

     total cpu time spent up to now is      279.1 secs

     total energy              =   -1842.84653672 Ry
     Harris-Foulkes estimate   =   -1842.84839143 Ry
     estimated scf accuracy    <       0.09256063 Ry

     iteration # 13     ecut=    60.00 Ry     beta= 0.70
     Davidson diagonalization with overlap
     ethr =  4.08E-05,  avg # of iterations =  1.4

     negative rho (up, down):  3.646E-03 0.000E+00

     total cpu time spent up to now is      292.2 secs

     total energy              =   -1842.84506820 Ry
     Harris-Foulkes estimate   =   -1842.84707838 Ry
     estimated scf accuracy    <       0.07031167 Ry

     iteration # 14     ecut=    60.00 Ry     beta= 0.70
     Davidson diagonalization with overlap
     ethr =  3.10E-05,  avg # of iterations =  3.1

     negative rho (up, down):  9.379E-03 0.000E+00

     total cpu time spent up to now is      306.9 secs

     total energy              =   -1842.84381969 Ry
     Harris-Foulkes estimate   =   -1842.84551795 Ry
     estimated scf accuracy    <       0.04655353 Ry

     iteration # 15     ecut=    60.00 Ry     beta= 0.70
     Davidson diagonalization with overlap
     ethr =  2.05E-05,  avg # of iterations =  5.7

     negative rho (up, down):  1.187E-02 0.000E+00

     total cpu time spent up to now is      324.3 secs

     total energy              =   -1842.84270608 Ry
     Harris-Foulkes estimate   =   -1842.84415739 Ry
     estimated scf accuracy    <       0.02614577 Ry

     iteration # 16     ecut=    60.00 Ry     beta= 0.70
     Davidson diagonalization with overlap
     ethr =  1.15E-05,  avg # of iterations =  6.0

     negative rho (up, down):  1.947E-02 0.000E+00

     total cpu time spent up to now is      342.0 secs

     total energy              =   -1842.84225825 Ry
     Harris-Foulkes estimate   =   -1842.84304613 Ry
     estimated scf accuracy    <       0.00955760 Ry

     iteration # 17     ecut=    60.00 Ry     beta= 0.70
     Davidson diagonalization with overlap
     ethr =  4.21E-06,  avg # of iterations =  8.7

     negative rho (up, down):  1.665E-02 0.000E+00

     total cpu time spent up to now is      363.3 secs

     total energy              =   -1842.84194637 Ry
     Harris-Foulkes estimate   =   -1842.84249335 Ry
     estimated scf accuracy    <       0.00624707 Ry

     iteration # 18     ecut=    60.00 Ry     beta= 0.70
     Davidson diagonalization with overlap
     ethr =  2.75E-06,  avg # of iterations =  5.9

     negative rho (up, down):  1.129E-02 0.000E+00

     total cpu time spent up to now is      381.2 secs

     total energy              =   -1842.84155701 Ry
     Harris-Foulkes estimate   =   -1842.84203970 Ry
     estimated scf accuracy    <       0.00449472 Ry

     iteration # 19     ecut=    60.00 Ry     beta= 0.70
     Davidson diagonalization with overlap
     ethr =  1.98E-06,  avg # of iterations =  8.2

     negative rho (up, down):  1.055E-02 0.000E+00

     total cpu time spent up to now is      401.8 secs

     total energy              =   -1842.84159102 Ry
     Harris-Foulkes estimate   =   -1842.84161225 Ry
     estimated scf accuracy    <       0.00209066 Ry

     iteration # 20     ecut=    60.00 Ry     beta= 0.70
     Davidson diagonalization with overlap
     ethr =  9.21E-07,  avg # of iterations =  7.4

     negative rho (up, down):  4.958E-03 0.000E+00

     total cpu time spent up to now is      421.5 secs

     total energy              =   -1842.84145761 Ry
     Harris-Foulkes estimate   =   -1842.84166335 Ry
     estimated scf accuracy    <       0.00081381 Ry

     iteration # 21     ecut=    60.00 Ry     beta= 0.70
     Davidson diagonalization with overlap
     c_bands:  1 eigenvalues not converged
     ethr =  3.59E-07,  avg # of iterations =  8.2

     negative rho (up, down):  1.180E-03 0.000E+00

     total cpu time spent up to now is      442.2 secs

     total energy              =   -1842.84148628 Ry
     Harris-Foulkes estimate   =   -1842.84148799 Ry
     estimated scf accuracy    <       0.00026571 Ry

     iteration # 22     ecut=    60.00 Ry     beta= 0.70
     Davidson diagonalization with overlap
     c_bands:  1 eigenvalues not converged
     c_bands:  1 eigenvalues not converged
     ethr =  1.17E-07,  avg # of iterations =  8.6

     negative rho (up, down):  7.717E-04 0.000E+00

     total cpu time spent up to now is      462.9 secs

     total energy              =   -1842.84150179 Ry
     Harris-Foulkes estimate   =   -1842.84149361 Ry
     estimated scf accuracy    <       0.00008847 Ry

     iteration # 23     ecut=    60.00 Ry     beta= 0.70
     Davidson diagonalization with overlap
     c_bands:  1 eigenvalues not converged
     ethr =  3.90E-08,  avg # of iterations =  5.1

     negative rho (up, down):  1.106E-03 0.000E+00

     total cpu time spent up to now is      479.6 secs

     total energy              =   -1842.84150096 Ry
     Harris-Foulkes estimate   =   -1842.84150496 Ry
     estimated scf accuracy    <       0.00007715 Ry

     iteration # 24     ecut=    60.00 Ry     beta= 0.70
     Davidson diagonalization with overlap
     ethr =  3.40E-08,  avg # of iterations =  1.7

     negative rho (up, down):  1.230E-03 0.000E+00

     total cpu time spent up to now is      492.9 secs

     total energy              =   -1842.84150360 Ry
     Harris-Foulkes estimate   =   -1842.84150361 Ry
     estimated scf accuracy    <       0.00002949 Ry

     iteration # 25     ecut=    60.00 Ry     beta= 0.70
     Davidson diagonalization with overlap
     ethr =  1.30E-08,  avg # of iterations =  1.0

     negative rho (up, down):  1.464E-03 0.000E+00

     total cpu time spent up to now is      505.7 secs

     total energy              =   -1842.84150406 Ry
     Harris-Foulkes estimate   =   -1842.84150398 Ry
     estimated scf accuracy    <       0.00000965 Ry

     iteration # 26     ecut=    60.00 Ry     beta= 0.70
     Davidson diagonalization with overlap
     ethr =  4.25E-09,  avg # of iterations =  1.4

     negative rho (up, down):  1.517E-03 0.000E+00

     total cpu time spent up to now is      519.2 secs

     total energy              =   -1842.84150426 Ry
     Harris-Foulkes estimate   =   -1842.84150450 Ry
     estimated scf accuracy    <       0.00000354 Ry

     iteration # 27     ecut=    60.00 Ry     beta= 0.70
     Davidson diagonalization with overlap
     ethr =  1.56E-09,  avg # of iterations =  2.4

     negative rho (up, down):  1.532E-03 0.000E+00

     total cpu time spent up to now is      533.4 secs

     total energy              =   -1842.84150435 Ry
     Harris-Foulkes estimate   =   -1842.84150441 Ry
     estimated scf accuracy    <       0.00000108 Ry

     iteration # 28     ecut=    60.00 Ry     beta= 0.70
     Davidson diagonalization with overlap
     ethr =  4.75E-10,  avg # of iterations =  2.4

     negative rho (up, down):  1.585E-03 0.000E+00

     total cpu time spent up to now is      547.6 secs

     total energy              =   -1842.84150433 Ry
     Harris-Foulkes estimate   =   -1842.84150440 Ry
     estimated scf accuracy    <       0.00000049 Ry

     iteration # 29     ecut=    60.00 Ry     beta= 0.70
     Davidson diagonalization with overlap
     ethr =  2.16E-10,  avg # of iterations =  1.6

     negative rho (up, down):  1.557E-03 0.000E+00

     total cpu time spent up to now is      561.2 secs

     total energy              =   -1842.84150436 Ry
     Harris-Foulkes estimate   =   -1842.84150435 Ry
     estimated scf accuracy    <       0.00000022 Ry

     iteration # 30     ecut=    60.00 Ry     beta= 0.70
     Davidson diagonalization with overlap
     ethr =  9.62E-11,  avg # of iterations =  1.6

     negative rho (up, down):  1.532E-03 0.000E+00

     total cpu time spent up to now is      574.7 secs

     total energy              =   -1842.84150439 Ry
     Harris-Foulkes estimate   =   -1842.84150437 Ry
     estimated scf accuracy    <       0.00000013 Ry

     iteration # 31     ecut=    60.00 Ry     beta= 0.70
     Davidson diagonalization with overlap
     ethr =  5.62E-11,  avg # of iterations =  1.1

     negative rho (up, down):  1.539E-03 0.000E+00

     total cpu time spent up to now is      587.7 secs

     total energy              =   -1842.84150439 Ry
     Harris-Foulkes estimate   =   -1842.84150440 Ry
     estimated scf accuracy    <       0.00000009 Ry

     iteration # 32     ecut=    60.00 Ry     beta= 0.70
     Davidson diagonalization with overlap
     ethr =  3.82E-11,  avg # of iterations =  1.0

     negative rho (up, down):  1.529E-03 0.000E+00

     total cpu time spent up to now is      600.6 secs

     total energy              =   -1842.84150440 Ry
     Harris-Foulkes estimate   =   -1842.84150439 Ry
     estimated scf accuracy    <       0.00000002 Ry

     iteration # 33     ecut=    60.00 Ry     beta= 0.70
     Davidson diagonalization with overlap
     ethr =  8.97E-12,  avg # of iterations =  3.0

     negative rho (up, down):  1.525E-03 0.000E+00

     total cpu time spent up to now is      615.8 secs

     total energy              =   -1842.84150441 Ry
     Harris-Foulkes estimate   =   -1842.84150440 Ry
     estimated scf accuracy    <          9.9E-09 Ry

     iteration # 34     ecut=    60.00 Ry     beta= 0.70
     Davidson diagonalization with overlap
     ethr =  4.35E-12,  avg # of iterations =  1.2

     negative rho (up, down):  1.523E-03 0.000E+00

     total cpu time spent up to now is      628.8 secs

     total energy              =   -1842.84150441 Ry
     Harris-Foulkes estimate   =   -1842.84150441 Ry
     estimated scf accuracy    <          4.1E-09 Ry

     iteration # 35     ecut=    60.00 Ry     beta= 0.70
     Davidson diagonalization with overlap
     ethr =  1.80E-12,  avg # of iterations =  1.6

     negative rho (up, down):  1.523E-03 0.000E+00

     total cpu time spent up to now is      642.2 secs

     total energy              =   -1842.84150441 Ry
     Harris-Foulkes estimate   =   -1842.84150441 Ry
     estimated scf accuracy    <          9.3E-10 Ry

     iteration # 36     ecut=    60.00 Ry     beta= 0.70
     Davidson diagonalization with overlap
     ethr =  4.08E-13,  avg # of iterations =  3.1

     negative rho (up, down):  1.524E-03 0.000E+00

     total cpu time spent up to now is      657.8 secs

     total energy              =   -1842.84150441 Ry
     Harris-Foulkes estimate   =   -1842.84150441 Ry
     estimated scf accuracy    <          5.2E-10 Ry

     iteration # 37     ecut=    60.00 Ry     beta= 0.70
     Davidson diagonalization with overlap
     ethr =  2.28E-13,  avg # of iterations =  1.2

     negative rho (up, down):  1.523E-03 0.000E+00

     total cpu time spent up to now is      671.0 secs

     total energy              =   -1842.84150441 Ry
     Harris-Foulkes estimate   =   -1842.84150441 Ry
     estimated scf accuracy    <          4.6E-10 Ry

     iteration # 38     ecut=    60.00 Ry     beta= 0.70
     Davidson diagonalization with overlap
     ethr =  2.01E-13,  avg # of iterations =  1.0

     negative rho (up, down):  1.523E-03 0.000E+00

     total cpu time spent up to now is      683.9 secs

     total energy              =   -1842.84150441 Ry
     Harris-Foulkes estimate   =   -1842.84150441 Ry
     estimated scf accuracy    <          2.3E-10 Ry

     iteration # 39     ecut=    60.00 Ry     beta= 0.70
     Davidson diagonalization with overlap
     ethr =  1.03E-13,  avg # of iterations =  1.0

     negative rho (up, down):  1.523E-03 0.000E+00

     total cpu time spent up to now is      696.7 secs

     total energy              =   -1842.84150441 Ry
     Harris-Foulkes estimate   =   -1842.84150441 Ry
     estimated scf accuracy    <          1.0E-10 Ry

     iteration # 40     ecut=    60.00 Ry     beta= 0.70
     Davidson diagonalization with overlap
     ethr =  1.00E-13,  avg # of iterations =  1.0

     negative rho (up, down):  1.524E-03 0.000E+00

     total cpu time spent up to now is      709.1 secs

     End of self-consistent calculation

          k = 0.0000 0.0000 0.0000 ( 34267 PWs)   bands (ev):

   -36.6328 -35.5297 -22.7395 -22.7163 -22.4856 -22.2608 -17.8720 -17.6744
   -17.6482 -17.0346 -16.5806 -16.5694 -15.2470 -15.1877 -14.9639 -14.9085
   -14.6196 -14.5162 -14.4551 -14.1436 -14.1300 -13.9333 -13.9287 -13.7690
   -13.7497 -13.7157 -13.5987  -7.9357  -7.8708  -7.8333  -7.7181  -7.6738
    -7.6403  -7.5828  -7.5271  -7.3730  -7.3615  -7.3466  -7.1835  -2.3037
    -2.2782  -1.9660  -1.8264  -1.7777  -1.7363  -1.7049  -1.6144  -1.4817
    -1.4255  -1.2260  -1.2195  -1.1697  -1.1688  -1.1688  -1.1504  -0.9450
    -0.9200  -0.7581  -0.4072  -0.3255  -0.3021  -0.2597  -0.2484  -0.2142
    -0.2133  -0.2113  -0.2049  -0.1864  -0.1833  -0.1598  -0.1595  -0.1076
    -0.0683  -0.0043  -0.0019   0.0141   0.0897   0.1387   0.1469   0.1494
     0.1505   0.1506   0.2264   0.2299   0.2672   0.3739   0.3751   0.3793
     0.6361   0.6835   0.8299   0.8596   0.9334   0.9913   1.0078   1.0168
     1.1150   1.1708   1.2369   1.3198   1.4015   1.4286   1.5243   1.5742
     1.5777   1.6736   1.6874   1.7726   1.8832   2.0834   2.0854   2.1036
     2.1296   2.2384   2.2638   2.3239   2.3362   2.5601   2.5873   5.1920
     5.2691   5.4924   5.9962   6.3747   6.8160   6.9983   7.3126   7.3756
     8.0016   8.0434   8.2108   8.3731   8.6058   8.6261   8.8215   8.8716
     8.8831

          k = 0.0000 0.1320 0.0000 ( 34203 PWs)   bands (ev):

   -36.6311 -35.5279 -22.7128 -22.6921 -22.4602 -22.2329 -17.8728 -17.6778
   -17.6722 -16.9984 -16.6420 -16.5783 -15.1583 -15.1195 -14.9127 -14.8562
   -14.6246 -14.4889 -14.4249 -14.1519 -14.1394 -13.9724 -13.9346 -13.8103
   -13.8046 -13.7445 -13.6540  -7.9277  -7.8703  -7.7855  -7.6835  -7.6757
    -7.6745  -7.6329  -7.4820  -7.4084  -7.3550  -7.3239  -7.2186  -2.3459
    -2.3287  -2.1177  -2.0875  -2.0094  -1.9997  -1.8038  -1.7241  -1.7062
    -1.5942  -1.5930  -1.5820  -1.4639  -1.3360  -1.2394  -1.1814  -1.1279
    -0.8692  -0.8083  -0.5859  -0.5751  -0.5356  -0.5046  -0.4324  -0.4099
    -0.3780  -0.2781  -0.2370  -0.2319  -0.2289  -0.1679  -0.1181  -0.0964
    -0.0874  -0.0631   0.0108   0.0355   0.0589   0.1212   0.1740   0.1910
     0.2015   0.2369   0.2370   0.3031   0.3301   0.3556   0.4262   0.6708
     0.7158   0.8185   0.8271   0.9749   1.0721   1.0961   1.1305   1.1942
     1.2250   1.2401   1.2445   1.3806   1.4625   1.5124   1.5404   1.5819
     1.6145   1.6263   1.7381   1.7586   1.8746   1.9507   2.0278   2.0916
     2.0942   2.1032   2.1681   2.4879   2.8569   2.8703   2.9490   5.5461
     5.6446   5.7877   6.2502   6.6382   7.1195   7.3181   7.5804   7.6415
     8.1752   8.2145   8.3783   8.5688   8.6647   8.7379   8.8346   8.8839
     9.0568

          k = 0.0000 0.2640 0.0000 ( 34079 PWs)   bands (ev):

   -36.6267 -35.5235 -22.6469 -22.6324 -22.3977 -22.1640 -17.9085 -17.7107
   -17.6670 -16.9062 -16.7964 -16.5727 -14.9589 -14.9416 -14.7862 -14.7163
   -14.6721 -14.4271 -14.3751 -14.1984 -14.1265 -14.0461 -13.9749 -13.9425
   -13.9206 -13.8119 -13.7520  -7.9137  -7.8699  -7.7730  -7.7567  -7.6650
    -7.6633  -7.5651  -7.5097  -7.3744  -7.3688  -7.2943  -7.1999  -2.8429
    -2.7797  -2.7079  -2.6082  -2.5582  -2.3772  -2.3061  -2.2598  -2.2297
    -1.9889  -1.7572  -1.7339  -1.5409  -1.4293  -1.4077  -1.3343  -1.2132
    -1.0726  -0.9517  -0.9243  -0.9218  -0.8371  -0.7558  -0.6905  -0.6788
    -0.6628  -0.6001  -0.4793  -0.4687  -0.4457  -0.4453  -0.3747  -0.2638
    -0.2411  -0.1247   0.0286   0.0638   0.0896   0.1465   0.1933   0.2659
     0.2662   0.2882   0.4056   0.4300   0.6447   0.6722   0.7498   0.8661
     0.9152   0.9417   1.0235   1.1587   1.1827   1.2021   1.2158   1.2549
     1.2626   1.3307   1.3456   1.4271   1.4538   1.6238   1.6356   1.6533
     1.7176   1.7244   1.8733   2.0044   2.0097   2.0248   2.0254   2.0523
     2.1242   2.1425   2.2051   2.6230   3.0927   3.1479   3.8721   6.1978
     6.5381   6.6251   6.8227   7.3674   7.9393   8.0443   8.3233   8.3551
     8.4741   8.4901   8.7012   8.7355   8.8306   8.9542   9.0256   9.2166
     9.3761

          k = 0.0000 0.3960 0.0000 ( 34048 PWs)   bands (ev):

   -36.6224 -35.5190 -22.5787 -22.5709 -22.3331 -22.0925 -17.9817 -17.7002
   -17.6618 -16.9327 -16.8045 -16.5670 -14.8827 -14.7258 -14.6841 -14.6273
   -14.5448 -14.3883 -14.3442 -14.2942 -14.0985 -14.0756 -14.0496 -14.0391
   -14.0368 -13.9137 -13.8181  -7.9222  -7.8698  -7.8511  -7.8325  -7.6571
    -7.5993  -7.5365  -7.4495  -7.3912  -7.3605  -7.2488  -7.0672  -3.4774
    -3.3680  -3.2515  -3.2369  -3.0008  -2.9438  -2.9178  -2.3207  -2.2887
    -2.1074  -2.0236  -1.7601  -1.6228  -1.6194  -1.4761  -1.3383  -1.3234
    -1.2431  -1.1681  -1.1360  -1.1205  -1.0242  -0.9890  -0.9668  -0.9299
    -0.8457  -0.8139  -0.7709  -0.6991  -0.6859  -0.6554  -0.3491  -0.2793
    -0.2719  -0.1232  -0.1125   0.0422   0.0808   0.1725   0.1774   0.2190
     0.2542   0.2678   0.4147   0.5466   0.8043   0.8354   0.8377   0.8814
     0.9769   0.9854   1.0248   1.0468   1.1485   1.1817   1.1868   1.2498
     1.4345   1.5542   1.5981   1.6685   1.6755   1.6909   1.7828   1.8044
     1.8539   1.9924   2.0116   2.0559   2.0572   2.1447   2.2286   2.2514
     2.3111   2.4193   2.4399   2.5646   2.9877   3.1272   4.5093   6.7728
     7.3958   7.4863   7.6123   8.1895   8.2687   8.3170   8.3417   8.7311
     8.8625   9.0435   9.1308   9.1477   9.1958   9.4786   9.5190   9.6074
     9.6979

          k = 0.0000-0.5279 0.0000 ( 34110 PWs)   bands (ev):

   -36.6206 -35.5172 -22.5498 -22.5449 -22.3057 -22.0620 -18.0163 -17.6901
   -17.6596 -16.9849 -16.7595 -16.5647 -14.9251 -14.6892 -14.5364 -14.5292
   -14.5136 -14.4222 -14.2963 -14.2552 -14.2252 -14.1261 -14.0718 -14.0204
   -14.0123 -13.9990 -13.8517  -7.9433  -7.8808  -7.8695  -7.8421  -7.6488
    -7.6391  -7.4806  -7.3995  -7.3985  -7.3844  -7.1968  -7.0093  -3.7344
    -3.5950  -3.4908  -3.4155  -3.1832  -3.1592  -3.1524  -2.3368  -2.2927
    -2.2397  -2.0219  -1.8900  -1.7512  -1.5323  -1.4429  -1.4324  -1.3004
    -1.2453  -1.2324  -1.2260  -1.1775  -1.1498  -1.1309  -1.0678  -1.0436
    -0.9360  -0.8899  -0.8448  -0.7858  -0.7705  -0.7322  -0.3269  -0.2832
    -0.2433  -0.2135  -0.1113   0.0468   0.0865   0.1748   0.1811   0.2258
     0.2338   0.2651   0.3934   0.4754   0.7599   0.8209   0.8451   0.8678
     0.9099   1.0141   1.0152   1.0680   1.0944   1.1698   1.2121   1.3792
     1.4473   1.5403   1.6601   1.7921   1.7923   1.8541   1.9003   1.9841
     2.0661   2.0742   2.0856   2.1222   2.1366   2.1910   2.2683   2.2687
     2.2905   2.5168   2.5808   2.5986   2.8108   3.0360   4.7133   7.0765
     7.6667   7.8983   8.0049   8.1318   8.1941   8.2252   8.9320   8.9986
     9.0638   9.1275   9.1380   9.3758   9.4445   9.4762   9.4844   9.5865
     9.8797

          k = 0.1250 0.0000 0.0000 ( 34183 PWs)   bands (ev):

   -36.6320 -35.5286 -22.7214 -22.6994 -22.4684 -22.2421 -17.8656 -17.6983
   -17.6471 -17.0012 -16.6609 -16.5681 -15.1451 -15.1333 -14.9440 -14.9279
   -14.6650 -14.5211 -14.4767 -14.1601 -14.1389 -13.9587 -13.9408 -13.8081
   -13.7791 -13.7474 -13.6305  -7.9818  -7.8965  -7.7715  -7.7198  -7.6415
    -7.6079  -7.5528  -7.4680  -7.3893  -7.3311  -7.2946  -7.1502  -2.3306
    -2.3194  -2.0284  -2.0079  -1.8199  -1.7549  -1.7545  -1.7051  -1.6765
    -1.4854  -1.3964  -1.2144  -1.2057  -1.1790  -1.1668  -1.1666  -0.9776
    -0.9706  -0.7805  -0.5799  -0.4933  -0.4630  -0.3515  -0.3352  -0.3205
    -0.2886  -0.2875  -0.2405  -0.2145  -0.2122  -0.2088  -0.1676  -0.1522
    -0.1378  -0.0899   0.0057   0.0663   0.1119   0.1427   0.1432   0.1662
     0.1731   0.2461   0.2578   0.2772   0.2930   0.3368   0.4432   0.4765
     0.7478   0.7587   0.8269   0.8449   0.8897   0.9431   1.0471   1.0564
     1.1854   1.2104   1.2402   1.2578   1.3841   1.4184   1.5362   1.5847
     1.6724   1.7046   1.7402   1.9242   2.0101   2.0312   2.0627   2.0653
     2.1352   2.1856   2.2376   2.2626   2.3743   2.6221   2.6237   5.4271
     5.4491   5.6523   6.1618   6.5567   7.0300   7.1794   7.5031   7.5657
     8.1786   8.1967   8.3555   8.5307   8.7033   8.8005   8.8720   8.8898
     8.9995

          k = 0.1250 0.1320 0.0000 ( 34158 PWs)   bands (ev):

   -36.6302 -35.5268 -22.6955 -22.6758 -22.4438 -22.2150 -17.8667 -17.7034
   -17.6689 -16.9660 -16.6641 -16.6312 -15.0684 -15.0631 -14.8884 -14.8779
   -14.6591 -14.4912 -14.4434 -14.1645 -14.1399 -13.9830 -13.9471 -13.8396
   -13.8245 -13.7762 -13.6779  -7.9620  -7.9158  -7.8338  -7.7915  -7.6868
    -7.5703  -7.5630  -7.4999  -7.4377  -7.3305  -7.2897  -7.1102  -2.3792
    -2.3546  -2.1212  -2.0918  -2.0413  -1.9809  -1.9659  -1.7990  -1.7408
    -1.7202  -1.6918  -1.5893  -1.5871  -1.4735  -1.3583  -1.2460  -1.1446
    -0.9327  -0.8006  -0.7314  -0.7106  -0.6241  -0.5867  -0.5384  -0.5034
    -0.4846  -0.4512  -0.3510  -0.2821  -0.2301  -0.2131  -0.1619  -0.1546
    -0.0936  -0.0791  -0.0494   0.0302   0.0627   0.1007   0.1977   0.2063
     0.2455   0.2642   0.2810   0.3448   0.3787   0.4461   0.5682   0.6652
     0.8738   0.8950   0.9475   1.0580   1.0892   1.1298   1.1691   1.1924
     1.2108   1.2696   1.2977   1.3163   1.3372   1.3702   1.4899   1.5592
     1.6427   1.7113   1.7260   1.7595   1.8662   1.8801   2.0662   2.2321
     2.2827   2.3986   2.4742   2.6101   2.8675   2.8852   2.9663   5.7200
     5.7868   5.9128   6.3613   6.7885   7.3253   7.4882   7.7657   7.8192
     8.3168   8.3543   8.4923   8.6182   8.6941   8.7161   8.9899   9.0585
     9.1029

          k = 0.1250 0.2640 0.0000 ( 34093 PWs)   bands (ev):

   -36.6259 -35.5224 -22.6317 -22.6179 -22.3830 -22.1482 -17.9031 -17.7280
   -17.6709 -16.8767 -16.7934 -16.6436 -14.8973 -14.8901 -14.7612 -14.7302
   -14.6583 -14.4216 -14.3763 -14.2000 -14.1220 -14.0386 -13.9961 -13.9412
   -13.9159 -13.8368 -13.7643  -7.9848  -7.9439  -7.9163  -7.8706  -7.6986
    -7.6712  -7.5607  -7.5141  -7.4891  -7.3698  -7.2838  -7.0928  -2.8586
    -2.8029  -2.7054  -2.6189  -2.5708  -2.3777  -2.3028  -2.2650  -2.2290
    -1.9958  -1.9508  -1.7602  -1.7441  -1.6454  -1.5074  -1.4385  -1.3177
    -1.1033  -1.0362  -0.9787  -0.9342  -0.9042  -0.8789  -0.8350  -0.8212
    -0.7887  -0.6804  -0.6426  -0.5215  -0.4855  -0.4509  -0.4272  -0.3798
    -0.2660  -0.1476  -0.0855  -0.0558   0.0150   0.1806   0.2454   0.2638
     0.4477   0.5162   0.5291   0.5541   0.7361   0.7742   0.7965   0.8530
     1.0397   1.0751   1.1397   1.1560   1.2130   1.2293   1.3456   1.3548
     1.3615   1.4078   1.4114   1.4655   1.5035   1.5934   1.6094   1.6576
     1.6783   1.6890   1.7297   1.8385   1.9894   2.0296   2.1232   2.2912
     2.5846   2.6142   2.7122   2.8439   3.1044   3.1590   3.8764   6.2460
     6.5991   6.6927   6.7998   7.4455   8.1042   8.1959   8.2495   8.4242
     8.4594   8.6016   8.8031   8.8395   8.8776   9.0037   9.0854   9.2209
     9.2904

          k = 0.1250 0.3960 0.0000 ( 34104 PWs)   bands (ev):

   -36.6215 -35.5180 -22.5658 -22.5582 -22.3204 -22.0790 -17.9774 -17.7244
   -17.6575 -16.9276 -16.7780 -16.6350 -14.8479 -14.6886 -14.6527 -14.5547
   -14.5346 -14.3675 -14.3239 -14.2888 -14.0918 -14.0739 -14.0611 -14.0401
   -14.0249 -13.9181 -13.8127  -8.0360  -8.0153  -7.8822  -7.8777  -7.7504
    -7.6831  -7.6058  -7.5341  -7.5097  -7.4011  -7.3238  -7.1302  -3.4814
    -3.3944  -3.2779  -3.2747  -3.0301  -2.9355  -2.9106  -2.3289  -2.3012
    -2.0546  -2.0304  -1.8178  -1.7405  -1.6025  -1.5957  -1.5426  -1.4565
    -1.3745  -1.3194  -1.2706  -1.1732  -1.1368  -1.1227  -1.0728  -1.0069
    -0.9659  -0.8267  -0.8121  -0.7806  -0.7126  -0.7029  -0.4907  -0.3925
    -0.3172  -0.1876  -0.1340  -0.0633   0.0360   0.2058   0.2542   0.2631
     0.4764   0.5031   0.6193   0.6791   0.7273   0.9526   0.9637   1.0168
     1.0924   1.1244   1.1613   1.1847   1.2511   1.2526   1.2814   1.4345
     1.5388   1.5949   1.6412   1.7062   1.7492   1.7736   1.7863   1.8561
     1.9257   2.0014   2.0346   2.0618   2.1292   2.3863   2.4099   2.4205
     2.5407   2.6468   2.7176   2.7923   3.0493   3.2153   4.4954   6.6897
     7.1274   7.3507   7.5136   8.0492   8.1869   8.3631   8.3746   8.7135
     8.8893   8.9682   9.0839   9.1432   9.4229   9.5006   9.6059   9.6694
     9.7932

          k = 0.1250-0.5279 0.0000 ( 34036 PWs)   bands (ev):

   -36.6198 -35.5162 -22.5378 -22.5330 -22.2939 -22.0496 -18.0123 -17.7191
   -17.6501 -16.9792 -16.7345 -16.6313 -14.8804 -14.6398 -14.5157 -14.4894
   -14.4420 -14.3857 -14.2973 -14.2575 -14.2058 -14.1037 -14.1013 -14.0217
   -14.0022 -13.9975 -13.8355  -8.0615  -8.0099  -7.8870  -7.8611  -7.7634
    -7.6920  -7.6400  -7.5247  -7.5195  -7.4134  -7.3491  -7.1619  -3.7356
    -3.6329  -3.5189  -3.4640  -3.2078  -3.1634  -3.1435  -2.3499  -2.3136
    -2.1394  -2.0419  -1.7707  -1.7138  -1.6263  -1.6078  -1.5608  -1.4821
    -1.4643  -1.4062  -1.3767  -1.3081  -1.2589  -1.2413  -1.1590  -1.0744
    -1.0554  -0.8968  -0.8935  -0.7987  -0.7955  -0.7945  -0.5272  -0.3763
    -0.3043  -0.2019  -0.1517  -0.0633   0.0551   0.2166   0.2629   0.2679
     0.4780   0.4828   0.6306   0.6975   0.7002   0.9210   0.9800   0.9853
     1.0070   1.0809   1.1591   1.2155   1.2442   1.3155   1.3640   1.4093
     1.5561   1.6123   1.8331   1.8414   1.8452   1.9459   2.0606   2.0845
     2.0889   2.0935   2.1821   2.2466   2.2997   2.3981   2.4181   2.5048
     2.5518   2.5737   2.6099   2.7191   2.9293   3.1851   4.6900   6.8752
     7.1930   7.5724   7.8074   8.0470   8.2830   8.3736   8.3852   8.9843
     9.0689   9.1859   9.3555   9.5162   9.5364   9.5974   9.6206   9.7762
     9.9991

          k = 0.2500 0.0000 0.0000 ( 34204 PWs)   bands (ev):

   -36.6298 -35.5260 -22.6771 -22.6577 -22.4264 -22.1960 -17.8628 -17.7407
   -17.6444 -16.9158 -16.8252 -16.5647 -15.0211 -14.9870 -14.9483 -14.8742
   -14.7452 -14.5453 -14.5261 -14.2126 -14.1530 -14.0070 -13.9905 -13.9181
   -13.8298 -13.8229 -13.6876  -8.0442  -7.8979  -7.7125  -7.6848  -7.5741
    -7.5272  -7.4784  -7.3844  -7.3821  -7.2557  -7.2153  -7.0671  -2.5220
    -2.5107  -2.3465  -2.2654  -2.1585  -2.1492  -1.8902  -1.6929  -1.6113
    -1.5881  -1.4173  -1.2922  -1.2576  -1.1673  -1.1634  -1.1386  -1.0960
    -1.0392  -0.9439  -0.8651  -0.7495  -0.7179  -0.6317  -0.5782  -0.5320
    -0.5185  -0.4793  -0.4007  -0.3375  -0.2630  -0.2445  -0.2276  -0.1989
    -0.1759  -0.1337  -0.0612   0.0628   0.1261   0.1305   0.1484   0.1839
     0.2337   0.2481   0.2760   0.3215   0.3751   0.5077   0.5156   0.5988
     0.7027   0.7102   0.8250   0.8684   0.9903   1.0023   1.0531   1.1120
     1.1373   1.3308   1.3332   1.3596   1.4656   1.4697   1.5108   1.6235
     1.6627   1.7576   1.8589   1.8868   1.9442   1.9462   2.0888   2.0938
     2.1078   2.1307   2.2905   2.4225   2.5444   2.7303   2.7768   5.9055
     5.9797   6.0784   6.5032   7.1002   7.6033   7.6598   7.9735   8.0855
     8.5256   8.5538   8.6263   8.6733   8.7423   8.9480   9.1365   9.2455
     9.4064

          k = 0.2500 0.1320 0.0000 ( 34143 PWs)   bands (ev):

   -36.6281 -35.5242 -22.6533 -22.6359 -22.4035 -22.1710 -17.8618 -17.7526
   -17.6612 -16.8836 -16.8188 -16.6309 -14.9608 -14.9239 -14.8984 -14.8260
   -14.6959 -14.5098 -14.4821 -14.2063 -14.1389 -14.0040 -13.9886 -13.9252
   -13.8564 -13.8555 -13.7175  -8.0388  -7.9666  -7.8215  -7.7977  -7.7271
    -7.5682  -7.4935  -7.4905  -7.4295  -7.3185  -7.2211  -7.0303  -2.5706
    -2.5533  -2.3716  -2.2937  -2.1560  -2.1446  -2.0391  -1.9830  -1.8986
    -1.8870  -1.7643  -1.6497  -1.5776  -1.5658  -1.4178  -1.3156  -1.2360
    -1.0610  -1.0115  -0.9665  -0.9203  -0.8400  -0.8155  -0.7671  -0.7124
    -0.5787  -0.5560  -0.5224  -0.4422  -0.4275  -0.2913  -0.2746  -0.2522
    -0.1638  -0.1284   0.0194   0.0342   0.0767   0.1183   0.2073   0.2326
     0.2733   0.3560   0.3820   0.4847   0.5260   0.5873   0.6637   0.8200
     0.8970   0.9685   1.0188   1.0580   1.1153   1.1181   1.1601   1.2302
     1.2527   1.2590   1.3346   1.4313   1.4913   1.5292   1.5337   1.5861
     1.6387   1.6981   1.7127   1.7666   1.7858   1.9486   2.1166   2.3067
     2.6052   2.7203   2.7320   2.9128   2.9367   2.9965   3.0389   6.1579
     6.1667   6.2607   6.5774   7.2527   7.8623   7.8885   8.1931   8.2790
     8.3930   8.6145   8.6466   8.7421   8.8921   9.0712   9.1972   9.2362
     9.3327

          k = 0.2500 0.2640 0.0000 ( 34141 PWs)   bands (ev):

   -36.6238 -35.5198 -22.5945 -22.5823 -22.3473 -22.1095 -17.8912 -17.7865
   -17.6605 -16.8185 -16.7955 -16.7675 -14.8101 -14.8032 -14.7530 -14.7022
   -14.5564 -14.4212 -14.3735 -14.2123 -14.1135 -14.0369 -14.0203 -13.9448
   -13.9049 -13.9004 -13.7862  -8.1868  -8.1308  -7.9859  -7.8833  -7.8679
    -7.7111  -7.6860  -7.6134  -7.5386  -7.3970  -7.3427  -7.1352  -2.9811
    -2.9397  -2.7049  -2.6972  -2.6528  -2.3912  -2.3420  -2.2976  -2.2619
    -2.2418  -2.1637  -2.1213  -2.0834  -1.8569  -1.6980  -1.5064  -1.3984
    -1.3712  -1.3106  -1.2225  -1.1835  -1.0933  -1.0078  -0.8674  -0.8439
    -0.7967  -0.7343  -0.6820  -0.6770  -0.5869  -0.5438  -0.5410  -0.5156
    -0.3360  -0.2997  -0.2703   0.0488   0.0991   0.2672   0.3805   0.4316
     0.6165   0.6599   0.6988   0.8423   0.8789   0.8957   0.9475   1.0105
     1.1235   1.1419   1.2552   1.3034   1.3162   1.4249   1.4386   1.4694
     1.5062   1.5121   1.5387   1.5939   1.6290   1.6692   1.6848   1.6877
     1.7279   1.7472   1.7658   1.9087   1.9348   1.9850   2.2186   2.3910
     3.0381   3.0976   3.2950   3.3243   3.4652   3.4818   3.8875   6.3318
     6.6456   6.7097   6.8446   7.6446   7.9694   8.3951   8.4466   8.5953
     8.6883   8.7890   8.9313   9.0618   9.1230   9.1926   9.3015   9.3754
     9.4535

          k = 0.2500 0.3960 0.0000 ( 34116 PWs)   bands (ev):

   -36.6195 -35.5154 -22.5341 -22.5274 -22.2895 -22.0460 -17.9671 -17.7876
   -17.6405 -16.9155 -16.7830 -16.7094 -14.7668 -14.6085 -14.5684 -14.5212
   -14.3891 -14.3218 -14.2772 -14.2685 -14.1597 -14.0474 -14.0449 -14.0246
   -13.9799 -13.9314 -13.8052  -8.3068  -8.2950  -8.0524  -7.9336  -7.9211
    -7.8272  -7.8187  -7.7994  -7.6499  -7.5516  -7.4824  -7.3302  -3.5928
    -3.4443  -3.3974  -3.3587  -3.1470  -2.9148  -2.8929  -2.4007  -2.3892
    -2.2586  -2.2056  -2.0898  -2.0355  -1.9493  -1.8346  -1.7889  -1.7254
    -1.5662  -1.5364  -1.4281  -1.3578  -1.2529  -1.1533  -1.0927  -1.0443
    -0.9401  -0.8090  -0.7622  -0.7540  -0.7500  -0.7200  -0.6750  -0.5403
    -0.4835  -0.3689  -0.3355   0.0789   0.2090   0.3185   0.4178   0.5039
     0.7086   0.8507   0.8889   0.9613   1.0292   1.0605   1.1719   1.2977
     1.3341   1.3627   1.3772   1.4133   1.5314   1.5568   1.5678   1.6339
     1.6888   1.7093   1.7666   1.7858   1.8294   1.8327   1.8556   1.9336
     1.9796   2.0181   2.0469   2.1413   2.2325   2.3080   2.3427   2.4657
     2.8702   2.9348   3.5552   3.6526   3.7178   3.8313   4.4562   6.3649
     6.5601   6.9175   7.1410   7.8080   8.0055   8.4961   8.7044   8.8492
     8.9648   9.1076   9.1401   9.2207   9.3247   9.7314   9.8432   9.9201
     9.9828

          k = 0.2500-0.5279 0.0000 ( 34148 PWs)   bands (ev):

   -36.6177 -35.5136 -22.5086 -22.5042 -22.2651 -22.0192 -18.0029 -17.7841
   -17.6304 -16.9657 -16.7775 -16.6698 -14.7636 -14.5072 -14.4744 -14.3863
   -14.3118 -14.3009 -14.2995 -14.2598 -14.1649 -14.1613 -14.0349 -14.0163
   -13.9923 -13.9874 -13.8019  -8.3390  -8.3070  -8.0525  -8.0218  -7.9316
    -7.9098  -7.8930  -7.8139  -7.6708  -7.6487  -7.5640  -7.4097  -3.8380
    -3.6770  -3.6285  -3.6129  -3.3393  -3.1425  -3.1222  -2.4081  -2.3919
    -2.2211  -2.1871  -2.1139  -2.0531  -1.9659  -1.9216  -1.8522  -1.8148
    -1.7086  -1.6304  -1.4850  -1.3981  -1.3099  -1.2205  -1.1794  -1.1356
    -0.9853  -0.8881  -0.8315  -0.8138  -0.7652  -0.7226  -0.6640  -0.5465
    -0.4979  -0.3949  -0.3510   0.0848   0.2510   0.3309   0.4371   0.5355
     0.7813   0.9177   0.9530   0.9576   1.0879   1.1317   1.2365   1.2479
     1.2979   1.4220   1.4611   1.4952   1.5114   1.5351   1.5557   1.6973
     1.7813   1.7938   1.8891   1.9662   2.0040   2.0262   2.0463   2.0862
     2.0910   2.1307   2.1703   2.2060   2.4143   2.4837   2.4975   2.5159
     2.6491   2.7102   3.5760   3.7326   3.7534   3.9148   4.6217   6.3010
     6.5276   6.8822   7.1336   7.7783   8.2157   8.3776   8.7980   8.8322
     9.1718   9.2823   9.3676   9.5698   9.7789   9.8666   9.8762   9.9268
    10.0812

          k = 0.3750 0.0000 0.0000 ( 34140 PWs)   bands (ev):

   -36.6277 -35.5233 -22.6317 -22.6151 -22.3833 -22.1487 -17.8906 -17.7495
   -17.6417 -16.9650 -16.8206 -16.5614 -15.1048 -14.9925 -14.8597 -14.8342
   -14.6015 -14.5485 -14.5144 -14.2934 -14.1652 -14.1056 -14.0349 -14.0036
   -13.9398 -13.8612 -13.7262  -8.0740  -7.8804  -7.6836  -7.6200  -7.5317
    -7.4428  -7.4010  -7.3651  -7.3337  -7.1772  -7.1528  -6.9801  -2.8719
    -2.8414  -2.6966  -2.6553  -2.2806  -2.2334  -1.9703  -1.6095  -1.5308
    -1.4595  -1.4445  -1.4106  -1.3451  -1.2344  -1.1651  -1.1629  -1.1543
    -1.1180  -1.0878  -1.0517  -0.9667  -0.9249  -0.8509  -0.8230  -0.7401
    -0.6935  -0.6795  -0.4806  -0.4322  -0.3872  -0.3464  -0.2400  -0.2102
    -0.1817  -0.1790  -0.0951   0.0637   0.1151   0.1176   0.1552   0.1661
     0.1813   0.2204   0.2700   0.3380   0.4541   0.4782   0.5120   0.5208
     0.5780   0.7680   0.8380   0.8795   0.8883   1.1321   1.1748   1.2351
     1.2833   1.3273   1.3656   1.4000   1.4638   1.5563   1.6260   1.6589
     1.7583   1.7660   1.8418   1.8719   1.9695   1.9773   2.0181   2.0651
     2.1801   2.2139   2.3459   2.5219   2.6553   2.8558   2.9276   6.5552
     6.6084   6.6820   6.8137   7.8271   7.9250   8.0505   8.2240   8.4765
     8.5267   8.6321   8.7266   8.9266   9.2797   9.3638   9.4050   9.5185
     9.5513

          k = 0.3750 0.1320 0.0000 ( 34185 PWs)   bands (ev):

   -36.6259 -35.5215 -22.6100 -22.5951 -22.3623 -22.1260 -17.8855 -17.7712
   -17.6525 -16.9564 -16.7915 -16.6260 -15.0322 -14.9450 -14.8040 -14.7830
   -14.5607 -14.4880 -14.4653 -14.2742 -14.1367 -14.0803 -14.0178 -13.9899
   -13.9552 -13.8952 -13.7394  -8.0722  -7.9381  -7.7833  -7.7391  -7.7062
    -7.5325  -7.5253  -7.4755  -7.4590  -7.2921  -7.2691  -7.0585  -2.9254
    -2.9024  -2.7316  -2.6996  -2.2794  -2.2425  -1.9929  -1.9717  -1.9011
    -1.8136  -1.7658  -1.5848  -1.5660  -1.5536  -1.4648  -1.4093  -1.3611
    -1.3066  -1.2617  -1.1566  -1.1081  -1.0371  -0.9941  -0.8995  -0.7617
    -0.7051  -0.6491  -0.6139  -0.5396  -0.5142  -0.3684  -0.3286  -0.2920
    -0.2178  -0.1823  -0.0064   0.0768   0.1154   0.1635   0.2200   0.2429
     0.2613   0.4382   0.4476   0.4918   0.5476   0.5884   0.7171   0.8258
     0.8572   0.8616   1.0141   1.0983   1.1386   1.2008   1.2238   1.2797
     1.3319   1.3689   1.4104   1.4508   1.5068   1.5905   1.6528   1.6582
     1.7623   1.7809   1.8402   1.8490   1.9326   1.9748   2.0409   2.2801
     2.7549   2.7855   2.8071   2.9873   3.0603   3.1874   3.2110   6.5663
     6.7040   6.7323   6.8336   7.8724   7.8823   8.1158   8.2776   8.4801
     8.5530   8.7746   8.9100   9.0010   9.3030   9.3731   9.4651   9.5419
     9.6019

          k = 0.3750 0.2640 0.0000 ( 34193 PWs)   bands (ev):

   -36.6217 -35.5172 -22.5567 -22.5461 -22.3109 -22.0700 -17.8842 -17.8431
   -17.6444 -16.9360 -16.7703 -16.7163 -14.8335 -14.8222 -14.6611 -14.6457
   -14.4649 -14.3420 -14.3388 -14.2421 -14.0959 -14.0630 -14.0071 -13.9730
   -13.9563 -13.9301 -13.7875  -8.2395  -8.1886  -8.0321  -7.9200  -7.9179
    -7.7957  -7.7682  -7.7671  -7.6533  -7.5390  -7.4548  -7.2903  -3.2493
    -3.2156  -2.9561  -2.9372  -2.6625  -2.4924  -2.4507  -2.3749  -2.3310
    -2.2955  -2.2797  -2.2212  -2.2000  -1.9215  -1.8617  -1.7313  -1.6676
    -1.5219  -1.5016  -1.2143  -1.1626  -1.0057  -0.9686  -0.8925  -0.8644
    -0.8341  -0.8318  -0.7903  -0.7361  -0.7236  -0.6466  -0.5974  -0.5703
    -0.4288  -0.3234  -0.2716   0.1056   0.2279   0.3387   0.4969   0.5677
     0.7147   0.7548   0.8205   0.8810   1.0172   1.0577   1.1146   1.1479
     1.1915   1.2181   1.2793   1.3739   1.4570   1.4729   1.4788   1.5374
     1.5779   1.5969   1.6494   1.6905   1.7481   1.7811   1.8043   1.8329
     1.8537   1.8657   1.8846   1.9170   1.9468   2.1442   2.2015   2.3185
     3.0397   3.1017   3.7438   3.7718   3.8603   3.9263   3.9448   6.2661
     6.4876   6.7500   6.9430   7.6977   7.9285   8.4558   8.5035   8.6924
     8.8893   8.9708   9.2101   9.2725   9.4654   9.5294   9.5821   9.6752
     9.8555

          k = 0.3750 0.3960 0.0000 ( 34177 PWs)   bands (ev):

   -36.6174 -35.5129 -22.5020 -22.4960 -22.2581 -22.0126 -17.9563 -17.8505
   -17.6218 -16.9187 -16.8971 -16.6364 -14.6891 -14.5698 -14.4905 -14.4634
   -14.3742 -14.2462 -14.2245 -14.1813 -14.1730 -14.0451 -14.0294 -13.9847
   -13.9562 -13.9247 -13.8123  -8.5053  -8.4924  -8.2454  -8.1704  -8.0599
    -8.0131  -7.9956  -7.9204  -7.8216  -7.7008  -7.6820  -7.4467  -3.8194
    -3.6954  -3.5194  -3.4111  -3.3373  -2.8942  -2.8755  -2.6420  -2.5810
    -2.5541  -2.4205  -2.2362  -2.2276  -2.1851  -2.0395  -1.9153  -1.8252
    -1.7734  -1.6944  -1.3099  -1.1985  -1.1582  -1.1476  -1.0996  -1.0602
    -0.9169  -0.9071  -0.8346  -0.8165  -0.8076  -0.7479  -0.7119  -0.7074
    -0.6267  -0.3452  -0.2580   0.2059   0.3125   0.3978   0.6211   0.7292
     0.9818   1.0212   1.1211   1.2091   1.3009   1.3154   1.4064   1.4297
     1.5014   1.5305   1.5356   1.6299   1.6364   1.7207   1.7246   1.7710
     1.8152   1.8337   1.8542   1.9231   1.9493   1.9888   2.0099   2.0204
     2.0582   2.1166   2.1423   2.2245   2.2299   2.2681   2.4554   2.5094
     2.8613   2.9486   4.2751   4.3361   4.3839   4.4543   4.5359   5.8371
     6.2763   6.4469   6.6741   7.4343   8.1569   8.6032   8.8748   9.0045
     9.0470   9.2853   9.3852   9.4433   9.5287   9.5527   9.6659   9.6789
     9.7897

          k = 0.3750-0.5279 0.0000 ( 34192 PWs)   bands (ev):

   -36.6157 -35.5111 -22.4790 -22.4749 -22.2359 -21.9883 -17.9936 -17.8462
   -17.6111 -16.9523 -16.9061 -16.6010 -14.6279 -14.4491 -14.3447 -14.3395
   -14.3018 -14.2683 -14.2570 -14.2294 -14.1207 -14.0877 -14.0082 -14.0032
   -13.9845 -13.9420 -13.7873  -8.6081  -8.5873  -8.3296  -8.3155  -8.2034
    -8.0849  -8.0149  -7.9465  -7.9133  -7.8373  -7.6942  -7.4934  -4.0659
    -3.9021  -3.7748  -3.6652  -3.5481  -3.1194  -3.1015  -2.6618  -2.5995
    -2.5702  -2.4355  -2.2966  -2.2349  -2.2215  -2.1462  -1.9049  -1.8959
    -1.8679  -1.7367  -1.3799  -1.2837  -1.2562  -1.2026  -1.1768  -1.1148
    -0.9406  -0.9071  -0.9021  -0.8793  -0.8315  -0.8224  -0.7440  -0.7001
    -0.6312  -0.3310  -0.2378   0.2221   0.3444   0.4110   0.6586   0.8025
     1.0616   1.1424   1.2560   1.3181   1.3226   1.3585   1.4062   1.5393
     1.5907   1.6419   1.6434   1.7045   1.7421   1.8128   1.8198   1.8790
     1.8974   2.0018   2.0293   2.0346   2.0628   2.0856   2.1090   2.1555
     2.1986   2.2101   2.3282   2.3403   2.4203   2.4396   2.5639   2.6192
     2.6250   2.7233   4.3933   4.4890   4.5445   4.6178   4.7263   5.6475
     6.2115   6.2693   6.5084   7.3442   8.4273   8.4751   8.7373   8.9595
     9.1770   9.2875   9.4222   9.4878   9.4985   9.8160   9.8348   9.9062
     9.9634

          k =-0.5000 0.0000 0.0000 ( 34130 PWs)   bands (ev):

   -36.6268 -35.5222 -22.6125 -22.5972 -22.3651 -22.1288 -17.9093 -17.7451
   -17.6405 -17.0174 -16.7784 -16.5600 -15.1454 -15.0481 -14.8770 -14.7628
   -14.6191 -14.4544 -14.3527 -14.3428 -14.2675 -14.1481 -14.0470 -14.0296
   -14.0157 -13.8735 -13.7387  -8.0802  -7.8701  -7.6670  -7.5969  -7.5202
    -7.4066  -7.3679  -7.3543  -7.3205  -7.1436  -7.1305  -6.9427  -3.0150
    -2.9835  -2.8690  -2.7969  -2.3056  -2.2257  -1.9771  -1.6022  -1.5610
    -1.4650  -1.4063  -1.3183  -1.2957  -1.2577  -1.2526  -1.1851  -1.1754
    -1.1690  -1.1633  -1.1505  -1.1235  -0.9368  -0.9107  -0.8967  -0.8454
    -0.7645  -0.7631  -0.5467  -0.4471  -0.4128  -0.3925  -0.2441  -0.2218
    -0.1813  -0.1642  -0.1558   0.0670   0.1102   0.1123   0.1423   0.1716
     0.1749   0.1781   0.2600   0.3421   0.4457   0.4539   0.4788   0.5117
     0.5713   0.7724   0.7808   0.8767   0.8906   1.1842   1.1848   1.1989
     1.3088   1.4158   1.4539   1.4695   1.5211   1.5665   1.6275   1.6449
     1.7045   1.7550   1.8074   1.9254   2.0162   2.0349   2.0708   2.1058
     2.1967   2.2359   2.3499   2.5361   2.6742   2.8922   2.9842   6.9368
     6.9668   7.3278   7.3800   7.4493   7.4940   7.7511   8.3260   8.4197
     8.6043   8.8379   9.0586   9.1353   9.4586   9.5129   9.5789   9.6242
     9.8245

          k =-0.5000 0.1320 0.0000 ( 34202 PWs)   bands (ev):

   -36.6251 -35.5204 -22.5917 -22.5780 -22.3450 -22.1070 -17.9036 -17.7703
   -17.6484 -17.0082 -16.7508 -16.6238 -15.0684 -14.9913 -14.8149 -14.7147
   -14.5787 -14.4099 -14.3255 -14.3012 -14.2098 -14.1258 -14.0203 -14.0179
   -14.0137 -13.9107 -13.7454  -8.0763  -7.9092  -7.7263  -7.6869  -7.6372
    -7.6096  -7.5974  -7.4396  -7.4245  -7.3566  -7.2576  -7.1181  -3.0747
    -3.0511  -2.9074  -2.8493  -2.3106  -2.2537  -1.9904  -1.9615  -1.8371
    -1.7623  -1.7441  -1.5617  -1.5607  -1.5246  -1.5158  -1.4772  -1.4607
    -1.3765  -1.3348  -1.2570  -1.1862  -1.1044  -1.0436  -0.9387  -0.8188
    -0.7316  -0.6826  -0.6438  -0.5563  -0.5113  -0.4052  -0.3599  -0.3030
    -0.2419  -0.2126  -0.0199   0.0891   0.1288   0.1820   0.2316   0.2556
     0.3139   0.3283   0.4687   0.5652   0.5682   0.6048   0.6476   0.7845
     0.8210   0.8391   1.0159   1.0993   1.1249   1.2110   1.2194   1.3196
     1.3306   1.4523   1.4746   1.4946   1.5400   1.6202   1.6629   1.7104
     1.7692   1.7995   1.8283   1.9333   1.9810   2.0627   2.1126   2.2580
     2.7531   2.7985   2.8271   3.0038   3.0851   3.2494   3.2730   6.7211
     6.8066   7.1755   7.3526   7.6829   7.7657   7.8150   8.2344   8.4647
     8.5339   8.9234   9.2210   9.3488   9.4072   9.6141   9.7321   9.7753
     9.8183

          k =-0.5000 0.2640 0.0000 ( 34216 PWs)   bands (ev):

   -36.6208 -35.5161 -22.5407 -22.5310 -22.2955 -22.0534 -17.8901 -17.8574
   -17.6371 -16.9862 -16.7670 -16.6798 -14.8573 -14.8386 -14.6505 -14.5902
   -14.4825 -14.3019 -14.2688 -14.1957 -14.1139 -14.0746 -14.0307 -13.9858
   -13.9761 -13.9514 -13.7813  -8.1783  -8.1531  -8.0274  -8.0170  -7.9188
    -7.8886  -7.8590  -7.7213  -7.7079  -7.6407  -7.5531  -7.3496  -3.3866
    -3.3541  -3.1083  -3.0817  -2.6571  -2.5180  -2.4759  -2.4017  -2.3427
    -2.3126  -2.2773  -2.2218  -2.2075  -1.9765  -1.9355  -1.8481  -1.6848
    -1.6223  -1.6031  -1.1512  -1.0938  -0.9620  -0.9469  -0.9180  -0.8797
    -0.8629  -0.8310  -0.8202  -0.8149  -0.7297  -0.6868  -0.6232  -0.5956
    -0.4294  -0.3440  -0.2712   0.1245   0.2732   0.3756   0.5460   0.6149
     0.7892   0.7948   0.8780   0.9044   1.0356   1.1380   1.1417   1.1715
     1.2311   1.2416   1.2771   1.4055   1.4465   1.4605   1.5321   1.5747
     1.6171   1.6267   1.6433   1.7480   1.7505   1.8149   1.8291   1.8738
     1.9282   1.9633   1.9683   2.0348   2.0422   2.0606   2.2382   2.2398
     3.0332   3.0943   3.8668   3.8840   3.9212   4.0570   4.0807   6.1669
     6.4611   6.7457   6.9396   7.6323   8.0283   8.4441   8.4938   8.6885
     9.0426   9.1030   9.2889   9.4209   9.6405   9.6570   9.6780   9.8765
     9.9331

          k =-0.5000 0.3960 0.0000 ( 34176 PWs)   bands (ev):

   -36.6166 -35.5118 -22.4885 -22.4829 -22.2450 -21.9985 -17.9512 -17.8768
   -17.6138 -16.9646 -16.8962 -16.6041 -14.6600 -14.5687 -14.4709 -14.4151
   -14.3976 -14.2285 -14.2080 -14.1675 -14.0831 -14.0367 -14.0263 -13.9773
   -13.9651 -13.9171 -13.8184  -8.5539  -8.5534  -8.3155  -8.2920  -8.2022
    -8.0618  -8.0229  -7.9482  -7.9367  -7.8348  -7.6880  -7.4737  -3.9377
    -3.8255  -3.6178  -3.5063  -3.3567  -2.8857  -2.8684  -2.7245  -2.6664
    -2.6508  -2.4842  -2.2779  -2.2525  -2.2449  -2.1316  -1.9197  -1.8494
    -1.8250  -1.7795  -1.2173  -1.2098  -1.1827  -1.1252  -1.0545  -0.9973
    -0.9941  -0.9759  -0.8731  -0.8361  -0.7715  -0.7712  -0.7482  -0.7206
    -0.6938  -0.3072  -0.2253   0.2435   0.3521   0.4350   0.7108   0.8210
     1.0873   1.1375   1.1939   1.3355   1.3608   1.4309   1.4414   1.5412
     1.5506   1.6049   1.6121   1.6441   1.6619   1.7537   1.7750   1.8066
     1.8456   1.8869   1.9136   1.9438   2.0036   2.0337   2.0443   2.0924
     2.1229   2.1654   2.1994   2.2429   2.2755   2.3648   2.4510   2.5580
     2.8503   2.9395   4.3423   4.5634   4.6334   4.6557   4.7994   5.6240
     6.1909   6.2507   6.4570   7.2843   8.2927   8.5056   8.8774   8.9753
     9.1925   9.1953   9.4095   9.4942   9.5595   9.6675   9.7988   9.8191
     9.8447

          k =-0.5000-0.5279 0.0000 ( 34236 PWs)   bands (ev):

   -36.6148 -35.5100 -22.4666 -22.4627 -22.2237 -21.9754 -17.9897 -17.8713
   -17.6031 -16.9557 -16.9469 -16.5706 -14.5624 -14.4449 -14.3845 -14.3008
   -14.2535 -14.2341 -14.2182 -14.2125 -14.1069 -14.0378 -14.0364 -14.0022
   -13.9806 -13.8770 -13.8044  -8.7178  -8.6995  -8.4416  -8.4316  -8.3204
    -8.1928  -8.0394  -8.0239  -7.9640  -7.9480  -7.7016  -7.5212  -4.1832
    -4.0338  -3.8677  -3.7184  -3.6087  -3.1099  -3.0931  -2.7604  -2.7022
    -2.6832  -2.5128  -2.3786  -2.2548  -2.2352  -2.2215  -1.9248  -1.9034
    -1.8942  -1.8079  -1.3175  -1.2975  -1.2623  -1.2270  -1.1182  -1.0609
    -0.9893  -0.9693  -0.9311  -0.9065  -0.8281  -0.8222  -0.7897  -0.7678
    -0.6522  -0.2784  -0.1979   0.2659   0.3799   0.4489   0.7572   0.9241
     1.1517   1.2553   1.3982   1.4165   1.4171   1.4379   1.4587   1.6315
     1.6790   1.6871   1.6910   1.7600   1.8497   1.9063   1.9168   1.9329
     1.9729   2.0446   2.0608   2.0634   2.1227   2.1444   2.1723   2.1727
     2.2526   2.2631   2.3918   2.4134   2.4738   2.4854   2.5967   2.6285
     2.7060   2.7237   4.4353   4.7681   4.8403   4.9126   5.0323   5.3969
     6.0236   6.1183   6.2354   7.1811   8.4471   8.5151   8.7416   9.0828
     9.0879   9.1418   9.2125   9.2207   9.6181   9.6725   9.8008   9.8091
     9.9771

     the Fermi energy is     2.6186 ev

!    total energy              =   -1842.84150441 Ry
     Harris-Foulkes estimate   =   -1842.84150441 Ry
     estimated scf accuracy    <          4.7E-11 Ry

     The total energy is the sum of the following terms:

     one-electron contribution =  -30486.76219244 Ry
     hartree contribution      =   15396.71305314 Ry
     xc contribution           =    -621.74411948 Ry
     ewald contribution        =   13868.96007476 Ry
     smearing contrib. (-TS)   =      -0.00832038 Ry

     convergence has been achieved in  40 iterations

     negative rho (up, down):  1.524E-03 0.000E+00

     Forces acting on atoms (cartesian axes, Ry/au):

     atom    1 type  4   force =     0.00000000    0.00000000   -0.00015415
     atom    2 type  3   force =     0.00000000    0.00000000    0.00039246
     atom    3 type  4   force =     0.00000000    0.00000000   -0.00075690
     atom    4 type  1   force =     0.00000000    0.00000000   -0.00026996
     atom    5 type  3   force =     0.00000000    0.00000000    0.00056603
     atom    6 type  4   force =     0.00000000    0.00000000   -0.00012460
     atom    7 type  4   force =     0.00000000    0.00000000    0.00023230
     atom    8 type  2   force =     0.00000000    0.00000000   -0.00034585
     atom    9 type  4   force =     0.00000000    0.00000000   -0.00003925
     atom   10 type  4   force =     0.00000000    0.00000000    0.00005196
     atom   11 type  3   force =     0.00000000    0.00000000   -0.00003710
     atom   12 type  1   force =     0.00000000    0.00000000   -0.00235263
     atom   13 type  4   force =     0.00000000    0.00000000    0.00316672
     atom   14 type  4   force =     0.00000000    0.00000000   -0.00170361
     atom   15 type  3   force =     0.00000000    0.00000000   -0.05272296
     atom   16 type  4   force =     0.00000000    0.00000000    0.05023822
     atom   17 type  1   force =     0.00000000    0.00000000    0.00838327
     atom   18 type  3   force =     0.00000000    0.00000000   -0.01240978
     atom   19 type  4   force =     0.00000000    0.00000000    0.00936525
     atom   20 type  4   force =     0.00000000    0.00000000    0.02867028
     atom   21 type  2   force =     0.00000000    0.00000000    0.02714964
     atom   22 type  4   force =     0.00000000    0.00000000   -0.03614787
     atom   23 type  4   force =     0.00000000    0.00000000   -0.03137530
     atom   24 type  3   force =     0.00000000    0.00000000    0.01559744
     atom   25 type  1   force =     0.00000000    0.00000000   -0.01059332
     atom   26 type  4   force =     0.00000000    0.00000000    0.01107873
     atom   27 type  3   force =     0.00000000    0.00000000   -0.00836989
     atom   28 type  4   force =     0.00000000    0.00000000    0.00251087

     Total force =     0.083243     Total SCF correction =     0.000013


     Computing stress (Cartesian axis) and pressure


     negative rho (up, down):  1.524E-03 0.000E+00
          total   stress  (Ry/bohr**3)                   (kbar)     P=       -1.36
  -0.00002657   0.00000000   0.00000000           -3.91        0.00        0.00
   0.00000000   0.00004306   0.00000000            0.00        6.33        0.00
   0.00000000   0.00000000  -0.00004423            0.00        0.00       -6.51


     BFGS Geometry Optimization

     number of scf cycles    =   1
     number of bfgs steps    =   0

     energy   new            =   -1842.8415044086 Ry

     new trust radius        =       0.0502382154 bohr
     new conv_thr            =            1.0E-10 Ry


ATOMIC_POSITIONS (angstrom)
O             0.0000000000        1.8611200000       -0.1846200000    0   0   0
Cu            0.0000000000        0.0000000000        0.1039800000    0   0   0
O             0.0000000000        0.0000000000        1.9772600000    0   0   0
Ba            1.9651100000        1.8611200000        2.2364100000    0   0   0
Cu            0.0000000000        0.0000000000        4.0773100000    0   0   0
O             1.9651100000        0.0000000000        4.2321000000    0   0   0
O             0.0000000000        1.8611200000        4.3692200000    0   0   0
Ca            1.9651100000        1.8611200000        5.8860000000    0   0   0
O             0.0000000000        1.8611200000        7.3367500000    0   0   0
O             1.9651100000        0.0000000000        7.4847600000    0   0   0
Cu            0.0000000000        0.0000000000        7.6688600000    0   0   0
Ba            1.9651100000        1.8611200000        9.5487700000    0   0   0
O             0.0000000000        0.0000000000        9.8708900000    0   0   0
O             0.0000000000        1.8611200000       11.7586400000    0   0   0
Cu            0.0000000000        0.0000000000       11.7588600000    0   0   0
O             0.0000000000        0.0000000000       13.5733649186
Ba            1.9651100000        1.8611200000       13.8733062352
Cu            0.0000000000        0.0000000000       15.9421430249
O             1.9651100000        0.0000000000       16.1377658748
O             0.0000000000        1.8611200000       16.0959716563
Ca            1.9651100000        1.8611200000       17.5459569733
O             0.0000000000        1.8611200000       19.7292313691
O             1.9651100000        0.0000000000       19.8688769089
Cu            0.0000000000        0.0000000000       19.8485338106
Ba            1.9651100000        1.8611200000       21.7811700000    0   0   0
O             0.0000000000        0.0000000000       22.0402800000    0   0   0
Cu            0.0000000000        0.0000000000       23.9135800000    0   0   0
O             0.0000000000        1.8611200000       24.2021300000    0   0   0


     NEW-OLD atomic charge density approx. for the potential

     negative rho (up, down):  1.639E-03 0.000E+00

     total cpu time spent up to now is      758.9 secs

     Self-consistent Calculation

     iteration #  1     ecut=    60.00 Ry     beta= 0.70
     Davidson diagonalization with overlap
     ethr =  1.00E-06,  avg # of iterations =  5.0

     negative rho (up, down):  1.537E-03 0.000E+00

     total cpu time spent up to now is      786.7 secs

     total energy              =   -1842.84789170 Ry
     Harris-Foulkes estimate   =   -1842.84799801 Ry
     estimated scf accuracy    <       0.00110025 Ry

     iteration #  2     ecut=    60.00 Ry     beta= 0.70
     Davidson diagonalization with overlap
     ethr =  4.85E-07,  avg # of iterations =  2.0

     negative rho (up, down):  1.565E-03 0.000E+00

     total cpu time spent up to now is      801.0 secs

     total energy              =   -1842.84796714 Ry
     Harris-Foulkes estimate   =   -1842.84806460 Ry
     estimated scf accuracy    <       0.00586188 Ry

     iteration #  3     ecut=    60.00 Ry     beta= 0.70
     Davidson diagonalization with overlap
     ethr =  4.85E-07,  avg # of iterations =  1.0

     negative rho (up, down):  1.544E-03 0.000E+00

     total cpu time spent up to now is      813.9 secs

     total energy              =   -1842.84793026 Ry
     Harris-Foulkes estimate   =   -1842.84800200 Ry
     estimated scf accuracy    <       0.00117551 Ry

     iteration #  4     ecut=    60.00 Ry     beta= 0.70
     Davidson diagonalization with overlap
     ethr =  4.85E-07,  avg # of iterations =  1.0

     negative rho (up, down):  1.550E-03 0.000E+00

     total cpu time spent up to now is      827.0 secs

     total energy              =   -1842.84793069 Ry
     Harris-Foulkes estimate   =   -1842.84796198 Ry
     estimated scf accuracy    <       0.00135692 Ry

     iteration #  5     ecut=    60.00 Ry     beta= 0.70
     Davidson diagonalization with overlap
     ethr =  4.85E-07,  avg # of iterations =  1.0

     negative rho (up, down):  1.548E-03 0.000E+00

     total cpu time spent up to now is      839.7 secs

     total energy              =   -1842.84793545 Ry
     Harris-Foulkes estimate   =   -1842.84794673 Ry
     estimated scf accuracy    <       0.00057009 Ry

     iteration #  6     ecut=    60.00 Ry     beta= 0.70
     Davidson diagonalization with overlap
     ethr =  2.51E-07,  avg # of iterations =  1.0

     negative rho (up, down):  1.543E-03 0.000E+00

     total cpu time spent up to now is      852.6 secs

     total energy              =   -1842.84793560 Ry
     Harris-Foulkes estimate   =   -1842.84794081 Ry
     estimated scf accuracy    <       0.00028785 Ry

     iteration #  7     ecut=    60.00 Ry     beta= 0.70
     Davidson diagonalization with overlap
     ethr =  1.27E-07,  avg # of iterations =  1.0

     negative rho (up, down):  1.543E-03 0.000E+00

     total cpu time spent up to now is      865.6 secs

     total energy              =   -1842.84793275 Ry
     Harris-Foulkes estimate   =   -1842.84793819 Ry
     estimated scf accuracy    <       0.00015968 Ry

     iteration #  8     ecut=    60.00 Ry     beta= 0.70
     Davidson diagonalization with overlap
     ethr =  7.03E-08,  avg # of iterations =  1.0

     negative rho (up, down):  1.541E-03 0.000E+00

     total cpu time spent up to now is      878.4 secs

     total energy              =   -1842.84793340 Ry
     Harris-Foulkes estimate   =   -1842.84793521 Ry
     estimated scf accuracy    <       0.00005579 Ry

     iteration #  9     ecut=    60.00 Ry     beta= 0.70
     Davidson diagonalization with overlap
     ethr =  2.46E-08,  avg # of iterations =  1.0

     negative rho (up, down):  1.537E-03 0.000E+00

     total cpu time spent up to now is      891.3 secs

     total energy              =   -1842.84793389 Ry
     Harris-Foulkes estimate   =   -1842.84793437 Ry
     estimated scf accuracy    <       0.00002157 Ry

     iteration # 10     ecut=    60.00 Ry     beta= 0.70
     Davidson diagonalization with overlap
     ethr =  9.50E-09,  avg # of iterations =  1.0

     negative rho (up, down):  1.536E-03 0.000E+00

     total cpu time spent up to now is      904.4 secs

     total energy              =   -1842.84793405 Ry
     Harris-Foulkes estimate   =   -1842.84793423 Ry
     estimated scf accuracy    <       0.00000449 Ry

     iteration # 11     ecut=    60.00 Ry     beta= 0.70
     Davidson diagonalization with overlap
     ethr =  1.98E-09,  avg # of iterations =  1.9

     negative rho (up, down):  1.534E-03 0.000E+00

     total cpu time spent up to now is      917.8 secs

     total energy              =   -1842.84793415 Ry
     Harris-Foulkes estimate   =   -1842.84793418 Ry
     estimated scf accuracy    <       0.00000134 Ry

     iteration # 12     ecut=    60.00 Ry     beta= 0.70
     Davidson diagonalization with overlap
     ethr =  5.91E-10,  avg # of iterations =  2.3

     negative rho (up, down):  1.533E-03 0.000E+00

     total cpu time spent up to now is      931.9 secs

     total energy              =   -1842.84793416 Ry
     Harris-Foulkes estimate   =   -1842.84793418 Ry
     estimated scf accuracy    <       0.00000044 Ry

     iteration # 13     ecut=    60.00 Ry     beta= 0.70
     Davidson diagonalization with overlap
     ethr =  1.95E-10,  avg # of iterations =  1.9

     negative rho (up, down):  1.531E-03 0.000E+00

     total cpu time spent up to now is      945.7 secs

     total energy              =   -1842.84793417 Ry
     Harris-Foulkes estimate   =   -1842.84793418 Ry
     estimated scf accuracy    <       0.00000020 Ry

     iteration # 14     ecut=    60.00 Ry     beta= 0.70
     Davidson diagonalization with overlap
     ethr =  9.03E-11,  avg # of iterations =  1.4

     negative rho (up, down):  1.530E-03 0.000E+00

     total cpu time spent up to now is      958.8 secs

     total energy              =   -1842.84793418 Ry
     Harris-Foulkes estimate   =   -1842.84793418 Ry
     estimated scf accuracy    <       0.00000018 Ry

     iteration # 15     ecut=    60.00 Ry     beta= 0.70
     Davidson diagonalization with overlap
     ethr =  8.11E-11,  avg # of iterations =  1.0

     negative rho (up, down):  1.530E-03 0.000E+00

     total cpu time spent up to now is      971.7 secs

     total energy              =   -1842.84793418 Ry
     Harris-Foulkes estimate   =   -1842.84793418 Ry
     estimated scf accuracy    <       0.00000015 Ry

     iteration # 16     ecut=    60.00 Ry     beta= 0.70
     Davidson diagonalization with overlap
     ethr =  6.71E-11,  avg # of iterations =  1.0

     negative rho (up, down):  1.530E-03 0.000E+00

     total cpu time spent up to now is      984.7 secs

     total energy              =   -1842.84793418 Ry
     Harris-Foulkes estimate   =   -1842.84793418 Ry
     estimated scf accuracy    <       0.00000007 Ry

     iteration # 17     ecut=    60.00 Ry     beta= 0.70
     Davidson diagonalization with overlap
     ethr =  3.00E-11,  avg # of iterations =  1.0

     negative rho (up, down):  1.529E-03 0.000E+00

     total cpu time spent up to now is      997.6 secs

     total energy              =   -1842.84793418 Ry
     Harris-Foulkes estimate   =   -1842.84793418 Ry
     estimated scf accuracy    <       0.00000002 Ry

     iteration # 18     ecut=    60.00 Ry     beta= 0.70
     Davidson diagonalization with overlap
     ethr =  1.08E-11,  avg # of iterations =  1.2

     negative rho (up, down):  1.529E-03 0.000E+00

     total cpu time spent up to now is     1010.6 secs

     total energy              =   -1842.84793418 Ry
     Harris-Foulkes estimate   =   -1842.84793418 Ry
     estimated scf accuracy    <       0.00000001 Ry

     iteration # 19     ecut=    60.00 Ry     beta= 0.70
     Davidson diagonalization with overlap
     ethr =  5.48E-12,  avg # of iterations =  1.3

     negative rho (up, down):  1.529E-03 0.000E+00

     total cpu time spent up to now is     1024.1 secs

     total energy              =   -1842.84793418 Ry
     Harris-Foulkes estimate   =   -1842.84793418 Ry
     estimated scf accuracy    <       0.00000001 Ry

     iteration # 20     ecut=    60.00 Ry     beta= 0.70
     Davidson diagonalization with overlap
     ethr =  4.41E-12,  avg # of iterations =  1.0

     negative rho (up, down):  1.529E-03 0.000E+00

     total cpu time spent up to now is     1037.4 secs

     total energy              =   -1842.84793418 Ry
     Harris-Foulkes estimate   =   -1842.84793418 Ry
     estimated scf accuracy    <          2.4E-09 Ry

     iteration # 21     ecut=    60.00 Ry     beta= 0.70
     Davidson diagonalization with overlap
     ethr =  1.04E-12,  avg # of iterations =  1.7

     negative rho (up, down):  1.529E-03 0.000E+00

     total cpu time spent up to now is     1051.4 secs

     total energy              =   -1842.84793418 Ry
     Harris-Foulkes estimate   =   -1842.84793418 Ry
     estimated scf accuracy    <          8.8E-10 Ry

     iteration # 22     ecut=    60.00 Ry     beta= 0.70
     Davidson diagonalization with overlap
     ethr =  3.86E-13,  avg # of iterations =  2.4

     negative rho (up, down):  1.529E-03 0.000E+00

     total cpu time spent up to now is     1066.2 secs

     total energy              =   -1842.84793418 Ry
     Harris-Foulkes estimate   =   -1842.84793418 Ry
     estimated scf accuracy    <          1.5E-10 Ry

     iteration # 23     ecut=    60.00 Ry     beta= 0.70
     Davidson diagonalization with overlap
     ethr =  1.00E-13,  avg # of iterations =  3.0

     negative rho (up, down):  1.529E-03 0.000E+00

     total cpu time spent up to now is     1081.7 secs

     total energy              =   -1842.84793418 Ry
     Harris-Foulkes estimate   =   -1842.84793418 Ry
     estimated scf accuracy    <          1.2E-10 Ry

     iteration # 24     ecut=    60.00 Ry     beta= 0.70
     Davidson diagonalization with overlap
     ethr =  1.00E-13,  avg # of iterations =  1.0

     negative rho (up, down):  1.529E-03 0.000E+00

     total cpu time spent up to now is     1094.9 secs

     End of self-consistent calculation

          k = 0.0000 0.0000 0.0000 ( 34267 PWs)   bands (ev):

   -36.5907 -35.5316 -22.7398 -22.6964 -22.4864 -22.3180 -17.8279 -17.6311
   -17.6066 -17.0364 -16.5826 -16.5713 -15.2482 -15.1777 -14.9514 -14.8822
   -14.6200 -14.5179 -14.4675 -14.1302 -14.1151 -13.9588 -13.9295 -13.7687
   -13.7157 -13.7110 -13.5957  -7.9234  -7.8711  -7.8336  -7.6995  -7.6743
    -7.6406  -7.5628  -7.5277  -7.4270  -7.4077  -7.3627  -7.2363  -2.2791
    -2.2566  -1.9923  -1.8117  -1.7781  -1.7410  -1.7081  -1.6154  -1.4838
    -1.4275  -1.2693  -1.2274  -1.1749  -1.1703  -1.1691  -1.1033  -0.9240
    -0.9137  -0.6981  -0.4074  -0.3256  -0.3135  -0.2609  -0.2532  -0.2245
    -0.2135  -0.2125  -0.1947  -0.1883  -0.1857  -0.1566  -0.1531  -0.1154
    -0.0768  -0.0308  -0.0106   0.0139   0.0945   0.1470   0.1502   0.1502
     0.1556   0.1602   0.2256   0.2274   0.2660   0.3699   0.3779   0.3897
     0.6431   0.7118   0.8293   0.8488   0.9332   1.0079   1.0086   1.0344
     1.1544   1.2132   1.2361   1.3306   1.4010   1.4312   1.5339   1.5737
     1.5783   1.6730   1.6758   1.7787   1.8833   2.0840   2.0852   2.0976
     2.1265   2.2247   2.2527   2.3226   2.3294   2.5600   2.5870   5.2130
     5.2690   5.5073   5.9910   6.3732   6.8155   7.0021   7.2551   7.3653
     8.0176   8.0585   8.2125   8.3701   8.6075   8.6308   8.8258   8.8838
     8.9274

          k = 0.0000 0.1320 0.0000 ( 34203 PWs)   bands (ev):

   -36.5889 -35.5298 -22.7131 -22.6721 -22.4610 -22.2904 -17.8279 -17.6362
   -17.6290 -17.0002 -16.6439 -16.5802 -15.1595 -15.1090 -14.9017 -14.8293
   -14.6250 -14.4906 -14.4395 -14.1396 -14.1244 -13.9950 -13.9353 -13.8126
   -13.7624 -13.7452 -13.6532  -7.9138  -7.8706  -7.7857  -7.6836  -7.6743
    -7.6557  -7.6128  -7.4826  -7.4141  -7.4097  -7.3781  -7.2731  -2.3387
    -2.2994  -2.1188  -2.0866  -2.0362  -1.9994  -1.7889  -1.7361  -1.6995
    -1.5952  -1.5932  -1.5848  -1.4661  -1.3203  -1.2297  -1.1865  -1.1068
    -0.8693  -0.7484  -0.5861  -0.5755  -0.5214  -0.5048  -0.4333  -0.4101
    -0.3753  -0.2811  -0.2436  -0.2318  -0.2132  -0.1640  -0.1164  -0.0966
    -0.0893  -0.0566  -0.0018   0.0354   0.0583   0.0968   0.1737   0.1879
     0.2033   0.2336   0.2446   0.2955   0.3272   0.3465   0.4243   0.6906
     0.7242   0.8512   0.8538   0.9759   1.0440   1.0974   1.1303   1.1952
     1.2303   1.2401   1.2468   1.3851   1.4651   1.5198   1.5538   1.5884
     1.6046   1.6354   1.7283   1.7610   1.8741   1.9735   2.0249   2.0776
     2.0852   2.0995   2.1572   2.4896   2.8546   2.8695   2.9388   5.5824
     5.6444   5.7953   6.2389   6.6348   7.1191   7.3235   7.5359   7.6280
     8.1960   8.2310   8.3824   8.5671   8.6868   8.7825   8.8357   8.8942
     9.0607

          k = 0.0000 0.2640 0.0000 ( 34079 PWs)   bands (ev):

   -36.5846 -35.5253 -22.6472 -22.6122 -22.3984 -22.2220 -17.8619 -17.6689
[...]

   -36.5152 -35.5181 -22.5334 -22.4942 -22.2897 -22.1906 -17.8504 -17.6826
   -17.5331 -16.9181 -16.7858 -16.7118 -14.7660 -14.6003 -14.5576 -14.4750
   -14.3891 -14.3238 -14.3142 -14.2187 -14.1611 -14.0468 -14.0449 -13.9918
   -13.9497 -13.9252 -13.8112  -8.3061  -8.2553  -8.0509  -7.9634  -7.9329
    -7.8939  -7.8265  -7.7716  -7.6395  -7.6003  -7.5509  -7.4764  -3.5331
    -3.4417  -3.3772  -3.3310  -3.1491  -2.9140  -2.8977  -2.3996  -2.3355
    -2.2378  -2.2098  -2.0847  -2.0154  -1.8905  -1.8784  -1.7565  -1.7038
    -1.5735  -1.5271  -1.4116  -1.3440  -1.2537  -1.1373  -1.0854  -1.0252
    -0.8768  -0.8138  -0.7582  -0.7515  -0.7483  -0.6921  -0.6553  -0.5526
    -0.4873  -0.3704  -0.3535   0.1003   0.2113   0.3108   0.4154   0.5002
     0.7334   0.8228   0.8712   1.0043   1.0301   1.0608   1.1366   1.3000
     1.3395   1.3762   1.3862   1.4015   1.5379   1.5523   1.5641   1.5949
     1.6657   1.6803   1.7586   1.7849   1.8236   1.8309   1.8509   1.9308
     1.9748   1.9760   2.0380   2.1395   2.2004   2.3089   2.3320   2.4541
     2.8709   2.9193   3.5542   3.6434   3.7139   3.7941   4.3563   6.3818
     6.7121   6.9182   7.1027   7.8041   8.1641   8.6357   8.7612   8.8513
     8.9899   9.0979   9.1512   9.3306   9.4393   9.7316   9.8472   9.9288
    10.0154

          k = 0.2500-0.5279 0.0000 ( 34148 PWs)   bands (ev):

   -36.5135 -35.5163 -22.5079 -22.4710 -22.2652 -22.1644 -17.8854 -17.6790
   -17.5220 -16.9683 -16.7803 -16.6722 -14.7627 -14.5545 -14.4296 -14.3310
   -14.3113 -14.2944 -14.2820 -14.2675 -14.1697 -14.1109 -14.0160 -14.0155
   -13.9987 -13.9778 -13.8046  -8.3063  -8.2884  -8.0546  -8.0211  -7.9609
    -7.9020  -7.8936  -7.8872  -7.6925  -7.6671  -7.6462  -7.5421  -3.7720
    -3.6579  -3.6224  -3.5730  -3.3420  -3.1416  -3.1272  -2.4070  -2.3327
    -2.2300  -2.1655  -2.0521  -2.0485  -1.9566  -1.9083  -1.8527  -1.8202
    -1.7231  -1.6024  -1.4589  -1.3869  -1.3072  -1.2095  -1.1730  -1.1176
    -0.9240  -0.8897  -0.8350  -0.8150  -0.7635  -0.6872  -0.6524  -0.5569
    -0.5009  -0.3972  -0.3728   0.1079   0.2517   0.3267   0.4350   0.5336
     0.7881   0.8859   0.9582   1.0058   1.0878   1.1327   1.2165   1.2496
     1.3190   1.4235   1.4331   1.4970   1.5118   1.5146   1.5598   1.6734
     1.7704   1.7785   1.8416   1.9647   1.9946   2.0080   2.0453   2.0810
     2.0904   2.1107   2.1311   2.2019   2.3902   2.4844   2.4901   2.5062
     2.6497   2.6982   3.5746   3.7094   3.7487   3.8624   4.5096   6.2872
     6.7029   6.8829   7.0933   7.7741   8.3894   8.5936   8.8380   8.8621
     9.2228   9.3486   9.4853   9.5702   9.7539   9.7797   9.8787   9.9278
    10.1173

          k = 0.3750 0.0000 0.0000 ( 34140 PWs)   bands (ev):

   -36.5232 -35.5260 -22.6310 -22.5823 -22.3835 -22.2908 -17.7862 -17.6381
   -17.5385 -16.9677 -16.8230 -16.5641 -15.0419 -14.9912 -14.8787 -14.7844
   -14.6011 -14.5501 -14.5443 -14.2304 -14.1640 -14.0995 -14.0710 -13.9726
   -13.9384 -13.8630 -13.7073  -8.0381  -7.8797  -7.6802  -7.6193  -7.5083
    -7.4701  -7.4421  -7.3668  -7.3336  -7.2907  -7.1783  -7.1122  -2.8411
    -2.8122  -2.7094  -2.6564  -2.2797  -2.1708  -2.0392  -1.6110  -1.5299
    -1.4828  -1.4482  -1.3805  -1.2445  -1.2353  -1.1643  -1.1642  -1.1514
    -1.1384  -1.0869  -1.0672  -0.9663  -0.9244  -0.8425  -0.8271  -0.7731
    -0.6786  -0.6327  -0.5436  -0.5075  -0.3843  -0.3597  -0.2109  -0.2042
    -0.1848  -0.1786  -0.1033  -0.0380   0.1159   0.1185   0.1745   0.2250
     0.2652   0.2707   0.2909   0.3414   0.4550   0.4795   0.5116   0.5193
     0.5819   0.7919   0.8553   0.8920   0.9246   1.1452   1.2359   1.2537
     1.2823   1.3153   1.3338   1.4011   1.4946   1.5576   1.5930   1.6602
     1.7390   1.7484   1.8338   1.8650   1.9135   1.9726   2.0442   2.0667
     2.1823   2.2350   2.3626   2.5228   2.6505   2.8555   2.9020   6.5560
     6.6192   6.7790   6.8714   7.8243   8.0435   8.0530   8.1810   8.5265
     8.5971   8.6758   8.7591   9.0182   9.1923   9.3768   9.4437   9.5196
     9.5484

          k = 0.3750 0.1320 0.0000 ( 34185 PWs)   bands (ev):

   -36.5215 -35.5242 -22.6093 -22.5623 -22.3625 -22.2686 -17.7810 -17.6590
   -17.5486 -16.9591 -16.7939 -16.6286 -14.9706 -14.9432 -14.8244 -14.7347
   -14.5604 -14.4964 -14.4893 -14.2115 -14.1359 -14.0756 -14.0541 -13.9569
   -13.9509 -13.8966 -13.7193  -8.0368  -7.9374  -7.7825  -7.7082  -7.6960
    -7.5924  -7.5318  -7.5208  -7.4316  -7.4276  -7.2704  -7.1980  -2.9028
    -2.8651  -2.7432  -2.7004  -2.2785  -2.1787  -2.0416  -1.9935  -1.9158
    -1.8133  -1.7177  -1.6454  -1.5652  -1.5621  -1.4347  -1.3924  -1.3253
    -1.2833  -1.2610  -1.1486  -1.0954  -1.0671  -0.9977  -0.8716  -0.7501
    -0.6618  -0.6519  -0.5867  -0.5179  -0.4991  -0.3666  -0.3392  -0.2444
    -0.2169  -0.1834  -0.0062   0.0662   0.1125   0.1660   0.2252   0.2389
     0.2664   0.3618   0.4718   0.4940   0.5204   0.6044   0.7184   0.8392
     0.8419   0.8797   1.0144   1.1057   1.1570   1.2048   1.2359   1.2829
     1.3352   1.3689   1.4112   1.4791   1.4849   1.5903   1.6215   1.6802
     1.7634   1.7785   1.8360   1.8463   1.8846   1.9494   2.0254   2.3044
     2.7736   2.7945   2.8246   2.9802   3.0386   3.1703   3.1999   6.6544
     6.7053   6.7619   6.8735   7.8714   7.9971   8.1165   8.2343   8.5499
     8.6209   8.8495   8.9634   9.0559   9.3001   9.3726   9.4405   9.5409
     9.5808

          k = 0.3750 0.2640 0.0000 ( 34193 PWs)   bands (ev):

   -36.5173 -35.5198 -22.5560 -22.5132 -22.3110 -22.2139 -17.7754 -17.7340
   -17.5374 -16.9388 -16.7729 -16.7187 -14.8233 -14.7721 -14.6818 -14.6053
   -14.4648 -14.3762 -14.3402 -14.1829 -14.0954 -14.0625 -14.0283 -13.9748
   -13.9383 -13.9007 -13.7700  -8.2388  -8.1570  -8.0158  -7.9173  -7.9051
    -7.9043  -7.7950  -7.7306  -7.6410  -7.5796  -7.5391  -7.4389  -3.2188
    -3.1918  -2.9637  -2.9391  -2.6291  -2.4580  -2.4499  -2.3846  -2.3301
    -2.3001  -2.2840  -2.1994  -2.1566  -1.9902  -1.8142  -1.7275  -1.6073
    -1.5276  -1.5034  -1.2083  -1.1365  -1.0164  -0.9477  -0.8676  -0.8422
    -0.8300  -0.8068  -0.7401  -0.7209  -0.7035  -0.6212  -0.5962  -0.5778
    -0.4327  -0.3226  -0.2900   0.1025   0.2411   0.3227   0.4966   0.5582
     0.7422   0.7628   0.7977   0.8808   0.9562   1.0584   1.1127   1.1521
     1.1639   1.2226   1.2801   1.3790   1.4446   1.4583   1.4739   1.5501
     1.5851   1.6123   1.6524   1.6904   1.7542   1.7744   1.8006   1.8212
     1.8329   1.8741   1.8822   1.9065   1.9215   2.1124   2.1941   2.3160
     3.0402   3.0867   3.7464   3.7669   3.8144   3.9188   3.9213   6.2597
     6.6566   6.7508   6.9084   7.6947   8.0645   8.4565   8.5297   8.7966
     8.8901   9.0483   9.2861   9.3591   9.4667   9.5305   9.5905   9.7028
     9.8567

          k = 0.3750 0.3960 0.0000 ( 34177 PWs)   bands (ev):

   -36.5131 -35.5155 -22.5013 -22.4630 -22.2583 -22.1578 -17.8400 -17.7474
   -17.5123 -16.9215 -16.8997 -16.6389 -14.6882 -14.5217 -14.5018 -14.4447
   -14.3736 -14.2667 -14.1882 -14.1828 -14.1750 -14.0382 -14.0288 -13.9688
   -13.9359 -13.8863 -13.8176  -8.5046  -8.4602  -8.2454  -8.1696  -8.1589
    -8.0328  -7.9666  -7.9197  -7.8383  -7.8175  -7.6782  -7.5708  -3.7526
    -3.6954  -3.4991  -3.4050  -3.3239  -2.8934  -2.8795  -2.5848  -2.5801
    -2.5527  -2.4184  -2.2280  -2.1667  -2.1382  -2.0379  -1.9874  -1.7997
    -1.7952  -1.6387  -1.2754  -1.1855  -1.1570  -1.1399  -1.0993  -1.0367
    -0.9082  -0.8684  -0.8274  -0.8157  -0.7975  -0.7426  -0.7273  -0.6536
    -0.6236  -0.3444  -0.2800   0.2144   0.3227   0.3903   0.6262   0.7361
     0.9825   1.0395   1.1128   1.2102   1.2988   1.3210   1.3957   1.4073
     1.5031   1.5278   1.5357   1.6138   1.6330   1.6559   1.7122   1.7429
     1.8144   1.8298   1.8754   1.9197   1.9443   1.9880   2.0057   2.0256
     2.0576   2.0699   2.1386   2.2221   2.2306   2.2546   2.4406   2.4873
     2.8617   2.9255   4.2430   4.3109   4.3674   4.4028   4.5054   5.8030
     6.4403   6.4486   6.6398   7.4304   8.3424   8.7682   8.8840   9.0223
     9.0833   9.3570   9.4112   9.4587   9.5412   9.5565   9.6814   9.6913
     9.8067

          k = 0.3750-0.5279 0.0000 ( 34192 PWs)   bands (ev):

   -36.5114 -35.5137 -22.4782 -22.4418 -22.2360 -22.1341 -17.8764 -17.7431
   -17.5006 -16.9549 -16.9089 -16.6035 -14.6270 -14.4056 -14.3999 -14.3452
   -14.2825 -14.2607 -14.2324 -14.2128 -14.0916 -14.0439 -14.0074 -14.0035
   -13.9910 -13.9171 -13.7845  -8.5866  -8.5720  -8.3314  -8.3147  -8.2350
    -8.1843  -7.9940  -7.9800  -7.9458  -7.9019  -7.6901  -7.6067  -3.9913
    -3.9023  -3.7430  -3.6514  -3.5445  -3.1186  -3.1057  -2.6006  -2.5986
    -2.5672  -2.4307  -2.2517  -2.2223  -2.1646  -2.1446  -1.9801  -1.8912
    -1.8785  -1.6693  -1.3455  -1.2771  -1.2493  -1.1921  -1.1624  -1.1080
    -0.9068  -0.9026  -0.8854  -0.8821  -0.8276  -0.8271  -0.7579  -0.6707
    -0.5938  -0.3301  -0.2603   0.2352   0.3513   0.4061   0.6704   0.8104
     1.0438   1.1830   1.2448   1.3188   1.3430   1.3595   1.4067   1.4950
     1.5968   1.6459   1.6685   1.6727   1.7243   1.7559   1.8141   1.8779
     1.8797   1.9872   1.9919   2.0330   2.0634   2.0871   2.1087   2.1595
     2.1686   2.1986   2.3036   2.3387   2.4211   2.4308   2.5431   2.6162
     2.6194   2.6953   4.3475   4.4640   4.5320   4.5630   4.6815   5.6061
     6.2698   6.3423   6.5013   7.3398   8.6478   8.6562   8.7423   9.0069
     9.1865   9.3563   9.4220   9.5165   9.5284   9.8079   9.8248   9.8322
     9.9693

          k =-0.5000 0.0000 0.0000 ( 34130 PWs)   bands (ev):

   -36.5223 -35.5249 -22.6118 -22.5644 -22.3653 -22.2713 -17.8066 -17.6317
   -17.5374 -17.0201 -16.7808 -16.5627 -15.0835 -15.0451 -14.9037 -14.7202
   -14.6169 -14.4746 -14.3402 -14.2920 -14.2686 -14.1465 -14.0700 -14.0149
   -14.0053 -13.8759 -13.7205  -8.0448  -7.8694  -7.6630  -7.5961  -7.4950
    -7.4492  -7.4059  -7.3335  -7.3209  -7.2707  -7.1447  -7.0754  -2.9830
    -2.9504  -2.8779  -2.7998  -2.3046  -2.1668  -2.0524  -1.6015  -1.5630
    -1.4404  -1.3602  -1.3221  -1.2778  -1.2717  -1.2563  -1.1705  -1.1681
    -1.1629  -1.1397  -1.1235  -1.1013  -1.0173  -0.9405  -0.9099  -0.8484
    -0.7622  -0.6830  -0.6217  -0.5111  -0.4434  -0.4073  -0.2244  -0.2083
    -0.1873  -0.1647  -0.1352  -0.0760   0.1107   0.1132   0.1716   0.1830
     0.2668   0.2776   0.2785   0.3458   0.4520   0.4548   0.4797   0.5118
     0.5742   0.7797   0.8565   0.8776   0.8942   1.1856   1.2082   1.2719
     1.2781   1.4177   1.4511   1.4681   1.5279   1.5563   1.6142   1.6439
     1.7054   1.7312   1.7921   1.9229   2.0115   2.0557   2.0596   2.0724
     2.1968   2.2501   2.3637   2.5330   2.6662   2.8913   2.9492   6.9128
     7.2371   7.3286   7.3808   7.4505   7.4585   7.8492   8.3239   8.5412
     8.6007   8.9540   9.0828   9.1828   9.4525   9.5100   9.5114   9.6274
     9.8356

          k =-0.5000 0.1320 0.0000 ( 34202 PWs)   bands (ev):

   -36.5206 -35.5231 -22.5910 -22.5452 -22.3452 -22.2500 -17.8010 -17.6565
   -17.5439 -17.0109 -16.7533 -16.6264 -15.0096 -14.9860 -14.8426 -14.6732
   -14.5767 -14.4314 -14.2991 -14.2647 -14.2107 -14.1244 -14.0524 -14.0106
   -13.9829 -13.9133 -13.7257  -8.0413  -7.9085  -7.7255  -7.6823  -7.6089
    -7.5759  -7.5649  -7.5528  -7.4384  -7.3985  -7.3577  -7.2615  -3.0511
    -3.0098  -2.9154  -2.8517  -2.3096  -2.1889  -2.0649  -1.9620  -1.8576
    -1.7566  -1.7083  -1.5941  -1.5598  -1.5573  -1.4743  -1.4614  -1.4377
    -1.3758  -1.3139  -1.2545  -1.1886  -1.1009  -1.0391  -0.9049  -0.8179
    -0.7064  -0.6458  -0.6432  -0.5333  -0.4997  -0.4033  -0.3739  -0.2456
    -0.2409  -0.2218  -0.0202   0.0769   0.1202   0.1814   0.2321   0.2486
     0.3371   0.3487   0.3707   0.5661   0.5805   0.6037   0.6514   0.7687
     0.8213   0.8805   1.0171   1.1020   1.1270   1.2154   1.2300   1.3312
     1.3356   1.4183   1.4717   1.4953   1.5667   1.6438   1.6463   1.6926
     1.7697   1.7968   1.8046   1.9304   1.9759   2.0297   2.0998   2.2825
     2.7738   2.8005   2.8410   2.9953   3.0599   3.2305   3.2564   6.6958
     7.0564   7.1763   7.3051   7.6836   7.7547   7.9244   8.2308   8.5317
     8.6303   9.0524   9.2861   9.3534   9.4401   9.6180   9.6427   9.7636
     9.8183

          k =-0.5000 0.2640 0.0000 ( 34216 PWs)   bands (ev):

   -36.5165 -35.5188 -22.5400 -22.4980 -22.2957 -22.1977 -17.7877 -17.7429
   -17.5292 -16.9889 -16.7697 -16.6822 -14.8426 -14.7928 -14.6789 -14.5539
   -14.4810 -14.3277 -14.2092 -14.1952 -14.1138 -14.0737 -14.0209 -14.0166
   -13.9797 -13.9045 -13.7624  -8.1776  -8.1179  -8.0267  -7.9921  -7.8834
    -7.8791  -7.8583  -7.8482  -7.7036  -7.6959  -7.6379  -7.4898  -3.3566
    -3.3236  -3.1148  -3.0841  -2.6215  -2.4849  -2.4753  -2.4109  -2.3425
    -2.3164  -2.2820  -2.2072  -2.1591  -2.0069  -1.9314  -1.8479  -1.6306
    -1.6153  -1.6094  -1.1358  -1.0720  -0.9494  -0.9172  -0.9124  -0.8627
    -0.8616  -0.8399  -0.7981  -0.7475  -0.7127  -0.6484  -0.6222  -0.6031
    -0.4346  -0.3432  -0.2917   0.1204   0.2742   0.3681   0.5468   0.6070
     0.7865   0.8433   0.8582   0.9048   0.9690   1.1352   1.1424   1.1836
     1.2302   1.2434   1.2500   1.3560   1.4541   1.4673   1.5292   1.5771
     1.6141   1.6344   1.6674   1.7509   1.7695   1.8009   1.8139   1.8826
     1.9156   1.9404   1.9645   1.9993   2.0208   2.0389   2.2347   2.2521
     3.0337   3.0798   3.8071   3.8748   3.9177   4.0464   4.0716   6.1355
     6.6695   6.7464   6.8832   7.6290   8.1716   8.4940   8.4976   8.8195
     9.0503   9.1981   9.2859   9.5060   9.6409   9.6581   9.7001   9.8835
     9.9322

          k =-0.5000 0.3960 0.0000 ( 34176 PWs)   bands (ev):

   -36.5123 -35.5145 -22.4878 -22.4499 -22.2451 -22.1441 -17.8350 -17.7745
   -17.5034 -16.9673 -16.8988 -16.6066 -14.6591 -14.5198 -14.4701 -14.4202
   -14.3930 -14.2417 -14.1755 -14.1681 -14.0855 -14.0255 -14.0206 -13.9938
   -13.9199 -13.8775 -13.8205  -8.5528  -8.5226  -8.3147  -8.2935  -8.2061
    -8.1794  -7.9918  -7.9800  -7.9448  -7.9359  -7.6832  -7.5910  -3.8688
    -3.8254  -3.6014  -3.5089  -3.3348  -2.8848  -2.8720  -2.6670  -2.6572
    -2.6499  -2.4869  -2.2443  -2.2367  -2.1769  -2.1309  -1.9966  -1.8727
    -1.8272  -1.6940  -1.1944  -1.1872  -1.1822  -1.0849  -1.0541  -0.9956
    -0.9947  -0.9391  -0.8684  -0.8354  -0.7858  -0.7835  -0.7257  -0.7184
    -0.6247  -0.3063  -0.2456   0.2474   0.3624   0.4285   0.7215   0.8318
     1.0697   1.1821   1.1937   1.3375   1.3579   1.4275   1.4401   1.5285
     1.5373   1.6003   1.6065   1.6133   1.6426   1.6951   1.7464   1.7817
     1.8405   1.9069   1.9393   1.9464   2.0134   2.0215   2.0468   2.1006
     2.1135   2.1223   2.2001   2.2277   2.2687   2.3450   2.4287   2.5567
     2.8507   2.9147   4.2560   4.5625   4.6077   4.6367   4.7727   5.5790
     6.2515   6.3827   6.3931   7.2805   8.4855   8.6672   8.8774   8.9751
     9.1703   9.3344   9.4111   9.4939   9.5685   9.6745   9.7957   9.8378
     9.8445

          k =-0.5000-0.5279 0.0000 ( 34236 PWs)   bands (ev):

   -36.5106 -35.5127 -22.4658 -22.4296 -22.2238 -22.1215 -17.8727 -17.7690
   -17.4917 -16.9585 -16.9495 -16.5731 -14.5614 -14.4046 -14.3853 -14.3177
   -14.2823 -14.2520 -14.2133 -14.1704 -14.0409 -14.0151 -14.0039 -14.0016
   -13.9871 -13.8796 -13.7899  -8.6988  -8.6874  -8.4434  -8.4308  -8.3444
    -8.3032  -8.0943  -8.0379  -7.9936  -7.9627  -7.6962  -7.6290  -4.1074
    -4.0341  -3.8401  -3.7182  -3.5919  -3.1091  -3.0970  -2.7019  -2.6872
    -2.6824  -2.5142  -2.3386  -2.2344  -2.2208  -2.1774  -1.9828  -1.9510
    -1.8959  -1.7200  -1.3035  -1.2963  -1.2408  -1.1792  -1.1176  -1.0637
    -0.9702  -0.9303  -0.9300  -0.9142  -0.8451  -0.8271  -0.8078  -0.7511
    -0.5744  -0.2775  -0.2175   0.2745   0.3882   0.4438   0.7786   0.9341
     1.1418   1.2935   1.3995   1.4163   1.4220   1.4438   1.4590   1.6154
     1.6400   1.6851   1.7002   1.7209   1.8029   1.8538   1.9115   1.9262
     1.9793   2.0225   2.0657   2.1166   2.1218   2.1310   2.1609   2.1698
     2.2037   2.2521   2.3925   2.4055   2.4519   2.4831   2.5968   2.6050
     2.6735   2.7246   4.3481   4.7664   4.8351   4.8608   4.9991   5.3440
     6.0244   6.1685   6.3020   7.1767   8.6510   8.6741   8.7532   9.0815
     9.1420   9.1827   9.2225   9.2294   9.5686   9.6226   9.7573   9.8137
    10.0739

     the Fermi energy is     2.6195 ev

!    total energy              =   -1842.85550044 Ry
     Harris-Foulkes estimate   =   -1842.85550044 Ry
     estimated scf accuracy    <          1.4E-12 Ry

     The total energy is the sum of the following terms:

     one-electron contribution =  -30478.11082786 Ry
     hartree contribution      =   15392.39583146 Ry
     xc contribution           =    -621.71376701 Ry
     ewald contribution        =   13864.58136909 Ry
     smearing contrib. (-TS)   =      -0.00810612 Ry

     convergence has been achieved in  31 iterations

     negative rho (up, down):  1.536E-03 0.000E+00

     Forces acting on atoms (cartesian axes, Ry/au):

     atom    1 type  4   force =     0.00000000    0.00000000   -0.00016378
     atom    2 type  3   force =     0.00000000    0.00000000    0.00039803
     atom    3 type  4   force =     0.00000000    0.00000000   -0.00077835
     atom    4 type  1   force =     0.00000000    0.00000000   -0.00028199
     atom    5 type  3   force =     0.00000000    0.00000000    0.00056112
     atom    6 type  4   force =     0.00000000    0.00000000   -0.00005214
     atom    7 type  4   force =     0.00000000    0.00000000    0.00028812
     atom    8 type  2   force =     0.00000000    0.00000000   -0.00051779
     atom    9 type  4   force =     0.00000000    0.00000000    0.00012551
     atom   10 type  4   force =     0.00000000    0.00000000    0.00016683
     atom   11 type  3   force =     0.00000000    0.00000000    0.00014622
     atom   12 type  1   force =     0.00000000    0.00000000   -0.00181880
     atom   13 type  4   force =     0.00000000    0.00000000    0.00260957
     atom   14 type  4   force =     0.00000000    0.00000000    0.00095207
     atom   15 type  3   force =     0.00000000    0.00000000   -0.02327704
     atom   16 type  4   force =     0.00000000    0.00000000    0.01772148
     atom   17 type  1   force =     0.00000000    0.00000000    0.00943686
     atom   18 type  3   force =     0.00000000    0.00000000   -0.01171158
     atom   19 type  4   force =     0.00000000    0.00000000    0.00859190
     atom   20 type  4   force =     0.00000000    0.00000000    0.02788532
     atom   21 type  2   force =     0.00000000    0.00000000    0.02733262
     atom   22 type  4   force =     0.00000000    0.00000000   -0.03261379
     atom   23 type  4   force =     0.00000000    0.00000000   -0.02580073
     atom   24 type  3   force =     0.00000000    0.00000000    0.01140054
     atom   25 type  1   force =     0.00000000    0.00000000   -0.01277107
     atom   26 type  4   force =     0.00000000    0.00000000    0.00650721
     atom   27 type  3   force =     0.00000000    0.00000000   -0.00597655
     atom   28 type  4   force =     0.00000000    0.00000000    0.00164023

     Total force =     0.063230     Total SCF correction =     0.000004


     Computing stress (Cartesian axis) and pressure


     negative rho (up, down):  1.536E-03 0.000E+00
          total   stress  (Ry/bohr**3)                   (kbar)     P=       -3.62
  -0.00002824   0.00000000   0.00000000           -4.15        0.00        0.00
   0.00000000   0.00002705   0.00000000            0.00        3.98        0.00
   0.00000000   0.00000000  -0.00007269            0.00        0.00      -10.69


     number of scf cycles    =   5
     number of bfgs steps    =   3

     energy   old            =   -1842.8947453508 Ry
     energy   new            =   -1842.8555004389 Ry

     CASE: energy  _new > energy  _old


 %%%%%%%%%%%%%%%%%%%%%%%%%%%%%%%%%%%%%%%%%%%%%%%%%%%%%%%%%%%%%%%%%%%%%%%%%%%%%%
     Error in routine bfgs (1):
     dE0s is positive which should never happen
 %%%%%%%%%%%%%%%%%%%%%%%%%%%%%%%%%%%%%%%%%%%%%%%%%%%%%%%%%%%%%%%%%%%%%%%%%%%%%%

     stopping ...
