
     Program PWSCF v.6.5 starts on 28Jun2021 at 12:25:50 

     This program is part of the open-source Quantum ESPRESSO suite
     for quantum simulation of materials; please cite
         "P. Giannozzi et al., J. Phys.:Condens. Matter 21 395502 (2009);
         "P. Giannozzi et al., J. Phys.:Condens. Matter 29 465901 (2017);
          URL http://www.quantum-espresso.org", 
     in publications or presentations arising from this work. More details at
     http://www.quantum-espresso.org/quote

     Parallel version (MPI), running on    20 processors

     MPI processes distributed on     6 nodes
     R & G space division:  proc/nbgrp/npool/nimage =      20
     Reading input from CBCO_BaO_cleave_0.25_sep.pwi
Warning: card &CELL ignored
Warning: card     CELL_DYNAMICS = 'BFGS' ignored
Warning: card     PRESS_CONV_THR = 0.5 ignored
Warning: card / ignored

     Current dimensions of program PWSCF are:
     Max number of different atomic species (ntypx) = 10
     Max number of k-points (npk) =  40000
     Max angular momentum in pseudopotentials (lmaxx) =  3

     Subspace diagonalization in iterative solution of the eigenvalue problem:
     one sub-group per band group will be used
     scalapack distributed-memory algorithm (size of sub-group:  4*  4 procs)

     Message from routine setup:
     using ibrav=0 with symmetry is DISCOURAGED, use correct ibrav instead
 
     Parallelization info
     --------------------
     sticks:   dense  smooth     PW     G-vecs:    dense   smooth      PW
     Min         149      50     14                70565    13584    2122
     Max         150      51     15                70602    13609    2165
     Sum        2991    1007    289              1411709   271883   42721
 


     bravais-lattice index     =            0
     lattice parameter (alat)  =       7.4270  a.u.
     unit-cell volume          =    4326.9901 (a.u.)^3
     number of atoms/cell      =           28
     number of atomic types    =            4
     number of electrons       =       227.00
     number of Kohn-Sham states=          137
     kinetic-energy cutoff     =      60.0000  Ry
     charge density cutoff     =     720.0000  Ry
     convergence threshold     =      1.0E-08
     mixing beta               =       0.5000
     number of iterations used =           10  local-TF  mixing
     Exchange-correlation= SLA PW PBE PBE
                           (   1   4   3   4   0   0   0)
     nstep                     =          300


     celldm(1)=   7.427040  celldm(2)=   0.000000  celldm(3)=   0.000000
     celldm(4)=   0.000000  celldm(5)=   0.000000  celldm(6)=   0.000000

     crystal axes: (cart. coord. in units of alat)
               a(1) = (   1.000000   0.000000   0.000000 )  
               a(2) = (   0.000000   0.947081   0.000000 )  
               a(3) = (   0.000000   0.000000  11.151966 )  

     reciprocal axes: (cart. coord. in units 2 pi/alat)
               b(1) = (  1.000000  0.000000  0.000000 )  
               b(2) = (  0.000000  1.055876  0.000000 )  
               b(3) = (  0.000000  0.000000  0.089670 )  


     PseudoPot. # 1 for Ba read from file:
     ./pseudo/Ba.pbe-nsp-van.UPF
     MD5 check sum: 2b9c31dd849566dd297d80989662b7a0
     Pseudo is Ultrasoft + core correction, Zval = 10.0
     Generated by new atomic code, or converted to UPF format
     Using radial grid of  907 points,  6 beta functions with: 
                l(1) =   0
                l(2) =   0
                l(3) =   1
                l(4) =   1
                l(5) =   2
                l(6) =   2
     Q(r) pseudized with  6 coefficients,  rinner =    1.200   1.200   1.200
                                                       1.200   1.200

     PseudoPot. # 2 for Ca read from file:
     ./pseudo/Ca.pbe-nsp-van.UPF
     MD5 check sum: 6471098428ff4fa451746d08035ff179
     Pseudo is Ultrasoft + core correction, Zval = 10.0
     Generated by new atomic code, or converted to UPF format
     Using radial grid of  845 points,  6 beta functions with: 
                l(1) =   0
                l(2) =   0
                l(3) =   1
                l(4) =   1
                l(5) =   2
                l(6) =   2
     Q(r) pseudized with  6 coefficients,  rinner =    1.200   1.200   1.200
                                                       1.200   1.200

     PseudoPot. # 3 for Cu read from file:
     ./pseudo/Cu.pbe-n-van_ak.UPF
     MD5 check sum: 34e3282627ffb533726feb647e090d62
     Pseudo is Ultrasoft + core correction, Zval = 11.0
     Generated by new atomic code, or converted to UPF format
     Using radial grid of  867 points,  6 beta functions with: 
                l(1) =   0
                l(2) =   0
                l(3) =   1
                l(4) =   1
                l(5) =   2
                l(6) =   2
     Q(r) pseudized with  8 coefficients,  rinner =    1.400   1.400   1.400
                                                       1.400   1.400

     PseudoPot. # 4 for O  read from file:
     ./pseudo/O.pbe-van_ak.UPF
     MD5 check sum: 783ce7fe4c79b6a4916957118fed0856
     Pseudo is Ultrasoft, Zval =  6.0
     Generated by new atomic code, or converted to UPF format
     Using radial grid of  737 points,  4 beta functions with: 
                l(1) =   0
                l(2) =   0
                l(3) =   1
                l(4) =   1
     Q(r) pseudized with  8 coefficients,  rinner =    0.800   0.800   0.800


     atomic species   valence    mass     pseudopotential
        Ba            10.00   137.32700     Ba( 1.00)
        Ca            10.00    40.07800     Ca( 1.00)
        Cu            11.00    63.54600     Cu( 1.00)
        O              6.00    15.99900     O ( 1.00)

      4 Sym. Ops. (no inversion) found



   Cartesian axes

     site n.     atom                  positions (alat units)
         1           O   tau(   1) = (   0.0000000   0.4735409  -0.0469745  )
         2           Cu  tau(   2) = (   0.0000000   0.0000000   0.0264565  )
         3           O   tau(   3) = (   0.0000000   0.0000000   0.5030914  )
         4           Ba  tau(   4) = (   0.5000000   0.4735409   0.5690292  )
         5           Cu  tau(   5) = (   0.0000000   0.0000000   1.0374254  )
         6           O   tau(   6) = (   0.5000000   0.0000000   1.0768099  )
         7           O   tau(   7) = (   0.0000000   0.4735409   1.1116985  )
         8           Ca  tau(   8) = (   0.5000000   0.4735409   1.4976260  )
         9           O   tau(   9) = (   0.0000000   0.4735409   1.8667529  )
        10           O   tau(  10) = (   0.5000000   0.0000000   1.9044124  )
        11           Cu  tau(  11) = (   0.0000000   0.0000000   1.9512546  )
        12           Ba  tau(  12) = (   0.5000000   0.4735409   2.4295764  )
        13           O   tau(  13) = (   0.0000000   0.0000000   2.5115362  )
        14           O   tau(  14) = (   0.0000000   0.4735409   2.9918528  )
        15           Cu  tau(  15) = (   0.0000000   0.0000000   2.9919088  )
        16           O   tau(  16) = (   0.0000000   0.0000000   3.4722686  )
        17           Ba  tau(  17) = (   0.5000000   0.4735409   3.5542208  )
        18           Cu  tau(  18) = (   0.0000000   0.0000000   4.0961344  )
        19           O   tau(  19) = (   0.5000000   0.0000000   4.1429766  )
        20           O   tau(  20) = (   0.0000000   0.4735409   4.1806310  )
        21           Ca  tau(  21) = (   0.5000000   0.4735409   4.5497681  )
        22           O   tau(  22) = (   0.0000000   0.4735409   4.9356930  )
        23           O   tau(  23) = (   0.5000000   0.0000000   4.9705816  )
        24           Cu  tau(  24) = (   0.0000000   0.0000000   5.0099687  )
        25           Ba  tau(  25) = (   0.5000000   0.4735409   5.4783624  )
        26           O   tau(  26) = (   0.0000000   0.0000000   5.5442900  )
        27           Cu  tau(  27) = (   0.0000000   0.0000000   6.0209299  )
        28           O   tau(  28) = (   0.0000000   0.4735409   6.0943482  )

     number of k points=    25  Gaussian smearing, width (Ry)=  0.0100
                       cart. coord. in units 2pi/alat
        k(    1) = (   0.0000000   0.0000000   0.0000000), wk =   0.0312500
        k(    2) = (   0.0000000   0.1319845   0.0000000), wk =   0.0625000
        k(    3) = (   0.0000000   0.2639689   0.0000000), wk =   0.0625000
        k(    4) = (   0.0000000   0.3959534   0.0000000), wk =   0.0625000
        k(    5) = (   0.0000000  -0.5279378   0.0000000), wk =   0.0312500
        k(    6) = (   0.1250000   0.0000000   0.0000000), wk =   0.0625000
        k(    7) = (   0.1250000   0.1319845   0.0000000), wk =   0.1250000
        k(    8) = (   0.1250000   0.2639689   0.0000000), wk =   0.1250000
        k(    9) = (   0.1250000   0.3959534   0.0000000), wk =   0.1250000
        k(   10) = (   0.1250000  -0.5279378   0.0000000), wk =   0.0625000
        k(   11) = (   0.2500000   0.0000000   0.0000000), wk =   0.0625000
        k(   12) = (   0.2500000   0.1319845   0.0000000), wk =   0.1250000
        k(   13) = (   0.2500000   0.2639689   0.0000000), wk =   0.1250000
        k(   14) = (   0.2500000   0.3959534   0.0000000), wk =   0.1250000
        k(   15) = (   0.2500000  -0.5279378   0.0000000), wk =   0.0625000
        k(   16) = (   0.3750000   0.0000000   0.0000000), wk =   0.0625000
        k(   17) = (   0.3750000   0.1319845   0.0000000), wk =   0.1250000
        k(   18) = (   0.3750000   0.2639689   0.0000000), wk =   0.1250000
        k(   19) = (   0.3750000   0.3959534   0.0000000), wk =   0.1250000
        k(   20) = (   0.3750000  -0.5279378   0.0000000), wk =   0.0625000
        k(   21) = (  -0.5000000   0.0000000   0.0000000), wk =   0.0312500
        k(   22) = (  -0.5000000   0.1319845   0.0000000), wk =   0.0625000
        k(   23) = (  -0.5000000   0.2639689   0.0000000), wk =   0.0625000
        k(   24) = (  -0.5000000   0.3959534   0.0000000), wk =   0.0625000
        k(   25) = (  -0.5000000  -0.5279378   0.0000000), wk =   0.0312500

     Dense  grid:  1411709 G-vectors     FFT dimensions: (  64,  64, 720)

     Smooth grid:   271883 G-vectors     FFT dimensions: (  40,  36, 432)

     Estimated max dynamical RAM per process >     450.82 MB

     Estimated total dynamical RAM >       8.81 GB

     Initial potential from superposition of free atoms

     starting charge  226.84630, renormalised to  227.00000

     negative rho (up, down):  3.559E-03 0.000E+00
     Starting wfcs are  195 randomized atomic wfcs

     total cpu time spent up to now is       10.3 secs

     Self-consistent Calculation

     iteration #  1     ecut=    60.00 Ry     beta= 0.50
     Davidson diagonalization with overlap
     ethr =  1.00E-02,  avg # of iterations =  2.0

     negative rho (up, down):  5.132E-04 0.000E+00

     total cpu time spent up to now is       25.5 secs

     total energy              =   -1840.97734911 Ry
     Harris-Foulkes estimate   =   -1845.35004089 Ry
     estimated scf accuracy    <      17.86391967 Ry

     iteration #  2     ecut=    60.00 Ry     beta= 0.50
     Davidson diagonalization with overlap
     ethr =  7.87E-03,  avg # of iterations =  2.0

     negative rho (up, down):  2.653E-04 0.000E+00

     total cpu time spent up to now is       40.8 secs

     total energy              =   -1842.54298797 Ry
     Harris-Foulkes estimate   =   -1843.28599371 Ry
     estimated scf accuracy    <       4.91891975 Ry

     iteration #  3     ecut=    60.00 Ry     beta= 0.50
     Davidson diagonalization with overlap
     ethr =  2.17E-03,  avg # of iterations =  1.9

     negative rho (up, down):  2.487E-04 0.000E+00

     total cpu time spent up to now is       55.5 secs

     total energy              =   -1842.84926063 Ry
     Harris-Foulkes estimate   =   -1843.02175542 Ry
     estimated scf accuracy    <       2.09259451 Ry

     iteration #  4     ecut=    60.00 Ry     beta= 0.50
     Davidson diagonalization with overlap
     ethr =  9.22E-04,  avg # of iterations =  1.2

     negative rho (up, down):  2.428E-04 0.000E+00

     total cpu time spent up to now is       69.5 secs

     total energy              =   -1842.88411731 Ry
     Harris-Foulkes estimate   =   -1842.95686609 Ry
     estimated scf accuracy    <       0.47930854 Ry

     iteration #  5     ecut=    60.00 Ry     beta= 0.50
     Davidson diagonalization with overlap
     ethr =  2.11E-04,  avg # of iterations =  5.0

     negative rho (up, down):  2.404E-04 0.000E+00

     total cpu time spent up to now is       88.4 secs

     total energy              =   -1842.92617737 Ry
     Harris-Foulkes estimate   =   -1842.93910381 Ry
     estimated scf accuracy    <       1.16309618 Ry

     iteration #  6     ecut=    60.00 Ry     beta= 0.50
     Davidson diagonalization with overlap
     ethr =  2.11E-04,  avg # of iterations =  1.0

     negative rho (up, down):  2.367E-04 0.000E+00

     total cpu time spent up to now is      102.2 secs

     total energy              =   -1842.91563231 Ry
     Harris-Foulkes estimate   =   -1842.93218545 Ry
     estimated scf accuracy    <       0.63802430 Ry

     iteration #  7     ecut=    60.00 Ry     beta= 0.50
     Davidson diagonalization with overlap
     ethr =  2.11E-04,  avg # of iterations =  1.0

     negative rho (up, down):  2.345E-04 0.000E+00

     total cpu time spent up to now is      115.8 secs

     total energy              =   -1842.90961203 Ry
     Harris-Foulkes estimate   =   -1842.92518148 Ry
     estimated scf accuracy    <       1.29457593 Ry

     iteration #  8     ecut=    60.00 Ry     beta= 0.50
     Davidson diagonalization with overlap
     ethr =  2.11E-04,  avg # of iterations =  1.0

     negative rho (up, down):  2.348E-04 0.000E+00

     total cpu time spent up to now is      129.5 secs

     total energy              =   -1842.91119996 Ry
     Harris-Foulkes estimate   =   -1842.91554152 Ry
     estimated scf accuracy    <       0.36967199 Ry

     iteration #  9     ecut=    60.00 Ry     beta= 0.50
     Davidson diagonalization with overlap
     ethr =  1.63E-04,  avg # of iterations =  1.1

     negative rho (up, down):  2.355E-04 0.000E+00

     total cpu time spent up to now is      143.5 secs

     total energy              =   -1842.90736254 Ry
     Harris-Foulkes estimate   =   -1842.91263408 Ry
     estimated scf accuracy    <       0.27033156 Ry

     iteration # 10     ecut=    60.00 Ry     beta= 0.50
     Davidson diagonalization with overlap
     ethr =  1.19E-04,  avg # of iterations =  1.5

     negative rho (up, down):  2.362E-04 0.000E+00

     total cpu time spent up to now is      157.6 secs

     total energy              =   -1842.90559782 Ry
     Harris-Foulkes estimate   =   -1842.90880212 Ry
     estimated scf accuracy    <       0.13823230 Ry

     iteration # 11     ecut=    60.00 Ry     beta= 0.50
     Davidson diagonalization with overlap
     ethr =  6.09E-05,  avg # of iterations =  5.3

     negative rho (up, down):  2.363E-04 0.000E+00

     total cpu time spent up to now is      175.9 secs

     total energy              =   -1842.90353524 Ry
     Harris-Foulkes estimate   =   -1842.90621312 Ry
     estimated scf accuracy    <       0.05629303 Ry

     iteration # 12     ecut=    60.00 Ry     beta= 0.50
     Davidson diagonalization with overlap
     ethr =  2.48E-05,  avg # of iterations =  6.8

     negative rho (up, down):  4.153E-04 0.000E+00

     total cpu time spent up to now is      196.0 secs

     total energy              =   -1842.90175626 Ry
     Harris-Foulkes estimate   =   -1842.90398726 Ry
     estimated scf accuracy    <       0.02674861 Ry

     iteration # 13     ecut=    60.00 Ry     beta= 0.50
     Davidson diagonalization with overlap
     c_bands:  1 eigenvalues not converged
     ethr =  1.18E-05,  avg # of iterations =  6.4

     negative rho (up, down):  5.530E-03 0.000E+00

     total cpu time spent up to now is      215.2 secs

     total energy              =   -1842.90078086 Ry
     Harris-Foulkes estimate   =   -1842.90211468 Ry
     estimated scf accuracy    <       0.01483208 Ry

     iteration # 14     ecut=    60.00 Ry     beta= 0.50
     Davidson diagonalization with overlap
     ethr =  6.53E-06,  avg # of iterations =  7.2

     negative rho (up, down):  1.093E-02 0.000E+00

     total cpu time spent up to now is      235.9 secs

     total energy              =   -1842.89993964 Ry
     Harris-Foulkes estimate   =   -1842.90098673 Ry
     estimated scf accuracy    <       0.01105283 Ry

     iteration # 15     ecut=    60.00 Ry     beta= 0.50
     Davidson diagonalization with overlap
     ethr =  4.87E-06,  avg # of iterations =  6.8

     negative rho (up, down):  2.366E-02 0.000E+00

     total cpu time spent up to now is      255.9 secs

     total energy              =   -1842.89869321 Ry
     Harris-Foulkes estimate   =   -1842.90002627 Ry
     estimated scf accuracy    <       0.01120731 Ry

     iteration # 16     ecut=    60.00 Ry     beta= 0.50
     Davidson diagonalization with overlap
     ethr =  4.87E-06,  avg # of iterations =  9.0

     negative rho (up, down):  2.769E-02 0.000E+00

     total cpu time spent up to now is      278.8 secs

     total energy              =   -1842.89798687 Ry
     Harris-Foulkes estimate   =   -1842.89883700 Ry
     estimated scf accuracy    <       0.00559848 Ry

     iteration # 17     ecut=    60.00 Ry     beta= 0.50
     Davidson diagonalization with overlap
     ethr =  2.47E-06,  avg # of iterations =  8.2

     negative rho (up, down):  2.412E-02 0.000E+00

     total cpu time spent up to now is      300.6 secs

     total energy              =   -1842.89751526 Ry
     Harris-Foulkes estimate   =   -1842.89807907 Ry
     estimated scf accuracy    <       0.00555030 Ry

     iteration # 18     ecut=    60.00 Ry     beta= 0.50
     Davidson diagonalization with overlap
     ethr =  2.45E-06,  avg # of iterations =  8.2

     negative rho (up, down):  1.631E-02 0.000E+00

     total cpu time spent up to now is      322.7 secs

     total energy              =   -1842.89700780 Ry
     Harris-Foulkes estimate   =   -1842.89756136 Ry
     estimated scf accuracy    <       0.00456284 Ry

     iteration # 19     ecut=    60.00 Ry     beta= 0.50
     Davidson diagonalization with overlap
     ethr =  2.01E-06,  avg # of iterations =  8.1

     negative rho (up, down):  1.144E-02 0.000E+00

     total cpu time spent up to now is      344.5 secs

     total energy              =   -1842.89686202 Ry
     Harris-Foulkes estimate   =   -1842.89707203 Ry
     estimated scf accuracy    <       0.00123153 Ry

     iteration # 20     ecut=    60.00 Ry     beta= 0.50
     Davidson diagonalization with overlap
     ethr =  5.43E-07,  avg # of iterations =  7.4

     negative rho (up, down):  6.799E-03 0.000E+00

     total cpu time spent up to now is      365.6 secs

     total energy              =   -1842.89681816 Ry
     Harris-Foulkes estimate   =   -1842.89688590 Ry
     estimated scf accuracy    <       0.00024951 Ry

     iteration # 21     ecut=    60.00 Ry     beta= 0.50
     Davidson diagonalization with overlap
     c_bands:  1 eigenvalues not converged
     c_bands:  1 eigenvalues not converged
     ethr =  1.10E-07,  avg # of iterations =  6.9

     negative rho (up, down):  2.085E-03 0.000E+00

     total cpu time spent up to now is      386.0 secs

     total energy              =   -1842.89680615 Ry
     Harris-Foulkes estimate   =   -1842.89682385 Ry
     estimated scf accuracy    <       0.00017604 Ry

     iteration # 22     ecut=    60.00 Ry     beta= 0.50
     Davidson diagonalization with overlap
     c_bands:  1 eigenvalues not converged
     c_bands:  1 eigenvalues not converged
     c_bands:  1 eigenvalues not converged
     ethr =  7.76E-08,  avg # of iterations = 10.0

     negative rho (up, down):  1.674E-03 0.000E+00

     total cpu time spent up to now is      410.2 secs

     total energy              =   -1842.89681855 Ry
     Harris-Foulkes estimate   =   -1842.89681185 Ry
     estimated scf accuracy    <       0.00004719 Ry

     iteration # 23     ecut=    60.00 Ry     beta= 0.50
     Davidson diagonalization with overlap
     ethr =  2.08E-08,  avg # of iterations =  3.4

     negative rho (up, down):  1.481E-03 0.000E+00

     total cpu time spent up to now is      426.3 secs

     total energy              =   -1842.89682653 Ry
     Harris-Foulkes estimate   =   -1842.89682056 Ry
     estimated scf accuracy    <       0.00000880 Ry

     iteration # 24     ecut=    60.00 Ry     beta= 0.50
     Davidson diagonalization with overlap
     ethr =  3.88E-09,  avg # of iterations =  4.0

     negative rho (up, down):  1.462E-03 0.000E+00

     total cpu time spent up to now is      443.1 secs

     total energy              =   -1842.89682656 Ry
     Harris-Foulkes estimate   =   -1842.89682706 Ry
     estimated scf accuracy    <       0.00000924 Ry

     iteration # 25     ecut=    60.00 Ry     beta= 0.50
     Davidson diagonalization with overlap
     ethr =  3.88E-09,  avg # of iterations =  1.0

     negative rho (up, down):  1.446E-03 0.000E+00

     total cpu time spent up to now is      457.0 secs

     total energy              =   -1842.89682679 Ry
     Harris-Foulkes estimate   =   -1842.89682689 Ry
     estimated scf accuracy    <       0.00000215 Ry

     iteration # 26     ecut=    60.00 Ry     beta= 0.50
     Davidson diagonalization with overlap
     ethr =  9.46E-10,  avg # of iterations =  3.0

     negative rho (up, down):  1.485E-03 0.000E+00

     total cpu time spent up to now is      473.4 secs

     total energy              =   -1842.89682697 Ry
     Harris-Foulkes estimate   =   -1842.89682695 Ry
     estimated scf accuracy    <       0.00000087 Ry

     iteration # 27     ecut=    60.00 Ry     beta= 0.50
     Davidson diagonalization with overlap
     ethr =  3.85E-10,  avg # of iterations =  1.6

     negative rho (up, down):  1.470E-03 0.000E+00

     total cpu time spent up to now is      487.7 secs

     total energy              =   -1842.89682701 Ry
     Harris-Foulkes estimate   =   -1842.89682700 Ry
     estimated scf accuracy    <       0.00000074 Ry

     iteration # 28     ecut=    60.00 Ry     beta= 0.50
     Davidson diagonalization with overlap
     ethr =  3.27E-10,  avg # of iterations =  1.0

     negative rho (up, down):  1.464E-03 0.000E+00

     total cpu time spent up to now is      501.8 secs

     total energy              =   -1842.89682704 Ry
     Harris-Foulkes estimate   =   -1842.89682703 Ry
     estimated scf accuracy    <       0.00000045 Ry

     iteration # 29     ecut=    60.00 Ry     beta= 0.50
     Davidson diagonalization with overlap
     ethr =  1.96E-10,  avg # of iterations =  1.7

     negative rho (up, down):  1.455E-03 0.000E+00

     total cpu time spent up to now is      516.3 secs

     total energy              =   -1842.89682707 Ry
     Harris-Foulkes estimate   =   -1842.89682706 Ry
     estimated scf accuracy    <       0.00000019 Ry

     iteration # 30     ecut=    60.00 Ry     beta= 0.50
     Davidson diagonalization with overlap
     ethr =  8.49E-11,  avg # of iterations =  1.2

     negative rho (up, down):  1.454E-03 0.000E+00

     total cpu time spent up to now is      530.3 secs

     total energy              =   -1842.89682707 Ry
     Harris-Foulkes estimate   =   -1842.89682707 Ry
     estimated scf accuracy    <       0.00000004 Ry

     iteration # 31     ecut=    60.00 Ry     beta= 0.50
     Davidson diagonalization with overlap
     ethr =  1.88E-11,  avg # of iterations =  3.0

     negative rho (up, down):  1.471E-03 0.000E+00

     total cpu time spent up to now is      546.6 secs

     total energy              =   -1842.89682704 Ry
     Harris-Foulkes estimate   =   -1842.89682707 Ry
     estimated scf accuracy    <       0.00000004 Ry

     iteration # 32     ecut=    60.00 Ry     beta= 0.50
     Davidson diagonalization with overlap
     ethr =  1.83E-11,  avg # of iterations =  1.0

     negative rho (up, down):  1.492E-03 0.000E+00

     total cpu time spent up to now is      560.4 secs

     total energy              =   -1842.89682700 Ry
     Harris-Foulkes estimate   =   -1842.89682704 Ry
     estimated scf accuracy    <       0.00000002 Ry

     iteration # 33     ecut=    60.00 Ry     beta= 0.50
     Davidson diagonalization with overlap
     ethr =  8.42E-12,  avg # of iterations =  1.0

     negative rho (up, down):  1.509E-03 0.000E+00

     total cpu time spent up to now is      573.7 secs

     End of self-consistent calculation

          k = 0.0000 0.0000 0.0000 ( 34019 PWs)   bands (ev):

   -35.5160 -35.4491 -22.7211 -22.7202 -22.7081 -22.4641 -17.0205 -16.9423
   -16.5671 -16.5558 -16.5048 -16.4926 -15.2312 -15.1763 -14.7794 -14.6015
   -14.5960 -14.5016 -14.4199 -14.1116 -14.1105 -13.9118 -13.8959 -13.7535
   -13.6342 -13.6246 -13.4526  -7.9257  -7.8524  -7.8491  -7.8149  -7.8142
    -7.6889  -7.6449  -7.6220  -7.6211  -7.5373  -7.5086  -7.3422  -2.2603
    -2.2600  -2.0580  -1.7596  -1.7568  -1.6952  -1.5981  -1.5882  -1.5763
    -1.4690  -1.4113  -1.3907  -1.3620  -1.1510  -1.1504  -0.9805  -0.7746
    -0.7660  -0.5184  -0.3891  -0.3886  -0.3088  -0.3064  -0.2413  -0.2227
    -0.1951  -0.1947  -0.1793  -0.1748  -0.1248  -0.1108  -0.0991  -0.0912
    -0.0859  -0.0231   0.0320   0.0329   0.1683   0.1689   0.1689   0.1712
     0.2305   0.2434   0.2595   0.3467   0.3804   0.3947   0.4258   0.4826
     0.5174   0.8203   0.8712   0.9517   0.9518   1.0143   1.0558   1.2534
     1.2804   1.4188   1.4327   1.4399   1.4659   1.5281   1.5891   1.5953
     1.7309   1.7479   1.8385   1.8428   1.8952   1.9499   2.1046   2.1095
     2.1977   2.2146   2.2510   2.3423   2.3480   2.6004   2.6064   5.2819
     5.2886   5.8132   6.2706   6.4876   6.8200   6.8363   7.0079   7.3427
     8.0423   8.1750   8.3372   8.3880   8.4938   8.6856   8.7730   9.1713
     9.2671

          k = 0.0000 0.1320 0.0000 ( 34015 PWs)   bands (ev):

   -35.5142 -35.4472 -22.6944 -22.6936 -22.6848 -22.4386 -16.9844 -16.9059
   -16.6284 -16.5650 -16.5648 -16.5025 -15.1425 -15.0901 -14.7243 -14.6066
   -14.5977 -14.4744 -14.3911 -14.1210 -14.1194 -13.9172 -13.9080 -13.7989
   -13.6758 -13.6599 -13.5125  -7.9177  -7.8520  -7.8495  -7.7671  -7.7664
    -7.6643  -7.6629  -7.6470  -7.6443  -7.5855  -7.4635  -7.3896  -2.3185
    -2.3175  -2.1370  -2.0908  -2.0698  -1.9684  -1.8948  -1.6002  -1.5778
    -1.5749  -1.5745  -1.5581  -1.4513  -1.3440  -1.2744  -1.2335  -1.0285
    -0.7095  -0.5657  -0.5597  -0.5531  -0.4866  -0.4860  -0.4208  -0.3919
    -0.3905  -0.2676  -0.1910  -0.1442  -0.1124  -0.0875  -0.0785  -0.0779
    -0.0359   0.0319   0.0533   0.0543   0.0774   0.0940   0.1923   0.1924
     0.2315   0.2473   0.3099   0.3467   0.3756   0.3819   0.4398   0.4953
     0.7948   0.9347   1.0022   1.1100   1.1262   1.1490   1.1493   1.2112
     1.2304   1.2589   1.4158   1.4867   1.4899   1.5586   1.5738   1.5941
     1.6489   1.7399   1.8240   1.8416   1.8831   1.9609   2.0402   2.0491
     2.0883   2.1585   2.2309   2.5428   2.8629   2.8888   2.9487   5.6614
     5.6634   6.1275   6.5868   6.7286   7.1264   7.1393   7.3199   7.6191
     8.2158   8.3634   8.5436   8.6007   8.7452   8.7997   9.0096   9.2954
     9.3701

          k = 0.0000 0.2640 0.0000 ( 33931 PWs)   bands (ev):

   -35.5098 -35.4428 -22.6285 -22.6277 -22.6273 -22.3759 -16.8923 -16.8129
   -16.7827 -16.7190 -16.5591 -16.4968 -14.9428 -14.9045 -14.6555 -14.6323
   -14.5774 -14.4129 -14.3204 -14.1083 -14.1038 -13.9569 -13.9519 -13.9240
   -13.7635 -13.7458 -13.6357  -7.8997  -7.8516  -7.8499  -7.7546  -7.7536
    -7.6987  -7.6466  -7.6459  -7.6342  -7.5424  -7.4921  -7.3502  -2.7639
    -2.7542  -2.6474  -2.5308  -2.4519  -2.3586  -2.3585  -2.2117  -2.2112
    -2.0430  -1.5695  -1.5239  -1.5081  -1.4125  -1.3950  -1.3729  -1.2885
    -0.9223  -0.8753  -0.8164  -0.7376  -0.7373  -0.7033  -0.7010  -0.5809
    -0.5763  -0.4642  -0.4576  -0.4291  -0.4273  -0.4200  -0.3845  -0.2491
    -0.1831  -0.0054   0.0816   0.0825   0.1453   0.1644   0.1716   0.2786
     0.3142   0.3847   0.4441   0.4842   0.6873   0.7380   0.7670   0.7733
     0.9686   1.0382   1.0745   1.0848   1.2040   1.2343   1.2345   1.2350
     1.2439   1.2767   1.3400   1.3892   1.4325   1.5407   1.6970   1.7318
     1.7691   1.7714   1.8484   1.9987   2.0157   2.0420   2.0435   2.0497
     2.0647   2.1788   2.3605   2.6641   3.1058   3.1145   3.7935   6.5564
     6.5566   6.8159   7.3788   7.4176   7.9537   7.9595   8.1767   8.4144
     8.7122   8.7475   8.8334   8.9729   9.0339   9.1549   9.3895   9.4241
     9.4461

          k = 0.0000 0.3960 0.0000 ( 33860 PWs)   bands (ev):

   -35.5054 -35.4384 -22.5684 -22.5604 -22.5595 -22.3112 -16.9190 -16.8540
   -16.7906 -16.7115 -16.5535 -16.4912 -14.8645 -14.8602 -14.6128 -14.5604
   -14.4247 -14.3471 -14.2607 -14.0789 -14.0430 -14.0348 -14.0225 -14.0045
   -13.9151 -13.8193 -13.7253  -7.8798  -7.8515  -7.8502  -7.8328  -7.8318
    -7.7926  -7.6287  -7.5819  -7.5182  -7.5174  -7.4322  -7.2300  -3.3674
    -3.2185  -3.2145  -2.9880  -2.9297  -2.9255  -2.8928  -2.3024  -2.3020
    -2.0730  -1.9074  -1.7435  -1.7250  -1.4588  -1.4435  -1.3049  -1.2034
    -1.1406  -1.0734  -1.0617  -1.0059  -1.0040  -0.8729  -0.7885  -0.7733
    -0.7713  -0.7129  -0.6803  -0.6770  -0.6634  -0.6358  -0.5667  -0.2678
    -0.2325  -0.0271  -0.0238   0.0987   0.0996   0.1942   0.1968   0.2350
     0.2630   0.3724   0.5630   0.5960   0.8514   0.8978   0.9118   0.9310
     0.9949   0.9996   1.0250   1.0342   1.1533   1.1683   1.2050   1.2054
     1.2090   1.4523   1.5916   1.6758   1.6866   1.6974   1.7959   1.8194
     1.8220   1.8741   2.0032   2.0228   2.0534   2.1205   2.1508   2.3235
     2.3571   2.4373   2.4377   2.5894   2.9981   3.0102   4.3628   7.4347
     7.5037   7.5061   8.3204   8.3536   8.5079   8.7507   8.7535   9.0787
     9.1232   9.1609   9.1669   9.2178   9.2742   9.4945   9.5689   9.5760
     9.7727

          k = 0.0000-0.5279 0.0000 ( 33926 PWs)   bands (ev):

   -35.5035 -35.4366 -22.5435 -22.5314 -22.5305 -22.2837 -16.9712 -16.9059
   -16.7456 -16.6664 -16.5511 -16.4888 -14.9068 -14.9032 -14.4984 -14.4578
   -14.4233 -14.2605 -14.2181 -14.1637 -14.0570 -14.0463 -14.0129 -14.0024
   -13.9669 -13.8718 -13.7687  -7.8649  -7.8625  -7.8613  -7.8516  -7.8509
    -7.8325  -7.6229  -7.6195  -7.4622  -7.4615  -7.3847  -7.1779  -3.6347
    -3.3972  -3.3937  -3.1673  -3.1591  -3.1449  -3.0625  -2.3186  -2.3182
    -2.0834  -2.0343  -1.8732  -1.8582  -1.4260  -1.4084  -1.2542  -1.2330
    -1.1603  -1.1517  -1.1308  -1.1283  -1.0881  -0.9663  -0.8970  -0.8901
    -0.8776  -0.7776  -0.7679  -0.7674  -0.7111  -0.6962  -0.6446  -0.2348
    -0.2046  -0.1141  -0.0360   0.1043   0.1052   0.1917   0.1999   0.2421
     0.2605   0.3652   0.4913   0.5267   0.8061   0.8848   0.8886   0.8939
     0.9275   0.9606   1.0704   1.0813   1.1757   1.1880   1.1884   1.3856
     1.4341   1.4479   1.5835   1.6348   1.7951   1.8075   1.8222   1.8420
     2.0831   2.0902   2.0903   2.1357   2.1424   2.1763   2.1936   2.2655
     2.2977   2.5581   2.5988   2.5993   2.8191   2.8332   4.5436   7.7160
     7.9164   7.9177   8.3809   8.8810   9.0338   9.0363   9.0607   9.0770
     9.0965   9.1340   9.3886   9.3946   9.4375   9.4810   9.9116  10.0027
    10.1394

          k = 0.1250 0.0000 0.0000 ( 34005 PWs)   bands (ev):

   -35.5149 -35.4480 -22.7031 -22.7022 -22.6923 -22.4469 -16.9871 -16.9085
   -16.6474 -16.5854 -16.5545 -16.4913 -15.1290 -15.0773 -14.7981 -14.6471
   -14.6383 -14.5069 -14.4234 -14.1206 -14.1196 -13.9236 -13.9093 -13.7742
   -13.6830 -13.6424 -13.4906  -7.9583  -7.8782  -7.8756  -7.7531  -7.7522
    -7.6907  -7.6190  -7.5895  -7.5886  -7.5090  -7.4481  -7.3117  -2.3028
    -2.3027  -2.0884  -1.8017  -1.7974  -1.7372  -1.7337  -1.7327  -1.6665
    -1.6298  -1.5628  -1.3812  -1.3541  -1.1489  -1.1483  -0.9992  -0.8294
    -0.7937  -0.5976  -0.5615  -0.5314  -0.4457  -0.4440  -0.3111  -0.2717
    -0.2692  -0.2653  -0.2272  -0.2060  -0.1976  -0.1718  -0.1297  -0.1097
    -0.0935  -0.0140   0.0263   0.0850   0.1610   0.1617   0.1885   0.2214
     0.2646   0.2653   0.2893   0.3271   0.4148   0.4502   0.4925   0.5218
     0.5991   0.8592   0.8631   0.9364   0.9641   1.0515   1.1140   1.2578
     1.2734   1.2880   1.4128   1.4355   1.4616   1.4823   1.5557   1.5860
     1.6000   1.8253   1.9255   1.9653   2.0112   2.0536   2.0611   2.1618
     2.1738   2.2369   2.2626   2.2712   2.3974   2.6379   2.6407   5.4650
     5.4674   6.0249   6.5041   6.6631   7.0386   7.0482   7.1942   7.5511
     8.1885   8.3029   8.5086   8.5626   8.7531   8.8774   9.0427   9.2628
     9.4351

          k = 0.1250 0.1320 0.0000 ( 33966 PWs)   bands (ev):

   -35.5131 -35.4462 -22.6772 -22.6763 -22.6697 -22.4222 -16.9520 -16.8731
   -16.6505 -16.6176 -16.5882 -16.5545 -15.0477 -14.9997 -14.7410 -14.6414
   -14.6294 -14.4771 -14.3905 -14.1215 -14.1205 -13.9294 -13.9227 -13.8135
   -13.7157 -13.6713 -13.5393  -7.9389  -7.8975  -7.8959  -7.8154  -7.8140
    -7.7564  -7.6638  -7.5519  -7.5508  -7.5418  -7.4603  -7.2710  -2.3553
    -2.3537  -2.1536  -2.0783  -2.0579  -1.9511  -1.8815  -1.7807  -1.7763
    -1.7050  -1.6102  -1.5998  -1.5689  -1.5686  -1.2778  -1.2313  -1.0677
    -0.7614  -0.7321  -0.7167  -0.6091  -0.6054  -0.5435  -0.4746  -0.4411
    -0.4328  -0.4293  -0.3982  -0.1966  -0.1749  -0.1382  -0.1214  -0.0651
    -0.0097   0.0366   0.0556   0.0697   0.0848   0.1325   0.2206   0.2270
     0.2575   0.2911   0.3326   0.3465   0.3601   0.4053   0.5891   0.6447
     0.7715   1.0195   1.0874   1.1054   1.1131   1.1991   1.2013   1.2850
     1.3042   1.3271   1.3538   1.3637   1.3872   1.4920   1.5577   1.6268
     1.6634   1.6726   1.7313   1.7330   1.7990   1.8647   2.1483   2.2792
     2.4107   2.4175   2.5840   2.6598   2.8756   2.8954   2.9607   5.8046
     5.8053   6.2797   6.7706   6.8683   7.3365   7.3436   7.5017   7.8223
     8.3597   8.4815   8.6821   8.7487   8.9106   8.9571   9.1903   9.3415
     9.3960

          k = 0.1250 0.2640 0.0000 ( 33895 PWs)   bands (ev):

   -35.5087 -35.4418 -22.6139 -22.6134 -22.6125 -22.3613 -16.8628 -16.7829
   -16.7797 -16.7162 -16.6300 -16.5680 -14.8737 -14.8457 -14.6417 -14.6120
   -14.5882 -14.4073 -14.3099 -14.1037 -14.1012 -13.9787 -13.9704 -13.9154
   -13.7705 -13.7490 -13.6427  -7.9665  -7.9657  -7.9041  -7.8874  -7.8523
    -7.8509  -7.6815  -7.6415  -7.5424  -7.5416  -7.4570  -7.2657  -2.7869
    -2.7759  -2.6369  -2.5394  -2.4615  -2.3591  -2.3589  -2.2111  -2.2106
    -2.0547  -1.7315  -1.7286  -1.6712  -1.5708  -1.5185  -1.4207  -1.3849
    -0.9727  -0.9227  -0.9152  -0.8864  -0.8131  -0.7911  -0.7124  -0.7068
    -0.6522  -0.6238  -0.6232  -0.5017  -0.4771  -0.4319  -0.4097  -0.2514
    -0.1953  -0.0590   0.0048   0.0306   0.0591   0.1486   0.2596   0.2805
     0.4402   0.5046   0.5688   0.6174   0.7934   0.8175   0.8336   0.8729
     0.9285   1.0882   1.0914   1.1709   1.2009   1.2411   1.3729   1.3799
     1.4005   1.4293   1.4450   1.4657   1.4852   1.5427   1.5955   1.6649
     1.6948   1.7155   1.7574   1.8334   2.0071   2.0088   2.1200   2.3473
     2.6091   2.6146   2.8126   2.8927   3.1156   3.1287   3.7953   6.6174
     6.6176   6.8075   7.4583   7.4970   8.1215   8.1231   8.3570   8.5781
     8.7413   8.8586   8.9012   9.0144   9.0360   9.1121   9.1977   9.2700
     9.4314

          k = 0.1250 0.3960 0.0000 ( 33906 PWs)   bands (ev):

   -35.5043 -35.4374 -22.5567 -22.5474 -22.5465 -22.2985 -16.9139 -16.8489
   -16.7641 -16.6847 -16.6214 -16.5595 -14.8296 -14.8263 -14.5387 -14.4908
   -14.4118 -14.3354 -14.2385 -14.0736 -14.0579 -14.0481 -14.0188 -14.0120
   -13.8966 -13.8126 -13.7151  -7.9969  -7.9960  -7.9725  -7.8640  -7.8637
    -7.8531  -7.7337  -7.6503  -7.5874  -7.5867  -7.4949  -7.3053  -3.3565
    -3.2590  -3.2536  -3.0167  -2.9290  -2.9171  -2.9104  -2.3106  -2.3103
    -2.0878  -1.8479  -1.7220  -1.7192  -1.5835  -1.5712  -1.5087  -1.4397
    -1.2610  -1.2443  -1.1654  -1.1045  -1.0471  -1.0388  -1.0056  -0.8081
    -0.8038  -0.8000  -0.7653  -0.7302  -0.6882  -0.6729  -0.6293  -0.3030
    -0.2706  -0.1184  -0.0198   0.0461   0.0613   0.1917   0.2718   0.2774
     0.4760   0.5571   0.7309   0.7482   0.7808   0.9710   0.9742   1.0366
     1.0947   1.1231   1.1354   1.1771   1.2652   1.2830   1.2986   1.3090
     1.3579   1.5314   1.6311   1.7220   1.7425   1.7901   1.8105   1.8176
     1.9203   1.9565   2.0186   2.0915   2.1206   2.4045   2.4048   2.4624
     2.5580   2.5637   2.7662   2.8184   3.0543   3.0776   4.3488   7.1615
     7.3683   7.3704   8.1968   8.2490   8.4883   8.7323   8.7341   8.8522
     8.9965   9.1242   9.3852   9.4288   9.4899   9.6200   9.7011   9.7444
     9.8949

          k = 0.1250-0.5279 0.0000 ( 33848 PWs)   bands (ev):

   -35.5025 -35.4355 -22.5325 -22.5195 -22.5186 -22.2719 -16.9655 -16.9004
   -16.7206 -16.6410 -16.6177 -16.5558 -14.8621 -14.8588 -14.4259 -14.3914
   -14.3841 -14.2375 -14.2165 -14.1428 -14.0895 -14.0130 -14.0121 -14.0034
   -13.9935 -13.8550 -13.7471  -7.9916  -7.9907  -7.9857  -7.8687  -7.8680
    -7.8391  -7.7468  -7.6582  -7.6216  -7.6210  -7.5145  -7.3304  -3.6250
    -3.4457  -3.4405  -3.1951  -3.1507  -3.1454  -3.0946  -2.3317  -2.3313
    -2.1010  -1.9349  -1.7521  -1.7483  -1.5405  -1.5299  -1.4464  -1.4290
    -1.3922  -1.3180  -1.2854  -1.2496  -1.1878  -1.1275  -1.1198  -0.8824
    -0.8778  -0.8764  -0.8426  -0.8196  -0.7806  -0.7590  -0.6405  -0.2931
    -0.2585  -0.1398  -0.0242   0.0426   0.0818   0.2061   0.2821   0.2842
     0.4761   0.5647   0.7134   0.7502   0.7576   0.9711   1.0041   1.0093
     1.0253   1.0258   1.0981   1.1425   1.3122   1.3320   1.3811   1.4203
     1.4662   1.5543   1.6058   1.8487   1.8622   1.8809   2.0779   2.0911
     2.1027   2.1106   2.1649   2.1948   2.2903   2.4158   2.4187   2.5449
     2.5698   2.5702   2.6219   2.6615   2.9328   2.9591   4.5223   7.2479
     7.5903   7.5916   8.3800   8.3988   8.5050   8.8902   9.1057   9.1418
     9.3720   9.3790   9.4733   9.6278   9.7514   9.8687  10.0250  10.0723
    10.1779

          k = 0.2500 0.0000 0.0000 ( 34032 PWs)   bands (ev):

   -35.5123 -35.4453 -22.6588 -22.6579 -22.6537 -22.4046 -16.9018 -16.8219
   -16.8116 -16.7502 -16.5511 -16.4879 -14.9314 -14.9082 -14.8543 -14.7285
   -14.6973 -14.5304 -14.4392 -14.1347 -14.1337 -13.9702 -13.9483 -13.8309
   -13.7871 -13.6807 -13.5666  -7.9935  -7.8796  -7.8779  -7.6902  -7.6665
    -7.6658  -7.5501  -7.5088  -7.5079  -7.4389  -7.3634  -7.2361  -2.4958
    -2.4938  -2.2900  -2.1452  -2.1394  -2.1343  -1.9757  -1.6764  -1.6651
    -1.5771  -1.4852  -1.4008  -1.3677  -1.1456  -1.1450  -1.0527  -0.9724
    -0.8816  -0.8676  -0.8341  -0.7078  -0.6993  -0.6992  -0.5680  -0.5230
    -0.4818  -0.4608  -0.4578  -0.3643  -0.2466  -0.2100  -0.1808  -0.1790
    -0.1193  -0.1095  -0.0657   0.0335   0.1483   0.1489   0.2537   0.2561
     0.3316   0.3932   0.3938   0.5199   0.5248   0.5592   0.6196   0.6437
     0.7155   0.7307   0.7378   0.9921   1.0437   1.0921   1.1150   1.1743
     1.3499   1.3608   1.3779   1.3871   1.4864   1.5216   1.5221   1.6247
     1.6381   1.7784   1.8555   1.9378   1.9551   2.0781   2.0974   2.1280
     2.1302   2.2711   2.4149   2.5449   2.5611   2.7447   2.7486   5.9237
     5.9240   6.4791   7.1085   7.1767   7.6197   7.6256   7.7295   8.1065
     8.5602   8.5681   8.7843   8.9746   9.2046   9.3590   9.4218   9.5451
     9.6629

          k = 0.2500 0.1320 0.0000 ( 33975 PWs)   bands (ev):

   -35.5105 -35.4435 -22.6349 -22.6340 -22.6327 -22.3817 -16.8697 -16.8052
   -16.7893 -16.7440 -16.6173 -16.5540 -14.8811 -14.8648 -14.7913 -14.6792
   -14.6451 -14.4949 -14.3982 -14.1205 -14.1202 -13.9697 -13.9584 -13.8500
   -13.8048 -13.7013 -13.5924  -7.9891  -7.9482  -7.9472  -7.8032  -7.8022
    -7.7648  -7.7091  -7.5451  -7.4752  -7.4744  -7.3946  -7.2027  -2.5457
    -2.5409  -2.3277  -2.1771  -2.1307  -2.1285  -2.0231  -2.0084  -1.9689
    -1.8800  -1.8061  -1.6262  -1.5596  -1.5592  -1.3375  -1.3033  -1.1856
    -0.9560  -0.9510  -0.9058  -0.8817  -0.8205  -0.7745  -0.7318  -0.5685
    -0.5551  -0.5377  -0.4852  -0.3890  -0.3369  -0.2695  -0.2429  -0.1459
    -0.1364   0.0386   0.0425   0.0991   0.1409   0.1575   0.2267   0.2638
     0.2815   0.3926   0.3989   0.4086   0.6443   0.6982   0.7127   0.8439
     0.8904   0.9715   0.9830   1.0412   1.1344   1.1754   1.2374   1.2641
     1.3035   1.3908   1.4493   1.4674   1.5039   1.5477   1.5498   1.6040
     1.6111   1.6968   1.7520   1.8012   1.8124   1.8579   2.1189   2.3581
     2.7339   2.7456   2.9271   2.9343   2.9422   3.0043   3.0400   6.1849
     6.1852   6.5818   7.2655   7.3154   7.8797   7.8820   8.0146   8.3524
     8.6779   8.6815   8.9214   9.0242   9.1240   9.2490   9.3037   9.3937
     9.5158

          k = 0.2500 0.2640 0.0000 ( 33963 PWs)   bands (ev):

   -35.5061 -35.4392 -22.5809 -22.5762 -22.5753 -22.3254 -16.8052 -16.7813
   -16.7538 -16.7379 -16.7062 -16.6905 -14.7919 -14.7868 -14.6220 -14.5387
   -14.5089 -14.4058 -14.2896 -14.0954 -14.0934 -14.0196 -14.0051 -13.8970
   -13.8067 -13.7431 -13.6563  -8.1684  -8.1676  -8.0928  -7.9410  -7.8650
    -7.8639  -7.8438  -7.6560  -7.5950  -7.5942  -7.5127  -7.3249  -2.9240
    -2.9074  -2.6695  -2.5748  -2.5339  -2.3723  -2.3714  -2.2433  -2.2432
    -2.1519  -2.1013  -2.1001  -2.0335  -1.9417  -1.5095  -1.3813  -1.3614
    -1.3522  -1.3493  -1.2158  -1.1445  -0.9852  -0.8954  -0.8043  -0.7322
    -0.6655  -0.6605  -0.6262  -0.5575  -0.5286  -0.5241  -0.4966  -0.3285
    -0.2819  -0.2527  -0.2427   0.0709   0.1571   0.2050   0.4000   0.4313
     0.6216   0.6743   0.7423   0.8487   0.8748   0.9163   0.9537   1.0279
     1.0316   1.2035   1.2889   1.3296   1.3525   1.3720   1.4527   1.5012
     1.5242   1.5320   1.5626   1.6170   1.6188   1.6505   1.6906   1.7055
     1.7541   1.7755   1.8029   1.8582   1.9272   1.9291   2.2326   2.4183
     3.0545   3.0574   3.3410   3.3496   3.4920   3.5515   3.8009   6.6518
     6.7275   6.7284   7.6571   7.7058   8.4134   8.4144   8.6305   8.7836
     8.8087   8.9239   9.0978   9.1329   9.1857   9.3861   9.4314   9.4595
     9.5475

          k = 0.2500 0.3960 0.0000 ( 33940 PWs)   bands (ev):

   -35.5018 -35.4348 -22.5279 -22.5158 -22.5149 -22.2675 -16.9018 -16.8370
   -16.7695 -16.7070 -16.6954 -16.6163 -14.7484 -14.7465 -14.4031 -14.3702
   -14.3602 -14.3002 -14.1685 -14.1441 -14.1038 -14.0276 -14.0160 -13.9741
   -13.8374 -13.8004 -13.6924  -8.2885  -8.2875  -8.2420  -8.0282  -7.9153
    -7.9143  -7.8725  -7.8089  -7.8080  -7.7693  -7.6398  -7.5350  -3.4249
    -3.4062  -3.3241  -3.1307  -3.0259  -2.8967  -2.8964  -2.3819  -2.3818
    -2.1813  -2.0703  -2.0615  -2.0057  -1.8983  -1.7495  -1.7133  -1.6824
    -1.5310  -1.4674  -1.3827  -1.3453  -1.1833  -1.0966  -1.0616  -0.8051
    -0.7678  -0.7395  -0.7289  -0.7280  -0.7104  -0.6841  -0.5664  -0.4721
    -0.4341  -0.3519  -0.3109   0.1597   0.2421   0.2683   0.4439   0.4943
     0.7584   0.8410   0.9358   1.0479   1.0481   1.0782   1.1195   1.3173
     1.3450   1.3580   1.3914   1.3955   1.4515   1.5246   1.5825   1.5999
     1.6499   1.6887   1.7389   1.7959   1.8063   1.8486   1.8677   1.9440
     1.9876   1.9914   2.0982   2.1151   2.1747   2.3261   2.3264   2.4946
     2.8861   2.8897   3.5709   3.5865   3.7283   3.7811   4.3108   6.5013
     6.9349   6.9370   7.8036   7.8301   8.7278   8.8210   8.8672   8.8855
     9.1281   9.1587   9.5698   9.7520   9.7978   9.8272   9.9022   9.9758
    10.0098

          k = 0.2500-0.5279 0.0000 ( 33964 PWs)   bands (ev):

   -35.4999 -35.4330 -22.5056 -22.4902 -22.4893 -22.2431 -16.9520 -16.8870
   -16.7640 -16.7016 -16.6558 -16.5765 -14.7451 -14.7428 -14.2936 -14.2904
   -14.2859 -14.2123 -14.1897 -14.1536 -14.0857 -14.0342 -13.9984 -13.9979
   -13.9250 -13.8173 -13.6973  -8.2886  -8.2877  -8.2705  -8.0351  -8.0034
    -8.0026  -7.8977  -7.8774  -7.8748  -7.8696  -7.6610  -7.6318  -3.6351
    -3.6071  -3.5842  -3.3245  -3.2187  -3.1241  -3.1241  -2.3893  -2.3892
    -2.1794  -2.0346  -2.0237  -1.9443  -1.9065  -1.8716  -1.8493  -1.8138
    -1.6678  -1.5333  -1.4108  -1.3776  -1.2539  -1.1808  -1.1558  -0.8756
    -0.8487  -0.7988  -0.7808  -0.7610  -0.7447  -0.7423  -0.5447  -0.4853
    -0.4541  -0.3794  -0.3345   0.1763   0.2724   0.3002   0.4649   0.5258
     0.7936   0.9271   1.0331   1.1043   1.1364   1.1497   1.1522   1.2676
     1.2817   1.3487   1.4439   1.4740   1.5296   1.5607   1.5647   1.5731
     1.6531   1.7952   1.8332   1.9815   2.0117   2.0233   2.0630   2.0835
     2.1100   2.1401   2.1486   2.2543   2.2869   2.5018   2.5021   2.5320
     2.6637   2.6691   3.5910   3.6100   3.7632   3.8136   4.4613   6.3954
     6.8999   6.9011   7.7448   7.7974   8.7720   8.7786   9.2007   9.2958
     9.5705   9.5833   9.5880   9.7921   9.9013   9.9333  10.0102  10.1490
    10.1832

          k = 0.3750 0.0000 0.0000 ( 33964 PWs)   bands (ev):

   -35.5096 -35.4427 -22.6144 -22.6133 -22.6124 -22.3614 -16.9514 -16.8891
   -16.8066 -16.7265 -16.5478 -16.4846 -14.9758 -14.9715 -14.9259 -14.5831
   -14.5676 -14.5314 -14.4083 -14.1463 -14.1409 -14.0786 -14.0293 -13.9051
   -13.8445 -13.7234 -13.6232  -7.9962  -7.8621  -7.8607  -7.6635  -7.6016
    -7.6009  -7.5103  -7.4244  -7.4235  -7.3663  -7.3164  -7.1574  -2.8233
    -2.8203  -2.6403  -2.5226  -2.2624  -2.2620  -2.0231  -1.5942  -1.5730
    -1.5117  -1.4857  -1.4324  -1.3597  -1.1472  -1.1466  -1.1304  -1.1194
    -1.0448  -0.9518  -0.9478  -0.9436  -0.9398  -0.8290  -0.8114  -0.7500
    -0.7160  -0.6610  -0.6606  -0.5234  -0.3734  -0.3304  -0.1925  -0.1769
    -0.1605  -0.1307  -0.1230  -0.0003   0.1355   0.1361   0.2399   0.2416
     0.2716   0.4719   0.4728   0.4932   0.4985   0.5332   0.5955   0.6178
     0.7700   0.8179   0.8404   0.9211   1.0460   1.1853   1.2535   1.2538
     1.2985   1.3354   1.4180   1.4268   1.5720   1.5969   1.6061   1.6666
     1.7453   1.8175   1.8469   1.8779   1.9570   1.9858   2.0770   2.1831
     2.2196   2.2883   2.4687   2.6261   2.6669   2.8619   2.8733   6.5735
     6.5737   6.8553   7.8402   7.8992   8.0687   8.0696   8.4183   8.5522
     8.6252   8.7873   9.1882   9.3947   9.4259   9.5646   9.5846   9.6214
     9.6392

          k = 0.3750 0.1320 0.0000 ( 33991 PWs)   bands (ev):

   -35.5079 -35.4409 -22.5950 -22.5916 -22.5907 -22.3404 -16.9428 -16.8806
   -16.7775 -16.6972 -16.6123 -16.5490 -14.9277 -14.9242 -14.8556 -14.5422
   -14.5234 -14.4708 -14.3516 -14.1183 -14.1165 -14.0554 -14.0181 -13.8976
   -13.8689 -13.7441 -13.6301  -7.9951  -7.9197  -7.9187  -7.7649  -7.7640
    -7.7135  -7.6844  -7.5142  -7.5133  -7.5004  -7.4494  -7.2506  -2.8849
    -2.8787  -2.6844  -2.5587  -2.2612  -2.2608  -2.0380  -1.9705  -1.9567
    -1.7936  -1.7313  -1.6278  -1.5481  -1.5476  -1.4060  -1.3803  -1.2830
    -1.2432  -1.2403  -1.1257  -1.0329  -0.9966  -0.8854  -0.7606  -0.7251
    -0.7080  -0.6059  -0.5854  -0.4797  -0.4543  -0.3482  -0.3394  -0.1995
    -0.1972   0.0116   0.0190   0.1192   0.1690   0.1982   0.2488   0.2539
     0.3090   0.4054   0.5078   0.5092   0.5609   0.7386   0.7464   0.8616
     0.8822   0.9655   1.0357   1.0703   1.2176   1.2248   1.2567   1.3118
     1.3495   1.3845   1.4288   1.4318   1.6073   1.6290   1.6377   1.6939
     1.7777   1.8058   1.8446   1.8634   1.9306   1.9562   2.0196   2.3414
     2.8110   2.8199   2.9774   3.0273   3.0411   3.2005   3.2390   6.7223
     6.7228   6.7566   7.8875   7.9420   8.1342   8.1348   8.5229   8.5678
     8.7900   8.9661   9.0426   9.3286   9.4362   9.5105   9.5743   9.6757
     9.7356

          k = 0.3750 0.2640 0.0000 ( 33991 PWs)   bands (ev):

   -35.5035 -35.4366 -22.5474 -22.5383 -22.5374 -22.2888 -16.9225 -16.8603
   -16.7567 -16.7023 -16.6920 -16.6227 -14.8055 -14.8032 -14.6617 -14.4462
   -14.4224 -14.3215 -14.2123 -14.0779 -14.0673 -14.0449 -14.0289 -13.9216
   -13.8351 -13.7627 -13.6596  -8.2212  -8.2203  -8.1461  -7.9803  -7.8997
    -7.8987  -7.8772  -7.7774  -7.7764  -7.7395  -7.6390  -7.5218  -3.2001
    -3.1798  -2.9242  -2.7903  -2.5551  -2.4321  -2.4298  -2.3126  -2.3125
    -2.2851  -2.2077  -2.1817  -2.1816  -2.0110  -1.7091  -1.6886  -1.5426
    -1.4911  -1.4314  -1.1896  -1.1698  -0.9718  -0.8853  -0.8401  -0.8069
    -0.7947  -0.7394  -0.6185  -0.5973  -0.5793  -0.5761  -0.5404  -0.4157
    -0.3617  -0.3044  -0.2878   0.1111   0.1874   0.3562   0.5173   0.5406
     0.7432   0.7779   0.8272   0.8913   0.9022   1.0754   1.0764   1.1575
     1.2368   1.2743   1.3001   1.3125   1.4742   1.4883   1.5124   1.5400
     1.6349   1.6898   1.7094   1.7308   1.7566   1.7957   1.8167   1.8219
     1.8414   1.8760   1.8975   1.9017   1.9159   2.0532   2.2157   2.3468
     3.0547   3.0595   3.7708   3.7971   3.8120   3.9278   3.9824   6.3812
     6.7680   6.7691   7.7115   7.7180   8.4730   8.4753   8.7837   8.8992
     9.0634   9.3054   9.4775   9.5023   9.5259   9.6213   9.6729   9.8758
     9.9736

          k = 0.3750 0.3960 0.0000 ( 33993 PWs)   bands (ev):

   -35.4992 -35.4322 -22.4988 -22.4837 -22.4828 -22.2361 -16.9052 -16.8835
   -16.8425 -16.8194 -16.6225 -16.5423 -14.6706 -14.6693 -14.4048 -14.3514
   -14.3315 -14.1651 -14.1574 -14.1296 -14.0390 -14.0113 -14.0088 -13.9184
   -13.8178 -13.7631 -13.6778  -8.4869  -8.4860  -8.4416  -8.2238  -8.1520
    -8.1512  -8.0502  -7.9154  -7.9021  -7.9003  -7.8102  -7.6615  -3.6796
    -3.6546  -3.3818  -3.2795  -3.2219  -2.8764  -2.8758  -2.5627  -2.5623
    -2.4002  -2.3075  -2.2105  -2.2102  -2.0235  -2.0201  -2.0031  -1.7718
    -1.7384  -1.5607  -1.2013  -1.1509  -1.1396  -1.1389  -1.0959  -0.8905
    -0.8861  -0.7991  -0.7936  -0.7280  -0.6781  -0.6708  -0.6171  -0.5714
    -0.5155  -0.3270  -0.3261   0.2321   0.3252   0.4000   0.6398   0.7150
     0.9819   1.0927   1.1588   1.2270   1.2285   1.3163   1.3475   1.4237
     1.4435   1.5427   1.5532   1.5595   1.6518   1.6587   1.7294   1.7814
     1.8181   1.8438   1.8587   1.9174   1.9912   2.0088   2.0384   2.0643
     2.0831   2.0971   2.1561   2.2466   2.2478   2.2495   2.3318   2.5211
     2.8745   2.8817   4.2299   4.3135   4.3338   4.4058   4.4633   5.9239
     6.4647   6.4658   7.3921   7.4503   8.8453   8.9396   9.0478   9.0842
     9.3314   9.4777   9.5495   9.5823   9.5919   9.6946   9.7039   9.8550
     9.9738

          k = 0.3750-0.5279 0.0000 ( 34004 PWs)   bands (ev):

   -35.4974 -35.4304 -22.4784 -22.4606 -22.4597 -22.2138 -16.9387 -16.8926
   -16.8738 -16.8305 -16.5871 -16.5069 -14.6094 -14.6084 -14.3277 -14.3031
   -14.2143 -14.2109 -14.1584 -14.0753 -13.9950 -13.9910 -13.9898 -13.9678
   -13.8496 -13.7654 -13.6586  -8.5690  -8.5680  -8.5476  -8.3113  -8.2971
    -8.2964  -8.1993  -7.9650  -7.9283  -7.9267  -7.8739  -7.6728  -3.8863
    -3.8607  -3.6155  -3.5130  -3.4248  -3.1016  -3.1010  -2.5812  -2.5809
    -2.4120  -2.3140  -2.2047  -2.2044  -2.1294  -2.1161  -2.0217  -1.8555
    -1.8297  -1.5958  -1.2773  -1.2534  -1.2153  -1.1725  -1.1541  -0.8896
    -0.8865  -0.8849  -0.8793  -0.8122  -0.7686  -0.7215  -0.6365  -0.5864
    -0.4799  -0.3129  -0.3124   0.2650   0.3624   0.4136   0.6864   0.7963
     1.0501   1.2291   1.3214   1.3366   1.3568   1.3737   1.3996   1.4242
     1.4507   1.6163   1.6679   1.6851   1.7220   1.8103   1.8126   1.8361
     1.8686   1.9390   1.9659   2.0446   2.0954   2.1111   2.1345   2.2077
     2.2269   2.2460   2.3228   2.3571   2.4357   2.4387   2.4962   2.5853
     2.6299   2.6405   4.3274   4.4560   4.4894   4.5528   4.6091   5.7251
     6.2873   6.2879   7.2732   7.3652   8.6970   8.9318   9.1982   9.2272
     9.2691   9.4410   9.5711   9.6667   9.7840   9.8499   9.9158   9.9876
    10.0527

          k =-0.5000 0.0000 0.0000 ( 33930 PWs)   bands (ev):

   -35.5086 -35.4416 -22.5978 -22.5942 -22.5933 -22.3431 -17.0038 -16.9416
   -16.7644 -16.6837 -16.5464 -16.4832 -15.0332 -15.0274 -14.9594 -14.6009
   -14.5555 -14.3215 -14.2517 -14.2170 -14.2025 -14.1285 -14.1186 -13.9386
   -13.8597 -13.7414 -13.6423  -7.9902  -7.8518  -7.8504  -7.6467  -7.5785
    -7.5778  -7.5019  -7.3883  -7.3874  -7.3354  -7.3039  -7.1237  -2.9653
    -2.9626  -2.7845  -2.6719  -2.2874  -2.2870  -2.0202  -1.5837  -1.5624
    -1.5465  -1.5194  -1.3063  -1.2479  -1.1919  -1.1510  -1.1506  -1.1500
    -1.1062  -1.0990  -1.0922  -0.9889  -0.9862  -0.9251  -0.8318  -0.8262
    -0.7987  -0.7449  -0.7445  -0.5975  -0.4349  -0.3791  -0.2084  -0.1839
    -0.1476  -0.1289  -0.1276  -0.0650   0.1302   0.1308   0.2006   0.2279
     0.2550   0.4717   0.4724   0.4971   0.4974   0.5256   0.5491   0.6086
     0.7791   0.8230   0.8768   0.9352   0.9862   1.2031   1.2034   1.2504
     1.4302   1.4438   1.4669   1.5093   1.5327   1.6425   1.6608   1.6990
     1.7225   1.7231   1.8031   1.9391   2.0261   2.0759   2.1021   2.2010
     2.2321   2.2812   2.4769   2.6179   2.6783   2.8921   2.9099   7.0008
     7.3462   7.3467   7.3981   7.3984   8.3403   8.3850   8.6161   8.6612
     8.9306   9.1120   9.1229   9.4959   9.5262   9.5828   9.6329   9.7893
     9.9313

          k =-0.5000 0.1320 0.0000 ( 33986 PWs)   bands (ev):

   -35.5068 -35.4398 -22.5791 -22.5734 -22.5725 -22.3230 -16.9946 -16.9324
   -16.7369 -16.6560 -16.6102 -16.5469 -14.9757 -14.9708 -14.8852 -14.5602
   -14.5169 -14.2801 -14.1937 -14.1784 -14.1536 -14.1065 -14.0965 -13.9073
   -13.8972 -13.7664 -13.6420  -7.9850  -7.8909  -7.8897  -7.7079  -7.7072
    -7.6659  -7.6223  -7.5912  -7.5904  -7.5594  -7.4234  -7.3369  -3.0334
    -3.0275  -2.8364  -2.7142  -2.2923  -2.2920  -2.0480  -1.9395  -1.9229
    -1.7379  -1.6807  -1.6195  -1.5428  -1.5423  -1.4445  -1.4154  -1.3581
    -1.3551  -1.3164  -1.2357  -1.1364  -1.0252  -0.8869  -0.8006  -0.8003
    -0.7394  -0.6242  -0.6002  -0.5340  -0.4734  -0.3840  -0.3770  -0.2234
    -0.2223  -0.0032   0.0078   0.1300   0.1767   0.2026   0.2506   0.2515
     0.3718   0.4101   0.4668   0.5831   0.5837   0.6602   0.6735   0.8395
     0.8581   0.9719   1.0483   1.1130   1.1837   1.2283   1.2514   1.3486
     1.3501   1.3822   1.4880   1.5284   1.6510   1.6579   1.7056   1.7301
     1.7769   1.8034   1.8165   1.9463   1.9907   2.0721   2.0820   2.3209
     2.8179   2.8236   2.9857   3.0457   3.0612   3.2496   3.2889   6.7938
     7.1940   7.1944   7.7011   7.7018   8.2435   8.2754   8.5474   8.5850
     9.0593   9.1785   9.3634   9.6189   9.6669   9.6882   9.7019   9.7658
     9.8028

          k =-0.5000 0.2640 0.0000 ( 33976 PWs)   bands (ev):

   -35.5025 -35.4355 -22.5334 -22.5224 -22.5215 -22.2735 -16.9726 -16.9105
   -16.7534 -16.6890 -16.6658 -16.5856 -14.8243 -14.8208 -14.6807 -14.4632
   -14.4260 -14.1760 -14.0963 -14.0884 -14.0833 -14.0560 -14.0429 -13.9643
   -13.8368 -13.7921 -13.6566  -8.1600  -8.1590  -8.0880  -8.0091  -8.0084
    -7.9491  -7.9110  -7.8585  -7.8407  -7.8395  -7.6962  -7.6197  -3.3385
    -3.3182  -3.0696  -2.9355  -2.5474  -2.4576  -2.4548  -2.3254  -2.3224
    -2.3008  -2.2306  -2.1895  -2.1893  -2.0157  -1.8344  -1.8115  -1.6123
    -1.5472  -1.5012  -1.1104  -1.0836  -0.9391  -0.8999  -0.8995  -0.8367
    -0.8200  -0.7520  -0.6412  -0.6075  -0.6052  -0.6048  -0.5517  -0.4199
    -0.3508  -0.3255  -0.3246   0.1262   0.1978   0.4156   0.5724   0.5792
     0.7859   0.8157   0.9056   0.9194   0.9234   1.1600   1.1633   1.1806
     1.2444   1.2538   1.2718   1.2749   1.4749   1.5367   1.5608   1.5883
     1.6447   1.6672   1.7680   1.7742   1.7753   1.8308   1.8589   1.8864
     1.9242   1.9274   1.9797   2.0277   2.0303   2.0521   2.1685   2.2846
     3.0478   3.0531   3.7887   3.9343   3.9393   4.0580   4.1126   6.2530
     6.7639   6.7645   7.6220   7.6473   8.5081   8.5120   8.9900   9.0434
     9.1643   9.5170   9.5262   9.6595   9.6602   9.6832   9.8717   9.9126
     9.9610

          k =-0.5000 0.3960 0.0000 ( 33992 PWs)   bands (ev):

   -35.4981 -35.4312 -22.4866 -22.4702 -22.4693 -22.2229 -16.9510 -16.8890
   -16.8826 -16.8180 -16.5902 -16.5097 -14.6415 -14.6396 -14.4175 -14.3684
   -14.3475 -14.1510 -14.1201 -14.0677 -14.0085 -14.0079 -13.9659 -13.9041
   -13.8282 -13.7438 -13.6736  -8.5351  -8.5341  -8.4978  -8.2971  -8.2964
    -8.2726  -8.1994  -7.9462  -7.9289  -7.9181  -7.9152  -7.6644  -3.8099
    -3.7828  -3.4937  -3.3615  -3.2623  -2.8679  -2.8672  -2.6328  -2.6321
    -2.4709  -2.3883  -2.2271  -2.2267  -2.1275  -2.1031  -2.0302  -1.8322
    -1.7774  -1.6022  -1.1646  -1.1616  -1.1339  -1.0369  -1.0318  -0.9788
    -0.9733  -0.8181  -0.8169  -0.7131  -0.7024  -0.6664  -0.6616  -0.6239
    -0.5109  -0.2891  -0.2887   0.2525   0.3454   0.4643   0.7299   0.8086
     1.0671   1.2101   1.2547   1.3503   1.3527   1.3687   1.3890   1.4572
     1.4748   1.5830   1.6306   1.6332   1.6538   1.7065   1.7732   1.8215
     1.8244   1.9111   1.9182   1.9869   2.0498   2.0662   2.0710   2.1254
     2.1407   2.1701   2.2176   2.2210   2.2865   2.3592   2.4630   2.4631
     2.8626   2.8710   4.2302   4.5784   4.5835   4.6488   4.7068   5.7039
     6.2690   6.2696   7.2279   7.2993   8.8555   8.9472   8.9814   9.0097
     9.3094   9.5063   9.6273   9.6472   9.7431   9.7913   9.8183   9.9173
     9.9738

          k =-0.5000-0.5279 0.0000 ( 34028 PWs)   bands (ev):

   -35.4963 -35.4294 -22.4670 -22.4482 -22.4473 -22.2016 -16.9422 -16.9332
   -16.8802 -16.8684 -16.5567 -16.4763 -14.5440 -14.5438 -14.3681 -14.3346
   -14.2112 -14.1964 -14.1534 -14.0243 -13.9879 -13.9841 -13.9216 -13.9178
   -13.8637 -13.7102 -13.6583  -8.6811  -8.6802  -8.6608  -8.4229  -8.4132
    -8.4125  -8.3193  -8.0431  -7.9486  -7.9454  -7.9210  -7.6765  -4.0182
    -3.9904  -3.7006  -3.5736  -3.5100  -3.0922  -3.0915  -2.6653  -2.6645
    -2.4978  -2.4114  -2.2252  -2.2172  -2.2167  -2.1970  -2.0303  -1.9066
    -1.8514  -1.6349  -1.2800  -1.2767  -1.1932  -1.1014  -1.0957  -0.9525
    -0.9471  -0.9132  -0.9127  -0.8133  -0.7696  -0.7334  -0.6892  -0.6443
    -0.4668  -0.2604  -0.2599   0.2885   0.3842   0.4771   0.7896   0.9222
     1.1588   1.3721   1.4162   1.4261   1.4345   1.4400   1.4595   1.4763
     1.5023   1.7012   1.7252   1.7590   1.8033   1.8304   1.9094   1.9575
     1.9731   1.9754   2.0570   2.0828   2.1228   2.1498   2.1963   2.2058
     2.2710   2.3083   2.4101   2.4120   2.4704   2.4997   2.6060   2.6186
     2.6342   2.6436   4.3236   4.7786   4.7909   4.8505   4.9052   5.4711
     6.0421   6.0424   7.0954   7.2028   8.6944   8.9313   9.0164   9.1077
     9.1202   9.1676   9.4782   9.6373   9.7086   9.7375   9.9882  10.0645
    10.2365

     the Fermi energy is     2.6372 ev

!    total energy              =   -1842.89682698 Ry
     Harris-Foulkes estimate   =   -1842.89682701 Ry
     estimated scf accuracy    <          6.9E-09 Ry

     The total energy is the sum of the following terms:

     one-electron contribution =  -30464.03689942 Ry
     hartree contribution      =   15385.83239186 Ry
     xc contribution           =    -621.73831802 Ry
     ewald contribution        =   13857.05403615 Ry
     smearing contrib. (-TS)   =      -0.00803755 Ry

     convergence has been achieved in  33 iterations

     negative rho (up, down):  1.509E-03 0.000E+00

     Forces acting on atoms (cartesian axes, Ry/au):

     atom    1 type  4   force =     0.00000000    0.00000000   -0.00016172
     atom    2 type  3   force =     0.00000000    0.00000000    0.00038284
     atom    3 type  4   force =     0.00000000    0.00000000   -0.00076076
     atom    4 type  1   force =     0.00000000    0.00000000   -0.00026720
     atom    5 type  3   force =     0.00000000    0.00000000    0.00053979
     atom    6 type  4   force =     0.00000000    0.00000000   -0.00002388
     atom    7 type  4   force =     0.00000000    0.00000000    0.00029250
     atom    8 type  2   force =     0.00000000    0.00000000   -0.00058880
     atom    9 type  4   force =     0.00000000    0.00000000    0.00027616
     atom   10 type  4   force =     0.00000000    0.00000000    0.00021188
     atom   11 type  3   force =     0.00000000    0.00000000   -0.00002015
     atom   12 type  1   force =     0.00000000    0.00000000   -0.00013809
     atom   13 type  4   force =     0.00000000    0.00000000    0.00261204
     atom   14 type  4   force =     0.00000000    0.00000000    0.00325763
     atom   15 type  3   force =     0.00000000    0.00000000   -0.00129717
     atom   16 type  4   force =     0.00000000    0.00000000    0.00325916
     atom   17 type  1   force =     0.00000000    0.00000000    0.01583237
     atom   18 type  3   force =     0.00000000    0.00000000   -0.00332014
     atom   19 type  4   force =     0.00000000    0.00000000   -0.00787568
     atom   20 type  4   force =     0.00000000    0.00000000   -0.00559778
     atom   21 type  2   force =     0.00000000    0.00000000   -0.00831275
     atom   22 type  4   force =     0.00000000    0.00000000    0.00017501
     atom   23 type  4   force =     0.00000000    0.00000000    0.00086388
     atom   24 type  3   force =     0.00000000    0.00000000   -0.00033131
     atom   25 type  1   force =     0.00000000    0.00000000    0.00025947
     atom   26 type  4   force =     0.00000000    0.00000000    0.00090924
     atom   27 type  3   force =     0.00000000    0.00000000   -0.00037090
     atom   28 type  4   force =     0.00000000    0.00000000    0.00019437

     Total force =     0.021144     Total SCF correction =     0.000212


     Computing stress (Cartesian axis) and pressure


     negative rho (up, down):  1.509E-03 0.000E+00
          total   stress  (Ry/bohr**3)                   (kbar)     P=       -3.59
  -0.00002403   0.00000000   0.00000000           -3.53        0.00        0.00
   0.00000000  -0.00001687   0.00000000            0.00       -2.48        0.00
   0.00000000   0.00000000  -0.00003234            0.00        0.00       -4.76


     BFGS Geometry Optimization

     number of scf cycles    =   1
     number of bfgs steps    =   0

     energy   new            =   -1842.8968269757 Ry

     new trust radius        =       0.0158323693 bohr
     new conv_thr            =       0.0000000100 Ry


ATOMIC_POSITIONS (angstrom)
O             0.0000000000        1.8611200000       -0.1846200000    0   0   0
Cu            0.0000000000        0.0000000000        0.1039800000    0   0   0
O             0.0000000000        0.0000000000        1.9772600000    0   0   0
Ba            1.9651100000        1.8611200000        2.2364100000    0   0   0
Cu            0.0000000000        0.0000000000        4.0773100000    0   0   0
O             1.9651100000        0.0000000000        4.2321000000    0   0   0
O             0.0000000000        1.8611200000        4.3692200000    0   0   0
Ca            1.9651100000        1.8611200000        5.8860000000    0   0   0
O             0.0000000000        1.8611200000        7.3367500000    0   0   0
O             1.9651100000        0.0000000000        7.4847600000    0   0   0
Cu            0.0000000000        0.0000000000        7.6688600000    0   0   0
Ba            1.9651100000        1.8611200000        9.5487700000    0   0   0
O             0.0000000000        0.0000000000        9.8708900000    0   0   0
O             0.0000000000        1.8611200000       11.7603638652
Cu            0.0000000000        0.0000000000       11.7581735680
O             0.0000000000        0.0000000000       13.6485046709
Ba            1.9651100000        1.8611200000       13.9772481290
Cu            0.0000000000        0.0000000000       16.0969530590
O             1.9651100000        0.0000000000       16.2786423719
O             0.0000000000        1.8611200000       16.4278377806
Ca            1.9651100000        1.8611200000       17.8771910819
O             0.0000000000        1.8611200000       19.3983600000    0   0   0
O             1.9651100000        0.0000000000       19.5354800000    0   0   0
Cu            0.0000000000        0.0000000000       19.6902800000    0   0   0
Ba            1.9651100000        1.8611200000       21.5311700000    0   0   0
O             0.0000000000        0.0000000000       21.7902800000    0   0   0
Cu            0.0000000000        0.0000000000       23.6635800000    0   0   0
O             0.0000000000        1.8611200000       23.9521300000    0   0   0


     NEW-OLD atomic charge density approx. for the potential

     negative rho (up, down):  1.572E-03 0.000E+00

     total cpu time spent up to now is      605.1 secs

     Self-consistent Calculation

     iteration #  1     ecut=    60.00 Ry     beta= 0.50
     Davidson diagonalization with overlap
     ethr =  1.00E-06,  avg # of iterations =  4.2

     negative rho (up, down):  1.526E-03 0.000E+00

     total cpu time spent up to now is      628.2 secs

     total energy              =   -1842.89719881 Ry
     Harris-Foulkes estimate   =   -1842.89716599 Ry
     estimated scf accuracy    <       0.00044151 Ry

     iteration #  2     ecut=    60.00 Ry     beta= 0.50
     Davidson diagonalization with overlap
     ethr =  1.94E-07,  avg # of iterations =  1.1

     negative rho (up, down):  1.514E-03 0.000E+00

     total cpu time spent up to now is      642.3 secs

     total energy              =   -1842.89723777 Ry
     Harris-Foulkes estimate   =   -1842.89724326 Ry
     estimated scf accuracy    <       0.00024428 Ry

     iteration #  3     ecut=    60.00 Ry     beta= 0.50
     Davidson diagonalization with overlap
     ethr =  1.08E-07,  avg # of iterations =  1.3

     negative rho (up, down):  1.513E-03 0.000E+00

     total cpu time spent up to now is      656.4 secs

     total energy              =   -1842.89725570 Ry
     Harris-Foulkes estimate   =   -1842.89725385 Ry
     estimated scf accuracy    <       0.00005071 Ry

     iteration #  4     ecut=    60.00 Ry     beta= 0.50
     Davidson diagonalization with overlap
     ethr =  2.23E-08,  avg # of iterations =  1.6

     negative rho (up, down):  1.513E-03 0.000E+00

     total cpu time spent up to now is      670.6 secs

     total energy              =   -1842.89725609 Ry
     Harris-Foulkes estimate   =   -1842.89725729 Ry
     estimated scf accuracy    <       0.00001641 Ry

     iteration #  5     ecut=    60.00 Ry     beta= 0.50
     Davidson diagonalization with overlap
     ethr =  7.23E-09,  avg # of iterations =  2.1

     negative rho (up, down):  1.515E-03 0.000E+00

     total cpu time spent up to now is      685.8 secs

     total energy              =   -1842.89725665 Ry
     Harris-Foulkes estimate   =   -1842.89725714 Ry
     estimated scf accuracy    <       0.00000776 Ry

     iteration #  6     ecut=    60.00 Ry     beta= 0.50
     Davidson diagonalization with overlap
     ethr =  3.42E-09,  avg # of iterations =  1.9

     negative rho (up, down):  1.515E-03 0.000E+00

     total cpu time spent up to now is      700.5 secs

     total energy              =   -1842.89725689 Ry
     Harris-Foulkes estimate   =   -1842.89725700 Ry
     estimated scf accuracy    <       0.00000533 Ry

     iteration #  7     ecut=    60.00 Ry     beta= 0.50
     Davidson diagonalization with overlap
     ethr =  2.35E-09,  avg # of iterations =  1.0

     negative rho (up, down):  1.515E-03 0.000E+00

     total cpu time spent up to now is      714.3 secs

     total energy              =   -1842.89725692 Ry
     Harris-Foulkes estimate   =   -1842.89725698 Ry
     estimated scf accuracy    <       0.00000150 Ry

     iteration #  8     ecut=    60.00 Ry     beta= 0.50
     Davidson diagonalization with overlap
     ethr =  6.62E-10,  avg # of iterations =  1.8

     negative rho (up, down):  1.515E-03 0.000E+00

     total cpu time spent up to now is      729.0 secs

     total energy              =   -1842.89725692 Ry
     Harris-Foulkes estimate   =   -1842.89725697 Ry
     estimated scf accuracy    <       0.00000088 Ry

     iteration #  9     ecut=    60.00 Ry     beta= 0.50
     Davidson diagonalization with overlap
     ethr =  3.85E-10,  avg # of iterations =  1.2

     negative rho (up, down):  1.514E-03 0.000E+00

     total cpu time spent up to now is      743.1 secs

     total energy              =   -1842.89725693 Ry
     Harris-Foulkes estimate   =   -1842.89725695 Ry
     estimated scf accuracy    <       0.00000029 Ry

     iteration # 10     ecut=    60.00 Ry     beta= 0.50
     Davidson diagonalization with overlap
     ethr =  1.28E-10,  avg # of iterations =  2.8

     negative rho (up, down):  1.514E-03 0.000E+00

     total cpu time spent up to now is      758.7 secs

     total energy              =   -1842.89725694 Ry
     Harris-Foulkes estimate   =   -1842.89725694 Ry
     estimated scf accuracy    <       0.00000011 Ry

     iteration # 11     ecut=    60.00 Ry     beta= 0.50
     Davidson diagonalization with overlap
     ethr =  4.69E-11,  avg # of iterations =  2.0

     negative rho (up, down):  1.513E-03 0.000E+00

     total cpu time spent up to now is      773.6 secs

     total energy              =   -1842.89725694 Ry
     Harris-Foulkes estimate   =   -1842.89725694 Ry
     estimated scf accuracy    <       0.00000005 Ry

     iteration # 12     ecut=    60.00 Ry     beta= 0.50
     Davidson diagonalization with overlap
     ethr =  2.37E-11,  avg # of iterations =  2.4

     negative rho (up, down):  1.513E-03 0.000E+00

     total cpu time spent up to now is      789.0 secs

     total energy              =   -1842.89725694 Ry
     Harris-Foulkes estimate   =   -1842.89725694 Ry
     estimated scf accuracy    <       0.00000003 Ry

     iteration # 13     ecut=    60.00 Ry     beta= 0.50
     Davidson diagonalization with overlap
     ethr =  1.28E-11,  avg # of iterations =  1.2

     negative rho (up, down):  1.512E-03 0.000E+00

     total cpu time spent up to now is      802.9 secs

     total energy              =   -1842.89725694 Ry
     Harris-Foulkes estimate   =   -1842.89725694 Ry
     estimated scf accuracy    <       0.00000001 Ry

     iteration # 14     ecut=    60.00 Ry     beta= 0.50
     Davidson diagonalization with overlap
     ethr =  4.49E-12,  avg # of iterations =  2.8

     negative rho (up, down):  1.507E-03 0.000E+00

     total cpu time spent up to now is      818.0 secs

     End of self-consistent calculation

          k = 0.0000 0.0000 0.0000 ( 34019 PWs)   bands (ev):

   -35.5161 -35.4591 -22.7209 -22.7186 -22.6974 -22.4658 -17.0206 -16.9484
   -16.5672 -16.5559 -16.5142 -16.5025 -15.2312 -15.1774 -14.7749 -14.6013
   -14.5957 -14.5017 -14.4260 -14.1114 -14.1102 -13.9117 -13.8932 -13.7536
   -13.6393 -13.6295 -13.4454  -7.9132  -7.8523  -7.8468  -7.8147  -7.8127
    -7.6791  -7.6460  -7.6218  -7.6196  -7.5264  -7.5105  -7.3440  -2.2598
    -2.2598  -2.0567  -1.7595  -1.7544  -1.6953  -1.5980  -1.5911  -1.5739
    -1.4691  -1.4114  -1.3893  -1.3656  -1.1507  -1.1502  -0.9759  -0.7757
    -0.7613  -0.5130  -0.3887  -0.3885  -0.3082  -0.3062  -0.2411  -0.2228
    -0.1945  -0.1945  -0.1792  -0.1748  -0.1230  -0.1099  -0.1011  -0.0913
    -0.0806  -0.0193   0.0324   0.0331   0.1685   0.1691   0.1691   0.1725
     0.2306   0.2435   0.2597   0.3428   0.3801   0.3948   0.4265   0.4876
     0.5110   0.8187   0.8738   0.9520   0.9522   1.0151   1.0564   1.2536
     1.2801   1.4189   1.4334   1.4427   1.4677   1.5296   1.5889   1.5954
     1.7287   1.7386   1.8302   1.8431   1.8956   1.9484   2.1052   2.1104
     2.1980   2.2154   2.2516   2.3421   2.3501   2.6007   2.6066   5.2821
     5.2887   5.8189   6.2690   6.4893   6.8214   6.8365   7.0153   7.3417
     8.0415   8.1750   8.3374   8.3896   8.4949   8.6854   8.7701   9.1714
     9.2678

          k = 0.0000 0.1320 0.0000 ( 34015 PWs)   bands (ev):

   -35.5143 -35.4573 -22.6943 -22.6919 -22.6741 -22.4404 -16.9844 -16.9122
   -16.6285 -16.5742 -16.5648 -16.5118 -15.1425 -15.0914 -14.7198 -14.6065
   -14.5975 -14.4745 -14.3971 -14.1209 -14.1191 -13.9171 -13.9055 -13.7993
   -13.6787 -13.6667 -13.5051  -7.9059  -7.8518  -7.8472  -7.7669  -7.7649
    -7.6642  -7.6614  -7.6449  -7.6373  -7.5753  -7.4654  -7.3914  -2.3183
    -2.3167  -2.1365  -2.0897  -2.0690  -1.9682  -1.8974  -1.5958  -1.5777
    -1.5747  -1.5744  -1.5557  -1.4514  -1.3476  -1.2741  -1.2324  -1.0246
    -0.7099  -0.5603  -0.5595  -0.5528  -0.4860  -0.4858  -0.4151  -0.3911
    -0.3901  -0.2676  -0.1928  -0.1434  -0.1117  -0.0870  -0.0782  -0.0777
    -0.0361   0.0353   0.0537   0.0545   0.0777   0.0949   0.1925   0.1926
     0.2314   0.2472   0.3089   0.3467   0.3699   0.3806   0.4398   0.4952
     0.7997   0.9332   1.0035   1.1107   1.1279   1.1492   1.1500   1.2124
     1.2313   1.2587   1.4108   1.4897   1.4900   1.5554   1.5748   1.5956
     1.6482   1.7394   1.8241   1.8395   1.8835   1.9583   2.0411   2.0499
     2.0888   2.1591   2.2276   2.5431   2.8634   2.8891   2.9495   5.6617
     5.6635   6.1341   6.5850   6.7274   7.1278   7.1395   7.3283   7.6175
     8.2150   8.3632   8.5436   8.6023   8.7464   8.7998   9.0071   9.2945
     9.3760

          k = 0.0000 0.2640 0.0000 ( 33931 PWs)   bands (ev):

   -35.5099 -35.4529 -22.6284 -22.6260 -22.6167 -22.3777 -16.8924 -16.8199
   -16.7828 -16.7271 -16.5592 -16.5062 -14.9427 -14.9056 -14.6553 -14.6323
   -14.5731 -14.4130 -14.3258 -14.1082 -14.1037 -13.9568 -13.9502 -13.9251
   -13.7664 -13.7486 -13.6307  -7.8895  -7.8514  -7.8477  -7.7544  -7.7521
    -7.6888  -7.6465  -7.6444  -7.6351  -7.5328  -7.4939  -7.3521  -2.7637
    -2.7528  -2.6444  -2.5301  -2.4556  -2.3584  -2.3581  -2.2114  -2.2110
    -2.0413  -1.5666  -1.5238  -1.5058  -1.4119  -1.3950  -1.3714  -1.2923
    -0.9224  -0.8750  -0.8105  -0.7373  -0.7365  -0.7035  -0.6960  -0.5806
    -0.5753  -0.4640  -0.4576  -0.4289  -0.4271  -0.4202  -0.3861  -0.2490
    -0.1850  -0.0007   0.0820   0.0827   0.1455   0.1645   0.1724   0.2785
     0.3140   0.3779   0.4442   0.4859   0.6874   0.7379   0.7672   0.7736
     0.9716   1.0382   1.0742   1.0832   1.2042   1.2346   1.2350   1.2352
     1.2450   1.2768   1.3398   1.3900   1.4327   1.5372   1.6973   1.7378
     1.7693   1.7736   1.8492   1.9981   2.0164   2.0422   2.0436   2.0501
     2.0621   2.1794   2.3574   2.6650   3.1061   3.1148   3.7935   6.5567
     6.5568   6.8240   7.3786   7.4108   7.9545   7.9598   8.1851   8.4127
     8.7129   8.7526   8.8332   8.9737   9.0354   9.1559   9.3894   9.4284
     9.4376

          k = 0.0000 0.3960 0.0000 ( 33860 PWs)   bands (ev):

   -35.5054 -35.4485 -22.5602 -22.5579 -22.5576 -22.3130 -16.9191 -16.8613
   -16.7906 -16.7191 -16.5536 -16.5006 -14.8643 -14.8601 -14.6128 -14.5607
   -14.4235 -14.3447 -14.2641 -14.0792 -14.0431 -14.0348 -14.0225 -14.0051
   -13.9146 -13.8215 -13.7239  -7.8710  -7.8513  -7.8479  -7.8326  -7.8303
    -7.7833  -7.6298  -7.5837  -7.5180  -7.5159  -7.4227  -7.2319  -3.3630
    -3.2183  -3.2130  -2.9881  -2.9298  -2.9253  -2.8977  -2.3020  -2.3019
    -2.0710  -1.9039  -1.7430  -1.7240  -1.4586  -1.4415  -1.3046  -1.2068
    -1.1410  -1.0735  -1.0565  -1.0056  -1.0031  -0.8691  -0.7876  -0.7720
    -0.7717  -0.7133  -0.6800  -0.6767  -0.6647  -0.6355  -0.5678  -0.2676
    -0.2321  -0.0226  -0.0219   0.0991   0.0997   0.1945   0.1971   0.2349
     0.2633   0.3657   0.5631   0.5975   0.8514   0.8960   0.9141   0.9331
     0.9953   1.0002   1.0251   1.0344   1.1526   1.1674   1.2056   1.2056
     1.2090   1.4534   1.5907   1.6769   1.6867   1.6974   1.7960   1.8195
     1.8237   1.8725   2.0033   2.0235   2.0538   2.1234   2.1511   2.3238
     2.3559   2.4376   2.4379   2.5909   2.9984   3.0105   4.3617   7.4429
     7.5040   7.5068   8.3203   8.3522   8.5124   8.7509   8.7541   9.0818
     9.1247   9.1609   9.1671   9.2086   9.2789   9.4932   9.5690   9.5755
     9.7723

          k = 0.0000-0.5279 0.0000 ( 33926 PWs)   bands (ev):

   -35.5036 -35.4467 -22.5327 -22.5313 -22.5289 -22.2855 -16.9713 -16.9130
   -16.7457 -16.6743 -16.5512 -16.4982 -14.9066 -14.9028 -14.4983 -14.4573
   -14.4246 -14.2617 -14.2133 -14.1640 -14.0569 -14.0450 -14.0132 -14.0023
   -13.9709 -13.8745 -13.7670  -7.8623  -7.8601  -7.8557  -7.8510  -7.8488
    -7.8247  -7.6248  -7.6204  -7.4621  -7.4600  -7.3753  -7.1799  -3.6302
    -3.3970  -3.3923  -3.1672  -3.1589  -3.1448  -3.0682  -2.3181  -2.3180
    -2.0812  -2.0306  -1.8726  -1.8573  -1.4258  -1.4067  -1.2521  -1.2335
    -1.1604  -1.1521  -1.1306  -1.1270  -1.0884  -0.9641  -0.8953  -0.8905
    -0.8753  -0.7804  -0.7676  -0.7672  -0.7108  -0.6951  -0.6453  -0.2344
    -0.2038  -0.1123  -0.0307   0.1048   0.1054   0.1918   0.2003   0.2421
     0.2609   0.3588   0.4913   0.5277   0.8089   0.8849   0.8905   0.8940
     0.9277   0.9582   1.0707   1.0817   1.1737   1.1885   1.1886   1.3860
     1.4350   1.4489   1.5819   1.6361   1.7954   1.8076   1.8227   1.8436
     2.0832   2.0903   2.0904   2.1357   2.1416   2.1736   2.1917   2.2664
     2.3041   2.5603   2.5991   2.5994   2.8194   2.8335   4.5422   7.7271
     7.9166   7.9180   8.3885   8.8852   9.0307   9.0337   9.0623   9.0769
     9.0979   9.1245   9.3886   9.3942   9.4323   9.4811   9.9133  10.0037
    10.1355

          k = 0.1250 0.0000 0.0000 ( 34005 PWs)   bands (ev):

   -35.5150 -35.4580 -22.7029 -22.7005 -22.6817 -22.4486 -16.9872 -16.9148
   -16.6474 -16.5940 -16.5545 -16.5011 -15.1289 -15.0788 -14.7933 -14.6470
   -14.6381 -14.5070 -14.4290 -14.1204 -14.1193 -13.9235 -13.9069 -13.7743
   -13.6859 -13.6491 -13.4837  -7.9460  -7.8780  -7.8735  -7.7530  -7.7506
    -7.6898  -7.6116  -7.5893  -7.5871  -7.4981  -7.4500  -7.3135  -2.3025
    -2.3021  -2.0871  -1.8015  -1.7952  -1.7370  -1.7339  -1.7303  -1.6666
    -1.6338  -1.5656  -1.3811  -1.3531  -1.1487  -1.1482  -0.9943  -0.8298
    -0.7891  -0.5952  -0.5612  -0.5290  -0.4447  -0.4438  -0.3111  -0.2712
    -0.2691  -0.2649  -0.2299  -0.2059  -0.1974  -0.1714  -0.1293  -0.1097
    -0.0882  -0.0110   0.0272   0.0828   0.1613   0.1618   0.1886   0.2207
     0.2648   0.2663   0.2894   0.3276   0.4199   0.4500   0.4929   0.5227
     0.5930   0.8595   0.8634   0.9352   0.9667   1.0523   1.1149   1.2580
     1.2741   1.2884   1.4085   1.4357   1.4642   1.4841   1.5559   1.5847
     1.5998   1.8183   1.9257   1.9664   2.0118   2.0545   2.0619   2.1618
     2.1730   2.2328   2.2622   2.2710   2.3995   2.6383   2.6409   5.4652
     5.4676   6.0318   6.5025   6.6624   7.0401   7.0484   7.2022   7.5500
     8.1878   8.3029   8.5084   8.5645   8.7535   8.8770   9.0409   9.2620
     9.4367

          k = 0.1250 0.1320 0.0000 ( 33966 PWs)   bands (ev):

   -35.5132 -35.4562 -22.6770 -22.6747 -22.6590 -22.4239 -16.9521 -16.8796
   -16.6505 -16.6177 -16.5968 -16.5638 -15.0477 -15.0013 -14.7363 -14.6413
   -14.6292 -14.4772 -14.3962 -14.1213 -14.1202 -13.9293 -13.9204 -13.8138
   -13.7183 -13.6783 -13.5322  -7.9270  -7.8973  -7.8939  -7.8152  -7.8122
    -7.7470  -7.6638  -7.5518  -7.5493  -7.5434  -7.4512  -7.2729  -2.3551
    -2.3529  -2.1531  -2.0774  -2.0570  -1.9510  -1.8840  -1.7805  -1.7741
    -1.7052  -1.6084  -1.6010  -1.5687  -1.5684  -1.2774  -1.2304  -1.0640
    -0.7604  -0.7316  -0.7165  -0.6087  -0.6041  -0.5397  -0.4747  -0.4381
    -0.4324  -0.4271  -0.4003  -0.1965  -0.1744  -0.1379  -0.1214  -0.0648
    -0.0104   0.0376   0.0577   0.0694   0.0859   0.1291   0.2208   0.2271
     0.2575   0.2910   0.3322   0.3471   0.3605   0.4038   0.5892   0.6448
     0.7756   1.0194   1.0880   1.1058   1.1138   1.2008   1.2020   1.2863
     1.3055   1.3283   1.3541   1.3647   1.3874   1.4906   1.5510   1.6241
     1.6634   1.6720   1.7315   1.7341   1.7992   1.8656   2.1483   2.2800
     2.4113   2.4187   2.5814   2.6578   2.8760   2.8957   2.9616   5.8049
     5.8055   6.2874   6.7690   6.8650   7.3379   7.3438   7.5108   7.8210
     8.3590   8.4815   8.6821   8.7505   8.9116   8.9582   9.1907   9.3409
     9.3988

          k = 0.1250 0.2640 0.0000 ( 33895 PWs)   bands (ev):

   -35.5088 -35.4518 -22.6132 -22.6108 -22.6032 -22.3630 -16.8628 -16.7900
   -16.7797 -16.7243 -16.6301 -16.5768 -14.8736 -14.8468 -14.6416 -14.6123
   -14.5837 -14.4074 -14.3153 -14.1035 -14.1009 -13.9786 -13.9689 -13.9163
   -13.7725 -13.7531 -13.6375  -7.9663  -7.9641  -7.8938  -7.8765  -7.8522
[...]
    -7.8915  -7.7770  -7.7718  -7.7508  -7.6628  -7.5962  -7.5213  -3.1996
    -3.1725  -2.9233  -2.8746  -2.4954  -2.4317  -2.4268  -2.3120  -2.3114
    -2.2880  -2.2584  -2.1811  -2.1809  -1.9664  -1.7086  -1.6947  -1.5294
    -1.5132  -1.4167  -1.1863  -1.1688  -0.9501  -0.8868  -0.8257  -0.8086
    -0.7922  -0.7401  -0.6358  -0.6216  -0.5789  -0.5782  -0.4837  -0.4146
    -0.3895  -0.3055  -0.2978   0.1099   0.1838   0.3942   0.5291   0.5390
     0.7335   0.7740   0.8715   0.8928   0.9016   1.0756   1.0772   1.1430
     1.2383   1.2821   1.2971   1.3142   1.4736   1.4824   1.5037   1.5120
     1.6504   1.7015   1.7224   1.7368   1.7582   1.7976   1.8168   1.8214
     1.8273   1.8695   1.8739   1.8975   1.9236   1.9504   2.2100   2.3768
     3.0547   3.0600   3.7476   3.7959   3.8063   3.9194   3.9476   6.5241
     6.7681   6.7700   7.5792   7.7112   8.4696   8.4749   8.7788   8.9026
     9.2602   9.4098   9.4848   9.5269   9.5695   9.6373   9.7371   9.8752
     9.9519

          k = 0.3750 0.3960 0.0000 ( 33993 PWs)   bands (ev):

   -35.6464 -35.5008 -22.4832 -22.4780 -22.3375 -22.2411 -17.0000 -16.9849
   -16.9068 -16.8850 -16.7290 -16.6241 -14.6721 -14.6701 -14.3714 -14.3589
   -14.3196 -14.1658 -14.1607 -14.1539 -14.1462 -14.0108 -14.0104 -13.9125
   -13.8959 -13.7862 -13.6704  -8.4865  -8.4831  -8.2786  -8.2186  -8.1516
    -8.1477  -7.9430  -7.9017  -7.8924  -7.8270  -7.7819  -7.6438  -3.6793
    -3.6469  -3.3785  -3.3208  -3.2116  -2.8759  -2.8752  -2.5619  -2.5588
    -2.4005  -2.3636  -2.2097  -2.2085  -2.0204  -2.0076  -1.9769  -1.7700
    -1.7570  -1.5134  -1.1834  -1.1498  -1.1391  -1.1384  -1.0624  -0.8904
    -0.8875  -0.8003  -0.7939  -0.7358  -0.7189  -0.7027  -0.6267  -0.6147
    -0.4438  -0.3269  -0.3260   0.2454   0.3270   0.4358   0.6581   0.7199
     0.9810   1.1175   1.1517   1.2266   1.2298   1.3101   1.3458   1.4231
     1.4357   1.5339   1.5525   1.5541   1.6273   1.6481   1.6839   1.7827
     1.8150   1.8370   1.8485   1.9163   1.9787   2.0033   2.0434   2.0724
     2.1052   2.1386   2.1513   2.2136   2.2484   2.2490   2.2781   2.5363
     2.8741   2.8822   4.1782   4.3119   4.3288   4.3995   4.4237   6.1004
     6.4642   6.4663   7.2825   7.4454   8.9809   9.0245   9.0472   9.1465
     9.4099   9.5020   9.5453   9.5796   9.6047   9.7045   9.7353   9.8527
     9.9277

          k = 0.3750-0.5279 0.0000 ( 34004 PWs)   bands (ev):

   -35.6447 -35.4990 -22.4602 -22.4549 -22.3162 -22.2189 -17.0356 -16.9876
   -16.9402 -16.8943 -16.6988 -16.5886 -14.6088 -14.6086 -14.3283 -14.3281
   -14.2132 -14.1863 -14.1481 -14.0786 -14.0762 -13.9902 -13.9893 -13.9707
   -13.9121 -13.8167 -13.6595  -8.5685  -8.5654  -8.3776  -8.3069  -8.2967
    -8.2930  -8.0930  -7.9350  -7.9277  -7.9180  -7.7954  -7.6562  -3.8858
    -3.8529  -3.6002  -3.5239  -3.4572  -3.1012  -3.1005  -2.5804  -2.5770
    -2.4121  -2.3709  -2.2039  -2.2027  -2.1278  -2.1155  -1.9793  -1.8569
    -1.8418  -1.5433  -1.2675  -1.2516  -1.1953  -1.1714  -1.1312  -0.8896
    -0.8868  -0.8847  -0.8829  -0.8170  -0.8003  -0.7631  -0.6467  -0.6407
    -0.4117  -0.3124  -0.3119   0.2832   0.3642   0.4463   0.7105   0.8027
     1.0509   1.2532   1.3127   1.3346   1.3451   1.3732   1.3925   1.4226
     1.4415   1.6098   1.6483   1.6655   1.6974   1.7952   1.8120   1.8379
     1.8537   1.9387   1.9488   2.0238   2.0970   2.1077   2.1322   2.2112
     2.2588   2.2814   2.3250   2.3585   2.4017   2.4392   2.4408   2.6120
     2.6290   2.6411   4.2660   4.4524   4.4822   4.5462   4.5695   5.9120
     6.2865   6.2881   7.1776   7.3557   8.8373   9.0692   9.1928   9.2354
     9.3261   9.4388   9.6660   9.6766   9.8246   9.8395   9.8843   9.9169
     9.9787

          k =-0.5000 0.0000 0.0000 ( 33930 PWs)   bands (ev):

   -35.6554 -35.5101 -22.5937 -22.5884 -22.4407 -22.3481 -17.0858 -17.0055
   -16.8528 -16.7659 -16.6908 -16.5480 -15.0328 -15.0313 -14.8863 -14.6046
   -14.5776 -14.3377 -14.2985 -14.2522 -14.2252 -14.1300 -14.1268 -13.9137
   -13.8670 -13.8607 -13.6206  -7.8519  -7.8423  -7.8236  -7.6204  -7.5781
    -7.5743  -7.4180  -7.3879  -7.3835  -7.3049  -7.1954  -7.1249  -2.9649
    -2.9569  -2.7839  -2.7447  -2.2864  -2.2861  -1.9715  -1.5822  -1.5673
    -1.5479  -1.5172  -1.3088  -1.2963  -1.1670  -1.1506  -1.1500  -1.1316
    -1.1063  -1.0837  -1.0708  -1.0561  -0.9272  -0.8951  -0.8909  -0.8344
    -0.8102  -0.7440  -0.7435  -0.5487  -0.4352  -0.3738  -0.2315  -0.2083
    -0.1537  -0.1474  -0.0586  -0.0513   0.1306   0.1314   0.2051   0.2353
     0.3243   0.4722   0.4729   0.4977   0.4998   0.5205   0.5415   0.6236
     0.6708   0.8642   0.8914   0.9280   0.9900   1.2037   1.2042   1.2670
     1.4269   1.4424   1.4652   1.4967   1.5444   1.6601   1.6801   1.7044
     1.7236   1.7238   1.8044   1.9376   1.9835   2.0201   2.0360   2.2036
     2.2280   2.2979   2.4688   2.6159   2.6893   2.8887   2.9114   7.1097
     7.3469   7.3497   7.3981   7.3990   8.2447   8.3397   8.5360   8.6143
     9.0307   9.1228   9.3975   9.4454   9.4695   9.5244   9.6198   9.7556
     9.8381

          k =-0.5000 0.1320 0.0000 ( 33986 PWs)   bands (ev):

   -35.6537 -35.5083 -22.5730 -22.5677 -22.4213 -22.3279 -17.0778 -16.9963
   -16.8287 -16.7454 -16.7384 -16.6117 -14.9758 -14.9744 -14.8131 -14.5636
   -14.5386 -14.2957 -14.2599 -14.1941 -14.1793 -14.1080 -14.1051 -13.8983
   -13.8956 -13.8828 -13.6193  -7.8905  -7.8811  -7.8345  -7.7075  -7.7038
    -7.6413  -7.5908  -7.5862  -7.5317  -7.4251  -7.4088  -7.3368  -3.0329
    -3.0209  -2.8351  -2.7924  -2.2914  -2.2909  -2.0063  -1.9382  -1.9173
    -1.7458  -1.7211  -1.5576  -1.5425  -1.5417  -1.4447  -1.4285  -1.3577
    -1.3464  -1.2892  -1.2319  -1.1929  -1.0041  -0.9363  -0.7998  -0.7995
    -0.7334  -0.6234  -0.5995  -0.4744  -0.4317  -0.3830  -0.3734  -0.2234
    -0.2221  -0.0094  -0.0022   0.1209   0.1321   0.2037   0.2490   0.2512
     0.3531   0.4567   0.4797   0.5835   0.5843   0.6604   0.6824   0.8375
     0.8613   0.9750   1.0829   1.0972   1.1911   1.2318   1.2502   1.3490
     1.3506   1.3945   1.4870   1.5174   1.6519   1.6888   1.7043   1.7403
     1.7778   1.8085   1.8117   1.9448   1.9866   1.9881   2.0033   2.3529
     2.8176   2.8235   2.9759   3.0372   3.0629   3.2352   3.2805   6.9158
     7.1945   7.1969   7.6964   7.7016   8.1374   8.2451   8.4501   8.5488
     9.2855   9.3280   9.3646   9.6011   9.6595   9.6639   9.7283   9.7559
     9.8164

          k =-0.5000 0.2640 0.0000 ( 33976 PWs)   bands (ev):

   -35.6496 -35.5040 -22.5220 -22.5167 -22.3737 -22.2786 -17.0586 -16.9743
   -16.8708 -16.7663 -16.7549 -16.6673 -14.8246 -14.8236 -14.6135 -14.4654
   -14.4454 -14.1899 -14.1637 -14.1089 -14.0961 -14.0570 -14.0552 -13.9659
   -13.9388 -13.8115 -13.6324  -8.1595  -8.1548  -8.0086  -8.0050  -7.9590
    -7.8880  -7.8403  -7.8316  -7.8096  -7.7535  -7.6960  -7.6013  -3.3380
    -3.3106  -3.0689  -3.0230  -2.4871  -2.4573  -2.4516  -2.3255  -2.3219
    -2.3031  -2.2777  -2.1890  -2.1889  -1.9713  -1.8350  -1.8186  -1.6176
    -1.5786  -1.4633  -1.1048  -1.0833  -0.9095  -0.8992  -0.8990  -0.8403
    -0.8217  -0.7576  -0.6546  -0.6363  -0.6048  -0.6043  -0.4703  -0.4232
    -0.3943  -0.3256  -0.3248   0.1257   0.1945   0.4390   0.5734   0.6003
     0.7772   0.8111   0.9198   0.9236   0.9425   1.1592   1.1628   1.1651
     1.2451   1.2549   1.2712   1.2717   1.4850   1.5212   1.5526   1.5777
     1.6601   1.6995   1.7678   1.7736   1.7928   1.8303   1.8578   1.8842
     1.9104   1.9350   1.9763   1.9866   2.0166   2.0273   2.0916   2.3180
     3.0477   3.0535   3.7550   3.9337   3.9400   4.0509   4.0805   6.4129
     6.7646   6.7658   7.4996   7.6432   8.5051   8.5124   8.9529   9.1163
     9.2475   9.5798   9.6413   9.6573   9.6666   9.7030   9.8581   9.9395
     9.9695

          k =-0.5000 0.3960 0.0000 ( 33992 PWs)   bands (ev):

   -35.6454 -35.4997 -22.4698 -22.4645 -22.3251 -22.2281 -17.0398 -16.9855
   -16.9527 -16.8841 -16.7010 -16.5917 -14.6412 -14.6409 -14.3969 -14.3774
   -14.3170 -14.1512 -14.1439 -14.0790 -14.0647 -14.0082 -14.0074 -13.9054
   -13.8956 -13.7898 -13.6582  -8.5347  -8.5313  -8.3309  -8.2967  -8.2932
    -8.2684  -8.0939  -7.9398  -7.9182  -7.9087  -7.8167  -7.6452  -3.8097
    -3.7753  -3.4945  -3.4439  -3.2112  -2.8674  -2.8667  -2.6316  -2.6287
    -2.4727  -2.4408  -2.2261  -2.2255  -2.1279  -2.1025  -1.9846  -1.8403
    -1.7885  -1.5571  -1.1645  -1.1608  -1.0858  -1.0370  -1.0311  -0.9794
    -0.9717  -0.8178  -0.8167  -0.7206  -0.7115  -0.7104  -0.6972  -0.6742
    -0.4272  -0.2884  -0.2882   0.2643   0.3474   0.4924   0.7620   0.8141
     1.0730   1.2124   1.2556   1.3449   1.3485   1.3703   1.3911   1.4570
     1.4676   1.5509   1.6298   1.6318   1.6523   1.6745   1.7437   1.8147
     1.8239   1.8913   1.9248   1.9701   2.0314   2.0717   2.1062   2.1375
     2.1492   2.1856   2.2181   2.2255   2.2804   2.3360   2.3886   2.4861
     2.8621   2.8716   4.1698   4.5778   4.5849   4.6435   4.6700   5.8912
     6.2691   6.2700   7.1250   7.2938   8.9686   8.9924   9.0075   9.1340
     9.3745   9.5045   9.6479   9.6605   9.7361   9.7583   9.8079   9.9095
     9.9502

          k =-0.5000-0.5279 0.0000 ( 34028 PWs)   bands (ev):

   -35.6437 -35.4979 -22.4478 -22.4425 -22.3046 -22.2068 -17.0321 -17.0309
   -16.9439 -16.9347 -16.6725 -16.5583 -14.5432 -14.5429 -14.3687 -14.3593
   -14.1967 -14.1781 -14.1479 -14.0352 -14.0257 -13.9854 -13.9837 -13.8709
   -13.8648 -13.8637 -13.6469  -8.6807  -8.6776  -8.4842  -8.4192  -8.4128
    -8.4093  -8.2129  -8.0340  -7.9461  -7.9364  -7.8276  -7.6590  -4.0180
    -3.9828  -3.7001  -3.6423  -3.4742  -3.0918  -3.0910  -2.6640  -2.6610
    -2.4991  -2.4655  -2.2228  -2.2162  -2.2155  -2.1927  -1.9854  -1.9142
    -1.8570  -1.5877  -1.2797  -1.2754  -1.1411  -1.1015  -1.0939  -0.9523
    -0.9507  -0.9127  -0.9121  -0.8214  -0.7991  -0.7405  -0.7224  -0.7216
    -0.3892  -0.2596  -0.2594   0.3034   0.3861   0.5039   0.8303   0.9300
     1.1679   1.3621   1.4133   1.4236   1.4342   1.4471   1.4637   1.4745
     1.4944   1.6985   1.7148   1.7195   1.7674   1.7699   1.9027   1.9424
     1.9592   1.9702   2.0631   2.0820   2.1241   2.1421   2.2071   2.2490
     2.2837   2.3291   2.4105   2.4121   2.4670   2.4983   2.5464   2.6050
     2.6192   2.6629   4.2523   4.7760   4.7909   4.8456   4.8690   5.6665
     6.0416   6.0426   7.0087   7.1922   8.8554   9.0524   9.0657   9.1017
     9.1535   9.1641   9.4812   9.6271   9.7333   9.8073   9.9602  10.0025
    10.0841

     the Fermi energy is     2.6378 ev

!    total energy              =   -1842.90025823 Ry
     Harris-Foulkes estimate   =   -1842.90025823 Ry
     estimated scf accuracy    <          7.3E-11 Ry

     The total energy is the sum of the following terms:

     one-electron contribution =  -30503.82672530 Ry
     hartree contribution      =   15405.69199210 Ry
     xc contribution           =    -621.73605678 Ry
     ewald contribution        =   13876.97875785 Ry
     smearing contrib. (-TS)   =      -0.00822611 Ry

     convergence has been achieved in  16 iterations

     negative rho (up, down):  1.517E-03 0.000E+00

     Forces acting on atoms (cartesian axes, Ry/au):

     atom    1 type  4   force =     0.00000000    0.00000000   -0.00016437
     atom    2 type  3   force =     0.00000000    0.00000000    0.00041280
     atom    3 type  4   force =     0.00000000    0.00000000   -0.00075854
     atom    4 type  1   force =     0.00000000    0.00000000   -0.00028453
     atom    5 type  3   force =     0.00000000    0.00000000    0.00056426
     atom    6 type  4   force =     0.00000000    0.00000000    0.00001289
     atom    7 type  4   force =     0.00000000    0.00000000    0.00034097
     atom    8 type  2   force =     0.00000000    0.00000000   -0.00071868
     atom    9 type  4   force =     0.00000000    0.00000000    0.00049121
     atom   10 type  4   force =     0.00000000    0.00000000    0.00025719
     atom   11 type  3   force =     0.00000000    0.00000000    0.00048759
     atom   12 type  1   force =     0.00000000    0.00000000    0.00231371
     atom   13 type  4   force =     0.00000000    0.00000000    0.01059375
     atom   14 type  4   force =     0.00000000    0.00000000    0.00067929
     atom   15 type  3   force =     0.00000000    0.00000000   -0.00046269
     atom   16 type  4   force =     0.00000000    0.00000000   -0.00072321
     atom   17 type  1   force =     0.00000000    0.00000000   -0.00030937
     atom   18 type  3   force =     0.00000000    0.00000000    0.00024542
     atom   19 type  4   force =     0.00000000    0.00000000   -0.00004807
     atom   20 type  4   force =     0.00000000    0.00000000   -0.00042651
     atom   21 type  2   force =     0.00000000    0.00000000   -0.00066960
     atom   22 type  4   force =     0.00000000    0.00000000   -0.00501243
     atom   23 type  4   force =     0.00000000    0.00000000   -0.00459108
     atom   24 type  3   force =     0.00000000    0.00000000   -0.00155445
     atom   25 type  1   force =     0.00000000    0.00000000   -0.00129143
     atom   26 type  4   force =     0.00000000    0.00000000    0.00088657
     atom   27 type  3   force =     0.00000000    0.00000000   -0.00052307
     atom   28 type  4   force =     0.00000000    0.00000000    0.00025237

     Total force =     0.001410     Total SCF correction =     0.000007


     Computing stress (Cartesian axis) and pressure


     negative rho (up, down):  1.517E-03 0.000E+00
          total   stress  (Ry/bohr**3)                   (kbar)     P=       -4.43
  -0.00001403   0.00000000   0.00000000           -2.06        0.00        0.00
   0.00000000  -0.00002041   0.00000000            0.00       -3.00        0.00
   0.00000000   0.00000000  -0.00005592            0.00        0.00       -8.23


     bfgs converged in  16 scf cycles and  15 bfgs steps
     (criteria: energy <  1.0E-04 Ry, force <  1.0E-03 Ry/Bohr)

     End of BFGS Geometry Optimization

     Final energy   =   -1842.9002582330 Ry
Begin final coordinates

ATOMIC_POSITIONS (angstrom)
O             0.0000000000        1.8611200000       -0.1846200000    0   0   0
Cu            0.0000000000        0.0000000000        0.1039800000    0   0   0
O             0.0000000000        0.0000000000        1.9772600000    0   0   0
Ba            1.9651100000        1.8611200000        2.2364100000    0   0   0
Cu            0.0000000000        0.0000000000        4.0773100000    0   0   0
O             1.9651100000        0.0000000000        4.2321000000    0   0   0
O             0.0000000000        1.8611200000        4.3692200000    0   0   0
Ca            1.9651100000        1.8611200000        5.8860000000    0   0   0
O             0.0000000000        1.8611200000        7.3367500000    0   0   0
O             1.9651100000        0.0000000000        7.4847600000    0   0   0
Cu            0.0000000000        0.0000000000        7.6688600000    0   0   0
Ba            1.9651100000        1.8611200000        9.5487700000    0   0   0
O             0.0000000000        0.0000000000        9.8708900000    0   0   0
O             0.0000000000        1.8611200000       11.7988229669
Cu            0.0000000000        0.0000000000       11.7822848620
O             0.0000000000        0.0000000000       13.6883804744
Ba            1.9651100000        1.8611200000       14.0761817251
Cu            0.0000000000        0.0000000000       16.0338083452
O             1.9651100000        0.0000000000       16.2095832426
O             0.0000000000        1.8611200000       16.3687851348
Ca            1.9651100000        1.8611200000       17.8383993349
O             0.0000000000        1.8611200000       19.3983600000    0   0   0
O             1.9651100000        0.0000000000       19.5354800000    0   0   0
Cu            0.0000000000        0.0000000000       19.6902800000    0   0   0
Ba            1.9651100000        1.8611200000       21.5311700000    0   0   0
O             0.0000000000        0.0000000000       21.7902800000    0   0   0
Cu            0.0000000000        0.0000000000       23.6635800000    0   0   0
O             0.0000000000        1.8611200000       23.9521300000    0   0   0
End final coordinates


 
     init_run     :      8.29s CPU      8.96s WALL (       1 calls)
     electrons    :   4791.02s CPU   5059.95s WALL (      19 calls)
     update_pot   :     30.13s CPU     30.29s WALL (      18 calls)
     forces       :     70.12s CPU     76.72s WALL (      19 calls)
     stress       :    454.86s CPU    472.51s WALL (      19 calls)

     Called by init_run:
     wfcinit      :      5.78s CPU      5.96s WALL (       1 calls)
     potinit      :      0.61s CPU      0.64s WALL (       1 calls)
     hinit0       :      0.93s CPU      1.06s WALL (       1 calls)

     Called by electrons:
     c_bands      :   3668.30s CPU   3719.48s WALL (     336 calls)
     sum_band     :    740.97s CPU    862.00s WALL (     336 calls)
     v_of_rho     :     30.67s CPU     30.96s WALL (     346 calls)
     newd         :    199.41s CPU    299.04s WALL (     346 calls)
     mix_rho      :    160.71s CPU    162.33s WALL (     336 calls)

     Called by c_bands:
     init_us_2    :     33.07s CPU     33.35s WALL (   17775 calls)
     cegterg      :   3407.44s CPU   3454.44s WALL (    8400 calls)

     Called by sum_band:
     sum_band:bec :      2.26s CPU      2.28s WALL (    8400 calls)
     addusdens    :    174.85s CPU    287.85s WALL (     336 calls)

     Called by *egterg:
     h_psi        :   1857.39s CPU   1891.99s WALL (   24714 calls)
     s_psi        :    187.05s CPU    188.14s WALL (   24714 calls)
     g_psi        :      6.13s CPU      6.18s WALL (   16289 calls)
     cdiaghg      :    568.19s CPU    571.11s WALL (   24014 calls)

     Called by h_psi:
     h_psi:calbec :    229.72s CPU    232.00s WALL (   24714 calls)
     vloc_psi     :   1427.26s CPU   1453.72s WALL (   24714 calls)
     add_vuspsi   :    191.23s CPU    194.94s WALL (   24714 calls)

     General routines
     calbec       :    507.32s CPU    510.86s WALL (   35489 calls)
     fft          :     29.35s CPU     29.64s WALL (    4962 calls)
     ffts         :     84.66s CPU     85.47s WALL (  142196 calls)
     fftw         :   1613.80s CPU   1643.05s WALL ( 5938494 calls)
     interpolate  :      2.12s CPU      2.14s WALL (     346 calls)
 
     Parallel routines
     fft_scatt_xy :    218.35s CPU    222.38s WALL ( 6085652 calls)
     fft_scatt_yz :    971.68s CPU    988.70s WALL ( 6085652 calls)
 
     PWSCF        :      1h29m CPU      1h34m WALL

 
   This run was terminated on:  14: 0:16  28Jun2021            

=------------------------------------------------------------------------------=
   JOB DONE.
=------------------------------------------------------------------------------=
[1624903216.778661] [holy7c06209:158654:0]          mpool.c:43   UCX  WARN  object 0x3fe7d40 was not returned to mpool ucp_requests
[1624903216.778694] [holy7c06209:158654:0]          mpool.c:43   UCX  WARN  object 0x3fe80c0 was not returned to mpool ucp_requests
[1624903216.782117] [holy7c06209:158656:0]          mpool.c:43   UCX  WARN  object 0x28c6980 was not returned to mpool ucp_requests
[1624903216.785918] [holy7c06209:158646:0]          mpool.c:43   UCX  WARN  object 0x476fcc0 was not returned to mpool ucp_requests
[1624903216.790413] [holy7c06209:158645:0]          mpool.c:43   UCX  WARN  object 0x37ae180 was not returned to mpool ucp_requests
[1624903216.790443] [holy7c06209:158645:0]          mpool.c:43   UCX  WARN  object 0x37ae500 was not returned to mpool ucp_requests
[1624903216.790446] [holy7c06209:158645:0]          mpool.c:43   UCX  WARN  object 0x37ae880 was not returned to mpool ucp_requests
[1624903216.796703] [holy7c06209:158651:0]          mpool.c:43   UCX  WARN  object 0x46304c0 was not returned to mpool ucp_requests
[1624903216.796801] [holy7c06209:158655:0]          mpool.c:43   UCX  WARN  object 0x331b580 was not returned to mpool ucp_requests
