
     Program PWSCF v.6.5 starts on 28Jun2021 at 15:41: 0 

     This program is part of the open-source Quantum ESPRESSO suite
     for quantum simulation of materials; please cite
         "P. Giannozzi et al., J. Phys.:Condens. Matter 21 395502 (2009);
         "P. Giannozzi et al., J. Phys.:Condens. Matter 29 465901 (2017);
          URL http://www.quantum-espresso.org", 
     in publications or presentations arising from this work. More details at
     http://www.quantum-espresso.org/quote

     Parallel version (MPI), running on    20 processors

     MPI processes distributed on    10 nodes
     R & G space division:  proc/nbgrp/npool/nimage =      20
     Reading input from CBCO_BaO_cleave_7.0_sep.pwi
Warning: card &CELL ignored
Warning: card     CELL_DYNAMICS = 'BFGS' ignored
Warning: card     PRESS_CONV_THR = 5 ignored
Warning: card / ignored

     Current dimensions of program PWSCF are:
     Max number of different atomic species (ntypx) = 10
     Max number of k-points (npk) =  40000
     Max angular momentum in pseudopotentials (lmaxx) =  3

     Subspace diagonalization in iterative solution of the eigenvalue problem:
     one sub-group per band group will be used
     scalapack distributed-memory algorithm (size of sub-group:  4*  4 procs)

     Message from routine setup:
     using ibrav=0 with symmetry is DISCOURAGED, use correct ibrav instead
 
     Parallelization info
     --------------------
     sticks:   dense  smooth     PW     G-vecs:    dense   smooth      PW
     Min         149      50     14                81427    15678    2450
     Max         150      51     15                81472    15705    2501
     Sum        2991    1007    289              1629003   313757   49311
 


     bravais-lattice index     =            0
     lattice parameter (alat)  =       7.4270  a.u.
     unit-cell volume          =    4993.3692 (a.u.)^3
     number of atoms/cell      =           28
     number of atomic types    =            4
     number of electrons       =       227.00
     number of Kohn-Sham states=          137
     kinetic-energy cutoff     =      60.0000  Ry
     charge density cutoff     =     720.0000  Ry
     convergence threshold     =      1.0E-08
     mixing beta               =       0.7000
     number of iterations used =           10  local-TF  mixing
     Exchange-correlation= SLA PW PBE PBE
                           (   1   4   3   4   0   0   0)
     nstep                     =          300


     celldm(1)=   7.427040  celldm(2)=   0.000000  celldm(3)=   0.000000
     celldm(4)=   0.000000  celldm(5)=   0.000000  celldm(6)=   0.000000

     crystal axes: (cart. coord. in units of alat)
               a(1) = (   1.000000   0.000000   0.000000 )  
               a(2) = (   0.000000   0.947081   0.000000 )  
               a(3) = (   0.000000   0.000000  12.869427 )  

     reciprocal axes: (cart. coord. in units 2 pi/alat)
               b(1) = (  1.000000  0.000000  0.000000 )  
               b(2) = (  0.000000  1.055876  0.000000 )  
               b(3) = (  0.000000  0.000000  0.077704 )  


     PseudoPot. # 1 for Ba read from file:
     ./pseudo/Ba.pbe-nsp-van.UPF
     MD5 check sum: 2b9c31dd849566dd297d80989662b7a0
     Pseudo is Ultrasoft + core correction, Zval = 10.0
     Generated by new atomic code, or converted to UPF format
     Using radial grid of  907 points,  6 beta functions with: 
                l(1) =   0
                l(2) =   0
                l(3) =   1
                l(4) =   1
                l(5) =   2
                l(6) =   2
     Q(r) pseudized with  6 coefficients,  rinner =    1.200   1.200   1.200
                                                       1.200   1.200

     PseudoPot. # 2 for Ca read from file:
     ./pseudo/Ca.pbe-nsp-van.UPF
     MD5 check sum: 6471098428ff4fa451746d08035ff179
     Pseudo is Ultrasoft + core correction, Zval = 10.0
     Generated by new atomic code, or converted to UPF format
     Using radial grid of  845 points,  6 beta functions with: 
                l(1) =   0
                l(2) =   0
                l(3) =   1
                l(4) =   1
                l(5) =   2
                l(6) =   2
     Q(r) pseudized with  6 coefficients,  rinner =    1.200   1.200   1.200
                                                       1.200   1.200

     PseudoPot. # 3 for Cu read from file:
     ./pseudo/Cu.pbe-n-van_ak.UPF
     MD5 check sum: 34e3282627ffb533726feb647e090d62
     Pseudo is Ultrasoft + core correction, Zval = 11.0
     Generated by new atomic code, or converted to UPF format
     Using radial grid of  867 points,  6 beta functions with: 
                l(1) =   0
                l(2) =   0
                l(3) =   1
                l(4) =   1
                l(5) =   2
                l(6) =   2
     Q(r) pseudized with  8 coefficients,  rinner =    1.400   1.400   1.400
                                                       1.400   1.400

     PseudoPot. # 4 for O  read from file:
     ./pseudo/O.pbe-van_ak.UPF
     MD5 check sum: 783ce7fe4c79b6a4916957118fed0856
     Pseudo is Ultrasoft, Zval =  6.0
     Generated by new atomic code, or converted to UPF format
     Using radial grid of  737 points,  4 beta functions with: 
                l(1) =   0
                l(2) =   0
                l(3) =   1
                l(4) =   1
     Q(r) pseudized with  8 coefficients,  rinner =    0.800   0.800   0.800


     atomic species   valence    mass     pseudopotential
        Ba            10.00   137.32700     Ba( 1.00)
        Ca            10.00    40.07800     Ca( 1.00)
        Cu            11.00    63.54600     Cu( 1.00)
        O              6.00    15.99900     O ( 1.00)

      4 Sym. Ops. (no inversion) found



   Cartesian axes

     site n.     atom                  positions (alat units)
         1           O   tau(   1) = (   0.0000000   0.4735409  -0.0469745  )
         2           Cu  tau(   2) = (   0.0000000   0.0000000   0.0264565  )
         3           O   tau(   3) = (   0.0000000   0.0000000   0.5030914  )
         4           Ba  tau(   4) = (   0.5000000   0.4735409   0.5690292  )
         5           Cu  tau(   5) = (   0.0000000   0.0000000   1.0374254  )
         6           O   tau(   6) = (   0.5000000   0.0000000   1.0768099  )
         7           O   tau(   7) = (   0.0000000   0.4735409   1.1116985  )
         8           Ca  tau(   8) = (   0.5000000   0.4735409   1.4976260  )
         9           O   tau(   9) = (   0.0000000   0.4735409   1.8667529  )
        10           O   tau(  10) = (   0.5000000   0.0000000   1.9044124  )
        11           Cu  tau(  11) = (   0.0000000   0.0000000   1.9512546  )
        12           Ba  tau(  12) = (   0.5000000   0.4735409   2.4295764  )
        13           O   tau(  13) = (   0.0000000   0.0000000   2.5115362  )
        14           O   tau(  14) = (   0.0000000   0.4735409   2.9918528  )
        15           Cu  tau(  15) = (   0.0000000   0.0000000   2.9919088  )
        16           O   tau(  16) = (   0.0000000   0.0000000   3.4722686  )
        17           Ba  tau(  17) = (   0.5000000   0.4735409   3.5542208  )
        18           Cu  tau(  18) = (   0.0000000   0.0000000   5.8135955  )
        19           O   tau(  19) = (   0.5000000   0.0000000   5.8604377  )
        20           O   tau(  20) = (   0.0000000   0.4735409   5.8980920  )
        21           Ca  tau(  21) = (   0.5000000   0.4735409   6.2672291  )
        22           O   tau(  22) = (   0.0000000   0.4735409   6.6531541  )
        23           O   tau(  23) = (   0.5000000   0.0000000   6.6880427  )
        24           Cu  tau(  24) = (   0.0000000   0.0000000   6.7274298  )
        25           Ba  tau(  25) = (   0.5000000   0.4735409   7.1958234  )
        26           O   tau(  26) = (   0.0000000   0.0000000   7.2617510  )
        27           Cu  tau(  27) = (   0.0000000   0.0000000   7.7383910  )
        28           O   tau(  28) = (   0.0000000   0.4735409   7.8118093  )

     number of k points=    25  Gaussian smearing, width (Ry)=  0.0100
                       cart. coord. in units 2pi/alat
        k(    1) = (   0.0000000   0.0000000   0.0000000), wk =   0.0312500
        k(    2) = (   0.0000000   0.1319845   0.0000000), wk =   0.0625000
        k(    3) = (   0.0000000   0.2639689   0.0000000), wk =   0.0625000
        k(    4) = (   0.0000000   0.3959534   0.0000000), wk =   0.0625000
        k(    5) = (   0.0000000  -0.5279378   0.0000000), wk =   0.0312500
        k(    6) = (   0.1250000   0.0000000   0.0000000), wk =   0.0625000
        k(    7) = (   0.1250000   0.1319845   0.0000000), wk =   0.1250000
        k(    8) = (   0.1250000   0.2639689   0.0000000), wk =   0.1250000
        k(    9) = (   0.1250000   0.3959534   0.0000000), wk =   0.1250000
        k(   10) = (   0.1250000  -0.5279378   0.0000000), wk =   0.0625000
        k(   11) = (   0.2500000   0.0000000   0.0000000), wk =   0.0625000
        k(   12) = (   0.2500000   0.1319845   0.0000000), wk =   0.1250000
        k(   13) = (   0.2500000   0.2639689   0.0000000), wk =   0.1250000
        k(   14) = (   0.2500000   0.3959534   0.0000000), wk =   0.1250000
        k(   15) = (   0.2500000  -0.5279378   0.0000000), wk =   0.0625000
        k(   16) = (   0.3750000   0.0000000   0.0000000), wk =   0.0625000
        k(   17) = (   0.3750000   0.1319845   0.0000000), wk =   0.1250000
        k(   18) = (   0.3750000   0.2639689   0.0000000), wk =   0.1250000
        k(   19) = (   0.3750000   0.3959534   0.0000000), wk =   0.1250000
        k(   20) = (   0.3750000  -0.5279378   0.0000000), wk =   0.0625000
        k(   21) = (  -0.5000000   0.0000000   0.0000000), wk =   0.0312500
        k(   22) = (  -0.5000000   0.1319845   0.0000000), wk =   0.0625000
        k(   23) = (  -0.5000000   0.2639689   0.0000000), wk =   0.0625000
        k(   24) = (  -0.5000000   0.3959534   0.0000000), wk =   0.0625000
        k(   25) = (  -0.5000000  -0.5279378   0.0000000), wk =   0.0312500

     Dense  grid:  1629003 G-vectors     FFT dimensions: (  64,  64, 864)

     Smooth grid:   313757 G-vectors     FFT dimensions: (  40,  36, 480)

     Estimated max dynamical RAM per process >     519.11 MB

     Estimated total dynamical RAM >      10.14 GB

     Initial potential from superposition of free atoms

     starting charge  226.84630, renormalised to  227.00000

     negative rho (up, down):  3.391E-03 0.000E+00
     Starting wfcs are  195 randomized atomic wfcs

     total cpu time spent up to now is       10.7 secs

     Self-consistent Calculation

     iteration #  1     ecut=    60.00 Ry     beta= 0.70
     Davidson diagonalization with overlap
     ethr =  1.00E-02,  avg # of iterations =  2.0

     negative rho (up, down):  2.698E-04 0.000E+00

     total cpu time spent up to now is       27.3 secs

     total energy              =   -1838.95911149 Ry
     Harris-Foulkes estimate   =   -1845.43292840 Ry
     estimated scf accuracy    <      24.81517128 Ry

     iteration #  2     ecut=    60.00 Ry     beta= 0.70
     Davidson diagonalization with overlap
     ethr =  1.00E-02,  avg # of iterations =  2.0

     negative rho (up, down):  2.415E-04 0.000E+00

     total cpu time spent up to now is       44.7 secs

     total energy              =   -1842.00645556 Ry
     Harris-Foulkes estimate   =   -1844.19729994 Ry
     estimated scf accuracy    <       9.53490944 Ry

     iteration #  3     ecut=    60.00 Ry     beta= 0.70
     Davidson diagonalization with overlap
     ethr =  4.20E-03,  avg # of iterations =  2.0

     negative rho (up, down):  2.354E-04 0.000E+00

     total cpu time spent up to now is       61.1 secs

     total energy              =   -1842.68070452 Ry
     Harris-Foulkes estimate   =   -1843.05024867 Ry
     estimated scf accuracy    <       1.94343948 Ry

     iteration #  4     ecut=    60.00 Ry     beta= 0.70
     Davidson diagonalization with overlap
     ethr =  8.56E-04,  avg # of iterations =  2.1

     negative rho (up, down):  2.324E-04 0.000E+00

     total cpu time spent up to now is       77.5 secs

     total energy              =   -1842.86678298 Ry
     Harris-Foulkes estimate   =   -1842.96479187 Ry
     estimated scf accuracy    <       3.95495130 Ry

     iteration #  5     ecut=    60.00 Ry     beta= 0.70
     Davidson diagonalization with overlap
     ethr =  8.56E-04,  avg # of iterations =  1.0

     negative rho (up, down):  2.310E-04 0.000E+00

     total cpu time spent up to now is       92.6 secs

     total energy              =   -1842.84407002 Ry
     Harris-Foulkes estimate   =   -1842.90596452 Ry
     estimated scf accuracy    <       1.41255680 Ry

     iteration #  6     ecut=    60.00 Ry     beta= 0.70
     Davidson diagonalization with overlap
     ethr =  6.22E-04,  avg # of iterations =  1.1

     negative rho (up, down):  2.289E-04 0.000E+00

     total cpu time spent up to now is      107.6 secs

     total energy              =   -1842.83496841 Ry
     Harris-Foulkes estimate   =   -1842.87341948 Ry
     estimated scf accuracy    <       1.17471415 Ry

     iteration #  7     ecut=    60.00 Ry     beta= 0.70
     Davidson diagonalization with overlap
     ethr =  5.17E-04,  avg # of iterations =  3.4

     negative rho (up, down):  2.290E-04 0.000E+00

     total cpu time spent up to now is      125.1 secs

     total energy              =   -1842.83825501 Ry
     Harris-Foulkes estimate   =   -1842.85217810 Ry
     estimated scf accuracy    <       1.94120636 Ry

     iteration #  8     ecut=    60.00 Ry     beta= 0.70
     Davidson diagonalization with overlap
     ethr =  5.17E-04,  avg # of iterations =  1.6

     negative rho (up, down):  2.277E-04 0.000E+00

     total cpu time spent up to now is      140.8 secs

     total energy              =   -1842.79110568 Ry
     Harris-Foulkes estimate   =   -1842.84326720 Ry
     estimated scf accuracy    <       1.66889919 Ry

     iteration #  9     ecut=    60.00 Ry     beta= 0.70
     Davidson diagonalization with overlap
     ethr =  5.17E-04,  avg # of iterations =  4.7

     negative rho (up, down):  2.292E-04 0.000E+00

     total cpu time spent up to now is      159.8 secs

     total energy              =   -1842.80214136 Ry
     Harris-Foulkes estimate   =   -1842.81840348 Ry
     estimated scf accuracy    <       1.11825019 Ry

     iteration # 10     ecut=    60.00 Ry     beta= 0.70
     Davidson diagonalization with overlap
     ethr =  4.93E-04,  avg # of iterations =  1.7

     negative rho (up, down):  2.453E-03 0.000E+00

     total cpu time spent up to now is      175.3 secs

     total energy              =   -1842.78529754 Ry
     Harris-Foulkes estimate   =   -1842.80986891 Ry
     estimated scf accuracy    <       0.34351719 Ry

     iteration # 11     ecut=    60.00 Ry     beta= 0.70
     Davidson diagonalization with overlap
     ethr =  1.51E-04,  avg # of iterations =  6.7

     negative rho (up, down):  6.205E-03 0.000E+00

     total cpu time spent up to now is      197.3 secs

     total energy              =   -1842.78710249 Ry
     Harris-Foulkes estimate   =   -1842.79355457 Ry
     estimated scf accuracy    <       0.22399278 Ry

     iteration # 12     ecut=    60.00 Ry     beta= 0.70
     Davidson diagonalization with overlap
     ethr =  9.87E-05,  avg # of iterations =  1.4

     negative rho (up, down):  8.572E-03 0.000E+00

     total cpu time spent up to now is      212.3 secs

     total energy              =   -1842.78557072 Ry
     Harris-Foulkes estimate   =   -1842.78926872 Ry
     estimated scf accuracy    <       0.11635142 Ry

     iteration # 13     ecut=    60.00 Ry     beta= 0.70
     Davidson diagonalization with overlap
     ethr =  5.13E-05,  avg # of iterations =  6.7

     negative rho (up, down):  9.408E-03 0.000E+00

     total cpu time spent up to now is      233.1 secs

     total energy              =   -1842.78610278 Ry
     Harris-Foulkes estimate   =   -1842.78714807 Ry
     estimated scf accuracy    <       0.06112249 Ry

     iteration # 14     ecut=    60.00 Ry     beta= 0.70
     Davidson diagonalization with overlap
     ethr =  2.69E-05,  avg # of iterations =  4.8

     negative rho (up, down):  4.308E-03 0.000E+00

     total cpu time spent up to now is      252.1 secs

     total energy              =   -1842.78512992 Ry
     Harris-Foulkes estimate   =   -1842.78664230 Ry
     estimated scf accuracy    <       0.03650126 Ry

     iteration # 15     ecut=    60.00 Ry     beta= 0.70
     Davidson diagonalization with overlap
     ethr =  1.61E-05,  avg # of iterations =  5.9

     negative rho (up, down):  2.593E-03 0.000E+00

     total cpu time spent up to now is      272.8 secs

     total energy              =   -1842.78521317 Ry
     Harris-Foulkes estimate   =   -1842.78584050 Ry
     estimated scf accuracy    <       0.01279847 Ry

     iteration # 16     ecut=    60.00 Ry     beta= 0.70
     Davidson diagonalization with overlap
     ethr =  5.64E-06,  avg # of iterations =  6.1

     negative rho (up, down):  3.473E-04 0.000E+00

     total cpu time spent up to now is      293.8 secs

     total energy              =   -1842.78519781 Ry
     Harris-Foulkes estimate   =   -1842.78545623 Ry
     estimated scf accuracy    <       0.00926568 Ry

     iteration # 17     ecut=    60.00 Ry     beta= 0.70
     Davidson diagonalization with overlap
     ethr =  4.08E-06,  avg # of iterations =  3.7

     negative rho (up, down):  2.358E-04 0.000E+00

     total cpu time spent up to now is      311.8 secs

     total energy              =   -1842.78500016 Ry
     Harris-Foulkes estimate   =   -1842.78527135 Ry
     estimated scf accuracy    <       0.00614520 Ry

     iteration # 18     ecut=    60.00 Ry     beta= 0.70
     Davidson diagonalization with overlap
     ethr =  2.71E-06,  avg # of iterations =  7.7

     negative rho (up, down):  2.448E-04 0.000E+00

     total cpu time spent up to now is      334.6 secs

     total energy              =   -1842.78462899 Ry
     Harris-Foulkes estimate   =   -1842.78505351 Ry
     estimated scf accuracy    <       0.00632233 Ry

     iteration # 19     ecut=    60.00 Ry     beta= 0.70
     Davidson diagonalization with overlap
     ethr =  2.71E-06,  avg # of iterations =  4.6

     negative rho (up, down):  2.298E-04 0.000E+00

     total cpu time spent up to now is      353.3 secs

     total energy              =   -1842.78429477 Ry
     Harris-Foulkes estimate   =   -1842.78469538 Ry
     estimated scf accuracy    <       0.00629511 Ry

     iteration # 20     ecut=    60.00 Ry     beta= 0.70
     Davidson diagonalization with overlap
     c_bands:  1 eigenvalues not converged
     ethr =  2.71E-06,  avg # of iterations =  7.2

     negative rho (up, down):  2.486E-04 0.000E+00

     total cpu time spent up to now is      376.0 secs

     total energy              =   -1842.78384810 Ry
     Harris-Foulkes estimate   =   -1842.78431516 Ry
     estimated scf accuracy    <       0.00388490 Ry

     iteration # 21     ecut=    60.00 Ry     beta= 0.70
     Davidson diagonalization with overlap
     ethr =  1.71E-06,  avg # of iterations =  8.0

     negative rho (up, down):  2.418E-04 0.000E+00

     total cpu time spent up to now is      399.5 secs

     total energy              =   -1842.78379688 Ry
     Harris-Foulkes estimate   =   -1842.78390712 Ry
     estimated scf accuracy    <       0.00391555 Ry

     iteration # 22     ecut=    60.00 Ry     beta= 0.70
     Davidson diagonalization with overlap
     ethr =  1.71E-06,  avg # of iterations =  2.5

     negative rho (up, down):  8.410E-04 0.000E+00

     total cpu time spent up to now is      415.8 secs

     total energy              =   -1842.78379059 Ry
     Harris-Foulkes estimate   =   -1842.78383391 Ry
     estimated scf accuracy    <       0.00155413 Ry

     iteration # 23     ecut=    60.00 Ry     beta= 0.70
     Davidson diagonalization with overlap
     c_bands:  1 eigenvalues not converged
     ethr =  6.85E-07,  avg # of iterations =  6.6

     negative rho (up, down):  1.813E-03 0.000E+00

     total cpu time spent up to now is      437.4 secs

     total energy              =   -1842.78383861 Ry
     Harris-Foulkes estimate   =   -1842.78382736 Ry
     estimated scf accuracy    <       0.00077557 Ry

     iteration # 24     ecut=    60.00 Ry     beta= 0.70
     Davidson diagonalization with overlap
     ethr =  3.42E-07,  avg # of iterations =  5.0

     negative rho (up, down):  1.293E-03 0.000E+00

     total cpu time spent up to now is      456.7 secs

     total energy              =   -1842.78387650 Ry
     Harris-Foulkes estimate   =   -1842.78386392 Ry
     estimated scf accuracy    <       0.00051388 Ry

     iteration # 25     ecut=    60.00 Ry     beta= 0.70
     Davidson diagonalization with overlap
     c_bands:  1 eigenvalues not converged
     ethr =  2.26E-07,  avg # of iterations =  5.7

     negative rho (up, down):  1.041E-03 0.000E+00

     total cpu time spent up to now is      477.1 secs

     total energy              =   -1842.78387058 Ry
     Harris-Foulkes estimate   =   -1842.78389297 Ry
     estimated scf accuracy    <       0.00041703 Ry

     iteration # 26     ecut=    60.00 Ry     beta= 0.70
     Davidson diagonalization with overlap
     ethr =  1.84E-07,  avg # of iterations =  3.0

     negative rho (up, down):  1.595E-03 0.000E+00

     total cpu time spent up to now is      494.2 secs

     total energy              =   -1842.78388232 Ry
     Harris-Foulkes estimate   =   -1842.78387885 Ry
     estimated scf accuracy    <       0.00009415 Ry

     iteration # 27     ecut=    60.00 Ry     beta= 0.70
     Davidson diagonalization with overlap
     ethr =  4.15E-08,  avg # of iterations =  1.7

     negative rho (up, down):  1.543E-03 0.000E+00

     total cpu time spent up to now is      509.8 secs

     total energy              =   -1842.78388100 Ry
     Harris-Foulkes estimate   =   -1842.78388395 Ry
     estimated scf accuracy    <       0.00003773 Ry

     iteration # 28     ecut=    60.00 Ry     beta= 0.70
     Davidson diagonalization with overlap
     ethr =  1.66E-08,  avg # of iterations =  1.0

     negative rho (up, down):  1.217E-03 0.000E+00

     total cpu time spent up to now is      524.7 secs

     total energy              =   -1842.78388372 Ry
     Harris-Foulkes estimate   =   -1842.78388311 Ry
     estimated scf accuracy    <       0.00001991 Ry

     iteration # 29     ecut=    60.00 Ry     beta= 0.70
     Davidson diagonalization with overlap
     ethr =  8.77E-09,  avg # of iterations =  1.8

     negative rho (up, down):  1.616E-03 0.000E+00

     total cpu time spent up to now is      540.5 secs

     total energy              =   -1842.78388344 Ry
     Harris-Foulkes estimate   =   -1842.78388447 Ry
     estimated scf accuracy    <       0.00001281 Ry

     iteration # 30     ecut=    60.00 Ry     beta= 0.70
     Davidson diagonalization with overlap
     ethr =  5.64E-09,  avg # of iterations =  1.0

     negative rho (up, down):  1.513E-03 0.000E+00

     total cpu time spent up to now is      555.3 secs

     total energy              =   -1842.78388376 Ry
     Harris-Foulkes estimate   =   -1842.78388382 Ry
     estimated scf accuracy    <       0.00000301 Ry

     iteration # 31     ecut=    60.00 Ry     beta= 0.70
     Davidson diagonalization with overlap
     ethr =  1.32E-09,  avg # of iterations =  1.1

     negative rho (up, down):  1.536E-03 0.000E+00

     total cpu time spent up to now is      570.6 secs

     total energy              =   -1842.78388378 Ry
     Harris-Foulkes estimate   =   -1842.78388387 Ry
     estimated scf accuracy    <       0.00000099 Ry

     iteration # 32     ecut=    60.00 Ry     beta= 0.70
     Davidson diagonalization with overlap
     ethr =  4.37E-10,  avg # of iterations =  2.0

     negative rho (up, down):  1.446E-03 0.000E+00

     total cpu time spent up to now is      586.4 secs

     total energy              =   -1842.78388398 Ry
     Harris-Foulkes estimate   =   -1842.78388384 Ry
     estimated scf accuracy    <       0.00000027 Ry

     iteration # 33     ecut=    60.00 Ry     beta= 0.70
     Davidson diagonalization with overlap
     ethr =  1.18E-10,  avg # of iterations =  3.4

     negative rho (up, down):  1.456E-03 0.000E+00

     total cpu time spent up to now is      604.9 secs

     total energy              =   -1842.78388400 Ry
     Harris-Foulkes estimate   =   -1842.78388402 Ry
     estimated scf accuracy    <       0.00000054 Ry

     iteration # 34     ecut=    60.00 Ry     beta= 0.70
     Davidson diagonalization with overlap
     ethr =  1.18E-10,  avg # of iterations =  1.0

     negative rho (up, down):  1.468E-03 0.000E+00

     total cpu time spent up to now is      619.9 secs

     total energy              =   -1842.78388399 Ry
     Harris-Foulkes estimate   =   -1842.78388401 Ry
     estimated scf accuracy    <       0.00000036 Ry

     iteration # 35     ecut=    60.00 Ry     beta= 0.70
     Davidson diagonalization with overlap
     ethr =  1.18E-10,  avg # of iterations =  1.0

     negative rho (up, down):  1.483E-03 0.000E+00

     total cpu time spent up to now is      634.7 secs

     total energy              =   -1842.78388397 Ry
     Harris-Foulkes estimate   =   -1842.78388399 Ry
     estimated scf accuracy    <       0.00000011 Ry

     iteration # 36     ecut=    60.00 Ry     beta= 0.70
     Davidson diagonalization with overlap
     ethr =  4.66E-11,  avg # of iterations =  1.0

     negative rho (up, down):  1.485E-03 0.000E+00

     total cpu time spent up to now is      649.4 secs

     total energy              =   -1842.78388396 Ry
     Harris-Foulkes estimate   =   -1842.78388397 Ry
     estimated scf accuracy    <       0.00000004 Ry

     iteration # 37     ecut=    60.00 Ry     beta= 0.70
     Davidson diagonalization with overlap
     ethr =  1.88E-11,  avg # of iterations =  1.0

     negative rho (up, down):  1.494E-03 0.000E+00

     total cpu time spent up to now is      664.0 secs

     total energy              =   -1842.78388395 Ry
     Harris-Foulkes estimate   =   -1842.78388397 Ry
     estimated scf accuracy    <       0.00000002 Ry

     iteration # 38     ecut=    60.00 Ry     beta= 0.70
     Davidson diagonalization with overlap
     ethr =  9.55E-12,  avg # of iterations =  1.1

     negative rho (up, down):  1.492E-03 0.000E+00

     total cpu time spent up to now is      678.6 secs

     total energy              =   -1842.78388395 Ry
     Harris-Foulkes estimate   =   -1842.78388395 Ry
     estimated scf accuracy    <       0.00000002 Ry

     iteration # 39     ecut=    60.00 Ry     beta= 0.70
     Davidson diagonalization with overlap
     ethr =  9.55E-12,  avg # of iterations =  1.0

     negative rho (up, down):  1.482E-03 0.000E+00

     total cpu time spent up to now is      692.7 secs

     End of self-consistent calculation

          k = 0.0000 0.0000 0.0000 ( 39281 PWs)   bands (ev):

   -36.2600 -36.0266 -25.5155 -23.4453 -23.4411 -23.3096 -17.7637 -17.5095
   -17.3109 -17.2999 -17.0940 -17.0718 -15.9739 -15.8685 -15.8040 -15.3274
   -15.3171 -15.2436 -14.9457 -14.9239 -14.8346 -14.8242 -14.6441 -14.6015
   -14.5042 -14.4798 -14.0523 -10.8215 -10.3300 -10.2613  -8.5783  -8.5702
    -8.5390  -8.5358  -8.4978  -8.3533  -8.3461  -8.3420  -8.1852  -2.9991
    -2.9853  -2.9817  -2.4861  -2.4733  -2.4446  -2.3337  -2.2777  -2.2153
    -2.1569  -2.1298  -2.0513  -2.0172  -1.8759  -1.8732  -1.8122  -1.7138
    -1.7067  -1.5889  -1.1137  -1.1115  -1.0789  -1.0345  -1.0299  -1.0130
    -0.9549  -0.9198  -0.9176  -0.9141  -0.9105  -0.9053  -0.8212  -0.7634
    -0.7442  -0.7044  -0.6916  -0.6912  -0.6808  -0.5567  -0.5561  -0.5539
    -0.5489  -0.5398  -0.4846  -0.4408  -0.3799  -0.3417  -0.2048  -0.1421
    -0.0525   0.0961   0.1723   0.2136   0.2281   0.2290   0.2699   0.3808
     0.5176   0.5386   0.5855   0.6605   0.6903   0.7193   0.7307   0.7545
     0.8368   0.8586   0.8890   1.1430   1.1536   1.2846   1.3734   1.3812
     1.3863   1.4681   1.4814   1.4990   1.5855   1.8756   1.8788   2.6612
     3.8182   4.5603   4.5623   5.0695   5.3105   5.6619   5.9989   6.1051
     6.1364   6.3385   6.4920   7.2484   7.3104   7.3434   7.3977   7.4770
     7.6314

          k = 0.0000 0.1320 0.0000 ( 39259 PWs)   bands (ev):

   -36.2582 -36.0248 -25.4948 -23.4187 -23.4145 -23.2842 -17.7275 -17.4731
   -17.3723 -17.3086 -17.1437 -17.0916 -15.8858 -15.8188 -15.7267 -15.3334
   -15.3154 -15.2161 -14.9856 -14.9204 -14.8443 -14.8242 -14.6480 -14.6180
   -14.5689 -14.5130 -14.0747 -10.8101 -10.3010 -10.2941  -8.5773  -8.5702
    -8.4963  -8.4912  -8.4880  -8.3879  -8.3837  -8.3082  -8.2335  -3.0485
    -3.0407  -3.0249  -2.8271  -2.7993  -2.7291  -2.6070  -2.4570  -2.3126
    -2.2991  -2.2977  -2.2612  -2.1982  -2.1031  -1.9447  -1.8595  -1.7992
    -1.6479  -1.6142  -1.3987  -1.2867  -1.2612  -1.2108  -1.2090  -1.1152
    -1.1151  -1.0259  -1.0115  -0.8519  -0.8151  -0.8033  -0.8008  -0.7865
    -0.7856  -0.6704  -0.6691  -0.6553  -0.6534  -0.5759  -0.5727  -0.5319
    -0.5314  -0.5047  -0.3822  -0.3798  -0.3467  -0.3001  -0.2295  -0.1014
    -0.0853   0.1118   0.2345   0.2535   0.2794   0.3640   0.4259   0.4259
     0.4683   0.4743   0.5157   0.5532   0.7589   0.7737   0.7973   0.8019
     0.8663   0.9060   1.0075   1.1233   1.1241   1.2044   1.2349   1.3351
     1.3650   1.4172   1.5376   1.7504   1.9570   2.1625   2.1689   2.8431
     4.1718   4.9378   4.9392   5.2834   5.5832   5.8984   6.2032   6.4102
     6.4292   6.5357   6.6905   6.9531   7.2586   7.4957   7.5730   7.6656
     7.8549

          k = 0.0000 0.2640 0.0000 ( 39139 PWs)   bands (ev):

   -36.2538 -36.0204 -25.4439 -23.3528 -23.3485 -23.2215 -17.6357 -17.5264
   -17.3815 -17.3030 -17.2960 -17.0860 -15.7077 -15.6753 -15.5760 -15.3849
   -15.3291 -15.1569 -15.1324 -14.8753 -14.8335 -14.7771 -14.7335 -14.6839
   -14.6537 -14.5625 -14.1316 -10.7754 -10.3906 -10.2051  -8.5762  -8.5703
    -8.4918  -8.4786  -8.4742  -8.3707  -8.3675  -8.3379  -8.1951  -3.6207
    -3.4852  -3.4699  -3.3003  -3.0850  -3.0816  -2.9980  -2.9756  -2.9368
    -2.9338  -2.5552  -2.2571  -2.2147  -2.1447  -2.1378  -2.1023  -1.8418
    -1.7670  -1.7600  -1.6606  -1.5772  -1.5392  -1.4608  -1.4599  -1.3105
    -1.2923  -1.2135  -1.1957  -1.1532  -1.1505  -1.0751  -1.0342  -0.9627
    -0.9586  -0.7597  -0.7591  -0.6421  -0.6408  -0.5644  -0.5396  -0.4576
    -0.3337  -0.3080  -0.2992  -0.1975  -0.1638  -0.0510  -0.0329   0.0438
     0.0474   0.1460   0.3000   0.4225   0.4426   0.4555   0.4780   0.5103
     0.5111   0.5698   0.5808   0.5992   0.6281   0.6930   0.8241   0.8242
     1.0312   1.0747   1.0961   1.1170   1.2380   1.3183   1.3203   1.3483
     1.3606   1.4934   1.6838   1.8418   2.3809   2.3889   2.7176   3.3425
     5.0928   5.4569   5.8327   5.8336   5.9783   6.5993   6.6410   6.9914
     7.0632   7.2344   7.2438   7.3810   7.5461   7.9664   8.0132   8.1217
     8.1783

          k = 0.0000 0.3960 0.0000 ( 39052 PWs)   bands (ev):

   -36.2494 -36.0160 -25.3917 -23.2846 -23.2804 -23.1568 -17.6629 -17.5338
   -17.4337 -17.2973 -17.2771 -17.0803 -15.6011 -15.5881 -15.5763 -15.3552
   -15.2486 -15.2313 -15.1410 -14.8754 -14.8566 -14.7744 -14.7536 -14.7527
   -14.6106 -14.5958 -14.2135 -10.7219 -10.4836 -10.1124  -8.5762  -8.5704
    -8.5570  -8.5522  -8.4860  -8.4291  -8.2423  -8.2390  -8.0750  -4.3404
    -3.9453  -3.9329  -3.7354  -3.6523  -3.6488  -3.4427  -3.0275  -3.0245
    -3.0093  -2.9194  -2.4677  -2.4545  -2.1979  -2.1521  -2.1178  -2.0052
    -1.9676  -1.8854  -1.7475  -1.7384  -1.7300  -1.6857  -1.5588  -1.5359
    -1.5156  -1.4737  -1.4099  -1.3991  -1.3806  -1.2362  -1.1204  -1.0517
    -1.0261  -0.9662  -0.8760  -0.6250  -0.6239  -0.5329  -0.5269  -0.5225
    -0.5113  -0.3507  -0.3460  -0.1780  -0.0622   0.0149   0.1068   0.2678
     0.2727   0.2931   0.3043   0.4112   0.4288   0.4808   0.4825   0.5144
     0.6082   0.6105   0.6475   0.6646   0.9602   0.9766   1.0555   1.0741
     1.0962   1.1252   1.2581   1.2906   1.3181   1.3194   1.4012   1.5696
     1.6491   1.7131   1.7147   1.7609   2.2763   2.2840   3.2130   3.9822
     5.0250   6.1375   6.6522   6.7800   6.7818   6.9764   7.3943   7.5976
     7.6356   7.8221   8.0247   8.0438   8.2580   8.4104   8.4178   8.4536
     8.4990

          k = 0.0000-0.5279 0.0000 ( 39142 PWs)   bands (ev):

   -36.2475 -36.0141 -25.3698 -23.2557 -23.2514 -23.1294 -17.7150 -17.4889
   -17.4853 -17.2950 -17.2323 -17.0779 -15.6311 -15.6217 -15.5806 -15.2685
   -15.2193 -15.1984 -15.1311 -14.9108 -14.9024 -14.8011 -14.7327 -14.7267
   -14.6481 -14.5196 -14.2756 -10.6844 -10.5337 -10.0728  -8.5866  -8.5819
    -8.5759  -8.5699  -8.4783  -8.4688  -8.1864  -8.1830  -8.0231  -4.6055
    -4.1233  -4.1129  -3.9060  -3.8828  -3.8754  -3.6120  -3.0530  -3.0436
    -3.0406  -3.0197  -2.5971  -2.5874  -2.2139  -2.1362  -2.1166  -2.0551
    -1.9809  -1.9341  -1.8551  -1.8478  -1.8392  -1.6651  -1.6382  -1.6375
    -1.5684  -1.5450  -1.4923  -1.4903  -1.4621  -1.3139  -1.1903  -1.1451
    -1.0448  -0.9378  -0.8699  -0.6645  -0.6193  -0.6182  -0.5495  -0.5144
    -0.4921  -0.3693  -0.3473  -0.2519  -0.0954   0.0312   0.1456   0.1782
     0.1905   0.3544   0.3582   0.4445   0.4639   0.4654   0.5461   0.6145
     0.6188   0.6632   0.6798   0.7852   1.0723   1.0733   1.0961   1.1470
     1.2609   1.3537   1.3615   1.3687   1.3987   1.4421   1.5043   1.5129
     1.6015   1.6161   1.8746   1.8762   2.0988   2.1041   3.4006   4.4178
     4.7109   6.5641   6.6898   7.1925   7.1952   7.4695   7.5782   7.8135
     7.9784   8.2788   8.2915   8.3339   8.3679   8.4020   8.4994   8.5369
     8.6609

          k = 0.1250 0.0000 0.0000 ( 39229 PWs)   bands (ev):

   -36.2589 -36.0255 -25.5023 -23.4273 -23.4231 -23.2924 -17.7303 -17.4752
   -17.3910 -17.2985 -17.1760 -17.0704 -15.9064 -15.8595 -15.7147 -15.3733
   -15.3553 -15.2482 -14.9755 -14.9473 -14.8436 -14.8345 -14.6553 -14.6132
   -14.5233 -14.5206 -14.0605 -10.8435 -10.2743 -10.2384  -8.6037  -8.5966
    -8.5319  -8.4770  -8.4735  -8.3137  -8.3095  -8.2939  -8.1547  -3.0271
    -3.0271  -3.0131  -2.5309  -2.5086  -2.4933  -2.4650  -2.4487  -2.4145
    -2.1271  -2.1084  -2.0902  -2.0738  -1.9767  -1.8739  -1.8711  -1.7925
    -1.7361  -1.6256  -1.2970  -1.2591  -1.1695  -1.1678  -1.1162  -1.0541
    -1.0204  -0.9956  -0.9924  -0.9338  -0.9283  -0.9073  -0.8504  -0.8476
    -0.8061  -0.7780  -0.7331  -0.6979  -0.5639  -0.5611  -0.5529  -0.5478
    -0.4595  -0.4571  -0.4415  -0.3822  -0.3356  -0.3116  -0.2459  -0.1057
     0.0101   0.1045   0.1404   0.1428   0.1652   0.2867   0.2997   0.4425
     0.4551   0.5118   0.5421   0.5801   0.7026   0.7535   0.7543   0.8022
     0.8225   0.8465   0.9932   1.1136   1.2331   1.2775   1.3259   1.3311
     1.4166   1.4378   1.5284   1.5945   1.7644   1.9155   1.9167   2.8143
     4.0203   4.7423   4.7431   5.2507   5.5356   5.8397   6.1699   6.3199
     6.3454   6.5065   6.6859   7.1148   7.3965   7.4588   7.4879   7.6118
     7.7776

          k = 0.1250 0.1320 0.0000 ( 39196 PWs)   bands (ev):

   -36.2571 -36.0237 -25.4820 -23.4014 -23.3972 -23.2677 -17.6952 -17.4398
   -17.3941 -17.3616 -17.1766 -17.1354 -15.8504 -15.7822 -15.6479 -15.3684
   -15.3423 -15.2187 -15.0185 -14.9125 -14.8446 -14.8303 -14.6582 -14.6316
   -14.5837 -14.5455 -14.0801 -10.8217 -10.4317 -10.1418  -8.6219  -8.6171
    -8.5416  -8.5345  -8.5253  -8.3879  -8.2757  -8.2719  -8.1151  -3.0828
    -3.0761  -3.0380  -2.8147  -2.7828  -2.7088  -2.6167  -2.5098  -2.4912
    -2.4633  -2.4391  -2.2929  -2.2919  -2.1347  -2.0650  -1.9560  -1.8678
    -1.7505  -1.5713  -1.4855  -1.4019  -1.3983  -1.3280  -1.3155  -1.2203
    -1.1562  -1.1558  -0.9763  -0.9731  -0.9335  -0.8759  -0.8700  -0.8342
    -0.8065  -0.6991  -0.6797  -0.6560  -0.6069  -0.5550  -0.4976  -0.4944
    -0.4582  -0.4148  -0.3721  -0.3666  -0.3389  -0.3123  -0.1855  -0.1453
     0.0480   0.0739   0.2601   0.3595   0.3638   0.3798   0.3905   0.4354
     0.5362   0.5716   0.5974   0.6185   0.6454   0.6638   0.6646   0.8077
     0.9273   0.9378   1.0073   1.0077   1.0706   1.1653   1.2184   1.2820
     1.6837   1.7087   1.8108   1.9695   2.0849   2.1744   2.1783   2.9784
     4.3524   5.0810   5.0819   5.4092   5.7375   6.0477   6.3302   6.5360
     6.6170   6.6308   6.8244   7.0153   7.2922   7.6389   7.7204   7.8077
     7.9780

          k = 0.1250 0.2640 0.0000 ( 39127 PWs)   bands (ev):

   -36.2527 -36.0193 -25.4323 -23.3376 -23.3334 -23.2069 -17.6063 -17.5233
   -17.3737 -17.3517 -17.2925 -17.1584 -15.7175 -15.6064 -15.5338 -15.3734
   -15.3025 -15.1522 -15.1275 -14.8538 -14.8278 -14.7726 -14.7313 -14.6987
   -14.6781 -14.5766 -14.1281 -10.7740 -10.5715 -10.1275  -8.6906  -8.6867
    -8.5769  -8.5710  -8.5330  -8.4928  -8.2666  -8.2628  -8.1104  -3.6069
    -3.5082  -3.4896  -3.3125  -3.0857  -3.0822  -3.0000  -2.9789  -2.9360
    -2.9332  -2.5769  -2.4562  -2.4424  -2.3871  -2.1486  -2.1217  -2.0096
    -1.8791  -1.7829  -1.6576  -1.6364  -1.6357  -1.5617  -1.5379  -1.5294
    -1.3481  -1.3457  -1.2652  -1.2502  -1.1849  -1.1634  -1.0717  -1.0101
    -0.9366  -0.8784  -0.8168  -0.7273  -0.6155  -0.5028  -0.4597  -0.4284
    -0.3513  -0.2698  -0.2375  -0.1824  -0.0494   0.0383   0.0920   0.1001
     0.1406   0.3369   0.3660   0.3753   0.4301   0.5439   0.5575   0.5692
     0.6364   0.6402   0.6506   0.6787   0.7225   0.7517   0.7935   0.8381
     0.9494   0.9717   1.1075   1.1088   1.2811   1.2817   1.2879   1.3642
     1.8808   1.9013   2.0593   2.2731   2.3892   2.4190   2.7247   3.4549
     5.2158   5.3612   5.8938   5.8945   6.1117   6.6750   6.7151   6.7990
     7.0490   7.3987   7.4044   7.5439   7.7238   8.1055   8.1489   8.1902
     8.2480

          k = 0.1250 0.3960 0.0000 ( 39118 PWs)   bands (ev):

   -36.2483 -36.0149 -25.3814 -23.2716 -23.2674 -23.1441 -17.6578 -17.5074
   -17.4285 -17.3651 -17.2498 -17.1500 -15.5826 -15.5534 -15.5439 -15.2812
   -15.2308 -15.1720 -15.1160 -14.8571 -14.8388 -14.8056 -14.7494 -14.7465
   -14.6152 -14.6055 -14.1966 -10.7280 -10.6273 -10.1754  -8.7211  -8.7166
    -8.5890  -8.5827  -8.5823  -8.4941  -8.3116  -8.3080  -8.1510  -4.3259
    -3.9875  -3.9702  -3.7653  -3.6436  -3.6402  -3.4605  -3.0355  -3.0329
    -3.0179  -2.8598  -2.4478  -2.4366  -2.3202  -2.2781  -2.2694  -2.1329
    -1.9863  -1.9863  -1.9320  -1.8940  -1.8253  -1.8055  -1.7380  -1.5495
    -1.5423  -1.5229  -1.5148  -1.5035  -1.4316  -1.4138  -1.2116  -1.0716
    -0.9663  -0.9430  -0.9374  -0.7249  -0.6405  -0.5095  -0.4496  -0.4476
    -0.3394  -0.2957  -0.2025  -0.1596   0.0077   0.1151   0.2433   0.2533
     0.3012   0.3979   0.4155   0.4942   0.5341   0.5587   0.5765   0.5948
     0.6830   0.7490   0.7741   0.8672   0.9937   1.0368   1.0482   1.0833
     1.1102   1.1913   1.2350   1.3666   1.4081   1.5395   1.6809   1.6817
     1.8287   1.8512   2.0214   2.1751   2.3294   2.3835   3.2250   4.0579
     4.9532   6.0494   6.6412   6.6472   6.6586   6.8046   7.4048   7.5148
     7.6255   7.7239   8.0069   8.0194   8.1755   8.2315   8.4699   8.6597
     8.7088

          k = 0.1250-0.5279 0.0000 ( 39084 PWs)   bands (ev):

   -36.2465 -36.0131 -25.3599 -23.2437 -23.2394 -23.1176 -17.7093 -17.4797
   -17.4641 -17.3613 -17.2064 -17.1463 -15.5862 -15.5778 -15.5338 -15.2551
   -15.1569 -15.1565 -15.0752 -14.8923 -14.8865 -14.8355 -14.7296 -14.7266
   -14.6332 -14.5368 -14.2474 -10.6863 -10.6572 -10.2059  -8.7158  -8.7110
    -8.5933  -8.5922  -8.5876  -8.4929  -8.3458  -8.3425  -8.1774  -4.5930
    -4.1729  -4.1576  -3.9415  -3.8736  -3.8691  -3.6361  -3.0566  -3.0538
    -3.0334  -2.9560  -2.4781  -2.4668  -2.2770  -2.2403  -2.2177  -2.1844
    -2.1364  -2.1325  -2.0607  -1.9371  -1.8948  -1.8495  -1.7953  -1.6865
    -1.6351  -1.6019  -1.5892  -1.5195  -1.5066  -1.5024  -1.2988  -1.0862
    -0.9732  -0.9446  -0.9383  -0.7023  -0.6211  -0.4926  -0.4832  -0.4413
    -0.4378  -0.3352  -0.2117  -0.1360  -0.0261   0.1035   0.2721   0.2941
     0.3017   0.3033   0.3513   0.5556   0.5587   0.6089   0.6100   0.6937
     0.6976   0.7866   0.8255   0.9074   1.1142   1.1835   1.2378   1.3522
     1.3619   1.3685   1.3855   1.4885   1.5925   1.6400   1.6897   1.7015
     1.8459   1.8471   1.8814   2.0136   2.2069   2.2745   3.4101   4.3748
     4.8120   6.2039   6.4688   6.8663   6.8691   7.3909   7.6197   7.7194
     7.7328   8.0582   8.1160   8.3562   8.4569   8.6229   8.6470   8.6645
     8.8835

          k = 0.2500 0.0000 0.0000 ( 39248 PWs)   bands (ev):

   -36.2563 -36.0229 -25.4699 -23.3830 -23.3787 -23.2501 -17.6453 -17.5547
   -17.3894 -17.3410 -17.2952 -17.0670 -15.9730 -15.6629 -15.6015 -15.4616
   -15.3845 -15.2752 -15.0924 -14.9564 -14.8578 -14.8535 -14.7041 -14.6335
   -14.5984 -14.5615 -14.0828 -10.8657 -10.1820 -10.1745  -8.6052  -8.5982
    -8.5560  -8.3906  -8.3872  -8.2330  -8.2287  -8.2105  -8.0792  -3.2215
    -3.2127  -3.1056  -2.8760  -2.8634  -2.8595  -2.5726  -2.4073  -2.3783
    -2.3217  -2.1475  -2.1375  -2.0456  -2.0173  -1.9598  -1.8706  -1.8678
    -1.8142  -1.7644  -1.6017  -1.4855  -1.4238  -1.4201  -1.3688  -1.3140
    -1.1872  -1.1838  -1.0390  -1.0356  -1.0180  -1.0177  -0.9386  -0.9053
    -0.9048  -0.8594  -0.8561  -0.7205  -0.6217  -0.5767  -0.5738  -0.4703
    -0.4654  -0.3311  -0.3297  -0.2567  -0.2481  -0.1930  -0.1354  -0.1109
    -0.0146   0.0049   0.0922   0.1803   0.2660   0.2707   0.2917   0.3967
     0.4817   0.6162   0.6421   0.6674   0.6818   0.6965   0.7466   0.8168
     0.8282   0.8797   0.8890   1.1939   1.2165   1.2197   1.3166   1.3724
     1.4402   1.5892   1.6201   1.7630   1.9830   2.0220   2.0419   3.2191
     4.5503   5.2000   5.2009   5.6107   6.0467   6.2455   6.3679   6.6765
     6.8992   6.9185   7.2252   7.4565   7.6356   7.7416   7.8345   7.8914
     8.0641

          k = 0.2500 0.1320 0.0000 ( 39213 PWs)   bands (ev):

   -36.2545 -36.0211 -25.4508 -23.3591 -23.3549 -23.2272 -17.6134 -17.5482
   -17.3613 -17.3597 -17.3318 -17.1329 -15.9127 -15.6103 -15.5668 -15.4149
   -15.3331 -15.2411 -15.0950 -14.9066 -14.8436 -14.8419 -14.7004 -14.6475
   -14.6173 -14.6014 -14.0960 -10.8415 -10.4630 -10.0692  -8.6725  -8.6682
    -8.5792  -8.5273  -8.5223  -8.3912  -8.1994  -8.1954  -8.0466  -3.2737
    -3.2573  -3.1342  -2.8761  -2.8540  -2.8516  -2.7540  -2.7352  -2.6539
    -2.6159  -2.5728  -2.3795  -2.2840  -2.2823  -2.2160  -2.0453  -1.9808
    -1.8861  -1.6947  -1.6658  -1.6595  -1.5918  -1.5542  -1.4423  -1.4129
    -1.2811  -1.2754  -1.2407  -1.1982  -1.0136  -1.0038  -0.8982  -0.8730
    -0.8406  -0.7667  -0.7325  -0.6791  -0.6767  -0.5820  -0.5139  -0.4635
    -0.4215  -0.4114  -0.3253  -0.3217  -0.1271  -0.0848  -0.0703   0.0300
     0.1081   0.2392   0.2534   0.2609   0.3053   0.3836   0.4078   0.4773
     0.5459   0.5501   0.6398   0.7196   0.7251   0.7677   0.7733   0.8222
     0.8286   0.8675   1.0280   1.0757   1.0791   1.2012   1.2657   1.4414
     1.9661   2.0351   2.0388   2.1928   2.2164   2.2351   2.4635   3.3612
     4.8196   5.4612   5.4621   5.5432   6.1195   6.2849   6.5177   6.7566
     7.0878   7.1585   7.1688   7.4807   7.6849   7.9328   7.9712   8.0997
     8.2106

          k = 0.2500 0.2640 0.0000 ( 39179 PWs)   bands (ev):

   -36.2501 -36.0167 -25.4040 -23.3004 -23.2962 -23.1710 -17.5498 -17.5236
   -17.4976 -17.3306 -17.2764 -17.2643 -15.7515 -15.5169 -15.5020 -15.2801
   -15.2055 -15.1609 -15.1126 -14.8201 -14.8152 -14.7798 -14.7546 -14.6921
   -14.6899 -14.6130 -14.1221 -10.7899 -10.7528 -10.1739  -8.8926  -8.8886
    -8.7315  -8.5894  -8.5838  -8.5068  -8.3192  -8.3151  -8.1701  -3.6593
    -3.6139  -3.5644  -3.4092  -3.1012  -3.0963  -3.0291  -2.9899  -2.9663
    -2.9658  -2.8343  -2.8203  -2.8171  -2.5274  -2.5029  -2.1146  -2.0779
    -2.0727  -2.0515  -2.0184  -1.8759  -1.7806  -1.6516  -1.6125  -1.5437
    -1.5288  -1.3918  -1.3700  -1.3375  -1.2504  -1.2502  -1.1527  -1.0861
    -1.0266  -0.8960  -0.7891  -0.7247  -0.7148  -0.5432  -0.5175  -0.3108
    -0.3059  -0.1027  -0.0898   0.0971   0.1352   0.1555   0.2470   0.2814
     0.3074   0.3121   0.4981   0.5162   0.5700   0.6055   0.6166   0.7142
     0.7160   0.7575   0.7844   0.7956   0.8574   0.8940   0.9366   0.9713
     1.0112   1.0370   1.1792   1.1820   1.2060   1.2113   1.3559   1.4747
     2.3315   2.3319   2.6110   2.6371   2.7210   2.7630   2.9706   3.7809
     5.0627   5.4565   6.0040   6.0049   6.4281   6.5697   6.8929   7.1012
     7.1536   7.6338   7.6906   7.6932   8.0210   8.0527   8.3440   8.3686
     8.4620

          k = 0.2500 0.3960 0.0000 ( 39160 PWs)   bands (ev):

   -36.2457 -36.0123 -25.3561 -23.2400 -23.2358 -23.1132 -17.6457 -17.5131
   -17.4387 -17.4166 -17.3003 -17.1797 -15.5465 -15.4718 -15.4669 -15.1802
   -15.1083 -15.0723 -15.0668 -14.8845 -14.8175 -14.7940 -14.7373 -14.7338
   -14.6194 -14.5997 -14.1539 -10.9261 -10.7179 -10.3846  -9.0126  -9.0082
    -8.8613  -8.6397  -8.6347  -8.5333  -8.5288  -8.5255  -8.3893  -4.2956
    -4.1469  -4.1134  -3.8840  -3.6232  -3.6194  -3.5333  -3.1056  -3.1045
    -3.0467  -2.8247  -2.7821  -2.7800  -2.6786  -2.4458  -2.4457  -2.4158
    -2.3001  -2.1889  -2.1005  -2.0604  -1.9652  -1.8331  -1.7946  -1.7810
    -1.5475  -1.4781  -1.4772  -1.4616  -1.4446  -1.4404  -1.2281  -1.2194
    -1.0945  -1.0920  -0.7810  -0.7699  -0.5875  -0.5004  -0.4427  -0.2787
    -0.2448   0.0423   0.0749   0.1457   0.3222   0.3244   0.3571   0.4434
     0.5880   0.6294   0.6412   0.6423   0.6693   0.6814   0.8199   0.8507
     0.8964   0.9799   0.9960   1.0589   1.0856   1.1051   1.1370   1.1478
     1.1840   1.2296   1.2720   1.3854   1.4194   1.6026   1.6033   1.6653
     2.1639   2.1641   2.8386   2.8811   2.9860   3.1846   3.2405   4.1951
     4.7539   5.8086   6.2114   6.2141   6.4382   6.9551   7.0705   7.2827
     7.6415   7.9757   8.0656   8.1456   8.1561   8.3788   8.6978   8.8550
     9.0057

          k = 0.2500-0.5279 0.0000 ( 39192 PWs)   bands (ev):

   -36.2439 -36.0105 -25.3360 -23.2145 -23.2102 -23.0887 -17.6958 -17.5076
   -17.4663 -17.3992 -17.2950 -17.1401 -15.4687 -15.4634 -15.4135 -15.2467
   -15.0521 -15.0212 -14.9950 -14.9055 -14.8530 -14.8451 -14.7229 -14.7209
   -14.6032 -14.5434 -14.1775 -10.9542 -10.6924 -10.5022  -9.0128  -9.0080
    -8.8794  -8.7276  -8.7240  -8.5998  -8.5941  -8.5413  -8.5008  -4.5656
    -4.3458  -4.3141  -4.0753  -3.8508  -3.8470  -3.7267  -3.1127  -3.1124
    -3.0607  -2.8136  -2.7673  -2.7425  -2.6951  -2.5943  -2.5730  -2.4102
    -2.3929  -2.2610  -2.1610  -2.0968  -2.0657  -1.9076  -1.8879  -1.8290
    -1.6268  -1.5572  -1.5321  -1.4743  -1.4551  -1.4373  -1.2788  -1.2405
    -1.1489  -1.1180  -0.7791  -0.7667  -0.4763  -0.4725  -0.3671  -0.2650
    -0.2071  -0.0708   0.0775   0.1664   0.3718   0.4248   0.4297   0.4563
     0.5413   0.5769   0.6714   0.7505   0.7585   0.8517   0.8527   0.8538
     0.8913   1.0213   1.0825   1.1339   1.1984   1.2458   1.3101   1.3374
     1.3713   1.3842   1.4058   1.4615   1.5613   1.7738   1.7790   1.7826
     1.9422   1.9423   2.8576   2.9092   3.0240   3.2135   3.4175   4.1531
     5.0483   5.7346   6.1750   6.1765   6.1782   6.9585   7.0287   7.3661
     8.1332   8.1345   8.4740   8.5934   8.6276   8.6556   8.8632   8.8821
     8.9143

          k = 0.3750 0.0000 0.0000 ( 39182 PWs)   bands (ev):

   -36.2536 -36.0202 -25.4370 -23.3376 -23.3333 -23.2068 -17.6947 -17.5500
   -17.4857 -17.2919 -17.2877 -17.0637 -16.0614 -15.6984 -15.6902 -15.3407
   -15.2932 -15.2693 -15.1764 -14.9328 -14.8709 -14.8620 -14.8080 -14.6637
   -14.6463 -14.5955 -14.1127 -10.8620 -10.1240 -10.1061  -8.5875  -8.5807
    -8.5497  -8.3257  -8.3225  -8.1614  -8.1486  -8.1442  -8.0004  -3.5500
    -3.5361  -3.4023  -2.9866  -2.9849  -2.9800  -2.9559  -2.3275  -2.2784
    -2.2552  -2.2189  -2.1736  -2.1706  -2.0917  -1.9526  -1.9520  -1.9021
    -1.8721  -1.8694  -1.7987  -1.6755  -1.6584  -1.5577  -1.5528  -1.5001
    -1.3870  -1.3839  -1.2219  -1.1918  -1.1583  -1.0545  -1.0414  -0.9916
    -0.9157  -0.8969  -0.8847  -0.7189  -0.7081  -0.5895  -0.5867  -0.4859
    -0.4735  -0.4545  -0.2585  -0.2531  -0.2499  -0.2313  -0.2240  -0.1443
    -0.0456   0.0827   0.1150   0.2392   0.2595   0.3880   0.4846   0.5280
     0.5300   0.5478   0.5593   0.6780   0.6883   0.7331   0.8323   0.8946
     0.9051   0.9469   1.0876   1.1077   1.1215   1.2275   1.4611   1.4627
     1.5399   1.6225   1.6495   1.8788   1.9974   2.1376   2.1640   3.8014
     4.9600   5.7793   5.8499   5.8508   5.9450   6.7159   7.0919   7.3428
     7.3453   7.3722   7.5749   7.7824   7.9044   7.9267   7.9917   8.4361
     8.6291

          k = 0.3750 0.1320 0.0000 ( 39227 PWs)   bands (ev):

   -36.2518 -36.0184 -25.4191 -23.3159 -23.3116 -23.1858 -17.6861 -17.5209
   -17.4769 -17.3563 -17.2587 -17.1279 -15.9897 -15.6508 -15.6434 -15.2996
   -15.2375 -15.2256 -15.1433 -14.8858 -14.8422 -14.8389 -14.7877 -14.6551
   -14.6512 -14.6325 -14.1215 -10.8402 -10.4000 -10.1164  -8.6441  -8.6392
    -8.5757  -8.4891  -8.4848  -8.3410  -8.2383  -8.2341  -8.0943  -3.6133
    -3.5920  -3.4474  -3.0011  -2.9845  -2.9839  -2.9587  -2.7097  -2.6631
    -2.6529  -2.5366  -2.3174  -2.2888  -2.2726  -2.2703  -2.1368  -2.0698
    -1.9836  -1.9587  -1.9561  -1.8876  -1.7402  -1.6278  -1.5058  -1.4647
    -1.4641  -1.4033  -1.3435  -1.3133  -1.1178  -1.0775  -1.0116  -0.9243
    -0.9062  -0.7876  -0.7219  -0.7073  -0.6960  -0.5866  -0.4948  -0.4738
    -0.4457  -0.4263  -0.2161  -0.2146  -0.1719  -0.0865  -0.0166   0.0432
     0.0467   0.1467   0.1959   0.3072   0.3964   0.4538   0.5341   0.5517
     0.5609   0.6350   0.6571   0.7002   0.7052   0.7269   0.8652   0.9330
     0.9421   1.0360   1.0797   1.0971   1.1362   1.2466   1.4925   1.5984
     1.9980   2.0983   2.1065   2.2818   2.3321   2.4538   2.6190   3.9301
     5.0922   5.4525   5.9995   5.9996   6.0594   6.7795   7.1388   7.3610
     7.4103   7.4128   7.4559   7.8126   7.8792   8.0514   8.2130   8.4021
     8.6037

          k = 0.3750 0.2640 0.0000 ( 39219 PWs)   bands (ev):

   -36.2475 -36.0141 -25.3753 -23.2626 -23.2583 -23.1344 -17.6658 -17.5008
   -17.4561 -17.4456 -17.2718 -17.1835 -15.7922 -15.5288 -15.5239 -15.1997
   -15.1264 -15.1232 -15.0537 -14.8178 -14.8069 -14.7729 -14.7724 -14.6749
   -14.6684 -14.6284 -14.1261 -10.8408 -10.7596 -10.3550  -8.9453  -8.9412
    -8.7889  -8.6240  -8.6192  -8.5211  -8.5016  -8.4969  -8.3708  -3.9335
    -3.8817  -3.6835  -3.5287  -3.2290  -3.1580  -3.1392  -3.0368  -3.0358
    -3.0276  -2.9572  -2.9070  -2.9043  -2.7782  -2.5383  -2.4384  -2.3817
    -2.2732  -1.9871  -1.9584  -1.8767  -1.8521  -1.7448  -1.5978  -1.5749
    -1.5426  -1.4903  -1.4869  -1.4112  -1.3051  -1.3032  -1.1709  -1.1262
    -1.0337  -0.9933  -0.8392  -0.6434  -0.5899  -0.5250  -0.4700  -0.2279
    -0.2103   0.0032   0.0233   0.1227   0.1655   0.1741   0.3509   0.3521
     0.4183   0.4990   0.5537   0.5704   0.5972   0.6430   0.7412   0.7677
     0.8309   0.8588   0.9009   0.9711   0.9809   1.0168   1.0339   1.0962
     1.1012   1.1126   1.1463   1.1711   1.2109   1.3440   1.4900   1.6700
     2.3320   2.3322   2.7556   3.0647   3.0829   3.1768   3.3791   4.2595
     4.7344   5.3773   6.0443   6.0466   6.5214   6.9196   6.9628   7.2345
     7.5232   7.7530   7.7572   7.7768   8.1259   8.2022   8.5686   8.7524
     8.7639

          k = 0.3750 0.3960 0.0000 ( 39217 PWs)   bands (ev):

   -36.2432 -36.0098 -25.3305 -23.2079 -23.2036 -23.0817 -17.6486 -17.6272
   -17.4365 -17.4002 -17.3661 -17.1038 -15.5221 -15.3936 -15.3918 -15.1208
   -15.0903 -15.0302 -14.9268 -14.8947 -14.8173 -14.7375 -14.7302 -14.7174
   -14.6189 -14.5410 -14.1125 -11.1434 -10.7249 -10.6385  -9.2111  -9.2065
    -9.0602  -8.8761  -8.8727  -8.6824  -8.6267  -8.6207  -8.5498  -4.4152
    -4.3531  -4.2632  -4.0980  -3.6945  -3.6003  -3.5987  -3.2869  -3.2839
    -3.1586  -2.9623  -2.9349  -2.9328  -2.8368  -2.7754  -2.6755  -2.6389
    -2.4989  -2.2298  -2.1583  -1.8821  -1.8635  -1.8616  -1.8435  -1.6661
    -1.6175  -1.5931  -1.5308  -1.5100  -1.4783  -1.4481  -1.3818  -1.1643
    -1.0528  -1.0498  -0.9986  -0.5693  -0.4657  -0.4194  -0.2181  -0.1578
    -0.0404   0.2149   0.3028   0.3468   0.4993   0.5039   0.6025   0.6397
     0.6837   0.7442   0.8075   0.8292   0.8333   0.8577   0.9317   0.9955
     1.0674   1.0963   1.1090   1.1286   1.1455   1.2247   1.2965   1.3129
     1.3349   1.3919   1.3966   1.4862   1.4906   1.5255   1.5297   1.8960
     2.1522   2.1541   3.2350   3.5819   3.6003   3.6588   3.8519   4.0137
     4.9087   5.5760   5.7419   5.7431   6.4121   6.6375   6.7003   7.1339
     7.8825   8.3159   8.3367   8.4106   8.5266   8.7103   8.8202   8.8911
     8.9070

          k = 0.3750-0.5279 0.0000 ( 39212 PWs)   bands (ev):

   -36.2414 -36.0079 -25.3118 -23.1848 -23.1806 -23.0595 -17.6825 -17.6359
   -17.4531 -17.4259 -17.3307 -17.0685 -15.3321 -15.3319 -15.2804 -15.2437
   -15.0596 -15.0006 -14.9573 -14.8309 -14.8221 -14.7739 -14.7150 -14.7128
   -14.5936 -14.4888 -14.1047 -11.2533 -10.7780 -10.6917  -9.2932  -9.2882
    -9.1548  -9.0212  -9.0180  -8.8121  -8.6531  -8.6463  -8.5638  -4.6260
    -4.5594  -4.5286  -4.2946  -3.8993  -3.8254  -3.8239  -3.3054  -3.3023
    -3.1750  -2.9602  -2.9295  -2.9268  -2.8813  -2.8343  -2.7805  -2.6866
    -2.5684  -2.3361  -2.2286  -1.9811  -1.9660  -1.8989  -1.8827  -1.6798
    -1.6199  -1.6127  -1.6068  -1.5832  -1.5647  -1.4327  -1.3981  -1.2614
    -1.0405  -1.0352  -0.9991  -0.5576  -0.4319  -0.3748  -0.1355  -0.0475
     0.0461   0.2819   0.3326   0.4501   0.6090   0.6173   0.6402   0.6992
     0.7098   0.7490   0.8786   0.9029   0.9404   1.0288   1.1047   1.1217
     1.1237   1.1751   1.1807   1.2864   1.3308   1.3674   1.3839   1.4544
     1.4603   1.4738   1.5031   1.5741   1.6129   1.7131   1.7153   1.9083
     1.9112   2.0294   3.3744   3.7176   3.7470   3.7776   3.8362   3.9916
     5.2506   5.5635   5.5653   5.6405   6.1118   6.5217   6.5932   6.9495
     8.3372   8.4571   8.5039   8.5644   8.6789   8.6919   8.8224   8.9329
     9.0486

          k =-0.5000 0.0000 0.0000 ( 39178 PWs)   bands (ev):

   -36.2525 -36.0191 -25.4232 -23.3184 -23.3141 -23.1886 -17.7470 -17.5386
   -17.5080 -17.2905 -17.2439 -17.0623 -16.1019 -15.7548 -15.7465 -15.3800
   -15.2396 -15.2386 -15.0341 -14.9902 -14.8666 -14.8587 -14.8512 -14.7071
   -14.6641 -14.6061 -14.1284 -10.8550 -10.0995 -10.0848  -8.5773  -8.5704
    -8.5411  -8.3025  -8.2995  -8.1478  -8.1125  -8.1080  -7.9668  -3.6919
    -3.6784  -3.5425  -3.1347  -3.0117  -3.0097  -2.9530  -2.3220  -2.2807
    -2.2602  -2.2537  -2.2169  -2.1272  -2.0543  -2.0447  -1.9409  -1.8846
    -1.8773  -1.8733  -1.8671  -1.8357  -1.8009  -1.6679  -1.5736  -1.4696
    -1.4673  -1.4450  -1.3140  -1.2902  -1.2271  -1.0725  -1.0599  -1.0524
    -0.9483  -0.8930  -0.8747  -0.7349  -0.6893  -0.5948  -0.5920  -0.5425
    -0.5151  -0.5064  -0.2759  -0.2532  -0.2505  -0.2280  -0.2246  -0.1748
    -0.0777   0.0587   0.1413   0.2655   0.3217   0.4223   0.4759   0.4795
     0.4888   0.4928   0.7018   0.7257   0.7387   0.8543   0.9150   0.9268
     0.9558   0.9973   1.0005   1.0100   1.1975   1.2739   1.4803   1.5327
     1.6249   1.6345   1.6627   1.8834   1.9661   2.1705   2.1829   4.4731
     4.4870   5.8853   6.0644   6.6228   6.6240   6.6740   6.6754   7.2212
     7.5824   7.6401   7.8528   7.8704   8.0022   8.0280   8.0859   8.3367
     8.7727

          k =-0.5000 0.1320 0.0000 ( 39242 PWs)   bands (ev):

   -36.2508 -36.0173 -25.4058 -23.2976 -23.2933 -23.1684 -17.7377 -17.5293
   -17.4805 -17.3541 -17.2164 -17.1257 -16.0248 -15.6980 -15.6904 -15.3342
   -15.2018 -15.2008 -14.9998 -14.9308 -14.8421 -14.8297 -14.8261 -14.6728
   -14.6597 -14.6450 -14.1369 -10.8332 -10.3148 -10.2029  -8.6154  -8.6098
    -8.5612  -8.4319  -8.4290  -8.3156  -8.3107  -8.2688  -8.1808  -3.7615
    -3.7409  -3.5955  -3.1610  -3.0163  -3.0149  -2.9704  -2.6807  -2.6464
    -2.6268  -2.4840  -2.3137  -2.2771  -2.2668  -2.2651  -2.1807  -2.1008
    -2.0846  -2.0703  -2.0273  -1.9530  -1.7852  -1.6607  -1.5910  -1.5253
    -1.5232  -1.4179  -1.3726  -1.2454  -1.2124  -1.1141  -1.0677  -0.9477
    -0.9416  -0.7597  -0.7373  -0.7023  -0.6915  -0.5935  -0.4849  -0.4757
    -0.4605  -0.4322  -0.2144  -0.1424  -0.1393  -0.0718  -0.0668  -0.0632
    -0.0379   0.1141   0.1798   0.3696   0.3873   0.4941   0.5362   0.5738
     0.5999   0.6292   0.6303   0.6655   0.7534   0.8662   0.8688   0.9614
     1.0373   1.0446   1.0746   1.2018   1.2067   1.2386   1.6220   1.6789
     2.0068   2.1000   2.1080   2.2998   2.3567   2.5080   2.6427   4.5812
     4.5993   5.3964   6.2402   6.4705   6.4719   6.9774   6.9779   7.2538
     7.4994   7.6108   7.6660   7.7915   8.0328   8.0640   8.2035   8.5911
     8.6861

          k =-0.5000 0.2640 0.0000 ( 39264 PWs)   bands (ev):

   -36.2465 -36.0130 -25.3632 -23.2466 -23.2423 -23.1190 -17.7158 -17.5070
   -17.4974 -17.4093 -17.2684 -17.1456 -15.8110 -15.5473 -15.5416 -15.2233
   -15.1160 -15.1123 -14.9168 -14.8247 -14.7883 -14.7857 -14.7799 -14.7206
   -14.6615 -14.5859 -14.1340 -10.8122 -10.7550 -10.4851  -8.8842  -8.8794
    -8.7415  -8.7331  -8.7301  -8.5652  -8.5593  -8.5505  -8.5006  -4.0716
    -4.0201  -3.8254  -3.5204  -3.3612  -3.1835  -3.1698  -3.0556  -3.0457
    -3.0373  -2.9617  -2.9156  -2.9121  -2.8122  -2.5732  -2.5348  -2.4965
    -2.3671  -2.0289  -1.9801  -1.8127  -1.7761  -1.7067  -1.6247  -1.6225
    -1.5744  -1.5082  -1.4686  -1.4645  -1.3303  -1.3279  -1.1716  -1.1356
    -1.0492  -1.0343  -0.8539  -0.6001  -0.5199  -0.4853  -0.3888  -0.2028
    -0.1832   0.0324   0.0413   0.0620   0.1948   0.1987   0.3664   0.4378
     0.4430   0.5261   0.5278   0.5329   0.5887   0.7103   0.7748   0.7990
     0.9086   0.9115   0.9466   0.9736   1.0344   1.0463   1.0627   1.0946
     1.1176   1.1647   1.1829   1.2292   1.2515   1.3124   1.6109   1.7770
     2.3250   2.3256   2.7636   3.2049   3.2227   3.3112   3.5014   4.4640
     4.8854   4.9819   6.0403   6.0421   6.6401   6.8668   6.8953   7.3833
     7.7456   7.7598   7.7883   7.9913   8.2773   8.4066   8.6899   8.7248
     8.8735

          k =-0.5000 0.3960 0.0000 ( 39212 PWs)   bands (ev):

   -36.2421 -36.0087 -25.3199 -23.1944 -23.1901 -23.0685 -17.6942 -17.6264
   -17.4851 -17.3972 -17.3339 -17.0702 -15.5154 -15.3644 -15.3625 -15.1259
   -15.0815 -15.0385 -14.8857 -14.8272 -14.8064 -14.7330 -14.7309 -14.6858
   -14.6541 -14.4929 -14.0969 -11.2155 -10.7648 -10.7196  -9.2593  -9.2544
    -9.1156  -9.0211  -9.0181  -8.8184  -8.6434  -8.6369  -8.5637  -4.5444
    -4.4788  -4.2805  -4.1941  -3.7977  -3.5923  -3.5901  -3.3566  -3.3546
    -3.2193  -2.9747  -2.9519  -2.9492  -2.9405  -2.8654  -2.7690  -2.6268
    -2.5808  -2.3067  -2.1531  -1.8914  -1.8777  -1.7651  -1.7404  -1.7087
    -1.6816  -1.5975  -1.5431  -1.5368  -1.4720  -1.4623  -1.4573  -1.1395
    -1.0920  -1.0130  -1.0115  -0.4694  -0.4537  -0.3817  -0.1199  -0.0365
     0.0383   0.2988   0.3304   0.4156   0.6176   0.6424   0.6449   0.6474
     0.7168   0.7782   0.8491   0.9008   0.9055   0.9274   0.9778   1.0085
     1.1104   1.1491   1.1497   1.1624   1.1849   1.2767   1.3469   1.3730
     1.3988   1.4417   1.4468   1.4915   1.4935   1.5674   1.6089   2.0232
     2.1400   2.1429   3.2340   3.8499   3.8606   3.8622   3.9060   4.0867
     5.1828   5.3869   5.5458   5.5471   6.4288   6.4822   6.5473   6.9397
     8.2279   8.2664   8.4159   8.5270   8.6468   8.7585   8.7747   8.8525
     9.0002

          k =-0.5000-0.5279 0.0000 ( 39284 PWs)   bands (ev):

   -36.2403 -36.0069 -25.3016 -23.1724 -23.1682 -23.0472 -17.6854 -17.6770
   -17.4762 -17.4477 -17.3004 -17.0369 -15.2695 -15.2659 -15.2439 -15.2206
   -15.1003 -15.0228 -14.9328 -14.8279 -14.7693 -14.7129 -14.7114 -14.7079
   -14.6119 -14.4526 -14.0736 -11.3792 -10.8804 -10.6965  -9.4054  -9.4003
    -9.2661  -9.1372  -9.1342  -8.9254  -8.6719  -8.6642  -8.5797  -4.7535
    -4.6858  -4.5357  -4.4031  -4.0011  -3.8167  -3.8144  -3.3890  -3.3871
    -3.2485  -2.9739  -2.9587  -2.9548  -2.9412  -2.9393  -2.8609  -2.6518
    -2.6507  -2.4044  -2.2185  -2.0057  -1.9948  -1.8299  -1.8053  -1.6855
    -1.6509  -1.6376  -1.6357  -1.5868  -1.5697  -1.4819  -1.4531  -1.2539
    -1.0811  -0.9853  -0.9826  -0.4459  -0.4188  -0.3449  -0.0956   0.0937
     0.1452   0.3902   0.4864   0.5663   0.6891   0.6991   0.7004   0.7538
     0.7716   0.7959   0.9448   0.9502   0.9952   1.1270   1.1621   1.1771
     1.2239   1.2439   1.2460   1.2914   1.3766   1.4112   1.4591   1.4965
     1.5293   1.5817   1.5829   1.6137   1.6862   1.6896   1.7571   1.8840
     1.8886   2.1619   3.3570   3.6305   4.0496   4.0669   4.1109   4.2759
     5.3121   5.3185   5.3201   5.6690   6.1630   6.3534   6.4292   6.7559
     8.3762   8.3965   8.4080   8.4095   8.5481   8.6518   8.8353   8.9328
     9.0486

     the Fermi energy is     1.9139 ev

!    total energy              =   -1842.78388396 Ry
     Harris-Foulkes estimate   =   -1842.78388395 Ry
     estimated scf accuracy    <          8.1E-09 Ry

     The total energy is the sum of the following terms:

     one-electron contribution =  -22171.78422704 Ry
     hartree contribution      =   11232.66884526 Ry
     xc contribution           =    -621.54559205 Ry
     ewald contribution        =    9717.88489226 Ry
     smearing contrib. (-TS)   =      -0.00780239 Ry

     convergence has been achieved in  39 iterations

     negative rho (up, down):  1.482E-03 0.000E+00

     Forces acting on atoms (cartesian axes, Ry/au):

     atom    1 type  4   force =     0.00000000    0.00000000   -0.00012814
     atom    2 type  3   force =     0.00000000    0.00000000    0.00027104
     atom    3 type  4   force =     0.00000000    0.00000000   -0.00076253
     atom    4 type  1   force =     0.00000000    0.00000000   -0.00036267
     atom    5 type  3   force =     0.00000000    0.00000000    0.00070646
     atom    6 type  4   force =     0.00000000    0.00000000    0.00029933
     atom    7 type  4   force =     0.00000000    0.00000000    0.00071969
     atom    8 type  2   force =     0.00000000    0.00000000   -0.00151001
     atom    9 type  4   force =     0.00000000    0.00000000    0.00132833
     atom   10 type  4   force =     0.00000000    0.00000000    0.00173393
     atom   11 type  3   force =     0.00000000    0.00000000   -0.00018384
     atom   12 type  1   force =     0.00000000    0.00000000   -0.00551675
     atom   13 type  4   force =     0.00000000    0.00000000    0.00742792
     atom   14 type  4   force =     0.00000000    0.00000000    0.02544704
     atom   15 type  3   force =     0.00000000    0.00000000   -0.03213366
     atom   16 type  4   force =     0.00000000    0.00000000    0.06262212
     atom   17 type  1   force =     0.00000000    0.00000000   -0.05878945
     atom   18 type  3   force =     0.00000000    0.00000000   -0.01868913
     atom   19 type  4   force =     0.00000000    0.00000000    0.02139474
     atom   20 type  4   force =     0.00000000    0.00000000    0.00997124
     atom   21 type  2   force =     0.00000000    0.00000000   -0.01873767
     atom   22 type  4   force =     0.00000000    0.00000000    0.00115264
     atom   23 type  4   force =     0.00000000    0.00000000    0.00303039
     atom   24 type  3   force =     0.00000000    0.00000000   -0.00002493
     atom   25 type  1   force =     0.00000000    0.00000000    0.00007278
     atom   26 type  4   force =     0.00000000    0.00000000    0.00109172
     atom   27 type  3   force =     0.00000000    0.00000000   -0.00078976
     atom   28 type  4   force =     0.00000000    0.00000000    0.00035918

     Total force =     0.101565     Total SCF correction =     0.000107


     Computing stress (Cartesian axis) and pressure


     negative rho (up, down):  1.482E-03 0.000E+00
          total   stress  (Ry/bohr**3)                   (kbar)     P=       -7.66
  -0.00010195   0.00000000   0.00000000          -15.00        0.00        0.00
   0.00000000  -0.00003737   0.00000000            0.00       -5.50        0.00
   0.00000000   0.00000000  -0.00001686            0.00        0.00       -2.48


     number of scf cycles    =   4
     number of bfgs steps    =   3

     energy   old            =   -1842.8524500354 Ry
     energy   new            =   -1842.7838839618 Ry

     CASE: energy  _new > energy  _old


 %%%%%%%%%%%%%%%%%%%%%%%%%%%%%%%%%%%%%%%%%%%%%%%%%%%%%%%%%%%%%%%%%%%%%%%%%%%%%%
     Error in routine bfgs (1):
     dE0s is positive which should never happen
 %%%%%%%%%%%%%%%%%%%%%%%%%%%%%%%%%%%%%%%%%%%%%%%%%%%%%%%%%%%%%%%%%%%%%%%%%%%%%%

     stopping ...
