
     Program PWSCF v.6.5 starts on  9Jul2021 at 18: 0:22 

     This program is part of the open-source Quantum ESPRESSO suite
     for quantum simulation of materials; please cite
         "P. Giannozzi et al., J. Phys.:Condens. Matter 21 395502 (2009);
         "P. Giannozzi et al., J. Phys.:Condens. Matter 29 465901 (2017);
          URL http://www.quantum-espresso.org", 
     in publications or presentations arising from this work. More details at
     http://www.quantum-espresso.org/quote

     Parallel version (MPI), running on    20 processors

     MPI processes distributed on     2 nodes
     R & G space division:  proc/nbgrp/npool/nimage =      20
     Reading input from CBCO_Y_cleave_0.75_sep.pwi
Warning: card &CELL ignored
Warning: card     CELL_DYNAMICS = 'BFGS' ignored
Warning: card     PRESS_CONV_THR = 0.5 ignored
Warning: card / ignored

     Current dimensions of program PWSCF are:
     Max number of different atomic species (ntypx) = 10
     Max number of k-points (npk) =  40000
     Max angular momentum in pseudopotentials (lmaxx) =  3

     Subspace diagonalization in iterative solution of the eigenvalue problem:
     one sub-group per band group will be used
     scalapack distributed-memory algorithm (size of sub-group:  4*  4 procs)

     Message from routine setup:
     using ibrav=0 with symmetry is DISCOURAGED, use correct ibrav instead
 
     Parallelization info
     --------------------
     sticks:   dense  smooth     PW     G-vecs:    dense   smooth      PW
     Min         149      50     14                71365    13742    2148
     Max         150      51     15                71404    13765    2191
     Sum        2991    1007    289              1427725   274999   43215
 


     bravais-lattice index     =            0
     lattice parameter (alat)  =       7.4270  a.u.
     unit-cell volume          =    4376.3515 (a.u.)^3
     number of atoms/cell      =           28
     number of atomic types    =            4
     number of electrons       =       227.00
     number of Kohn-Sham states=          137
     kinetic-energy cutoff     =      60.0000  Ry
     charge density cutoff     =     720.0000  Ry
     convergence threshold     =      1.0E-10
     mixing beta               =       0.7000
     number of iterations used =           10  local-TF  mixing
     Exchange-correlation= SLA PW PBE PBE
                           (   1   4   3   4   0   0   0)
     nstep                     =          300


     celldm(1)=   7.427040  celldm(2)=   0.000000  celldm(3)=   0.000000
     celldm(4)=   0.000000  celldm(5)=   0.000000  celldm(6)=   0.000000

     crystal axes: (cart. coord. in units of alat)
               a(1) = (   1.000000   0.000000   0.000000 )  
               a(2) = (   0.000000   0.947081   0.000000 )  
               a(3) = (   0.000000   0.000000  11.279186 )  

     reciprocal axes: (cart. coord. in units 2 pi/alat)
               b(1) = (  1.000000  0.000000  0.000000 )  
               b(2) = (  0.000000  1.055876  0.000000 )  
               b(3) = (  0.000000  0.000000  0.088659 )  


     PseudoPot. # 1 for Ba read from file:
     ./pseudo/Ba.pbe-nsp-van.UPF
     MD5 check sum: 2b9c31dd849566dd297d80989662b7a0
     Pseudo is Ultrasoft + core correction, Zval = 10.0
     Generated by new atomic code, or converted to UPF format
     Using radial grid of  907 points,  6 beta functions with: 
                l(1) =   0
                l(2) =   0
                l(3) =   1
                l(4) =   1
                l(5) =   2
                l(6) =   2
     Q(r) pseudized with  6 coefficients,  rinner =    1.200   1.200   1.200
                                                       1.200   1.200

     PseudoPot. # 2 for Ca read from file:
     ./pseudo/Ca.pbe-nsp-van.UPF
     MD5 check sum: 6471098428ff4fa451746d08035ff179
     Pseudo is Ultrasoft + core correction, Zval = 10.0
     Generated by new atomic code, or converted to UPF format
     Using radial grid of  845 points,  6 beta functions with: 
                l(1) =   0
                l(2) =   0
                l(3) =   1
                l(4) =   1
                l(5) =   2
                l(6) =   2
     Q(r) pseudized with  6 coefficients,  rinner =    1.200   1.200   1.200
                                                       1.200   1.200

     PseudoPot. # 3 for Cu read from file:
     ./pseudo/Cu.pbe-n-van_ak.UPF
     MD5 check sum: 34e3282627ffb533726feb647e090d62
     Pseudo is Ultrasoft + core correction, Zval = 11.0
     Generated by new atomic code, or converted to UPF format
     Using radial grid of  867 points,  6 beta functions with: 
                l(1) =   0
                l(2) =   0
                l(3) =   1
                l(4) =   1
                l(5) =   2
                l(6) =   2
     Q(r) pseudized with  8 coefficients,  rinner =    1.400   1.400   1.400
                                                       1.400   1.400

     PseudoPot. # 4 for O  read from file:
     ./pseudo/O.pbe-van_ak.UPF
     MD5 check sum: 783ce7fe4c79b6a4916957118fed0856
     Pseudo is Ultrasoft, Zval =  6.0
     Generated by new atomic code, or converted to UPF format
     Using radial grid of  737 points,  4 beta functions with: 
                l(1) =   0
                l(2) =   0
                l(3) =   1
                l(4) =   1
     Q(r) pseudized with  8 coefficients,  rinner =    0.800   0.800   0.800


     atomic species   valence    mass     pseudopotential
        Ba            10.00   137.32700     Ba( 1.00)
        Ca            10.00    40.07800     Ca( 1.00)
        Cu            11.00    63.54600     Cu( 1.00)
        O              6.00    15.99900     O ( 1.00)

      4 Sym. Ops. (no inversion) found



   Cartesian axes

     site n.     atom                  positions (alat units)
         1           O   tau(   1) = (   0.0000000   0.4735409  -0.0469745  )
         2           Cu  tau(   2) = (   0.0000000   0.0000000   0.0264565  )
         3           O   tau(   3) = (   0.0000000   0.0000000   0.5030914  )
         4           Ba  tau(   4) = (   0.5000000   0.4735409   0.5690292  )
         5           Cu  tau(   5) = (   0.0000000   0.0000000   1.0374254  )
         6           O   tau(   6) = (   0.5000000   0.0000000   1.0768099  )
         7           O   tau(   7) = (   0.0000000   0.4735409   1.1116985  )
         8           Ca  tau(   8) = (   0.5000000   0.4735409   1.4976260  )
         9           O   tau(   9) = (   0.0000000   0.4735409   1.8667529  )
        10           O   tau(  10) = (   0.5000000   0.0000000   1.9044124  )
        11           Cu  tau(  11) = (   0.0000000   0.0000000   1.9512546  )
        12           Ba  tau(  12) = (   0.5000000   0.4735409   2.4295764  )
        13           O   tau(  13) = (   0.0000000   0.0000000   2.5115362  )
        14           O   tau(  14) = (   0.0000000   0.4735409   2.9918528  )
        15           Cu  tau(  15) = (   0.0000000   0.0000000   2.9919088  )
        16           O   tau(  16) = (   0.0000000   0.0000000   3.4722686  )
        17           Ba  tau(  17) = (   0.5000000   0.4735409   3.5542208  )
        18           Cu  tau(  18) = (   0.0000000   0.0000000   4.0070809  )
        19           O   tau(  19) = (   0.5000000   0.0000000   4.1048108  )
        20           O   tau(  20) = (   0.0000000   0.4735409   4.0915774  )
        21           Ca  tau(  21) = (   0.5000000   0.4735409   4.5116023  )
        22           O   tau(  22) = (   0.0000000   0.4735409   5.0374685  )
        23           O   tau(  23) = (   0.5000000   0.0000000   5.1232448  )
        24           Cu  tau(  24) = (   0.0000000   0.0000000   5.1626320  )
        25           Ba  tau(  25) = (   0.5000000   0.4735409   5.6055817  )
        26           O   tau(  26) = (   0.0000000   0.0000000   5.6715093  )
        27           Cu  tau(  27) = (   0.0000000   0.0000000   6.1481493  )
        28           O   tau(  28) = (   0.0000000   0.4735409   6.2215676  )

     number of k points=    25  Gaussian smearing, width (Ry)=  0.0100
                       cart. coord. in units 2pi/alat
        k(    1) = (   0.0000000   0.0000000   0.0000000), wk =   0.0312500
        k(    2) = (   0.0000000   0.1319845   0.0000000), wk =   0.0625000
        k(    3) = (   0.0000000   0.2639689   0.0000000), wk =   0.0625000
        k(    4) = (   0.0000000   0.3959534   0.0000000), wk =   0.0625000
        k(    5) = (   0.0000000  -0.5279378   0.0000000), wk =   0.0312500
        k(    6) = (   0.1250000   0.0000000   0.0000000), wk =   0.0625000
        k(    7) = (   0.1250000   0.1319845   0.0000000), wk =   0.1250000
        k(    8) = (   0.1250000   0.2639689   0.0000000), wk =   0.1250000
        k(    9) = (   0.1250000   0.3959534   0.0000000), wk =   0.1250000
        k(   10) = (   0.1250000  -0.5279378   0.0000000), wk =   0.0625000
        k(   11) = (   0.2500000   0.0000000   0.0000000), wk =   0.0625000
        k(   12) = (   0.2500000   0.1319845   0.0000000), wk =   0.1250000
        k(   13) = (   0.2500000   0.2639689   0.0000000), wk =   0.1250000
        k(   14) = (   0.2500000   0.3959534   0.0000000), wk =   0.1250000
        k(   15) = (   0.2500000  -0.5279378   0.0000000), wk =   0.0625000
        k(   16) = (   0.3750000   0.0000000   0.0000000), wk =   0.0625000
        k(   17) = (   0.3750000   0.1319845   0.0000000), wk =   0.1250000
        k(   18) = (   0.3750000   0.2639689   0.0000000), wk =   0.1250000
        k(   19) = (   0.3750000   0.3959534   0.0000000), wk =   0.1250000
        k(   20) = (   0.3750000  -0.5279378   0.0000000), wk =   0.0625000
        k(   21) = (  -0.5000000   0.0000000   0.0000000), wk =   0.0312500
        k(   22) = (  -0.5000000   0.1319845   0.0000000), wk =   0.0625000
        k(   23) = (  -0.5000000   0.2639689   0.0000000), wk =   0.0625000
        k(   24) = (  -0.5000000   0.3959534   0.0000000), wk =   0.0625000
        k(   25) = (  -0.5000000  -0.5279378   0.0000000), wk =   0.0312500

     Dense  grid:  1427725 G-vectors     FFT dimensions: (  64,  64, 720)

     Smooth grid:   274999 G-vectors     FFT dimensions: (  40,  36, 432)

     Estimated max dynamical RAM per process >     455.52 MB

     Estimated total dynamical RAM >       8.90 GB

     Initial potential from superposition of free atoms

     starting charge  226.84630, renormalised to  227.00000

     negative rho (up, down):  3.478E-03 0.000E+00
     Starting wfcs are  195 randomized atomic wfcs

     total cpu time spent up to now is        9.9 secs

     Self-consistent Calculation

     iteration #  1     ecut=    60.00 Ry     beta= 0.70
     Davidson diagonalization with overlap
     ethr =  1.00E-02,  avg # of iterations =  2.0

     negative rho (up, down):  2.841E-04 0.000E+00

     total cpu time spent up to now is       24.3 secs

     total energy              =   -1839.52603638 Ry
     Harris-Foulkes estimate   =   -1845.27497043 Ry
     estimated scf accuracy    <      17.81952752 Ry

     iteration #  2     ecut=    60.00 Ry     beta= 0.70
     Davidson diagonalization with overlap
     ethr =  7.85E-03,  avg # of iterations =  2.0

     negative rho (up, down):  2.600E-04 0.000E+00

     total cpu time spent up to now is       40.3 secs

     total energy              =   -1842.12936323 Ry
     Harris-Foulkes estimate   =   -1843.88397959 Ry
     estimated scf accuracy    <      12.20374478 Ry

     iteration #  3     ecut=    60.00 Ry     beta= 0.70
     Davidson diagonalization with overlap
     ethr =  5.38E-03,  avg # of iterations =  1.5

     negative rho (up, down):  2.457E-04 0.000E+00

     total cpu time spent up to now is       54.0 secs

     total energy              =   -1842.64101407 Ry
     Harris-Foulkes estimate   =   -1843.02666706 Ry
     estimated scf accuracy    <       3.01844993 Ry

     iteration #  4     ecut=    60.00 Ry     beta= 0.70
     Davidson diagonalization with overlap
     ethr =  1.33E-03,  avg # of iterations =  1.6

     negative rho (up, down):  2.394E-04 0.000E+00

     total cpu time spent up to now is       67.5 secs

     total energy              =   -1842.80807116 Ry
     Harris-Foulkes estimate   =   -1843.00288368 Ry
     estimated scf accuracy    <       8.70767786 Ry

     iteration #  5     ecut=    60.00 Ry     beta= 0.70
     Davidson diagonalization with overlap
     ethr =  1.33E-03,  avg # of iterations =  1.0

     negative rho (up, down):  2.363E-04 0.000E+00

     total cpu time spent up to now is       80.3 secs

     total energy              =   -1842.85002515 Ry
     Harris-Foulkes estimate   =   -1842.87799160 Ry
     estimated scf accuracy    <       1.66450530 Ry

     iteration #  6     ecut=    60.00 Ry     beta= 0.70
     Davidson diagonalization with overlap
     ethr =  7.33E-04,  avg # of iterations =  1.0

     negative rho (up, down):  2.329E-04 0.000E+00

     total cpu time spent up to now is       93.1 secs

     total energy              =   -1842.84089527 Ry
     Harris-Foulkes estimate   =   -1842.86042622 Ry
     estimated scf accuracy    <       1.04697215 Ry

     iteration #  7     ecut=    60.00 Ry     beta= 0.70
     Davidson diagonalization with overlap
     ethr =  4.61E-04,  avg # of iterations =  2.9

     negative rho (up, down):  2.316E-04 0.000E+00

     total cpu time spent up to now is      107.9 secs

     total energy              =   -1842.83870030 Ry
     Harris-Foulkes estimate   =   -1842.85348183 Ry
     estimated scf accuracy    <       1.14681586 Ry

     iteration #  8     ecut=    60.00 Ry     beta= 0.70
     Davidson diagonalization with overlap
     ethr =  4.61E-04,  avg # of iterations =  3.3

     negative rho (up, down):  2.303E-04 0.000E+00

     total cpu time spent up to now is      123.0 secs

     total energy              =   -1842.83293620 Ry
     Harris-Foulkes estimate   =   -1842.84525897 Ry
     estimated scf accuracy    <       0.52762356 Ry

     iteration #  9     ecut=    60.00 Ry     beta= 0.70
     Davidson diagonalization with overlap
     ethr =  2.32E-04,  avg # of iterations =  5.0

     negative rho (up, down):  2.302E-04 0.000E+00

     total cpu time spent up to now is      139.9 secs

     total energy              =   -1842.83284782 Ry
     Harris-Foulkes estimate   =   -1842.83812609 Ry
     estimated scf accuracy    <       0.20002308 Ry

     iteration # 10     ecut=    60.00 Ry     beta= 0.70
     Davidson diagonalization with overlap
     ethr =  8.81E-05,  avg # of iterations =  5.9

     negative rho (up, down):  2.302E-04 0.000E+00

     total cpu time spent up to now is      157.9 secs

     total energy              =   -1842.83180583 Ry
     Harris-Foulkes estimate   =   -1842.83499960 Ry
     estimated scf accuracy    <       0.07435622 Ry

     iteration # 11     ecut=    60.00 Ry     beta= 0.70
     Davidson diagonalization with overlap
     c_bands:  2 eigenvalues not converged
     c_bands:  1 eigenvalues not converged
     ethr =  3.28E-05,  avg # of iterations =  6.6

     negative rho (up, down):  2.298E-04 0.000E+00

     total cpu time spent up to now is      176.7 secs

     total energy              =   -1842.83158187 Ry
     Harris-Foulkes estimate   =   -1842.83319010 Ry
     estimated scf accuracy    <       0.09943623 Ry

     iteration # 12     ecut=    60.00 Ry     beta= 0.70
     Davidson diagonalization with overlap
     ethr =  3.28E-05,  avg # of iterations =  1.6

     negative rho (up, down):  2.300E-04 0.000E+00

     total cpu time spent up to now is      190.4 secs

     total energy              =   -1842.83047260 Ry
     Harris-Foulkes estimate   =   -1842.83217403 Ry
     estimated scf accuracy    <       0.12492597 Ry

     iteration # 13     ecut=    60.00 Ry     beta= 0.70
     Davidson diagonalization with overlap
     ethr =  3.28E-05,  avg # of iterations =  1.5

     negative rho (up, down):  2.326E-04 0.000E+00

     total cpu time spent up to now is      204.2 secs

     total energy              =   -1842.82937460 Ry
     Harris-Foulkes estimate   =   -1842.83081793 Ry
     estimated scf accuracy    <       0.09367735 Ry

     iteration # 14     ecut=    60.00 Ry     beta= 0.70
     Davidson diagonalization with overlap
     ethr =  3.28E-05,  avg # of iterations =  1.6

     negative rho (up, down):  4.248E-03 0.000E+00

     total cpu time spent up to now is      217.8 secs

     total energy              =   -1842.82780164 Ry
     Harris-Foulkes estimate   =   -1842.82974758 Ry
     estimated scf accuracy    <       0.05553798 Ry

     iteration # 15     ecut=    60.00 Ry     beta= 0.70
     Davidson diagonalization with overlap
     ethr =  2.45E-05,  avg # of iterations =  5.0

     negative rho (up, down):  2.715E-04 0.000E+00

     total cpu time spent up to now is      234.7 secs

     total energy              =   -1842.82727034 Ry
     Harris-Foulkes estimate   =   -1842.82830568 Ry
     estimated scf accuracy    <       0.05823741 Ry

     iteration # 16     ecut=    60.00 Ry     beta= 0.70
     Davidson diagonalization with overlap
     ethr =  2.45E-05,  avg # of iterations =  1.5

     negative rho (up, down):  1.612E-02 0.000E+00

     total cpu time spent up to now is      248.2 secs

     total energy              =   -1842.82559290 Ry
     Harris-Foulkes estimate   =   -1842.82803287 Ry
     estimated scf accuracy    <       0.03386262 Ry

     iteration # 17     ecut=    60.00 Ry     beta= 0.70
     Davidson diagonalization with overlap
     ethr =  1.49E-05,  avg # of iterations =  7.4

     negative rho (up, down):  1.719E-02 0.000E+00

     total cpu time spent up to now is      268.4 secs

     total energy              =   -1842.82551239 Ry
     Harris-Foulkes estimate   =   -1842.82620731 Ry
     estimated scf accuracy    <       0.01080068 Ry

     iteration # 18     ecut=    60.00 Ry     beta= 0.70
     Davidson diagonalization with overlap
     ethr =  4.76E-06,  avg # of iterations =  9.3

     negative rho (up, down):  1.756E-02 0.000E+00

     total cpu time spent up to now is      290.2 secs

     total energy              =   -1842.82535922 Ry
     Harris-Foulkes estimate   =   -1842.82568191 Ry
     estimated scf accuracy    <       0.00643475 Ry

     iteration # 19     ecut=    60.00 Ry     beta= 0.70
     Davidson diagonalization with overlap
     ethr =  2.83E-06,  avg # of iterations =  6.9

     negative rho (up, down):  2.300E-03 0.000E+00

     total cpu time spent up to now is      309.8 secs

     total energy              =   -1842.82505850 Ry
     Harris-Foulkes estimate   =   -1842.82547620 Ry
     estimated scf accuracy    <       0.00133931 Ry

     iteration # 20     ecut=    60.00 Ry     beta= 0.70
     Davidson diagonalization with overlap
     c_bands:  1 eigenvalues not converged
     c_bands:  1 eigenvalues not converged
     c_bands:  1 eigenvalues not converged
     ethr =  5.90E-07,  avg # of iterations = 10.0

     negative rho (up, down):  3.909E-03 0.000E+00

     total cpu time spent up to now is      333.2 secs

     total energy              =   -1842.82508153 Ry
     Harris-Foulkes estimate   =   -1842.82516188 Ry
     estimated scf accuracy    <       0.00158787 Ry

     iteration # 21     ecut=    60.00 Ry     beta= 0.70
     Davidson diagonalization with overlap
     ethr =  5.90E-07,  avg # of iterations =  6.1

     negative rho (up, down):  1.411E-03 0.000E+00

     total cpu time spent up to now is      351.6 secs

     total energy              =   -1842.82512654 Ry
     Harris-Foulkes estimate   =   -1842.82514353 Ry
     estimated scf accuracy    <       0.00045361 Ry

     iteration # 22     ecut=    60.00 Ry     beta= 0.70
     Davidson diagonalization with overlap
     c_bands:  1 eigenvalues not converged
     c_bands:  1 eigenvalues not converged
     ethr =  2.00E-07,  avg # of iterations =  6.7

     negative rho (up, down):  7.015E-04 0.000E+00

     total cpu time spent up to now is      370.3 secs

     total energy              =   -1842.82517679 Ry
     Harris-Foulkes estimate   =   -1842.82513658 Ry
     estimated scf accuracy    <       0.00023132 Ry

     iteration # 23     ecut=    60.00 Ry     beta= 0.70
     Davidson diagonalization with overlap
     c_bands:  1 eigenvalues not converged
     ethr =  1.02E-07,  avg # of iterations =  6.4

     negative rho (up, down):  1.094E-03 0.000E+00

     total cpu time spent up to now is      388.6 secs

     total energy              =   -1842.82518620 Ry
     Harris-Foulkes estimate   =   -1842.82517998 Ry
     estimated scf accuracy    <       0.00010197 Ry

     iteration # 24     ecut=    60.00 Ry     beta= 0.70
     Davidson diagonalization with overlap
     c_bands:  1 eigenvalues not converged
     ethr =  4.49E-08,  avg # of iterations =  4.0

     negative rho (up, down):  1.533E-03 0.000E+00

     total cpu time spent up to now is      404.4 secs

     total energy              =   -1842.82518882 Ry
     Harris-Foulkes estimate   =   -1842.82519024 Ry
     estimated scf accuracy    <       0.00002253 Ry

     iteration # 25     ecut=    60.00 Ry     beta= 0.70
     Davidson diagonalization with overlap
     ethr =  9.93E-09,  avg # of iterations =  1.7

     negative rho (up, down):  1.400E-03 0.000E+00

     total cpu time spent up to now is      418.3 secs

     total energy              =   -1842.82518926 Ry
     Harris-Foulkes estimate   =   -1842.82518991 Ry
     estimated scf accuracy    <       0.00003816 Ry

     iteration # 26     ecut=    60.00 Ry     beta= 0.70
     Davidson diagonalization with overlap
     ethr =  9.93E-09,  avg # of iterations =  1.0

     negative rho (up, down):  1.416E-03 0.000E+00

     total cpu time spent up to now is      431.6 secs

     total energy              =   -1842.82518939 Ry
     Harris-Foulkes estimate   =   -1842.82518973 Ry
     estimated scf accuracy    <       0.00000594 Ry

     iteration # 27     ecut=    60.00 Ry     beta= 0.70
     Davidson diagonalization with overlap
     ethr =  2.62E-09,  avg # of iterations =  1.2

     negative rho (up, down):  1.456E-03 0.000E+00

     total cpu time spent up to now is      444.7 secs

     total energy              =   -1842.82518945 Ry
     Harris-Foulkes estimate   =   -1842.82518963 Ry
     estimated scf accuracy    <       0.00000162 Ry

     iteration # 28     ecut=    60.00 Ry     beta= 0.70
     Davidson diagonalization with overlap
     ethr =  7.14E-10,  avg # of iterations =  1.8

     negative rho (up, down):  1.495E-03 0.000E+00

     total cpu time spent up to now is      458.5 secs

     total energy              =   -1842.82518945 Ry
     Harris-Foulkes estimate   =   -1842.82518956 Ry
     estimated scf accuracy    <       0.00000070 Ry

     iteration # 29     ecut=    60.00 Ry     beta= 0.70
     Davidson diagonalization with overlap
     ethr =  3.09E-10,  avg # of iterations =  1.8

     negative rho (up, down):  1.484E-03 0.000E+00

     total cpu time spent up to now is      472.5 secs

     total energy              =   -1842.82518950 Ry
     Harris-Foulkes estimate   =   -1842.82518949 Ry
     estimated scf accuracy    <       0.00000016 Ry

     iteration # 30     ecut=    60.00 Ry     beta= 0.70
     Davidson diagonalization with overlap
     ethr =  6.86E-11,  avg # of iterations =  2.9

     negative rho (up, down):  1.495E-03 0.000E+00

     total cpu time spent up to now is      487.6 secs

     total energy              =   -1842.82518949 Ry
     Harris-Foulkes estimate   =   -1842.82518951 Ry
     estimated scf accuracy    <       0.00000009 Ry

     iteration # 31     ecut=    60.00 Ry     beta= 0.70
     Davidson diagonalization with overlap
     ethr =  4.17E-11,  avg # of iterations =  1.1

     negative rho (up, down):  1.496E-03 0.000E+00

     total cpu time spent up to now is      500.8 secs

     total energy              =   -1842.82518949 Ry
     Harris-Foulkes estimate   =   -1842.82518949 Ry
     estimated scf accuracy    <       0.00000003 Ry

     iteration # 32     ecut=    60.00 Ry     beta= 0.70
     Davidson diagonalization with overlap
     ethr =  1.35E-11,  avg # of iterations =  1.9

     negative rho (up, down):  1.494E-03 0.000E+00

     total cpu time spent up to now is      515.0 secs

     total energy              =   -1842.82518949 Ry
     Harris-Foulkes estimate   =   -1842.82518949 Ry
     estimated scf accuracy    <       0.00000002 Ry

     iteration # 33     ecut=    60.00 Ry     beta= 0.70
     Davidson diagonalization with overlap
     ethr =  8.19E-12,  avg # of iterations =  1.0

     negative rho (up, down):  1.494E-03 0.000E+00

     total cpu time spent up to now is      528.4 secs

     total energy              =   -1842.82518950 Ry
     Harris-Foulkes estimate   =   -1842.82518950 Ry
     estimated scf accuracy    <          8.8E-09 Ry

     iteration # 34     ecut=    60.00 Ry     beta= 0.70
     Davidson diagonalization with overlap
     ethr =  3.88E-12,  avg # of iterations =  1.3

     negative rho (up, down):  1.492E-03 0.000E+00

     total cpu time spent up to now is      541.9 secs

     total energy              =   -1842.82518950 Ry
     Harris-Foulkes estimate   =   -1842.82518950 Ry
     estimated scf accuracy    <          2.3E-09 Ry

     iteration # 35     ecut=    60.00 Ry     beta= 0.70
     Davidson diagonalization with overlap
     ethr =  1.01E-12,  avg # of iterations =  3.0

     negative rho (up, down):  1.492E-03 0.000E+00

     total cpu time spent up to now is      557.9 secs

     total energy              =   -1842.82518950 Ry
     Harris-Foulkes estimate   =   -1842.82518950 Ry
     estimated scf accuracy    <          3.4E-10 Ry

     iteration # 36     ecut=    60.00 Ry     beta= 0.70
     Davidson diagonalization with overlap
     ethr =  1.50E-13,  avg # of iterations =  3.0

     negative rho (up, down):  1.492E-03 0.000E+00

     total cpu time spent up to now is      575.0 secs

     total energy              =   -1842.82518950 Ry
     Harris-Foulkes estimate   =   -1842.82518950 Ry
     estimated scf accuracy    <          1.4E-10 Ry

     iteration # 37     ecut=    60.00 Ry     beta= 0.70
     Davidson diagonalization with overlap
     ethr =  1.00E-13,  avg # of iterations =  1.0

     negative rho (up, down):  1.492E-03 0.000E+00

     total cpu time spent up to now is      587.8 secs

     End of self-consistent calculation

          k = 0.0000 0.0000 0.0000 ( 34429 PWs)   bands (ev):

   -37.2801 -35.5299 -22.7337 -22.7207 -22.7122 -22.4690 -18.2917 -18.2843
   -18.2819 -17.0343 -16.5812 -16.5697 -15.2450 -15.2071 -14.9352 -14.8117
   -14.7147 -14.6141 -14.5157 -14.1869 -14.1239 -13.9871 -13.9250 -13.8398
   -13.7663 -13.6846 -13.6032  -7.9009  -7.8650  -7.8490  -7.8275  -7.7674
    -7.7625  -7.6511  -7.6394  -7.6346  -7.6162  -7.5134  -7.3478  -2.5270
    -2.3353  -2.2722  -1.9194  -1.8558  -1.7726  -1.7691  -1.7116  -1.6111
    -1.4822  -1.4457  -1.4272  -1.2857  -1.1627  -1.1465  -1.1373  -0.9977
    -0.8231  -0.8089  -0.5759  -0.4989  -0.4426  -0.4010  -0.3190  -0.2530
    -0.2428  -0.2233  -0.2071  -0.2056  -0.1935  -0.1901  -0.1572  -0.1286
    -0.1089  -0.0534   0.0204   0.0460   0.1206   0.1562   0.1566   0.1715
     0.2056   0.2306   0.2888   0.2902   0.3175   0.3651   0.3808   0.4520
     0.4566   0.8569   0.9234   0.9394   0.9546   1.0302   1.0777   1.2405
     1.2672   1.3152   1.4073   1.4418   1.4610   1.5699   1.5832   1.5881
     1.5908   1.6049   1.6530   1.8525   1.9148   1.9968   2.0922   2.1248
     2.2286   2.2784   2.3154   2.3466   2.4004   2.5934   2.6412   4.9960
     5.2738   5.3990   5.9293   6.3502   6.7615   6.8215   6.9756   7.3039
     7.7702   7.9324   8.0496   8.2442   8.3265   8.4501   8.4854   8.5981
     8.6675

          k = 0.0000 0.1320 0.0000 ( 34389 PWs)   bands (ev):

   -37.2787 -35.5281 -22.7070 -22.6955 -22.6842 -22.4435 -18.3292 -18.2826
   -18.2626 -16.9981 -16.6422 -16.5788 -15.1566 -15.1479 -14.9156 -14.7609
   -14.7048 -14.6193 -14.4883 -14.1762 -14.1334 -14.0169 -13.9302 -13.8899
   -13.8117 -13.7208 -13.6557  -7.8946  -7.8646  -7.7993  -7.7812  -7.7797
    -7.7225  -7.6770  -7.6712  -7.6619  -7.6424  -7.4683  -7.3955  -2.5604
    -2.3966  -2.3296  -2.2024  -2.1121  -2.0207  -2.0057  -1.8217  -1.6163
    -1.5908  -1.5870  -1.5707  -1.4645  -1.3597  -1.2635  -1.2616  -1.1054
    -0.9950  -0.7141  -0.6306  -0.6052  -0.5714  -0.5376  -0.4984  -0.4485
    -0.4035  -0.3556  -0.3006  -0.2834  -0.2762  -0.1512  -0.1054  -0.0903
    -0.0795  -0.0119   0.0418   0.0567   0.0639   0.1510   0.1635   0.1802
     0.1895   0.2003   0.2362   0.2835   0.3345   0.3396   0.3733   0.4261
     0.7525   0.9372   0.9770   1.0990   1.1298   1.1366   1.1679   1.1736
     1.2155   1.2492   1.3809   1.3882   1.4708   1.5362   1.5455   1.6106
     1.6382   1.6711   1.7512   1.8232   1.9014   1.9918   2.0163   2.0519
     2.1478   2.1524   2.2903   2.5666   2.8575   2.8981   2.9367   5.3189
     5.6505   5.7119   6.1812   6.6226   7.0100   7.1253   7.2754   7.5806
     7.8843   8.0685   8.2215   8.3008   8.4143   8.5286   8.6754   8.8029
     8.8338

          k = 0.0000 0.2640 0.0000 ( 34275 PWs)   bands (ev):

   -37.2751 -35.5237 -22.6411 -22.6334 -22.6149 -22.3808 -18.3991 -18.2784
   -18.2352 -16.9061 -16.7965 -16.5732 -14.9981 -14.9564 -14.9398 -14.6683
   -14.6303 -14.6119 -14.4261 -14.1364 -14.1254 -14.1206 -13.9884 -13.9698
   -13.9258 -13.8191 -13.7531  -7.8853  -7.8641  -7.8188  -7.7690  -7.7672
    -7.7158  -7.6740  -7.6592  -7.6408  -7.6100  -7.4986  -7.3549  -2.8240
    -2.7716  -2.6923  -2.6495  -2.5443  -2.3710  -2.3577  -2.2765  -2.2531
    -2.2235  -1.7193  -1.6558  -1.5370  -1.4190  -1.4084  -1.3160  -1.1944
    -1.0899  -1.0617  -0.9056  -0.8765  -0.8440  -0.7853  -0.7496  -0.6585
    -0.5948  -0.4910  -0.4813  -0.4604  -0.4467  -0.4397  -0.4118  -0.3953
    -0.2572  -0.0743  -0.0575   0.0552   0.0702   0.0738   0.1514   0.2073
     0.2650   0.3386   0.3507   0.4306   0.5513   0.6740   0.7351   0.7559
     0.8363   1.0024   1.0260   1.1419   1.1843   1.2000   1.2081   1.2220
     1.2747   1.3057   1.3237   1.4149   1.4250   1.4621   1.6147   1.7066
     1.7753   1.7996   1.9071   1.9713   1.9863   2.0192   2.0313   2.0477
     2.0749   2.1607   2.2754   2.6852   3.0718   3.0984   3.7662   5.9548
     6.5444   6.5671   6.7845   7.3653   7.5483   7.9457   7.9684   8.0034
     8.2260   8.3605   8.5799   8.7078   8.7654   8.8438   8.9247   8.9568
     9.0355

          k = 0.0000 0.3960 0.0000 ( 34242 PWs)   bands (ev):

   -37.2715 -35.5193 -22.5730 -22.5693 -22.5430 -22.3160 -18.4655 -18.2741
   -18.2095 -16.9328 -16.8044 -16.5675 -15.0616 -14.8770 -14.7767 -14.6265
   -14.5079 -14.4146 -14.3867 -14.2785 -14.0930 -14.0792 -14.0499 -14.0458
   -14.0338 -13.9694 -13.8270  -7.9048  -7.8641  -7.8454  -7.8395  -7.8265
    -7.7772  -7.6344  -7.5889  -7.5398  -7.5307  -7.4907  -7.2347  -3.4183
    -3.2316  -3.1543  -3.0147  -3.0044  -2.9379  -2.7504  -2.4696  -2.3316
    -2.3144  -1.9966  -1.7526  -1.7064  -1.5521  -1.4716  -1.3178  -1.2658
    -1.1658  -1.1105  -1.1080  -1.0950  -1.0822  -1.0190  -0.9852  -0.9535
    -0.8094  -0.7656  -0.6937  -0.6874  -0.6862  -0.6538  -0.5806  -0.5607
    -0.2790  -0.1848  -0.0588  -0.0295   0.0865   0.0870   0.1826   0.2040
     0.2170   0.3174   0.4406   0.5497   0.7787   0.8388   0.9139   0.9837
     1.0029   1.0162   1.0457   1.0695   1.1436   1.1458   1.1930   1.2287
     1.2507   1.3430   1.4522   1.6605   1.6627   1.6881   1.7256   1.7779
     1.8077   1.8473   1.9923   2.0048   2.0374   2.0436   2.1266   2.1879
     2.3074   2.4253   2.4337   2.5880   2.9202   2.9925   4.3158   6.6554
     7.4027   7.4922   7.5119   7.7201   7.7559   8.3153   8.3814   8.6179
     8.7381   8.8983   8.9786   9.0220   9.1468   9.1554   9.2111   9.3251
     9.4799

          k = 0.0000-0.5279 0.0000 ( 34286 PWs)   bands (ev):

   -37.2701 -35.5175 -22.5440 -22.5421 -22.5124 -22.2885 -18.4924 -18.2724
   -18.1988 -16.9849 -16.7595 -16.5652 -15.1164 -14.9192 -14.6146 -14.5499
   -14.5124 -14.4284 -14.2126 -14.2115 -14.1995 -14.1530 -14.1333 -14.0712
   -14.0150 -14.0099 -13.8669  -7.9290  -7.8750  -7.8638  -7.8313  -7.8282
    -7.8192  -7.6299  -7.6252  -7.4812  -7.4748  -7.4391  -7.1826  -3.6782
    -3.4102  -3.3130  -3.2189  -3.1816  -3.1593  -2.8595  -2.5100  -2.3471
    -2.3305  -2.1261  -1.8829  -1.8504  -1.4405  -1.3818  -1.3693  -1.2900
    -1.2493  -1.2490  -1.1825  -1.1435  -1.1247  -1.0933  -1.0525  -1.0474
    -0.9303  -0.8772  -0.8009  -0.7797  -0.7627  -0.7303  -0.6636  -0.5916
    -0.2986  -0.2448  -0.0532   0.0094   0.0912   0.0927   0.1763   0.2182
     0.2274   0.3086   0.3946   0.4794   0.7661   0.8618   0.8752   0.9148
     1.0305   1.0653   1.0820   1.1558   1.1694   1.1760   1.2372   1.2591
     1.3696   1.4230   1.5858   1.6776   1.6964   1.7154   1.7936   1.8171
     1.8185   2.0486   2.0564   2.0701   2.0759   2.0998   2.1211   2.2503
     2.2924   2.5352   2.5869   2.5950   2.7215   2.8150   4.4858   7.1728
     7.4564   7.6633   7.6967   7.9042   8.0144   8.3116   8.8369   8.8825
     9.0028   9.0347   9.0546   9.0629   9.2721   9.3633   9.3907   9.4705
     9.4879

          k = 0.1250 0.0000 0.0000 ( 34399 PWs)   bands (ev):

   -37.2794 -35.5288 -22.7157 -22.7031 -22.6938 -22.4517 -18.3125 -18.2810
   -18.2739 -17.0009 -16.6615 -16.5683 -15.1625 -15.1424 -14.9191 -14.8375
   -14.7384 -14.6597 -14.5209 -14.1876 -14.1329 -14.0217 -13.9374 -13.8861
   -13.7856 -13.7191 -13.6360  -7.9364  -7.8907  -7.8541  -7.7657  -7.7258
    -7.7194  -7.6662  -7.6061  -7.6021  -7.5855  -7.4526  -7.3173  -2.5576
    -2.3655  -2.3147  -2.0144  -1.8844  -1.8153  -1.7629  -1.7504  -1.7494
    -1.6827  -1.6074  -1.4094  -1.3973  -1.1709  -1.1607  -1.1446  -1.0206
    -0.9087  -0.8406  -0.6342  -0.5995  -0.5596  -0.4567  -0.3782  -0.3374
    -0.3262  -0.3183  -0.2899  -0.2817  -0.2597  -0.2110  -0.1649  -0.1409
    -0.1170  -0.0675  -0.0352   0.0099   0.1493   0.1649   0.1660   0.2059
     0.2237   0.2520   0.2783   0.3338   0.4039   0.4355   0.4780   0.5179
     0.5487   0.8484   0.8831   0.9427   0.9757   1.0314   1.0994   1.1255
     1.2450   1.2710   1.2889   1.4058   1.4247   1.4970   1.5412   1.5680
     1.5822   1.5954   1.8388   1.9557   2.0407   2.0637   2.0664   2.1685
     2.2148   2.2466   2.3575   2.3610   2.4066   2.6282   2.6788   5.2322
     5.4543   5.5507   6.0959   6.5426   6.9510   7.0353   7.1591   7.5141
     7.9329   7.9985   8.1914   8.3663   8.3717   8.4820   8.6517   8.8310
     8.8850

          k = 0.1250 0.1320 0.0000 ( 34364 PWs)   bands (ev):

   -37.2779 -35.5270 -22.6898 -22.6786 -22.6667 -22.4270 -18.3288 -18.3031
   -18.2520 -16.9658 -16.6645 -16.6315 -15.1059 -15.0612 -14.9115 -14.7835
   -14.7067 -14.6541 -14.4909 -14.1726 -14.1339 -14.0432 -13.9427 -13.9255
   -13.8267 -13.7525 -13.6797  -7.9223  -7.9156  -7.9100  -7.8282  -7.8239
    -7.7406  -7.6745  -7.5654  -7.5643  -7.5505  -7.5319  -7.2764  -2.5863
    -2.4207  -2.3654  -2.1885  -2.1005  -2.0035  -1.9931  -1.9670  -1.7944
    -1.7319  -1.6271  -1.5879  -1.5811  -1.5535  -1.3637  -1.2570  -1.1354
    -1.0255  -0.9164  -0.7473  -0.6580  -0.6264  -0.6023  -0.5095  -0.4990
    -0.4903  -0.4507  -0.4433  -0.4078  -0.2105  -0.1535  -0.1419  -0.1079
    -0.0785  -0.0519   0.0067   0.0357   0.0664   0.1426   0.1723   0.2121
     0.2139   0.2603   0.2683   0.2853   0.2907   0.3465   0.5751   0.6211
     0.7563   1.0230   1.0347   1.0916   1.1276   1.1452   1.1911   1.2034
     1.2157   1.2810   1.3351   1.3438   1.3884   1.4054   1.5274   1.5830
     1.6502   1.6539   1.7189   1.7421   1.8280   1.8850   2.0237   2.3413
     2.3986   2.4829   2.6096   2.6350   2.8696   2.9035   2.9482   5.4940
     5.7929   5.8388   6.2983   6.7806   7.1884   7.3309   7.4465   7.7797
     7.9879   8.1199   8.2381   8.3616   8.5409   8.6262   8.7714   8.9345
     8.9798

          k = 0.1250 0.2640 0.0000 ( 34297 PWs)   bands (ev):

   -37.2744 -35.5226 -22.6260 -22.6184 -22.5995 -22.3661 -18.3973 -18.2998
   -18.2251 -16.8766 -16.7935 -16.6441 -14.9690 -14.9287 -14.8869 -14.6546
   -14.6421 -14.5857 -14.4208 -14.1416 -14.1202 -14.1161 -14.0021 -13.9897
   -13.9191 -13.8421 -13.7629  -7.9869  -7.9791  -7.9662  -7.8873  -7.8650
    -7.7810  -7.6869  -7.6502  -7.5550  -7.5494  -7.5242  -7.2707  -2.8344
    -2.7935  -2.7107  -2.6458  -2.5529  -2.3716  -2.3437  -2.2876  -2.2493
    -2.2229  -1.9007  -1.7451  -1.7144  -1.6051  -1.5237  -1.4297  -1.3801
    -1.0845  -1.0685  -0.9452  -0.9313  -0.9128  -0.8293  -0.8226  -0.8073
    -0.7344  -0.6415  -0.6363  -0.5244  -0.5012  -0.4454  -0.3764  -0.2718
    -0.2468  -0.1484  -0.0955  -0.0046   0.0119   0.0160   0.1631   0.2568
     0.2899   0.4344   0.4738   0.5545   0.7558   0.7958   0.8157   0.8430
     0.8700   0.9413   1.0769   1.1187   1.1592   1.2337   1.3227   1.3614
     1.3799   1.4179   1.4417   1.4576   1.4808   1.5025   1.5417   1.6063
     1.6606   1.7029   1.7645   1.8191   1.9948   2.0056   2.0617   2.3443
     2.5961   2.6711   2.7382   2.8638   3.0707   3.1096   3.7655   6.0367
     6.6054   6.6263   6.7699   7.4439   7.6685   7.8520   8.1022   8.1103
     8.3414   8.4998   8.6627   8.7278   8.8453   8.8997   8.9727   9.0255
     9.1231

          k = 0.1250 0.3960 0.0000 ( 34292 PWs)   bands (ev):

   -37.2708 -35.5182 -22.5600 -22.5563 -22.5300 -22.3033 -18.4635 -18.2947
   -18.2003 -16.9277 -16.7779 -16.6355 -15.0292 -14.8421 -14.7485 -14.5528
   -14.4903 -14.3908 -14.3661 -14.2787 -14.0887 -14.0785 -14.0613 -14.0492
   -14.0235 -13.9756 -13.8213  -8.0394  -8.0095  -7.9818  -7.8765  -7.8620
    -7.8219  -7.7396  -7.6617  -7.6027  -7.6000  -7.5493  -7.3097  -3.4096
    -3.2725  -3.1945  -3.0330  -3.0167  -2.9295  -2.7706  -2.4654  -2.3431
    -2.3226  -1.9441  -1.7425  -1.7348  -1.6633  -1.5990  -1.5405  -1.3754
    -1.3198  -1.2759  -1.2272  -1.1471  -1.1149  -1.0732  -1.0576  -1.0328
    -0.8668  -0.8378  -0.8154  -0.7802  -0.7594  -0.6964  -0.6361  -0.3701
    -0.3180  -0.1866  -0.1520  -0.0197   0.0147   0.1614   0.1691   0.2618
     0.2896   0.4889   0.6385   0.7288   0.8062   0.8993   0.9589   1.0210
     1.0325   1.0834   1.1158   1.1582   1.2158   1.2439   1.2850   1.3059
     1.3496   1.4559   1.5163   1.6474   1.7078   1.7287   1.7767   1.8164
     1.8476   1.9333   1.9646   2.0379   2.1153   2.3924   2.4019   2.4328
     2.5368   2.5453   2.7189   2.7933   2.9184   3.0516   4.2978   6.6097
     7.1466   7.3567   7.3946   7.5991   7.8865   8.1852   8.4297   8.6553
     8.7198   8.8752   8.9744   8.9783   9.0026   9.3167   9.4151   9.4826
     9.6114

          k = 0.1250-0.5279 0.0000 ( 34244 PWs)   bands (ev):

   -37.2694 -35.5164 -22.5320 -22.5300 -22.5005 -22.2767 -18.4904 -18.2925
   -18.1901 -16.9793 -16.7345 -16.6318 -15.0714 -14.8745 -14.5723 -14.5411
   -14.4399 -14.3905 -14.2113 -14.1986 -14.1952 -14.1387 -14.1125 -14.1041
   -14.0158 -14.0081 -13.8515  -8.0541  -8.0042  -7.9498  -7.8813  -7.8534
    -7.8405  -7.7537  -7.6709  -7.6519  -7.6342  -7.5610  -7.3346  -3.6707
    -3.4588  -3.3655  -3.2130  -3.2111  -3.1579  -2.8992  -2.5064  -2.3611
    -2.3436  -2.0191  -1.7650  -1.7105  -1.5982  -1.5546  -1.5359  -1.4638
    -1.4138  -1.3425  -1.3351  -1.3206  -1.1967  -1.1406  -1.1247  -1.0810
    -0.9724  -0.8962  -0.8883  -0.8849  -0.8579  -0.7925  -0.7471  -0.3814
    -0.3154  -0.2121  -0.1563  -0.0320   0.0304   0.1729   0.2413   0.2708
     0.2994   0.4926   0.6198   0.7008   0.8483   0.8784   0.9505   0.9899
     1.0131   1.0456   1.0840   1.1773   1.2082   1.3132   1.3982   1.4030
     1.4268   1.5196   1.5833   1.5909   1.8348   1.8524   1.9304   2.0644
     2.0877   2.0918   2.0972   2.0983   2.2833   2.3682   2.4031   2.5204
     2.5578   2.5673   2.6034   2.6488   2.7290   2.9294   4.4589   6.8834
     7.2352   7.5753   7.5781   7.5962   7.9467   8.3699   8.4416   8.8666
     8.8892   8.9891   9.1161   9.3440   9.3599   9.4629   9.5593   9.5938
     9.8102

          k = 0.2500 0.0000 0.0000 ( 34384 PWs)   bands (ev):

   -37.2777 -35.5262 -22.6713 -22.6599 -22.6486 -22.4095 -18.3573 -18.2789
   -18.2533 -16.9156 -16.8257 -16.5650 -15.0582 -14.9795 -14.9444 -14.8992
   -14.7416 -14.6825 -14.5451 -14.1855 -14.1473 -14.1238 -14.0034 -13.9666
   -13.8269 -13.8169 -13.6973  -7.9823  -7.8922  -7.8277  -7.6990  -7.6791
    -7.6557  -7.6124  -7.5233  -7.5214  -7.5096  -7.3687  -7.2418  -2.6562
    -2.5104  -2.4749  -2.2966  -2.1580  -2.1513  -2.1024  -1.7847  -1.6940
    -1.6901  -1.5929  -1.4381  -1.4147  -1.2871  -1.1573  -1.1420  -1.1368
    -1.0870  -0.9251  -0.9023  -0.8110  -0.7120  -0.6977  -0.6093  -0.5990
    -0.5828  -0.4937  -0.4906  -0.4732  -0.3053  -0.2476  -0.2183  -0.1933
    -0.1721  -0.1339  -0.1335   0.0182   0.1366   0.1518   0.2055   0.2422
     0.2781   0.3300   0.3559   0.3813   0.5091   0.5134   0.6047   0.6934
     0.7007   0.7175   0.8127   0.9715   0.9814   1.0637   1.1109   1.1334
     1.1846   1.3378   1.3588   1.3653   1.4112   1.4771   1.5050   1.5222
     1.6369   1.6464   1.7706   1.9168   1.9514   2.0826   2.1007   2.1137
     2.2625   2.3460   2.4253   2.4963   2.5534   2.7362   2.7979   5.8120
     5.9117   5.9561   6.4615   7.0975   7.3892   7.6115   7.6769   8.0315
     8.1427   8.1823   8.3483   8.5449   8.7027   8.7678   8.8929   9.0293
     9.0869

          k = 0.2500 0.1320 0.0000 ( 34351 PWs)   bands (ev):

   -37.2762 -35.5244 -22.6475 -22.6373 -22.6236 -22.3866 -18.3555 -18.3172
   -18.2332 -16.8835 -16.8193 -16.6312 -15.0082 -14.9651 -14.8939 -14.8369
   -14.6927 -14.6333 -14.5098 -14.1635 -14.1330 -14.1264 -14.0080 -13.9772
   -13.8597 -13.8415 -13.7226  -7.9903  -7.9719  -7.9608  -7.8298  -7.8158
    -7.7163  -7.7150  -7.5530  -7.4909  -7.4878  -7.4582  -7.2080  -2.6821
    -2.5628  -2.5203  -2.3301  -2.1564  -2.1416  -2.1052  -2.0820  -2.0363
    -1.9409  -1.9027  -1.6522  -1.5715  -1.5574  -1.4148  -1.3405  -1.3055
    -1.1375  -1.0285  -0.9590  -0.8945  -0.8793  -0.8284  -0.7957  -0.7032
    -0.6019  -0.5657  -0.4971  -0.4325  -0.3959  -0.2827  -0.2542  -0.1805
    -0.1578  -0.1374   0.0249   0.0459   0.0934   0.1554   0.1992   0.2359
     0.2773   0.3014   0.3384   0.3873   0.3932   0.6426   0.6951   0.8273
     0.9431   0.9652   1.0037   1.0293   1.1233   1.1331   1.2038   1.2421
     1.2678   1.3035   1.3632   1.3724   1.4369   1.4909   1.5348   1.5413
     1.5912   1.6626   1.7167   1.7772   1.7978   1.9341   2.0282   2.4184
     2.7153   2.7313   2.8850   2.9139   2.9300   3.0115   3.0252   5.9600
     6.1730   6.1904   6.5397   7.2513   7.5337   7.8690   7.8979   8.0076
     8.2045   8.3277   8.4736   8.6525   8.7567   8.8535   8.9944   9.1289
     9.1785

          k = 0.2500 0.2640 0.0000 ( 34331 PWs)   bands (ev):

   -37.2727 -35.5200 -22.5888 -22.5817 -22.5619 -22.3302 -18.3930 -18.3453
   -18.2059 -16.8192 -16.7951 -16.7677 -14.9505 -14.8646 -14.8045 -14.6697
   -14.5532 -14.5011 -14.4213 -14.1730 -14.1079 -14.1065 -14.0345 -14.0197
   -13.9069 -13.9062 -13.7806  -8.1942  -8.1810  -8.1581  -7.9565  -7.8776
    -7.8537  -7.7913  -7.6721  -7.6076  -7.5996  -7.5678  -7.3301  -2.9430
    -2.9093  -2.8132  -2.6870  -2.5850  -2.3851  -2.3271  -2.3139  -2.2555
    -2.2416  -2.1751  -2.1158  -2.0879  -2.0444  -1.6096  -1.3951  -1.3885
    -1.3654  -1.3201  -1.2293  -1.1430  -1.0773  -1.0374  -0.9385  -0.8008
    -0.7455  -0.6806  -0.6758  -0.5660  -0.5478  -0.5354  -0.3641  -0.3440
    -0.3354  -0.3063  -0.2714  -0.0153   0.0455   0.1604   0.2098   0.4045
     0.4245   0.6341   0.6579   0.7732   0.8219   0.8429   0.9010   1.0165
     1.0218   1.1358   1.1712   1.1951   1.3112   1.3297   1.4207   1.4396
     1.4633   1.5137   1.5291   1.5476   1.5903   1.6439   1.6747   1.6968
     1.7270   1.7335   1.7702   1.8352   1.9153   1.9341   2.1725   2.4070
     3.0437   3.0505   3.2875   3.3280   3.3722   3.4780   3.7629   6.2269
     6.6359   6.7156   6.7463   7.5943   7.6430   7.9427   8.3873   8.4015
     8.6207   8.6819   8.7352   8.7969   9.0541   9.1243   9.1417   9.2835
     9.3554

          k = 0.2500 0.3960 0.0000 ( 34334 PWs)   bands (ev):

   -37.2691 -35.5157 -22.5284 -22.5245 -22.4983 -22.2723 -18.4588 -18.3399
   -18.1819 -16.9156 -16.7837 -16.7092 -14.9488 -14.7608 -14.6816 -14.4607
   -14.3848 -14.3283 -14.3229 -14.2770 -14.1579 -14.0559 -14.0475 -14.0390
   -13.9919 -13.9845 -13.8132  -8.3150  -8.3010  -8.2817  -8.0376  -7.9279
    -7.9033  -7.8999  -7.8241  -7.8214  -7.7956  -7.6512  -7.5420  -3.4507
    -3.4139  -3.2981  -3.1461  -3.0771  -2.9088  -2.8368  -2.4521  -2.3947
    -2.3762  -2.1427  -2.0791  -2.0256  -1.9959  -1.8213  -1.7316  -1.6352
    -1.5154  -1.4710  -1.3910  -1.2964  -1.2404  -1.1093  -1.0498  -1.0090
    -0.8857  -0.8130  -0.7622  -0.7480  -0.7417  -0.6809  -0.6267  -0.4880
    -0.4452  -0.3701  -0.3543   0.1144   0.1688   0.2399   0.2972   0.4642
     0.5085   0.8045   0.8584   0.9738   1.0248   1.0354   1.0639   1.1033
     1.2005   1.3042   1.3442   1.3570   1.3808   1.4892   1.5331   1.5437
     1.5740   1.6008   1.6457   1.7479   1.7927   1.8168   1.8328   1.8790
     1.9444   1.9727   2.0853   2.0982   2.1268   2.3140   2.3299   2.4503
     2.8729   2.8763   3.4480   3.5389   3.5577   3.7146   4.2492   6.3711
     6.5584   6.9234   6.9850   7.6929   7.8053   8.0652   8.6883   8.7924
     8.8520   8.8553   8.9490   9.0134   9.1257   9.5155   9.7304   9.7606
     9.8630

          k = 0.2500-0.5279 0.0000 ( 34344 PWs)   bands (ev):

   -37.2677 -35.5139 -22.5028 -22.5004 -22.4714 -22.2479 -18.4855 -18.3374
   -18.1722 -16.9658 -16.7782 -16.6697 -14.9548 -14.7575 -14.5257 -14.4615
   -14.3067 -14.3007 -14.2096 -14.1920 -14.1695 -14.1599 -14.1105 -14.0535
   -14.0103 -14.0025 -13.8206  -8.3464  -8.3012  -8.2476  -8.0417  -8.0353
    -8.0160  -7.9667  -7.8954  -7.8873  -7.8534  -7.6728  -7.6404  -3.6828
    -3.6233  -3.5140  -3.3400  -3.2310  -3.1364  -3.0207  -2.4900  -2.4024
    -2.3909  -2.0771  -2.0338  -1.9828  -1.9660  -1.9536  -1.8875  -1.7651
    -1.6008  -1.5601  -1.4239  -1.3197  -1.2653  -1.1909  -1.0861  -1.0843
    -0.9521  -0.8861  -0.8115  -0.8114  -0.7583  -0.7497  -0.6975  -0.5016
    -0.4576  -0.3967  -0.3880   0.1444   0.1926   0.2924   0.3365   0.4939
     0.6010   0.8451   0.9657   1.0021   1.0213   1.0910   1.1379   1.1440
     1.2304   1.2606   1.3583   1.4159   1.4306   1.4982   1.5353   1.5749
     1.5969   1.6577   1.7538   1.7895   1.9674   1.9786   1.9916   2.0496
     2.0935   2.0972   2.1330   2.2567   2.2596   2.4897   2.4984   2.5058
     2.6491   2.6552   3.4213   3.5714   3.5779   3.7495   4.3838   6.3402
     6.5218   6.8880   6.9512   7.7743   7.9183   8.0664   8.7573   8.7691
     8.8581   8.9617   9.2653   9.3885   9.5756   9.6975   9.8793   9.8815
     9.9258

          k = 0.3750 0.0000 0.0000 ( 34362 PWs)   bands (ev):

   -37.2759 -35.5236 -22.6259 -22.6158 -22.6023 -22.3663 -18.4007 -18.2767
   -18.2329 -16.9656 -16.8203 -16.5617 -15.1045 -15.0493 -14.9868 -14.8615
   -14.5973 -14.5487 -14.5146 -14.2457 -14.1773 -14.1605 -14.1185 -14.0454
   -13.9605 -13.8615 -13.7396  -8.0071  -7.8747  -7.7675  -7.6717  -7.6285
    -7.6142  -7.5517  -7.4370  -7.4365  -7.4304  -7.3215  -7.1630  -2.8380
    -2.8362  -2.6740  -2.6216  -2.3993  -2.2744  -2.2619  -1.6504  -1.6143
    -1.6085  -1.5962  -1.5260  -1.4479  -1.3908  -1.2805  -1.1704  -1.1590
    -1.1455  -1.0958  -1.0197  -0.9616  -0.9237  -0.8713  -0.8316  -0.8258
    -0.7965  -0.7082  -0.6734  -0.6389  -0.4886  -0.3850  -0.3524  -0.2071
    -0.1738  -0.1655  -0.1462  -0.0467   0.1237   0.1390   0.2216   0.2378
     0.3008   0.3295   0.3857   0.4603   0.4863   0.5235   0.5273   0.5905
     0.7944   0.8005   0.8387   0.9622   1.0089   1.0724   1.2113   1.2411
     1.2588   1.2898   1.4076   1.4603   1.5001   1.5563   1.5644   1.6843
     1.6906   1.7697   1.7896   1.8475   1.8648   1.9760   2.0977   2.1334
     2.1860   2.3462   2.4804   2.5347   2.6577   2.8604   2.8918   6.5092
     6.5615   6.5696   6.8122   7.5711   7.8269   8.0178   8.0565   8.0592
     8.4658   8.5337   8.5989   8.7667   8.8335   8.9957   9.0577   9.3906
     9.5044

          k = 0.3750 0.1320 0.0000 ( 34383 PWs)   bands (ev):

   -37.2745 -35.5218 -22.6042 -22.5951 -22.5795 -22.3452 -18.3977 -18.3141
   -18.2148 -16.9571 -16.7912 -16.6262 -15.0648 -14.9842 -14.9392 -14.8080
   -14.5569 -14.4881 -14.4741 -14.2359 -14.1517 -14.1313 -14.0982 -14.0347
   -13.9721 -13.8965 -13.7478  -8.0162  -7.9323  -7.9164  -7.7775  -7.7677
    -7.7117  -7.6965  -7.5268  -7.5239  -7.5186  -7.4855  -7.2562  -2.8980
    -2.8845  -2.7286  -2.6743  -2.3952  -2.2732  -2.2584  -2.0141  -1.9903
    -1.8805  -1.8171  -1.6611  -1.5600  -1.5466  -1.4759  -1.4552  -1.4127
    -1.2570  -1.2404  -1.1588  -1.1307  -1.0583  -1.0157  -0.9196  -0.8478
    -0.7420  -0.6366  -0.5968  -0.4900  -0.4656  -0.3701  -0.3577  -0.3292
    -0.2119  -0.1899  -0.0026   0.0280   0.1219   0.1684   0.2336   0.2387
     0.2867   0.3274   0.4954   0.5191   0.5243   0.6014   0.7218   0.8139
     0.8466   0.9242   1.0057   1.0697   1.1721   1.2003   1.2313   1.3016
     1.3339   1.3705   1.4165   1.4235   1.4519   1.5926   1.6036   1.6251
     1.6977   1.7649   1.8124   1.8514   1.8599   1.9237   2.0021   2.3786
     2.7751   2.8030   2.8847   2.9693   3.0269   3.1958   3.2073   6.5180
     6.7097   6.7219   6.7340   7.4118   7.8734   8.1196   8.1220   8.1346
     8.5548   8.6346   8.6679   8.9025   8.9878   9.0302   9.2058   9.3412
     9.5242

          k = 0.3750 0.2640 0.0000 ( 34389 PWs)   bands (ev):

   -37.2710 -35.5174 -22.5509 -22.5443 -22.5236 -22.2937 -18.3935 -18.3835
   -18.1880 -16.9367 -16.7705 -16.7160 -14.9663 -14.8192 -14.8129 -14.6583
   -14.4613 -14.3705 -14.3393 -14.2346 -14.0924 -14.0916 -14.0596 -14.0287
   -14.0026 -13.9336 -13.7822  -8.2466  -8.2337  -8.2142  -8.0047  -7.9123
    -7.9029  -7.8915  -7.7943  -7.7899  -7.7174  -7.6474  -7.5281  -3.2142
    -3.1017  -3.0393  -2.9363  -2.5720  -2.4452  -2.4179  -2.3451  -2.3249
    -2.3009  -2.2460  -2.2352  -2.2121  -2.1940  -1.7235  -1.7053  -1.5929
    -1.5056  -1.4230  -1.2189  -1.1973  -1.0408  -0.9699  -0.9232  -0.8667
    -0.8294  -0.7946  -0.6789  -0.6008  -0.5918  -0.5872  -0.5511  -0.4316
    -0.3992  -0.3182  -0.2815  -0.0183   0.0960   0.2678   0.3858   0.5125
     0.5299   0.7463   0.7555   0.8723   0.8821   0.9599   1.0565   1.0643
     1.1198   1.2187   1.2541   1.2865   1.3157   1.4612   1.4685   1.4810
     1.5472   1.6282   1.6600   1.6708   1.6970   1.7355   1.7709   1.7892
     1.8020   1.8190   1.8794   1.8889   1.8946   2.1088   2.1416   2.3338
     3.0344   3.0452   3.5977   3.7383   3.7874   3.8039   3.9120   6.2861
     6.4896   6.7560   6.8048   7.4819   7.6986   8.2331   8.4618   8.5313
     8.6868   8.8676   8.8881   8.9892   9.3675   9.4680   9.5135   9.6122
     9.6424

          k = 0.3750 0.3960 0.0000 ( 34365 PWs)   bands (ev):

   -37.2674 -35.5131 -22.4963 -22.4923 -22.4662 -22.2409 -18.4539 -18.3828
   -18.1649 -16.9193 -16.8973 -16.6363 -14.8650 -14.6830 -14.6205 -14.4394
   -14.3691 -14.2707 -14.2495 -14.1793 -14.1729 -14.0695 -14.0240 -14.0232
   -14.0114 -13.9294 -13.8219  -8.5189  -8.4995  -8.4767  -8.2321  -8.1930
    -8.1646  -8.0977  -7.9725  -7.9148  -7.8383  -7.8236  -7.6753  -3.6945
    -3.6041  -3.3919  -3.3048  -3.2806  -2.8881  -2.8671  -2.5750  -2.4421
    -2.4368  -2.3818  -2.2953  -2.2274  -2.2214  -2.0365  -2.0092  -1.7878
    -1.6572  -1.5953  -1.2188  -1.1646  -1.1528  -1.1426  -1.0087  -0.9786
    -0.9232  -0.9032  -0.8106  -0.7777  -0.7399  -0.6895  -0.6474  -0.6428
    -0.5921  -0.3406  -0.3393   0.2183   0.2905   0.3525   0.5636   0.6759
     0.7228   0.9986   1.0651   1.1397   1.1859   1.2117   1.2308   1.2685
     1.2942   1.4102   1.4834   1.5094   1.5404   1.5676   1.6360   1.6986
     1.7801   1.8028   1.8145   1.8530   1.9062   1.9276   1.9843   2.0179
     2.0500   2.0637   2.1349   2.2207   2.2265   2.2360   2.4063   2.4487
     2.8393   2.8667   4.0822   4.1389   4.2026   4.3078   4.3897   5.8790
     6.2792   6.4528   6.5064   7.4317   7.8810   8.3282   8.6793   8.7325
     9.0082   9.0354   9.1918   9.2661   9.4348   9.5100   9.5479   9.5899
     9.6159

          k = 0.3750-0.5279 0.0000 ( 34392 PWs)   bands (ev):

   -37.2660 -35.5113 -22.4732 -22.4704 -22.4419 -22.2186 -18.4807 -18.3800
   -18.1557 -16.9524 -16.9068 -16.6009 -14.8226 -14.6217 -14.5191 -14.3415
   -14.3300 -14.2273 -14.2074 -14.1839 -14.1366 -14.0947 -14.0907 -14.0022
   -13.9947 -13.9619 -13.8126  -8.6280  -8.5815  -8.5253  -8.3577  -8.3177
    -8.3097  -8.2448  -7.9960  -7.9411  -7.9242  -7.8818  -7.6891  -3.9020
    -3.8180  -3.6150  -3.5215  -3.4276  -3.1134  -3.0868  -2.5936  -2.4675
    -2.4599  -2.3769  -2.2938  -2.2184  -2.2108  -2.1447  -2.1181  -1.8685
    -1.7330  -1.6121  -1.2916  -1.2425  -1.2131  -1.1801  -1.0538  -1.0535
    -0.9364  -0.9021  -0.8979  -0.8376  -0.8268  -0.7876  -0.6806  -0.6601
    -0.5564  -0.3469  -0.3250   0.2544   0.3688   0.3834   0.6247   0.7786
     0.8933   1.0791   1.1097   1.2000   1.2407   1.2955   1.3218   1.3572
     1.3889   1.4291   1.5320   1.6072   1.6168   1.6170   1.6615   1.7929
     1.8034   1.8566   1.9073   1.9508   2.0739   2.0991   2.1036   2.1697
     2.1958   2.2209   2.2459   2.3437   2.4119   2.4263   2.5254   2.5581
     2.5857   2.6243   4.2030   4.2272   4.3196   4.4570   4.5365   5.6870
     6.2081   6.2752   6.3410   7.3397   8.1065   8.3097   8.6932   8.6974
     8.9511   9.1609   9.2861   9.2920   9.3825   9.4218   9.4408   9.8401
     9.8535

          k =-0.5000 0.0000 0.0000 ( 34370 PWs)   bands (ev):

   -37.2752 -35.5225 -22.6068 -22.5971 -22.5827 -22.3480 -18.4183 -18.2758
   -18.2244 -17.0181 -16.7781 -16.5603 -15.1601 -15.0853 -15.0415 -14.8040
   -14.6137 -14.3893 -14.3435 -14.3099 -14.2642 -14.1703 -14.1466 -14.1050
   -14.0645 -13.8719 -13.7534  -8.0138  -7.8644  -7.7256  -7.6559  -7.6349
    -7.5911  -7.5298  -7.4009  -7.3994  -7.3966  -7.3090  -7.1294  -2.9781
    -2.9465  -2.8024  -2.7160  -2.4678  -2.2993  -2.2710  -1.6872  -1.5967
    -1.5958  -1.5611  -1.5403  -1.4243  -1.3444  -1.3221  -1.2077  -1.1682
    -1.1629  -1.1511  -1.1191  -1.0585  -1.0110  -0.9502  -0.9389  -0.8765
    -0.8477  -0.7952  -0.7569  -0.6726  -0.5845  -0.4492  -0.4054  -0.2226
    -0.1607  -0.1593  -0.1501  -0.1268   0.1184   0.1337   0.1944   0.2270
     0.2896   0.3119   0.4203   0.4600   0.4781   0.4851   0.5223   0.5962
     0.7624   0.8226   0.8909   0.9578   0.9598   1.1899   1.1983   1.2143
     1.2587   1.4248   1.4533   1.4995   1.5267   1.5443   1.6478   1.6812
     1.7107   1.8069   1.8655   1.8826   1.9261   2.0129   2.0311   2.0674
     2.1983   2.3244   2.4781   2.5309   2.6702   2.8958   2.9015   6.9579
     6.9956   7.3097   7.3339   7.3464   7.3863   7.4566   7.9543   8.3279
     8.5837   8.6018   8.9491   8.9601   9.0706   9.1028   9.1187   9.5119
     9.6093

          k =-0.5000 0.1320 0.0000 ( 34378 PWs)   bands (ev):

   -37.2737 -35.5207 -22.5860 -22.5773 -22.5610 -22.3278 -18.4152 -18.3126
   -18.2071 -17.0088 -16.7506 -16.6240 -15.1091 -15.0134 -14.9841 -14.7548
   -14.5737 -14.3551 -14.3028 -14.2990 -14.2063 -14.1456 -14.1230 -14.0795
   -14.0678 -13.9093 -13.7549  -8.0200  -7.9035  -7.8151  -7.7667  -7.7205
    -7.6794  -7.6545  -7.6222  -7.6038  -7.5548  -7.4285  -7.3427  -3.0464
    -3.0048  -2.8572  -2.7864  -2.4633  -2.3044  -2.2754  -1.9725  -1.9553
    -1.8476  -1.7637  -1.6547  -1.5546  -1.5395  -1.4999  -1.4949  -1.4576
    -1.3709  -1.3502  -1.2487  -1.1835  -1.1340  -1.0242  -0.9571  -0.9142
    -0.8127  -0.6443  -0.6279  -0.5265  -0.4879  -0.4161  -0.3958  -0.3662
    -0.2355  -0.2177  -0.0163   0.0300   0.1257   0.1592   0.2346   0.2477
     0.3349   0.3784   0.3814   0.5713   0.6062   0.6398   0.6762   0.7244
     0.8223   0.9365   0.9967   1.1028   1.1455   1.2266   1.2579   1.3364
     1.3413   1.3673   1.3783   1.4737   1.5296   1.6157   1.6593   1.6887
     1.7551   1.8005   1.8327   1.8516   1.9332   1.9768   2.0690   2.3465
     2.7624   2.8078   2.8788   2.9764   3.0437   3.2374   3.2506   6.7486
     6.9771   7.1190   7.1816   7.2051   7.6889   7.7175   8.2312   8.2469
     8.5343   8.6355   8.9875   8.9979   9.2631   9.3542   9.3563   9.5962
     9.6909

          k =-0.5000 0.2640 0.0000 ( 34396 PWs)   bands (ev):

   -37.2702 -35.5164 -22.5350 -22.5286 -22.5075 -22.2783 -18.4077 -18.3851
   -18.1806 -16.9868 -16.7672 -16.6796 -14.9773 -14.8380 -14.8148 -14.6245
   -14.4780 -14.2773 -14.2750 -14.1993 -14.1092 -14.0848 -14.0776 -14.0698
   -14.0224 -13.9761 -13.7770  -8.1743  -8.1724  -8.1602  -8.0724  -8.0216
    -7.9849  -7.9496  -7.8772  -7.8533  -7.7344  -7.7022  -7.6314  -3.3521
    -3.2098  -3.1545  -3.0793  -2.5619  -2.4709  -2.4705  -2.3575  -2.3384
    -2.3167  -2.2642  -2.2341  -2.2091  -2.2018  -1.8526  -1.8081  -1.6160
    -1.6096  -1.5304  -1.1200  -1.0993  -0.9851  -0.9564  -0.9310  -0.9117
    -0.8370  -0.8322  -0.7101  -0.6859  -0.6173  -0.6090  -0.5705  -0.4353
    -0.3955  -0.3380  -0.3002  -0.0197   0.1154   0.3023   0.4779   0.5564
     0.5631   0.7880   0.7927   0.9091   0.9167   1.0753   1.0838   1.0996
     1.1473   1.2319   1.2468   1.2680   1.2993   1.4571   1.4759   1.5376
     1.6326   1.6442   1.6454   1.7174   1.7552   1.7626   1.8176   1.8373
     1.8661   1.8864   1.8874   1.9661   1.9726   2.0169   2.2434   2.2756
     3.0242   3.0386   3.6739   3.7437   3.9210   3.9377   4.0435   6.2084
     6.4969   6.7517   6.7768   7.5077   7.6306   8.2829   8.4996   8.6274
     8.7624   8.9258   9.0721   9.1330   9.5319   9.6053   9.6465   9.7848
     9.7866

          k =-0.5000 0.3960 0.0000 ( 34384 PWs)   bands (ev):

   -37.2667 -35.5121 -22.4828 -22.4788 -22.4527 -22.2277 -18.4519 -18.4003
   -18.1580 -16.9652 -16.8963 -16.6040 -14.8293 -14.6539 -14.5997 -14.4374
   -14.3880 -14.2632 -14.2042 -14.1637 -14.0894 -14.0876 -14.0203 -14.0199
   -14.0096 -13.9162 -13.8320  -8.5811  -8.5477  -8.5059  -8.3641  -8.3097
    -8.2790  -8.2394  -7.9996  -7.9548  -7.9310  -7.8473  -7.6841  -3.8242
    -3.7044  -3.5055  -3.4406  -3.2837  -2.8796  -2.8676  -2.6448  -2.4917
    -2.4356  -2.4320  -2.3581  -2.2570  -2.2389  -2.1471  -2.0840  -1.8231
    -1.7317  -1.6578  -1.1786  -1.1392  -1.1293  -1.0534  -0.9983  -0.9898
    -0.9505  -0.9418  -0.8305  -0.7981  -0.7330  -0.7279  -0.7131  -0.7030
    -0.5705  -0.3091  -0.3011   0.2483   0.3098   0.4049   0.7166   0.7599
     0.8786   0.9839   1.1468   1.2049   1.2535   1.3098   1.3111   1.3383
     1.4268   1.4304   1.4488   1.5579   1.5733   1.6182   1.6443   1.7716
     1.7746   1.8650   1.8948   1.9030   1.9116   2.0295   2.0298   2.0693
     2.1083   2.1277   2.2007   2.2052   2.2391   2.3168   2.4010   2.5339
     2.8226   2.8555   4.1323   4.3287   4.3926   4.5665   4.6341   5.6633
     6.2194   6.2567   6.2800   7.2817   7.9509   8.3163   8.7114   8.8913
     8.9722   9.0060   9.2077   9.2910   9.3869   9.4837   9.5145   9.6819
     9.8048

          k =-0.5000-0.5279 0.0000 ( 34420 PWs)   bands (ev):

   -37.2653 -35.5103 -22.4608 -22.4579 -22.4296 -22.2064 -18.4788 -18.3972
   -18.1489 -16.9564 -16.9470 -16.5705 -14.7613 -14.5561 -14.5191 -14.3820
   -14.2602 -14.2089 -14.2064 -14.1803 -14.1385 -14.0947 -14.0394 -13.9966
   -13.9908 -13.8758 -13.8509  -8.7423  -8.6937  -8.6354  -8.4816  -8.4292
    -8.4258  -8.3586  -8.0530  -8.0077  -7.9584  -7.8931  -7.6999  -4.0330
    -3.9220  -3.7094  -3.5685  -3.5433  -3.1039  -3.0877  -2.6772  -2.5207
    -2.4568  -2.4388  -2.3706  -2.2491  -2.2423  -2.2290  -2.1723  -1.8911
    -1.7909  -1.6712  -1.2920  -1.2180  -1.1939  -1.1143  -1.0553  -1.0348
    -0.9654  -0.9251  -0.9057  -0.8897  -0.8284  -0.8051  -0.7606  -0.7372
    -0.5220  -0.2934  -0.2723   0.2890   0.3989   0.4272   0.8219   0.9753
     1.0267   1.0935   1.0968   1.2991   1.3515   1.3986   1.4197   1.4198
     1.4215   1.4735   1.4920   1.5479   1.6902   1.7171   1.7220   1.8951
     1.8960   1.9675   2.0028   2.0203   2.1082   2.1127   2.1797   2.1990
     2.2513   2.2600   2.3858   2.3962   2.3976   2.4861   2.5529   2.5694
     2.6017   2.6763   4.2208   4.5206   4.5422   4.7694   4.8363   5.4284
     6.0297   6.0491   6.1487   7.1763   8.1112   8.3070   8.7048   8.8866
     9.0083   9.0513   9.0999   9.1434   9.1895   9.2497   9.4216   9.6273
     9.8252

     the Fermi energy is     2.6248 ev

!    total energy              =   -1842.82518950 Ry
     Harris-Foulkes estimate   =   -1842.82518950 Ry
     estimated scf accuracy    <          8.7E-11 Ry

     The total energy is the sum of the following terms:

     one-electron contribution =  -30152.32924780 Ry
     hartree contribution      =   15229.02396937 Ry
     xc contribution           =    -621.63459882 Ry
     ewald contribution        =   13702.12303412 Ry
     smearing contrib. (-TS)   =      -0.00834638 Ry

     convergence has been achieved in  37 iterations

     negative rho (up, down):  1.492E-03 0.000E+00

     Forces acting on atoms (cartesian axes, Ry/au):

     atom    1 type  4   force =     0.00000000    0.00000000   -0.00015959
     atom    2 type  3   force =     0.00000000    0.00000000    0.00038589
     atom    3 type  4   force =     0.00000000    0.00000000   -0.00077424
     atom    4 type  1   force =     0.00000000    0.00000000   -0.00029097
     atom    5 type  3   force =     0.00000000    0.00000000    0.00053589
     atom    6 type  4   force =     0.00000000    0.00000000   -0.00000048
     atom    7 type  4   force =     0.00000000    0.00000000    0.00037507
     atom    8 type  2   force =     0.00000000    0.00000000   -0.00065554
     atom    9 type  4   force =     0.00000000    0.00000000    0.00025957
     atom   10 type  4   force =     0.00000000    0.00000000    0.00024085
     atom   11 type  3   force =     0.00000000    0.00000000    0.00035470
     atom   12 type  1   force =     0.00000000    0.00000000    0.00028937
     atom   13 type  4   force =     0.00000000    0.00000000    0.00187137
     atom   14 type  4   force =     0.00000000    0.00000000    0.00243560
     atom   15 type  3   force =     0.00000000    0.00000000   -0.00681796
     atom   16 type  4   force =     0.00000000    0.00000000    0.00034462
     atom   17 type  1   force =     0.00000000    0.00000000   -0.00570784
     atom   18 type  3   force =     0.00000000    0.00000000    0.02425222
     atom   19 type  4   force =     0.00000000    0.00000000    0.02367028
     atom   20 type  4   force =     0.00000000    0.00000000    0.03560641
     atom   21 type  2   force =     0.00000000    0.00000000    0.00002147
     atom   22 type  4   force =     0.00000000    0.00000000   -0.01397968
     atom   23 type  4   force =     0.00000000    0.00000000   -0.01710722
     atom   24 type  3   force =     0.00000000    0.00000000   -0.04606125
     atom   25 type  1   force =     0.00000000    0.00000000   -0.00695149
     atom   26 type  4   force =     0.00000000    0.00000000    0.00461264
     atom   27 type  3   force =     0.00000000    0.00000000    0.00428716
     atom   28 type  4   force =     0.00000000    0.00000000   -0.00103682

     Total force =     0.071383     Total SCF correction =     0.000013


     Computing stress (Cartesian axis) and pressure


     negative rho (up, down):  1.492E-03 0.000E+00
          total   stress  (Ry/bohr**3)                   (kbar)     P=       -6.89
  -0.00001325   0.00000000   0.00000000           -1.95        0.00        0.00
   0.00000000  -0.00000031   0.00000000            0.00       -0.05        0.00
   0.00000000   0.00000000  -0.00012693            0.00        0.00      -18.67


     number of scf cycles    =   4
     number of bfgs steps    =   2

     energy   old            =   -1842.8876366290 Ry
     energy   new            =   -1842.8251894981 Ry

     CASE: energy  _new > energy  _old


 %%%%%%%%%%%%%%%%%%%%%%%%%%%%%%%%%%%%%%%%%%%%%%%%%%%%%%%%%%%%%%%%%%%%%%%%%%%%%%
     Error in routine bfgs (1):
     dE0s is positive which should never happen
 %%%%%%%%%%%%%%%%%%%%%%%%%%%%%%%%%%%%%%%%%%%%%%%%%%%%%%%%%%%%%%%%%%%%%%%%%%%%%%

     stopping ...
