
     Program PWSCF v.6.5 starts on 28Jun2021 at 23:32:22 

     This program is part of the open-source Quantum ESPRESSO suite
     for quantum simulation of materials; please cite
         "P. Giannozzi et al., J. Phys.:Condens. Matter 21 395502 (2009);
         "P. Giannozzi et al., J. Phys.:Condens. Matter 29 465901 (2017);
          URL http://www.quantum-espresso.org", 
     in publications or presentations arising from this work. More details at
     http://www.quantum-espresso.org/quote

     Parallel version (MPI), running on    20 processors

     MPI processes distributed on     4 nodes
     R & G space division:  proc/nbgrp/npool/nimage =      20
     Reading input from CBCO_Y_cleave_0.75_sep.pwi
Warning: card &CELL ignored
Warning: card     CELL_DYNAMICS = 'BFGS' ignored
Warning: card     PRESS_CONV_THR = 0.5 ignored
Warning: card / ignored

     Current dimensions of program PWSCF are:
     Max number of different atomic species (ntypx) = 10
     Max number of k-points (npk) =  40000
     Max angular momentum in pseudopotentials (lmaxx) =  3

     Subspace diagonalization in iterative solution of the eigenvalue problem:
     one sub-group per band group will be used
     scalapack distributed-memory algorithm (size of sub-group:  4*  4 procs)

     Message from routine setup:
     using ibrav=0 with symmetry is DISCOURAGED, use correct ibrav instead
 
     Parallelization info
     --------------------
     sticks:   dense  smooth     PW     G-vecs:    dense   smooth      PW
     Min         149      50     14                71365    13742    2148
     Max         150      51     15                71404    13765    2191
     Sum        2991    1007    289              1427725   274999   43215
 


     bravais-lattice index     =            0
     lattice parameter (alat)  =       7.4270  a.u.
     unit-cell volume          =    4376.3515 (a.u.)^3
     number of atoms/cell      =           28
     number of atomic types    =            4
     number of electrons       =       227.00
     number of Kohn-Sham states=          137
     kinetic-energy cutoff     =      60.0000  Ry
     charge density cutoff     =     720.0000  Ry
     convergence threshold     =      1.0E-10
     mixing beta               =       0.7000
     number of iterations used =           10  local-TF  mixing
     Exchange-correlation= SLA PW PBE PBE
                           (   1   4   3   4   0   0   0)
     nstep                     =          300


     celldm(1)=   7.427040  celldm(2)=   0.000000  celldm(3)=   0.000000
     celldm(4)=   0.000000  celldm(5)=   0.000000  celldm(6)=   0.000000

     crystal axes: (cart. coord. in units of alat)
               a(1) = (   1.000000   0.000000   0.000000 )  
               a(2) = (   0.000000   0.947081   0.000000 )  
               a(3) = (   0.000000   0.000000  11.279186 )  

     reciprocal axes: (cart. coord. in units 2 pi/alat)
               b(1) = (  1.000000  0.000000  0.000000 )  
               b(2) = (  0.000000  1.055876  0.000000 )  
               b(3) = (  0.000000  0.000000  0.088659 )  


     PseudoPot. # 1 for Ba read from file:
     ./pseudo/Ba.pbe-nsp-van.UPF
     MD5 check sum: 2b9c31dd849566dd297d80989662b7a0
     Pseudo is Ultrasoft + core correction, Zval = 10.0
     Generated by new atomic code, or converted to UPF format
     Using radial grid of  907 points,  6 beta functions with: 
                l(1) =   0
                l(2) =   0
                l(3) =   1
                l(4) =   1
                l(5) =   2
                l(6) =   2
     Q(r) pseudized with  6 coefficients,  rinner =    1.200   1.200   1.200
                                                       1.200   1.200

     PseudoPot. # 2 for Ca read from file:
     ./pseudo/Ca.pbe-nsp-van.UPF
     MD5 check sum: 6471098428ff4fa451746d08035ff179
     Pseudo is Ultrasoft + core correction, Zval = 10.0
     Generated by new atomic code, or converted to UPF format
     Using radial grid of  845 points,  6 beta functions with: 
                l(1) =   0
                l(2) =   0
                l(3) =   1
                l(4) =   1
                l(5) =   2
                l(6) =   2
     Q(r) pseudized with  6 coefficients,  rinner =    1.200   1.200   1.200
                                                       1.200   1.200

     PseudoPot. # 3 for Cu read from file:
     ./pseudo/Cu.pbe-n-van_ak.UPF
     MD5 check sum: 34e3282627ffb533726feb647e090d62
     Pseudo is Ultrasoft + core correction, Zval = 11.0
     Generated by new atomic code, or converted to UPF format
     Using radial grid of  867 points,  6 beta functions with: 
                l(1) =   0
                l(2) =   0
                l(3) =   1
                l(4) =   1
                l(5) =   2
                l(6) =   2
     Q(r) pseudized with  8 coefficients,  rinner =    1.400   1.400   1.400
                                                       1.400   1.400

     PseudoPot. # 4 for O  read from file:
     ./pseudo/O.pbe-van_ak.UPF
     MD5 check sum: 783ce7fe4c79b6a4916957118fed0856
     Pseudo is Ultrasoft, Zval =  6.0
     Generated by new atomic code, or converted to UPF format
     Using radial grid of  737 points,  4 beta functions with: 
                l(1) =   0
                l(2) =   0
                l(3) =   1
                l(4) =   1
     Q(r) pseudized with  8 coefficients,  rinner =    0.800   0.800   0.800


     atomic species   valence    mass     pseudopotential
        Ba            10.00   137.32700     Ba( 1.00)
        Ca            10.00    40.07800     Ca( 1.00)
        Cu            11.00    63.54600     Cu( 1.00)
        O              6.00    15.99900     O ( 1.00)

      4 Sym. Ops. (no inversion) found



   Cartesian axes

     site n.     atom                  positions (alat units)
         1           O   tau(   1) = (   0.0000000   0.4735409  -0.0469745  )
         2           Cu  tau(   2) = (   0.0000000   0.0000000   0.0264565  )
         3           O   tau(   3) = (   0.0000000   0.0000000   0.5030914  )
         4           Ba  tau(   4) = (   0.5000000   0.4735409   0.5690292  )
         5           Cu  tau(   5) = (   0.0000000   0.0000000   1.0374254  )
         6           O   tau(   6) = (   0.5000000   0.0000000   1.0768099  )
         7           O   tau(   7) = (   0.0000000   0.4735409   1.1116985  )
         8           Ca  tau(   8) = (   0.5000000   0.4735409   1.4976260  )
         9           O   tau(   9) = (   0.0000000   0.4735409   1.8667529  )
        10           O   tau(  10) = (   0.5000000   0.0000000   1.9044124  )
        11           Cu  tau(  11) = (   0.0000000   0.0000000   1.9512546  )
        12           Ba  tau(  12) = (   0.5000000   0.4735409   2.4295764  )
        13           O   tau(  13) = (   0.0000000   0.0000000   2.5115362  )
        14           O   tau(  14) = (   0.0000000   0.4735409   2.9918528  )
        15           Cu  tau(  15) = (   0.0000000   0.0000000   2.9919088  )
        16           O   tau(  16) = (   0.0000000   0.0000000   3.4722686  )
        17           Ba  tau(  17) = (   0.5000000   0.4735409   3.5542208  )
        18           Cu  tau(  18) = (   0.0000000   0.0000000   4.0325248  )
        19           O   tau(  19) = (   0.5000000   0.0000000   4.0793669  )
        20           O   tau(  20) = (   0.0000000   0.4735409   4.1170213  )
        21           Ca  tau(  21) = (   0.5000000   0.4735409   4.4861584  )
        22           O   tau(  22) = (   0.0000000   0.4735409   5.0629123  )
        23           O   tau(  23) = (   0.5000000   0.0000000   5.0978010  )
        24           Cu  tau(  24) = (   0.0000000   0.0000000   5.1371881  )
        25           Ba  tau(  25) = (   0.5000000   0.4735409   5.6055817  )
        26           O   tau(  26) = (   0.0000000   0.0000000   5.6715093  )
        27           Cu  tau(  27) = (   0.0000000   0.0000000   6.1481493  )
        28           O   tau(  28) = (   0.0000000   0.4735409   6.2215676  )

     number of k points=    25  Gaussian smearing, width (Ry)=  0.0100
                       cart. coord. in units 2pi/alat
        k(    1) = (   0.0000000   0.0000000   0.0000000), wk =   0.0312500
        k(    2) = (   0.0000000   0.1319845   0.0000000), wk =   0.0625000
        k(    3) = (   0.0000000   0.2639689   0.0000000), wk =   0.0625000
        k(    4) = (   0.0000000   0.3959534   0.0000000), wk =   0.0625000
        k(    5) = (   0.0000000  -0.5279378   0.0000000), wk =   0.0312500
        k(    6) = (   0.1250000   0.0000000   0.0000000), wk =   0.0625000
        k(    7) = (   0.1250000   0.1319845   0.0000000), wk =   0.1250000
        k(    8) = (   0.1250000   0.2639689   0.0000000), wk =   0.1250000
        k(    9) = (   0.1250000   0.3959534   0.0000000), wk =   0.1250000
        k(   10) = (   0.1250000  -0.5279378   0.0000000), wk =   0.0625000
        k(   11) = (   0.2500000   0.0000000   0.0000000), wk =   0.0625000
        k(   12) = (   0.2500000   0.1319845   0.0000000), wk =   0.1250000
        k(   13) = (   0.2500000   0.2639689   0.0000000), wk =   0.1250000
        k(   14) = (   0.2500000   0.3959534   0.0000000), wk =   0.1250000
        k(   15) = (   0.2500000  -0.5279378   0.0000000), wk =   0.0625000
        k(   16) = (   0.3750000   0.0000000   0.0000000), wk =   0.0625000
        k(   17) = (   0.3750000   0.1319845   0.0000000), wk =   0.1250000
        k(   18) = (   0.3750000   0.2639689   0.0000000), wk =   0.1250000
        k(   19) = (   0.3750000   0.3959534   0.0000000), wk =   0.1250000
        k(   20) = (   0.3750000  -0.5279378   0.0000000), wk =   0.0625000
        k(   21) = (  -0.5000000   0.0000000   0.0000000), wk =   0.0312500
        k(   22) = (  -0.5000000   0.1319845   0.0000000), wk =   0.0625000
        k(   23) = (  -0.5000000   0.2639689   0.0000000), wk =   0.0625000
        k(   24) = (  -0.5000000   0.3959534   0.0000000), wk =   0.0625000
        k(   25) = (  -0.5000000  -0.5279378   0.0000000), wk =   0.0312500

     Dense  grid:  1427725 G-vectors     FFT dimensions: (  64,  64, 720)

     Smooth grid:   274999 G-vectors     FFT dimensions: (  40,  36, 432)

     Estimated max dynamical RAM per process >     455.52 MB

     Estimated total dynamical RAM >       8.90 GB

     Initial potential from superposition of free atoms

     starting charge  226.84630, renormalised to  227.00000

     negative rho (up, down):  3.508E-03 0.000E+00
     Starting wfcs are  195 randomized atomic wfcs

     total cpu time spent up to now is        9.9 secs

     Self-consistent Calculation

     iteration #  1     ecut=    60.00 Ry     beta= 0.70
     Davidson diagonalization with overlap
     ethr =  1.00E-02,  avg # of iterations =  2.0

     negative rho (up, down):  2.771E-04 0.000E+00

     total cpu time spent up to now is       25.5 secs

     total energy              =   -1839.53670415 Ry
     Harris-Foulkes estimate   =   -1845.30642545 Ry
     estimated scf accuracy    <      17.80012418 Ry

     iteration #  2     ecut=    60.00 Ry     beta= 0.70
     Davidson diagonalization with overlap
     ethr =  7.84E-03,  avg # of iterations =  2.0

     negative rho (up, down):  2.535E-04 0.000E+00

     total cpu time spent up to now is       42.6 secs

     total energy              =   -1842.07182381 Ry
     Harris-Foulkes estimate   =   -1843.90344167 Ry
     estimated scf accuracy    <      12.60910221 Ry

     iteration #  3     ecut=    60.00 Ry     beta= 0.70
     Davidson diagonalization with overlap
     ethr =  5.55E-03,  avg # of iterations =  1.4

     negative rho (up, down):  2.386E-04 0.000E+00

     total cpu time spent up to now is       57.2 secs

     total energy              =   -1842.65593103 Ry
     Harris-Foulkes estimate   =   -1843.04304501 Ry
     estimated scf accuracy    <       3.13639227 Ry

     iteration #  4     ecut=    60.00 Ry     beta= 0.70
     Davidson diagonalization with overlap
     ethr =  1.38E-03,  avg # of iterations =  1.8

     negative rho (up, down):  2.337E-04 0.000E+00

     total cpu time spent up to now is       72.0 secs

     total energy              =   -1842.80096490 Ry
     Harris-Foulkes estimate   =   -1843.00440076 Ry
     estimated scf accuracy    <       8.13751521 Ry

     iteration #  5     ecut=    60.00 Ry     beta= 0.70
     Davidson diagonalization with overlap
     ethr =  1.38E-03,  avg # of iterations =  1.0

     negative rho (up, down):  2.317E-04 0.000E+00

     total cpu time spent up to now is       86.2 secs

     total energy              =   -1842.86037417 Ry
     Harris-Foulkes estimate   =   -1842.88398621 Ry
     estimated scf accuracy    <       1.63404856 Ry

     iteration #  6     ecut=    60.00 Ry     beta= 0.70
     Davidson diagonalization with overlap
     ethr =  7.20E-04,  avg # of iterations =  1.0

     negative rho (up, down):  2.288E-04 0.000E+00

     total cpu time spent up to now is      100.2 secs

     total energy              =   -1842.84817915 Ry
     Harris-Foulkes estimate   =   -1842.86904890 Ry
     estimated scf accuracy    <       0.94709335 Ry

     iteration #  7     ecut=    60.00 Ry     beta= 0.70
     Davidson diagonalization with overlap
     ethr =  4.17E-04,  avg # of iterations =  3.4

     negative rho (up, down):  2.285E-04 0.000E+00

     total cpu time spent up to now is      117.0 secs

     total energy              =   -1842.84770451 Ry
     Harris-Foulkes estimate   =   -1842.85830648 Ry
     estimated scf accuracy    <       1.12681860 Ry

     iteration #  8     ecut=    60.00 Ry     beta= 0.70
     Davidson diagonalization with overlap
     ethr =  4.17E-04,  avg # of iterations =  3.0

     negative rho (up, down):  2.276E-04 0.000E+00

     total cpu time spent up to now is      133.3 secs

     total energy              =   -1842.84260612 Ry
     Harris-Foulkes estimate   =   -1842.85251911 Ry
     estimated scf accuracy    <       0.43221182 Ry

     iteration #  9     ecut=    60.00 Ry     beta= 0.70
     Davidson diagonalization with overlap
     ethr =  1.90E-04,  avg # of iterations =  6.3

     negative rho (up, down):  2.275E-04 0.000E+00

     total cpu time spent up to now is      154.1 secs

     total energy              =   -1842.84150178 Ry
     Harris-Foulkes estimate   =   -1842.84645706 Ry
     estimated scf accuracy    <       0.16533520 Ry

     iteration # 10     ecut=    60.00 Ry     beta= 0.70
     Davidson diagonalization with overlap
     c_bands:  1 eigenvalues not converged
     ethr =  7.28E-05,  avg # of iterations =  5.2

     negative rho (up, down):  2.275E-04 0.000E+00

     total cpu time spent up to now is      173.5 secs

     total energy              =   -1842.84110370 Ry
     Harris-Foulkes estimate   =   -1842.84346892 Ry
     estimated scf accuracy    <       0.09161221 Ry

     iteration # 11     ecut=    60.00 Ry     beta= 0.70
     Davidson diagonalization with overlap
     ethr =  4.04E-05,  avg # of iterations =  3.8

     negative rho (up, down):  2.275E-04 0.000E+00

     total cpu time spent up to now is      191.2 secs

     total energy              =   -1842.83970313 Ry
     Harris-Foulkes estimate   =   -1842.84224738 Ry
     estimated scf accuracy    <       0.10672759 Ry

     iteration # 12     ecut=    60.00 Ry     beta= 0.70
     Davidson diagonalization with overlap
     ethr =  4.04E-05,  avg # of iterations =  2.1

     negative rho (up, down):  2.278E-04 0.000E+00

     total cpu time spent up to now is      206.6 secs

     total energy              =   -1842.83934501 Ry
     Harris-Foulkes estimate   =   -1842.84057363 Ry
     estimated scf accuracy    <       0.12449173 Ry

     iteration # 13     ecut=    60.00 Ry     beta= 0.70
     Davidson diagonalization with overlap
     ethr =  4.04E-05,  avg # of iterations =  1.0

     negative rho (up, down):  6.810E-04 0.000E+00

     total cpu time spent up to now is      220.6 secs

     total energy              =   -1842.83748201 Ry
     Harris-Foulkes estimate   =   -1842.83965971 Ry
     estimated scf accuracy    <       0.08968128 Ry

     iteration # 14     ecut=    60.00 Ry     beta= 0.70
     Davidson diagonalization with overlap
     ethr =  3.95E-05,  avg # of iterations =  2.0

     negative rho (up, down):  5.323E-03 0.000E+00

     total cpu time spent up to now is      235.7 secs

     total energy              =   -1842.83671865 Ry
     Harris-Foulkes estimate   =   -1842.83811096 Ry
     estimated scf accuracy    <       0.05605463 Ry

     iteration # 15     ecut=    60.00 Ry     beta= 0.70
     Davidson diagonalization with overlap
     ethr =  2.47E-05,  avg # of iterations =  5.0

     negative rho (up, down):  2.308E-04 0.000E+00

     total cpu time spent up to now is      254.3 secs

     total energy              =   -1842.83606118 Ry
     Harris-Foulkes estimate   =   -1842.83709423 Ry
     estimated scf accuracy    <       0.05290114 Ry

     iteration # 16     ecut=    60.00 Ry     beta= 0.70
     Davidson diagonalization with overlap
     ethr =  2.33E-05,  avg # of iterations =  1.3

     negative rho (up, down):  1.753E-02 0.000E+00

     total cpu time spent up to now is      268.6 secs

     total energy              =   -1842.83423209 Ry
     Harris-Foulkes estimate   =   -1842.83708468 Ry
     estimated scf accuracy    <       0.04859404 Ry

     iteration # 17     ecut=    60.00 Ry     beta= 0.70
     Davidson diagonalization with overlap
     ethr =  2.14E-05,  avg # of iterations =  8.0

     negative rho (up, down):  2.096E-02 0.000E+00

     total cpu time spent up to now is      291.2 secs

     total energy              =   -1842.83427668 Ry
     Harris-Foulkes estimate   =   -1842.83498443 Ry
     estimated scf accuracy    <       0.01493987 Ry

     iteration # 18     ecut=    60.00 Ry     beta= 0.70
     Davidson diagonalization with overlap
     ethr =  6.58E-06,  avg # of iterations =  7.8

     negative rho (up, down):  2.071E-02 0.000E+00

     total cpu time spent up to now is      313.8 secs

     total energy              =   -1842.83424460 Ry
     Harris-Foulkes estimate   =   -1842.83446744 Ry
     estimated scf accuracy    <       0.00375892 Ry

     iteration # 19     ecut=    60.00 Ry     beta= 0.70
     Davidson diagonalization with overlap
     c_bands:  1 eigenvalues not converged
     ethr =  1.66E-06,  avg # of iterations = 10.4

     negative rho (up, down):  3.915E-03 0.000E+00

     total cpu time spent up to now is      340.8 secs

     total energy              =   -1842.83387979 Ry
     Harris-Foulkes estimate   =   -1842.83435493 Ry
     estimated scf accuracy    <       0.00185665 Ry

     iteration # 20     ecut=    60.00 Ry     beta= 0.70
     Davidson diagonalization with overlap
     c_bands:  1 eigenvalues not converged
     c_bands:  2 eigenvalues not converged
     c_bands:  1 eigenvalues not converged
     c_bands:  1 eigenvalues not converged
     ethr =  8.18E-07,  avg # of iterations = 11.0

     negative rho (up, down):  2.873E-03 0.000E+00

     total cpu time spent up to now is      369.0 secs

     total energy              =   -1842.83391929 Ry
     Harris-Foulkes estimate   =   -1842.83395434 Ry
     estimated scf accuracy    <       0.00048931 Ry

     iteration # 21     ecut=    60.00 Ry     beta= 0.70
     Davidson diagonalization with overlap
     ethr =  2.16E-07,  avg # of iterations =  2.7

     negative rho (up, down):  1.157E-03 0.000E+00

     total cpu time spent up to now is      385.8 secs

     total energy              =   -1842.83393009 Ry
     Harris-Foulkes estimate   =   -1842.83396929 Ry
     estimated scf accuracy    <       0.00039533 Ry

     iteration # 22     ecut=    60.00 Ry     beta= 0.70
     Davidson diagonalization with overlap
     c_bands:  1 eigenvalues not converged
     c_bands:  1 eigenvalues not converged
     ethr =  1.74E-07,  avg # of iterations =  6.6

     negative rho (up, down):  9.903E-04 0.000E+00

     total cpu time spent up to now is      406.8 secs

     total energy              =   -1842.83399127 Ry
     Harris-Foulkes estimate   =   -1842.83395338 Ry
     estimated scf accuracy    <       0.00028379 Ry

     iteration # 23     ecut=    60.00 Ry     beta= 0.70
     Davidson diagonalization with overlap
     c_bands:  1 eigenvalues not converged
     ethr =  1.25E-07,  avg # of iterations =  5.8

     negative rho (up, down):  1.153E-03 0.000E+00

     total cpu time spent up to now is      426.6 secs

     total energy              =   -1842.83399143 Ry
     Harris-Foulkes estimate   =   -1842.83399650 Ry
     estimated scf accuracy    <       0.00011196 Ry

     iteration # 24     ecut=    60.00 Ry     beta= 0.70
     Davidson diagonalization with overlap
     ethr =  4.93E-08,  avg # of iterations =  2.2

     negative rho (up, down):  9.849E-04 0.000E+00

     total cpu time spent up to now is      442.3 secs

     total energy              =   -1842.83399531 Ry
     Harris-Foulkes estimate   =   -1842.83399471 Ry
     estimated scf accuracy    <       0.00002560 Ry

     iteration # 25     ecut=    60.00 Ry     beta= 0.70
     Davidson diagonalization with overlap
     ethr =  1.13E-08,  avg # of iterations =  1.3

     negative rho (up, down):  1.332E-03 0.000E+00

     total cpu time spent up to now is      456.8 secs

     total energy              =   -1842.83399503 Ry
     Harris-Foulkes estimate   =   -1842.83399632 Ry
     estimated scf accuracy    <       0.00001228 Ry

     iteration # 26     ecut=    60.00 Ry     beta= 0.70
     Davidson diagonalization with overlap
     ethr =  5.41E-09,  avg # of iterations =  1.0

     negative rho (up, down):  1.464E-03 0.000E+00

     total cpu time spent up to now is      471.0 secs

     total energy              =   -1842.83399503 Ry
     Harris-Foulkes estimate   =   -1842.83399574 Ry
     estimated scf accuracy    <       0.00001562 Ry

     iteration # 27     ecut=    60.00 Ry     beta= 0.70
     Davidson diagonalization with overlap
     ethr =  5.41E-09,  avg # of iterations =  1.0

     negative rho (up, down):  1.493E-03 0.000E+00

     total cpu time spent up to now is      485.1 secs

     total energy              =   -1842.83399526 Ry
     Harris-Foulkes estimate   =   -1842.83399544 Ry
     estimated scf accuracy    <       0.00000150 Ry

     iteration # 28     ecut=    60.00 Ry     beta= 0.70
     Davidson diagonalization with overlap
     ethr =  6.62E-10,  avg # of iterations =  3.0

     negative rho (up, down):  1.564E-03 0.000E+00

     total cpu time spent up to now is      501.5 secs

     total energy              =   -1842.83399525 Ry
     Harris-Foulkes estimate   =   -1842.83399541 Ry
     estimated scf accuracy    <       0.00000130 Ry

     iteration # 29     ecut=    60.00 Ry     beta= 0.70
     Davidson diagonalization with overlap
     ethr =  5.73E-10,  avg # of iterations =  1.1

     negative rho (up, down):  1.533E-03 0.000E+00

     total cpu time spent up to now is      515.8 secs

     total energy              =   -1842.83399532 Ry
     Harris-Foulkes estimate   =   -1842.83399531 Ry
     estimated scf accuracy    <       0.00000047 Ry

     iteration # 30     ecut=    60.00 Ry     beta= 0.70
     Davidson diagonalization with overlap
     ethr =  2.08E-10,  avg # of iterations =  1.8

     negative rho (up, down):  1.517E-03 0.000E+00

     total cpu time spent up to now is      530.8 secs

     total energy              =   -1842.83399535 Ry
     Harris-Foulkes estimate   =   -1842.83399534 Ry
     estimated scf accuracy    <       0.00000024 Ry

     iteration # 31     ecut=    60.00 Ry     beta= 0.70
     Davidson diagonalization with overlap
     ethr =  1.07E-10,  avg # of iterations =  1.4

     negative rho (up, down):  1.503E-03 0.000E+00

     total cpu time spent up to now is      545.4 secs

     total energy              =   -1842.83399537 Ry
     Harris-Foulkes estimate   =   -1842.83399536 Ry
     estimated scf accuracy    <       0.00000010 Ry

     iteration # 32     ecut=    60.00 Ry     beta= 0.70
     Davidson diagonalization with overlap
     ethr =  4.29E-11,  avg # of iterations =  1.7

     negative rho (up, down):  1.508E-03 0.000E+00

     total cpu time spent up to now is      560.3 secs

     total energy              =   -1842.83399536 Ry
     Harris-Foulkes estimate   =   -1842.83399537 Ry
     estimated scf accuracy    <       0.00000002 Ry

     iteration # 33     ecut=    60.00 Ry     beta= 0.70
     Davidson diagonalization with overlap
     ethr =  7.46E-12,  avg # of iterations =  3.1

     negative rho (up, down):  1.511E-03 0.000E+00

     total cpu time spent up to now is      577.3 secs

     total energy              =   -1842.83399536 Ry
     Harris-Foulkes estimate   =   -1842.83399537 Ry
     estimated scf accuracy    <       0.00000002 Ry

     iteration # 34     ecut=    60.00 Ry     beta= 0.70
     Davidson diagonalization with overlap
     ethr =  7.46E-12,  avg # of iterations =  1.0

     negative rho (up, down):  1.516E-03 0.000E+00

     total cpu time spent up to now is      591.6 secs

     total energy              =   -1842.83399535 Ry
     Harris-Foulkes estimate   =   -1842.83399536 Ry
     estimated scf accuracy    <          5.5E-09 Ry

     iteration # 35     ecut=    60.00 Ry     beta= 0.70
     Davidson diagonalization with overlap
     ethr =  2.41E-12,  avg # of iterations =  1.2

     negative rho (up, down):  1.515E-03 0.000E+00

     total cpu time spent up to now is      605.8 secs

     total energy              =   -1842.83399535 Ry
     Harris-Foulkes estimate   =   -1842.83399535 Ry
     estimated scf accuracy    <          2.4E-09 Ry

     iteration # 36     ecut=    60.00 Ry     beta= 0.70
     Davidson diagonalization with overlap
     ethr =  1.04E-12,  avg # of iterations =  1.1

     negative rho (up, down):  1.516E-03 0.000E+00

     total cpu time spent up to now is      619.9 secs

     total energy              =   -1842.83399535 Ry
     Harris-Foulkes estimate   =   -1842.83399535 Ry
     estimated scf accuracy    <          4.5E-10 Ry

     iteration # 37     ecut=    60.00 Ry     beta= 0.70
     Davidson diagonalization with overlap
     ethr =  2.00E-13,  avg # of iterations =  3.0

     negative rho (up, down):  1.515E-03 0.000E+00

     total cpu time spent up to now is      638.0 secs

     total energy              =   -1842.83399536 Ry
     Harris-Foulkes estimate   =   -1842.83399535 Ry
     estimated scf accuracy    <          5.1E-10 Ry

     iteration # 38     ecut=    60.00 Ry     beta= 0.70
     Davidson diagonalization with overlap
     ethr =  2.00E-13,  avg # of iterations =  1.1

     negative rho (up, down):  1.515E-03 0.000E+00

     total cpu time spent up to now is      652.2 secs

     total energy              =   -1842.83399536 Ry
     Harris-Foulkes estimate   =   -1842.83399536 Ry
     estimated scf accuracy    <          1.1E-10 Ry

     iteration # 39     ecut=    60.00 Ry     beta= 0.70
     Davidson diagonalization with overlap
     ethr =  1.00E-13,  avg # of iterations =  1.0

     negative rho (up, down):  1.516E-03 0.000E+00

     total cpu time spent up to now is      665.8 secs

     End of self-consistent calculation

          k = 0.0000 0.0000 0.0000 ( 34429 PWs)   bands (ev):

   -37.1747 -35.5381 -22.7430 -22.6643 -22.6250 -22.4817 -18.2613 -18.1896
   -18.1764 -17.0426 -16.5893 -16.5779 -15.2611 -15.2526 -15.0094 -14.8021
   -14.6232 -14.6046 -14.5238 -14.1442 -14.1332 -14.1323 -13.9338 -13.7751
   -13.7042 -13.7017 -13.5886  -7.8743  -7.8368  -7.8235  -7.7698  -7.7545
    -7.6625  -7.6615  -7.6438  -7.5746  -7.5259  -7.4999  -7.3603  -2.2818
    -2.2730  -2.2202  -1.9769  -1.8410  -1.7818  -1.7181  -1.6199  -1.5801
    -1.4903  -1.4350  -1.4076  -1.2909  -1.1721  -1.1712  -1.0313  -0.9987
    -0.8009  -0.6363  -0.5583  -0.4104  -0.4009  -0.3285  -0.2927  -0.2633
    -0.2366  -0.2164  -0.2002  -0.1990  -0.1967  -0.1805  -0.1643  -0.1317
    -0.1098  -0.0461   0.0110   0.0297   0.1469   0.1470   0.1473   0.1783
     0.1974   0.2217   0.2265   0.2340   0.2557   0.3251   0.3577   0.3723
     0.4585   0.8211   0.8490   0.9301   0.9469   1.0089   1.0361   1.2300
     1.2317   1.2547   1.2812   1.3981   1.4207   1.4403   1.5338   1.5727
     1.5833   1.5867   1.6445   1.7859   1.8801   2.0371   2.0842   2.1610
     2.2069   2.2123   2.2204   2.3148   2.3290   2.5675   2.5843   4.9847
     5.2646   5.3825   5.9745   6.3988   6.8090   6.8233   7.0342   7.2877
     7.7334   8.0277   8.0928   8.2385   8.3419   8.4889   8.5712   8.6060
     8.6655

          k = 0.0000 0.1320 0.0000 ( 34389 PWs)   bands (ev):

   -37.1732 -35.5363 -22.7163 -22.6375 -22.5996 -22.4563 -18.2690 -18.2002
   -18.1745 -17.0064 -16.6504 -16.5870 -15.2036 -15.1645 -14.9598 -14.7488
   -14.6284 -14.5992 -14.4965 -14.1727 -14.1427 -14.1402 -13.9393 -13.8206
   -13.7498 -13.7349 -13.6463  -7.8739  -7.8221  -7.7889  -7.7532  -7.7216
    -7.6861  -7.6608  -7.6170  -7.6165  -7.5470  -7.4807  -7.4077  -2.3434
    -2.3304  -2.3116  -2.2002  -2.1156  -2.0061  -1.9539  -1.8092  -1.6207
    -1.5996  -1.5962  -1.5933  -1.4726  -1.3270  -1.2812  -1.2658  -1.0687
    -0.9376  -0.6871  -0.6114  -0.5797  -0.5078  -0.4919  -0.4419  -0.4126
    -0.3775  -0.3572  -0.3168  -0.2898  -0.1583  -0.1425  -0.1124  -0.0996
    -0.0983  -0.0088   0.0153   0.0324   0.0487   0.0553   0.1676   0.1706
     0.1729   0.2072   0.2353   0.2359   0.2815   0.3263   0.4177   0.4381
     0.7683   0.8681   0.9405   1.0028   1.1065   1.1273   1.1319   1.1559
     1.1971   1.2370   1.3256   1.3890   1.4570   1.4975   1.5080   1.5501
     1.5857   1.6594   1.6801   1.7590   1.8688   2.0146   2.0396   2.0408
     2.1210   2.1238   2.1533   2.5361   2.8469   2.8682   2.9212   5.3019
     5.6410   5.6976   6.2364   6.6397   7.0958   7.1173   7.3327   7.5692
     7.9209   8.1435   8.2054   8.3307   8.4021   8.5464   8.7662   8.8058
     8.8353

          k = 0.0000 0.2640 0.0000 ( 34275 PWs)   bands (ev):

   -37.1696 -35.5319 -22.6504 -22.5714 -22.5370 -22.3936 -18.3217 -18.1903
   -18.1701 -16.9143 -16.8048 -16.5813 -15.0521 -14.9649 -14.8594 -14.6772
   -14.6093 -14.5886 -14.4346 -14.2686 -14.1300 -14.1229 -13.9790 -13.9477
   -13.8405 -13.8259 -13.7621  -7.8734  -7.8201  -7.7764  -7.7502  -7.7074
    -7.6685  -7.6665  -7.6396  -7.6002  -7.5099  -7.5053  -7.3673  -2.8253
    -2.7828  -2.6623  -2.6527  -2.5511  -2.3803  -2.3642  -2.2329  -2.2258
    -2.1876  -1.7149  -1.6346  -1.5458  -1.4259  -1.4162  -1.3403  -1.2556
    -1.0566  -0.9783  -0.9128  -0.8362  -0.7692  -0.7583  -0.7296  -0.6075
    -0.5988  -0.5922  -0.4973  -0.4867  -0.4699  -0.4490  -0.4410  -0.2936
    -0.2600  -0.0511  -0.0144   0.0340   0.0607   0.0763   0.1423   0.2020
     0.2329   0.2579   0.3559   0.4224   0.6655   0.7176   0.7396   0.7470
     0.8973   0.9636   1.0165   1.0668   1.1814   1.2127   1.2158   1.2184
     1.2378   1.2601   1.3212   1.3480   1.3668   1.4213   1.5353   1.6871
     1.7307   1.7389   1.8443   1.9683   1.9868   2.0204   2.0218   2.0413
     2.0816   2.1596   2.2420   2.6537   3.0885   3.1021   3.7628   5.9367
     6.5348   6.5517   6.8293   7.3575   7.7146   7.9364   8.0232   8.0594
     8.2114   8.4003   8.5672   8.7060   8.7969   8.8736   8.9644   9.0851
     9.1332

          k = 0.0000 0.3960 0.0000 ( 34242 PWs)   bands (ev):

   -37.1659 -35.5275 -22.5822 -22.5029 -22.4725 -22.3289 -18.3861 -18.1664
   -18.1656 -16.9410 -16.8127 -16.5757 -14.8862 -14.8741 -14.8496 -14.6349
   -14.5041 -14.4519 -14.4098 -14.3490 -14.0993 -14.0624 -14.0574 -14.0436
   -13.9741 -13.9635 -13.8352  -7.8734  -7.8546  -7.8161  -7.7868  -7.7473
    -7.7461  -7.6448  -7.5990  -7.5400  -7.4706  -7.3871  -7.2468  -3.4077
    -3.2407  -3.2001  -3.1290  -3.0110  -2.9472  -2.9391  -2.3237  -2.3164
    -2.2278  -1.9726  -1.7598  -1.7026  -1.5694  -1.4804  -1.3248  -1.2519
    -1.2262  -1.1077  -1.0857  -1.0279  -0.9912  -0.9865  -0.9833  -0.9010
    -0.8734  -0.8117  -0.7658  -0.7027  -0.7022  -0.6593  -0.5998  -0.3362
    -0.2831  -0.1713  -0.0578  -0.0014   0.0777   0.0937   0.1735   0.1912
     0.2081   0.2196   0.3383   0.5412   0.8301   0.8954   0.9378   0.9736
     0.9790   1.0020   1.0070   1.0617   1.1045   1.1363   1.1766   1.1837
     1.1991   1.4254   1.5004   1.5684   1.6379   1.6684   1.7165   1.7181
     1.7774   1.7966   1.9796   2.0321   2.0589   2.1172   2.1432   2.1721
     2.3032   2.4160   2.4195   2.5727   2.9824   2.9942   4.3211   6.6124
     7.4458   7.4846   7.5085   7.7735   7.9059   8.3093   8.3966   8.6672
     8.7301   8.8944   9.0814   9.1387   9.1524   9.1926   9.2938   9.4355
     9.4704

          k = 0.0000-0.5279 0.0000 ( 34286 PWs)   bands (ev):

   -37.1644 -35.5257 -22.5533 -22.4739 -22.4451 -22.3014 -18.4131 -18.1638
   -18.1556 -16.9932 -16.7677 -16.5733 -14.9285 -14.9071 -14.6879 -14.6195
   -14.5208 -14.4417 -14.2917 -14.2247 -14.1881 -14.1093 -14.0791 -14.0556
   -14.0242 -14.0232 -13.8690  -7.8843  -7.8730  -7.8164  -7.8080  -7.7877
    -7.7446  -7.6398  -7.6358  -7.4841  -7.4141  -7.3359  -7.1946  -3.6700
    -3.4193  -3.3639  -3.3145  -3.1895  -3.1673  -3.1671  -2.3398  -2.3332
    -2.2406  -2.1004  -1.8903  -1.8373  -1.4622  -1.4434  -1.3439  -1.2634
    -1.2094  -1.1920  -1.1542  -1.1495  -1.1355  -1.1016  -1.0151  -0.9920
    -0.9805  -0.9235  -0.8799  -0.7890  -0.7853  -0.7352  -0.6498  -0.3298
    -0.2715  -0.2493  -0.0544   0.0115   0.0833   0.0996   0.1681   0.1981
     0.2136   0.2190   0.2845   0.4703   0.7850   0.8634   0.8901   0.9060
     0.9201   0.9995   1.0535   1.1081   1.1390   1.1667   1.1808   1.3567
     1.3895   1.4337   1.5442   1.6324   1.7326   1.7778   1.7853   1.8145
     1.8496   2.0190   2.0612   2.0681   2.0836   2.1131   2.1704   2.2384
     2.2839   2.5345   2.5776   2.5808   2.8046   2.8173   4.4948   7.0087
     7.6813   7.7541   7.7709   7.8951   7.9828   8.3332   8.8388   8.9351
     9.0310   9.0548   9.1165   9.2177   9.2487   9.3522   9.3716   9.4663
     9.5850

          k = 0.1250 0.0000 0.0000 ( 34399 PWs)   bands (ev):

   -37.1739 -35.5370 -22.7249 -22.6461 -22.6079 -22.4645 -18.2664 -18.1885
   -18.1873 -17.0092 -16.6696 -16.5765 -15.2102 -15.1509 -14.9771 -14.8250
   -14.6688 -14.6396 -14.5291 -14.1672 -14.1422 -14.1411 -13.9457 -13.7975
   -13.7595 -13.7342 -13.6169  -7.9001  -7.8615  -7.7969  -7.7750  -7.7003
    -7.6907  -7.6114  -7.5945  -7.5418  -7.4699  -7.4654  -7.3299  -2.3245
    -2.3074  -2.2617  -2.0290  -1.9463  -1.8240  -1.7632  -1.7594  -1.6894
    -1.5981  -1.5556  -1.4052  -1.3774  -1.1700  -1.1691  -1.0707  -1.0194
    -0.8313  -0.7631  -0.6206  -0.5665  -0.4661  -0.4222  -0.4004  -0.3655
    -0.3330  -0.3134  -0.2910  -0.2745  -0.2487  -0.2191  -0.1743  -0.1476
    -0.1176  -0.0766  -0.0331   0.0021   0.1400   0.1403   0.1618   0.2080
     0.2315   0.2427   0.2708   0.3084   0.3578   0.4066   0.4283   0.4705
     0.5370   0.8262   0.8432   0.8589   0.9455   0.9549   1.0741   1.1288
     1.2363   1.2620   1.3003   1.3327   1.4155   1.4267   1.5345   1.5548
     1.5847   1.6554   1.7962   1.9242   2.0125   2.0346   2.0954   2.1113
     2.1713   2.1728   2.2438   2.2868   2.3794   2.6189   2.6224   5.2135
     5.4449   5.5330   6.1513   6.5667   7.0118   7.0260   7.2158   7.4926
     7.9190   8.1251   8.1762   8.3513   8.4150   8.4892   8.7029   8.8223
     8.9015

          k = 0.1250 0.1320 0.0000 ( 34364 PWs)   bands (ev):

   -37.1724 -35.5352 -22.6991 -22.6202 -22.5832 -22.4398 -18.2709 -18.2119
   -18.1759 -16.9740 -16.6726 -16.6397 -15.1554 -15.0697 -14.9311 -14.7690
   -14.6631 -14.6246 -14.4992 -14.1907 -14.1432 -14.1405 -13.9515 -13.8349
   -13.7954 -13.7646 -13.6650  -7.9193  -7.8561  -7.8372  -7.8351  -7.7325
    -7.7208  -7.6695  -7.5736  -7.5579  -7.5045  -7.4268  -7.2888  -2.3795
    -2.3566  -2.3386  -2.1995  -2.1029  -2.0056  -1.9737  -1.9329  -1.8031
    -1.7335  -1.6311  -1.6037  -1.5903  -1.5635  -1.3311  -1.2616  -1.1043
    -0.9635  -0.8604  -0.7541  -0.6344  -0.6009  -0.5761  -0.5313  -0.4972
    -0.4600  -0.4520  -0.4406  -0.3124  -0.2250  -0.2124  -0.1552  -0.1202
    -0.0984  -0.0791   0.0090   0.0309   0.0537   0.0613   0.1727   0.2020
     0.2067   0.2529   0.2715   0.2791   0.3020   0.3388   0.5676   0.6839
     0.7588   0.9272   1.0127   1.0644   1.0885   1.1036   1.1501   1.1861
     1.1965   1.2716   1.3214   1.3343   1.3740   1.4355   1.4818   1.5299
     1.6408   1.6525   1.7092   1.7312   1.8251   1.8333   2.0331   2.2578
     2.3868   2.4261   2.5361   2.6119   2.8594   2.8742   2.9352   5.4647
     5.7834   5.8245   6.3558   6.7842   7.2788   7.3216   7.5037   7.7633
     8.0549   8.1592   8.2618   8.3460   8.5261   8.6584   8.8210   8.9246
     9.0396

          k = 0.1250 0.2640 0.0000 ( 34297 PWs)   bands (ev):

   -37.1688 -35.5308 -22.6352 -22.5561 -22.5224 -22.3790 -18.3195 -18.2176
   -18.1598 -16.8848 -16.8017 -16.6522 -15.0098 -14.8957 -14.8418 -14.6635
   -14.6206 -14.5785 -14.4292 -14.2740 -14.1254 -14.1167 -14.0008 -13.9399
   -13.8522 -13.8465 -13.7686  -7.9883  -7.9186  -7.8742  -7.8546  -7.8245
    -7.7516  -7.6967  -7.6557  -7.5642  -7.4959  -7.4192  -7.2830  -2.8435
    -2.8059  -2.6664  -2.6515  -2.5598  -2.3808  -2.3616  -2.2323  -2.2245
    -2.2028  -1.9302  -1.7536  -1.7009  -1.5902  -1.5386  -1.4355  -1.3674
    -1.0943  -0.9689  -0.9496  -0.9462  -0.9242  -0.8282  -0.8181  -0.8111
    -0.7109  -0.6457  -0.6332  -0.5905  -0.5159  -0.4602  -0.4491  -0.3232
    -0.2737  -0.1604  -0.0814  -0.0046   0.0157   0.0842   0.1999   0.2497
     0.2980   0.4392   0.4640   0.5464   0.7731   0.7834   0.8201   0.8538
     0.9128   1.0561   1.0678   1.0862   1.1493   1.1833   1.3386   1.3549
     1.3670   1.3864   1.4327   1.4388   1.4528   1.4599   1.4895   1.5896
     1.6543   1.6942   1.7490   1.8262   1.9859   1.9937   2.0797   2.2837
     2.5837   2.6437   2.7111   2.8387   3.0993   3.1122   3.7636   5.9980
     6.5958   6.6120   6.8119   7.4359   7.8356   7.8790   8.1007   8.1769
     8.2930   8.5529   8.6785   8.7754   8.8446   8.9369   9.0043   9.0919
     9.1672

          k = 0.1250 0.3960 0.0000 ( 34292 PWs)   bands (ev):

   -37.1651 -35.5264 -22.5693 -22.4899 -22.4598 -22.3162 -18.3836 -18.2084
   -18.1408 -16.9359 -16.7862 -16.6437 -14.8513 -14.8417 -14.8159 -14.5609
   -14.4831 -14.4325 -14.3950 -14.3464 -14.0958 -14.0788 -14.0616 -14.0335
   -13.9718 -13.9537 -13.8298  -8.0188  -7.9506  -7.9010  -7.8857  -7.8306
    -7.7592  -7.7480  -7.6633  -7.6093  -7.5405  -7.4529  -7.3227  -3.4000
    -3.2815  -3.2409  -3.1513  -3.0396  -2.9388  -2.9313  -2.3320  -2.3220
    -2.2438  -1.9418  -1.7537  -1.7435  -1.6434  -1.6065  -1.5415  -1.4357
    -1.3194  -1.2895  -1.2482  -1.1378  -1.1155  -1.0663  -1.0579  -0.9608
    -0.9108  -0.8338  -0.8234  -0.7954  -0.7667  -0.7146  -0.7028  -0.3940
    -0.3210  -0.1810  -0.1278  -0.0083   0.0266   0.1559   0.2364   0.2541
     0.3018   0.4828   0.5497   0.7175   0.7505   0.9494   0.9631   1.0145
     1.0830   1.0949   1.1113   1.2070   1.2335   1.2427   1.2781   1.3116
     1.3516   1.5087   1.5809   1.6039   1.6538   1.7000   1.7680   1.7837
     1.8238   1.9197   2.0138   2.0479   2.1070   2.3831   2.3872   2.4136
     2.5339   2.5983   2.6482   2.7677   3.0347   3.0459   4.3039   6.5460
     7.1879   7.3477   7.3833   7.6903   8.0006   8.1795   8.4429   8.6893
     8.7122   8.8749   8.9730   9.0561   9.1521   9.3876   9.4667   9.5695
     9.6017

          k = 0.1250-0.5279 0.0000 ( 34244 PWs)   bands (ev):

   -37.1636 -35.5246 -22.5413 -22.4619 -22.4333 -22.2896 -18.4106 -18.2044
   -18.1321 -16.9875 -16.7427 -16.6399 -14.8838 -14.8632 -14.6476 -14.6041
   -14.4483 -14.4031 -14.2897 -14.2246 -14.1680 -14.1118 -14.0923 -14.0335
   -14.0251 -14.0213 -13.8529  -8.0134  -7.9457  -7.9103  -7.8906  -7.8229
    -7.7641  -7.7636  -7.6690  -7.6434  -7.5736  -7.4740  -7.3479  -3.6626
    -3.4679  -3.4151  -3.3424  -3.2179  -3.1671  -3.1602  -2.3530  -2.3441
    -2.2592  -2.0057  -1.7741  -1.7101  -1.5963  -1.5789  -1.5612  -1.4686
    -1.4193  -1.3915  -1.3252  -1.3125  -1.2599  -1.1505  -1.1400  -1.0107
    -0.9877  -0.8995  -0.8930  -0.8720  -0.8296  -0.8074  -0.8016  -0.4098
    -0.3052  -0.1840  -0.1452  -0.0165   0.0498   0.1814   0.2502   0.2623
     0.3084   0.4859   0.5306   0.6922   0.7649   0.9380   0.9814   0.9964
     1.0038   1.0251   1.0761   1.1592   1.3001   1.3465   1.3646   1.3920
     1.4231   1.5349   1.5673   1.7360   1.8179   1.8266   1.8709   2.0560
     2.0769   2.0801   2.0888   2.2103   2.2749   2.3938   2.4236   2.5201
     2.5298   2.5485   2.5528   2.6079   2.8924   2.9219   4.4686   6.7816
     7.2854   7.5689   7.5845   7.8211   7.9124   8.3640   8.4628   8.8762
     9.0012   9.1095   9.1847   9.3508   9.3619   9.4271   9.5900   9.6148
     9.8228

          k = 0.2500 0.0000 0.0000 ( 34384 PWs)   bands (ev):

   -37.1719 -35.5344 -22.6806 -22.6015 -22.5658 -22.4224 -18.3020 -18.1887
   -18.1861 -16.9238 -16.8338 -16.5732 -15.0822 -14.9533 -14.9350 -14.8869
   -14.7503 -14.6840 -14.5529 -14.2386 -14.1563 -14.1527 -13.9938 -13.8957
   -13.8296 -13.8240 -13.6732  -7.9098  -7.9004  -7.7901  -7.6966  -7.6883
    -7.6109  -7.5307  -7.5173  -7.4602  -7.3954  -7.3804  -7.2543  -2.5217
    -2.5126  -2.4406  -2.3192  -2.1613  -2.1121  -2.0634  -1.8572  -1.6987
    -1.5999  -1.4849  -1.4230  -1.3865  -1.1884  -1.1667  -1.1656  -1.0792
    -1.0409  -0.9135  -0.9080  -0.7481  -0.7213  -0.6797  -0.6235  -0.6125
    -0.5898  -0.4826  -0.4651  -0.4400  -0.4168  -0.2576  -0.2430  -0.2025
    -0.1910  -0.1440  -0.1337  -0.0077   0.1271   0.1273   0.2321   0.2511
     0.2719   0.3295   0.3719   0.4110   0.4502   0.5010   0.5092   0.5959
     0.6782   0.7084   0.8684   0.9307   0.9654   1.0495   1.0933   1.1520
     1.2668   1.3285   1.3505   1.3562   1.3713   1.4182   1.4681   1.5024
     1.6276   1.6808   1.8022   1.9192   1.9594   2.0740   2.0930   2.1053
     2.1126   2.2532   2.3378   2.4635   2.5435   2.7269   2.7537   5.7585
     5.9022   5.9349   6.5143   7.0927   7.4366   7.6027   7.6952   8.0216
     8.2023   8.2584   8.3376   8.5398   8.6835   8.8282   8.9216   9.0811
     9.3420

          k = 0.2500 0.1320 0.0000 ( 34351 PWs)   bands (ev):

   -37.1704 -35.5326 -22.6568 -22.5776 -22.5429 -22.3995 -18.2993 -18.2284
   -18.1655 -16.8917 -16.8274 -16.6394 -15.0330 -14.9029 -14.8982 -14.8237
   -14.7012 -14.6426 -14.5174 -14.2494 -14.1422 -14.1382 -13.9924 -13.8992
   -13.8646 -13.8457 -13.7007  -7.9701  -7.9270  -7.8880  -7.8250  -7.7228
    -7.7162  -7.7063  -7.5608  -7.4970  -7.4284  -7.3565  -7.2206  -2.5804
    -2.5634  -2.4676  -2.3524  -2.1533  -2.1460  -2.0964  -2.0534  -2.0447
    -1.9082  -1.8788  -1.6535  -1.5808  -1.5785  -1.3783  -1.3171  -1.2448
    -1.1097  -1.0223  -0.9740  -0.9439  -0.8869  -0.8327  -0.8260  -0.6167
    -0.5821  -0.5680  -0.4972  -0.4646  -0.3951  -0.3054  -0.2862  -0.2089
    -0.1674  -0.1424   0.0166   0.0412   0.0752   0.1064   0.1834   0.2266
     0.2416   0.2917   0.3744   0.3780   0.4619   0.6332   0.6830   0.8203
     0.9448   0.9546   0.9910   1.0142   1.0984   1.1168   1.2257   1.2451
     1.2865   1.2964   1.3265   1.3694   1.4278   1.4828   1.5260   1.5366
     1.5839   1.6688   1.6718   1.7774   1.8096   1.8819   2.0543   2.3822
     2.7063   2.7268   2.8168   2.9060   2.9235   2.9650   3.0093   5.8852
     6.1634   6.1793   6.5893   7.2434   7.5865   7.8598   7.9098   8.0895
     8.2707   8.2834   8.4907   8.6584   8.8227   8.8524   8.9819   9.1439
     9.2037

          k = 0.2500 0.2640 0.0000 ( 34331 PWs)   bands (ev):

   -37.1668 -35.5282 -22.5981 -22.5188 -22.4867 -22.3431 -18.3165 -18.2728
   -18.1419 -16.8273 -16.8034 -16.7759 -14.9023 -14.8189 -14.8137 -14.6533
   -14.5610 -14.5297 -14.4284 -14.2981 -14.1171 -14.1010 -14.0415 -13.9238
   -13.9025 -13.8866 -13.7749  -8.1903  -8.1214  -8.0521  -7.9302  -7.8868
    -7.8114  -7.7629  -7.6716  -7.6168  -7.5489  -7.4729  -7.3427  -2.9731
    -2.9436  -2.7503  -2.6919  -2.5898  -2.3942  -2.3571  -2.3245  -2.2650
    -2.2416  -2.1991  -2.1235  -2.0678  -2.0238  -1.5810  -1.4487  -1.4033
    -1.3742  -1.3145  -1.2385  -1.2061  -1.0964  -0.9779  -0.9136  -0.8081
    -0.7236  -0.6861  -0.6737  -0.6195  -0.5553  -0.5482  -0.5369  -0.5114
    -0.3510  -0.3163  -0.2935   0.0407   0.1473   0.1678   0.3180   0.4004
     0.4846   0.6273   0.7052   0.7915   0.8369   0.8432   0.8925   1.0078
     1.0120   1.1733   1.2099   1.2786   1.3069   1.3122   1.3390   1.4309
     1.4875   1.5058   1.5287   1.5488   1.5952   1.6192   1.6689   1.6911
     1.7456   1.7522   1.7608   1.8089   1.9059   1.9211   2.1945   2.3960
     3.0346   3.0512   3.2882   3.3193   3.4309   3.4704   3.7668   6.1455
     6.6712   6.7070   6.7342   7.6117   7.6359   8.0476   8.3916   8.4034
     8.5449   8.7736   8.7812   8.8553   9.0724   9.1378   9.1708   9.3407
     9.3536

          k = 0.2500 0.3960 0.0000 ( 34334 PWs)   bands (ev):

   -37.1632 -35.5239 -22.5376 -22.4582 -22.4288 -22.2853 -18.3777 -18.2700
   -18.1194 -16.9239 -16.7917 -16.7175 -14.7701 -14.7637 -14.7299 -14.4465
   -14.3957 -14.3861 -14.3770 -14.3214 -14.1663 -14.0593 -14.0491 -13.9947
   -13.9773 -13.9197 -13.8225  -8.3103  -8.2426  -8.1791  -8.0456  -7.9372
    -7.8571  -7.8339  -7.8307  -7.7508  -7.7400  -7.6343  -7.5525  -3.4637
    -3.4360  -3.3272  -3.2461  -3.1532  -2.9181  -2.9122  -2.4037  -2.3692
    -2.3426  -2.2058  -2.0882  -2.0178  -1.9740  -1.8601  -1.7501  -1.6736
    -1.5545  -1.5174  -1.3982  -1.3437  -1.2454  -1.1211  -1.0486  -0.9774
    -0.9450  -0.8182  -0.7599  -0.7551  -0.7480  -0.7031  -0.6583  -0.6342
    -0.4937  -0.3881  -0.3734   0.1373   0.2133   0.2757   0.3921   0.4835
     0.6135   0.8135   0.8505   0.9664   1.0264   1.0391   1.0576   1.2536
     1.2990   1.3247   1.3399   1.3722   1.4501   1.4850   1.5296   1.5718
     1.5813   1.6205   1.6757   1.7024   1.7429   1.7828   1.8259   1.8573
     1.9354   1.9678   2.0816   2.1299   2.1766   2.3047   2.3138   2.4581
     2.8666   2.8858   3.5055   3.5492   3.6662   3.7067   4.2577   6.3392
     6.5641   6.9142   6.9635   7.7047   7.7987   8.1441   8.7382   8.8043
     8.8476   8.9591   8.9790   9.0475   9.1255   9.5884   9.7283   9.8602
     9.8781

          k = 0.2500-0.5279 0.0000 ( 34344 PWs)   bands (ev):

   -37.1617 -35.5221 -22.5121 -22.4326 -22.4044 -22.2608 -18.4047 -18.2669
   -18.1100 -16.9740 -16.7863 -16.6779 -14.7668 -14.7495 -14.5719 -14.5448
   -14.3158 -14.3111 -14.2849 -14.2226 -14.1765 -14.1152 -14.0552 -14.0196
   -14.0155 -13.9795 -13.8192  -8.3105  -8.2429  -8.1969  -8.0530  -8.0253
    -7.9525  -7.8970  -7.8930  -7.8511  -7.7752  -7.6695  -7.6483  -3.6860
    -3.6346  -3.5627  -3.4485  -3.3471  -3.1457  -3.1404  -2.4111  -2.3825
    -2.3383  -2.1549  -2.0518  -2.0287  -1.9621  -1.9293  -1.9059  -1.7934
    -1.7063  -1.5700  -1.4304  -1.3626  -1.3054  -1.2014  -1.1383  -1.0637
    -0.9851  -0.8932  -0.8392  -0.8197  -0.7674  -0.7201  -0.6705  -0.6445
    -0.5070  -0.4124  -0.4021   0.1530   0.2495   0.3064   0.4197   0.5259
     0.6536   0.8697   0.9529   0.9900   1.0835   1.1286   1.1548   1.2426
     1.2532   1.2922   1.4003   1.4284   1.4884   1.5396   1.5422   1.5739
     1.6096   1.7465   1.7521   1.7893   1.8650   1.9591   2.0021   2.0411
     2.0718   2.0886   2.1251   2.2519   2.3644   2.4804   2.4899   2.5018
     2.6453   2.6687   3.5256   3.5696   3.6882   3.7416   4.3966   6.3711
     6.4783   6.8788   6.9286   7.7675   7.9865   8.0526   8.7715   8.8833
     8.9704   9.0174   9.2667   9.5299   9.5660   9.6603   9.8526   9.8742
     9.9173

          k = 0.3750 0.0000 0.0000 ( 34362 PWs)   bands (ev):

   -37.1699 -35.5318 -22.6352 -22.5558 -22.5228 -22.3792 -18.3515 -18.1837
   -18.1744 -16.9737 -16.8286 -16.5699 -15.0088 -14.9978 -14.9936 -14.8873
   -14.6054 -14.5921 -14.5546 -14.3452 -14.1684 -14.1539 -14.1055 -13.9912
   -13.9481 -13.8686 -13.7150  -7.9255  -7.8838  -7.7620  -7.6658  -7.6235
    -7.5550  -7.4670  -7.4463  -7.3749  -7.3341  -7.3179  -7.1755  -2.8526
    -2.8446  -2.7253  -2.6618  -2.2838  -2.2573  -2.1716  -1.7269  -1.6167
    -1.5344  -1.4721  -1.4552  -1.3827  -1.3251  -1.2521  -1.1683  -1.1668
    -1.1527  -1.1094  -1.0140  -0.9709  -0.9643  -0.8553  -0.8331  -0.8146
    -0.8086  -0.6827  -0.6668  -0.5740  -0.4878  -0.3890  -0.3728  -0.2188
    -0.1868  -0.1843  -0.1466  -0.0881   0.1143   0.1145   0.2172   0.2208
     0.2873   0.3467   0.4507   0.4531   0.4770   0.4781   0.5033   0.5282
     0.5850   0.7966   0.8948   0.9293   0.9892   1.1655   1.2318   1.2416
     1.2751   1.2851   1.3973   1.4003   1.4867   1.5558   1.5753   1.6817
     1.6834   1.7030   1.7847   1.8443   1.8585   1.9671   2.0760   2.1524
     2.1929   2.2809   2.3879   2.5619   2.6553   2.8449   2.8517   6.3783
     6.5520   6.5637   6.8424   7.4395   7.8185   8.0469   8.0504   8.1213
     8.4417   8.5220   8.6774   8.8026   8.8613   9.0888   9.1241   9.3743
     9.4954

          k = 0.3750 0.1320 0.0000 ( 34383 PWs)   bands (ev):

   -37.1684 -35.5300 -22.6135 -22.5341 -22.5018 -22.3582 -18.3476 -18.2273
   -18.1510 -16.9651 -16.7995 -16.6344 -14.9521 -14.9495 -14.9409 -14.8336
   -14.5646 -14.5472 -14.4940 -14.3424 -14.1401 -14.1321 -14.0814 -13.9749
   -13.9559 -13.9030 -13.7247  -7.9452  -7.9413  -7.8437  -7.7867  -7.7013
    -7.6928  -7.6500  -7.5360  -7.5145  -7.4666  -7.4042  -7.2687  -2.9191
    -2.9059  -2.7640  -2.7058  -2.2826  -2.2531  -2.1830  -2.0670  -1.9977
    -1.8210  -1.8084  -1.6582  -1.5693  -1.5674  -1.4360  -1.4009  -1.3801
    -1.3008  -1.2655  -1.2017  -1.1483  -1.0899  -1.0251  -0.8808  -0.7510
    -0.7417  -0.6418  -0.6150  -0.5354  -0.4829  -0.3688  -0.3634  -0.2524
    -0.2211  -0.1905  -0.0106   0.0329   0.0833   0.1354   0.2260   0.2297
     0.2710   0.2850   0.4837   0.4893   0.5015   0.5979   0.7150   0.8057
     0.8380   0.9244   1.0117   1.1247   1.1690   1.2057   1.2357   1.2747
     1.3234   1.3576   1.4071   1.4109   1.4861   1.5861   1.6110   1.6657
     1.7018   1.7640   1.7972   1.8306   1.8423   1.9279   2.0077   2.3564
     2.7899   2.8106   2.8857   2.9819   3.0408   3.1197   3.1934   6.3825
     6.7008   6.7212   6.7617   7.3760   7.8655   8.1009   8.1124   8.1381
     8.5303   8.5463   8.8302   8.9731   9.0272   9.0381   9.2746   9.3618
     9.5402

          k = 0.3750 0.2640 0.0000 ( 34389 PWs)   bands (ev):

   -37.1648 -35.5256 -22.5602 -22.4807 -22.4502 -22.3066 -18.3392 -18.2999
   -18.1248 -16.9448 -16.7787 -16.7243 -14.8273 -14.8257 -14.7944 -14.6718
   -14.4687 -14.4354 -14.3509 -14.3425 -14.0998 -14.0843 -14.0669 -13.9766
   -13.9441 -13.9211 -13.7685  -8.2430  -8.1731  -8.1109  -7.9834  -7.9215
    -7.8450  -7.8207  -7.7992  -7.7168  -7.7091  -7.6318  -7.5391  -3.2452
    -3.2204  -2.9867  -2.9456  -2.5755  -2.4543  -2.4523  -2.3729  -2.3342
    -2.3159  -2.3075  -2.2034  -2.1889  -2.1606  -1.8109  -1.7308  -1.5846
    -1.5142  -1.4953  -1.2107  -1.1581  -1.0745  -0.9486  -0.8839  -0.8448
    -0.8277  -0.7928  -0.7469  -0.6996  -0.6376  -0.6016  -0.5940  -0.5677
    -0.4388  -0.3272  -0.3240   0.0886   0.1915   0.2965   0.4301   0.5056
     0.6292   0.7409   0.7904   0.8729   0.8757   1.0321   1.0563   1.0629
     1.1463   1.2201   1.2714   1.3219   1.3792   1.4513   1.4703   1.4898
     1.5063   1.6121   1.6696   1.6899   1.6907   1.7434   1.7760   1.7947
     1.8152   1.8230   1.8749   1.8779   1.8853   2.1153   2.1664   2.3340
     3.0358   3.0487   3.6947   3.7642   3.7965   3.8459   3.9073   6.2555
     6.4555   6.7467   6.7877   7.4737   7.6912   8.1492   8.4523   8.5227
     8.6952   8.8821   8.9365   9.0230   9.4109   9.4659   9.5601   9.6694
     9.7002

          k = 0.3750 0.3960 0.0000 ( 34365 PWs)   bands (ev):

   -37.1612 -35.5213 -22.5055 -22.4260 -22.3974 -22.2538 -18.3717 -18.3265
   -18.1017 -16.9274 -16.9055 -16.6446 -14.6923 -14.6864 -14.6373 -14.4291
   -14.3868 -14.3732 -14.3197 -14.1866 -14.1801 -14.0492 -14.0329 -13.9937
   -13.9394 -13.8842 -13.8319  -8.5088  -8.4407  -8.3786  -8.2414  -8.1738
    -8.1081  -8.0163  -7.9243  -7.9184  -7.8242  -7.7969  -7.6771  -3.7145
    -3.6951  -3.4355  -3.3995  -3.2883  -2.8974  -2.8930  -2.5844  -2.5447
    -2.5191  -2.4239  -2.2321  -2.2046  -2.1662  -2.1116  -2.0407  -1.7943
    -1.7812  -1.5988  -1.2285  -1.1621  -1.1549  -1.1501  -1.0841  -0.9632
    -0.9188  -0.9109  -0.8615  -0.8342  -0.8193  -0.7740  -0.7463  -0.6469
    -0.5717  -0.3485  -0.3394   0.2249   0.3342   0.3640   0.6189   0.7175
     0.8717   1.0343   1.0704   1.2030   1.2190   1.2645   1.3196   1.3749
     1.4055   1.4476   1.5218   1.5316   1.5444   1.5983   1.6327   1.7053
     1.7429   1.7835   1.8169   1.8530   1.8786   1.9290   1.9601   2.0098
     2.0459   2.0644   2.1332   2.2245   2.2273   2.2276   2.4513   2.4733
     2.8570   2.8714   4.1418   4.2505   4.3043   4.3588   4.3835   5.9312
     6.2096   6.4436   6.4808   7.4241   7.8408   8.2341   8.7478   8.8430
     9.0244   9.0572   9.2320   9.3130   9.4571   9.5345   9.5603   9.6087
     9.7082

          k = 0.3750-0.5279 0.0000 ( 34392 PWs)   bands (ev):

   -37.1597 -35.5195 -22.4825 -22.4029 -22.3752 -22.2316 -18.3988 -18.3233
   -18.0922 -16.9607 -16.9148 -16.6091 -14.6310 -14.6211 -14.5477 -14.4325
   -14.3501 -14.2792 -14.2359 -14.2209 -14.0980 -14.0422 -14.0266 -14.0115
   -14.0076 -13.9206 -13.8026  -8.5908  -8.5227  -8.4730  -8.3295  -8.3190
    -8.2554  -8.1697  -7.9728  -7.9500  -7.9000  -7.8202  -7.6924  -3.9193
    -3.8967  -3.6443  -3.6230  -3.5288  -3.1227  -3.1189  -2.6029  -2.5541
    -2.5370  -2.4351  -2.2264  -2.2146  -2.1982  -2.1648  -2.1471  -1.8792
    -1.8744  -1.6211  -1.2989  -1.2520  -1.2336  -1.1891  -1.1424  -1.0432
    -0.9556  -0.9111  -0.9069  -0.8936  -0.8807  -0.8339  -0.8154  -0.6722
    -0.5395  -0.3342  -0.3264   0.2570   0.3629   0.3861   0.6826   0.8202
     0.9588   1.1625   1.2219   1.3133   1.3207   1.3538   1.3553   1.3971
     1.4303   1.5159   1.5815   1.6058   1.6527   1.6835   1.7911   1.8123
     1.8195   1.8772   1.8804   1.9200   1.9718   2.0739   2.0858   2.1028
     2.1881   2.2178   2.2801   2.3360   2.4138   2.4170   2.5411   2.6142
     2.6237   2.6307   4.2254   4.3857   4.4565   4.5044   4.5309   5.7459
     6.1485   6.2658   6.3189   7.3322   8.1055   8.1751   8.7493   8.8219
     9.0133   9.1669   9.3055   9.3416   9.4194   9.5571   9.5979   9.8295
     9.8641

          k =-0.5000 0.0000 0.0000 ( 34370 PWs)   bands (ev):

   -37.1691 -35.5307 -22.6160 -22.5365 -22.5047 -22.3609 -18.3729 -18.1826
   -18.1670 -17.0261 -16.7864 -16.5685 -15.0576 -15.0444 -15.0269 -14.8170
   -14.6211 -14.5034 -14.4175 -14.3443 -14.2732 -14.1509 -14.1498 -14.0349
   -14.0258 -13.8806 -13.7289  -7.9264  -7.8735  -7.7462  -7.6480  -7.6003
    -7.5369  -7.4521  -7.4101  -7.3383  -7.3220  -7.2848  -7.1419  -2.9883
    -2.9849  -2.8667  -2.8056  -2.3087  -2.2911  -2.1696  -1.6422  -1.6057
    -1.5691  -1.5310  -1.3831  -1.3346  -1.3293  -1.3147  -1.1929  -1.1819
    -1.1722  -1.1703  -1.1294  -1.1278  -1.0406  -0.9466  -0.9126  -0.8565
    -0.8363  -0.7662  -0.7518  -0.6408  -0.5037  -0.4543  -0.4258  -0.2305
    -0.1804  -0.1726  -0.1696  -0.1508   0.1089   0.1091   0.1791   0.2289
     0.2754   0.3535   0.4408   0.4507   0.4528   0.4761   0.5002   0.5251
     0.5835   0.8049   0.8801   0.9198   0.9402   1.1815   1.1920   1.2375
     1.4147   1.4188   1.4402   1.4456   1.5148   1.5746   1.6390   1.6681
     1.7014   1.7102   1.7973   1.8691   1.9177   2.0050   2.0674   2.1686
     2.2023   2.2671   2.3922   2.5647   2.6736   2.8597   2.8878   6.9515
     6.9814   6.9870   7.3245   7.3601   7.3767   7.3995   8.0687   8.3184
     8.4951   8.5940   9.0810   9.0916   9.0978   9.1402   9.1998   9.5039
     9.6081

          k =-0.5000 0.1320 0.0000 ( 34378 PWs)   bands (ev):

   -37.1676 -35.5289 -22.5952 -22.5157 -22.4845 -22.3408 -18.3689 -18.2256
   -18.1443 -17.0169 -16.7589 -16.6322 -14.9986 -14.9869 -14.9572 -14.7712
   -14.5809 -14.4640 -14.4089 -14.3034 -14.2153 -14.1287 -14.1277 -14.0242
   -14.0034 -13.9180 -13.7319  -7.9411  -7.9126  -7.7916  -7.7297  -7.6727
    -7.6667  -7.6131  -7.5757  -7.5356  -7.4994  -7.4406  -7.3548  -3.0608
    -3.0541  -2.9117  -2.8575  -2.3137  -2.2930  -2.1912  -2.0266  -1.9653
    -1.7693  -1.7650  -1.6484  -1.5639  -1.5623  -1.4957  -1.4664  -1.4468
    -1.3801  -1.3428  -1.2556  -1.2300  -1.1963  -1.0411  -0.8951  -0.8219
    -0.8114  -0.6519  -0.6340  -0.5714  -0.5021  -0.4050  -0.3985  -0.2473
    -0.2448  -0.2379  -0.0250   0.0333   0.0939   0.1360   0.2280   0.2318
     0.2758   0.3606   0.3896   0.5620   0.5646   0.5916   0.6544   0.7285
     0.8196   0.9237   1.0263   1.1115   1.1313   1.2160   1.2338   1.3269
     1.3359   1.3531   1.4601   1.4705   1.5653   1.6432   1.6707   1.6856
     1.7639   1.7911   1.7943   1.8520   1.9250   1.9691   2.0947   2.3316
     2.7969   2.8048   2.9047   3.0002   3.0602   3.1520   3.2467   6.7654
     6.7724   7.1029   7.1722   7.2088   7.6794   7.7108   8.1335   8.2244
     8.5172   8.5535   9.0541   9.1860   9.3279   9.3447   9.4750   9.5909
     9.7181

          k =-0.5000 0.2640 0.0000 ( 34396 PWs)   bands (ev):

   -37.1640 -35.5246 -22.5443 -22.4647 -22.4350 -22.2913 -18.3593 -18.2999
   -18.1177 -16.9949 -16.7754 -16.6879 -14.8462 -14.8355 -14.7713 -14.6452
   -14.4848 -14.3929 -14.3715 -14.1999 -14.1183 -14.0778 -14.0762 -14.0214
   -13.9846 -13.9262 -13.7623  -8.1818  -8.1050  -8.0716  -8.0309  -7.9685
    -7.9260  -7.8720  -7.8626  -7.8418  -7.7411  -7.7093  -7.6305  -3.3812
    -3.3588  -3.1225  -3.0906  -2.5664  -2.4797  -2.4740  -2.3976  -2.3472
    -2.3257  -2.3233  -2.2113  -2.2017  -2.1666  -1.9304  -1.8523  -1.6275
    -1.6093  -1.5803  -1.1387  -1.0870  -0.9955  -0.9213  -0.9133  -0.8904
    -0.8793  -0.8167  -0.7769  -0.7250  -0.6543  -0.6267  -0.6221  -0.5820
    -0.4426  -0.3472  -0.3320   0.1071   0.2076   0.3331   0.4939   0.5497
     0.6808   0.7807   0.8554   0.9000   0.9031   1.0947   1.1216   1.1379
     1.1634   1.2231   1.2382   1.2499   1.4241   1.4714   1.5099   1.5397
     1.5853   1.6212   1.6662   1.7237   1.7468   1.7648   1.8090   1.8587
     1.8767   1.8925   1.9075   1.9588   1.9844   2.0230   2.2558   2.2766
     3.0291   3.0406   3.7284   3.8901   3.9134   3.9712   4.0381   6.2516
     6.3910   6.7424   6.7583   7.4880   7.6225   8.1504   8.4901   8.5513
     8.7047   8.9751   9.0717   9.1787   9.6344   9.6469   9.6527   9.8546
     9.9115

          k =-0.5000 0.3960 0.0000 ( 34384 PWs)   bands (ev):

   -37.1604 -35.5203 -22.4921 -22.4125 -22.3843 -22.2407 -18.3687 -18.3498
   -18.0946 -16.9733 -16.9046 -16.6122 -14.6632 -14.6549 -14.5976 -14.4371
   -14.3886 -14.3840 -14.2940 -14.1727 -14.0908 -14.0296 -14.0259 -14.0201
   -13.9248 -13.8721 -13.8406  -8.5570  -8.4877  -8.4341  -8.3189  -8.2905
    -8.2568  -8.1670  -7.9546  -7.9431  -7.9371  -7.8110  -7.6834  -3.8457
    -3.8266  -3.5459  -3.5135  -3.2891  -2.8889  -2.8851  -2.6541  -2.6065
    -2.5926  -2.4935  -2.2484  -2.2316  -2.2101  -2.1783  -2.1318  -1.8626
    -1.8300  -1.6489  -1.1870  -1.1556  -1.1547  -1.0597  -1.0206  -1.0002
    -0.9512  -0.9434  -0.9174  -0.8757  -0.8396  -0.8095  -0.7342  -0.7224
    -0.5507  -0.3104  -0.3026   0.2507   0.3619   0.4133   0.7272   0.8142
     0.9789   1.1436   1.1499   1.3164   1.3286   1.3597   1.3797   1.4259
     1.4377   1.4442   1.5734   1.6090   1.6116   1.6184   1.6401   1.7613
     1.7844   1.8247   1.8959   1.9004   1.9232   1.9720   2.0368   2.0464
     2.1015   2.1207   2.1957   2.1959   2.2568   2.3252   2.4207   2.5796
     2.8455   2.8568   4.1528   4.4856   4.5582   4.6130   4.6277   5.7194
     6.1468   6.2474   6.2527   7.2737   7.9341   8.1661   8.7875   8.8858
     8.9690   9.0699   9.1847   9.4079   9.4831   9.4952   9.6192   9.6797
     9.7812

          k =-0.5000-0.5279 0.0000 ( 34420 PWs)   bands (ev):

   -37.1589 -35.5185 -22.4701 -22.3905 -22.3629 -22.2193 -18.3964 -18.3458
   -18.0852 -16.9645 -16.9552 -16.5788 -14.5654 -14.5616 -14.5404 -14.3904
   -14.3825 -14.2766 -14.2202 -14.2179 -14.0470 -14.0202 -14.0059 -14.0038
   -13.9989 -13.8845 -13.8130  -8.7030  -8.6346  -8.5851  -8.4412  -8.4350
    -8.3729  -8.2890  -8.0496  -7.9703  -7.9553  -7.8373  -7.7005  -4.0510
    -4.0306  -3.7505  -3.7177  -3.5515  -3.1132  -3.1099  -2.6866  -2.6297
    -2.6243  -2.5203  -2.3005  -2.2385  -2.2219  -2.2192  -2.1780  -1.9418
    -1.8982  -1.6709  -1.3012  -1.2685  -1.2002  -1.1235  -1.0883  -1.0310
    -0.9756  -0.9718  -0.9344  -0.9293  -0.9171  -0.8821  -0.8348  -0.7520
    -0.5078  -0.2816  -0.2759   0.2871   0.3954   0.4308   0.8092   0.9563
     1.0996   1.2318   1.3933   1.4067   1.4152   1.4168   1.4460   1.4478
     1.4789   1.5566   1.6107   1.6113   1.6828   1.7112   1.8784   1.8935
     1.9301   1.9843   1.9999   2.0062   2.0239   2.1040   2.1072   2.1688
     2.1995   2.2515   2.3884   2.3887   2.4238   2.4779   2.5905   2.5925
     2.6023   2.7431   4.2309   4.6752   4.7623   4.8198   4.8301   5.4879
     6.0203   6.0232   6.0931   7.1686   8.1106   8.1718   8.8181   8.8429
     9.0184   9.0678   9.1179   9.1424   9.3459   9.4198   9.5138   9.6174
     9.8300

     the Fermi energy is     2.6154 ev

!    total energy              =   -1842.83399535 Ry
     Harris-Foulkes estimate   =   -1842.83399536 Ry
     estimated scf accuracy    <          5.8E-11 Ry

     The total energy is the sum of the following terms:

     one-electron contribution =  -30220.00021667 Ry
     hartree contribution      =   15262.91045904 Ry
     xc contribution           =    -621.64220397 Ry
     ewald contribution        =   13735.90637939 Ry
     smearing contrib. (-TS)   =      -0.00841314 Ry

     convergence has been achieved in  39 iterations

     negative rho (up, down):  1.516E-03 0.000E+00

     Forces acting on atoms (cartesian axes, Ry/au):

     atom    1 type  4   force =     0.00000000    0.00000000   -0.00016176
     atom    2 type  3   force =     0.00000000    0.00000000    0.00039011
     atom    3 type  4   force =     0.00000000    0.00000000   -0.00076141
     atom    4 type  1   force =     0.00000000    0.00000000   -0.00028785
     atom    5 type  3   force =     0.00000000    0.00000000    0.00054456
     atom    6 type  4   force =     0.00000000    0.00000000   -0.00001297
     atom    7 type  4   force =     0.00000000    0.00000000    0.00033859
     atom    8 type  2   force =     0.00000000    0.00000000   -0.00058838
     atom    9 type  4   force =     0.00000000    0.00000000    0.00021871
     atom   10 type  4   force =     0.00000000    0.00000000    0.00023735
     atom   11 type  3   force =     0.00000000    0.00000000    0.00023011
     atom   12 type  1   force =     0.00000000    0.00000000    0.00015841
     atom   13 type  4   force =     0.00000000    0.00000000    0.00205650
     atom   14 type  4   force =     0.00000000    0.00000000    0.00162737
     atom   15 type  3   force =     0.00000000    0.00000000   -0.00262126
     atom   16 type  4   force =     0.00000000    0.00000000    0.00075298
     atom   17 type  1   force =     0.00000000    0.00000000   -0.00874384
     atom   18 type  3   force =     0.00000000    0.00000000    0.00104086
     atom   19 type  4   force =     0.00000000    0.00000000    0.03139299
     atom   20 type  4   force =     0.00000000    0.00000000    0.03571793
     atom   21 type  2   force =     0.00000000    0.00000000    0.00766556
     atom   22 type  4   force =     0.00000000    0.00000000   -0.02272558
     atom   23 type  4   force =     0.00000000    0.00000000   -0.01812555
     atom   24 type  3   force =     0.00000000    0.00000000   -0.01380946
     atom   25 type  1   force =     0.00000000    0.00000000   -0.01443793
     atom   26 type  4   force =     0.00000000    0.00000000    0.00015689
     atom   27 type  3   force =     0.00000000    0.00000000   -0.00009484
     atom   28 type  4   force =     0.00000000    0.00000000   -0.00015811

     Total force =     0.058599     Total SCF correction =     0.000014


     Computing stress (Cartesian axis) and pressure


     negative rho (up, down):  1.516E-03 0.000E+00
          total   stress  (Ry/bohr**3)                   (kbar)     P=       -6.42
  -0.00001131   0.00000000   0.00000000           -1.66        0.00        0.00
   0.00000000   0.00000220   0.00000000            0.00        0.32        0.00
   0.00000000   0.00000000  -0.00012175            0.00        0.00      -17.91


     number of scf cycles    =   4
     number of bfgs steps    =   1

     energy   old            =   -1842.8869342713 Ry
     energy   new            =   -1842.8339953545 Ry

     CASE: energy  _new > energy  _old

     new trust radius        =       0.1521121845 bohr
     new conv_thr            =            1.0E-10 Ry


ATOMIC_POSITIONS (angstrom)
O             0.0000000000        1.8611200000       -0.1863526851    0   0   0
Cu            0.0000000000        0.0000000000        0.1049558672    0   0   0
O             0.0000000000        0.0000000000        1.9958168681    0   0   0
Ba            1.9651100000        1.8611200000        2.2573990279    0   0   0
Cu            0.0000000000        0.0000000000        4.1155761379    0   0   0
O             1.9651100000        0.0000000000        4.2718188642    0   0   0
O             0.0000000000        1.8611200000        4.4102257551    0   0   0
Ca            1.9651100000        1.8611200000        5.9412409525    0   0   0
O             0.0000000000        1.8611200000        7.4056064489    0   0   0
O             1.9651100000        0.0000000000        7.5550055439    0   0   0
Cu            0.0000000000        0.0000000000        7.7408333487    0   0   0
Ba            1.9651100000        1.8611200000        9.6383865732    0   0   0
O             0.0000000000        0.0000000000        9.9635297155    0   0   0
O             0.0000000000        1.8611200000       11.8689965194    0   0   0
Cu            0.0000000000        0.0000000000       11.8692185842    0   0   0
O             0.0000000000        0.0000000000       13.9828771887
Ba            1.9651100000        1.8611200000       14.3079900494
Cu            0.0000000000        0.0000000000       16.2054726169
O             1.9651100000        0.0000000000       16.3913004217
O             0.0000000000        1.8611200000       16.5406793291
Ca            1.9651100000        1.8611200000       18.0050852009
O             0.0000000000        1.8611200000       19.6690685464
O             1.9651100000        0.0000000000       19.8074754373
Cu            0.0000000000        0.0000000000       19.9637282574
Ba            1.9651100000        1.8611200000       21.8218952736    0   0   0
O             0.0000000000        0.0000000000       22.0834370580    0   0   0
Cu            0.0000000000        0.0000000000       23.9743182466    0   0   0
O             0.0000000000        1.8611200000       24.2655763297    0   0   0


     NEW-OLD atomic charge density approx. for the potential

     negative rho (up, down):  1.141E-02 0.000E+00

     total cpu time spent up to now is      696.7 secs

     Self-consistent Calculation

     iteration #  1     ecut=    60.00 Ry     beta= 0.70
     Davidson diagonalization with overlap
     c_bands:  1 eigenvalues not converged
     c_bands:  2 eigenvalues not converged
     c_bands:  2 eigenvalues not converged
     c_bands:  1 eigenvalues not converged
     c_bands:  1 eigenvalues not converged
     c_bands:  2 eigenvalues not converged
     c_bands:  1 eigenvalues not converged
     c_bands:  1 eigenvalues not converged
     c_bands:  1 eigenvalues not converged
     c_bands:  2 eigenvalues not converged
     c_bands:  1 eigenvalues not converged
     c_bands:  1 eigenvalues not converged
     ethr =  1.00E-06,  avg # of iterations = 18.2

     negative rho (up, down):  4.088E-03 0.000E+00

     total cpu time spent up to now is      762.5 secs

     total energy              =   -1842.83758762 Ry
     Harris-Foulkes estimate   =   -1842.97664469 Ry
     estimated scf accuracy    <       1.98408183 Ry

     iteration #  2     ecut=    60.00 Ry     beta= 0.70
     Davidson diagonalization with overlap
     ethr =  8.74E-04,  avg # of iterations =  1.0

     negative rho (up, down):  3.525E-03 0.000E+00

     total cpu time spent up to now is      776.7 secs

     total energy              =   -1842.78706799 Ry
     Harris-Foulkes estimate   =   -1842.96560208 Ry
     estimated scf accuracy    <       1.69883300 Ry

     iteration #  3     ecut=    60.00 Ry     beta= 0.70
     Davidson diagonalization with overlap
     ethr =  7.48E-04,  avg # of iterations =  1.8

     negative rho (up, down):  1.816E-03 0.000E+00

     total cpu time spent up to now is      791.9 secs

     total energy              =   -1842.86681944 Ry
     Harris-Foulkes estimate   =   -1842.93959560 Ry
     estimated scf accuracy    <       1.32285794 Ry

     iteration #  4     ecut=    60.00 Ry     beta= 0.70
     Davidson diagonalization with overlap
     ethr =  5.83E-04,  avg # of iterations =  1.0

     negative rho (up, down):  1.965E-03 0.000E+00

     total cpu time spent up to now is      806.3 secs

     total energy              =   -1842.87088967 Ry
     Harris-Foulkes estimate   =   -1842.91311637 Ry
     estimated scf accuracy    <       3.48106628 Ry

     iteration #  5     ecut=    60.00 Ry     beta= 0.70
     Davidson diagonalization with overlap
     ethr =  5.83E-04,  avg # of iterations =  1.0

     negative rho (up, down):  1.638E-03 0.000E+00

     total cpu time spent up to now is      820.9 secs

     total energy              =   -1842.87902082 Ry
     Harris-Foulkes estimate   =   -1842.89022088 Ry
     estimated scf accuracy    <       0.22936364 Ry

     iteration #  6     ecut=    60.00 Ry     beta= 0.70
     Davidson diagonalization with overlap
     c_bands:  1 eigenvalues not converged
     ethr =  1.01E-04,  avg # of iterations = 11.8

     negative rho (up, down):  1.078E-03 0.000E+00

     total cpu time spent up to now is      848.8 secs

     total energy              =   -1842.88121239 Ry
     Harris-Foulkes estimate   =   -1842.88685567 Ry
     estimated scf accuracy    <       0.14085146 Ry

     iteration #  7     ecut=    60.00 Ry     beta= 0.70
     Davidson diagonalization with overlap
     ethr =  6.20E-05,  avg # of iterations =  1.1

     negative rho (up, down):  7.586E-04 0.000E+00

     total cpu time spent up to now is      862.9 secs

     total energy              =   -1842.88309153 Ry
     Harris-Foulkes estimate   =   -1842.88560759 Ry
     estimated scf accuracy    <       0.25511663 Ry

     iteration #  8     ecut=    60.00 Ry     beta= 0.70
     Davidson diagonalization with overlap
     ethr =  6.20E-05,  avg # of iterations =  1.0

     negative rho (up, down):  6.214E-04 0.000E+00

     total cpu time spent up to now is      877.0 secs

     total energy              =   -1842.88299428 Ry
     Harris-Foulkes estimate   =   -1842.88394334 Ry
     estimated scf accuracy    <       0.07765915 Ry

     iteration #  9     ecut=    60.00 Ry     beta= 0.70
     Davidson diagonalization with overlap
     ethr =  3.42E-05,  avg # of iterations =  4.5

     negative rho (up, down):  6.127E-04 0.000E+00

     total cpu time spent up to now is      895.5 secs

     total energy              =   -1842.88300058 Ry
     Harris-Foulkes estimate   =   -1842.88342913 Ry
     estimated scf accuracy    <       0.03192560 Ry

     iteration # 10     ecut=    60.00 Ry     beta= 0.70
     Davidson diagonalization with overlap
     c_bands:  1 eigenvalues not converged
     ethr =  1.41E-05,  avg # of iterations =  8.2

     negative rho (up, down):  6.136E-04 0.000E+00

     total cpu time spent up to now is      917.8 secs

     total energy              =   -1842.88313952 Ry
     Harris-Foulkes estimate   =   -1842.88323746 Ry
     estimated scf accuracy    <       0.02084807 Ry

     iteration # 11     ecut=    60.00 Ry     beta= 0.70
     Davidson diagonalization with overlap
     ethr =  9.18E-06,  avg # of iterations =  3.7

     negative rho (up, down):  6.816E-04 0.000E+00

     total cpu time spent up to now is      935.4 secs

     total energy              =   -1842.88311290 Ry
     Harris-Foulkes estimate   =   -1842.88318210 Ry
     estimated scf accuracy    <       0.00978972 Ry

     iteration # 12     ecut=    60.00 Ry     beta= 0.70
     Davidson diagonalization with overlap
     c_bands:  1 eigenvalues not converged
     ethr =  4.31E-06,  avg # of iterations =  5.4

     negative rho (up, down):  7.378E-04 0.000E+00

     total cpu time spent up to now is      954.8 secs

     total energy              =   -1842.88311365 Ry
     Harris-Foulkes estimate   =   -1842.88313849 Ry
     estimated scf accuracy    <       0.00627006 Ry

     iteration # 13     ecut=    60.00 Ry     beta= 0.70
     Davidson diagonalization with overlap
     ethr =  2.76E-06,  avg # of iterations =  3.4

     negative rho (up, down):  8.204E-04 0.000E+00

     total cpu time spent up to now is      971.7 secs

     total energy              =   -1842.88310118 Ry
     Harris-Foulkes estimate   =   -1842.88312356 Ry
     estimated scf accuracy    <       0.00314590 Ry

     iteration # 14     ecut=    60.00 Ry     beta= 0.70
     Davidson diagonalization with overlap
     ethr =  1.39E-06,  avg # of iterations =  2.5

     negative rho (up, down):  9.908E-04 0.000E+00

     total cpu time spent up to now is      987.7 secs

     total energy              =   -1842.88308084 Ry
     Harris-Foulkes estimate   =   -1842.88311224 Ry
     estimated scf accuracy    <       0.00230599 Ry

     iteration # 15     ecut=    60.00 Ry     beta= 0.70
     Davidson diagonalization with overlap
     ethr =  1.02E-06,  avg # of iterations =  1.1

     negative rho (up, down):  1.003E-03 0.000E+00

     total cpu time spent up to now is     1002.3 secs

     total energy              =   -1842.88309553 Ry
     Harris-Foulkes estimate   =   -1842.88309939 Ry
     estimated scf accuracy    <       0.00010634 Ry

     iteration # 16     ecut=    60.00 Ry     beta= 0.70
     Davidson diagonalization with overlap
     ethr =  4.68E-08,  avg # of iterations =  1.1

     negative rho (up, down):  1.023E-03 0.000E+00

     total cpu time spent up to now is     1016.5 secs

     total energy              =   -1842.88309715 Ry
     Harris-Foulkes estimate   =   -1842.88309791 Ry
     estimated scf accuracy    <       0.00003530 Ry

     iteration # 17     ecut=    60.00 Ry     beta= 0.70
     Davidson diagonalization with overlap
     ethr =  1.55E-08,  avg # of iterations =  1.1

     negative rho (up, down):  1.065E-03 0.000E+00

     total cpu time spent up to now is     1030.9 secs

     total energy              =   -1842.88309705 Ry
     Harris-Foulkes estimate   =   -1842.88309765 Ry
     estimated scf accuracy    <       0.00002145 Ry

     iteration # 18     ecut=    60.00 Ry     beta= 0.70
     Davidson diagonalization with overlap
     ethr =  9.45E-09,  avg # of iterations =  1.0

     negative rho (up, down):  1.130E-03 0.000E+00

     total cpu time spent up to now is     1045.0 secs

     total energy              =   -1842.88309675 Ry
     Harris-Foulkes estimate   =   -1842.88309730 Ry
     estimated scf accuracy    <       0.00001060 Ry

     iteration # 19     ecut=    60.00 Ry     beta= 0.70
     Davidson diagonalization with overlap
     ethr =  4.67E-09,  avg # of iterations =  1.0

     negative rho (up, down):  1.191E-03 0.000E+00

     total cpu time spent up to now is     1059.2 secs

     total energy              =   -1842.88309650 Ry
     Harris-Foulkes estimate   =   -1842.88309701 Ry
     estimated scf accuracy    <       0.00000675 Ry

     iteration # 20     ecut=    60.00 Ry     beta= 0.70
     Davidson diagonalization with overlap
     ethr =  2.97E-09,  avg # of iterations =  1.0

     negative rho (up, down):  1.220E-03 0.000E+00

     total cpu time spent up to now is     1073.2 secs

     total energy              =   -1842.88309659 Ry
     Harris-Foulkes estimate   =   -1842.88309675 Ry
     estimated scf accuracy    <       0.00000994 Ry

     iteration # 21     ecut=    60.00 Ry     beta= 0.70
     Davidson diagonalization with overlap
     ethr =  2.97E-09,  avg # of iterations =  1.0

     negative rho (up, down):  1.227E-03 0.000E+00

     total cpu time spent up to now is     1087.8 secs

     total energy              =   -1842.88309657 Ry
     Harris-Foulkes estimate   =   -1842.88309664 Ry
     estimated scf accuracy    <       0.00000964 Ry

     iteration # 22     ecut=    60.00 Ry     beta= 0.70
     Davidson diagonalization with overlap
     ethr =  2.97E-09,  avg # of iterations =  1.0

     negative rho (up, down):  1.357E-03 0.000E+00

     total cpu time spent up to now is     1102.0 secs

     total energy              =   -1842.88309597 Ry
     Harris-Foulkes estimate   =   -1842.88309662 Ry
     estimated scf accuracy    <       0.00000794 Ry

     iteration # 23     ecut=    60.00 Ry     beta= 0.70
     Davidson diagonalization with overlap
     ethr =  2.97E-09,  avg # of iterations =  1.0

     negative rho (up, down):  1.389E-03 0.000E+00

     total cpu time spent up to now is     1115.9 secs

     total energy              =   -1842.88309591 Ry
     Harris-Foulkes estimate   =   -1842.88309610 Ry
     estimated scf accuracy    <       0.00000910 Ry

     iteration # 24     ecut=    60.00 Ry     beta= 0.70
     Davidson diagonalization with overlap
     ethr =  2.97E-09,  avg # of iterations =  1.0

     negative rho (up, down):  1.442E-03 0.000E+00

     total cpu time spent up to now is     1130.0 secs

     total energy              =   -1842.88309584 Ry
     Harris-Foulkes estimate   =   -1842.88309599 Ry
     estimated scf accuracy    <       0.00000151 Ry

     iteration # 25     ecut=    60.00 Ry     beta= 0.70
     Davidson diagonalization with overlap
     ethr =  6.65E-10,  avg # of iterations =  1.0

     negative rho (up, down):  1.465E-03 0.000E+00

     total cpu time spent up to now is     1144.2 secs

     total energy              =   -1842.88309579 Ry
     Harris-Foulkes estimate   =   -1842.88309586 Ry
     estimated scf accuracy    <       0.00000181 Ry

     iteration # 26     ecut=    60.00 Ry     beta= 0.70
     Davidson diagonalization with overlap
     ethr =  6.65E-10,  avg # of iterations =  1.0

     negative rho (up, down):  1.503E-03 0.000E+00

     total cpu time spent up to now is     1158.1 secs

     total energy              =   -1842.88309570 Ry
     Harris-Foulkes estimate   =   -1842.88309580 Ry
     estimated scf accuracy    <       0.00000148 Ry

     iteration # 27     ecut=    60.00 Ry     beta= 0.70
     Davidson diagonalization with overlap
     ethr =  6.51E-10,  avg # of iterations =  1.0

     negative rho (up, down):  1.526E-03 0.000E+00

     total cpu time spent up to now is     1172.2 secs

     total energy              =   -1842.88309563 Ry
     Harris-Foulkes estimate   =   -1842.88309571 Ry
     estimated scf accuracy    <       0.00000071 Ry

     iteration # 28     ecut=    60.00 Ry     beta= 0.70
     Davidson diagonalization with overlap
     ethr =  3.11E-10,  avg # of iterations =  1.0

     negative rho (up, down):  1.516E-03 0.000E+00

     total cpu time spent up to now is     1186.4 secs

     total energy              =   -1842.88309566 Ry
     Harris-Foulkes estimate   =   -1842.88309566 Ry
     estimated scf accuracy    <       0.00000004 Ry

     iteration # 29     ecut=    60.00 Ry     beta= 0.70
     Davidson diagonalization with overlap
     ethr =  1.62E-11,  avg # of iterations =  2.5

     negative rho (up, down):  1.528E-03 0.000E+00

     total cpu time spent up to now is     1202.7 secs

     total energy              =   -1842.88309565 Ry
     Harris-Foulkes estimate   =   -1842.88309567 Ry
     estimated scf accuracy    <       0.00000005 Ry

     iteration # 30     ecut=    60.00 Ry     beta= 0.70
     Davidson diagonalization with overlap
[...]

   -35.8088 -35.6595 -22.6348 -22.6337 -22.5708 -22.3177 -17.1497 -17.0332
   -17.0274 -16.9363 -16.9072 -16.8252 -14.7707 -14.7680 -14.4699 -14.4539
   -14.4261 -14.3819 -14.3466 -14.2177 -14.2144 -14.1186 -14.1098 -14.0595
   -14.0080 -13.8962 -13.6943  -8.3976  -8.3971  -8.2880  -8.0517  -8.0206
    -8.0138  -7.9318  -7.9217  -7.9205  -7.8467  -7.6909  -7.5716  -3.4824
    -3.4578  -3.3280  -3.1993  -3.1859  -2.9702  -2.9689  -2.4037  -2.3954
    -2.2051  -2.1604  -2.0950  -2.0871  -1.9092  -1.8111  -1.7952  -1.7176
    -1.6393  -1.5127  -1.4289  -1.3939  -1.2092  -1.1610  -1.1018  -0.8852
    -0.8572  -0.8143  -0.8080  -0.8027  -0.7893  -0.7870  -0.5429  -0.5356
    -0.5195  -0.4185  -0.4018   0.1027   0.1840   0.2273   0.3667   0.4186
     0.6392   0.7825   0.8419   0.9534   0.9551   1.0073   1.0150   1.2276
     1.2418   1.2584   1.2826   1.2983   1.3119   1.4150   1.4821   1.5075
     1.5526   1.5678   1.6164   1.6859   1.7052   1.7759   1.7947   1.8119
     1.8570   1.9132   1.9292   2.0559   2.0963   2.2375   2.2389   2.4190
     2.7680   2.7722   3.4809   3.4849   3.6114   3.6368   4.0109   6.5761
     6.8332   6.8390   7.5489   7.6752   8.6913   8.7479   8.7773   8.7965
     9.0096   9.0551   9.4972   9.6094   9.6371   9.7033   9.7451   9.8351
     9.8670

          k = 0.2500-0.5279 0.0000 ( 34344 PWs)   bands (ev):

   -35.8071 -35.6577 -22.6097 -22.6087 -22.5475 -22.2939 -17.1934 -17.0807
   -17.0225 -16.9047 -16.9021 -16.7887 -14.7582 -14.7576 -14.3905 -14.3836
   -14.3388 -14.3125 -14.2798 -14.2391 -14.2080 -14.1440 -14.0901 -14.0882
   -14.0749 -13.9322 -13.7091  -8.3992  -8.3981  -8.3154  -8.1100  -8.1083
    -8.0568  -7.9881  -7.9845  -7.9774  -7.9190  -7.7082  -7.6798  -3.6843
    -3.6569  -3.5918  -3.3885  -3.3814  -3.1972  -3.1958  -2.3996  -2.3922
    -2.1861  -2.1122  -2.0594  -2.0447  -1.9753  -1.9553  -1.8895  -1.8629
    -1.7787  -1.5510  -1.4591  -1.4291  -1.2801  -1.2454  -1.1984  -0.9672
    -0.9397  -0.8880  -0.8769  -0.8544  -0.8088  -0.8044  -0.5554  -0.5418
    -0.5081  -0.4431  -0.4297   0.1395   0.2190   0.2391   0.3870   0.4500
     0.6684   0.8362   0.9602   1.0299   1.0372   1.0585   1.0618   1.1772
     1.1828   1.2640   1.3263   1.3571   1.4149   1.4520   1.4690   1.4736
     1.5527   1.6800   1.7069   1.8644   1.8988   1.9196   1.9746   1.9780
     2.0135   2.0217   2.0723   2.0828   2.2650   2.4139   2.4152   2.4642
     2.5412   2.5471   3.4967   3.5048   3.6425   3.6691   4.1296   6.4946
     6.7947   6.8016   7.4967   7.6396   8.7436   8.7463   9.0624   9.1767
     9.4557   9.4816   9.5332   9.6877   9.7529   9.8062   9.8727   9.9582
    10.0063

          k = 0.3750 0.0000 0.0000 ( 34362 PWs)   bands (ev):

   -35.8164 -35.6672 -22.7310 -22.7298 -22.6617 -22.4098 -17.1788 -17.0772
   -17.0315 -16.9284 -16.8493 -16.7036 -15.0083 -15.0039 -14.8709 -14.6680
   -14.6583 -14.6380 -14.6003 -14.2289 -14.2260 -14.1585 -14.1426 -13.9902
   -13.9511 -13.9183 -13.6399  -7.9872  -7.9794  -7.9716  -7.7149  -7.7089
    -7.7085  -7.6334  -7.5322  -7.5311  -7.4299  -7.3369  -7.1895  -2.8833
    -2.8681  -2.7113  -2.6921  -2.2536  -2.2508  -1.9442  -1.6741  -1.6676
    -1.5486  -1.5418  -1.5397  -1.5189  -1.2221  -1.2204  -1.1902  -1.1368
    -1.1023  -1.0811  -1.0279  -1.0127  -0.9026  -0.8969  -0.8875  -0.8639
    -0.7752  -0.6752  -0.6728  -0.5155  -0.4276  -0.3898  -0.3502  -0.2995
    -0.2580  -0.2535  -0.1027  -0.0526   0.0654   0.0671   0.1666   0.1796
     0.2788   0.4083   0.4177   0.4189   0.4276   0.4545   0.4819   0.5240
     0.5739   0.7132   0.7324   0.8912   0.9347   1.1109   1.1509   1.1526
     1.2110   1.2265   1.3050   1.3117   1.4695   1.4967   1.5180   1.5824
     1.6256   1.7253   1.7354   1.7506   1.7947   1.8843   1.9096   2.1034
     2.1311   2.2360   2.3657   2.5200   2.5588   2.7448   2.7586   6.4735
     6.4745   6.8488   7.6049   7.7213   7.9693   7.9711   8.3248   8.4344
     8.5136   8.6983   9.2412   9.2927   9.3084   9.3200   9.4170   9.4439
     9.4833

          k = 0.3750 0.1320 0.0000 ( 34383 PWs)   bands (ev):

   -35.8147 -35.6655 -22.7096 -22.7084 -22.6415 -22.3892 -17.1717 -17.0692
   -17.0075 -16.9018 -16.9010 -16.7631 -14.9594 -14.9552 -14.8037 -14.6278
   -14.6157 -14.5824 -14.5436 -14.2023 -14.1999 -14.1374 -14.1263 -14.0133
   -13.9626 -13.9273 -13.6401  -8.0296  -8.0249  -8.0032  -7.8765  -7.8740
    -7.7872  -7.7322  -7.6232  -7.6229  -7.5483  -7.5243  -7.2765  -2.9406
    -2.9237  -2.7539  -2.7307  -2.2605  -2.2570  -2.0567  -2.0479  -1.9639
    -1.9006  -1.8628  -1.6350  -1.6299  -1.6281  -1.4493  -1.4438  -1.3175
    -1.3002  -1.2714  -1.2078  -1.1802  -1.0326  -0.9927  -0.7939  -0.7509
    -0.7484  -0.6826  -0.6327  -0.4804  -0.4674  -0.4029  -0.3947  -0.2756
    -0.2733  -0.0816  -0.0650  -0.0015   0.0269   0.1244   0.1636   0.1662
     0.2516   0.3073   0.4366   0.4374   0.5400   0.6635   0.6669   0.7618
     0.7826   0.8912   0.9483   0.9685   1.1191   1.1392   1.1674   1.2130
     1.2567   1.2868   1.3307   1.3327   1.5013   1.5406   1.5559   1.6108
     1.6586   1.6761   1.7187   1.7674   1.7733   1.8080   1.8581   2.3033
     2.7148   2.7249   2.8512   2.9147   2.9348   3.0760   3.1139   6.6259
     6.6266   6.7661   7.6594   7.7600   8.0358   8.0367   8.3419   8.4601
     8.7368   8.8878   9.0003   9.1967   9.3137   9.4073   9.4878   9.5538
     9.6235

          k = 0.3750 0.2640 0.0000 ( 34389 PWs)   bands (ev):

   -35.8106 -35.6612 -22.6571 -22.6560 -22.5919 -22.3387 -17.1550 -17.0504
   -17.0265 -16.9415 -16.8972 -16.8310 -14.8332 -14.8297 -14.6229 -14.5308
   -14.5164 -14.4420 -14.4000 -14.1609 -14.1579 -14.1274 -14.1258 -14.0453
   -13.9894 -13.8942 -13.6496  -8.3271  -8.3266  -8.2040  -8.0060  -8.0000
    -7.9916  -7.9123  -7.8915  -7.8908  -7.8320  -7.6893  -7.5522  -3.2507
    -3.2293  -2.9972  -2.9664  -2.5488  -2.5135  -2.5025  -2.3729  -2.3726
    -2.3656  -2.3654  -2.1896  -2.1877  -1.9369  -1.7886  -1.7804  -1.6156
    -1.5962  -1.4520  -1.2377  -1.2200  -1.0052  -0.9422  -0.8812  -0.8774
    -0.8621  -0.8030  -0.7093  -0.6940  -0.6549  -0.6522  -0.5310  -0.4913
    -0.4528  -0.3555  -0.3494   0.0256   0.0968   0.3156   0.4504   0.4555
     0.6250   0.6654   0.7995   0.8090   0.8285   0.9838   0.9859   1.0494
     1.1498   1.1917   1.2060   1.2291   1.3748   1.3818   1.4013   1.4150
     1.5425   1.6194   1.6242   1.6467   1.6646   1.6990   1.7143   1.7256
     1.7301   1.7666   1.7684   1.8095   1.8213   1.8444   2.0892   2.2937
     2.9380   2.9435   3.5697   3.7054   3.7098   3.8051   3.8342   6.4473
     6.6725   6.6751   7.4582   7.5701   8.3645   8.3722   8.6268   8.7802
     9.0840   9.2635   9.3549   9.3696   9.4165   9.5399   9.5631   9.7235
     9.7803

          k = 0.3750 0.3960 0.0000 ( 34365 PWs)   bands (ev):

   -35.8064 -35.6570 -22.6033 -22.6022 -22.5412 -22.2871 -17.1447 -17.1308
   -17.0347 -17.0162 -16.8769 -16.7569 -14.6886 -14.6869 -14.4465 -14.4365
   -14.3681 -14.2863 -14.2417 -14.2296 -14.2268 -14.1016 -14.0979 -14.0306
   -13.9753 -13.8800 -13.6653  -8.5966  -8.5960  -8.4774  -8.2594  -8.2593
    -8.2494  -8.1311  -8.0089  -8.0010  -7.9582  -7.8582  -7.7091  -3.7324
    -3.7059  -3.4476  -3.4142  -3.2633  -2.9500  -2.9485  -2.6342  -2.6225
    -2.4692  -2.4608  -2.2016  -2.1985  -2.1048  -2.0970  -1.9487  -1.8674
    -1.8430  -1.5459  -1.2509  -1.2226  -1.1879  -1.1860  -1.1314  -0.9685
    -0.9640  -0.8840  -0.8772  -0.8229  -0.7981  -0.7825  -0.7263  -0.6986
    -0.4546  -0.3583  -0.3567   0.1641   0.2468   0.3663   0.5798   0.6391
     0.8687   1.0206   1.0776   1.1424   1.1460   1.2263   1.2569   1.3303
     1.3389   1.4348   1.4604   1.4625   1.5214   1.5357   1.5724   1.6809
     1.7131   1.7404   1.7466   1.8146   1.8601   1.8941   1.9280   2.0083
     2.0360   2.0557   2.0788   2.1105   2.1595   2.1604   2.1743   2.4356
     2.7561   2.7642   3.9495   4.2156   4.2266   4.2806   4.3102   6.0371
     6.3681   6.3725   7.1493   7.2952   8.8145   8.8715   8.9075   8.9926
     9.2146   9.3680   9.3798   9.4561   9.4746   9.5625   9.5860   9.7495
     9.7734

          k = 0.3750-0.5279 0.0000 ( 34392 PWs)   bands (ev):

   -35.8047 -35.6553 -22.5805 -22.5795 -22.5199 -22.2653 -17.1825 -17.1303
   -17.0684 -17.0227 -16.8483 -16.7243 -14.6179 -14.6177 -14.4161 -14.4102
   -14.2716 -14.2646 -14.2185 -14.2029 -14.1660 -14.0819 -14.0799 -14.0580
   -13.9869 -13.9085 -13.6636  -8.6806  -8.6794  -8.5745  -8.4064  -8.4062
    -8.3379  -8.2701  -8.0304  -8.0223  -8.0066  -7.9463  -7.7187  -3.9394
    -3.9108  -3.6629  -3.6131  -3.5152  -3.1745  -3.1729  -2.6490  -2.6366
    -2.4786  -2.4654  -2.2156  -2.2071  -2.1953  -2.1923  -1.9560  -1.9516
    -1.9300  -1.5769  -1.3364  -1.3195  -1.2514  -1.2294  -1.1995  -0.9722
    -0.9699  -0.9668  -0.9634  -0.9110  -0.8959  -0.8231  -0.7553  -0.7198
    -0.4250  -0.3407  -0.3393   0.2037   0.2854   0.3769   0.6317   0.7219
     0.9401   1.1855   1.2065   1.2535   1.2615   1.2879   1.2936   1.3398
     1.3508   1.5038   1.5419   1.5666   1.5940   1.6834   1.7212   1.7434
     1.7547   1.8204   1.8386   1.9112   1.9973   2.0135   2.0242   2.1564
     2.1749   2.2045   2.2144   2.2848   2.3022   2.3519   2.3525   2.5063
     2.5154   2.5176   4.0253   4.3516   4.3736   4.4262   4.4553   5.8508
     6.1904   6.1953   7.0382   7.2025   8.6645   8.9074   9.0246   9.0619
     9.1243   9.3082   9.4914   9.5174   9.6975   9.7392   9.7487   9.7887
     9.8801

          k =-0.5000 0.0000 0.0000 ( 34370 PWs)   bands (ev):

   -35.8153 -35.6662 -22.7123 -22.7110 -22.6449 -22.3922 -17.2234 -17.1267
   -16.9973 -16.8889 -16.8480 -16.7023 -15.0570 -15.0554 -14.9012 -14.6817
   -14.6568 -14.4513 -14.3978 -14.3142 -14.3128 -14.2149 -14.2103 -13.9950
   -13.9943 -13.9395 -13.6649  -7.9751  -7.9677  -7.9593  -7.7000  -7.6867
    -7.6864  -7.6353  -7.4967  -7.4956  -7.3993  -7.3208  -7.1571  -3.0296
    -3.0136  -2.8532  -2.8400  -2.2746  -2.2722  -1.9373  -1.6260  -1.6197
    -1.6169  -1.6086  -1.4257  -1.4012  -1.2230  -1.2214  -1.2020  -1.1998
    -1.1786  -1.1589  -1.1578  -1.1425  -1.0066  -0.9986  -0.9227  -0.9149
    -0.8205  -0.7593  -0.7569  -0.5794  -0.4880  -0.4324  -0.3753  -0.3195
    -0.2487  -0.2424  -0.1232  -0.1078   0.0599   0.0616   0.1272   0.1558
     0.2746   0.4021   0.4032   0.4315   0.4389   0.4415   0.4436   0.5250
     0.5786   0.7610   0.8164   0.8391   0.8398   1.0994   1.1012   1.1665
     1.3156   1.3302   1.3824   1.3931   1.4099   1.5871   1.6021   1.6108
     1.6113   1.6194   1.6764   1.8613   1.8778   1.8874   1.9425   2.1203
     2.1407   2.2275   2.3699   2.5115   2.5687   2.7702   2.7907   7.0201
     7.2504   7.2520   7.2965   7.2982   8.0941   8.2376   8.4354   8.4975
     8.8594   9.0239   9.2444   9.2486   9.3179   9.3760   9.4676   9.4881
     9.6866

          k =-0.5000 0.1320 0.0000 ( 34378 PWs)   bands (ev):

   -35.8136 -35.6644 -22.6918 -22.6906 -22.6254 -22.3724 -17.2158 -17.1182
   -16.9751 -16.8996 -16.8631 -16.7610 -14.9995 -14.9981 -14.8305 -14.6406
   -14.6169 -14.4107 -14.3586 -14.2661 -14.2608 -14.1930 -14.1887 -14.0262
   -13.9723 -13.9643 -13.6574  -8.0012  -7.9944  -7.9836  -7.8161  -7.8157
    -7.7464  -7.7165  -7.7028  -7.7023  -7.6093  -7.4440  -7.3723  -3.0929
    -3.0750  -2.9042  -2.8862  -2.2868  -2.2839  -2.0324  -2.0187  -1.9533
    -1.8502  -1.8153  -1.6265  -1.6249  -1.6231  -1.5065  -1.4997  -1.4209
    -1.4049  -1.3104  -1.3085  -1.2837  -1.0545  -1.0227  -0.8120  -0.8098
    -0.7691  -0.7056  -0.6691  -0.5050  -0.4981  -0.4401  -0.4308  -0.2998
    -0.2984  -0.1060  -0.0824   0.0031   0.0334   0.1279   0.1656   0.1667
     0.2509   0.3987   0.4208   0.5113   0.5125   0.5829   0.6055   0.7434
     0.7693   0.8673   0.9918   1.0095   1.1044   1.1278   1.1448   1.2495
     1.2524   1.2738   1.4059   1.4139   1.5252   1.5800   1.6379   1.6553
     1.6572   1.6798   1.6950   1.8529   1.8680   1.8850   1.9074   2.2811
     2.7203   2.7266   2.8561   2.9323   2.9530   3.1202   3.1631   6.8332
     7.0987   7.0997   7.5968   7.6025   8.0268   8.1151   8.3030   8.4423
     9.1166   9.1304   9.2646   9.4276   9.4630   9.5037   9.5616   9.5891
     9.7079

          k =-0.5000 0.2640 0.0000 ( 34396 PWs)   bands (ev):

   -35.8096 -35.6602 -22.6415 -22.6404 -22.5777 -22.3239 -17.1977 -17.0977
   -17.0236 -16.9123 -16.8942 -16.7969 -14.8467 -14.8458 -14.6401 -14.5424
   -14.5192 -14.3098 -14.2605 -14.1771 -14.1759 -14.1431 -14.1397 -14.0873
   -14.0268 -13.8975 -13.6496  -8.2629  -8.2611  -8.1476  -8.1176  -8.1171
    -8.0117  -7.9548  -7.9489  -7.9452  -7.8896  -7.7295  -7.6726  -3.3899
    -3.3677  -3.1418  -3.1135  -2.5411  -2.5392  -2.5285  -2.3892  -2.3877
    -2.3716  -2.3712  -2.2018  -2.2003  -1.9412  -1.9169  -1.9057  -1.7090
    -1.6727  -1.4859  -1.1700  -1.1509  -0.9801  -0.9332  -0.9321  -0.9101
    -0.8942  -0.8434  -0.7433  -0.6843  -0.6830  -0.6816  -0.4988  -0.4933
    -0.4860  -0.3684  -0.3670   0.0404   0.1074   0.3492   0.4829   0.5290
     0.6706   0.7009   0.8328   0.8357   0.8960   1.0717   1.0769   1.0814
     1.1635   1.1657   1.1707   1.1780   1.3878   1.4176   1.4616   1.4787
     1.5537   1.6194   1.6759   1.6802   1.6824   1.7561   1.7670   1.7722
     1.8005   1.8070   1.8863   1.8884   1.9019   1.9291   1.9773   2.2394
     2.9317   2.9377   3.5677   3.8437   3.8456   3.9330   3.9657   6.3445
     6.6694   6.6709   7.3777   7.5002   8.3970   8.4063   8.8058   9.0002
     9.0440   9.4053   9.4942   9.5003   9.5023   9.5788   9.6729   9.8102
     9.8289

          k =-0.5000 0.3960 0.0000 ( 34384 PWs)   bands (ev):

   -35.8055 -35.6560 -22.5900 -22.5890 -22.5289 -22.2742 -17.1800 -17.1341
   -17.0777 -17.0156 -16.8507 -16.7268 -14.6584 -14.6579 -14.4641 -14.4571
   -14.3611 -14.2209 -14.2180 -14.2074 -14.1584 -14.0974 -14.0954 -14.0337
   -13.9757 -13.8721 -13.6524  -8.6444  -8.6438  -8.5280  -8.4068  -8.4063
    -8.2988  -8.2763  -8.0223  -8.0141  -7.9975  -7.9675  -7.7152  -3.8616
    -3.8349  -3.5657  -3.5364  -3.2601  -2.9416  -2.9401  -2.7099  -2.6982
    -2.5442  -2.5345  -2.2157  -2.2110  -2.2087  -2.1947  -1.9521  -1.9368
    -1.8889  -1.5814  -1.2285  -1.2225  -1.1558  -1.0965  -1.0920  -1.0593
    -1.0513  -0.9022  -0.9004  -0.8183  -0.8121  -0.8005  -0.7839  -0.7390
    -0.4365  -0.3198  -0.3185   0.1823   0.2669   0.4162   0.6857   0.7321
     0.9634   1.0982   1.1977   1.2559   1.2691   1.2973   1.3030   1.3684
     1.3713   1.4441   1.5428   1.5441   1.5460   1.5696   1.6252   1.7076
     1.7293   1.7904   1.8247   1.8606   1.9219   1.9497   2.0213   2.0393
     2.0894   2.1026   2.1334   2.1354   2.1908   2.2518   2.2824   2.3903
     2.7445   2.7539   3.9325   4.4795   4.4884   4.5222   4.5554   5.8312
     6.1751   6.1786   6.9899   7.1425   8.8034   8.8370   8.8445   8.9468
     9.1617   9.3629   9.4832   9.5197   9.5943   9.6606   9.7021   9.7721
     9.8061

          k =-0.5000-0.5279 0.0000 ( 34420 PWs)   bands (ev):

   -35.8038 -35.6542 -22.5683 -22.5674 -22.5084 -22.2534 -17.1780 -17.1727
   -17.0695 -17.0634 -16.8236 -16.6960 -14.5486 -14.5482 -14.4489 -14.4460
   -14.2579 -14.2570 -14.2087 -14.1670 -14.1187 -14.0776 -14.0748 -13.9978
   -13.9391 -13.9194 -13.6475  -8.7935  -8.7921  -8.6803  -8.5237  -8.5231
    -8.4520  -8.3866  -8.1029  -8.0460  -8.0376  -7.9767  -7.7272  -4.0702
    -4.0416  -3.7682  -3.7340  -3.5234  -3.1652  -3.1635  -2.7398  -2.7275
    -2.5680  -2.5569  -2.3127  -2.2875  -2.1999  -2.1975  -2.0121  -1.9603
    -1.9525  -1.6141  -1.3454  -1.3389  -1.2137  -1.1658  -1.1590  -1.0360
    -1.0328  -0.9963  -0.9948  -0.9174  -0.8931  -0.8474  -0.8060  -0.7836
    -0.4034  -0.2909  -0.2895   0.2229   0.3068   0.4287   0.7541   0.8484
     1.0580   1.2979   1.3406   1.3416   1.3474   1.3505   1.3550   1.3921
     1.4041   1.5880   1.6094   1.6145   1.6430   1.6600   1.8100   1.8382
     1.8667   1.8763   1.9528   1.9856   2.0271   2.0412   2.0871   2.1858
     2.2262   2.2501   2.3214   2.3238   2.3500   2.4389   2.4462   2.4820
     2.4954   2.5662   3.9987   4.6695   4.6907   4.7269   4.7562   5.6084
     5.9486   5.9528   6.8663   7.0383   8.6842   8.8483   8.8894   8.9338
     8.9697   9.0377   9.2875   9.5413   9.5825   9.6998   9.8311   9.8642
     9.9242

     the Fermi energy is     2.5378 ev

!    total energy              =   -1842.89469367 Ry
     Harris-Foulkes estimate   =   -1842.89469367 Ry
     estimated scf accuracy    <          6.4E-11 Ry

     The total energy is the sum of the following terms:

     one-electron contribution =  -30853.16946477 Ry
     hartree contribution      =   15579.54845698 Ry
     xc contribution           =    -621.60201553 Ry
     ewald contribution        =   14052.33690660 Ry
     smearing contrib. (-TS)   =      -0.00857695 Ry

     convergence has been achieved in  29 iterations

     negative rho (up, down):  1.514E-03 0.000E+00

     Forces acting on atoms (cartesian axes, Ry/au):

     atom    1 type  4   force =     0.00000000    0.00000000    0.00089080
     atom    2 type  3   force =     0.00000000    0.00000000    0.00809319
     atom    3 type  4   force =     0.00000000    0.00000000   -0.00578468
     atom    4 type  1   force =     0.00000000    0.00000000    0.00205158
     atom    5 type  3   force =     0.00000000    0.00000000   -0.00096889
     atom    6 type  4   force =     0.00000000    0.00000000    0.00073344
     atom    7 type  4   force =     0.00000000    0.00000000    0.00171222
     atom    8 type  2   force =     0.00000000    0.00000000    0.00032419
     atom    9 type  4   force =     0.00000000    0.00000000   -0.00156734
     atom   10 type  4   force =     0.00000000    0.00000000   -0.00173521
     atom   11 type  3   force =     0.00000000    0.00000000    0.00292094
     atom   12 type  1   force =     0.00000000    0.00000000    0.00397961
     atom   13 type  4   force =     0.00000000    0.00000000    0.02494670
     atom   14 type  4   force =     0.00000000    0.00000000   -0.00465557
     atom   15 type  3   force =     0.00000000    0.00000000   -0.01521195
     atom   16 type  4   force =     0.00000000    0.00000000   -0.00069633
     atom   17 type  1   force =     0.00000000    0.00000000   -0.00288830
     atom   18 type  3   force =     0.00000000    0.00000000    0.00510508
     atom   19 type  4   force =     0.00000000    0.00000000   -0.00184664
     atom   20 type  4   force =     0.00000000    0.00000000   -0.00189553
     atom   21 type  2   force =     0.00000000    0.00000000    0.00505005
     atom   22 type  4   force =     0.00000000    0.00000000   -0.00572193
     atom   23 type  4   force =     0.00000000    0.00000000   -0.00462047
     atom   24 type  3   force =     0.00000000    0.00000000   -0.00048826
     atom   25 type  1   force =     0.00000000    0.00000000   -0.00432354
     atom   26 type  4   force =     0.00000000    0.00000000    0.00560346
     atom   27 type  3   force =     0.00000000    0.00000000   -0.00821162
     atom   28 type  4   force =     0.00000000    0.00000000   -0.00079500

     Total force =     0.011033     Total SCF correction =     0.000030


     Computing stress (Cartesian axis) and pressure


     negative rho (up, down):  1.514E-03 0.000E+00
          total   stress  (Ry/bohr**3)                   (kbar)     P=      -10.09
  -0.00003049   0.00000000   0.00000000           -4.49        0.00        0.00
   0.00000000  -0.00004981   0.00000000            0.00       -7.33        0.00
   0.00000000   0.00000000  -0.00012553            0.00        0.00      -18.47


     number of scf cycles    =  19
     number of bfgs steps    =   7

     energy   old            =   -1842.8998259657 Ry
     energy   new            =   -1842.8946936685 Ry

     CASE: energy  _new > energy  _old


 %%%%%%%%%%%%%%%%%%%%%%%%%%%%%%%%%%%%%%%%%%%%%%%%%%%%%%%%%%%%%%%%%%%%%%%%%%%%%%
     Error in routine bfgs (1):
     dE0s is positive which should never happen
 %%%%%%%%%%%%%%%%%%%%%%%%%%%%%%%%%%%%%%%%%%%%%%%%%%%%%%%%%%%%%%%%%%%%%%%%%%%%%%

     stopping ...
