
     Program PWSCF v.6.5 starts on 28Jun2021 at 18:45:16 

     This program is part of the open-source Quantum ESPRESSO suite
     for quantum simulation of materials; please cite
         "P. Giannozzi et al., J. Phys.:Condens. Matter 21 395502 (2009);
         "P. Giannozzi et al., J. Phys.:Condens. Matter 29 465901 (2017);
          URL http://www.quantum-espresso.org", 
     in publications or presentations arising from this work. More details at
     http://www.quantum-espresso.org/quote

     Parallel version (MPI), running on    20 processors

     MPI processes distributed on    11 nodes
     R & G space division:  proc/nbgrp/npool/nimage =      20
     Reading input from CBCO_BaO_cleave_0.5_sep.pwi
Warning: card &CELL ignored
Warning: card     CELL_DYNAMICS = 'BFGS' ignored
Warning: card     PRESS_CONV_THR = 5 ignored
Warning: card / ignored

     Current dimensions of program PWSCF are:
     Max number of different atomic species (ntypx) = 10
     Max number of k-points (npk) =  40000
     Max angular momentum in pseudopotentials (lmaxx) =  3

     Subspace diagonalization in iterative solution of the eigenvalue problem:
     one sub-group per band group will be used
     scalapack distributed-memory algorithm (size of sub-group:  4*  4 procs)

     Message from routine setup:
     using ibrav=0 with symmetry is DISCOURAGED, use correct ibrav instead
 
     Parallelization info
     --------------------
     sticks:   dense  smooth     PW     G-vecs:    dense   smooth      PW
     Min         149      50     14                70963    13664    2134
     Max         150      51     15                71000    13687    2179
     Sum        2991    1007    289              1419661   273473   42977
 


     bravais-lattice index     =            0
     lattice parameter (alat)  =       7.4270  a.u.
     unit-cell volume          =    4351.6708 (a.u.)^3
     number of atoms/cell      =           28
     number of atomic types    =            4
     number of electrons       =       227.00
     number of Kohn-Sham states=          137
     kinetic-energy cutoff     =      60.0000  Ry
     charge density cutoff     =     720.0000  Ry
     convergence threshold     =      1.0E-10
     mixing beta               =       0.7000
     number of iterations used =           10  local-TF  mixing
     Exchange-correlation= SLA PW PBE PBE
                           (   1   4   3   4   0   0   0)
     nstep                     =          300


     celldm(1)=   7.427040  celldm(2)=   0.000000  celldm(3)=   0.000000
     celldm(4)=   0.000000  celldm(5)=   0.000000  celldm(6)=   0.000000

     crystal axes: (cart. coord. in units of alat)
               a(1) = (   1.000000   0.000000   0.000000 )  
               a(2) = (   0.000000   0.947081   0.000000 )  
               a(3) = (   0.000000   0.000000  11.215576 )  

     reciprocal axes: (cart. coord. in units 2 pi/alat)
               b(1) = (  1.000000  0.000000  0.000000 )  
               b(2) = (  0.000000  1.055876  0.000000 )  
               b(3) = (  0.000000  0.000000  0.089162 )  


     PseudoPot. # 1 for Ba read from file:
     ./pseudo/Ba.pbe-nsp-van.UPF
     MD5 check sum: 2b9c31dd849566dd297d80989662b7a0
     Pseudo is Ultrasoft + core correction, Zval = 10.0
     Generated by new atomic code, or converted to UPF format
     Using radial grid of  907 points,  6 beta functions with: 
                l(1) =   0
                l(2) =   0
                l(3) =   1
                l(4) =   1
                l(5) =   2
                l(6) =   2
     Q(r) pseudized with  6 coefficients,  rinner =    1.200   1.200   1.200
                                                       1.200   1.200

     PseudoPot. # 2 for Ca read from file:
     ./pseudo/Ca.pbe-nsp-van.UPF
     MD5 check sum: 6471098428ff4fa451746d08035ff179
     Pseudo is Ultrasoft + core correction, Zval = 10.0
     Generated by new atomic code, or converted to UPF format
     Using radial grid of  845 points,  6 beta functions with: 
                l(1) =   0
                l(2) =   0
                l(3) =   1
                l(4) =   1
                l(5) =   2
                l(6) =   2
     Q(r) pseudized with  6 coefficients,  rinner =    1.200   1.200   1.200
                                                       1.200   1.200

     PseudoPot. # 3 for Cu read from file:
     ./pseudo/Cu.pbe-n-van_ak.UPF
     MD5 check sum: 34e3282627ffb533726feb647e090d62
     Pseudo is Ultrasoft + core correction, Zval = 11.0
     Generated by new atomic code, or converted to UPF format
     Using radial grid of  867 points,  6 beta functions with: 
                l(1) =   0
                l(2) =   0
                l(3) =   1
                l(4) =   1
                l(5) =   2
                l(6) =   2
     Q(r) pseudized with  8 coefficients,  rinner =    1.400   1.400   1.400
                                                       1.400   1.400

     PseudoPot. # 4 for O  read from file:
     ./pseudo/O.pbe-van_ak.UPF
     MD5 check sum: 783ce7fe4c79b6a4916957118fed0856
     Pseudo is Ultrasoft, Zval =  6.0
     Generated by new atomic code, or converted to UPF format
     Using radial grid of  737 points,  4 beta functions with: 
                l(1) =   0
                l(2) =   0
                l(3) =   1
                l(4) =   1
     Q(r) pseudized with  8 coefficients,  rinner =    0.800   0.800   0.800


     atomic species   valence    mass     pseudopotential
        Ba            10.00   137.32700     Ba( 1.00)
        Ca            10.00    40.07800     Ca( 1.00)
        Cu            11.00    63.54600     Cu( 1.00)
        O              6.00    15.99900     O ( 1.00)

      4 Sym. Ops. (no inversion) found



   Cartesian axes

     site n.     atom                  positions (alat units)
         1           O   tau(   1) = (   0.0000000   0.4735409  -0.0469745  )
         2           Cu  tau(   2) = (   0.0000000   0.0000000   0.0264565  )
         3           O   tau(   3) = (   0.0000000   0.0000000   0.5030914  )
         4           Ba  tau(   4) = (   0.5000000   0.4735409   0.5690292  )
         5           Cu  tau(   5) = (   0.0000000   0.0000000   1.0374254  )
         6           O   tau(   6) = (   0.5000000   0.0000000   1.0768099  )
         7           O   tau(   7) = (   0.0000000   0.4735409   1.1116985  )
         8           Ca  tau(   8) = (   0.5000000   0.4735409   1.4976260  )
         9           O   tau(   9) = (   0.0000000   0.4735409   1.8667529  )
        10           O   tau(  10) = (   0.5000000   0.0000000   1.9044124  )
        11           Cu  tau(  11) = (   0.0000000   0.0000000   1.9512546  )
        12           Ba  tau(  12) = (   0.5000000   0.4735409   2.4295764  )
        13           O   tau(  13) = (   0.0000000   0.0000000   2.5115362  )
        14           O   tau(  14) = (   0.0000000   0.4735409   2.9918528  )
        15           Cu  tau(  15) = (   0.0000000   0.0000000   2.9919088  )
        16           O   tau(  16) = (   0.0000000   0.0000000   3.4722686  )
        17           Ba  tau(  17) = (   0.5000000   0.4735409   3.5542208  )
        18           Cu  tau(  18) = (   0.0000000   0.0000000   4.1597441  )
        19           O   tau(  19) = (   0.5000000   0.0000000   4.2065863  )
        20           O   tau(  20) = (   0.0000000   0.4735409   4.2442406  )
        21           Ca  tau(  21) = (   0.5000000   0.4735409   4.6133777  )
        22           O   tau(  22) = (   0.0000000   0.4735409   4.9993027  )
        23           O   tau(  23) = (   0.5000000   0.0000000   5.0341913  )
        24           Cu  tau(  24) = (   0.0000000   0.0000000   5.0735784  )
        25           Ba  tau(  25) = (   0.5000000   0.4735409   5.5419720  )
        26           O   tau(  26) = (   0.0000000   0.0000000   5.6078996  )
        27           Cu  tau(  27) = (   0.0000000   0.0000000   6.0845396  )
        28           O   tau(  28) = (   0.0000000   0.4735409   6.1579579  )

     number of k points=    25  Gaussian smearing, width (Ry)=  0.0100
                       cart. coord. in units 2pi/alat
        k(    1) = (   0.0000000   0.0000000   0.0000000), wk =   0.0312500
        k(    2) = (   0.0000000   0.1319845   0.0000000), wk =   0.0625000
        k(    3) = (   0.0000000   0.2639689   0.0000000), wk =   0.0625000
        k(    4) = (   0.0000000   0.3959534   0.0000000), wk =   0.0625000
        k(    5) = (   0.0000000  -0.5279378   0.0000000), wk =   0.0312500
        k(    6) = (   0.1250000   0.0000000   0.0000000), wk =   0.0625000
        k(    7) = (   0.1250000   0.1319845   0.0000000), wk =   0.1250000
        k(    8) = (   0.1250000   0.2639689   0.0000000), wk =   0.1250000
        k(    9) = (   0.1250000   0.3959534   0.0000000), wk =   0.1250000
        k(   10) = (   0.1250000  -0.5279378   0.0000000), wk =   0.0625000
        k(   11) = (   0.2500000   0.0000000   0.0000000), wk =   0.0625000
        k(   12) = (   0.2500000   0.1319845   0.0000000), wk =   0.1250000
        k(   13) = (   0.2500000   0.2639689   0.0000000), wk =   0.1250000
        k(   14) = (   0.2500000   0.3959534   0.0000000), wk =   0.1250000
        k(   15) = (   0.2500000  -0.5279378   0.0000000), wk =   0.0625000
        k(   16) = (   0.3750000   0.0000000   0.0000000), wk =   0.0625000
        k(   17) = (   0.3750000   0.1319845   0.0000000), wk =   0.1250000
        k(   18) = (   0.3750000   0.2639689   0.0000000), wk =   0.1250000
        k(   19) = (   0.3750000   0.3959534   0.0000000), wk =   0.1250000
        k(   20) = (   0.3750000  -0.5279378   0.0000000), wk =   0.0625000
        k(   21) = (  -0.5000000   0.0000000   0.0000000), wk =   0.0312500
        k(   22) = (  -0.5000000   0.1319845   0.0000000), wk =   0.0625000
        k(   23) = (  -0.5000000   0.2639689   0.0000000), wk =   0.0625000
        k(   24) = (  -0.5000000   0.3959534   0.0000000), wk =   0.0625000
        k(   25) = (  -0.5000000  -0.5279378   0.0000000), wk =   0.0312500

     Dense  grid:  1419661 G-vectors     FFT dimensions: (  64,  64, 720)

     Smooth grid:   273473 G-vectors     FFT dimensions: (  40,  36, 432)

     Estimated max dynamical RAM per process >     453.21 MB

     Estimated total dynamical RAM >       8.85 GB

     Initial potential from superposition of free atoms

     starting charge  226.84630, renormalised to  227.00000

     negative rho (up, down):  3.431E-03 0.000E+00
     Starting wfcs are  195 randomized atomic wfcs

     total cpu time spent up to now is        9.6 secs

     Self-consistent Calculation

     iteration #  1     ecut=    60.00 Ry     beta= 0.70
     Davidson diagonalization with overlap
     ethr =  1.00E-02,  avg # of iterations =  2.0

     negative rho (up, down):  2.937E-04 0.000E+00

     total cpu time spent up to now is       24.7 secs

     total energy              =   -1839.47280301 Ry
     Harris-Foulkes estimate   =   -1845.34817370 Ry
     estimated scf accuracy    <      17.56059015 Ry

     iteration #  2     ecut=    60.00 Ry     beta= 0.70
     Davidson diagonalization with overlap
     ethr =  7.74E-03,  avg # of iterations =  2.0

     negative rho (up, down):  2.707E-04 0.000E+00

     total cpu time spent up to now is       41.7 secs

     total energy              =   -1842.12986159 Ry
     Harris-Foulkes estimate   =   -1843.97975129 Ry
     estimated scf accuracy    <      13.79577683 Ry

     iteration #  3     ecut=    60.00 Ry     beta= 0.70
     Davidson diagonalization with overlap
     ethr =  6.08E-03,  avg # of iterations =  1.2

     negative rho (up, down):  2.536E-04 0.000E+00

     total cpu time spent up to now is       55.7 secs

     total energy              =   -1842.68420239 Ry
     Harris-Foulkes estimate   =   -1843.09608028 Ry
     estimated scf accuracy    <       3.33996399 Ry

     iteration #  4     ecut=    60.00 Ry     beta= 0.70
     Davidson diagonalization with overlap
     ethr =  1.47E-03,  avg # of iterations =  1.6

     negative rho (up, down):  2.469E-04 0.000E+00

     total cpu time spent up to now is       70.5 secs

     total energy              =   -1842.86427678 Ry
     Harris-Foulkes estimate   =   -1843.03651848 Ry
     estimated scf accuracy    <       6.73563734 Ry

     iteration #  5     ecut=    60.00 Ry     beta= 0.70
     Davidson diagonalization with overlap
     ethr =  1.47E-03,  avg # of iterations =  1.0

     negative rho (up, down):  2.423E-04 0.000E+00

     total cpu time spent up to now is       84.3 secs

     total energy              =   -1842.89771526 Ry
     Harris-Foulkes estimate   =   -1842.93225048 Ry
     estimated scf accuracy    <       1.15853654 Ry

     iteration #  6     ecut=    60.00 Ry     beta= 0.70
     Davidson diagonalization with overlap
     ethr =  5.10E-04,  avg # of iterations =  1.0

     negative rho (up, down):  2.405E-04 0.000E+00

     total cpu time spent up to now is       98.0 secs

     total energy              =   -1842.90123337 Ry
     Harris-Foulkes estimate   =   -1842.92222910 Ry
     estimated scf accuracy    <       1.82712694 Ry

     iteration #  7     ecut=    60.00 Ry     beta= 0.70
     Davidson diagonalization with overlap
     ethr =  5.10E-04,  avg # of iterations =  1.0

     negative rho (up, down):  2.406E-04 0.000E+00

     total cpu time spent up to now is      111.7 secs

     total energy              =   -1842.89960486 Ry
     Harris-Foulkes estimate   =   -1842.91178611 Ry
     estimated scf accuracy    <       1.16202163 Ry

     iteration #  8     ecut=    60.00 Ry     beta= 0.70
     Davidson diagonalization with overlap
     ethr =  5.10E-04,  avg # of iterations =  1.0

     negative rho (up, down):  2.411E-04 0.000E+00

     total cpu time spent up to now is      125.6 secs

     total energy              =   -1842.89997024 Ry
     Harris-Foulkes estimate   =   -1842.90407309 Ry
     estimated scf accuracy    <       0.68180366 Ry

     iteration #  9     ecut=    60.00 Ry     beta= 0.70
     Davidson diagonalization with overlap
     ethr =  3.00E-04,  avg # of iterations =  1.1

     negative rho (up, down):  2.414E-04 0.000E+00

     total cpu time spent up to now is      139.8 secs

     total energy              =   -1842.89087967 Ry
     Harris-Foulkes estimate   =   -1842.90113920 Ry
     estimated scf accuracy    <       0.38514522 Ry

     iteration # 10     ecut=    60.00 Ry     beta= 0.70
     Davidson diagonalization with overlap
     ethr =  1.70E-04,  avg # of iterations =  4.5

     negative rho (up, down):  2.422E-04 0.000E+00

     total cpu time spent up to now is      157.5 secs

     total energy              =   -1842.89093143 Ry
     Harris-Foulkes estimate   =   -1842.89407384 Ry
     estimated scf accuracy    <       0.10356676 Ry

     iteration # 11     ecut=    60.00 Ry     beta= 0.70
     Davidson diagonalization with overlap
     ethr =  4.56E-05,  avg # of iterations =  7.1

     negative rho (up, down):  2.427E-04 0.000E+00

     total cpu time spent up to now is      178.7 secs

     total energy              =   -1842.88926079 Ry
     Harris-Foulkes estimate   =   -1842.89205178 Ry
     estimated scf accuracy    <       0.07003687 Ry

     iteration # 12     ecut=    60.00 Ry     beta= 0.70
     Davidson diagonalization with overlap
     ethr =  3.09E-05,  avg # of iterations =  2.8

     negative rho (up, down):  7.250E-04 0.000E+00

     total cpu time spent up to now is      194.3 secs

     total energy              =   -1842.88816881 Ry
     Harris-Foulkes estimate   =   -1842.89001915 Ry
     estimated scf accuracy    <       0.06133046 Ry

     iteration # 13     ecut=    60.00 Ry     beta= 0.70
     Davidson diagonalization with overlap
     ethr =  2.70E-05,  avg # of iterations =  1.7

     negative rho (up, down):  7.642E-03 0.000E+00

     total cpu time spent up to now is      208.7 secs

     total energy              =   -1842.88696248 Ry
     Harris-Foulkes estimate   =   -1842.88853593 Ry
     estimated scf accuracy    <       0.03225917 Ry

     iteration # 14     ecut=    60.00 Ry     beta= 0.70
     Davidson diagonalization with overlap
     ethr =  1.42E-05,  avg # of iterations =  7.4

     negative rho (up, down):  9.885E-03 0.000E+00

     total cpu time spent up to now is      230.3 secs

     total energy              =   -1842.88619282 Ry
     Harris-Foulkes estimate   =   -1842.88731386 Ry
     estimated scf accuracy    <       0.01735452 Ry

     iteration # 15     ecut=    60.00 Ry     beta= 0.70
     Davidson diagonalization with overlap
     ethr =  7.65E-06,  avg # of iterations =  4.6

     negative rho (up, down):  1.415E-02 0.000E+00

     total cpu time spent up to now is      248.0 secs

     total energy              =   -1842.88525930 Ry
     Harris-Foulkes estimate   =   -1842.88637597 Ry
     estimated scf accuracy    <       0.01072482 Ry

     iteration # 16     ecut=    60.00 Ry     beta= 0.70
     Davidson diagonalization with overlap
     ethr =  4.72E-06,  avg # of iterations =  6.6

     negative rho (up, down):  2.289E-02 0.000E+00

     total cpu time spent up to now is      268.7 secs

     total energy              =   -1842.88450085 Ry
     Harris-Foulkes estimate   =   -1842.88556517 Ry
     estimated scf accuracy    <       0.00752624 Ry

     iteration # 17     ecut=    60.00 Ry     beta= 0.70
     Davidson diagonalization with overlap
     ethr =  3.32E-06,  avg # of iterations =  9.1

     negative rho (up, down):  2.152E-02 0.000E+00

     total cpu time spent up to now is      293.1 secs

     total energy              =   -1842.88415067 Ry
     Harris-Foulkes estimate   =   -1842.88464143 Ry
     estimated scf accuracy    <       0.00296600 Ry

     iteration # 18     ecut=    60.00 Ry     beta= 0.70
     Davidson diagonalization with overlap
     ethr =  1.31E-06,  avg # of iterations =  9.2

     negative rho (up, down):  2.071E-02 0.000E+00

     total cpu time spent up to now is      317.5 secs

     total energy              =   -1842.88414569 Ry
     Harris-Foulkes estimate   =   -1842.88425793 Ry
     estimated scf accuracy    <       0.00145163 Ry

     iteration # 19     ecut=    60.00 Ry     beta= 0.70
     Davidson diagonalization with overlap
     ethr =  6.39E-07,  avg # of iterations =  7.0

     negative rho (up, down):  6.211E-03 0.000E+00

     total cpu time spent up to now is      338.9 secs

     total energy              =   -1842.88386232 Ry
     Harris-Foulkes estimate   =   -1842.88420454 Ry
     estimated scf accuracy    <       0.00052298 Ry

     iteration # 20     ecut=    60.00 Ry     beta= 0.70
     Davidson diagonalization with overlap
     c_bands:  1 eigenvalues not converged
     ethr =  2.30E-07,  avg # of iterations = 10.6

     negative rho (up, down):  3.947E-03 0.000E+00

     total cpu time spent up to now is      365.3 secs

     total energy              =   -1842.88389876 Ry
     Harris-Foulkes estimate   =   -1842.88389227 Ry
     estimated scf accuracy    <       0.00110738 Ry

     iteration # 21     ecut=    60.00 Ry     beta= 0.70
     Davidson diagonalization with overlap
     ethr =  2.30E-07,  avg # of iterations =  4.7

     negative rho (up, down):  1.353E-03 0.000E+00

     total cpu time spent up to now is      384.2 secs

     total energy              =   -1842.88388134 Ry
     Harris-Foulkes estimate   =   -1842.88390750 Ry
     estimated scf accuracy    <       0.00018713 Ry

     iteration # 22     ecut=    60.00 Ry     beta= 0.70
     Davidson diagonalization with overlap
     c_bands:  1 eigenvalues not converged
     ethr =  8.24E-08,  avg # of iterations =  8.0

     negative rho (up, down):  1.411E-03 0.000E+00

     total cpu time spent up to now is      407.1 secs

     total energy              =   -1842.88388965 Ry
     Harris-Foulkes estimate   =   -1842.88388865 Ry
     estimated scf accuracy    <       0.00002679 Ry

     iteration # 23     ecut=    60.00 Ry     beta= 0.70
     Davidson diagonalization with overlap
     c_bands:  1 eigenvalues not converged
     ethr =  1.18E-08,  avg # of iterations =  1.9

     negative rho (up, down):  1.342E-03 0.000E+00

     total cpu time spent up to now is      422.4 secs

     total energy              =   -1842.88389085 Ry
     Harris-Foulkes estimate   =   -1842.88389091 Ry
     estimated scf accuracy    <       0.00001132 Ry

     iteration # 24     ecut=    60.00 Ry     beta= 0.70
     Davidson diagonalization with overlap
     c_bands:  1 eigenvalues not converged
     ethr =  4.99E-09,  avg # of iterations =  2.1

     negative rho (up, down):  1.381E-03 0.000E+00

     total cpu time spent up to now is      437.6 secs

     total energy              =   -1842.88389091 Ry
     Harris-Foulkes estimate   =   -1842.88389110 Ry
     estimated scf accuracy    <       0.00000431 Ry

     iteration # 25     ecut=    60.00 Ry     beta= 0.70
     Davidson diagonalization with overlap
     ethr =  1.90E-09,  avg # of iterations =  2.9

     negative rho (up, down):  1.399E-03 0.000E+00

     total cpu time spent up to now is      453.3 secs

     total energy              =   -1842.88389097 Ry
     Harris-Foulkes estimate   =   -1842.88389113 Ry
     estimated scf accuracy    <       0.00000391 Ry

     iteration # 26     ecut=    60.00 Ry     beta= 0.70
     Davidson diagonalization with overlap
     ethr =  1.72E-09,  avg # of iterations =  1.0

     negative rho (up, down):  1.388E-03 0.000E+00

     total cpu time spent up to now is      467.1 secs

     total energy              =   -1842.88389105 Ry
     Harris-Foulkes estimate   =   -1842.88389106 Ry
     estimated scf accuracy    <       0.00000240 Ry

     iteration # 27     ecut=    60.00 Ry     beta= 0.70
     Davidson diagonalization with overlap
     ethr =  1.06E-09,  avg # of iterations =  1.0

     negative rho (up, down):  1.432E-03 0.000E+00

     total cpu time spent up to now is      481.1 secs

     total energy              =   -1842.88389088 Ry
     Harris-Foulkes estimate   =   -1842.88389109 Ry
     estimated scf accuracy    <       0.00000140 Ry

     iteration # 28     ecut=    60.00 Ry     beta= 0.70
     Davidson diagonalization with overlap
     ethr =  6.17E-10,  avg # of iterations =  1.0

     negative rho (up, down):  1.470E-03 0.000E+00

     total cpu time spent up to now is      494.9 secs

     total energy              =   -1842.88389082 Ry
     Harris-Foulkes estimate   =   -1842.88389095 Ry
     estimated scf accuracy    <       0.00000105 Ry

     iteration # 29     ecut=    60.00 Ry     beta= 0.70
     Davidson diagonalization with overlap
     ethr =  4.63E-10,  avg # of iterations =  1.0

     negative rho (up, down):  1.488E-03 0.000E+00

     total cpu time spent up to now is      508.8 secs

     total energy              =   -1842.88389083 Ry
     Harris-Foulkes estimate   =   -1842.88389088 Ry
     estimated scf accuracy    <       0.00000022 Ry

     iteration # 30     ecut=    60.00 Ry     beta= 0.70
     Davidson diagonalization with overlap
     ethr =  9.78E-11,  avg # of iterations =  2.6

     negative rho (up, down):  1.501E-03 0.000E+00

     total cpu time spent up to now is      524.7 secs

     total energy              =   -1842.88389082 Ry
     Harris-Foulkes estimate   =   -1842.88389084 Ry
     estimated scf accuracy    <       0.00000004 Ry

     iteration # 31     ecut=    60.00 Ry     beta= 0.70
     Davidson diagonalization with overlap
     ethr =  1.70E-11,  avg # of iterations =  3.1

     negative rho (up, down):  1.509E-03 0.000E+00

     total cpu time spent up to now is      541.9 secs

     total energy              =   -1842.88389081 Ry
     Harris-Foulkes estimate   =   -1842.88389083 Ry
     estimated scf accuracy    <       0.00000002 Ry

     iteration # 32     ecut=    60.00 Ry     beta= 0.70
     Davidson diagonalization with overlap
     ethr =  7.20E-12,  avg # of iterations =  1.2

     negative rho (up, down):  1.508E-03 0.000E+00

     total cpu time spent up to now is      556.5 secs

     total energy              =   -1842.88389082 Ry
     Harris-Foulkes estimate   =   -1842.88389081 Ry
     estimated scf accuracy    <          8.2E-09 Ry

     iteration # 33     ecut=    60.00 Ry     beta= 0.70
     Davidson diagonalization with overlap
     ethr =  3.62E-12,  avg # of iterations =  1.1

     negative rho (up, down):  1.511E-03 0.000E+00

     total cpu time spent up to now is      570.8 secs

     total energy              =   -1842.88389081 Ry
     Harris-Foulkes estimate   =   -1842.88389082 Ry
     estimated scf accuracy    <          2.0E-09 Ry

     iteration # 34     ecut=    60.00 Ry     beta= 0.70
     Davidson diagonalization with overlap
     ethr =  8.65E-13,  avg # of iterations =  2.9

     negative rho (up, down):  1.510E-03 0.000E+00

     total cpu time spent up to now is      587.9 secs

     total energy              =   -1842.88389081 Ry
     Harris-Foulkes estimate   =   -1842.88389081 Ry
     estimated scf accuracy    <          8.0E-10 Ry

     iteration # 35     ecut=    60.00 Ry     beta= 0.70
     Davidson diagonalization with overlap
     ethr =  3.53E-13,  avg # of iterations =  1.6

     negative rho (up, down):  1.509E-03 0.000E+00

     total cpu time spent up to now is      602.7 secs

     total energy              =   -1842.88389081 Ry
     Harris-Foulkes estimate   =   -1842.88389081 Ry
     estimated scf accuracy    <          5.6E-10 Ry

     iteration # 36     ecut=    60.00 Ry     beta= 0.70
     Davidson diagonalization with overlap
     ethr =  2.45E-13,  avg # of iterations =  1.8

     negative rho (up, down):  1.510E-03 0.000E+00

     total cpu time spent up to now is      617.4 secs

     total energy              =   -1842.88389081 Ry
     Harris-Foulkes estimate   =   -1842.88389081 Ry
     estimated scf accuracy    <          5.6E-10 Ry

     iteration # 37     ecut=    60.00 Ry     beta= 0.70
     Davidson diagonalization with overlap
     ethr =  2.45E-13,  avg # of iterations =  1.0

     negative rho (up, down):  1.509E-03 0.000E+00

     total cpu time spent up to now is      631.1 secs

     total energy              =   -1842.88389081 Ry
     Harris-Foulkes estimate   =   -1842.88389081 Ry
     estimated scf accuracy    <          1.5E-10 Ry

     iteration # 38     ecut=    60.00 Ry     beta= 0.70
     Davidson diagonalization with overlap
     ethr =  1.00E-13,  avg # of iterations =  1.0

     negative rho (up, down):  1.509E-03 0.000E+00

     total cpu time spent up to now is      644.6 secs

     End of self-consistent calculation

          k = 0.0000 0.0000 0.0000 ( 34267 PWs)   bands (ev):

   -35.5494 -35.4540 -22.9967 -22.7539 -22.7533 -22.5015 -17.0538 -16.9400
   -16.6004 -16.5892 -16.5128 -16.4996 -15.2643 -15.1854 -14.8253 -14.6344
   -14.6278 -14.5348 -14.4091 -14.1444 -14.1427 -13.9447 -13.9260 -13.7871
   -13.6652 -13.5973 -13.4526  -8.2217  -7.9317  -7.8852  -7.8833  -7.8477
    -7.8474  -7.7989  -7.6835  -7.6547  -7.6542  -7.5464  -7.3795  -2.2934
    -2.2927  -2.0514  -1.7923  -1.7897  -1.7280  -1.6312  -1.6048  -1.5779
    -1.5027  -1.4442  -1.4255  -1.3346  -1.1844  -1.1832  -1.0312  -0.8137
    -0.6824  -0.5684  -0.4224  -0.4214  -0.3427  -0.3391  -0.2709  -0.2579
    -0.2284  -0.2275  -0.2137  -0.2077  -0.1557  -0.1381  -0.1291  -0.1208
    -0.1042  -0.0750  -0.0014   0.0002   0.1350   0.1361   0.1362   0.1386
     0.1965   0.2104   0.2327   0.3461   0.3469   0.3620   0.4050   0.4276
     0.5498   0.7176   0.8318   0.9185   0.9190   0.9808   1.0131   1.2202
     1.2554   1.3859   1.3986   1.4098   1.4361   1.4912   1.5554   1.5582
     1.7257   1.8000   1.8101   1.8637   1.9288   1.9363   2.0684   2.0724
     2.0774   2.1484   2.1948   2.2938   2.3036   2.5651   2.5730   5.2451
     5.2550   5.6611   6.2126   6.3447   6.7417   6.8024   6.8492   7.2632
     8.0082   8.1272   8.2144   8.3423   8.4243   8.6414   8.7004   9.0501
     9.1536

          k = 0.0000 0.1320 0.0000 ( 34203 PWs)   bands (ev):

   -35.5475 -35.4522 -22.9744 -22.7272 -22.7267 -22.4761 -17.0177 -16.9036
   -16.6617 -16.5981 -16.5718 -16.5105 -15.1756 -15.1012 -14.7699 -14.6395
   -14.6284 -14.5076 -14.3793 -14.1538 -14.1511 -13.9501 -13.9398 -13.8328
   -13.7105 -13.6252 -13.5156  -8.2117  -7.8918  -7.8848  -7.8833  -7.8484
    -7.7998  -7.7996  -7.6972  -7.6960  -7.6798  -7.5013  -7.4272  -2.3511
    -2.3504  -2.1554  -2.1201  -2.0887  -1.9843  -1.8950  -1.6502  -1.6108
    -1.6083  -1.6074  -1.5870  -1.4850  -1.3172  -1.3040  -1.2644  -1.0725
    -0.6287  -0.6143  -0.5901  -0.5757  -0.5199  -0.5188  -0.4745  -0.4254
    -0.4235  -0.3010  -0.1955  -0.1727  -0.1476  -0.1222  -0.1118  -0.1107
    -0.0547  -0.0160   0.0200   0.0216   0.0440   0.0711   0.1590   0.1595
     0.1977   0.2153   0.2848   0.3150   0.3604   0.3916   0.4066   0.4910
     0.7378   0.8339   0.9631   1.0720   1.0882   1.1162   1.1163   1.1781
     1.1927   1.2247   1.4203   1.4431   1.4575   1.5459   1.5561   1.5704
     1.6413   1.7140   1.7964   1.8289   1.8506   1.9616   1.9825   2.0155
     2.0496   2.1011   2.2224   2.4644   2.8245   2.8537   2.8991   5.6269
     5.6303   5.9773   6.5339   6.6346   7.0252   7.1059   7.1404   7.5468
     8.1827   8.3276   8.4292   8.5378   8.6550   8.7485   8.8978   9.1271
     9.2407

          k = 0.0000 0.2640 0.0000 ( 34079 PWs)   bands (ev):

   -35.5431 -35.4478 -22.9197 -22.6613 -22.6608 -22.4133 -16.9256 -16.8161
   -16.8108 -16.7254 -16.5924 -16.5049 -14.9757 -14.9240 -14.6884 -14.6572
   -14.6221 -14.4462 -14.3059 -14.1412 -14.1333 -13.9897 -13.9832 -13.9589
   -13.7860 -13.7194 -13.6458  -8.1871  -7.9533  -7.8843  -7.8833  -7.7922
    -7.7874  -7.7866  -7.6794  -7.6791  -7.6752  -7.5306  -7.3881  -2.7963
    -2.7860  -2.6839  -2.5665  -2.4479  -2.3914  -2.3910  -2.2450  -2.2440
    -2.0424  -1.6029  -1.5568  -1.5378  -1.4427  -1.4287  -1.4124  -1.2640
    -0.9502  -0.9147  -0.8726  -0.7706  -0.7703  -0.7442  -0.6138  -0.6083
    -0.5941  -0.4977  -0.4863  -0.4622  -0.4601  -0.4530  -0.3862  -0.2810
    -0.1926  -0.0495   0.0482   0.0498   0.1187   0.1315   0.1413   0.2486
     0.2863   0.4119   0.4255   0.4583   0.6540   0.7277   0.7356   0.7412
     0.8949   0.9721   1.0076   1.0587   1.1675   1.1973   1.2012   1.2017
     1.2145   1.2365   1.3050   1.3419   1.3988   1.5650   1.6610   1.6738
     1.7064   1.7437   1.8043   1.9673   1.9829   2.0091   2.0107   2.0188
     2.0603   2.1489   2.3536   2.5894   3.0733   3.0799   3.7401   6.5232
     6.5238   6.6869   7.3393   7.3541   7.8570   7.9261   7.9504   8.3246
     8.5005   8.6871   8.7996   8.8781   8.9859   9.0588   9.1299   9.3562
     9.3802

          k = 0.0000 0.3960 0.0000 ( 34048 PWs)   bands (ev):

   -35.5387 -35.4434 -22.8635 -22.5931 -22.5926 -22.3486 -16.9524 -16.8602
   -16.8239 -16.7093 -16.5868 -16.4992 -14.8972 -14.8918 -14.6458 -14.5783
   -14.4625 -14.3852 -14.2488 -14.1139 -14.0700 -14.0681 -14.0559 -14.0178
   -13.9001 -13.8429 -13.7377  -8.1562  -8.0480  -7.8843  -7.8833  -7.8655
    -7.8648  -7.6876  -7.6697  -7.6207  -7.5509  -7.5506  -7.2680  -3.4104
    -3.2512  -3.2471  -3.0209  -2.9619  -2.9583  -2.8887  -2.3356  -2.3348
    -2.0682  -1.9415  -1.7748  -1.7610  -1.4917  -1.4729  -1.3392  -1.1852
    -1.1643  -1.1167  -1.1076  -1.0387  -1.0364  -0.9106  -0.8213  -0.8019
    -0.7973  -0.7131  -0.7097  -0.7076  -0.6689  -0.5781  -0.5664  -0.2971
    -0.2540  -0.0706  -0.0360   0.0653   0.0668   0.1615   0.1639   0.2041
     0.2423   0.4274   0.5301   0.5786   0.8122   0.8177   0.8676   0.9017
     0.9625   0.9644   0.9727   1.0011   1.0692   1.1277   1.1718   1.1726
     1.1910   1.3981   1.5258   1.6145   1.6545   1.6613   1.7619   1.7863
     1.7959   1.8661   1.9737   1.9871   2.0185   2.0729   2.1502   2.2884
     2.3360   2.4041   2.4049   2.5299   2.9658   2.9747   4.3157   7.3182
     7.4707   7.4717   8.0532   8.2974   8.4221   8.7146   8.7194   8.7984
     8.8603   9.1277   9.1298   9.1751   9.2067   9.4383   9.5189   9.5354
     9.7266

          k = 0.0000-0.5279 0.0000 ( 34110 PWs)   bands (ev):

   -35.5369 -35.4415 -22.8398 -22.5642 -22.5637 -22.3211 -17.0046 -16.9121
   -16.7789 -16.6643 -16.5845 -16.4968 -14.9396 -14.9350 -14.5313 -14.4777
   -14.4573 -14.2662 -14.2588 -14.1964 -14.0902 -14.0437 -14.0353 -14.0209
   -13.9653 -13.8876 -13.7950  -8.1300  -8.0966  -7.8952  -7.8945  -7.8839
    -7.8828  -7.6614  -7.6609  -7.6427  -7.4950  -7.4947  -7.2160  -3.6783
    -3.4299  -3.4264  -3.2001  -3.1921  -3.1776  -3.0582  -2.3517  -2.3509
    -2.0773  -2.0682  -1.9047  -1.8935  -1.4590  -1.4369  -1.2935  -1.2559
    -1.1922  -1.1778  -1.1636  -1.1609  -1.0964  -1.0016  -0.9270  -0.9150
    -0.9056  -0.8011  -0.8002  -0.8002  -0.7440  -0.6444  -0.5773  -0.2632
    -0.2311  -0.1203  -0.0800   0.0710   0.0725   0.1599   0.1692   0.2101
     0.2388   0.4220   0.4580   0.5181   0.7384   0.7822   0.8506   0.8637
     0.8935   0.9635   1.0116   1.0481   1.0834   1.1547   1.1557   1.3437
     1.3925   1.4211   1.5199   1.5682   1.7656   1.7747   1.7834   1.8178
     2.0502   2.0569   2.0579   2.1027   2.1189   2.1836   2.1856   2.2063
     2.2416   2.5136   2.5656   2.5664   2.7866   2.7972   4.5001   7.5249
     7.8835   7.8843   8.2084   8.5288   8.9823   9.0007   9.0073   9.0232
     9.0438   9.1228   9.2444   9.3509   9.3577   9.4352   9.7655   9.8491
     9.9385

          k = 0.1250 0.0000 0.0000 ( 34183 PWs)   bands (ev):

   -35.5483 -35.4529 -22.9818 -22.7358 -22.7353 -22.4843 -17.0204 -16.9061
   -16.6807 -16.5935 -16.5878 -16.4983 -15.1620 -15.0885 -14.8435 -14.6799
   -14.6689 -14.5401 -14.4117 -14.1534 -14.1519 -13.9565 -13.9396 -13.8078
   -13.7146 -13.6107 -13.4942  -8.2505  -7.9110  -7.9095  -7.8816  -7.7859
    -7.7854  -7.7722  -7.7125  -7.6223  -7.6217  -7.4857  -7.3490  -2.3358
    -2.3354  -2.0840  -1.8343  -1.8299  -1.7699  -1.7654  -1.7612  -1.6993
    -1.6068  -1.5538  -1.4140  -1.3835  -1.1823  -1.1812  -1.0490  -0.8407
    -0.7564  -0.6307  -0.5896  -0.5658  -0.4793  -0.4767  -0.3442  -0.3046
    -0.3020  -0.2925  -0.2439  -0.2309  -0.2266  -0.1975  -0.1623  -0.1455
    -0.1443  -0.0646  -0.0107   0.0783   0.1278   0.1288   0.1561   0.1978
     0.2319   0.2323   0.2558   0.3024   0.3540   0.4168   0.4597   0.4977
     0.6328   0.8205   0.8294   0.8581   0.9268   1.0212   1.0678   1.2233
     1.2404   1.2519   1.4026   1.4117   1.4322   1.4583   1.5241   1.5662
     1.5862   1.8919   1.8940   1.9314   1.9607   2.0135   2.0281   2.0900
     2.1142   2.1789   2.2235   2.2494   2.3524   2.6036   2.6077   5.4305
     5.4343   5.8691   6.4511   6.5604   6.9274   7.0149   7.0417   7.4750
     8.1551   8.2589   8.3943   8.4866   8.6409   8.8377   8.9411   9.1686
     9.3232

          k = 0.1250 0.1320 0.0000 ( 34158 PWs)   bands (ev):

   -35.5465 -35.4511 -22.9601 -22.7100 -22.7094 -22.4596 -16.9853 -16.8707
   -16.6838 -16.6509 -16.5960 -16.5616 -15.0807 -15.0135 -14.7861 -14.6743
   -14.6588 -14.5103 -14.3771 -14.1543 -14.1527 -13.9622 -13.9547 -13.8474
   -13.7491 -13.6351 -13.5444  -8.2272  -8.0046  -7.9302  -7.9294  -7.8481
    -7.8472  -7.7248  -7.7009  -7.5849  -7.5839  -7.5784  -7.3086  -2.3879
    -2.3866  -2.1663  -2.1058  -2.0816  -1.9696  -1.8830  -1.8132  -1.8082
    -1.7345  -1.6576  -1.6024  -1.6015  -1.5785  -1.3074  -1.2583  -1.1087
    -0.7681  -0.7567  -0.7089  -0.6416  -0.6358  -0.5512  -0.5050  -0.4921
    -0.4657  -0.4648  -0.4028  -0.2295  -0.2014  -0.1688  -0.1535  -0.0960
    -0.0391  -0.0037   0.0162   0.0390   0.0494   0.1314   0.1881   0.1954
     0.2270   0.2584   0.3058   0.3221   0.3325   0.3841   0.5565   0.6361
     0.7070   0.9587   1.0420   1.0721   1.0754   1.1568   1.1673   1.2522
     1.2671   1.2861   1.3184   1.3322   1.3507   1.4664   1.5850   1.6268
     1.6499   1.6752   1.6984   1.7024   1.7500   1.8018   2.1119   2.1988
     2.3798   2.3839   2.5652   2.6283   2.8383   2.8611   2.9090   5.7709
     5.7724   6.1311   6.7226   6.8012   7.2060   7.3106   7.3303   7.7496
     8.3264   8.4360   8.5373   8.6577   8.7949   8.8800   9.0396   9.2529
     9.2960

          k = 0.1250 0.2640 0.0000 ( 34093 PWs)   bands (ev):

   -35.5421 -35.4467 -22.9068 -22.6461 -22.6456 -22.3987 -16.8961 -16.8130
   -16.7806 -16.7226 -16.6633 -16.5761 -14.9066 -14.8696 -14.6746 -14.6361
   -14.6314 -14.4407 -14.2915 -14.1365 -14.1321 -14.0115 -14.0021 -13.9500
   -13.8010 -13.7148 -13.6506  -8.1873  -8.1392  -7.9992  -7.9987  -7.8851
    -7.8842  -7.7285  -7.7220  -7.6628  -7.5751  -7.5747  -7.3034  -2.8193
    -2.8071  -2.6735  -2.5762  -2.4554  -2.3919  -2.3913  -2.2444  -2.2434
    -2.0556  -1.7641  -1.7612  -1.6965  -1.5830  -1.5225  -1.4498  -1.4236
    -1.0033  -0.9555  -0.9481  -0.9226  -0.8656  -0.8253  -0.7255  -0.7106
    -0.6568  -0.6563  -0.5775  -0.5303  -0.5081  -0.4628  -0.4385  -0.2831
    -0.2086  -0.0908  -0.0109   0.0027   0.0167   0.1381   0.2275   0.2515
     0.4052   0.4607   0.5359   0.5981   0.7397   0.7825   0.7884   0.8368
     0.9297   1.0525   1.0582   1.1304   1.1453   1.2041   1.3298   1.3445
     1.3699   1.3878   1.4086   1.4278   1.4443   1.5445   1.5586   1.6280
     1.6639   1.6802   1.7007   1.8527   1.9739   1.9761   2.0553   2.3030
     2.5775   2.5816   2.7925   2.8588   3.0838   3.0939   3.7421   6.5842
     6.5848   6.6925   7.4252   7.4329   8.0303   8.0900   8.1032   8.3588
     8.5792   8.7703   8.8204   8.8648   8.9923   9.0379   9.1488   9.2296
     9.3168

          k = 0.1250 0.3960 0.0000 ( 34104 PWs)   bands (ev):

   -35.5377 -35.4423 -22.8522 -22.5802 -22.5796 -22.3359 -16.9473 -16.8551
   -16.7974 -16.6823 -16.6547 -16.5677 -14.8623 -14.8582 -14.5717 -14.5119
   -14.4510 -14.3724 -14.2253 -14.1064 -14.0927 -14.0693 -14.0467 -14.0396
   -13.8798 -13.8328 -13.7250  -8.2392  -8.1128  -8.0297  -8.0290  -7.8966
    -7.8957  -7.7890  -7.7628  -7.6622  -7.6202  -7.6198  -7.3432  -3.3993
    -3.2919  -3.2858  -3.0497  -2.9540  -2.9499  -2.9110  -2.3438  -2.3430
    -2.0844  -1.8804  -1.7547  -1.7518  -1.6159  -1.6018  -1.5401  -1.4309
    -1.2940  -1.2715  -1.2041  -1.1361  -1.0817  -1.0778  -1.0040  -0.8461
    -0.8361  -0.8341  -0.7895  -0.7560  -0.7169  -0.6769  -0.5554  -0.3343
    -0.2930  -0.1440  -0.0314   0.0003   0.0396   0.1825   0.2391   0.2463
     0.4450   0.5122   0.6682   0.7106   0.7616   0.9379   0.9412   1.0021
     1.0831   1.0932   1.1179   1.1279   1.2166   1.2308   1.2658   1.2755
     1.2992   1.4752   1.5746   1.6884   1.7138   1.7570   1.7643   1.7851
     1.8899   1.9390   1.9817   2.0612   2.0929   2.3713   2.3720   2.4222
     2.5260   2.5313   2.7399   2.7897   3.0241   3.0417   4.3033   7.0441
     7.3354   7.3367   8.1043   8.1836   8.2321   8.6023   8.6989   8.7030
     8.8633   8.9544   9.2196   9.3834   9.4423   9.5825   9.6577   9.6770
     9.7312

          k = 0.1250-0.5279 0.0000 ( 34036 PWs)   bands (ev):

   -35.5358 -35.4405 -22.8292 -22.5522 -22.5517 -22.3093 -16.9989 -16.9065
   -16.7539 -16.6510 -16.6388 -16.5640 -14.8949 -14.8908 -14.4588 -14.4180
   -14.4142 -14.2646 -14.2405 -14.1753 -14.1228 -14.0400 -14.0362 -13.9912
   -13.9869 -13.8676 -13.7701  -8.2506  -8.0993  -8.0244  -8.0236  -7.9015
    -7.9005  -7.8061  -7.7851  -7.6609  -7.6542  -7.6537  -7.3687  -3.6684
    -3.4785  -3.4727  -3.2279  -3.1831  -3.1782  -3.0878  -2.3648  -2.3641
    -2.0952  -1.9717  -1.7847  -1.7808  -1.5723  -1.5620  -1.4778  -1.4584
    -1.4243  -1.3149  -1.3133  -1.2867  -1.1735  -1.1652  -1.1578  -0.9140
    -0.9100  -0.9092  -0.8746  -0.8457  -0.8134  -0.7804  -0.5456  -0.3238
    -0.2843  -0.1629  -0.0341   0.0020   0.0608   0.1955   0.2493   0.2518
     0.4461   0.5228   0.6801   0.6922   0.7372   0.9139   0.9697   0.9777
     0.9917   0.9929   1.0638   1.1465   1.2269   1.2989   1.3157   1.3855
     1.4471   1.5007   1.5533   1.7797   1.8158   1.8558   2.0447   2.0586
     2.0695   2.0774   2.1587   2.2046   2.2343   2.3831   2.3860   2.5003
     2.5366   2.5373   2.5905   2.6384   2.9034   2.9240   4.4814   7.0919
     7.5574   7.5580   8.2673   8.3414   8.3465   8.5559   9.0386   9.0852
     9.2287   9.3375   9.3462   9.5636   9.6107   9.8340   9.8804   9.9085
    10.0226

          k = 0.2500 0.0000 0.0000 ( 34204 PWs)   bands (ev):

   -35.5456 -35.4503 -22.9453 -22.6915 -22.6910 -22.4420 -16.9352 -16.8448
   -16.8193 -16.7585 -16.5845 -16.4949 -14.9643 -14.9335 -14.8979 -14.7615
   -14.7199 -14.5635 -14.4236 -14.1675 -14.1664 -14.0030 -13.9752 -13.8631
   -13.8175 -13.6447 -13.5794  -8.2777  -7.9125  -7.9112  -7.8027  -7.7270
    -7.7061  -7.6992  -7.6989  -7.5416  -7.5410  -7.4017  -7.2734  -2.5284
    -2.5266  -2.3163  -2.1730  -2.1721  -2.1080  -1.9860  -1.7090  -1.6968
    -1.6099  -1.4808  -1.4341  -1.3925  -1.1790  -1.1778  -1.1005  -0.9442
    -0.9124  -0.8971  -0.8351  -0.7325  -0.7319  -0.7304  -0.6013  -0.5316
    -0.4981  -0.4936  -0.4652  -0.4059  -0.2789  -0.2462  -0.2136  -0.2119
    -0.1617  -0.1533  -0.0734  -0.0252   0.1150   0.1161   0.2205   0.2224
     0.2678   0.3598   0.3611   0.4904   0.4914   0.5304   0.5874   0.6217
     0.6981   0.7087   0.7640   0.9537   1.0058   1.0301   1.0699   1.1159
     1.3166   1.3288   1.3447   1.3577   1.4530   1.4872   1.4945   1.6027
     1.6471   1.7656   1.7948   1.9005   1.9208   2.0541   2.0657   2.0984
     2.1062   2.1701   2.3660   2.5203   2.5337   2.7103   2.7156   5.8904
     5.8912   6.3363   7.0688   7.1383   7.4289   7.5919   7.6022   8.0385
     8.4996   8.5259   8.6542   8.7522   8.9804   9.3221   9.3648   9.4806
     9.6355

          k = 0.2500 0.1320 0.0000 ( 34143 PWs)   bands (ev):

   -35.5438 -35.4485 -22.9251 -22.6677 -22.6671 -22.4191 -16.9030 -16.8384
   -16.7866 -16.7523 -16.6506 -16.5608 -14.9139 -14.8925 -14.8347 -14.7123
   -14.6678 -14.5281 -14.3796 -14.1533 -14.1532 -14.0025 -13.9873 -13.8836
   -13.8352 -13.6618 -13.6042  -8.2616  -8.0247  -7.9810  -7.9804  -7.8360
    -7.8351  -7.7578  -7.6567  -7.5759  -7.5079  -7.5075  -7.2400  -2.5783
    -2.5730  -2.3541  -2.1689  -2.1634  -2.1388  -2.0558  -2.0338  -1.9828
    -1.9092  -1.8080  -1.6731  -1.5929  -1.5920  -1.3693  -1.3290  -1.2133
    -0.9864  -0.9828  -0.9315  -0.8915  -0.8503  -0.7682  -0.7232  -0.5952
    -0.5821  -0.5485  -0.5356  -0.4226  -0.3615  -0.3012  -0.2728  -0.1786
    -0.1656   0.0057   0.0098   0.0644   0.1021   0.1299   0.1932   0.2338
     0.2475   0.3646   0.3671   0.3959   0.5959   0.6495   0.6819   0.8129
     0.8746   0.9393   0.9503   1.0036   1.0993   1.1387   1.1925   1.2284
     1.2609   1.3294   1.4157   1.4383   1.4694   1.5146   1.5172   1.5683
     1.6187   1.6610   1.7318   1.7684   1.7772   1.8678   2.0733   2.2669
     2.7014   2.7139   2.8923   2.8982   2.9067   2.9724   3.0157   6.1518
     6.1524   6.4584   7.2318   7.2735   7.6990   7.8490   7.8565   8.2849
     8.4967   8.6449   8.6567   8.8895   9.0760   9.0985   9.2214   9.3436
     9.4648

          k = 0.2500 0.2640 0.0000 ( 34141 PWs)   bands (ev):

   -35.5395 -35.4441 -22.8755 -22.6090 -22.6084 -22.3628 -16.8385 -16.8146
   -16.7872 -16.7456 -16.7038 -16.6974 -14.8247 -14.8181 -14.6645 -14.5720
   -14.5349 -14.4393 -14.2624 -14.1282 -14.1262 -14.0526 -14.0341 -13.9311
   -13.8399 -13.7044 -13.6626  -8.3448  -8.2012  -8.2007  -8.1843  -7.9184
    -7.8977  -7.8969  -7.7833  -7.6760  -7.6277  -7.6272  -7.3626  -2.9566
    -2.9365  -2.7009  -2.6163  -2.5184  -2.4050  -2.4037  -2.2766  -2.2760
    -2.1797  -2.1340  -2.1325  -2.0159  -1.9522  -1.5465  -1.4143  -1.3903
    -1.3849  -1.3800  -1.2436  -1.1540  -1.0206  -0.9191  -0.8549  -0.7428
    -0.6971  -0.6904  -0.5869  -0.5632  -0.5616  -0.5555  -0.5321  -0.3622
    -0.3107  -0.2729  -0.2503   0.0468   0.1194   0.1650   0.3657   0.3934
     0.5772   0.6207   0.6859   0.8160   0.8379   0.8822   0.9344   0.9950
     0.9984   1.1726   1.2580   1.2957   1.3207   1.3484   1.4170   1.4595
     1.4914   1.4961   1.5428   1.5628   1.5783   1.6366   1.6544   1.6615
     1.7184   1.7287   1.7567   1.8883   1.8943   1.9181   2.1677   2.3642
     3.0215   3.0240   3.3083   3.3180   3.4589   3.5421   3.7493   6.5560
     6.6945   6.6949   7.6234   7.6768   8.1722   8.3756   8.3812   8.4087
     8.7577   8.8176   9.0124   9.0713   9.1022   9.3016   9.3478   9.3970
     9.4837

          k = 0.2500 0.3960 0.0000 ( 34116 PWs)   bands (ev):

   -35.5351 -35.4397 -22.8247 -22.5485 -22.5480 -22.3049 -16.9352 -16.8433
   -16.8028 -16.7287 -16.7153 -16.6138 -14.7811 -14.7789 -14.4437 -14.4035
   -14.3906 -14.3357 -14.1771 -14.1607 -14.1047 -14.0609 -14.0475 -14.0091
   -13.8483 -13.7887 -13.6945  -8.5034  -8.3212  -8.3206  -8.1450  -8.0592
    -7.9867  -7.9480  -7.9473  -7.8416  -7.8411  -7.6989  -7.5772  -3.4576
    -3.4353  -3.3674  -3.1645  -3.0093  -2.9296  -2.9293  -2.4150  -2.4146
    -2.1995  -2.0990  -2.0927  -1.9926  -1.9099  -1.7852  -1.7415  -1.7204
    -1.5489  -1.4935  -1.4132  -1.3833  -1.2264  -1.1275  -1.1033  -0.8377
    -0.7980  -0.7695  -0.7614  -0.7595  -0.7103  -0.6949  -0.5247  -0.5056
    -0.4546  -0.3805  -0.3180   0.1215   0.2023   0.2346   0.4083   0.4552
     0.7211   0.7551   0.9072   1.0143   1.0149   1.0449   1.0997   1.2849
     1.3166   1.3255   1.3587   1.3614   1.4520   1.4782   1.5449   1.5599
     1.6107   1.6394   1.6936   1.7611   1.7768   1.8145   1.8383   1.9134
     1.9532   1.9628   2.0332   2.0881   2.1756   2.2929   2.2936   2.4530
     2.8530   2.8562   3.5381   3.5567   3.6953   3.7684   4.2690   6.3815
     6.9020   6.9035   7.7228   7.7837   8.3589   8.5660   8.8213   8.8373
     8.8919   9.0898   9.4169   9.5879   9.7179   9.7733   9.8495   9.9333
     9.9428

          k = 0.2500-0.5279 0.0000 ( 34148 PWs)   bands (ev):

   -35.5333 -35.4379 -22.8034 -22.5230 -22.5225 -22.2804 -16.9854 -16.8932
   -16.7973 -16.7100 -16.6891 -16.5741 -14.7779 -14.7750 -14.3264 -14.3242
   -14.3170 -14.2607 -14.2022 -14.1868 -14.1179 -14.0318 -14.0307 -14.0166
   -13.9112 -13.8117 -13.7102  -8.5358  -8.3214  -8.3206  -8.1304  -8.1104
    -8.0729  -8.0361  -8.0357  -7.9078  -7.9069  -7.7149  -7.6815  -3.6702
    -3.6364  -3.6251  -3.3579  -3.2032  -3.1569  -3.1562  -2.4224  -2.4220
    -2.1887  -2.0620  -2.0548  -1.9445  -1.9377  -1.8998  -1.8592  -1.8481
    -1.6739  -1.5835  -1.4427  -1.4139  -1.2984  -1.2127  -1.1956  -0.9080
    -0.8795  -0.8317  -0.7807  -0.7804  -0.7744  -0.7674  -0.5217  -0.4992
    -0.4783  -0.4062  -0.3342   0.1341   0.2334   0.2668   0.4264   0.4877
     0.7570   0.8383   1.0193   1.0713   1.1154   1.1174   1.1188   1.2345
     1.2534   1.3095   1.4096   1.4632   1.4945   1.5202   1.5398   1.5459
     1.5856   1.7453   1.7839   1.9486   1.9585   1.9844   2.0297   2.0547
     2.0764   2.1129   2.1286   2.2039   2.3054   2.4686   2.4693   2.4886
     2.6305   2.6352   3.5582   3.5812   3.7303   3.8002   4.4258   6.2599
     6.8667   6.8678   7.6384   7.7547   8.4354   8.5890   8.9935   9.2264
     9.3307   9.3733   9.5550   9.5733   9.8331   9.8989   9.9756  10.1153
    10.1442

          k = 0.3750 0.0000 0.0000 ( 34140 PWs)   bands (ev):

   -35.5430 -35.4476 -22.9081 -22.6461 -22.6455 -22.3987 -16.9847 -16.8977
   -16.8400 -16.7234 -16.5812 -16.4916 -15.0088 -15.0034 -14.9666 -14.6158
   -14.5962 -14.5646 -14.3865 -14.1791 -14.1731 -14.1108 -14.0443 -13.9371
   -13.8780 -13.6851 -13.6443  -8.2716  -7.8949  -7.8939  -7.7543  -7.7158
    -7.6378  -7.6344  -7.6340  -7.4572  -7.4566  -7.3538  -7.1946  -2.8560
    -2.8529  -2.6737  -2.4986  -2.2955  -2.2947  -2.0257  -1.6268  -1.6023
    -1.5448  -1.5115  -1.4651  -1.3645  -1.1806  -1.1795  -1.1649  -1.1489
    -1.0029  -0.9931  -0.9812  -0.9757  -0.9039  -0.8627  -0.8449  -0.7546
    -0.7040  -0.6938  -0.6873  -0.5780  -0.4056  -0.3665  -0.2271  -0.2085
    -0.1942  -0.1755  -0.1447  -0.0608   0.1022   0.1033   0.1971   0.2083
     0.2254   0.4384   0.4401   0.4614   0.4647   0.4997   0.5669   0.5860
     0.7861   0.8139   0.8433   0.8543   0.9783   1.1244   1.2206   1.2207
     1.2637   1.3124   1.3852   1.3951   1.5333   1.5396   1.5762   1.5995
     1.7000   1.7872   1.8087   1.8444   1.9517   1.9569   2.1154   2.1306
     2.1872   2.2192   2.4174   2.5979   2.6239   2.8252   2.8392   6.5403
     6.5409   6.7488   7.8064   7.8685   8.0358   8.0366   8.1152   8.5103
     8.5167   8.5878   8.7439   9.3613   9.3826   9.5314   9.5370   9.6085
     9.6098

          k = 0.3750 0.1320 0.0000 ( 34185 PWs)   bands (ev):

   -35.5412 -35.4459 -22.8894 -22.6244 -22.6238 -22.3777 -16.9761 -16.8891
   -16.8108 -16.6940 -16.6457 -16.5559 -14.9605 -14.9562 -14.8963 -14.5749
   -14.5520 -14.5040 -14.3310 -14.1512 -14.1493 -14.0878 -14.0363 -13.9304
   -13.9009 -13.7010 -13.6491  -8.2591  -7.9661  -7.9525  -7.9518  -7.7977
    -7.7970  -7.7447  -7.7135  -7.5469  -7.5463  -7.5310  -7.2879  -2.9177
    -2.9105  -2.7177  -2.5294  -2.2943  -2.2935  -2.0492  -1.9975  -1.9862
    -1.8235  -1.7385  -1.6729  -1.5815  -1.5805  -1.4389  -1.4058  -1.2947
    -1.2755  -1.2725  -1.1590  -1.0267  -1.0086  -0.8780  -0.7779  -0.7547
    -0.7057  -0.6289  -0.6069  -0.5277  -0.5023  -0.3809  -0.3728  -0.2323
    -0.2295  -0.0215  -0.0126   0.0854   0.1507   0.1685   0.2142   0.2232
     0.2592   0.3993   0.4738   0.4763   0.5079   0.7051   0.7159   0.8297
     0.8539   0.9247   0.9993   1.0530   1.1718   1.1798   1.2215   1.2699
     1.3105   1.3443   1.3959   1.4007   1.5607   1.5783   1.6107   1.6236
     1.7418   1.7767   1.8024   1.8297   1.9116   1.9520   2.0521   2.2591
     2.7782   2.7865   2.9332   2.9960   3.0049   3.1711   3.2101   6.6624
     6.6897   6.6904   7.8532   7.9168   8.1014   8.1017   8.3005   8.3233
     8.5379   8.7249   8.9555   9.2292   9.2991   9.4207   9.5368   9.6075
     9.6875

          k = 0.3750 0.2640 0.0000 ( 34193 PWs)   bands (ev):

   -35.5369 -35.4415 -22.8437 -22.5711 -22.5705 -22.3262 -16.9557 -16.8689
   -16.7900 -16.7356 -16.6986 -16.6197 -14.8383 -14.8355 -14.7023 -14.4790
   -14.4502 -14.3547 -14.2014 -14.1108 -14.0964 -14.0777 -14.0472 -13.9556
   -13.8681 -13.7137 -13.6708  -8.3983  -8.2539  -8.2533  -8.1878  -7.9999
    -7.9515  -7.9324  -7.9317  -7.8101  -7.8094  -7.6942  -7.5615  -3.2329
    -3.2078  -2.9570  -2.7545  -2.6038  -2.4648  -2.4622  -2.3457  -2.3453
    -2.3180  -2.2180  -2.2145  -2.2083  -2.0127  -1.7421  -1.7134  -1.5758
    -1.5022  -1.4459  -1.2220  -1.2024  -1.0151  -0.9135  -0.8821  -0.8391
    -0.8241  -0.7615  -0.6316  -0.6140  -0.6089  -0.5924  -0.5333  -0.4496
    -0.3767  -0.3366  -0.3081   0.0840   0.1526   0.3202   0.4748   0.4984
     0.6928   0.7329   0.7730   0.8555   0.8678   1.0418   1.0435   1.1379
     1.2057   1.2434   1.2710   1.2790   1.4404   1.4549   1.4882   1.5285
     1.5517   1.6389   1.6720   1.7013   1.7042   1.7554   1.7813   1.7883
     1.8072   1.8425   1.8621   1.8676   1.9123   2.1056   2.1665   2.2849
     3.0216   3.0258   3.7315   3.7651   3.7739   3.8943   3.9670   6.2798
     6.7351   6.7359   7.6432   7.6769   8.3508   8.4369   8.4416   8.6417
     8.8677   9.1632   9.3663   9.3780   9.4609   9.5260   9.5713   9.8327
     9.8917

          k = 0.3750 0.3960 0.0000 ( 34177 PWs)   bands (ev):

   -35.5326 -35.4372 -22.7969 -22.5164 -22.5159 -22.2734 -16.9384 -16.9168
   -16.8508 -16.8261 -16.6559 -16.5395 -14.7034 -14.7019 -14.4453 -14.3853
   -14.3588 -14.1989 -14.1905 -14.1544 -14.0441 -14.0416 -14.0166 -13.9530
   -13.8539 -13.7206 -13.6721  -8.7052  -8.5197  -8.5190  -8.3009  -8.2486
    -8.1847  -8.1843  -8.1366  -7.9350  -7.9339  -7.8633  -7.7185  -3.7122
    -3.6812  -3.4149  -3.3159  -3.2013  -2.9097  -2.9086  -2.5962  -2.5950
    -2.4327  -2.3010  -2.2435  -2.2430  -2.0541  -2.0292  -2.0210  -1.8064
    -1.7458  -1.6118  -1.2440  -1.1811  -1.1729  -1.1719  -1.1450  -0.9234
    -0.9173  -0.8318  -0.8262  -0.7607  -0.6888  -0.6727  -0.6348  -0.5614
    -0.5009  -0.3599  -0.3585   0.1920   0.2918   0.3658   0.5773   0.6754
     0.9179   1.0390   1.1243   1.1926   1.1950   1.2891   1.3161   1.3907
     1.4153   1.5117   1.5203   1.5300   1.6187   1.6423   1.7234   1.7454
     1.7780   1.8075   1.8338   1.8853   1.9477   1.9698   1.9955   2.0133
     2.0432   2.0643   2.1180   2.1971   2.2147   2.2154   2.3760   2.4796
     2.8411   2.8476   4.1969   4.2815   4.2983   4.3727   4.4476   5.8030
     6.4317   6.4327   7.2815   7.4130   8.4908   8.5640   8.9981   9.0260
     9.0860   9.3233   9.4464   9.5404   9.5590   9.6268   9.6604   9.7871
     9.9334

          k = 0.3750-0.5279 0.0000 ( 34192 PWs)   bands (ev):

   -35.5308 -35.4354 -22.7773 -22.4934 -22.4928 -22.2512 -16.9720 -16.9258
   -16.8801 -16.8391 -16.6204 -16.5042 -14.6421 -14.6411 -14.3605 -14.3300
   -14.2591 -14.2477 -14.1772 -14.1083 -14.0269 -14.0240 -14.0227 -13.9539
   -13.8741 -13.7228 -13.6558  -8.8156  -8.6017  -8.6009  -8.4231  -8.3488
    -8.3299  -8.3295  -8.1366  -7.9792  -7.9605  -7.9593  -7.7316  -3.9188
    -3.8873  -3.6513  -3.5498  -3.4017  -3.1349  -3.1339  -2.6147  -2.6136
    -2.4439  -2.3050  -2.2375  -2.2371  -2.1614  -2.1413  -2.0235  -1.8895
    -1.8436  -1.6533  -1.3169  -1.2857  -1.2608  -1.2049  -1.1947  -0.9225
    -0.9192  -0.9178  -0.9100  -0.8456  -0.7869  -0.7138  -0.6497  -0.5604
    -0.4784  -0.3461  -0.3449   0.2237   0.3294   0.3796   0.6136   0.7572
     0.9861   1.1681   1.2883   1.3035   1.3303   1.3408   1.3756   1.3915
     1.4235   1.5844   1.6352   1.6758   1.7093   1.7695   1.7848   1.8002
     1.8426   1.8906   1.9342   2.0204   2.0565   2.0797   2.0935   2.1564
     2.1833   2.2191   2.2685   2.3228   2.4033   2.4058   2.5297   2.5482
     2.5962   2.6058   4.3002   4.4244   4.4540   4.5199   4.5920   5.5982
     6.2543   6.2548   7.1553   7.3248   8.3783   8.5888   8.9923   9.1553
     9.1854   9.3111   9.4061   9.5709   9.6922   9.8130   9.8814   9.8967
     9.9392

          k =-0.5000 0.0000 0.0000 ( 34130 PWs)   bands (ev):

   -35.5419 -35.4465 -22.8925 -22.6269 -22.6264 -22.3805 -17.0371 -16.9502
   -16.7978 -16.6804 -16.5798 -16.4902 -15.0661 -15.0591 -14.9989 -14.6329
   -14.5766 -14.3528 -14.2851 -14.2177 -14.2119 -14.1611 -14.1383 -13.9730
   -13.8934 -13.7033 -13.6665  -8.2617  -7.8846  -7.8836  -7.7429  -7.7053
    -7.6113  -7.6109  -7.6087  -7.4210  -7.4204  -7.3408  -7.1610  -2.9980
    -2.9953  -2.8184  -2.6503  -2.3205  -2.3197  -2.0229  -1.6168  -1.5897
    -1.5791  -1.5468  -1.3389  -1.2619  -1.2262  -1.1948  -1.1844  -1.1834
    -1.1390  -1.1214  -1.0272  -1.0174  -0.9584  -0.9454  -0.8635  -0.8165
    -0.8018  -0.7782  -0.7773  -0.6600  -0.4669  -0.4176  -0.2409  -0.2118
    -0.1804  -0.1804  -0.1490  -0.1234   0.0969   0.0980   0.1689   0.1895
     0.2038   0.4384   0.4396   0.4636   0.4647   0.4921   0.5267   0.5650
     0.7559   0.8499   0.8642   0.8963   0.9251   1.1702   1.1704   1.1820
     1.3973   1.4081   1.4335   1.4691   1.4935   1.5366   1.6278   1.6763
     1.6892   1.6903   1.7559   1.9057   1.9923   2.1019   2.1257   2.1491
     2.1992   2.2186   2.4275   2.5862   2.6318   2.8535   2.8747   6.9094
     7.3134   7.3137   7.3648   7.3656   8.3065   8.3186   8.3545   8.5831
     8.6482   8.7154   9.0865   9.4624   9.4930   9.5415   9.5713   9.7262
     9.7817

          k =-0.5000 0.1320 0.0000 ( 34202 PWs)   bands (ev):

   -35.5401 -35.4448 -22.8745 -22.6061 -22.6056 -22.3603 -17.0278 -16.9410
   -16.7702 -16.6527 -16.6435 -16.5538 -15.0085 -15.0026 -14.9248 -14.5924
   -14.5384 -14.3116 -14.2270 -14.1771 -14.1739 -14.1392 -14.1130 -13.9407
   -13.9310 -13.7225 -13.6639  -8.2462  -7.9236  -7.9228  -7.8613  -7.8329
    -7.7407  -7.7403  -7.7244  -7.6240  -7.6233  -7.4612  -7.3745  -3.0662
    -3.0594  -2.8702  -2.6870  -2.3255  -2.3247  -2.0575  -1.9681  -1.9522
    -1.7672  -1.6915  -1.6647  -1.5762  -1.5751  -1.4776  -1.4388  -1.3908
    -1.3873  -1.3176  -1.2700  -1.1118  -1.0613  -0.8672  -0.8338  -0.8331
    -0.7003  -0.6456  -0.6224  -0.6076  -0.5250  -0.4171  -0.4109  -0.2562
    -0.2554  -0.0360  -0.0227   0.0977   0.1595   0.1744   0.2181   0.2191
     0.3423   0.3427   0.4615   0.5498   0.5509   0.6290   0.6396   0.8052
     0.8324   0.9371   0.9977   1.0877   1.1458   1.1873   1.2180   1.3113
     1.3158   1.3170   1.4541   1.5087   1.5658   1.5984   1.6696   1.7050
     1.7386   1.7616   1.7768   1.9128   1.9567   2.0771   2.1325   2.2431
     2.7851   2.7901   2.9411   3.0149   3.0255   3.2221   3.2533   6.7049
     7.1611   7.1615   7.6679   7.6685   8.1640   8.2147   8.4474   8.4824
     8.5137   8.9439   9.3273   9.4643   9.5703   9.6264   9.6324   9.7086
     9.7192

          k =-0.5000 0.2640 0.0000 ( 34216 PWs)   bands (ev):

   -35.5358 -35.4404 -22.8303 -22.5552 -22.5546 -22.3108 -17.0058 -16.9191
   -16.7868 -16.6992 -16.6955 -16.5825 -14.8571 -14.8529 -14.7203 -14.4958
   -14.4486 -14.2084 -14.1290 -14.1189 -14.1006 -14.0888 -14.0428 -13.9986
   -13.8703 -13.7356 -13.6692  -8.3422  -8.1928  -8.1919  -8.1867  -8.1435
    -8.0418  -8.0415  -7.9232  -7.8735  -7.8726  -7.7389  -7.6732  -3.3713
    -3.3463  -3.1027  -2.8991  -2.5965  -2.4903  -2.4873  -2.3582  -2.3553
    -2.3336  -2.2387  -2.2223  -2.2208  -2.0173  -1.8668  -1.8348  -1.6428
    -1.5457  -1.5255  -1.1441  -1.1152  -0.9890  -0.9332  -0.9323  -0.8673
    -0.8469  -0.7830  -0.6710  -0.6381  -0.6378  -0.6060  -0.5308  -0.4525
    -0.3583  -0.3575  -0.3519   0.0967   0.1635   0.3834   0.5245   0.5371
     0.7341   0.7765   0.8470   0.8855   0.8902   1.1273   1.1306   1.1651
     1.2113   1.2198   1.2458   1.2479   1.4393   1.5086   1.5362   1.5572
     1.5665   1.6138   1.7235   1.7351   1.7431   1.7976   1.8324   1.8520
     1.8763   1.8867   1.9455   1.9829   2.0086   2.0406   2.2202   2.2225
     3.0147   3.0193   3.7457   3.9016   3.9067   4.0253   4.0952   6.1454
     6.7310   6.7315   7.5251   7.6114   8.4262   8.4788   8.5442   8.7619
     9.0935   9.3349   9.3413   9.5484   9.6264   9.6491   9.7730   9.7974
     9.8954

          k =-0.5000 0.3960 0.0000 ( 34176 PWs)   bands (ev):

   -35.5315 -35.4361 -22.7853 -22.5030 -22.5024 -22.2602 -16.9842 -16.9159
   -16.8976 -16.8243 -16.6235 -16.5067 -14.6742 -14.6721 -14.4557 -14.4027
   -14.3733 -14.1841 -14.1451 -14.1010 -14.0419 -14.0408 -13.9526 -13.9381
   -13.8659 -13.6897 -13.6692  -8.7648  -8.5679  -8.5671  -8.4229  -8.3298
    -8.3295  -8.3109  -8.1505  -7.9978  -7.9512  -7.9501  -7.7267  -3.8426
    -3.8087  -3.5261  -3.3356  -3.3015  -2.9012  -2.9001  -2.6664  -2.6647
    -2.5039  -2.3878  -2.2602  -2.2594  -2.1560  -2.1304  -2.0298  -1.8578
    -1.8018  -1.6433  -1.1972  -1.1962  -1.1940  -1.0695  -1.0633  -1.0111
    -1.0069  -0.8510  -0.8497  -0.7457  -0.7366  -0.6840  -0.6737  -0.5610
    -0.5193  -0.3223  -0.3215   0.2102   0.3122   0.4351   0.6534   0.7694
     1.0024   1.1626   1.2167   1.3218   1.3230   1.3326   1.3497   1.4243
     1.4483   1.5654   1.5968   1.6010   1.6211   1.6995   1.7496   1.7845
     1.7927   1.8751   1.8828   1.9721   2.0054   2.0120   2.0345   2.0753
     2.1062   2.1413   2.1848   2.1891   2.2462   2.3159   2.4209   2.5062
     2.8291   2.8368   4.1966   4.5458   4.5498   4.6159   4.6888   5.5832
     6.2361   6.2366   7.1105   7.2639   8.5262   8.5290   8.8938   8.9650
     9.1047   9.4555   9.4696   9.5796   9.6499   9.7139   9.7817   9.8825
     9.9383

          k =-0.5000-0.5279 0.0000 ( 34236 PWs)   bands (ev):

   -35.5297 -35.4343 -22.7664 -22.4810 -22.4804 -22.2389 -16.9754 -16.9665
   -16.8888 -16.8747 -16.5901 -16.4734 -14.5770 -14.5765 -14.4009 -14.3584
   -14.2592 -14.2296 -14.1740 -14.0574 -14.0208 -14.0170 -13.9481 -13.9106
   -13.8975 -13.6589 -13.6509  -8.9306  -8.7139  -8.7131  -8.5388  -8.4603
    -8.4459  -8.4457  -8.1367  -8.0992  -7.9790  -7.9773  -7.7413  -4.0509
    -4.0160  -3.7329  -3.5849  -3.5127  -3.1255  -3.1244  -2.6990  -2.6972
    -2.5306  -2.4084  -2.2512  -2.2503  -2.2495  -2.2297  -2.0288  -1.9309
    -1.8840  -1.6821  -1.3125  -1.3100  -1.2598  -1.1338  -1.1280  -0.9854
    -0.9778  -0.9465  -0.9455  -0.8461  -0.7873  -0.7676  -0.6985  -0.5294
    -0.5185  -0.2936  -0.2927   0.2452   0.3513   0.4486   0.6987   0.8826
     1.0942   1.3401   1.3700   1.3842   1.3926   1.4016   1.4358   1.4438
     1.4738   1.6683   1.6932   1.7577   1.7868   1.8380   1.8758   1.9218
     1.9450   1.9574   2.0154   2.0363   2.0868   2.1151   2.1447   2.1493
     2.2363   2.2827   2.3772   2.3792   2.4173   2.4664   2.5720   2.5837
     2.6065   2.6689   4.2950   4.7461   4.7565   4.8178   4.8851   5.3489
     6.0092   6.0094   6.9725   7.1631   8.3753   8.5408   8.7932   9.0732
     9.0871   9.1327   9.3713   9.5423   9.6003   9.6020   9.9389  10.0220
    10.1583

     the Fermi energy is     2.6044 ev

!    total energy              =   -1842.88389081 Ry
     Harris-Foulkes estimate   =   -1842.88389081 Ry
     estimated scf accuracy    <          6.0E-11 Ry

     The total energy is the sum of the following terms:

     one-electron contribution =  -29968.64056134 Ry
     hartree contribution      =   15137.77156374 Ry
     xc contribution           =    -621.66715551 Ry
     ewald contribution        =   13609.66026288 Ry
     smearing contrib. (-TS)   =      -0.00800059 Ry

     convergence has been achieved in  38 iterations

     negative rho (up, down):  1.509E-03 0.000E+00

     Forces acting on atoms (cartesian axes, Ry/au):

     atom    1 type  4   force =     0.00000000    0.00000000   -0.00017743
     atom    2 type  3   force =     0.00000000    0.00000000    0.00042274
     atom    3 type  4   force =     0.00000000    0.00000000   -0.00077374
     atom    4 type  1   force =     0.00000000    0.00000000   -0.00027173
     atom    5 type  3   force =     0.00000000    0.00000000    0.00058210
     atom    6 type  4   force =     0.00000000    0.00000000   -0.00001150
     atom    7 type  4   force =     0.00000000    0.00000000    0.00027295
     atom    8 type  2   force =     0.00000000    0.00000000   -0.00061016
     atom    9 type  4   force =     0.00000000    0.00000000    0.00025768
     atom   10 type  4   force =     0.00000000    0.00000000    0.00020971
     atom   11 type  3   force =     0.00000000    0.00000000    0.00007371
     atom   12 type  1   force =     0.00000000    0.00000000   -0.00044628
     atom   13 type  4   force =     0.00000000    0.00000000    0.00365697
     atom   14 type  4   force =     0.00000000    0.00000000    0.00613334
     atom   15 type  3   force =     0.00000000    0.00000000   -0.00316892
     atom   16 type  4   force =     0.00000000    0.00000000    0.00440008
     atom   17 type  1   force =     0.00000000    0.00000000    0.01896705
     atom   18 type  3   force =     0.00000000    0.00000000   -0.00286379
     atom   19 type  4   force =     0.00000000    0.00000000   -0.00929510
     atom   20 type  4   force =     0.00000000    0.00000000   -0.00693877
     atom   21 type  2   force =     0.00000000    0.00000000   -0.01247429
     atom   22 type  4   force =     0.00000000    0.00000000    0.00025327
     atom   23 type  4   force =     0.00000000    0.00000000    0.00114724
     atom   24 type  3   force =     0.00000000    0.00000000   -0.00031345
     atom   25 type  1   force =     0.00000000    0.00000000    0.00027768
     atom   26 type  4   force =     0.00000000    0.00000000    0.00099438
     atom   27 type  3   force =     0.00000000    0.00000000   -0.00054479
     atom   28 type  4   force =     0.00000000    0.00000000    0.00024105

     Total force =     0.026928     Total SCF correction =     0.000023


     Computing stress (Cartesian axis) and pressure


     negative rho (up, down):  1.509E-03 0.000E+00
          total   stress  (Ry/bohr**3)                   (kbar)     P=       -5.99
  -0.00004584   0.00000000   0.00000000           -6.74        0.00        0.00
   0.00000000  -0.00002903   0.00000000            0.00       -4.27        0.00
   0.00000000   0.00000000  -0.00004723            0.00        0.00       -6.95


     BFGS Geometry Optimization

     number of scf cycles    =   1
     number of bfgs steps    =   0

     energy   new            =   -1842.8838908146 Ry

     new trust radius        =       0.0189670471 bohr
     new conv_thr            =            1.0E-10 Ry


ATOMIC_POSITIONS (angstrom)
O             0.0000000000        1.8611200000       -0.1846200000    0   0   0
Cu            0.0000000000        0.0000000000        0.1039800000    0   0   0
O             0.0000000000        0.0000000000        1.9772600000    0   0   0
Ba            1.9651100000        1.8611200000        2.2364100000    0   0   0
Cu            0.0000000000        0.0000000000        4.0773100000    0   0   0
O             1.9651100000        0.0000000000        4.2321000000    0   0   0
O             0.0000000000        1.8611200000        4.3692200000    0   0   0
Ca            1.9651100000        1.8611200000        5.8860000000    0   0   0
O             0.0000000000        1.8611200000        7.3367500000    0   0   0
O             1.9651100000        0.0000000000        7.4847600000    0   0   0
Cu            0.0000000000        0.0000000000        7.6688600000    0   0   0
Ba            1.9651100000        1.8611200000        9.5487700000    0   0   0
O             0.0000000000        0.0000000000        9.8708900000    0   0   0
O             0.0000000000        1.8611200000       11.7618856239
Cu            0.0000000000        0.0000000000       11.7571830817
O             0.0000000000        0.0000000000       13.6491084242
Ba            1.9651100000        1.8611200000       13.9789069290
Cu            0.0000000000        0.0000000000       16.3471945493
O             1.9651100000        0.0000000000       16.5278912441
O             0.0000000000        1.8611200000       16.6771281601
Ca            1.9651100000        1.8611200000       18.1249888914
O             0.0000000000        1.8611200000       19.6483600000    0   0   0
O             1.9651100000        0.0000000000       19.7854800000    0   0   0
Cu            0.0000000000        0.0000000000       19.9402800000    0   0   0
Ba            1.9651100000        1.8611200000       21.7811700000    0   0   0
O             0.0000000000        0.0000000000       22.0402800000    0   0   0
Cu            0.0000000000        0.0000000000       23.9135800000    0   0   0
O             0.0000000000        1.8611200000       24.2021300000    0   0   0


     NEW-OLD atomic charge density approx. for the potential

     negative rho (up, down):  1.620E-03 0.000E+00

     total cpu time spent up to now is      671.4 secs

     Self-consistent Calculation

     iteration #  1     ecut=    60.00 Ry     beta= 0.70
     Davidson diagonalization with overlap
     ethr =  1.00E-06,  avg # of iterations =  4.6

     negative rho (up, down):  1.514E-03 0.000E+00

     total cpu time spent up to now is      695.4 secs

     total energy              =   -1842.88449265 Ry
     Harris-Foulkes estimate   =   -1842.88447208 Ry
     estimated scf accuracy    <       0.00108847 Ry

     iteration #  2     ecut=    60.00 Ry     beta= 0.70
     Davidson diagonalization with overlap
     ethr =  4.80E-07,  avg # of iterations =  1.6

     negative rho (up, down):  1.505E-03 0.000E+00

     total cpu time spent up to now is      709.7 secs

     total energy              =   -1842.88451393 Ry
     Harris-Foulkes estimate   =   -1842.88464363 Ry
     estimated scf accuracy    <       0.00187785 Ry

     iteration #  3     ecut=    60.00 Ry     beta= 0.70
     Davidson diagonalization with overlap
     ethr =  4.80E-07,  avg # of iterations =  1.4

     negative rho (up, down):  1.502E-03 0.000E+00

     total cpu time spent up to now is      723.7 secs

     total energy              =   -1842.88459377 Ry
     Harris-Foulkes estimate   =   -1842.88460036 Ry
     estimated scf accuracy    <       0.00028215 Ry

     iteration #  4     ecut=    60.00 Ry     beta= 0.70
     Davidson diagonalization with overlap
     ethr =  1.24E-07,  avg # of iterations =  1.0

     negative rho (up, down):  1.500E-03 0.000E+00

     total cpu time spent up to now is      737.6 secs

     total energy              =   -1842.88459158 Ry
     Harris-Foulkes estimate   =   -1842.88459723 Ry
     estimated scf accuracy    <       0.00009610 Ry

     iteration #  5     ecut=    60.00 Ry     beta= 0.70
     Davidson diagonalization with overlap
     ethr =  4.23E-08,  avg # of iterations =  1.0

     negative rho (up, down):  1.499E-03 0.000E+00

     total cpu time spent up to now is      751.3 secs

     total energy              =   -1842.88459260 Ry
     Harris-Foulkes estimate   =   -1842.88459459 Ry
     estimated scf accuracy    <       0.00006338 Ry

     iteration #  6     ecut=    60.00 Ry     beta= 0.70
     Davidson diagonalization with overlap
     ethr =  2.79E-08,  avg # of iterations =  1.0

     negative rho (up, down):  1.499E-03 0.000E+00

     total cpu time spent up to now is      765.3 secs

     total energy              =   -1842.88459328 Ry
     Harris-Foulkes estimate   =   -1842.88459364 Ry
     estimated scf accuracy    <       0.00001736 Ry

     iteration #  7     ecut=    60.00 Ry     beta= 0.70
     Davidson diagonalization with overlap
     ethr =  7.65E-09,  avg # of iterations =  1.0

     negative rho (up, down):  1.498E-03 0.000E+00

     total cpu time spent up to now is      779.0 secs

     total energy              =   -1842.88459315 Ry
     Harris-Foulkes estimate   =   -1842.88459347 Ry
     estimated scf accuracy    <       0.00000714 Ry

     iteration #  8     ecut=    60.00 Ry     beta= 0.70
     Davidson diagonalization with overlap
     ethr =  3.15E-09,  avg # of iterations =  1.0

     negative rho (up, down):  1.498E-03 0.000E+00

     total cpu time spent up to now is      792.8 secs

     total energy              =   -1842.88459319 Ry
     Harris-Foulkes estimate   =   -1842.88459332 Ry
     estimated scf accuracy    <       0.00000213 Ry

     iteration #  9     ecut=    60.00 Ry     beta= 0.70
     Davidson diagonalization with overlap
     ethr =  9.40E-10,  avg # of iterations =  1.8

     negative rho (up, down):  1.498E-03 0.000E+00

     total cpu time spent up to now is      807.5 secs

     total energy              =   -1842.88459324 Ry
     Harris-Foulkes estimate   =   -1842.88459326 Ry
     estimated scf accuracy    <       0.00000053 Ry

     iteration # 10     ecut=    60.00 Ry     beta= 0.70
     Davidson diagonalization with overlap
     ethr =  2.33E-10,  avg # of iterations =  2.6

     negative rho (up, down):  1.498E-03 0.000E+00

     total cpu time spent up to now is      823.0 secs

     total energy              =   -1842.88459324 Ry
     Harris-Foulkes estimate   =   -1842.88459326 Ry
     estimated scf accuracy    <       0.00000040 Ry

     iteration # 11     ecut=    60.00 Ry     beta= 0.70
     Davidson diagonalization with overlap
     ethr =  1.76E-10,  avg # of iterations =  1.0

     negative rho (up, down):  1.498E-03 0.000E+00

     total cpu time spent up to now is      837.0 secs

     total energy              =   -1842.88459325 Ry
     Harris-Foulkes estimate   =   -1842.88459326 Ry
     estimated scf accuracy    <       0.00000025 Ry

     iteration # 12     ecut=    60.00 Ry     beta= 0.70
     Davidson diagonalization with overlap
     ethr =  1.08E-10,  avg # of iterations =  1.2

     negative rho (up, down):  1.499E-03 0.000E+00

     total cpu time spent up to now is      851.3 secs

     total energy              =   -1842.88459325 Ry
     Harris-Foulkes estimate   =   -1842.88459325 Ry
     estimated scf accuracy    <       0.00000008 Ry

     iteration # 13     ecut=    60.00 Ry     beta= 0.70
     Davidson diagonalization with overlap
     ethr =  3.36E-11,  avg # of iterations =  1.9

     negative rho (up, down):  1.499E-03 0.000E+00

     total cpu time spent up to now is      865.9 secs

     total energy              =   -1842.88459325 Ry
     Harris-Foulkes estimate   =   -1842.88459325 Ry
     estimated scf accuracy    <       0.00000006 Ry

     iteration # 14     ecut=    60.00 Ry     beta= 0.70
     Davidson diagonalization with overlap
     ethr =  2.86E-11,  avg # of iterations =  1.1

     negative rho (up, down):  1.500E-03 0.000E+00

     total cpu time spent up to now is      880.0 secs

     total energy              =   -1842.88459325 Ry
     Harris-Foulkes estimate   =   -1842.88459325 Ry
     estimated scf accuracy    <       0.00000002 Ry

     iteration # 15     ecut=    60.00 Ry     beta= 0.70
     Davidson diagonalization with overlap
     ethr =  7.19E-12,  avg # of iterations =  2.6

     negative rho (up, down):  1.500E-03 0.000E+00

     total cpu time spent up to now is      895.7 secs

     total energy              =   -1842.88459325 Ry
     Harris-Foulkes estimate   =   -1842.88459325 Ry
     estimated scf accuracy    <          7.9E-09 Ry

     iteration # 16     ecut=    60.00 Ry     beta= 0.70
     Davidson diagonalization with overlap
     ethr =  3.50E-12,  avg # of iterations =  1.2

     negative rho (up, down):  1.500E-03 0.000E+00

     total cpu time spent up to now is      909.6 secs

     total energy              =   -1842.88459325 Ry
     Harris-Foulkes estimate   =   -1842.88459325 Ry
     estimated scf accuracy    <          2.0E-09 Ry

     iteration # 17     ecut=    60.00 Ry     beta= 0.70
     Davidson diagonalization with overlap
     ethr =  8.84E-13,  avg # of iterations =  3.1

     negative rho (up, down):  1.500E-03 0.000E+00

     total cpu time spent up to now is      926.0 secs

     total energy              =   -1842.88459325 Ry
     Harris-Foulkes estimate   =   -1842.88459325 Ry
     estimated scf accuracy    <          2.3E-09 Ry

     iteration # 18     ecut=    60.00 Ry     beta= 0.70
     Davidson diagonalization with overlap
     ethr =  8.84E-13,  avg # of iterations =  1.0

     negative rho (up, down):  1.501E-03 0.000E+00

     total cpu time spent up to now is      939.7 secs

     total energy              =   -1842.88459325 Ry
     Harris-Foulkes estimate   =   -1842.88459325 Ry
     estimated scf accuracy    <          9.7E-10 Ry

     iteration # 19     ecut=    60.00 Ry     beta= 0.70
     Davidson diagonalization with overlap
     ethr =  4.28E-13,  avg # of iterations =  1.0

     negative rho (up, down):  1.501E-03 0.000E+00

     total cpu time spent up to now is      953.4 secs

     total energy              =   -1842.88459325 Ry
     Harris-Foulkes estimate   =   -1842.88459325 Ry
     estimated scf accuracy    <          6.5E-10 Ry

     iteration # 20     ecut=    60.00 Ry     beta= 0.70
     Davidson diagonalization with overlap
     ethr =  2.85E-13,  avg # of iterations =  1.0

     negative rho (up, down):  1.501E-03 0.000E+00

     total cpu time spent up to now is      967.0 secs

     total energy              =   -1842.88459325 Ry
     Harris-Foulkes estimate   =   -1842.88459325 Ry
     estimated scf accuracy    <          4.7E-10 Ry

     iteration # 21     ecut=    60.00 Ry     beta= 0.70
     Davidson diagonalization with overlap
     ethr =  2.05E-13,  avg # of iterations =  1.0

     negative rho (up, down):  1.502E-03 0.000E+00

     total cpu time spent up to now is      980.7 secs

     total energy              =   -1842.88459325 Ry
     Harris-Foulkes estimate   =   -1842.88459325 Ry
     estimated scf accuracy    <          3.2E-10 Ry

     iteration # 22     ecut=    60.00 Ry     beta= 0.70
     Davidson diagonalization with overlap
     ethr =  1.41E-13,  avg # of iterations =  1.0

     negative rho (up, down):  1.503E-03 0.000E+00

     total cpu time spent up to now is      994.0 secs

     End of self-consistent calculation

          k = 0.0000 0.0000 0.0000 ( 34267 PWs)   bands (ev):

   -35.5503 -35.4637 -22.9849 -22.7544 -22.7515 -22.5064 -17.0548 -16.9449
   -16.6014 -16.5901 -16.5219 -16.5092 -15.2651 -15.1860 -14.8200 -14.6349
   -14.6279 -14.5358 -14.4147 -14.1449 -14.1430 -13.9453 -13.9219 -13.7883
   -13.6730 -13.6035 -13.4388  -8.2082  -7.9200  -7.8857  -7.8807  -7.8482
    -7.8458  -7.7861  -7.6875  -7.6552  -7.6525  -7.5515  -7.3843  -2.2934
    -2.2932  -2.0509  -1.7929  -1.7865  -1.7289  -1.6319  -1.6007  -1.5791
    -1.5038  -1.4451  -1.4235  -1.3370  -1.1848  -1.1837  -1.0263  -0.8074
    -0.6809  -0.5617  -0.4225  -0.4219  -0.3427  -0.3395  -0.2712  -0.2583
    -0.2283  -0.2280  -0.2143  -0.2086  -0.1544  -0.1317  -0.1283  -0.1189
    -0.1064  -0.0710  -0.0015  -0.0003   0.1346   0.1356   0.1357   0.1400
     0.1958   0.2099   0.2327   0.3419   0.3457   0.3613   0.4068   0.4321
     0.5418   0.7134   0.8363   0.9185   0.9186   0.9815   1.0141   1.2197
     1.2553   1.3853   1.3988   1.4138   1.4389   1.4926   1.5544   1.5580
     1.7264   1.7891   1.8099   1.8635   1.9227   1.9333   2.0690   2.0691
     2.0779   2.1484   2.1946   2.2920   2.3069   2.5649   2.5726   5.2450
     5.2546   5.6690   6.2106   6.3484   6.7442   6.8017   6.8514   7.2599
     8.0079   8.1295   8.2163   8.3444   8.4244   8.6415   8.6974   9.0550
     9.1523

          k = 0.0000 0.1320 0.0000 ( 34203 PWs)   bands (ev):

   -35.5485 -35.4619 -22.9626 -22.7277 -22.7248 -22.4809 -17.0186 -16.9086
   -16.6627 -16.5991 -16.5806 -16.5196 -15.1764 -15.1021 -14.7646 -14.6401
   -14.6285 -14.5086 -14.3847 -14.1544 -14.1514 -13.9507 -13.9360 -13.8344
   -13.7178 -13.6312 -13.5016  -8.1989  -7.8853  -7.8807  -7.8802  -7.8359
    -7.8003  -7.7979  -7.6978  -7.6943  -7.6837  -7.5064  -7.4322  -2.3516
    -2.3500  -2.1561  -2.1183  -2.0889  -1.9843  -1.8970  -1.6452  -1.6115
    -1.6086  -1.6079  -1.5831  -1.4861  -1.3198  -1.3045  -1.2627  -1.0672
    -0.6268  -0.6078  -0.5903  -0.5757  -0.5197  -0.5193  -0.4674  -0.4250
    -0.4239  -0.3017  -0.1972  -0.1724  -0.1467  -0.1223  -0.1121  -0.1112
    -0.0536  -0.0130   0.0198   0.0211   0.0435   0.0727   0.1587   0.1590
     0.1968   0.2144   0.2835   0.3143   0.3582   0.3841   0.4058   0.4919
     0.7436   0.8295   0.9647   1.0734   1.0902   1.1157   1.1166   1.1792
     1.1940   1.2236   1.4186   1.4467   1.4570   1.5474   1.5574   1.5691
     1.6358   1.7146   1.7969   1.8282   1.8505   1.9579   1.9830   2.0163
     2.0498   2.1008   2.2162   2.4626   2.8247   2.8536   2.8998   5.6267
     5.6299   5.9861   6.5316   6.6354   7.0296   7.1053   7.1430   7.5428
     8.1824   8.3283   8.4328   8.5411   8.6547   8.7498   8.8985   9.1336
     9.2398

          k = 0.0000 0.2640 0.0000 ( 34079 PWs)   bands (ev):

   -35.5441 -35.4575 -22.9079 -22.6618 -22.6589 -22.4182 -16.9265 -16.8171
   -16.8164 -16.7331 -16.5934 -16.5139 -14.9765 -14.9250 -14.6890 -14.6571
   -14.6172 -14.4473 -14.3103 -14.1417 -14.1338 -13.9902 -13.9807 -13.9621
   -13.7915 -13.7176 -13.6384  -8.1759  -7.9412  -7.8848  -7.8806  -7.7879
    -7.7850  -7.7809  -7.6799  -7.6793  -7.6774  -7.5356  -7.3932  -2.7967
    -2.7841  -2.6801  -2.5663  -2.4521  -2.3919  -2.3912  -2.2452  -2.2445
    -2.0415  -1.5995  -1.5575  -1.5341  -1.4422  -1.4296  -1.4112  -1.2671
    -0.9508  -0.9150  -0.8656  -0.7708  -0.7699  -0.7380  -0.6142  -0.6074
    -0.5910  -0.4982  -0.4869  -0.4625  -0.4606  -0.4535  -0.3872  -0.2815
    -0.1955  -0.0439   0.0481   0.0494   0.1191   0.1309   0.1420   0.2477
     0.2864   0.4113   0.4165   0.4614   0.6533   0.7283   0.7355   0.7416
     0.8986   0.9677   1.0067   1.0597   1.1670   1.1987   1.2012   1.2015
     1.2144   1.2361   1.3047   1.3431   1.3988   1.5614   1.6611   1.6819
     1.7058   1.7467   1.8045   1.9663   1.9836   2.0088   2.0102   2.0192
     2.0573   2.1498   2.3489   2.5889   3.0731   3.0797   3.7396   6.5232
     6.5233   6.6967   7.3364   7.3513   7.8631   7.9256   7.9533   8.3254
     8.5116   8.6868   8.7993   8.8810   8.9876   9.0606   9.1318   9.3552
     9.3798

          k = 0.0000 0.3960 0.0000 ( 34048 PWs)   bands (ev):

   -35.5397 -35.4531 -22.8518 -22.5936 -22.5907 -22.3534 -16.9534 -16.8668
   -16.8248 -16.7159 -16.5878 -16.5083 -14.8977 -14.8921 -14.6468 -14.5778
   -14.4620 -14.3830 -14.2503 -14.1158 -14.0705 -14.0690 -14.0568 -14.0188
   -13.8931 -13.8453 -13.7370  -8.1462  -8.0368  -7.8848  -7.8806  -7.8661
    -7.8632  -7.6767  -7.6740  -7.6258  -7.5514  -7.5489  -7.2731  -3.4051
[...]
    -3.1866  -2.9612  -2.8383  -2.5441  -2.4669  -2.4538  -2.3474  -2.3449
    -2.3226  -2.2695  -2.2166  -2.2148  -1.9749  -1.7441  -1.7109  -1.5657
    -1.5183  -1.4498  -1.2202  -1.2019  -0.9887  -0.9182  -0.8684  -0.8410
    -0.8245  -0.7511  -0.6708  -0.6153  -0.6140  -0.5485  -0.5250  -0.4523
    -0.4240  -0.3387  -0.3306   0.0808   0.1479   0.3680   0.4921   0.5027
     0.6964   0.7383   0.8062   0.8557   0.8667   1.0416   1.0423   1.1266
     1.2124   1.2538   1.2789   1.2808   1.4404   1.4537   1.4911   1.5138
     1.5502   1.6636   1.6828   1.7222   1.7400   1.7649   1.7795   1.7884
     1.8038   1.8423   1.8573   1.8759   1.8857   2.0163   2.1594   2.3027
     3.0207   3.0242   3.7306   3.7669   3.7790   3.8886   3.9595   6.4676
     6.7335   6.7372   7.4997   7.6741   8.4311   8.4395   8.4875   8.8364
     8.8890   9.1854   9.4044   9.4353   9.4618   9.5294   9.5655   9.8211
     9.8876

          k = 0.3750 0.3960 0.0000 ( 34177 PWs)   bands (ev):

   -35.6049 -35.5374 -22.6714 -22.5186 -22.5021 -22.3037 -16.9743 -16.9549
   -16.9432 -16.9216 -16.6817 -16.6607 -14.7056 -14.7031 -14.4094 -14.3720
   -14.3622 -14.2016 -14.1934 -14.1585 -14.0903 -14.0465 -14.0430 -13.9580
   -13.8595 -13.8080 -13.6101  -8.5598  -8.5219  -8.5081  -8.2858  -8.1873
    -8.1843  -8.1728  -8.0177  -7.9373  -7.9140  -7.8962  -7.7364  -3.7149
    -3.6605  -3.4105  -3.3019  -3.2522  -2.9108  -2.9107  -2.5970  -2.5878
    -2.4364  -2.3765  -2.2451  -2.2412  -2.0558  -2.0332  -1.9866  -1.8039
    -1.7863  -1.5799  -1.2220  -1.1829  -1.1741  -1.1730  -1.1161  -0.9259
    -0.9194  -0.8355  -0.8307  -0.7668  -0.7466  -0.6877  -0.6654  -0.5634
    -0.4774  -0.3615  -0.3598   0.2013   0.2909   0.4087   0.6017   0.6774
     0.9218   1.0512   1.1273   1.1933   1.1941   1.2852   1.3273   1.3882
     1.4186   1.5094   1.5184   1.5240   1.6172   1.6270   1.7016   1.7504
     1.7749   1.8115   1.8152   1.8778   1.9420   1.9682   2.0040   2.0367
     2.0750   2.1088   2.1165   2.2060   2.2139   2.2151   2.2855   2.5104
     2.8401   2.8460   4.1784   4.2822   4.3009   4.3668   4.4515   6.0387
     6.4302   6.4327   7.1515   7.4070   8.6566   8.7708   9.0010   9.0303
     9.1099   9.3828   9.4657   9.5322   9.5405   9.6327   9.6466   9.7574
     9.8859

          k = 0.3750-0.5279 0.0000 ( 34192 PWs)   bands (ev):

   -35.6032 -35.5356 -22.6516 -22.4956 -22.4791 -22.2815 -17.0045 -16.9769
   -16.9632 -16.9305 -16.6513 -16.6253 -14.6443 -14.6403 -14.3635 -14.3404
   -14.2520 -14.1941 -14.1816 -14.1130 -14.0285 -14.0274 -14.0248 -14.0212
   -13.8731 -13.8107 -13.6103  -8.6687  -8.6039  -8.5904  -8.3719  -8.3321
    -8.3191  -8.3162  -8.0496  -7.9818  -7.9624  -7.9389  -7.7493  -3.9212
    -3.8673  -3.6267  -3.5287  -3.4841  -3.1361  -3.1360  -2.6156  -2.6061
    -2.4476  -2.3835  -2.2393  -2.2353  -2.1632  -2.1478  -1.9890  -1.8896
    -1.8793  -1.6212  -1.3042  -1.2860  -1.2373  -1.2067  -1.1815  -0.9253
    -0.9238  -0.9203  -0.9132  -0.8539  -0.8462  -0.7267  -0.6847  -0.5777
    -0.4450  -0.3473  -0.3461   0.2364   0.3282   0.4189   0.6412   0.7586
     0.9895   1.1751   1.2850   1.3053   1.3234   1.3379   1.3828   1.3881
     1.4282   1.5788   1.6319   1.6621   1.6984   1.7566   1.7712   1.8034
     1.8275   1.8972   1.9176   2.0162   2.0565   2.0778   2.0943   2.1750
     2.2213   2.2691   2.2744   2.3204   2.4014   2.4037   2.4521   2.5949
     2.5951   2.6043   4.2718   4.4241   4.4538   4.5139   4.5990   5.8511
     6.2526   6.2545   7.0315   7.3157   8.5439   8.7796   9.0008   9.1588
     9.1829   9.3957   9.4390   9.5568   9.7109   9.7830   9.8558   9.8797
     9.9267

          k =-0.5000 0.0000 0.0000 ( 34130 PWs)   bands (ev):

   -35.6140 -35.5468 -22.7680 -22.6291 -22.6126 -22.4106 -17.0643 -17.0418
   -16.8069 -16.8027 -16.6553 -16.5847 -15.0671 -15.0623 -14.9290 -14.6339
   -14.5876 -14.3564 -14.2892 -14.2693 -14.2176 -14.1634 -14.1580 -13.9626
   -13.8991 -13.8052 -13.6042  -8.1028  -7.8869  -7.8628  -7.7206  -7.7108
    -7.6135  -7.5998  -7.4834  -7.4232  -7.4081  -7.3721  -7.1878  -3.0002
    -2.9815  -2.8232  -2.7408  -2.3218  -2.3191  -1.9809  -1.6189  -1.5878
    -1.5823  -1.5251  -1.3426  -1.2704  -1.2124  -1.1857  -1.1855  -1.1417
    -1.1374  -1.1016  -0.9908  -0.9884  -0.9632  -0.9421  -0.8688  -0.8672
    -0.8132  -0.7794  -0.7760  -0.6223  -0.4670  -0.4205  -0.2442  -0.2178
    -0.1829  -0.1646  -0.1083  -0.1025   0.0951   0.0958   0.1755   0.1969
     0.2753   0.4369   0.4375   0.4628   0.4669   0.4996   0.5146   0.5702
     0.7525   0.8291   0.8421   0.8883   0.9015   1.1683   1.1711   1.2083
     1.3959   1.4080   1.4292   1.4860   1.5188   1.5741   1.6243   1.6881
     1.6902   1.7107   1.7492   1.9008   1.9862   2.0564   2.0687   2.1409
     2.1929   2.2220   2.4288   2.5842   2.6440   2.8523   2.8749   7.0546
     7.3114   7.3187   7.3633   7.3635   8.1994   8.2984   8.4894   8.5788
     8.6005   8.7697   9.0730   9.3884   9.4233   9.4883   9.5191   9.7324
     9.7539

          k =-0.5000 0.1320 0.0000 ( 34202 PWs)   bands (ev):

   -35.6122 -35.5450 -22.7498 -22.6083 -22.5918 -22.3905 -17.0560 -17.0325
   -16.7832 -16.7752 -16.7100 -16.6484 -15.0101 -15.0054 -14.8559 -14.5931
   -14.5490 -14.3152 -14.2309 -14.2303 -14.1775 -14.1415 -14.1362 -13.9369
   -13.9339 -13.8251 -13.5981  -8.0941  -7.9258  -7.9029  -7.8166  -7.7429
    -7.7410  -7.7293  -7.6993  -7.6262  -7.6105  -7.4932  -7.4003  -3.0685
    -3.0435  -2.8747  -2.7794  -2.3268  -2.3237  -2.0260  -1.9621  -1.9366
    -1.7694  -1.7146  -1.6235  -1.5778  -1.5773  -1.4809  -1.4437  -1.3930
    -1.3689  -1.2687  -1.2448  -1.1781  -1.0497  -0.9042  -0.8352  -0.8326
    -0.6882  -0.6312  -0.6149  -0.5753  -0.4759  -0.4160  -0.4126  -0.2580
    -0.2570  -0.0384  -0.0267   0.0967   0.1322   0.1862   0.2157   0.2165
     0.3523   0.3858   0.4423   0.5484   0.5488   0.6277   0.6513   0.8036
     0.8345   0.9211   1.0416   1.0822   1.1486   1.1902   1.2166   1.3106
     1.3138   1.3181   1.4511   1.5255   1.6113   1.6145   1.6691   1.7403
     1.7408   1.7645   1.7762   1.9076   1.9509   2.0403   2.0604   2.2430
     2.7838   2.7899   2.9462   3.0120   3.0315   3.2150   3.2509   6.8614
     7.1590   7.1662   7.6603   7.6661   8.0644   8.2093   8.3970   8.5071
     8.6302   9.0174   9.3165   9.5474   9.5586   9.5958   9.6214   9.6715
     9.7248

          k =-0.5000 0.2640 0.0000 ( 34216 PWs)   bands (ev):

   -35.6081 -35.5407 -22.7053 -22.5574 -22.5409 -22.3411 -17.0362 -17.0105
   -16.8385 -16.7916 -16.7186 -16.7041 -14.8592 -14.8547 -14.6560 -14.4950
   -14.4580 -14.2118 -14.1326 -14.1315 -14.1248 -14.0910 -14.0855 -14.0059
   -13.8745 -13.8432 -13.5918  -8.2075  -8.1949  -8.1790  -8.0704  -8.0440
    -8.0431  -8.0306  -7.9400  -7.8757  -7.8535  -7.7733  -7.6915  -3.3741
    -3.3251  -3.1072  -2.9907  -2.5369  -2.4925  -2.4789  -2.3608  -2.3550
    -2.3376  -2.2927  -2.2244  -2.2231  -1.9807  -1.8693  -1.8362  -1.6455
    -1.5983  -1.4815  -1.1401  -1.1146  -0.9555  -0.9345  -0.9332  -0.8705
    -0.8506  -0.7880  -0.7147  -0.6399  -0.6396  -0.5426  -0.5180  -0.4582
    -0.4203  -0.3604  -0.3584   0.0931   0.1591   0.4158   0.5374   0.5635
     0.7386   0.7782   0.8724   0.8845   0.8884   1.1251   1.1305   1.1468
     1.2098   1.2202   1.2387   1.2627   1.4565   1.5034   1.5277   1.5541
     1.5740   1.6499   1.7329   1.7458   1.7503   1.7942   1.8506   1.8712
     1.8899   1.8956   1.9399   1.9794   1.9990   2.0191   2.1355   2.2330
     3.0136   3.0176   3.7449   3.8990   3.9144   4.0198   4.0979   6.3535
     6.7293   6.7345   7.3901   7.6061   8.4605   8.4766   8.7251   8.8270
     9.0855   9.3095   9.4436   9.5851   9.6212   9.6233   9.7597   9.8418
     9.8896

          k =-0.5000 0.3960 0.0000 ( 34176 PWs)   bands (ev):

   -35.6039 -35.5364 -22.6599 -22.5052 -22.4887 -22.2906 -17.0167 -16.9890
   -16.9540 -16.9208 -16.6531 -16.6284 -14.6764 -14.6723 -14.4337 -14.3842
   -14.3615 -14.1876 -14.1503 -14.1045 -14.0431 -14.0429 -14.0244 -13.9444
   -13.8714 -13.8012 -13.5894  -8.6128  -8.5701  -8.5562  -8.3332  -8.3321
    -8.3258  -8.3187  -8.0341  -8.0228  -7.9534  -7.9299  -7.7430  -3.8454
    -3.7876  -3.5287  -3.4179  -3.2536  -2.9023  -2.9022  -2.6667  -2.6581
    -2.5082  -2.4664  -2.2615  -2.2588  -2.1596  -2.1366  -1.9934  -1.8681
    -1.8316  -1.6115  -1.1997  -1.1946  -1.1469  -1.0723  -1.0658  -1.0133
    -1.0073  -0.8534  -0.8522  -0.7559  -0.7537  -0.7418  -0.7384  -0.5274
    -0.4974  -0.3237  -0.3224   0.2174   0.3112   0.4677   0.6934   0.7712
     1.0062   1.1666   1.2129   1.3223   1.3231   1.3320   1.3504   1.4219
     1.4525   1.5415   1.5953   1.5969   1.6218   1.6830   1.7416   1.7869
     1.7993   1.8730   1.8739   1.9590   1.9954   2.0268   2.0559   2.0873
     2.1081   2.1679   2.1826   2.2149   2.2444   2.3119   2.4203   2.4609
     2.8277   2.8351   4.1732   4.5439   4.5574   4.6106   4.7012   5.8374
     6.2343   6.2378   6.9804   7.2556   8.7131   8.7551   8.8830   8.9632
     9.1011   9.4574   9.5597   9.5608   9.6075   9.7171   9.7541   9.8659
     9.9165

          k =-0.5000-0.5279 0.0000 ( 34236 PWs)   bands (ev):

   -35.6022 -35.5346 -22.6408 -22.4832 -22.4667 -22.2694 -17.0087 -16.9996
   -16.9802 -16.9714 -16.6245 -16.5950 -14.5787 -14.5757 -14.4039 -14.3673
   -14.2334 -14.1933 -14.1775 -14.0617 -14.0228 -14.0193 -13.9809 -13.9458
   -13.9035 -13.7724 -13.5813  -8.7733  -8.7161  -8.7025  -8.4835  -8.4482
    -8.4350  -8.4329  -8.1357  -8.0160  -7.9808  -7.9567  -7.7572  -4.0535
    -3.9957  -3.7310  -3.6234  -3.5156  -3.1267  -3.1265  -2.6992  -2.6904
    -2.5350  -2.4917  -2.2566  -2.2516  -2.2489  -2.2340  -1.9933  -1.9455
    -1.9045  -1.6532  -1.3148  -1.3100  -1.2084  -1.1370  -1.1306  -0.9879
    -0.9807  -0.9476  -0.9474  -0.8612  -0.8448  -0.7823  -0.7615  -0.5448
    -0.4603  -0.2949  -0.2939   0.2539   0.3500   0.4794   0.7414   0.8837
     1.0974   1.3269   1.3779   1.3851   1.3889   1.3992   1.4360   1.4402
     1.4809   1.6676   1.6862   1.7330   1.7837   1.8029   1.8615   1.9244
     1.9261   1.9403   2.0192   2.0344   2.0873   2.1114   2.1623   2.1978
     2.2385   2.3331   2.3750   2.3821   2.4150   2.4616   2.5703   2.5822
     2.5917   2.6488   4.2584   4.7442   4.7626   4.8128   4.8982   5.6194
     6.0071   6.0100   6.8534   7.1518   8.5647   8.7772   8.8001   9.0703
     9.0765   9.1194   9.3543   9.5650   9.5697   9.6831   9.9337   9.9821
    10.0396

     the Fermi energy is     2.6024 ev

!    total energy              =   -1842.89039976 Ry
     Harris-Foulkes estimate   =   -1842.89039976 Ry
     estimated scf accuracy    <          7.3E-13 Ry

     The total energy is the sum of the following terms:

     one-electron contribution =  -29999.72834328 Ry
     hartree contribution      =   15153.29282463 Ry
     xc contribution           =    -621.65166401 Ry
     ewald contribution        =   13625.20495749 Ry
     smearing contrib. (-TS)   =      -0.00817458 Ry

     convergence has been achieved in  32 iterations

     negative rho (up, down):  1.505E-03 0.000E+00

     Forces acting on atoms (cartesian axes, Ry/au):

     atom    1 type  4   force =     0.00000000    0.00000000   -0.00019148
     atom    2 type  3   force =     0.00000000    0.00000000    0.00043997
     atom    3 type  4   force =     0.00000000    0.00000000   -0.00078272
     atom    4 type  1   force =     0.00000000    0.00000000   -0.00027149
     atom    5 type  3   force =     0.00000000    0.00000000    0.00057246
     atom    6 type  4   force =     0.00000000    0.00000000    0.00003526
     atom    7 type  4   force =     0.00000000    0.00000000    0.00028685
     atom    8 type  2   force =     0.00000000    0.00000000   -0.00077000
     atom    9 type  4   force =     0.00000000    0.00000000    0.00077595
     atom   10 type  4   force =     0.00000000    0.00000000    0.00057523
     atom   11 type  3   force =     0.00000000    0.00000000   -0.00020044
     atom   12 type  1   force =     0.00000000    0.00000000    0.00118128
     atom   13 type  4   force =     0.00000000    0.00000000    0.00826215
     atom   14 type  4   force =     0.00000000    0.00000000    0.00411789
     atom   15 type  3   force =     0.00000000    0.00000000    0.00140521
     atom   16 type  4   force =     0.00000000    0.00000000    0.00284698
     atom   17 type  1   force =     0.00000000    0.00000000    0.00837116
     atom   18 type  3   force =     0.00000000    0.00000000   -0.00317828
     atom   19 type  4   force =     0.00000000    0.00000000   -0.00621580
     atom   20 type  4   force =     0.00000000    0.00000000   -0.00383421
     atom   21 type  2   force =     0.00000000    0.00000000   -0.00163850
     atom   22 type  4   force =     0.00000000    0.00000000   -0.00423820
     atom   23 type  4   force =     0.00000000    0.00000000   -0.00414984
     atom   24 type  3   force =     0.00000000    0.00000000   -0.00173487
     atom   25 type  1   force =     0.00000000    0.00000000   -0.00232432
     atom   26 type  4   force =     0.00000000    0.00000000    0.00095538
     atom   27 type  3   force =     0.00000000    0.00000000   -0.00060140
     atom   28 type  4   force =     0.00000000    0.00000000    0.00030576

     Total force =     0.012776     Total SCF correction =     0.000003


     Computing stress (Cartesian axis) and pressure


     negative rho (up, down):  1.505E-03 0.000E+00
          total   stress  (Ry/bohr**3)                   (kbar)     P=       -7.06
  -0.00003732   0.00000000   0.00000000           -5.49        0.00        0.00
   0.00000000  -0.00003466   0.00000000            0.00       -5.10        0.00
   0.00000000   0.00000000  -0.00007190            0.00        0.00      -10.58


     BFGS Geometry Optimization

     bfgs converged in   1 scf cycles and   0 bfgs steps
     (criteria: energy <  1.0E-03 Ry, force <  1.0E-02 Ry/Bohr)

     End of BFGS Geometry Optimization

     Final energy   =   -1842.8903997637 Ry
Begin final coordinates

ATOMIC_POSITIONS (angstrom)
O             0.0000000000        1.8611200000       -0.1846200000    0   0   0
Cu            0.0000000000        0.0000000000        0.1039800000    0   0   0
O             0.0000000000        0.0000000000        1.9772600000    0   0   0
Ba            1.9651100000        1.8611200000        2.2364100000    0   0   0
Cu            0.0000000000        0.0000000000        4.0773100000    0   0   0
O             1.9651100000        0.0000000000        4.2321000000    0   0   0
O             0.0000000000        1.8611200000        4.3692200000    0   0   0
Ca            1.9651100000        1.8611200000        5.8860000000    0   0   0
O             0.0000000000        1.8611200000        7.3367500000    0   0   0
O             1.9651100000        0.0000000000        7.4847600000    0   0   0
Cu            0.0000000000        0.0000000000        7.6688600000    0   0   0
Ba            1.9651100000        1.8611200000        9.5487700000    0   0   0
O             0.0000000000        0.0000000000        9.8708900000    0   0   0
O             0.0000000000        1.8611200000       11.8061446912
Cu            0.0000000000        0.0000000000       11.7670698733
O             0.0000000000        0.0000000000       13.6688176400
Ba            1.9651100000        1.8611200000       14.0950810732
Cu            0.0000000000        0.0000000000       16.3209635847
O             1.9651100000        0.0000000000       16.4609559689
O             0.0000000000        1.8611200000       16.6311312710
Ca            1.9651100000        1.8611200000       18.0698457220
O             0.0000000000        1.8611200000       19.6483600000    0   0   0
O             1.9651100000        0.0000000000       19.7854800000    0   0   0
Cu            0.0000000000        0.0000000000       19.9402800000    0   0   0
Ba            1.9651100000        1.8611200000       21.7811700000    0   0   0
O             0.0000000000        0.0000000000       22.0402800000    0   0   0
Cu            0.0000000000        0.0000000000       23.9135800000    0   0   0
O             0.0000000000        1.8611200000       24.2021300000    0   0   0
End final coordinates


 
     init_run     :      8.35s CPU      8.63s WALL (       1 calls)
     electrons    :   4165.76s CPU   4279.82s WALL (      10 calls)
     update_pot   :     14.83s CPU     14.89s WALL (       9 calls)
     forces       :     38.11s CPU     39.75s WALL (      10 calls)
     stress       :    197.13s CPU    201.31s WALL (      10 calls)

     Called by init_run:
     wfcinit      :      5.82s CPU      5.93s WALL (       1 calls)
     potinit      :      0.60s CPU      0.61s WALL (       1 calls)
     hinit0       :      0.92s CPU      0.93s WALL (       1 calls)

     Called by electrons:
     c_bands      :   3158.43s CPU   3190.33s WALL (     284 calls)
     sum_band     :    682.65s CPU    727.01s WALL (     284 calls)
     v_of_rho     :     21.73s CPU     21.91s WALL (     294 calls)
     newd         :    194.82s CPU    232.15s WALL (     294 calls)
     mix_rho      :    113.52s CPU    114.55s WALL (     284 calls)

     Called by c_bands:
     init_us_2    :     27.46s CPU     27.61s WALL (   14725 calls)
     cegterg      :   2948.32s CPU   2976.07s WALL (    7100 calls)

     Called by sum_band:
     sum_band:bec :      1.99s CPU      2.01s WALL (    7100 calls)
     addusdens    :    189.44s CPU    227.47s WALL (     284 calls)

     Called by *egterg:
     h_psi        :   1634.74s CPU   1657.06s WALL (   19420 calls)
     s_psi        :    155.23s CPU    155.76s WALL (   19420 calls)
     g_psi        :      5.10s CPU      5.14s WALL (   12295 calls)
     cdiaghg      :    511.23s CPU    513.29s WALL (   19170 calls)

     Called by h_psi:
     h_psi:calbec :    184.54s CPU    185.37s WALL (   19420 calls)
     vloc_psi     :   1285.63s CPU   1306.42s WALL (   19420 calls)
     add_vuspsi   :    156.98s CPU    157.62s WALL (   19420 calls)

     General routines
     calbec       :    320.54s CPU    321.89s WALL (   27770 calls)
     fft          :     18.93s CPU     19.03s WALL (    4061 calls)
     ffts         :     60.30s CPU     60.83s WALL (  103848 calls)
     fftw         :   1489.49s CPU   1513.42s WALL ( 4974262 calls)
     interpolate  :      1.27s CPU      1.28s WALL (     294 calls)
 
     Parallel routines
     fft_scatt_xy :    181.96s CPU    184.44s WALL ( 5082171 calls)
     fft_scatt_yz :    933.35s CPU    948.16s WALL ( 5082171 calls)
 
     PWSCF        :      1h13m CPU      1h15m WALL

 
   This run was terminated on:  20: 1: 9  28Jun2021            

=------------------------------------------------------------------------------=
   JOB DONE.
=------------------------------------------------------------------------------=
[1624924869.472989] [holy7c04109:39286:0]          mpool.c:43   UCX  WARN  object 0x4008140 was not returned to mpool ucp_requests
[1624924869.473007] [holy7c04109:39286:0]          mpool.c:43   UCX  WARN  object 0x4008840 was not returned to mpool ucp_requests
[1624924869.471956] [holy7c04110:101249:0]          mpool.c:43   UCX  WARN  object 0x2f1b380 was not returned to mpool ucp_requests
[1624924869.478124] [holy7c04110:101248:0]          mpool.c:43   UCX  WARN  object 0x29d5c00 was not returned to mpool ucp_requests
[1624924869.475199] [holy7c04106:98928:0]          mpool.c:43   UCX  WARN  object 0x42e5e00 was not returned to mpool ucp_requests
[1624924869.482362] [holy7c04105:82891:0]          mpool.c:43   UCX  WARN  object 0x3831080 was not returned to mpool ucp_requests
[1624924869.482383] [holy7c04105:82891:0]          mpool.c:43   UCX  WARN  object 0x3831780 was not returned to mpool ucp_requests
[1624924869.480237] [holy7c04104:27207:0]          mpool.c:43   UCX  WARN  object 0x446ca40 was not returned to mpool ucp_requests
[1624924869.481498] [holy7c04104:27208:0]          mpool.c:43   UCX  WARN  object 0x2bfe700 was not returned to mpool ucp_requests
