
     Program PWSCF v.6.5 starts on  9Jul2021 at 19:21:31 

     This program is part of the open-source Quantum ESPRESSO suite
     for quantum simulation of materials; please cite
         "P. Giannozzi et al., J. Phys.:Condens. Matter 21 395502 (2009);
         "P. Giannozzi et al., J. Phys.:Condens. Matter 29 465901 (2017);
          URL http://www.quantum-espresso.org", 
     in publications or presentations arising from this work. More details at
     http://www.quantum-espresso.org/quote

     Parallel version (MPI), running on    20 processors

     MPI processes distributed on     2 nodes
     R & G space division:  proc/nbgrp/npool/nimage =      20
     Reading input from CBCO_Y_cleave_1.25_sep.pwi
Warning: card &CELL ignored
Warning: card     CELL_DYNAMICS = 'BFGS' ignored
Warning: card     PRESS_CONV_THR = 0.5 ignored
Warning: card / ignored

     Current dimensions of program PWSCF are:
     Max number of different atomic species (ntypx) = 10
     Max number of k-points (npk) =  40000
     Max angular momentum in pseudopotentials (lmaxx) =  3

     Subspace diagonalization in iterative solution of the eigenvalue problem:
     one sub-group per band group will be used
     scalapack distributed-memory algorithm (size of sub-group:  4*  4 procs)

     Message from routine setup:
     using ibrav=0 with symmetry is DISCOURAGED, use correct ibrav instead
 
     Parallelization info
     --------------------
     sticks:   dense  smooth     PW     G-vecs:    dense   smooth      PW
     Min         149      50     14                72165    13894    2172
     Max         150      51     15                72202    13919    2217
     Sum        2991    1007    289              1443693   278079   43709
 


     bravais-lattice index     =            0
     lattice parameter (alat)  =       7.4270  a.u.
     unit-cell volume          =    4425.7129 (a.u.)^3
     number of atoms/cell      =           28
     number of atomic types    =            4
     number of electrons       =       227.00
     number of Kohn-Sham states=          137
     kinetic-energy cutoff     =      60.0000  Ry
     charge density cutoff     =     720.0000  Ry
     convergence threshold     =      1.0E-10
     mixing beta               =       0.7000
     number of iterations used =           10  local-TF  mixing
     Exchange-correlation= SLA PW PBE PBE
                           (   1   4   3   4   0   0   0)
     nstep                     =          300


     celldm(1)=   7.427040  celldm(2)=   0.000000  celldm(3)=   0.000000
     celldm(4)=   0.000000  celldm(5)=   0.000000  celldm(6)=   0.000000

     crystal axes: (cart. coord. in units of alat)
               a(1) = (   1.000000   0.000000   0.000000 )  
               a(2) = (   0.000000   0.947081   0.000000 )  
               a(3) = (   0.000000   0.000000  11.406405 )  

     reciprocal axes: (cart. coord. in units 2 pi/alat)
               b(1) = (  1.000000  0.000000  0.000000 )  
               b(2) = (  0.000000  1.055876  0.000000 )  
               b(3) = (  0.000000  0.000000  0.087670 )  


     PseudoPot. # 1 for Ba read from file:
     ./pseudo/Ba.pbe-nsp-van.UPF
     MD5 check sum: 2b9c31dd849566dd297d80989662b7a0
     Pseudo is Ultrasoft + core correction, Zval = 10.0
     Generated by new atomic code, or converted to UPF format
     Using radial grid of  907 points,  6 beta functions with: 
                l(1) =   0
                l(2) =   0
                l(3) =   1
                l(4) =   1
                l(5) =   2
                l(6) =   2
     Q(r) pseudized with  6 coefficients,  rinner =    1.200   1.200   1.200
                                                       1.200   1.200

     PseudoPot. # 2 for Ca read from file:
     ./pseudo/Ca.pbe-nsp-van.UPF
     MD5 check sum: 6471098428ff4fa451746d08035ff179
     Pseudo is Ultrasoft + core correction, Zval = 10.0
     Generated by new atomic code, or converted to UPF format
     Using radial grid of  845 points,  6 beta functions with: 
                l(1) =   0
                l(2) =   0
                l(3) =   1
                l(4) =   1
                l(5) =   2
                l(6) =   2
     Q(r) pseudized with  6 coefficients,  rinner =    1.200   1.200   1.200
                                                       1.200   1.200

     PseudoPot. # 3 for Cu read from file:
     ./pseudo/Cu.pbe-n-van_ak.UPF
     MD5 check sum: 34e3282627ffb533726feb647e090d62
     Pseudo is Ultrasoft + core correction, Zval = 11.0
     Generated by new atomic code, or converted to UPF format
     Using radial grid of  867 points,  6 beta functions with: 
                l(1) =   0
                l(2) =   0
                l(3) =   1
                l(4) =   1
                l(5) =   2
                l(6) =   2
     Q(r) pseudized with  8 coefficients,  rinner =    1.400   1.400   1.400
                                                       1.400   1.400

     PseudoPot. # 4 for O  read from file:
     ./pseudo/O.pbe-van_ak.UPF
     MD5 check sum: 783ce7fe4c79b6a4916957118fed0856
     Pseudo is Ultrasoft, Zval =  6.0
     Generated by new atomic code, or converted to UPF format
     Using radial grid of  737 points,  4 beta functions with: 
                l(1) =   0
                l(2) =   0
                l(3) =   1
                l(4) =   1
     Q(r) pseudized with  8 coefficients,  rinner =    0.800   0.800   0.800


     atomic species   valence    mass     pseudopotential
        Ba            10.00   137.32700     Ba( 1.00)
        Ca            10.00    40.07800     Ca( 1.00)
        Cu            11.00    63.54600     Cu( 1.00)
        O              6.00    15.99900     O ( 1.00)

      4 Sym. Ops. (no inversion) found



   Cartesian axes

     site n.     atom                  positions (alat units)
         1           O   tau(   1) = (   0.0000000   0.4735409  -0.0469745  )
         2           Cu  tau(   2) = (   0.0000000   0.0000000   0.0264565  )
         3           O   tau(   3) = (   0.0000000   0.0000000   0.5030914  )
         4           Ba  tau(   4) = (   0.5000000   0.4735409   0.5690292  )
         5           Cu  tau(   5) = (   0.0000000   0.0000000   1.0374254  )
         6           O   tau(   6) = (   0.5000000   0.0000000   1.0768099  )
         7           O   tau(   7) = (   0.0000000   0.4735409   1.1116985  )
         8           Ca  tau(   8) = (   0.5000000   0.4735409   1.4976260  )
         9           O   tau(   9) = (   0.0000000   0.4735409   1.8667529  )
        10           O   tau(  10) = (   0.5000000   0.0000000   1.9044124  )
        11           Cu  tau(  11) = (   0.0000000   0.0000000   1.9512546  )
        12           Ba  tau(  12) = (   0.5000000   0.4735409   2.4295764  )
        13           O   tau(  13) = (   0.0000000   0.0000000   2.5115362  )
        14           O   tau(  14) = (   0.0000000   0.4735409   2.9918528  )
        15           Cu  tau(  15) = (   0.0000000   0.0000000   2.9919088  )
        16           O   tau(  16) = (   0.0000000   0.0000000   3.4722686  )
        17           Ba  tau(  17) = (   0.5000000   0.4735409   3.5542208  )
        18           Cu  tau(  18) = (   0.0000000   0.0000000   4.0579686  )
        19           O   tau(  19) = (   0.5000000   0.0000000   4.1048108  )
        20           O   tau(  20) = (   0.0000000   0.4735409   4.0915774  )
        21           Ca  tau(  21) = (   0.5000000   0.4735409   4.4607145  )
        22           O   tau(  22) = (   0.0000000   0.4735409   5.2155756  )
        23           O   tau(  23) = (   0.5000000   0.0000000   5.2504642  )
        24           Cu  tau(  24) = (   0.0000000   0.0000000   5.2389636  )
        25           Ba  tau(  25) = (   0.5000000   0.4735409   5.7328010  )
        26           O   tau(  26) = (   0.0000000   0.0000000   5.7987286  )
        27           Cu  tau(  27) = (   0.0000000   0.0000000   6.2753686  )
        28           O   tau(  28) = (   0.0000000   0.4735409   6.3487869  )

     number of k points=    25  Gaussian smearing, width (Ry)=  0.0100
                       cart. coord. in units 2pi/alat
        k(    1) = (   0.0000000   0.0000000   0.0000000), wk =   0.0312500
        k(    2) = (   0.0000000   0.1319845   0.0000000), wk =   0.0625000
        k(    3) = (   0.0000000   0.2639689   0.0000000), wk =   0.0625000
        k(    4) = (   0.0000000   0.3959534   0.0000000), wk =   0.0625000
        k(    5) = (   0.0000000  -0.5279378   0.0000000), wk =   0.0312500
        k(    6) = (   0.1250000   0.0000000   0.0000000), wk =   0.0625000
        k(    7) = (   0.1250000   0.1319845   0.0000000), wk =   0.1250000
        k(    8) = (   0.1250000   0.2639689   0.0000000), wk =   0.1250000
        k(    9) = (   0.1250000   0.3959534   0.0000000), wk =   0.1250000
        k(   10) = (   0.1250000  -0.5279378   0.0000000), wk =   0.0625000
        k(   11) = (   0.2500000   0.0000000   0.0000000), wk =   0.0625000
        k(   12) = (   0.2500000   0.1319845   0.0000000), wk =   0.1250000
        k(   13) = (   0.2500000   0.2639689   0.0000000), wk =   0.1250000
        k(   14) = (   0.2500000   0.3959534   0.0000000), wk =   0.1250000
        k(   15) = (   0.2500000  -0.5279378   0.0000000), wk =   0.0625000
        k(   16) = (   0.3750000   0.0000000   0.0000000), wk =   0.0625000
        k(   17) = (   0.3750000   0.1319845   0.0000000), wk =   0.1250000
        k(   18) = (   0.3750000   0.2639689   0.0000000), wk =   0.1250000
        k(   19) = (   0.3750000   0.3959534   0.0000000), wk =   0.1250000
        k(   20) = (   0.3750000  -0.5279378   0.0000000), wk =   0.0625000
        k(   21) = (  -0.5000000   0.0000000   0.0000000), wk =   0.0312500
        k(   22) = (  -0.5000000   0.1319845   0.0000000), wk =   0.0625000
        k(   23) = (  -0.5000000   0.2639689   0.0000000), wk =   0.0625000
        k(   24) = (  -0.5000000   0.3959534   0.0000000), wk =   0.0625000
        k(   25) = (  -0.5000000  -0.5279378   0.0000000), wk =   0.0312500

     Dense  grid:  1443693 G-vectors     FFT dimensions: (  64,  64, 729)

     Smooth grid:   278079 G-vectors     FFT dimensions: (  40,  36, 432)

     Estimated max dynamical RAM per process >     460.71 MB

     Estimated total dynamical RAM >       9.00 GB

     Initial potential from superposition of free atoms

     starting charge  226.84630, renormalised to  227.00000

     negative rho (up, down):  3.506E-03 0.000E+00
     Starting wfcs are  195 randomized atomic wfcs

     total cpu time spent up to now is        9.9 secs

     Self-consistent Calculation

     iteration #  1     ecut=    60.00 Ry     beta= 0.70
     Davidson diagonalization with overlap
     ethr =  1.00E-02,  avg # of iterations =  2.0

     negative rho (up, down):  2.874E-04 0.000E+00

     total cpu time spent up to now is       24.6 secs

     total energy              =   -1839.47034537 Ry
     Harris-Foulkes estimate   =   -1845.34885656 Ry
     estimated scf accuracy    <      17.88412450 Ry

     iteration #  2     ecut=    60.00 Ry     beta= 0.70
     Davidson diagonalization with overlap
     ethr =  7.88E-03,  avg # of iterations =  2.0

     negative rho (up, down):  2.642E-04 0.000E+00

     total cpu time spent up to now is       40.9 secs

     total energy              =   -1842.09092846 Ry
     Harris-Foulkes estimate   =   -1843.89727486 Ry
     estimated scf accuracy    <      13.71361970 Ry

     iteration #  3     ecut=    60.00 Ry     beta= 0.70
     Davidson diagonalization with overlap
     ethr =  6.04E-03,  avg # of iterations =  1.2

     negative rho (up, down):  2.483E-04 0.000E+00

     total cpu time spent up to now is       54.5 secs

     total energy              =   -1842.62513723 Ry
     Harris-Foulkes estimate   =   -1842.99108023 Ry
     estimated scf accuracy    <       3.87325458 Ry

     iteration #  4     ecut=    60.00 Ry     beta= 0.70
     Davidson diagonalization with overlap
     ethr =  1.71E-03,  avg # of iterations =  1.0

     negative rho (up, down):  2.425E-04 0.000E+00

     total cpu time spent up to now is       67.9 secs

     total energy              =   -1842.76395724 Ry
     Harris-Foulkes estimate   =   -1842.93558950 Ry
     estimated scf accuracy    <       6.46647601 Ry

     iteration #  5     ecut=    60.00 Ry     beta= 0.70
     Davidson diagonalization with overlap
     ethr =  1.71E-03,  avg # of iterations =  1.0

     negative rho (up, down):  2.397E-04 0.000E+00

     total cpu time spent up to now is       81.1 secs

     total energy              =   -1842.79746606 Ry
     Harris-Foulkes estimate   =   -1842.83451841 Ry
     estimated scf accuracy    <       2.81424990 Ry

     iteration #  6     ecut=    60.00 Ry     beta= 0.70
     Davidson diagonalization with overlap
     ethr =  1.24E-03,  avg # of iterations =  1.0

     negative rho (up, down):  2.336E-04 0.000E+00

     total cpu time spent up to now is       94.3 secs

     total energy              =   -1842.78081146 Ry
     Harris-Foulkes estimate   =   -1842.81599819 Ry
     estimated scf accuracy    <       1.51336505 Ry

     iteration #  7     ecut=    60.00 Ry     beta= 0.70
     Davidson diagonalization with overlap
     ethr =  6.67E-04,  avg # of iterations =  2.2

     negative rho (up, down):  2.316E-04 0.000E+00

     total cpu time spent up to now is      108.7 secs

     total energy              =   -1842.77535559 Ry
     Harris-Foulkes estimate   =   -1842.80727490 Ry
     estimated scf accuracy    <       1.92961461 Ry

     iteration #  8     ecut=    60.00 Ry     beta= 0.70
     Davidson diagonalization with overlap
     ethr =  6.67E-04,  avg # of iterations =  1.5

     negative rho (up, down):  2.285E-04 0.000E+00

     total cpu time spent up to now is      122.4 secs

     total energy              =   -1842.77446108 Ry
     Harris-Foulkes estimate   =   -1842.78961460 Ry
     estimated scf accuracy    <       0.81494917 Ry

     iteration #  9     ecut=    60.00 Ry     beta= 0.70
     Davidson diagonalization with overlap
     ethr =  3.59E-04,  avg # of iterations =  5.2

     negative rho (up, down):  2.272E-04 0.000E+00

     total cpu time spent up to now is      140.3 secs

     total energy              =   -1842.77338971 Ry
     Harris-Foulkes estimate   =   -1842.78033956 Ry
     estimated scf accuracy    <       0.22855551 Ry

     iteration # 10     ecut=    60.00 Ry     beta= 0.70
     Davidson diagonalization with overlap
     ethr =  1.01E-04,  avg # of iterations =  7.1

     negative rho (up, down):  2.266E-04 0.000E+00

     total cpu time spent up to now is      160.7 secs

     total energy              =   -1842.77343362 Ry
     Harris-Foulkes estimate   =   -1842.77636474 Ry
     estimated scf accuracy    <       0.11920892 Ry

     iteration # 11     ecut=    60.00 Ry     beta= 0.70
     Davidson diagonalization with overlap
     ethr =  5.25E-05,  avg # of iterations =  2.5

     negative rho (up, down):  2.260E-04 0.000E+00

     total cpu time spent up to now is      175.6 secs

     total energy              =   -1842.77217730 Ry
     Harris-Foulkes estimate   =   -1842.77489625 Ry
     estimated scf accuracy    <       0.10173778 Ry

     iteration # 12     ecut=    60.00 Ry     beta= 0.70
     Davidson diagonalization with overlap
     ethr =  4.48E-05,  avg # of iterations =  2.7

     negative rho (up, down):  2.265E-04 0.000E+00

     total cpu time spent up to now is      190.5 secs

     total energy              =   -1842.77205951 Ry
     Harris-Foulkes estimate   =   -1842.77318787 Ry
     estimated scf accuracy    <       0.11584718 Ry

     iteration # 13     ecut=    60.00 Ry     beta= 0.70
     Davidson diagonalization with overlap
     ethr =  4.48E-05,  avg # of iterations =  1.0

     negative rho (up, down):  2.283E-04 0.000E+00

     total cpu time spent up to now is      203.7 secs

     total energy              =   -1842.77111647 Ry
     Harris-Foulkes estimate   =   -1842.77257769 Ry
     estimated scf accuracy    <       0.09726409 Ry

     iteration # 14     ecut=    60.00 Ry     beta= 0.70
     Davidson diagonalization with overlap
     ethr =  4.28E-05,  avg # of iterations =  1.0

     negative rho (up, down):  6.732E-04 0.000E+00

     total cpu time spent up to now is      217.0 secs

     total energy              =   -1842.77031720 Ry
     Harris-Foulkes estimate   =   -1842.77149782 Ry
     estimated scf accuracy    <       0.10052160 Ry

     iteration # 15     ecut=    60.00 Ry     beta= 0.70
     Davidson diagonalization with overlap
     ethr =  4.28E-05,  avg # of iterations =  1.7

     negative rho (up, down):  2.315E-04 0.000E+00

     total cpu time spent up to now is      230.9 secs

     total energy              =   -1842.76906557 Ry
     Harris-Foulkes estimate   =   -1842.77062139 Ry
     estimated scf accuracy    <       0.10479601 Ry

     iteration # 16     ecut=    60.00 Ry     beta= 0.70
     Davidson diagonalization with overlap
     ethr =  4.28E-05,  avg # of iterations =  1.2

     negative rho (up, down):  1.117E-02 0.000E+00

     total cpu time spent up to now is      244.5 secs

     total energy              =   -1842.76635163 Ry
     Harris-Foulkes estimate   =   -1842.76980918 Ry
     estimated scf accuracy    <       0.06467368 Ry

     iteration # 17     ecut=    60.00 Ry     beta= 0.70
     Davidson diagonalization with overlap
     ethr =  2.85E-05,  avg # of iterations =  7.0

     negative rho (up, down):  1.179E-02 0.000E+00

     total cpu time spent up to now is      264.8 secs

     total energy              =   -1842.76660440 Ry
     Harris-Foulkes estimate   =   -1842.76752492 Ry
     estimated scf accuracy    <       0.01801193 Ry

     iteration # 18     ecut=    60.00 Ry     beta= 0.70
     Davidson diagonalization with overlap
     c_bands:  2 eigenvalues not converged
     ethr =  7.93E-06,  avg # of iterations =  9.0

     negative rho (up, down):  8.695E-03 0.000E+00

     total cpu time spent up to now is      286.9 secs

     total energy              =   -1842.76645570 Ry
     Harris-Foulkes estimate   =   -1842.76687268 Ry
     estimated scf accuracy    <       0.02418591 Ry

     iteration # 19     ecut=    60.00 Ry     beta= 0.70
     Davidson diagonalization with overlap
     ethr =  7.93E-06,  avg # of iterations =  4.2

     negative rho (up, down):  7.055E-03 0.000E+00

     total cpu time spent up to now is      303.5 secs

     total energy              =   -1842.76641129 Ry
     Harris-Foulkes estimate   =   -1842.76655707 Ry
     estimated scf accuracy    <       0.01084528 Ry

     iteration # 20     ecut=    60.00 Ry     beta= 0.70
     Davidson diagonalization with overlap
     ethr =  4.78E-06,  avg # of iterations =  2.0

     negative rho (up, down):  1.831E-03 0.000E+00

     total cpu time spent up to now is      317.9 secs

     total energy              =   -1842.76631822 Ry
     Harris-Foulkes estimate   =   -1842.76645759 Ry
     estimated scf accuracy    <       0.00805533 Ry

     iteration # 21     ecut=    60.00 Ry     beta= 0.70
     Davidson diagonalization with overlap
     c_bands:  1 eigenvalues not converged
     ethr =  3.55E-06,  avg # of iterations =  6.7

     negative rho (up, down):  6.721E-04 0.000E+00

     total cpu time spent up to now is      337.1 secs

     total energy              =   -1842.76637046 Ry
     Harris-Foulkes estimate   =   -1842.76639823 Ry
     estimated scf accuracy    <       0.00090679 Ry

     iteration # 22     ecut=    60.00 Ry     beta= 0.70
     Davidson diagonalization with overlap
     c_bands:  1 eigenvalues not converged
     ethr =  3.99E-07,  avg # of iterations =  5.8

     negative rho (up, down):  6.704E-04 0.000E+00

     total cpu time spent up to now is      355.5 secs

     total energy              =   -1842.76638298 Ry
     Harris-Foulkes estimate   =   -1842.76639063 Ry
     estimated scf accuracy    <       0.00079805 Ry

     iteration # 23     ecut=    60.00 Ry     beta= 0.70
     Davidson diagonalization with overlap
     ethr =  3.52E-07,  avg # of iterations =  3.7

     negative rho (up, down):  1.192E-03 0.000E+00

     total cpu time spent up to now is      372.0 secs

     total energy              =   -1842.76638865 Ry
     Harris-Foulkes estimate   =   -1842.76638889 Ry
     estimated scf accuracy    <       0.00035361 Ry

     iteration # 24     ecut=    60.00 Ry     beta= 0.70
     Davidson diagonalization with overlap
     ethr =  1.56E-07,  avg # of iterations =  2.4

     negative rho (up, down):  1.553E-03 0.000E+00

     total cpu time spent up to now is      387.0 secs

     total energy              =   -1842.76639168 Ry
     Harris-Foulkes estimate   =   -1842.76639192 Ry
     estimated scf accuracy    <       0.00009843 Ry

     iteration # 25     ecut=    60.00 Ry     beta= 0.70
     Davidson diagonalization with overlap
     ethr =  4.34E-08,  avg # of iterations =  1.4

     negative rho (up, down):  1.579E-03 0.000E+00

     total cpu time spent up to now is      401.1 secs

     total energy              =   -1842.76639219 Ry
     Harris-Foulkes estimate   =   -1842.76639317 Ry
     estimated scf accuracy    <       0.00002634 Ry

     iteration # 26     ecut=    60.00 Ry     beta= 0.70
     Davidson diagonalization with overlap
     ethr =  1.16E-08,  avg # of iterations =  1.2

     negative rho (up, down):  1.485E-03 0.000E+00

     total cpu time spent up to now is      414.9 secs

     total energy              =   -1842.76639251 Ry
     Harris-Foulkes estimate   =   -1842.76639275 Ry
     estimated scf accuracy    <       0.00001542 Ry

     iteration # 27     ecut=    60.00 Ry     beta= 0.70
     Davidson diagonalization with overlap
     ethr =  6.79E-09,  avg # of iterations =  1.0

     negative rho (up, down):  1.504E-03 0.000E+00

     total cpu time spent up to now is      428.4 secs

     total energy              =   -1842.76639249 Ry
     Harris-Foulkes estimate   =   -1842.76639274 Ry
     estimated scf accuracy    <       0.00000713 Ry

     iteration # 28     ecut=    60.00 Ry     beta= 0.70
     Davidson diagonalization with overlap
     ethr =  3.14E-09,  avg # of iterations =  1.2

     negative rho (up, down):  1.452E-03 0.000E+00

     total cpu time spent up to now is      442.1 secs

     total energy              =   -1842.76639259 Ry
     Harris-Foulkes estimate   =   -1842.76639261 Ry
     estimated scf accuracy    <       0.00000231 Ry

     iteration # 29     ecut=    60.00 Ry     beta= 0.70
     Davidson diagonalization with overlap
     ethr =  1.02E-09,  avg # of iterations =  2.1

     negative rho (up, down):  1.446E-03 0.000E+00

     total cpu time spent up to now is      456.5 secs

     total energy              =   -1842.76639262 Ry
     Harris-Foulkes estimate   =   -1842.76639266 Ry
     estimated scf accuracy    <       0.00000086 Ry

     iteration # 30     ecut=    60.00 Ry     beta= 0.70
     Davidson diagonalization with overlap
     ethr =  3.78E-10,  avg # of iterations =  1.5

     negative rho (up, down):  1.458E-03 0.000E+00

     total cpu time spent up to now is      470.8 secs

     total energy              =   -1842.76639263 Ry
     Harris-Foulkes estimate   =   -1842.76639265 Ry
     estimated scf accuracy    <       0.00000033 Ry

     iteration # 31     ecut=    60.00 Ry     beta= 0.70
     Davidson diagonalization with overlap
     ethr =  1.45E-10,  avg # of iterations =  2.2

     negative rho (up, down):  1.482E-03 0.000E+00

     total cpu time spent up to now is      485.5 secs

     total energy              =   -1842.76639259 Ry
     Harris-Foulkes estimate   =   -1842.76639264 Ry
     estimated scf accuracy    <       0.00000023 Ry

     iteration # 32     ecut=    60.00 Ry     beta= 0.70
     Davidson diagonalization with overlap
     ethr =  1.02E-10,  avg # of iterations =  1.0

     negative rho (up, down):  1.495E-03 0.000E+00

     total cpu time spent up to now is      499.2 secs

     total energy              =   -1842.76639258 Ry
     Harris-Foulkes estimate   =   -1842.76639260 Ry
     estimated scf accuracy    <       0.00000009 Ry

     iteration # 33     ecut=    60.00 Ry     beta= 0.70
     Davidson diagonalization with overlap
     ethr =  4.15E-11,  avg # of iterations =  2.0

     negative rho (up, down):  1.493E-03 0.000E+00

     total cpu time spent up to now is      513.7 secs

     total energy              =   -1842.76639259 Ry
     Harris-Foulkes estimate   =   -1842.76639258 Ry
     estimated scf accuracy    <          5.3E-09 Ry

     iteration # 34     ecut=    60.00 Ry     beta= 0.70
     Davidson diagonalization with overlap
     ethr =  2.32E-12,  avg # of iterations =  4.0

     negative rho (up, down):  1.492E-03 0.000E+00

     total cpu time spent up to now is      536.7 secs

     total energy              =   -1842.76639259 Ry
     Harris-Foulkes estimate   =   -1842.76639259 Ry
     estimated scf accuracy    <          3.4E-09 Ry

     iteration # 35     ecut=    60.00 Ry     beta= 0.70
     Davidson diagonalization with overlap
     ethr =  1.51E-12,  avg # of iterations =  1.0

     negative rho (up, down):  1.492E-03 0.000E+00

     total cpu time spent up to now is      550.1 secs

     total energy              =   -1842.76639259 Ry
     Harris-Foulkes estimate   =   -1842.76639259 Ry
     estimated scf accuracy    <          1.9E-09 Ry

     iteration # 36     ecut=    60.00 Ry     beta= 0.70
     Davidson diagonalization with overlap
     ethr =  8.25E-13,  avg # of iterations =  1.0

     negative rho (up, down):  1.490E-03 0.000E+00

     total cpu time spent up to now is      563.4 secs

     total energy              =   -1842.76639259 Ry
     Harris-Foulkes estimate   =   -1842.76639259 Ry
     estimated scf accuracy    <          1.1E-09 Ry

     iteration # 37     ecut=    60.00 Ry     beta= 0.70
     Davidson diagonalization with overlap
     ethr =  4.72E-13,  avg # of iterations =  1.7

     negative rho (up, down):  1.491E-03 0.000E+00

     total cpu time spent up to now is      577.6 secs

     total energy              =   -1842.76639259 Ry
     Harris-Foulkes estimate   =   -1842.76639259 Ry
     estimated scf accuracy    <          6.9E-10 Ry

     iteration # 38     ecut=    60.00 Ry     beta= 0.70
     Davidson diagonalization with overlap
     ethr =  3.03E-13,  avg # of iterations =  1.0

     negative rho (up, down):  1.492E-03 0.000E+00

     total cpu time spent up to now is      591.3 secs

     total energy              =   -1842.76639259 Ry
     Harris-Foulkes estimate   =   -1842.76639259 Ry
     estimated scf accuracy    <          2.5E-10 Ry

     iteration # 39     ecut=    60.00 Ry     beta= 0.70
     Davidson diagonalization with overlap
     ethr =  1.08E-13,  avg # of iterations =  1.0

     negative rho (up, down):  1.492E-03 0.000E+00

     total cpu time spent up to now is      604.5 secs

     End of self-consistent calculation

          k = 0.0000 0.0000 0.0000 ( 34843 PWs)   bands (ev):

   -37.7585 -35.6045 -22.8097 -22.7610 -22.5525 -22.2951 -18.9372 -18.7815
   -18.7501 -17.1089 -16.6557 -16.6443 -15.5851 -15.3195 -15.0104 -14.8647
   -14.6899 -14.5900 -14.5526 -14.5201 -14.2000 -14.0003 -14.0000 -13.8409
   -13.7341 -13.6935 -13.5964  -8.0035  -7.9410  -7.9034  -7.7633  -7.7328
    -7.7105  -7.6230  -7.5973  -7.4311  -7.4114  -7.3643  -7.2196  -2.3485
    -2.2258  -2.2002  -2.1004  -2.0246  -1.8484  -1.7837  -1.6864  -1.5565
    -1.5020  -1.4720  -1.2388  -1.2340  -1.1714  -1.0963  -1.0655  -1.0177
    -0.8606  -0.6143  -0.4771  -0.4147  -0.3952  -0.3556  -0.3258  -0.2988
    -0.2832  -0.2819  -0.2721  -0.2672  -0.2619  -0.2100  -0.2022  -0.1928
    -0.1740  -0.1166  -0.0557  -0.0269   0.0104   0.0395   0.0418   0.0803
     0.0805   0.0834   0.1460   0.1551   0.2067   0.2912   0.3053   0.3885
     0.5852   0.6270   0.6705   0.7804   0.8559   0.8634   0.9210   0.9487
     0.9542   0.9624   1.1317   1.1650   1.3304   1.3508   1.4585   1.5021
     1.5096   1.6566   1.6895   1.7182   1.8142   2.0150   2.0397   2.0478
     2.1085   2.1533   2.2149   2.2376   2.2538   2.4960   2.5173   4.2400
     5.1979   5.3272   5.8335   6.2726   6.6298   6.7447   6.8242   7.2095
     7.3439   7.7617   7.8657   7.9700   8.1505   8.2571   8.2635   8.4758
     8.5276

          k = 0.0000 0.1320 0.0000 ( 34781 PWs)   bands (ev):

   -37.7568 -35.6027 -22.7830 -22.7364 -22.5271 -22.2671 -18.9386 -18.7795
   -18.7775 -17.0727 -16.7168 -16.6533 -15.5254 -15.2309 -14.9526 -14.8101
   -14.6950 -14.5661 -14.5628 -14.4900 -14.2095 -14.0368 -14.0058 -13.8867
   -13.7782 -13.7230 -13.6593  -7.9971  -7.9405  -7.8556  -7.7528  -7.7322
    -7.7200  -7.6714  -7.5521  -7.4786  -7.3737  -7.3622  -7.2530  -2.4553
    -2.4067  -2.2459  -2.1756  -2.1705  -2.0654  -2.0601  -1.6954  -1.6912
    -1.6661  -1.6630  -1.6380  -1.5388  -1.4585  -1.3595  -1.1254  -1.1164
    -0.9293  -0.6975  -0.6690  -0.6464  -0.5745  -0.5511  -0.5254  -0.4809
    -0.4786  -0.4764  -0.3550  -0.2917  -0.2691  -0.2257  -0.1799  -0.1664
    -0.1495  -0.0844  -0.0343  -0.0116  -0.0082   0.0483   0.0940   0.1038
     0.1279   0.1340   0.1533   0.1694   0.2487   0.2596   0.3514   0.4195
     0.6855   0.6867   0.7667   0.9168   1.0389   1.0606   1.0938   1.1109
     1.1285   1.1703   1.1797   1.2763   1.3392   1.4152   1.4187   1.5124
     1.5499   1.5909   1.6893   1.6919   1.8025   1.9044   1.9391   2.0016
     2.0578   2.0939   2.1114   2.4136   2.7780   2.8099   2.8478   4.4604
     5.5744   5.6813   6.1126   6.5511   6.7784   6.9950   7.0504   7.4558
     7.6022   7.7198   7.8056   8.1459   8.3272   8.3385   8.4253   8.5300
     8.7416

          k = 0.0000 0.2640 0.0000 ( 34663 PWs)   bands (ev):

   -37.7526 -35.5983 -22.7171 -22.6759 -22.4643 -22.1980 -18.9687 -18.8140
   -18.7745 -16.9807 -16.8712 -16.6477 -15.3647 -15.0313 -14.8115 -14.7438
   -14.6719 -14.6158 -14.5011 -14.4361 -14.1968 -14.1026 -14.0456 -14.0139
   -13.8495 -13.8127 -13.7962  -7.9822  -7.9401  -7.8431  -7.7858  -7.7352
    -7.7216  -7.6116  -7.5813  -7.4387  -7.3959  -7.3243  -7.2378  -3.0935
    -2.8521  -2.7322  -2.6174  -2.6080  -2.4471  -2.3668  -2.2996  -2.1998
    -2.0787  -2.0452  -1.7423  -1.6124  -1.5178  -1.4823  -1.3946  -1.2316
    -1.1665  -0.9880  -0.9439  -0.9402  -0.8798  -0.8258  -0.7805  -0.7318
    -0.7208  -0.6696  -0.6689  -0.5520  -0.5378  -0.5157  -0.5062  -0.3347
    -0.2692  -0.1742  -0.0062   0.0009   0.0074   0.0187   0.0765   0.1390
     0.1604   0.1936   0.3111   0.3548   0.5994   0.6147   0.6785   0.7966
     0.8687   0.9368   0.9509   0.9650   1.1156   1.1459   1.1545   1.1883
     1.2709   1.2801   1.2883   1.3557   1.3842   1.4113   1.6195   1.6217
     1.6372   1.6626   1.7740   1.8695   1.9199   1.9384   1.9551   1.9887
     2.0975   2.1289   2.1713   2.5532   3.0219   3.0981   3.7077   4.9002
     6.4683   6.5650   6.7093   7.0216   7.1593   7.2909   7.4744   7.8699
     8.2462   8.3007   8.3928   8.3977   8.5354   8.6571   8.8280   8.8676
     9.0378

          k = 0.0000 0.3960 0.0000 ( 34610 PWs)   bands (ev):

   -37.7484 -35.5939 -22.6489 -22.6135 -22.3996 -22.1264 -19.0326 -18.8132
   -18.7696 -17.0074 -16.8790 -16.6420 -15.1500 -14.9529 -14.7518 -14.7171
   -14.7012 -14.5099 -14.4308 -14.3658 -14.1675 -14.1234 -14.1110 -14.0925
   -13.9878 -13.9081 -13.9010  -7.9636  -7.9400  -7.9213  -7.8815  -7.7170
    -7.6710  -7.6067  -7.4970  -7.4177  -7.3842  -7.3184  -7.1047  -3.6506
    -3.4443  -3.3071  -3.2611  -3.0763  -3.0139  -2.9791  -2.3905  -2.2324
    -2.0813  -2.0657  -1.9226  -1.8315  -1.6457  -1.5772  -1.5471  -1.3918
    -1.3032  -1.2140  -1.2006  -1.1442  -1.0940  -1.0092  -0.9691  -0.9656
    -0.9623  -0.8776  -0.8385  -0.7687  -0.7481  -0.7243  -0.6449  -0.3538
    -0.2863  -0.1952  -0.1861  -0.0716   0.0110   0.0375   0.1068   0.1309
     0.1447   0.1554   0.3880   0.4742   0.7637   0.8214   0.8294   0.8534
     0.9092   0.9158   0.9594   1.0731   1.1017   1.1169   1.1659   1.1890
     1.3490   1.3796   1.4782   1.5482   1.6001   1.6030   1.6302   1.7095
     1.7302   1.9141   1.9661   2.0298   2.0491   2.0525   2.1672   2.2392
     2.2537   2.3493   2.3782   2.5024   2.9166   3.0868   4.2787   5.3325
     6.7998   7.2885   7.2933   7.4150   7.4771   7.5673   8.2413   8.4362
     8.4398   8.6624   8.8039   8.9300   9.0723   9.0744   9.1633   9.3866
     9.4074

          k = 0.0000-0.5279 0.0000 ( 34682 PWs)   bands (ev):

   -37.7467 -35.5920 -22.6200 -22.5871 -22.3721 -22.0960 -19.0633 -18.8077
   -18.7676 -17.0596 -16.8340 -16.6397 -14.9952 -14.9437 -14.9227 -14.7225
   -14.5870 -14.5120 -14.2955 -14.2653 -14.2549 -14.1452 -14.0909 -14.0880
   -14.0614 -14.0071 -13.9317  -7.9510  -7.9400  -7.9377  -7.9352  -7.7122
    -7.7077  -7.5508  -7.4475  -7.4295  -7.4032  -7.2663  -7.0466  -3.8674
    -3.7068  -3.5038  -3.4859  -3.2556  -3.2332  -3.2137  -2.4066  -2.2397
    -2.1918  -2.0811  -1.9602  -1.7725  -1.7678  -1.6841  -1.5315  -1.5139
    -1.3330  -1.2902  -1.2291  -1.2193  -1.2064  -1.1075  -1.0830  -1.0595
    -0.9858  -0.9651  -0.9564  -0.8558  -0.8330  -0.7998  -0.6129  -0.3191
    -0.2922  -0.2811  -0.1831  -0.1093   0.0166   0.0440   0.1014   0.1300
     0.1517   0.1522   0.4037   0.4101   0.7330   0.7981   0.8064   0.8398
     0.8885   0.9482   0.9968   0.9995   1.0999   1.1517   1.1545   1.2995
     1.3577   1.4538   1.5507   1.6261   1.6549   1.7164   1.7192   1.9518
     1.9945   2.0022   2.0129   2.0207   2.0467   2.1943   2.2158   2.2296
     2.2931   2.4702   2.5108   2.5354   2.7393   2.9999   4.4511   5.5602
     6.6431   7.2211   7.4975   7.6539   7.8283   8.0528   8.3506   8.4490
     8.8308   8.9471   8.9695   8.9884   9.2059   9.2394   9.3133   9.3984
     9.4150

          k = 0.1250 0.0000 0.0000 ( 34755 PWs)   bands (ev):

   -37.7576 -35.6034 -22.7916 -22.7440 -22.5353 -22.2763 -18.9341 -18.8009
   -18.7491 -17.0755 -16.7360 -16.6429 -15.5426 -15.2173 -14.9724 -14.8862
   -14.7355 -14.5953 -14.5736 -14.5413 -14.2090 -14.0247 -14.0122 -13.8617
   -13.7875 -13.7239 -13.6292  -8.0334  -7.9667  -7.8417  -7.7787  -7.6983
    -7.6781  -7.5935  -7.5369  -7.4171  -7.4006  -7.3229  -7.1861  -2.4057
    -2.3910  -2.2224  -2.0655  -2.0619  -1.8905  -1.8260  -1.8255  -1.7550
    -1.4741  -1.4529  -1.4398  -1.2368  -1.2315  -1.1524  -1.0860  -1.0628
    -0.8911  -0.6849  -0.6312  -0.5875  -0.5328  -0.5149  -0.4709  -0.3984
    -0.3655  -0.3577  -0.3323  -0.2864  -0.2588  -0.2428  -0.2171  -0.2104
    -0.1820  -0.1050  -0.0641  -0.0300   0.0478   0.0620   0.0732   0.0800
     0.0963   0.1510   0.1760   0.2041   0.2173   0.3216   0.3612   0.4033
     0.4873   0.6899   0.7388   0.7744   0.7865   0.8412   0.8807   0.9865
     1.0000   1.1694   1.1931   1.2643   1.3287   1.3473   1.4614   1.5133
     1.5564   1.6262   1.7099   1.8490   1.9235   1.9548   1.9799   2.0556
     2.0757   2.1560   2.1664   2.1713   2.3039   2.5521   2.5702   4.4199
     5.3782   5.4927   6.0095   6.4665   6.7366   6.9551   6.9605   7.4171
     7.5206   7.7133   7.7851   8.1122   8.2064   8.2984   8.4856   8.6609
     8.7641

          k = 0.1250 0.1320 0.0000 ( 34736 PWs)   bands (ev):

   -37.7559 -35.6016 -22.7657 -22.7201 -22.5106 -22.2492 -18.9353 -18.8034
   -18.7719 -17.0404 -16.7390 -16.7061 -15.4843 -15.1361 -14.9168 -14.8291
   -14.7298 -14.5832 -14.5655 -14.5078 -14.2099 -14.0475 -14.0181 -13.9010
   -13.8212 -13.7525 -13.6805  -8.0189  -7.9860  -7.9039  -7.8359  -7.7501
    -7.6404  -7.6302  -7.5431  -7.4717  -7.3599  -7.3518  -7.1459  -2.5161
    -2.4435  -2.2806  -2.2549  -2.1605  -2.0887  -2.0439  -1.8696  -1.7961
    -1.7040  -1.6817  -1.6571  -1.6377  -1.4508  -1.4362  -1.3624  -1.1657
    -0.9557  -0.8405  -0.8194  -0.7595  -0.6991  -0.6529  -0.6048  -0.5628
    -0.5305  -0.5224  -0.5087  -0.3772  -0.2933  -0.2835  -0.2232  -0.2081
    -0.1496  -0.1381  -0.0601  -0.0368  -0.0062   0.0533   0.1120   0.1350
     0.1639   0.1778   0.1857   0.2079   0.2710   0.3598   0.4990   0.5511
     0.6641   0.7762   0.8835   0.9068   1.0000   1.0241   1.1135   1.1320
     1.1864   1.2028   1.2458   1.2660   1.3002   1.3555   1.4441   1.5554
     1.5732   1.6416   1.6564   1.7152   1.7514   1.8679   1.8875   2.1346
     2.2110   2.3263   2.4715   2.5284   2.7911   2.8267   2.8609   4.5801
     5.7168   5.8195   6.2369   6.7076   6.8697   7.0822   7.2549   7.6088
     7.6368   7.7700   7.8563   8.2350   8.3004   8.4716   8.6325   8.6566
     8.8886

          k = 0.1250 0.2640 0.0000 ( 34685 PWs)   bands (ev):

   -37.7518 -35.5972 -22.7019 -22.6613 -22.4497 -22.1822 -18.9650 -18.8264
   -18.7806 -16.9512 -16.8681 -16.7186 -15.3278 -14.9622 -14.7820 -14.7300
   -14.6793 -14.6262 -14.4955 -14.4355 -14.1922 -14.0948 -14.0673 -14.0053
   -13.8672 -13.8195 -13.8105  -8.0550  -7.9953  -7.9643  -7.9409  -7.7705
    -7.7290  -7.6309  -7.5492  -7.5330  -7.3884  -7.3544  -7.1279  -3.1270
    -2.8752  -2.7225  -2.6261  -2.6177  -2.4476  -2.3633  -2.2990  -2.2831
    -2.1841  -2.0499  -1.8203  -1.7634  -1.6866  -1.5245  -1.4810  -1.4109
    -1.2528  -1.2090  -1.0308  -0.9987  -0.9289  -0.8984  -0.8755  -0.8450
    -0.7689  -0.7435  -0.7122  -0.6980  -0.5829  -0.5464  -0.5171  -0.4299
    -0.3390  -0.1812  -0.1493  -0.0705  -0.0559   0.0897   0.1703   0.1827
     0.1945   0.3724   0.4645   0.4795   0.7041   0.7307   0.7406   0.7831
     0.8802   0.9991   1.0325   1.0849   1.1138   1.2144   1.2531   1.2861
     1.2995   1.3520   1.3713   1.3800   1.3995   1.5133   1.5790   1.5868
     1.6275   1.6736   1.6830   1.8577   1.9191   1.9707   2.0155   2.1882
     2.4582   2.5266   2.6947   2.7630   3.0329   3.1126   3.7084   4.9496
     6.5293   6.6336   6.7036   7.0794   7.1998   7.3334   7.3694   8.0343
     8.2202   8.3539   8.4236   8.5790   8.6231   8.7755   8.8820   8.9781
     9.0647

          k = 0.1250 0.3960 0.0000 ( 34670 PWs)   bands (ev):

   -37.7476 -35.5928 -22.6360 -22.6007 -22.3869 -22.1129 -19.0294 -18.8276
   -18.7729 -17.0023 -16.8525 -16.7100 -15.1199 -14.9180 -14.7400 -14.6821
   -14.6272 -14.4976 -14.4211 -14.3470 -14.1623 -14.1463 -14.1013 -14.0914
   -13.9674 -13.9139 -13.8950  -8.0855  -8.0473  -7.9614  -7.9524  -7.8232
    -7.7363  -7.6760  -7.5669  -7.5609  -7.4199  -7.3941  -7.1657  -3.6995
    -3.4359  -3.3475  -3.2824  -3.1051  -3.0055  -2.9721  -2.3987  -2.2633
    -2.1487  -2.0866  -1.9510  -1.8109  -1.7052  -1.6717  -1.6333  -1.5882
    -1.5226  -1.3568  -1.3460  -1.2188  -1.1804  -1.1397  -1.1278  -0.9976
    -0.9564  -0.8940  -0.8845  -0.8230  -0.7746  -0.7696  -0.6764  -0.5281
    -0.3909  -0.2118  -0.1884  -0.0733  -0.0416   0.0991   0.1279   0.1857
     0.1978   0.4125   0.5932   0.6438   0.6648   0.8826   0.9481   0.9562
     1.0281   1.0609   1.1255   1.1347   1.1767   1.2115   1.3382   1.3700
     1.4173   1.4365   1.5260   1.5668   1.6338   1.7015   1.7025   1.7489
     1.8492   1.9362   2.0218   2.0384   2.1477   2.3163   2.3472   2.3540
     2.4678   2.5641   2.6227   2.7047   2.9762   3.1813   4.2603   5.3468
     6.8424   7.0837   7.1463   7.2807   7.4004   7.5170   8.1112   8.3250
     8.5080   8.6442   8.7987   8.9005   8.9056   9.2375   9.3701   9.5166
     9.5343

          k = 0.1250-0.5279 0.0000 ( 34632 PWs)   bands (ev):

   -37.7459 -35.5910 -22.6080 -22.5751 -22.3603 -22.0835 -19.0603 -18.8238
   -18.7688 -17.0539 -16.8091 -16.7063 -14.9505 -14.9320 -14.8898 -14.6741
   -14.5146 -14.4728 -14.2950 -14.2618 -14.2342 -14.1778 -14.0918 -14.0606
   -14.0604 -13.9964 -13.9138  -8.0801  -8.0594  -7.9574  -7.9561  -7.8361
    -7.7416  -7.7101  -7.5764  -7.5557  -7.4325  -7.4194  -7.1983  -3.9221
    -3.7011  -3.5344  -3.5298  -3.2834  -3.2338  -3.2052  -2.4197  -2.2656
    -2.1138  -2.0995  -1.9337  -1.9154  -1.8413  -1.6783  -1.6382  -1.6145
    -1.5351  -1.4736  -1.3746  -1.3744  -1.2869  -1.2643  -1.2148  -1.0853
    -1.0038  -0.9646  -0.9614  -0.8686  -0.8575  -0.8531  -0.6527  -0.5639
    -0.3789  -0.2295  -0.1940  -0.0680  -0.0208   0.0790   0.1189   0.1948
     0.2003   0.4133   0.6256   0.6276   0.6751   0.8901   0.9186   0.9370
     0.9807   1.0107   1.1220   1.1536   1.2461   1.3069   1.3320   1.3429
     1.4648   1.5006   1.6175   1.6921   1.7588   1.7604   1.9896   2.0138
     2.0224   2.0234   2.2004   2.2121   2.3273   2.3293   2.3718   2.4576
     2.4817   2.5120   2.5212   2.5729   2.8552   3.1511   4.4221   5.5537
     6.6892   7.0836   7.1887   7.5022   7.5401   7.7577   8.2962   8.3533
     8.5451   8.8473   9.0302   9.2771   9.3007   9.3118   9.4617   9.5275
     9.5559

          k = 0.2500 0.0000 0.0000 ( 34786 PWs)   bands (ev):

   -37.7556 -35.6008 -22.7473 -22.7024 -22.4931 -22.2300 -18.9349 -18.8382
   -18.7466 -16.9902 -16.9002 -16.6396 -15.4319 -15.0198 -14.9472 -14.8940
   -14.8168 -14.6382 -14.6180 -14.5831 -14.2231 -14.0698 -14.0591 -13.9285
   -13.8857 -13.8049 -13.6943  -8.0806  -7.9682  -7.7811  -7.7550  -7.6196
    -7.5973  -7.5205  -7.4525  -7.4064  -7.3250  -7.2491  -7.1026  -2.7831
    -2.5843  -2.3843  -2.2726  -2.2280  -2.1480  -1.9606  -1.9168  -1.7651
    -1.6656  -1.4898  -1.4806  -1.2334  -1.2267  -1.1820  -1.1466  -1.0966
    -0.9791  -0.9752  -0.9206  -0.8139  -0.7886  -0.7880  -0.6553  -0.6421
    -0.5533  -0.5493  -0.5163  -0.3828  -0.3264  -0.2935  -0.2693  -0.2350
    -0.2124  -0.1985  -0.1167  -0.0163   0.0197   0.0531   0.0605   0.0637
     0.0970   0.1662   0.2349   0.2523   0.3052   0.4267   0.4366   0.5241
     0.6341   0.6479   0.6677   0.7960   0.9074   0.9200   1.0029   1.0129
     1.0823   1.0907   1.2616   1.2894   1.3987   1.4327   1.4354   1.5530
     1.6757   1.7300   1.7315   1.7870   1.8061   1.8671   2.0176   2.0191
     2.0887   2.1096   2.2249   2.3422   2.4723   2.6601   2.7327   4.8203
     5.8357   5.9349   6.3805   6.9792   7.0121   7.0703   7.5362   7.6180
     7.8048   8.0072   8.0511   8.3911   8.4947   8.6445   8.7066   8.8660
     9.1323

          k = 0.2500 0.1320 0.0000 ( 34751 PWs)   bands (ev):

   -37.7539 -35.5990 -22.7235 -22.6802 -22.4702 -22.2050 -18.9340 -18.8452
   -18.7668 -16.9581 -16.8937 -16.7058 -15.3774 -14.9695 -14.8836 -14.8440
   -14.7676 -14.6366 -14.5831 -14.5380 -14.2090 -14.0675 -14.0585 -13.9393
   -13.9124 -13.8284 -13.7221  -8.0775  -8.0368  -7.8917  -7.8478  -7.7973
    -7.6334  -7.5637  -7.5233  -7.4695  -7.3406  -7.2917  -7.0654  -2.8420
    -2.6342  -2.4201  -2.2979  -2.2856  -2.2194  -2.1312  -2.1106  -1.9725
    -1.9129  -1.7247  -1.6524  -1.6476  -1.6090  -1.4556  -1.4192  -1.3040
    -1.2348  -1.0569  -1.0289  -0.9978  -0.9342  -0.8917  -0.7702  -0.7327
    -0.6736  -0.6408  -0.5478  -0.5194  -0.4720  -0.3556  -0.3428  -0.3023
    -0.2341  -0.1869  -0.0501   0.0074   0.0272   0.0869   0.1272   0.1537
     0.1770   0.2088   0.2742   0.3115   0.4459   0.5497   0.6015   0.7405
     0.8014   0.8333   0.8965   0.9364   0.9616   1.0455   1.0885   1.1220
     1.1790   1.2436   1.2828   1.3610   1.4159   1.4594   1.5025   1.5158
     1.5956   1.6567   1.7088   1.7109   1.7248   1.9373   1.9926   2.2519
     2.4323   2.6476   2.6969   2.8393   2.8525   2.9326   2.9551   4.8928
     6.0969   6.1995   6.4857   7.0402   7.0992   7.1773   7.4542   7.7932
     7.9892   8.1959   8.2305   8.4199   8.6063   8.7254   8.8135   9.0208
     9.1450

          k = 0.2500 0.2640 0.0000 ( 34733 PWs)   bands (ev):

   -37.7498 -35.5946 -22.6647 -22.6256 -22.4138 -22.1434 -18.9567 -18.8719
   -18.7779 -16.8936 -16.8698 -16.8423 -15.2324 -14.8804 -14.7196 -14.7126
   -14.6522 -14.6269 -14.4942 -14.4230 -14.1838 -14.1081 -14.0755 -13.9863
   -13.9114 -13.8794 -13.8033  -8.2570  -8.1605  -8.0487  -7.9535  -7.9439
    -7.7460  -7.7459  -7.6835  -7.5808  -7.4163  -7.4141  -7.1683  -3.2860
    -3.0125  -2.7574  -2.6902  -2.6560  -2.5687  -2.4608  -2.3563  -2.3317
    -2.2550  -2.1895  -2.1846  -2.1091  -1.8864  -1.7855  -1.6086  -1.4711
    -1.4497  -1.4357  -1.2785  -1.2035  -1.1553  -1.0556  -0.9220  -0.9109
    -0.8707  -0.7965  -0.7608  -0.7499  -0.6222  -0.6075  -0.5923  -0.5509
    -0.4175  -0.3638  -0.3160  -0.0101   0.0952   0.2304   0.2922   0.3408
     0.4643   0.5611   0.6158   0.6578   0.7675   0.8243   0.8955   0.9403
     1.0112   1.0676   1.0955   1.1640   1.2213   1.2437   1.3640   1.4256
     1.4396   1.4423   1.5268   1.5355   1.5410   1.6018   1.6142   1.6827
     1.7067   1.7341   1.7889   1.8390   1.9113   1.9565   2.1278   2.3151
     2.9677   3.0452   3.1121   3.2526   3.4047   3.4395   3.7096   5.1006
     6.5672   6.6397   6.7765   6.9963   7.1685   7.3493   7.5695   8.2086
     8.3255   8.4753   8.5638   8.7145   8.9454   9.0080   9.0460   9.2270
     9.3149

          k = 0.2500 0.3960 0.0000 ( 34712 PWs)   bands (ev):

   -37.7457 -35.5902 -22.6043 -22.5696 -22.3559 -22.0799 -19.0215 -18.8746
   -18.7677 -16.9902 -16.8581 -16.7838 -15.0454 -14.8368 -14.7169 -14.5939
   -14.4909 -14.4587 -14.3875 -14.3011 -14.2326 -14.1161 -14.0869 -14.0635
   -13.9321 -13.9203 -13.8830  -8.3770  -8.3130  -8.1215  -8.0040  -8.0022
    -7.8974  -7.8515  -7.8417  -7.7156  -7.6263  -7.5071  -7.3579  -3.8722
    -3.5128  -3.4073  -3.3595  -3.2189  -2.9849  -2.9550  -2.5791  -2.4704
    -2.2880  -2.2323  -2.1571  -2.1499  -2.0689  -1.8603  -1.8260  -1.7590
    -1.6184  -1.5567  -1.5248  -1.4432  -1.2820  -1.2366  -1.1468  -1.0828
    -0.9694  -0.8924  -0.8829  -0.8213  -0.8145  -0.8118  -0.6968  -0.5606
    -0.5478  -0.4402  -0.3801   0.0738   0.1503   0.2801   0.3203   0.4130
     0.5758   0.7176   0.7775   0.8018   0.9594   0.9894   1.1280   1.2274
     1.2289   1.2702   1.3055   1.3870   1.4403   1.4846   1.5303   1.5461
     1.6263   1.6314   1.6556   1.6783   1.7124   1.7595   1.7990   1.8686
     1.9019   2.0114   2.0341   2.0553   2.2380   2.2578   2.2943   2.3986
     2.7999   2.8872   3.4699   3.4827   3.6413   3.8009   4.2089   5.3809
     6.4348   6.8323   6.8475   6.9637   7.0982   7.5947   7.7313   8.2943
     8.6157   8.7729   8.8623   9.0243   9.0430   9.3275   9.6607   9.7880
     9.8530

          k = 0.2500-0.5279 0.0000 ( 34740 PWs)   bands (ev):

   -37.7440 -35.5884 -22.5788 -22.5460 -22.3315 -22.0530 -19.0530 -18.8719
   -18.7616 -17.0404 -16.8526 -16.7443 -14.9061 -14.8336 -14.8077 -14.5454
   -14.3824 -14.3792 -14.2925 -14.2562 -14.2421 -14.1785 -14.0863 -14.0560
   -13.9962 -13.9792 -13.8720  -8.3772  -8.3453  -8.1244  -8.0920  -8.0288
    -7.9638  -7.9389  -7.8444  -7.7452  -7.7246  -7.5967  -7.4310  -4.1065
    -3.7194  -3.6702  -3.6166  -3.4128  -3.2125  -3.1845  -2.5392  -2.4777
    -2.3232  -2.2752  -2.2256  -2.1172  -2.0168  -1.9806  -1.8760  -1.8385
    -1.6888  -1.6671  -1.6124  -1.4775  -1.3242  -1.3087  -1.2394  -1.1738
    -1.0017  -0.9607  -0.8924  -0.8889  -0.8865  -0.8339  -0.6870  -0.5738
    -0.5417  -0.4685  -0.3995   0.0875   0.1856   0.2927   0.3369   0.4461
     0.5869   0.7736   0.8337   0.8796   1.0165   1.0616   1.1792   1.2232
     1.2560   1.3551   1.3826   1.4361   1.4462   1.4852   1.5694   1.6285
     1.6808   1.7033   1.7180   1.7787   1.8928   1.9221   1.9745   2.0220
     2.0276   2.0592   2.1757   2.1833   2.4137   2.4279   2.4445   2.4790
     2.5786   2.6655   3.5030   3.5561   3.6762   3.8774   4.3401   5.5277
     6.3300   6.8088   6.8117   6.8254   7.1298   7.6707   7.7003   8.3237
     8.7127   8.8106   9.1794   9.4520   9.4994   9.5282   9.7081   9.8208
     9.8539

          k = 0.3750 0.0000 0.0000 ( 34726 PWs)   bands (ev):

   -37.7536 -35.5981 -22.7019 -22.6598 -22.4498 -22.1826 -18.9570 -18.8529
   -18.7441 -17.0400 -16.8950 -16.6363 -15.3075 -15.0641 -15.0085 -14.8866
   -14.7349 -14.6709 -14.6184 -14.5436 -14.2347 -14.1675 -14.0925 -14.0178
   -13.9333 -13.9150 -13.7429  -8.1092  -7.9507  -7.7564  -7.6902  -7.5567
    -7.5130  -7.4446  -7.4054  -7.3840  -7.2462  -7.1896  -7.0151  -3.1261
    -2.9119  -2.7277  -2.6914  -2.3505  -2.1863  -2.0210  -1.7886  -1.6830
    -1.6011  -1.5690  -1.5210  -1.3067  -1.2494  -1.2351  -1.2246  -1.1887
    -1.1764  -1.1702  -1.0391  -1.0360  -1.0077  -0.9144  -0.8988  -0.7506
    -0.7495  -0.6753  -0.6451  -0.5204  -0.4523  -0.3890  -0.3113  -0.2652
    -0.2414  -0.2374  -0.2115   0.0097   0.0308   0.0368   0.0477   0.0518
     0.1154   0.1515   0.1885   0.2780   0.3842   0.4081   0.4466   0.4609
     0.5036   0.6850   0.7795   0.8242   0.9240   1.0553   1.0854   1.1497
     1.1650   1.1755   1.2110   1.3077   1.3309   1.4844   1.5096   1.5764
     1.6630   1.7084   1.7565   1.7914   1.8891   1.8981   1.9983   2.1076
     2.1104   2.1671   2.2714   2.4327   2.5785   2.7845   2.8833   5.2406
     6.4854   6.5785   6.6506   6.8460   7.2622   7.4760   7.7517   7.9804
     8.1957   8.3745   8.4632   8.6483   8.7333   8.7419   9.0891   9.2967
     9.3240

          k = 0.3750 0.1320 0.0000 ( 34759 PWs)   bands (ev):

   -37.7519 -35.5963 -22.6802 -22.6394 -22.4288 -22.1598 -18.9531 -18.8650
   -18.7618 -17.0314 -16.8658 -16.7008 -15.2561 -15.0161 -14.9394 -14.8312
   -14.7209 -14.6301 -14.5583 -14.4949 -14.2067 -14.1444 -14.0771 -14.0020
   -13.9651 -13.9262 -13.7518  -8.1120  -8.0083  -7.8535  -7.7825  -7.7755
    -7.6027  -7.5880  -7.5132  -7.4868  -7.3397  -7.3202  -7.0920  -3.1943
    -2.9735  -2.7719  -2.7247  -2.3493  -2.2356  -2.1459  -2.0622  -2.0196
    -1.8845  -1.7243  -1.6360  -1.6301  -1.6069  -1.5614  -1.4981  -1.4697
    -1.4339  -1.3319  -1.2142  -1.1258  -1.0935  -1.0161  -0.9402  -0.8187
    -0.7659  -0.7020  -0.6585  -0.6316  -0.5503  -0.4355  -0.3872  -0.3432
    -0.2878  -0.2375  -0.0773   0.0168   0.0616   0.1209   0.1422   0.1582
     0.1915   0.2410   0.3555   0.4195   0.4507   0.5117   0.6438   0.7427
     0.7937   0.8054   0.9442   1.0423   1.0992   1.1310   1.1557   1.1822
     1.1984   1.2118   1.2627   1.3403   1.4505   1.5189   1.5385   1.6050
     1.6925   1.7427   1.7599   1.7751   1.8642   1.9727   2.0815   2.2190
     2.6208   2.7166   2.7278   2.9006   2.9564   3.1228   3.1496   5.2622
     6.6339   6.6620   6.7159   6.7661   7.3109   7.3706   7.7990   8.0459
     8.2250   8.4202   8.4792   8.6519   8.8697   8.9152   9.2571   9.3446
     9.4585

          k = 0.3750 0.2640 0.0000 ( 34779 PWs)   bands (ev):

   -37.7478 -35.5920 -22.6269 -22.5893 -22.3773 -22.1038 -18.9521 -18.9179
   -18.7698 -17.0111 -16.8451 -16.7907 -15.1233 -14.8940 -14.7511 -14.6960
   -14.6838 -14.5344 -14.4096 -14.3720 -14.1663 -14.1334 -14.0559 -14.0088
   -13.9513 -13.9445 -13.7926  -8.3097  -8.2231  -8.0885  -7.9920  -7.9881
    -7.8659  -7.8073  -7.8011  -7.7180  -7.6119  -7.4823  -7.3155  -3.5605
    -3.2885  -3.0118  -2.9388  -2.7014  -2.6411  -2.5209  -2.4009  -2.3913
    -2.3728  -2.3406  -2.2701  -2.1722  -2.1129  -1.9720  -1.7977  -1.6484
    -1.5680  -1.4605  -1.3628  -1.2686  -1.1025  -1.0307  -1.0180  -0.9261
    -0.9000  -0.8547  -0.8261  -0.7698  -0.7391  -0.6686  -0.6413  -0.6272
    -0.5052  -0.3929  -0.3237   0.0350   0.2242   0.3270   0.4252   0.4735
     0.6730   0.6842   0.7456   0.7600   0.8111   0.9806   0.9878   1.0336
     1.1293   1.1471   1.1816   1.2090   1.2495   1.3902   1.3999   1.4440
     1.5041   1.5593   1.5976   1.6200   1.6716   1.7078   1.7291   1.7602
     1.8087   1.8110   1.8151   1.8995   1.9976   2.1066   2.1841   2.2461
     2.9691   3.0492   3.5624   3.6802   3.7175   3.8408   3.8925   5.3189
     6.2900   6.6796   6.7228   6.8855   7.1235   7.5385   7.6241   8.3858
     8.4431   8.5530   8.6063   8.8145   9.2901   9.3969   9.4646   9.5213
     9.6062

          k = 0.3750 0.3960 0.0000 ( 34747 PWs)   bands (ev):

   -37.7437 -35.5877 -22.5722 -22.5381 -22.3245 -22.0464 -19.0131 -18.9252
   -18.7580 -16.9937 -16.9719 -16.7109 -14.9676 -14.7591 -14.7019 -14.5022
   -14.4907 -14.4390 -14.2544 -14.2529 -14.2459 -14.0997 -14.0695 -14.0072
   -13.9657 -13.9092 -13.8513  -8.5755  -8.5148  -8.3130  -8.2405  -8.1057
    -8.0639  -8.0447  -7.9907  -7.9006  -7.7583  -7.7360  -7.4632  -4.1251
    -3.7679  -3.5069  -3.4671  -3.3550  -2.9642  -2.9378  -2.8376  -2.6510
    -2.5704  -2.4885  -2.4250  -2.2987  -2.1786  -2.1085  -1.9666  -1.8630
    -1.7249  -1.6789  -1.4659  -1.2686  -1.2278  -1.1891  -1.1656  -1.1282
    -1.0985  -0.9792  -0.8882  -0.8766  -0.8716  -0.8130  -0.7118  -0.6955
    -0.6275  -0.4152  -0.3186   0.1629   0.2800   0.3732   0.5523   0.6710
     0.9266   0.9508   1.0110   1.0409   1.1405   1.2185   1.3108   1.3369
     1.3837   1.4401   1.4648   1.5164   1.5655   1.5889   1.6311   1.7187
     1.7284   1.7550   1.8080   1.8209   1.9088   1.9436   1.9537   1.9788
     1.9965   2.0661   2.1149   2.1537   2.1601   2.2125   2.4213   2.4939
     2.7906   2.9021   4.0910   4.2099   4.2426   4.3179   4.4981   5.4163
     5.8577   6.3768   6.5334   6.7857   6.9866   7.3572   7.7312   8.4657
     8.6470   8.9584   9.1774   9.2173   9.3317   9.4639   9.5073   9.5602
     9.6297

          k = 0.3750-0.5279 0.0000 ( 34780 PWs)   bands (ev):

   -37.7420 -35.5859 -22.5492 -22.5165 -22.3022 -22.0221 -19.0457 -18.9218
   -18.7514 -17.0271 -16.9812 -16.6755 -14.8839 -14.7217 -14.6977 -14.4164
   -14.3881 -14.3025 -14.2906 -14.2552 -14.1638 -14.0924 -14.0783 -14.0481
   -13.9858 -13.9472 -13.8299  -8.6575  -8.6228  -8.4004  -8.3857  -8.2490
    -8.1148  -8.0828  -8.0170  -8.0042  -7.8741  -7.7723  -7.5089  -4.3646
    -3.9744  -3.7646  -3.6967  -3.5957  -3.1895  -3.1641  -2.8553  -2.6696
    -2.5858  -2.5299  -2.5001  -2.2930  -2.2153  -2.1786  -1.9579  -1.9444
    -1.8182  -1.7127  -1.5321  -1.3520  -1.2860  -1.2720  -1.2397  -1.1499
    -1.1474  -0.9779  -0.9735  -0.9365  -0.9101  -0.9007  -0.7357  -0.7114
    -0.5944  -0.4010  -0.2998   0.1910   0.2999   0.3834   0.5960   0.7469
     1.0029   1.0210   1.0840   1.1310   1.2458   1.2858   1.3352   1.5160
     1.5227   1.5312   1.5678   1.6111   1.7122   1.7429   1.7432   1.7729
     1.7794   1.8085   1.9159   2.0112   2.0171   2.0381   2.0411   2.1213
     2.1465   2.2011   2.2178   2.2697   2.3503   2.3818   2.4916   2.5482
     2.6589   2.6823   4.1792   4.3717   4.4149   4.4641   4.6759   5.4866
     5.6625   6.1991   6.3918   6.8087   6.8936   7.2654   7.7951   8.4900
     8.6268   9.0751   9.1846   9.2367   9.3526   9.5605   9.6441   9.7596
     9.7765

          k =-0.5000 0.0000 0.0000 ( 34714 PWs)   bands (ev):

   -37.7528 -35.5970 -22.6827 -22.6419 -22.4316 -22.1625 -18.9721 -18.8528
   -18.7430 -17.0925 -16.8528 -16.6349 -15.2565 -15.1207 -15.0165 -14.9122
   -14.7964 -14.6873 -14.4850 -14.4079 -14.3396 -14.2169 -14.0890 -14.0575
   -13.9860 -13.9469 -13.7591  -8.1174  -7.9404  -7.7410  -7.6670  -7.5343
    -7.4768  -7.4122  -7.3930  -7.3721  -7.2125  -7.1683  -6.9775  -3.2611
    -3.0539  -2.8715  -2.8653  -2.3754  -2.1792  -2.0311  -1.6724  -1.6353
    -1.6153  -1.6152  -1.4455  -1.3952  -1.3557  -1.2943  -1.2686  -1.2390
    -1.2366  -1.2254  -1.1946  -1.0853  -1.0124  -0.9215  -0.9101  -0.8849
    -0.8330  -0.7245  -0.6409  -0.5856  -0.5135  -0.4319  -0.3554  -0.2970
    -0.2400  -0.2362  -0.2155   0.0117   0.0224   0.0278   0.0423   0.0468
     0.1215   0.1502   0.1643   0.2887   0.3839   0.3874   0.4089   0.4400
     0.5021   0.6877   0.7335   0.8136   0.9161   1.1148   1.1245   1.1711
     1.2095   1.2425   1.2540   1.3476   1.3784   1.4422   1.5284   1.5727
     1.6346   1.6915   1.7085   1.8517   1.9108   1.9383   2.1192   2.1255
     2.1370   2.1940   2.2729   2.4462   2.5918   2.8203   2.9382   5.4681
     6.5156   6.8885   7.2578   7.3101   7.3726   7.3741   7.4223   7.4470
     8.2517   8.5274   8.7550   8.7720   8.7812   8.9868   9.0593   9.4375
     9.5344

          k =-0.5000 0.1320 0.0000 ( 34798 PWs)   bands (ev):

   -37.7511 -35.5953 -22.6619 -22.6222 -22.4114 -22.1407 -18.9677 -18.8663
   -18.7597 -17.0832 -16.8253 -16.6986 -15.2031 -15.0637 -14.9480 -14.8497
   -14.7772 -14.6470 -14.4399 -14.3670 -14.2817 -14.1949 -14.0741 -14.0253
   -13.9865 -13.9843 -13.7612  -8.1202  -7.9794  -7.7964  -7.7618  -7.6798
    -7.6560  -7.6371  -7.5118  -7.4460  -7.4257  -7.2954  -7.1478  -3.3355
    -3.1220  -2.9236  -2.9019  -2.3804  -2.2224  -2.0902  -2.0417  -2.0285
    -1.8281  -1.7846  -1.7089  -1.6307  -1.6235  -1.5331  -1.5152  -1.4962
    -1.4836  -1.4467  -1.3219  -1.1743  -1.1146  -1.1107  -0.9593  -0.8887
    -0.7580  -0.7130  -0.6979  -0.6763  -0.5719  -0.4718  -0.4129  -0.3518
    -0.3116  -0.2661  -0.0917   0.0290   0.0693   0.1269   0.1470   0.1607
     0.1815   0.3148   0.3608   0.3838   0.4952   0.5534   0.5777   0.7336
     0.7470   0.7517   0.9628   1.0557   1.1257   1.1400   1.1860   1.2326
     1.2396   1.2593   1.2642   1.3995   1.4048   1.5631   1.5679   1.6175
     1.6956   1.7246   1.7542   1.8589   1.9026   2.1026   2.1651   2.1962
     2.6584   2.7076   2.7341   2.9144   2.9770   3.1757   3.2178   5.4655
     6.5037   6.7251   7.1055   7.2948   7.2964   7.4395   7.6129   7.6952
     8.1576   8.4593   8.6524   8.8375   8.9098   9.2690   9.3246   9.5171
     9.6367

          k =-0.5000 0.2640 0.0000 ( 34772 PWs)   bands (ev):

   -37.7470 -35.5909 -22.6110 -22.5741 -22.3619 -22.0872 -18.9572 -18.9301
   -18.7660 -17.0612 -16.8418 -16.7542 -15.0713 -14.9127 -14.7558 -14.7349
   -14.6814 -14.5506 -14.3304 -14.2640 -14.1849 -14.1444 -14.0508 -14.0473
   -13.9908 -13.9481 -13.7868  -8.2485  -8.2003  -8.0976  -8.0571  -7.9630
    -7.9485  -7.9293  -7.7810  -7.7517  -7.7153  -7.5908  -7.3675  -3.6932
    -3.4269  -3.1569  -3.0916  -2.7238  -2.6323  -2.5463  -2.4185  -2.4137
    -2.3888  -2.3394  -2.2780  -2.2311  -2.1730  -1.9892  -1.9208  -1.6929
    -1.6477  -1.5556  -1.3253  -1.1864  -1.1483  -0.9896  -0.9880  -0.9300
    -0.8845  -0.8759  -0.8508  -0.8074  -0.8032  -0.6935  -0.6536  -0.6493
    -0.5091  -0.4140  -0.3248   0.0512   0.2685   0.3546   0.4834   0.5334
     0.7162   0.7651   0.8087   0.8335   0.8431   0.9991   1.0152   1.0715
     1.1564   1.1705   1.2224   1.2463   1.3171   1.3655   1.4076   1.4630
     1.5214   1.5684   1.5738   1.6798   1.6946   1.7424   1.7680   1.8227
     1.8397   1.8920   1.9353   1.9381   1.9583   2.0925   2.1819   2.2923
     2.9625   3.0412   3.6877   3.6986   3.8458   3.9714   4.0437   5.4489
     6.1246   6.6306   6.6761   6.9122   7.0728   7.5559   7.6194   8.4235
     8.5141   8.5740   8.9254   8.9896   9.1567   9.4415   9.5676   9.5704
     9.7831

          k =-0.5000 0.3960 0.0000 ( 34764 PWs)   bands (ev):

   -37.7429 -35.5866 -22.5588 -22.5248 -22.3113 -22.0323 -19.0092 -18.9467
   -18.7537 -17.0396 -16.9710 -16.6786 -14.9344 -14.7299 -14.6983 -14.5025
   -14.4642 -14.4524 -14.2392 -14.2349 -14.1563 -14.0964 -14.0416 -14.0001
   -13.9911 -13.9213 -13.8297  -8.6237  -8.5773  -8.3856  -8.3617  -8.2405
    -8.0958  -8.0917  -8.0264  -8.0070  -7.8722  -7.7684  -7.4887  -4.2486
    -3.8982  -3.6002  -3.5804  -3.3551  -2.9557  -2.9308  -2.9112  -2.7208
    -2.6867  -2.5585  -2.5122  -2.3151  -2.2056  -2.1859  -1.9750  -1.9007
    -1.7953  -1.7417  -1.3785  -1.2726  -1.2530  -1.1911  -1.1641  -1.1256
    -1.0647  -1.0223  -0.9150  -0.9064  -0.8587  -0.7995  -0.7891  -0.7565
    -0.6087  -0.3772  -0.2871   0.1883   0.3285   0.4054   0.6614   0.7811
     1.0233   1.0474   1.1067   1.2144   1.2614   1.2773   1.3560   1.3802
     1.4343   1.5168   1.5425   1.5500   1.5717   1.6184   1.7059   1.7112
     1.7241   1.8321   1.8404   1.8533   1.9760   1.9803   2.0414   2.0539
     2.0606   2.1292   2.1535   2.1927   2.1936   2.2624   2.3674   2.5976
     2.7794   2.8923   4.0860   4.4593   4.4915   4.5614   4.7648   5.4483
     5.6213   6.1807   6.3524   6.7543   6.9303   7.2070   7.7888   8.5885
     8.9012   8.9726   8.9950   9.1394   9.4182   9.4680   9.5991   9.6035
     9.7265

          k =-0.5000-0.5279 0.0000 ( 34796 PWs)   bands (ev):

   -37.7412 -35.5848 -22.5368 -22.5041 -22.2900 -22.0091 -19.0427 -18.9424
   -18.7469 -17.0308 -17.0216 -16.6451 -14.8759 -14.6848 -14.6322 -14.4567
   -14.3044 -14.2901 -14.2844 -14.2562 -14.1129 -14.0726 -14.0439 -14.0260
   -14.0056 -13.9508 -13.8097  -8.7697  -8.7361  -8.5120  -8.5017  -8.3615
    -8.2223  -8.1213  -8.1031  -8.0345  -7.9851  -7.7842  -7.5356  -4.4889
    -4.1064  -3.8521  -3.7858  -3.6188  -3.1800  -3.1558  -2.9454  -2.7532
    -2.7210  -2.6037  -2.5853  -2.3052  -2.2959  -2.1855  -1.9691  -1.9596
    -1.8706  -1.7753  -1.4563  -1.3667  -1.3081  -1.2756  -1.2192  -1.1889
    -1.0853  -1.0411  -1.0011  -0.9672  -0.9013  -0.8858  -0.8185  -0.7831
    -0.5683  -0.3484  -0.2601   0.2208   0.3457   0.4168   0.7208   0.8874
     1.0850   1.1599   1.1830   1.3234   1.3252   1.3467   1.3873   1.4641
     1.6153   1.6195   1.6700   1.6895   1.6961   1.7929   1.8336   1.8531
     1.8697   1.9069   1.9918   2.0019   2.0451   2.1095   2.1268   2.1842
     2.1844   2.2561   2.3216   2.3525   2.3641   2.4119   2.5256   2.5471
     2.6637   2.7556   4.1508   4.6913   4.7233   4.7628   4.9919   5.3957
     5.4812   5.9536   6.1521   6.7605   6.8932   7.1017   7.8381   8.6362
     8.8838   8.9702   9.0070   9.0733   9.0783   9.4085   9.5493   9.6194
     9.7168

     the Fermi energy is     2.5488 ev

!    total energy              =   -1842.76639259 Ry
     Harris-Foulkes estimate   =   -1842.76639259 Ry
     estimated scf accuracy    <          4.3E-11 Ry

     The total energy is the sum of the following terms:

     one-electron contribution =  -29788.34317091 Ry
     hartree contribution      =   15046.53882816 Ry
     xc contribution           =    -621.64958972 Ry
     ewald contribution        =   13520.69602745 Ry
     smearing contrib. (-TS)   =      -0.00848756 Ry

     convergence has been achieved in  39 iterations

     negative rho (up, down):  1.492E-03 0.000E+00

     Forces acting on atoms (cartesian axes, Ry/au):

     atom    1 type  4   force =     0.00000000    0.00000000   -0.00017325
     atom    2 type  3   force =     0.00000000    0.00000000    0.00040405
     atom    3 type  4   force =     0.00000000    0.00000000   -0.00077039
     atom    4 type  1   force =     0.00000000    0.00000000   -0.00028295
     atom    5 type  3   force =     0.00000000    0.00000000    0.00055264
     atom    6 type  4   force =     0.00000000    0.00000000   -0.00002837
     atom    7 type  4   force =     0.00000000    0.00000000    0.00030281
     atom    8 type  2   force =     0.00000000    0.00000000   -0.00055799
     atom    9 type  4   force =     0.00000000    0.00000000    0.00031150
     atom   10 type  4   force =     0.00000000    0.00000000    0.00036110
     atom   11 type  3   force =     0.00000000    0.00000000    0.00008543
     atom   12 type  1   force =     0.00000000    0.00000000   -0.00002550
     atom   13 type  4   force =     0.00000000    0.00000000    0.00259260
     atom   14 type  4   force =     0.00000000    0.00000000    0.00259713
     atom   15 type  3   force =     0.00000000    0.00000000   -0.00280427
     atom   16 type  4   force =     0.00000000    0.00000000   -0.00000441
     atom   17 type  1   force =     0.00000000    0.00000000   -0.01394744
     atom   18 type  3   force =     0.00000000    0.00000000   -0.01007085
     atom   19 type  4   force =     0.00000000    0.00000000    0.03453992
     atom   20 type  4   force =     0.00000000    0.00000000    0.05070828
     atom   21 type  2   force =     0.00000000    0.00000000   -0.01471525
     atom   22 type  4   force =     0.00000000    0.00000000   -0.02658882
     atom   23 type  4   force =     0.00000000    0.00000000   -0.01882486
     atom   24 type  3   force =     0.00000000    0.00000000    0.00564669
     atom   25 type  1   force =     0.00000000    0.00000000   -0.01407929
     atom   26 type  4   force =     0.00000000    0.00000000    0.01031818
     atom   27 type  3   force =     0.00000000    0.00000000   -0.00785312
     atom   28 type  4   force =     0.00000000    0.00000000    0.00230642

     Total force =     0.074028     Total SCF correction =     0.000016


     Computing stress (Cartesian axis) and pressure


     negative rho (up, down):  1.492E-03 0.000E+00
          total   stress  (Ry/bohr**3)                   (kbar)     P=       -3.71
  -0.00000984   0.00000000   0.00000000           -1.45        0.00        0.00
   0.00000000   0.00004162   0.00000000            0.00        6.12        0.00
   0.00000000   0.00000000  -0.00010745            0.00        0.00      -15.81


     number of scf cycles    =   3
     number of bfgs steps    =   1

     energy   old            =   -1842.8561279684 Ry
     energy   new            =   -1842.7663925886 Ry

     CASE: energy  _new > energy  _old

     new trust radius        =       0.4090734579 bohr
     new conv_thr            =            1.0E-10 Ry


ATOMIC_POSITIONS (angstrom)
O             0.0000000000        1.8611200000       -0.1877643172    0   0   0
Cu            0.0000000000        0.0000000000        0.1057509138    0   0   0
O             0.0000000000        0.0000000000        2.0109352934    0   0   0
Ba            1.9651100000        1.8611200000        2.2744989528    0   0   0
Cu            0.0000000000        0.0000000000        4.1467518592    0   0   0
O             1.9651100000        0.0000000000        4.3041781329    0   0   0
O             0.0000000000        1.8611200000        4.4436334638    0   0   0
Ca            1.9651100000        1.8611200000        5.9862461876    0   0   0
O             0.0000000000        1.8611200000        7.4617043351    0   0   0
O             1.9651100000        0.0000000000        7.6122351367    0   0   0
Cu            0.0000000000        0.0000000000        7.7994705977    0   0   0
Ba            1.9651100000        1.8611200000        9.7113978947    0   0   0
O             0.0000000000        0.0000000000       10.0390040146    0   0   0
O             0.0000000000        1.8611200000       11.9589048370    0   0   0
Cu            0.0000000000        0.0000000000       11.9591285839    0   0   0
O             0.0000000000        0.0000000000       13.8792023016    0   0   0
Ba            1.9651100000        1.8611200000       14.2067779106    0   0   0
Cu            0.0000000000        0.0000000000       16.0702402789
O             1.9651100000        0.0000000000       16.2605883112
O             0.0000000000        1.8611200000       16.5072670787
Ca            1.9651100000        1.8611200000       17.9827246592
O             0.0000000000        1.8611200000       19.7895442170
O             1.9651100000        0.0000000000       20.1412734690
Cu            0.0000000000        0.0000000000       20.3983421188
Ba            1.9651100000        1.8611200000       22.2287777946
O             0.0000000000        0.0000000000       22.3372811692
Cu            0.0000000000        0.0000000000       24.3201252191    0   0   0
O             0.0000000000        1.8611200000       24.6135895985    0   0   0


     NEW-OLD atomic charge density approx. for the potential

     negative rho (up, down):  2.169E-02 0.000E+00

     total cpu time spent up to now is      634.6 secs

     Self-consistent Calculation

     iteration #  1     ecut=    60.00 Ry     beta= 0.70
     Davidson diagonalization with overlap
     c_bands:  2 eigenvalues not converged
     c_bands:  1 eigenvalues not converged
     c_bands:  1 eigenvalues not converged
     c_bands:  2 eigenvalues not converged
     c_bands:  1 eigenvalues not converged
     c_bands:  1 eigenvalues not converged
     c_bands:  1 eigenvalues not converged
     c_bands:  2 eigenvalues not converged
     c_bands:  2 eigenvalues not converged
     c_bands:  1 eigenvalues not converged
     c_bands:  2 eigenvalues not converged
     c_bands:  4 eigenvalues not converged
     c_bands:  1 eigenvalues not converged
     c_bands:  1 eigenvalues not converged
     c_bands:  2 eigenvalues not converged
     c_bands:  2 eigenvalues not converged
     c_bands:  2 eigenvalues not converged
     c_bands:  1 eigenvalues not converged
     ethr =  1.00E-06,  avg # of iterations = 19.4

     negative rho (up, down):  6.234E-03 0.000E+00

     total cpu time spent up to now is      700.3 secs

     total energy              =   -1842.68021953 Ry
     Harris-Foulkes estimate   =   -1843.03691778 Ry
     estimated scf accuracy    <       4.71207657 Ry

     iteration #  2     ecut=    60.00 Ry     beta= 0.70
     Davidson diagonalization with overlap
     ethr =  2.08E-03,  avg # of iterations =  1.0

     negative rho (up, down):  6.131E-03 0.000E+00

     total cpu time spent up to now is      713.8 secs

     total energy              =   -1842.42596379 Ry
     Harris-Foulkes estimate   =   -1843.09312723 Ry
     estimated scf accuracy    <      10.10628754 Ry

     iteration #  3     ecut=    60.00 Ry     beta= 0.70
     Davidson diagonalization with overlap
     ethr =  2.08E-03,  avg # of iterations =  2.0

     negative rho (up, down):  4.648E-03 0.000E+00

     total cpu time spent up to now is      729.1 secs

     total energy              =   -1842.91900761 Ry
     Harris-Foulkes estimate   =   -1842.96075108 Ry
     estimated scf accuracy    <       6.08204059 Ry

     iteration #  4     ecut=    60.00 Ry     beta= 0.70
     Davidson diagonalization with overlap
     ethr =  2.08E-03,  avg # of iterations =  1.0

     negative rho (up, down):  2.248E-03 0.000E+00

     total cpu time spent up to now is      742.7 secs

     total energy              =   -1842.85882425 Ry
     Harris-Foulkes estimate   =   -1842.96691424 Ry
     estimated scf accuracy    <       4.46998388 Ry

     iteration #  5     ecut=    60.00 Ry     beta= 0.70
     Davidson diagonalization with overlap
     ethr =  1.97E-03,  avg # of iterations =  1.0

     negative rho (up, down):  1.757E-03 0.000E+00

     total cpu time spent up to now is      756.2 secs

     total energy              =   -1842.84897711 Ry
     Harris-Foulkes estimate   =   -1842.88920006 Ry
     estimated scf accuracy    <       1.51565881 Ry

     iteration #  6     ecut=    60.00 Ry     beta= 0.70
     Davidson diagonalization with overlap
     ethr =  6.68E-04,  avg # of iterations =  1.5

     negative rho (up, down):  1.289E-03 0.000E+00

     total cpu time spent up to now is      770.2 secs

     total energy              =   -1842.84158447 Ry
     Harris-Foulkes estimate   =   -1842.86381041 Ry
     estimated scf accuracy    <       1.03343296 Ry

     iteration #  7     ecut=    60.00 Ry     beta= 0.70
     Davidson diagonalization with overlap
     ethr =  4.55E-04,  avg # of iterations =  1.4

     negative rho (up, down):  1.113E-03 0.000E+00

     total cpu time spent up to now is      784.2 secs

     total energy              =   -1842.84494497 Ry
     Harris-Foulkes estimate   =   -1842.85107432 Ry
     estimated scf accuracy    <       0.50149437 Ry

     iteration #  8     ecut=    60.00 Ry     beta= 0.70
     Davidson diagonalization with overlap
     ethr =  2.21E-04,  avg # of iterations =  2.8

     negative rho (up, down):  9.983E-04 0.000E+00

     total cpu time spent up to now is      799.5 secs

     total energy              =   -1842.84654339 Ry
     Harris-Foulkes estimate   =   -1842.84780050 Ry
     estimated scf accuracy    <       0.27139561 Ry

     iteration #  9     ecut=    60.00 Ry     beta= 0.70
     Davidson diagonalization with overlap
     ethr =  1.20E-04,  avg # of iterations =  6.6

     negative rho (up, down):  8.318E-04 0.000E+00

     total cpu time spent up to now is      819.0 secs

     total energy              =   -1842.84494171 Ry
     Harris-Foulkes estimate   =   -1842.84698263 Ry
     estimated scf accuracy    <       0.13399372 Ry

     iteration # 10     ecut=    60.00 Ry     beta= 0.70
     Davidson diagonalization with overlap
     ethr =  5.90E-05,  avg # of iterations =  6.1

     negative rho (up, down):  8.060E-04 0.000E+00

     total cpu time spent up to now is      837.9 secs

     total energy              =   -1842.84539831 Ry
     Harris-Foulkes estimate   =   -1842.84578859 Ry
     estimated scf accuracy    <       0.04072341 Ry

     iteration # 11     ecut=    60.00 Ry     beta= 0.70
     Davidson diagonalization with overlap
     c_bands:  1 eigenvalues not converged
     c_bands:  1 eigenvalues not converged
     ethr =  1.79E-05,  avg # of iterations =  7.6

     negative rho (up, down):  8.329E-04 0.000E+00

     total cpu time spent up to now is      858.6 secs

     total energy              =   -1842.84536971 Ry
     Harris-Foulkes estimate   =   -1842.84556154 Ry
     estimated scf accuracy    <       0.01481498 Ry

     iteration # 12     ecut=    60.00 Ry     beta= 0.70
     Davidson diagonalization with overlap
     ethr =  6.53E-06,  avg # of iterations =  5.7

     negative rho (up, down):  8.913E-04 0.000E+00

     total cpu time spent up to now is      877.0 secs

     total energy              =   -1842.84536067 Ry
     Harris-Foulkes estimate   =   -1842.84544786 Ry
     estimated scf accuracy    <       0.00636446 Ry

     iteration # 13     ecut=    60.00 Ry     beta= 0.70
     Davidson diagonalization with overlap
     c_bands:  1 eigenvalues not converged
     ethr =  2.80E-06,  avg # of iterations =  5.4

     negative rho (up, down):  9.536E-04 0.000E+00

     total cpu time spent up to now is      895.0 secs

     total energy              =   -1842.84535148 Ry
     Harris-Foulkes estimate   =   -1842.84539789 Ry
     estimated scf accuracy    <       0.00303752 Ry

     iteration # 14     ecut=    60.00 Ry     beta= 0.70
     Davidson diagonalization with overlap
     ethr =  1.34E-06,  avg # of iterations =  1.4

     negative rho (up, down):  1.024E-03 0.000E+00

     total cpu time spent up to now is      908.9 secs

     total energy              =   -1842.84536267 Ry
     Harris-Foulkes estimate   =   -1842.84537538 Ry
     estimated scf accuracy    <       0.00142067 Ry

     iteration # 15     ecut=    60.00 Ry     beta= 0.70
     Davidson diagonalization with overlap
     ethr =  6.26E-07,  avg # of iterations =  1.0

     negative rho (up, down):  1.123E-03 0.000E+00

     total cpu time spent up to now is      922.5 secs

     total energy              =   -1842.84535758 Ry
     Harris-Foulkes estimate   =   -1842.84536835 Ry
     estimated scf accuracy    <       0.00076611 Ry

     iteration # 16     ecut=    60.00 Ry     beta= 0.70
     Davidson diagonalization with overlap
     ethr =  3.37E-07,  avg # of iterations =  1.0

     negative rho (up, down):  1.233E-03 0.000E+00

     total cpu time spent up to now is      936.1 secs

     total energy              =   -1842.84535854 Ry
     Harris-Foulkes estimate   =   -1842.84536391 Ry
     estimated scf accuracy    <       0.00009978 Ry

     iteration # 17     ecut=    60.00 Ry     beta= 0.70
     Davidson diagonalization with overlap
     ethr =  4.40E-08,  avg # of iterations =  1.2

     negative rho (up, down):  1.248E-03 0.000E+00

     total cpu time spent up to now is      949.8 secs

     total energy              =   -1842.84535776 Ry
     Harris-Foulkes estimate   =   -1842.84536070 Ry
     estimated scf accuracy    <       0.00004438 Ry

     iteration # 18     ecut=    60.00 Ry     beta= 0.70
     Davidson diagonalization with overlap
     ethr =  1.96E-08,  avg # of iterations =  1.3

     negative rho (up, down):  1.309E-03 0.000E+00

     total cpu time spent up to now is      963.6 secs

     total energy              =   -1842.84535842 Ry
     Harris-Foulkes estimate   =   -1842.84535945 Ry
     estimated scf accuracy    <       0.00004886 Ry

     iteration # 19     ecut=    60.00 Ry     beta= 0.70
     Davidson diagonalization with overlap
     ethr =  1.96E-08,  avg # of iterations =  1.0

     negative rho (up, down):  1.318E-03 0.000E+00

     total cpu time spent up to now is      977.0 secs

     total energy              =   -1842.84535847 Ry
     Harris-Foulkes estimate   =   -1842.84535903 Ry
     estimated scf accuracy    <       0.00001189 Ry

     iteration # 20     ecut=    60.00 Ry     beta= 0.70
     Davidson diagonalization with overlap
     ethr =  5.24E-09,  avg # of iterations =  1.0

     negative rho (up, down):  1.336E-03 0.000E+00

     total cpu time spent up to now is      990.6 secs

     total energy              =   -1842.84535862 Ry
     Harris-Foulkes estimate   =   -1842.84535873 Ry
     estimated scf accuracy    <       0.00000121 Ry

     iteration # 21     ecut=    60.00 Ry     beta= 0.70
     Davidson diagonalization with overlap
     ethr =  5.34E-10,  avg # of iterations =  3.0

     negative rho (up, down):  1.351E-03 0.000E+00

     total cpu time spent up to now is     1007.0 secs

     total energy              =   -1842.84535861 Ry
     Harris-Foulkes estimate   =   -1842.84535869 Ry
     estimated scf accuracy    <       0.00000110 Ry

     iteration # 22     ecut=    60.00 Ry     beta= 0.70
     Davidson diagonalization with overlap
     ethr =  4.85E-10,  avg # of iterations =  1.0

     negative rho (up, down):  1.385E-03 0.000E+00

     total cpu time spent up to now is     1020.5 secs

     total energy              =   -1842.84535850 Ry
     Harris-Foulkes estimate   =   -1842.84535864 Ry
     estimated scf accuracy    <       0.00000103 Ry

     iteration # 23     ecut=    60.00 Ry     beta= 0.70
     Davidson diagonalization with overlap
     ethr =  4.54E-10,  avg # of iterations =  1.0

     negative rho (up, down):  1.392E-03 0.000E+00

     total cpu time spent up to now is     1034.3 secs

     total energy              =   -1842.84535849 Ry
     Harris-Foulkes estimate   =   -1842.84535854 Ry
     estimated scf accuracy    <       0.00000249 Ry

     iteration # 24     ecut=    60.00 Ry     beta= 0.70
     Davidson diagonalization with overlap
     ethr =  4.54E-10,  avg # of iterations =  1.0

     negative rho (up, down):  1.423E-03 0.000E+00

     total cpu time spent up to now is     1048.1 secs

     total energy              =   -1842.84535842 Ry
     Harris-Foulkes estimate   =   -1842.84535852 Ry
     estimated scf accuracy    <       0.00000077 Ry

     iteration # 25     ecut=    60.00 Ry     beta= 0.70
     Davidson diagonalization with overlap
     ethr =  3.40E-10,  avg # of iterations =  1.0

     negative rho (up, down):  1.456E-03 0.000E+00

     total cpu time spent up to now is     1062.0 secs

     total energy              =   -1842.84535834 Ry
     Harris-Foulkes estimate   =   -1842.84535843 Ry
     estimated scf accuracy    <       0.00000079 Ry

     iteration # 26     ecut=    60.00 Ry     beta= 0.70
     Davidson diagonalization with overlap
     ethr =  3.40E-10,  avg # of iterations =  1.0

     negative rho (up, down):  1.478E-03 0.000E+00

     total cpu time spent up to now is     1075.8 secs

     total energy              =   -1842.84535831 Ry
     Harris-Foulkes estimate   =   -1842.84535835 Ry
     estimated scf accuracy    <       0.00000039 Ry

     iteration # 27     ecut=    60.00 Ry     beta= 0.70
     Davidson diagonalization with overlap
     ethr =  1.72E-10,  avg # of iterations =  1.0

     negative rho (up, down):  1.514E-03 0.000E+00

     total cpu time spent up to now is     1089.4 secs

     total energy              =   -1842.84535825 Ry
     Harris-Foulkes estimate   =   -1842.84535831 Ry
     estimated scf accuracy    <       0.00000020 Ry

     iteration # 28     ecut=    60.00 Ry     beta= 0.70
     Davidson diagonalization with overlap
     ethr =  8.65E-11,  avg # of iterations =  1.1

     negative rho (up, down):  1.510E-03 0.000E+00

     total cpu time spent up to now is     1103.6 secs

     total energy              =   -1842.84535825 Ry
     Harris-Foulkes estimate   =   -1842.84535825 Ry
     estimated scf accuracy    <       0.00000022 Ry

     iteration # 29     ecut=    60.00 Ry     beta= 0.70
     Davidson diagonalization with overlap
     ethr =  8.65E-11,  avg # of iterations =  1.0

     negative rho (up, down):  1.513E-03 0.000E+00

     total cpu time spent up to now is     1118.4 secs

     total energy              =   -1842.84535825 Ry
     Harris-Foulkes estimate   =   -1842.84535825 Ry
     estimated scf accuracy    <       0.00000002 Ry

     iteration # 30     ecut=    60.00 Ry     beta= 0.70
     Davidson diagonalization with overlap
[...]

   -36.7585 -35.7624 -22.9955 -22.7026 -22.5339 -22.4545 -17.9805 -17.8520
   -17.7182 -17.1239 -16.9996 -16.9156 -15.0924 -14.7899 -14.6312 -14.5116
   -14.4930 -14.4387 -14.3619 -14.3026 -14.2672 -14.2059 -14.1660 -14.0949
   -14.0467 -13.9961 -13.9015  -8.7797  -8.4599  -8.3156  -8.2755  -8.2739
    -8.1970  -8.0821  -7.9864  -7.9379  -7.8749  -7.7734  -7.7082  -3.5283
    -3.4515  -3.2547  -3.2201  -3.1240  -3.0138  -2.8167  -2.4293  -2.4026
    -2.3284  -2.2287  -2.1234  -2.0761  -2.0698  -1.8721  -1.8231  -1.7114
    -1.5933  -1.5289  -1.4613  -1.3761  -1.2898  -1.1892  -1.0147  -0.9837
    -0.9381  -0.9133  -0.8779  -0.8584  -0.8359  -0.6912  -0.6421  -0.6186
    -0.5864  -0.4480  -0.3119   0.0284   0.0727   0.1220   0.3066   0.3681
     0.4323   0.6757   0.7077   0.7405   0.8697   0.8995   0.9556   1.0145
     1.1183   1.1852   1.2077   1.2193   1.2487   1.3053   1.3201   1.4028
     1.4546   1.4830   1.5045   1.6030   1.6534   1.6727   1.7285   1.7543
     1.7913   1.8667   1.9604   1.9812   1.9974   2.1869   2.1911   2.3350
     2.6119   2.7049   3.2118   3.3799   3.4295   3.5743   4.0279   6.4162
     6.5189   6.7810   7.0413   7.5813   8.1960   8.4355   8.6588   8.7093
     8.8508   8.9121   8.9780   9.0479   9.3145   9.4413   9.5236   9.5724
     9.6657

          k = 0.2500-0.5279 0.0000 ( 34740 PWs)   bands (ev):

   -36.7570 -35.7606 -22.9707 -22.6777 -22.5096 -22.4306 -18.0065 -17.8485
   -17.7068 -17.1701 -16.9945 -16.8805 -15.0989 -14.7761 -14.4963 -14.4457
   -14.4381 -14.3820 -14.3185 -14.3035 -14.2043 -14.1852 -14.1714 -14.1663
   -14.1416 -14.0547 -13.9031  -8.7583  -8.4838  -8.4612  -8.2846  -8.2830
    -8.2080  -8.1718  -8.0478  -7.9938  -7.9525  -7.8202  -7.7983  -3.7458
    -3.7053  -3.4472  -3.3706  -3.3018  -3.2403  -2.9278  -2.4383  -2.4191
    -2.3297  -2.1694  -2.0956  -2.0370  -2.0334  -2.0296  -1.9675  -1.8508
    -1.6600  -1.6263  -1.4980  -1.3688  -1.3053  -1.2767  -1.0465  -1.0442
    -1.0183  -1.0077  -0.9562  -0.9329  -0.8536  -0.7679  -0.6920  -0.6568
    -0.5977  -0.4714  -0.3110   0.0675   0.1507   0.2039   0.3378   0.4038
     0.4905   0.6221   0.7429   0.8555   0.9722   0.9771   1.0063   1.0252
     1.0704   1.1276   1.1386   1.2338   1.2940   1.3720   1.4059   1.4133
     1.4450   1.4931   1.6117   1.6598   1.8169   1.8382   1.8591   1.9224
     1.9654   1.9984   2.0245   2.0993   2.1615   2.3634   2.3706   2.3757
     2.3809   2.4770   3.1798   3.3713   3.4483   3.6065   4.1605   6.3317
     6.4435   6.7435   7.0316   7.5424   8.4733   8.6954   8.7446   8.7675
     8.9788   9.1163   9.3527   9.4200   9.4851   9.4866   9.6560   9.6793
     9.7676

          k = 0.3750 0.0000 0.0000 ( 34726 PWs)   bands (ev):

   -36.7648 -35.7700 -23.0901 -22.7982 -22.6281 -22.5469 -17.9430 -17.8088
   -17.7592 -17.1635 -17.0152 -16.8054 -15.2441 -15.0361 -15.0213 -14.7794
   -14.7069 -14.6741 -14.5345 -14.3616 -14.2769 -14.2330 -14.2016 -14.0787
   -14.0149 -13.9951 -13.8080  -8.2786  -8.0477  -8.0469  -8.0017  -7.8868
    -7.8113  -7.7709  -7.5946  -7.5853  -7.4888  -7.4168  -7.3307  -2.9249
    -2.8940  -2.8233  -2.7640  -2.4825  -2.2578  -2.1778  -1.8265  -1.7573
    -1.7257  -1.7238  -1.5907  -1.5783  -1.4020  -1.3335  -1.2671  -1.2058
    -1.1894  -1.1823  -1.1526  -1.0765  -1.0213  -0.9698  -0.9466  -0.9427
    -0.8934  -0.8199  -0.7790  -0.6910  -0.6166  -0.4522  -0.3707  -0.3174
    -0.3072  -0.2505  -0.2250  -0.1512   0.0236   0.1109   0.1196   0.1543
     0.1826   0.3680   0.3749   0.4198   0.4218   0.4547   0.4841   0.5585
     0.6701   0.7701   0.8022   0.8396   0.8960   1.0265   1.0493   1.0940
     1.1355   1.1676   1.2476   1.3538   1.4170   1.4487   1.4931   1.5148
     1.5609   1.6495   1.6821   1.7232   1.8213   1.8555   2.0479   2.0598
     2.1743   2.2712   2.4097   2.4978   2.5474   2.6860   2.6948   6.2452
     6.4172   6.7285   6.8316   7.6308   7.6383   7.9142   8.0264   8.3470
     8.4137   8.5648   8.5691   8.7127   8.9636   9.2274   9.2849   9.3128
     9.3755

          k = 0.3750 0.1320 0.0000 ( 34759 PWs)   bands (ev):

   -36.7634 -35.7683 -23.0691 -22.7770 -22.6072 -22.5263 -17.9391 -17.8410
   -17.7444 -17.1559 -16.9888 -16.8626 -15.2057 -14.9830 -14.9563 -14.7377
   -14.6665 -14.6165 -14.4954 -14.3335 -14.2497 -14.2284 -14.1848 -14.0649
   -14.0251 -14.0203 -13.8142  -8.3413  -8.2261  -8.0932  -8.0250  -7.9642
    -7.9406  -7.8456  -7.7526  -7.6861  -7.6703  -7.5115  -7.4245  -2.9816
    -2.9401  -2.8780  -2.8041  -2.4818  -2.2710  -2.1906  -2.0990  -2.0748
    -1.9635  -1.9421  -1.7294  -1.6770  -1.6156  -1.5962  -1.4973  -1.4596
    -1.3623  -1.3008  -1.2597  -1.2425  -1.1342  -1.1016  -1.0169  -0.9184
    -0.7758  -0.7416  -0.7310  -0.5829  -0.5721  -0.4927  -0.4369  -0.3399
    -0.3188  -0.2059  -0.1166  -0.0376   0.0575   0.0687   0.1152   0.1866
     0.2458   0.3054   0.3929   0.4553   0.4602   0.6110   0.6646   0.7106
     0.7251   0.8502   0.8982   1.0129   1.0658   1.0788   1.1155   1.1629
     1.2039   1.2315   1.2760   1.3163   1.4307   1.4583   1.4941   1.5367
     1.5954   1.6331   1.6817   1.7122   1.7282   1.7961   1.8808   2.2514
     2.6610   2.6883   2.7982   2.8662   2.9570   3.0457   3.0838   6.3898
     6.5707   6.6320   6.9346   7.6722   7.7550   7.8220   7.9801   8.3712
     8.4285   8.7169   8.7953   8.8263   9.0323   9.1117   9.2032   9.3866
     9.4073

          k = 0.3750 0.2640 0.0000 ( 34779 PWs)   bands (ev):

   -36.7599 -35.7641 -23.0175 -22.7248 -22.5558 -22.4757 -17.9309 -17.9080
   -17.7164 -17.1378 -16.9922 -16.9210 -15.1108 -14.8545 -14.7707 -14.6280
   -14.5698 -14.4730 -14.3940 -14.2683 -14.2408 -14.2088 -14.1774 -14.0649
   -14.0448 -14.0057 -13.8456  -8.7066  -8.3886  -8.3051  -8.2370  -8.2110
    -8.1232  -8.0678  -7.9568  -7.9293  -7.8416  -7.7649  -7.6963  -3.2937
    -3.1665  -3.0616  -3.0375  -2.6625  -2.5630  -2.5271  -2.4258  -2.4142
    -2.3964  -2.2869  -2.1981  -2.1695  -2.1602  -1.8429  -1.7540  -1.6736
    -1.5915  -1.5040  -1.3540  -1.2765  -1.1208  -0.9980  -0.9551  -0.9168
    -0.9056  -0.8638  -0.7886  -0.7013  -0.6800  -0.6361  -0.6146  -0.5422
    -0.3860  -0.3467  -0.2807  -0.1469  -0.0122   0.1562   0.2878   0.3952
     0.4335   0.5989   0.7152   0.7541   0.7883   0.8797   0.9312   0.9754
     1.0965   1.1021   1.1289   1.1616   1.2859   1.2940   1.3385   1.3477
     1.4214   1.4901   1.5517   1.5694   1.5988   1.6102   1.6352   1.6568
     1.6732   1.6965   1.7025   1.7387   1.7796   2.0139   2.0250   2.2139
     2.7765   2.8763   3.5111   3.5667   3.6527   3.7099   3.7754   6.2816
     6.3710   6.6193   6.9563   7.4792   7.8432   8.1082   8.3125   8.6897
     8.7526   8.9032   9.0727   9.1281   9.2211   9.2797   9.3406   9.4096
     9.5564

          k = 0.3750 0.3960 0.0000 ( 34747 PWs)   bands (ev):

   -36.7565 -35.7599 -22.9647 -22.6713 -22.5032 -22.4239 -17.9750 -17.9192
   -17.6900 -17.1233 -17.1069 -16.8497 -15.0129 -14.7074 -14.5424 -14.4916
   -14.4620 -14.3163 -14.3013 -14.2787 -14.2658 -14.1975 -14.1506 -14.0835
   -14.0547 -13.9759 -13.8917  -8.9848  -8.6589  -8.6398  -8.4722  -8.3947
    -8.3214  -8.2819  -8.1359  -8.0709  -8.0100  -7.9630  -7.8158  -3.7759
    -3.5541  -3.4826  -3.3774  -3.2676  -2.9936  -2.9463  -2.6794  -2.5318
    -2.4794  -2.4501  -2.2276  -2.2066  -2.1733  -2.1586  -2.0422  -1.9150
    -1.7596  -1.6615  -1.3099  -1.2385  -1.2170  -1.1918  -1.0388  -1.0180
    -0.9782  -0.9328  -0.9107  -0.8991  -0.8639  -0.8092  -0.7736  -0.6781
    -0.5984  -0.3816  -0.2254   0.0783   0.1430   0.2576   0.4837   0.5354
     0.6481   0.8976   0.9329   0.9593   1.0029   1.0907   1.1672   1.1999
     1.2373   1.2874   1.3256   1.3814   1.4069   1.4348   1.5062   1.5305
     1.6127   1.6489   1.6863   1.7318   1.7476   1.8048   1.8714   1.8907
     1.9567   1.9749   2.0367   2.0813   2.1031   2.1089   2.2928   2.3410
     2.5814   2.6956   3.8384   3.9078   4.1201   4.1759   4.2497   5.8536
     6.0024   6.3176   6.7645   7.1977   8.2883   8.4559   8.7617   8.8186
     8.8683   9.0615   9.1823   9.2621   9.3181   9.3723   9.3834   9.4385
     9.5487

          k = 0.3750-0.5279 0.0000 ( 34780 PWs)   bands (ev):

   -36.7550 -35.7582 -22.9425 -22.6488 -22.4810 -22.4021 -18.0009 -17.9155
   -17.6791 -17.1584 -17.1112 -16.8184 -14.9716 -14.6331 -14.4646 -14.4258
   -14.3655 -14.3180 -14.3125 -14.2380 -14.1889 -14.1630 -14.1369 -14.1333
   -14.0988 -14.0244 -13.8747  -9.0605  -8.8137  -8.7429  -8.5603  -8.4857
    -8.4690  -8.2938  -8.2904  -8.1157  -8.0904  -7.9889  -7.8277  -3.9829
    -3.7651  -3.6693  -3.6113  -3.3791  -3.2175  -3.1395  -2.6928  -2.5417
    -2.4859  -2.4618  -2.2717  -2.2306  -2.1989  -2.1729  -2.1418  -2.0022
    -1.8482  -1.6849  -1.3870  -1.3241  -1.2629  -1.1652  -1.0511  -1.0300
    -1.0207  -1.0188  -1.0130  -0.9624  -0.9332  -0.8849  -0.7992  -0.7943
    -0.5728  -0.3629  -0.2152   0.1597   0.2665   0.2952   0.5820   0.6851
     0.6985   0.8057   1.0710   1.0944   1.1204   1.1950   1.2065   1.2239
     1.2406   1.2988   1.3402   1.4141   1.4756   1.5303   1.6029   1.6065
     1.6738   1.6907   1.7629   1.8148   1.9434   1.9676   2.0061   2.0259
     2.1098   2.1333   2.1370   2.2421   2.2906   2.3002   2.3082   2.4154
     2.4316   2.4457   3.9042   3.9822   4.2382   4.3237   4.3950   5.6601
     5.8017   6.1411   6.6967   7.1010   8.2868   8.5917   8.8013   8.8358
     8.9349   8.9483   9.2146   9.2207   9.3290   9.3909   9.6170   9.6874
     9.7183

          k =-0.5000 0.0000 0.0000 ( 34714 PWs)   bands (ev):

   -36.7640 -35.7690 -23.0715 -22.7797 -22.6104 -22.5293 -17.9702 -17.8078
   -17.7451 -17.2116 -16.9773 -16.8041 -15.3037 -15.0852 -15.0555 -14.7322
   -14.6839 -14.4783 -14.4155 -14.3654 -14.3289 -14.3080 -14.2613 -14.1340
   -14.1224 -14.0127 -13.8257  -8.2631  -8.0348  -8.0130  -7.9972  -7.8501
    -7.7892  -7.7487  -7.5761  -7.5595  -7.4779  -7.3841  -7.2981  -3.0724
    -2.9924  -2.9592  -2.9102  -2.5496  -2.2774  -2.1768  -1.8255  -1.7982
    -1.6945  -1.6775  -1.6541  -1.4616  -1.4306  -1.3979  -1.2672  -1.2532
    -1.2339  -1.2263  -1.2216  -1.1795  -1.0945  -1.0582  -1.0511  -0.9760
    -0.9723  -0.8693  -0.8518  -0.7750  -0.6796  -0.5088  -0.3890  -0.3875
    -0.2971  -0.2443  -0.2296  -0.2176   0.0181   0.0858   0.1050   0.1468
     0.1516   0.3598   0.3848   0.3931   0.4108   0.4388   0.5057   0.5480
     0.7116   0.7429   0.7965   0.8356   0.8440   0.9906   1.0420   1.1146
     1.2614   1.3382   1.3534   1.3592   1.3773   1.5475   1.5557   1.5636
     1.6530   1.6583   1.6853   1.8111   1.8190   1.8721   1.9095   2.0744
     2.1768   2.2807   2.3963   2.4978   2.5551   2.6739   2.7258   6.8859
     6.9510   7.1071   7.1865   7.1940   7.2407   8.0175   8.1414   8.4211
     8.5215   8.6476   8.8898   8.9103   9.1354   9.1365   9.3250   9.3487
     9.4155

          k =-0.5000 0.1320 0.0000 ( 34798 PWs)   bands (ev):

   -36.7625 -35.7673 -23.0514 -22.7593 -22.5903 -22.5094 -17.9661 -17.8395
   -17.7310 -17.2034 -16.9524 -16.8606 -15.2533 -15.0251 -14.9847 -14.6903
   -14.6456 -14.4381 -14.3787 -14.3180 -14.3142 -14.2871 -14.2395 -14.1358
   -14.0902 -14.0454 -13.8247  -8.2843  -8.1580  -8.0694  -8.0650  -8.0124
    -7.8779  -7.8111  -7.7673  -7.7001  -7.5963  -7.5942  -7.5127  -3.1348
    -3.0501  -3.0164  -2.9582  -2.5482  -2.2947  -2.1988  -2.0702  -2.0426
    -1.9300  -1.8897  -1.7206  -1.6721  -1.6518  -1.6078  -1.5556  -1.5057
    -1.4625  -1.4142  -1.3522  -1.2842  -1.2159  -1.1190  -1.0485  -0.9361
    -0.8278  -0.8012  -0.7551  -0.6086  -0.5963  -0.5222  -0.4752  -0.3754
    -0.3448  -0.2490  -0.1361  -0.0308   0.0604   0.0625   0.1171   0.2343
     0.2936   0.3143   0.3316   0.4682   0.5369   0.5483   0.5886   0.6875
     0.7241   0.8508   0.9186   0.9878   1.0295   1.0780   1.0973   1.1951
     1.2301   1.3156   1.3578   1.3793   1.4728   1.5355   1.5909   1.6083
     1.6256   1.6276   1.6387   1.6855   1.8246   1.8382   1.9542   2.2276
     2.6653   2.6871   2.8048   2.8858   2.9764   3.0826   3.1167   6.6854
     6.7960   7.0427   7.3627   7.3758   7.5451   7.5911   8.0311   8.3472
     8.7554   8.8675   8.9388   9.1358   9.1576   9.2435   9.3608   9.4610
     9.4694

          k =-0.5000 0.2640 0.0000 ( 34772 PWs)   bands (ev):

   -36.7591 -35.7631 -23.0022 -22.7093 -22.5409 -22.4608 -17.9563 -17.9079
   -17.7036 -17.1837 -16.9893 -16.8883 -15.1236 -14.8699 -14.7857 -14.5890
   -14.5505 -14.3371 -14.3010 -14.2879 -14.2388 -14.2259 -14.1905 -14.1361
   -14.1041 -14.0122 -13.8415  -8.6101  -8.4930  -8.3231  -8.2545  -8.1794
    -8.1579  -8.0591  -8.0201  -7.9976  -7.9318  -7.8662  -7.7736  -3.4330
    -3.3079  -3.1878  -3.1786  -2.6535  -2.5900  -2.5798  -2.4461  -2.4138
    -2.4116  -2.2872  -2.2110  -2.1729  -2.1504  -1.9701  -1.8729  -1.7454
    -1.6342  -1.6126  -1.2828  -1.2184  -1.1178  -0.9730  -0.9612  -0.9521
    -0.9303  -0.8822  -0.8248  -0.7292  -0.6952  -0.6482  -0.6167  -0.5564
    -0.3964  -0.3432  -0.2388  -0.2150   0.0032   0.1726   0.3512   0.4428
     0.4587   0.6381   0.7790   0.7837   0.8454   0.9280   0.9994   1.0297
     1.0926   1.1119   1.1121   1.1186   1.2652   1.3394   1.4067   1.4178
     1.4945   1.4949   1.5655   1.6036   1.6104   1.6262   1.6479   1.7136
     1.7323   1.7343   1.8119   1.8329   1.8507   1.9068   2.1449   2.1586
     2.7679   2.8707   3.5253   3.6705   3.7907   3.8336   3.9060   6.1709
     6.3250   6.6158   6.9554   7.4081   7.8929   8.1011   8.3446   8.8656
     8.8811   8.9938   9.0668   9.1864   9.4095   9.4585   9.4820   9.5835
     9.7137

          k =-0.5000 0.3960 0.0000 ( 34764 PWs)   bands (ev):

   -36.7556 -35.7589 -22.9518 -22.6582 -22.4904 -22.4111 -17.9725 -17.9466
   -17.6779 -17.1644 -17.1071 -16.8208 -14.9794 -14.6794 -14.5303 -14.4963
   -14.4420 -14.2995 -14.2690 -14.2322 -14.1967 -14.1932 -14.1474 -14.1290
   -14.0516 -13.9670 -13.8874  -9.0236  -8.8116  -8.7066  -8.5227  -8.4691
    -8.4446  -8.2935  -8.2831  -8.1151  -8.0831  -8.0083  -7.8160  -3.9051
    -3.6877  -3.6053  -3.3982  -3.3748  -2.9852  -2.9651  -2.7572  -2.6049
    -2.5298  -2.4727  -2.2674  -2.2350  -2.2124  -2.1802  -2.1390  -1.9663
    -1.8427  -1.7028  -1.2716  -1.2524  -1.1393  -1.1357  -1.1085  -1.0647
    -0.9609  -0.9519  -0.9449  -0.9134  -0.8603  -0.8549  -0.8236  -0.6799
    -0.5794  -0.3432  -0.1766   0.0942   0.1643   0.3083   0.5392   0.6293
     0.7237   0.9818   1.0472   1.0711   1.1021   1.2034   1.2229   1.2307
     1.3151   1.3159   1.3477   1.3962   1.4956   1.5005   1.5367   1.6115
     1.6137   1.6809   1.7031   1.7661   1.7806   1.8795   1.9407   1.9729
     2.0150   2.0425   2.0521   2.0822   2.1410   2.2147   2.2897   2.4323
     2.5715   2.6851   3.9083   4.0701   4.3405   4.4338   4.4939   5.6351
     5.7830   6.1252   6.6561   7.0440   8.1967   8.5498   8.7558   8.7682
     8.8351   8.9027   9.2510   9.2633   9.3492   9.3968   9.4778   9.5549
     9.7751

          k =-0.5000-0.5279 0.0000 ( 34796 PWs)   bands (ev):

   -36.7542 -35.7572 -22.9307 -22.6366 -22.4691 -22.3902 -17.9986 -17.9425
   -17.6674 -17.1565 -17.1535 -16.7912 -14.9138 -14.5607 -14.4998 -14.4272
   -14.3107 -14.3077 -14.3034 -14.1907 -14.1804 -14.1543 -14.1287 -14.1242
   -14.0526 -14.0147 -13.8725  -9.1809  -8.9400  -8.8560  -8.6721  -8.5982
    -8.5862  -8.4159  -8.2939  -8.2124  -8.1050  -8.0243  -7.8299  -4.1136
    -3.8688  -3.7995  -3.6405  -3.4944  -3.2081  -3.1732  -2.7860  -2.6297
    -2.5501  -2.4758  -2.3637  -2.2473  -2.2243  -2.2006  -2.1797  -2.0392
    -1.9194  -1.7254  -1.3876  -1.3060  -1.2064  -1.1510  -1.1005  -1.0886
    -1.0442  -1.0071  -0.9840  -0.9712  -0.9655  -0.9255  -0.8820  -0.7962
    -0.5428  -0.3144  -0.1574   0.1860   0.3001   0.3383   0.7041   0.7232
     0.8379   0.9634   1.1437   1.1709   1.2091   1.2664   1.2681   1.2906
     1.2961   1.3526   1.4230   1.4564   1.5451   1.5495   1.5921   1.6959
     1.7701   1.8148   1.8759   1.8855   1.9761   2.0157   2.0340   2.0761
     2.1695   2.1882   2.2717   2.2752   2.2776   2.2855   2.3899   2.4229
     2.4619   2.5683   3.9785   4.1921   4.4997   4.6344   4.6948   5.4019
     5.5329   5.9003   6.5796   6.9356   8.1538   8.5776   8.6501   8.8007
     8.8524   8.8726   8.9360   9.1548   9.3071   9.3843   9.4094   9.7203
     9.8116

     the Fermi energy is     2.4806 ev

!    total energy              =   -1842.84535826 Ry
     Harris-Foulkes estimate   =   -1842.84535825 Ry
     estimated scf accuracy    <          9.1E-11 Ry

     The total energy is the sum of the following terms:

     one-electron contribution =  -30935.35950624 Ry
     hartree contribution      =   15619.69007856 Ry
     xc contribution           =    -621.45124568 Ry
     ewald contribution        =   14094.28481748 Ry
     smearing contrib. (-TS)   =      -0.00950238 Ry

     convergence has been achieved in  35 iterations

     negative rho (up, down):  1.509E-03 0.000E+00

     Forces acting on atoms (cartesian axes, Ry/au):

     atom    1 type  4   force =     0.00000000    0.00000000    0.00140024
     atom    2 type  3   force =     0.00000000    0.00000000    0.01155981
     atom    3 type  4   force =     0.00000000    0.00000000   -0.00808269
     atom    4 type  1   force =     0.00000000    0.00000000    0.00312674
     atom    5 type  3   force =     0.00000000    0.00000000   -0.00152692
     atom    6 type  4   force =     0.00000000    0.00000000    0.00133910
     atom    7 type  4   force =     0.00000000    0.00000000    0.00242965
     atom    8 type  2   force =     0.00000000    0.00000000   -0.00044533
     atom    9 type  4   force =     0.00000000    0.00000000   -0.00162623
     atom   10 type  4   force =     0.00000000    0.00000000   -0.00153159
     atom   11 type  3   force =     0.00000000    0.00000000    0.00038286
     atom   12 type  1   force =     0.00000000    0.00000000   -0.00092236
     atom   13 type  4   force =     0.00000000    0.00000000    0.00989992
     atom   14 type  4   force =     0.00000000    0.00000000    0.00085850
     atom   15 type  3   force =     0.00000000    0.00000000   -0.00231004
     atom   16 type  4   force =     0.00000000    0.00000000   -0.00684844
     atom   17 type  1   force =     0.00000000    0.00000000   -0.00396025
     atom   18 type  3   force =     0.00000000    0.00000000    0.01254063
     atom   19 type  4   force =     0.00000000    0.00000000    0.02255881
     atom   20 type  4   force =     0.00000000    0.00000000    0.01364955
     atom   21 type  2   force =     0.00000000    0.00000000    0.01490815
     atom   22 type  4   force =     0.00000000    0.00000000    0.00251981
     atom   23 type  4   force =     0.00000000    0.00000000   -0.00470726
     atom   24 type  3   force =     0.00000000    0.00000000   -0.06551797
     atom   25 type  1   force =     0.00000000    0.00000000   -0.01803427
     atom   26 type  4   force =     0.00000000    0.00000000    0.03978779
     atom   27 type  3   force =     0.00000000    0.00000000   -0.01305991
     atom   28 type  4   force =     0.00000000    0.00000000   -0.00838829

     Total force =     0.085464     Total SCF correction =     0.000015


     Computing stress (Cartesian axis) and pressure


     negative rho (up, down):  1.509E-03 0.000E+00
          total   stress  (Ry/bohr**3)                   (kbar)     P=      -15.04
  -0.00004088   0.00000000   0.00000000           -6.01        0.00        0.00
   0.00000000  -0.00007036   0.00000000            0.00      -10.35        0.00
   0.00000000   0.00000000  -0.00019554            0.00        0.00      -28.77


     number of scf cycles    =   6
     number of bfgs steps    =   2

     energy   old            =   -1842.8732363040 Ry
     energy   new            =   -1842.8453582557 Ry

     CASE: energy  _new > energy  _old


 %%%%%%%%%%%%%%%%%%%%%%%%%%%%%%%%%%%%%%%%%%%%%%%%%%%%%%%%%%%%%%%%%%%%%%%%%%%%%%
     Error in routine bfgs (1):
     dE0s is positive which should never happen
 %%%%%%%%%%%%%%%%%%%%%%%%%%%%%%%%%%%%%%%%%%%%%%%%%%%%%%%%%%%%%%%%%%%%%%%%%%%%%%

     stopping ...
