
     Program PWSCF v.6.5 starts on 28Jun2021 at 23:27:21 

     This program is part of the open-source Quantum ESPRESSO suite
     for quantum simulation of materials; please cite
         "P. Giannozzi et al., J. Phys.:Condens. Matter 21 395502 (2009);
         "P. Giannozzi et al., J. Phys.:Condens. Matter 29 465901 (2017);
          URL http://www.quantum-espresso.org", 
     in publications or presentations arising from this work. More details at
     http://www.quantum-espresso.org/quote

     Parallel version (MPI), running on    20 processors

     MPI processes distributed on    16 nodes
     R & G space division:  proc/nbgrp/npool/nimage =      20
     Reading input from CBCO_CuO_cleave_1.25_sep.pwi
Warning: card &CELL ignored
Warning: card     CELL_DYNAMICS = 'BFGS' ignored
Warning: card     PRESS_CONV_THR = 0.5 ignored
Warning: card / ignored

     Current dimensions of program PWSCF are:
     Max number of different atomic species (ntypx) = 10
     Max number of k-points (npk) =  40000
     Max angular momentum in pseudopotentials (lmaxx) =  3

     Subspace diagonalization in iterative solution of the eigenvalue problem:
     one sub-group per band group will be used
     scalapack distributed-memory algorithm (size of sub-group:  4*  4 procs)

     Message from routine setup:
     using ibrav=0 with symmetry is DISCOURAGED, use correct ibrav instead
 
     Parallelization info
     --------------------
     sticks:   dense  smooth     PW     G-vecs:    dense   smooth      PW
     Min         149      50     14                72165    13894    2172
     Max         150      51     15                72202    13919    2217
     Sum        2991    1007    289              1443693   278079   43709
 


     bravais-lattice index     =            0
     lattice parameter (alat)  =       7.4270  a.u.
     unit-cell volume          =    4425.7129 (a.u.)^3
     number of atoms/cell      =           28
     number of atomic types    =            4
     number of electrons       =       227.00
     number of Kohn-Sham states=          137
     kinetic-energy cutoff     =      60.0000  Ry
     charge density cutoff     =     720.0000  Ry
     convergence threshold     =      1.0E-10
     mixing beta               =       0.7000
     number of iterations used =           10  local-TF  mixing
     Exchange-correlation= SLA PW PBE PBE
                           (   1   4   3   4   0   0   0)
     nstep                     =          300


     celldm(1)=   7.427040  celldm(2)=   0.000000  celldm(3)=   0.000000
     celldm(4)=   0.000000  celldm(5)=   0.000000  celldm(6)=   0.000000

     crystal axes: (cart. coord. in units of alat)
               a(1) = (   1.000000   0.000000   0.000000 )  
               a(2) = (   0.000000   0.947081   0.000000 )  
               a(3) = (   0.000000   0.000000  11.406405 )  

     reciprocal axes: (cart. coord. in units 2 pi/alat)
               b(1) = (  1.000000  0.000000  0.000000 )  
               b(2) = (  0.000000  1.055876  0.000000 )  
               b(3) = (  0.000000  0.000000  0.087670 )  


     PseudoPot. # 1 for Ba read from file:
     ./pseudo/Ba.pbe-nsp-van.UPF
     MD5 check sum: 2b9c31dd849566dd297d80989662b7a0
     Pseudo is Ultrasoft + core correction, Zval = 10.0
     Generated by new atomic code, or converted to UPF format
     Using radial grid of  907 points,  6 beta functions with: 
                l(1) =   0
                l(2) =   0
                l(3) =   1
                l(4) =   1
                l(5) =   2
                l(6) =   2
     Q(r) pseudized with  6 coefficients,  rinner =    1.200   1.200   1.200
                                                       1.200   1.200

     PseudoPot. # 2 for Ca read from file:
     ./pseudo/Ca.pbe-nsp-van.UPF
     MD5 check sum: 6471098428ff4fa451746d08035ff179
     Pseudo is Ultrasoft + core correction, Zval = 10.0
     Generated by new atomic code, or converted to UPF format
     Using radial grid of  845 points,  6 beta functions with: 
                l(1) =   0
                l(2) =   0
                l(3) =   1
                l(4) =   1
                l(5) =   2
                l(6) =   2
     Q(r) pseudized with  6 coefficients,  rinner =    1.200   1.200   1.200
                                                       1.200   1.200

     PseudoPot. # 3 for Cu read from file:
     ./pseudo/Cu.pbe-n-van_ak.UPF
     MD5 check sum: 34e3282627ffb533726feb647e090d62
     Pseudo is Ultrasoft + core correction, Zval = 11.0
     Generated by new atomic code, or converted to UPF format
     Using radial grid of  867 points,  6 beta functions with: 
                l(1) =   0
                l(2) =   0
                l(3) =   1
                l(4) =   1
                l(5) =   2
                l(6) =   2
     Q(r) pseudized with  8 coefficients,  rinner =    1.400   1.400   1.400
                                                       1.400   1.400

     PseudoPot. # 4 for O  read from file:
     ./pseudo/O.pbe-van_ak.UPF
     MD5 check sum: 783ce7fe4c79b6a4916957118fed0856
     Pseudo is Ultrasoft, Zval =  6.0
     Generated by new atomic code, or converted to UPF format
     Using radial grid of  737 points,  4 beta functions with: 
                l(1) =   0
                l(2) =   0
                l(3) =   1
                l(4) =   1
     Q(r) pseudized with  8 coefficients,  rinner =    0.800   0.800   0.800


     atomic species   valence    mass     pseudopotential
        Ba            10.00   137.32700     Ba( 1.00)
        Ca            10.00    40.07800     Ca( 1.00)
        Cu            11.00    63.54600     Cu( 1.00)
        O              6.00    15.99900     O ( 1.00)

      4 Sym. Ops. (no inversion) found



   Cartesian axes

     site n.     atom                  positions (alat units)
         1           O   tau(   1) = (   0.0000000   0.4735409  -0.0469745  )
         2           Cu  tau(   2) = (   0.0000000   0.0000000   0.0264565  )
         3           O   tau(   3) = (   0.0000000   0.0000000   0.5030914  )
         4           Ba  tau(   4) = (   0.5000000   0.4735409   0.5690292  )
         5           Cu  tau(   5) = (   0.0000000   0.0000000   1.0374254  )
         6           O   tau(   6) = (   0.5000000   0.0000000   1.0768099  )
         7           O   tau(   7) = (   0.0000000   0.4735409   1.1116985  )
         8           Ca  tau(   8) = (   0.5000000   0.4735409   1.4976260  )
         9           O   tau(   9) = (   0.0000000   0.4735409   1.8667529  )
        10           O   tau(  10) = (   0.5000000   0.0000000   1.9044124  )
        11           Cu  tau(  11) = (   0.0000000   0.0000000   1.9512546  )
        12           Ba  tau(  12) = (   0.5000000   0.4735409   2.4295764  )
        13           O   tau(  13) = (   0.0000000   0.0000000   2.5115362  )
        14           O   tau(  14) = (   0.0000000   0.4735409   2.9918528  )
        15           Cu  tau(  15) = (   0.0000000   0.0000000   2.9919088  )
        16           O   tau(  16) = (   0.0000000   0.0000000   3.7903170  )
        17           Ba  tau(  17) = (   0.5000000   0.4735409   3.8722691  )
        18           Cu  tau(  18) = (   0.0000000   0.0000000   4.3505731  )
        19           O   tau(  19) = (   0.5000000   0.0000000   4.3974153  )
        20           O   tau(  20) = (   0.0000000   0.4735409   4.4350697  )
        21           Ca  tau(  21) = (   0.5000000   0.4735409   4.8042067  )
        22           O   tau(  22) = (   0.0000000   0.4735409   5.1901317  )
        23           O   tau(  23) = (   0.5000000   0.0000000   5.2250203  )
        24           Cu  tau(  24) = (   0.0000000   0.0000000   5.2644074  )
        25           Ba  tau(  25) = (   0.5000000   0.4735409   5.7328010  )
        26           O   tau(  26) = (   0.0000000   0.0000000   5.7987286  )
        27           Cu  tau(  27) = (   0.0000000   0.0000000   6.2753686  )
        28           O   tau(  28) = (   0.0000000   0.4735409   6.3487869  )

     number of k points=    25  Gaussian smearing, width (Ry)=  0.0100
                       cart. coord. in units 2pi/alat
        k(    1) = (   0.0000000   0.0000000   0.0000000), wk =   0.0312500
        k(    2) = (   0.0000000   0.1319845   0.0000000), wk =   0.0625000
        k(    3) = (   0.0000000   0.2639689   0.0000000), wk =   0.0625000
        k(    4) = (   0.0000000   0.3959534   0.0000000), wk =   0.0625000
        k(    5) = (   0.0000000  -0.5279378   0.0000000), wk =   0.0312500
        k(    6) = (   0.1250000   0.0000000   0.0000000), wk =   0.0625000
        k(    7) = (   0.1250000   0.1319845   0.0000000), wk =   0.1250000
        k(    8) = (   0.1250000   0.2639689   0.0000000), wk =   0.1250000
        k(    9) = (   0.1250000   0.3959534   0.0000000), wk =   0.1250000
        k(   10) = (   0.1250000  -0.5279378   0.0000000), wk =   0.0625000
        k(   11) = (   0.2500000   0.0000000   0.0000000), wk =   0.0625000
        k(   12) = (   0.2500000   0.1319845   0.0000000), wk =   0.1250000
        k(   13) = (   0.2500000   0.2639689   0.0000000), wk =   0.1250000
        k(   14) = (   0.2500000   0.3959534   0.0000000), wk =   0.1250000
        k(   15) = (   0.2500000  -0.5279378   0.0000000), wk =   0.0625000
        k(   16) = (   0.3750000   0.0000000   0.0000000), wk =   0.0625000
        k(   17) = (   0.3750000   0.1319845   0.0000000), wk =   0.1250000
        k(   18) = (   0.3750000   0.2639689   0.0000000), wk =   0.1250000
        k(   19) = (   0.3750000   0.3959534   0.0000000), wk =   0.1250000
        k(   20) = (   0.3750000  -0.5279378   0.0000000), wk =   0.0625000
        k(   21) = (  -0.5000000   0.0000000   0.0000000), wk =   0.0312500
        k(   22) = (  -0.5000000   0.1319845   0.0000000), wk =   0.0625000
        k(   23) = (  -0.5000000   0.2639689   0.0000000), wk =   0.0625000
        k(   24) = (  -0.5000000   0.3959534   0.0000000), wk =   0.0625000
        k(   25) = (  -0.5000000  -0.5279378   0.0000000), wk =   0.0312500

     Dense  grid:  1443693 G-vectors     FFT dimensions: (  64,  64, 729)

     Smooth grid:   278079 G-vectors     FFT dimensions: (  40,  36, 432)

     Estimated max dynamical RAM per process >     460.71 MB

     Estimated total dynamical RAM >       9.00 GB

     Initial potential from superposition of free atoms

     starting charge  226.84630, renormalised to  227.00000

     negative rho (up, down):  3.389E-03 0.000E+00
     Starting wfcs are  195 randomized atomic wfcs

     total cpu time spent up to now is       10.5 secs

     Self-consistent Calculation

     iteration #  1     ecut=    60.00 Ry     beta= 0.70
     Davidson diagonalization with overlap
     ethr =  1.00E-02,  avg # of iterations =  2.0

     negative rho (up, down):  2.774E-04 0.000E+00

     total cpu time spent up to now is       26.7 secs

     total energy              =   -1839.24472934 Ry
     Harris-Foulkes estimate   =   -1845.32732975 Ry
     estimated scf accuracy    <      18.66102309 Ry

     iteration #  2     ecut=    60.00 Ry     beta= 0.70
     Davidson diagonalization with overlap
     ethr =  8.22E-03,  avg # of iterations =  2.0

     negative rho (up, down):  2.563E-04 0.000E+00

     total cpu time spent up to now is       44.6 secs

     total energy              =   -1842.02078118 Ry
     Harris-Foulkes estimate   =   -1844.00884135 Ry
     estimated scf accuracy    <      11.64153750 Ry

     iteration #  3     ecut=    60.00 Ry     beta= 0.70
     Davidson diagonalization with overlap
     ethr =  5.13E-03,  avg # of iterations =  1.6

     negative rho (up, down):  2.429E-04 0.000E+00

     total cpu time spent up to now is       60.6 secs

     total energy              =   -1842.61797961 Ry
     Harris-Foulkes estimate   =   -1843.05758111 Ry
     estimated scf accuracy    <       5.61122604 Ry

     iteration #  4     ecut=    60.00 Ry     beta= 0.70
     Davidson diagonalization with overlap
     ethr =  2.47E-03,  avg # of iterations =  1.0

     negative rho (up, down):  2.374E-04 0.000E+00

     total cpu time spent up to now is       75.5 secs

     total energy              =   -1842.79578391 Ry
     Harris-Foulkes estimate   =   -1842.94134953 Ry
     estimated scf accuracy    <       4.49793855 Ry

     iteration #  5     ecut=    60.00 Ry     beta= 0.70
     Davidson diagonalization with overlap
     ethr =  1.98E-03,  avg # of iterations =  1.0

     negative rho (up, down):  2.344E-04 0.000E+00

     total cpu time spent up to now is       90.2 secs

     total energy              =   -1842.80572501 Ry
     Harris-Foulkes estimate   =   -1842.86247518 Ry
     estimated scf accuracy    <       0.56920104 Ry

     iteration #  6     ecut=    60.00 Ry     beta= 0.70
     Davidson diagonalization with overlap
     ethr =  2.51E-04,  avg # of iterations =  2.9

     negative rho (up, down):  2.329E-04 0.000E+00

     total cpu time spent up to now is      107.4 secs

     total energy              =   -1842.83141742 Ry
     Harris-Foulkes estimate   =   -1842.84775683 Ry
     estimated scf accuracy    <       2.16768515 Ry

     iteration #  7     ecut=    60.00 Ry     beta= 0.70
     Davidson diagonalization with overlap
     ethr =  2.51E-04,  avg # of iterations =  1.1

     negative rho (up, down):  2.314E-04 0.000E+00

     total cpu time spent up to now is      122.3 secs

     total energy              =   -1842.81657943 Ry
     Harris-Foulkes estimate   =   -1842.84150777 Ry
     estimated scf accuracy    <       1.75848788 Ry

     iteration #  8     ecut=    60.00 Ry     beta= 0.70
     Davidson diagonalization with overlap
     ethr =  2.51E-04,  avg # of iterations =  1.4

     negative rho (up, down):  2.315E-04 0.000E+00

     total cpu time spent up to now is      137.5 secs

     total energy              =   -1842.82306355 Ry
     Harris-Foulkes estimate   =   -1842.82800776 Ry
     estimated scf accuracy    <       0.92644924 Ry

     iteration #  9     ecut=    60.00 Ry     beta= 0.70
     Davidson diagonalization with overlap
     ethr =  2.51E-04,  avg # of iterations =  1.0

     negative rho (up, down):  2.319E-04 0.000E+00

     total cpu time spent up to now is      152.3 secs

     total energy              =   -1842.81803815 Ry
     Harris-Foulkes estimate   =   -1842.82471112 Ry
     estimated scf accuracy    <       0.53861784 Ry

     iteration # 10     ecut=    60.00 Ry     beta= 0.70
     Davidson diagonalization with overlap
     ethr =  2.37E-04,  avg # of iterations =  1.0

     negative rho (up, down):  2.327E-04 0.000E+00

     total cpu time spent up to now is      167.1 secs

     total energy              =   -1842.81720224 Ry
     Harris-Foulkes estimate   =   -1842.81997023 Ry
     estimated scf accuracy    <       0.26859884 Ry

     iteration # 11     ecut=    60.00 Ry     beta= 0.70
     Davidson diagonalization with overlap
     ethr =  1.18E-04,  avg # of iterations =  3.0

     negative rho (up, down):  2.331E-04 0.000E+00

     total cpu time spent up to now is      184.1 secs

     total energy              =   -1842.81479199 Ry
     Harris-Foulkes estimate   =   -1842.81817880 Ry
     estimated scf accuracy    <       0.20772518 Ry

     iteration # 12     ecut=    60.00 Ry     beta= 0.70
     Davidson diagonalization with overlap
     ethr =  9.15E-05,  avg # of iterations =  5.0

     negative rho (up, down):  2.568E-04 0.000E+00

     total cpu time spent up to now is      203.7 secs

     total energy              =   -1842.81201683 Ry
     Harris-Foulkes estimate   =   -1842.81545584 Ry
     estimated scf accuracy    <       0.17313280 Ry

     iteration # 13     ecut=    60.00 Ry     beta= 0.70
     Davidson diagonalization with overlap
     ethr =  7.63E-05,  avg # of iterations =  1.7

     negative rho (up, down):  2.176E-03 0.000E+00

     total cpu time spent up to now is      219.1 secs

     total energy              =   -1842.81112876 Ry
     Harris-Foulkes estimate   =   -1842.81311973 Ry
     estimated scf accuracy    <       0.06650511 Ry

     iteration # 14     ecut=    60.00 Ry     beta= 0.70
     Davidson diagonalization with overlap
     c_bands:  1 eigenvalues not converged
     ethr =  2.93E-05,  avg # of iterations =  6.4

     negative rho (up, down):  8.141E-03 0.000E+00

     total cpu time spent up to now is      240.9 secs

     total energy              =   -1842.81024846 Ry
     Harris-Foulkes estimate   =   -1842.81167338 Ry
     estimated scf accuracy    <       0.02689136 Ry

     iteration # 15     ecut=    60.00 Ry     beta= 0.70
     Davidson diagonalization with overlap
     ethr =  1.18E-05,  avg # of iterations =  7.3

     negative rho (up, down):  8.832E-03 0.000E+00

     total cpu time spent up to now is      264.2 secs

     total energy              =   -1842.80955898 Ry
     Harris-Foulkes estimate   =   -1842.81096604 Ry
     estimated scf accuracy    <       0.01630357 Ry

     iteration # 16     ecut=    60.00 Ry     beta= 0.70
     Davidson diagonalization with overlap
     ethr =  7.18E-06,  avg # of iterations =  2.5

     negative rho (up, down):  1.616E-02 0.000E+00

     total cpu time spent up to now is      280.6 secs

     total energy              =   -1842.80893679 Ry
     Harris-Foulkes estimate   =   -1842.81022244 Ry
     estimated scf accuracy    <       0.00925163 Ry

     iteration # 17     ecut=    60.00 Ry     beta= 0.70
     Davidson diagonalization with overlap
     ethr =  4.08E-06,  avg # of iterations =  9.0

     negative rho (up, down):  1.825E-02 0.000E+00

     total cpu time spent up to now is      306.5 secs

     total energy              =   -1842.80847973 Ry
     Harris-Foulkes estimate   =   -1842.80919479 Ry
     estimated scf accuracy    <       0.00602888 Ry

     iteration # 18     ecut=    60.00 Ry     beta= 0.70
     Davidson diagonalization with overlap
     ethr =  2.66E-06,  avg # of iterations =  7.3

     negative rho (up, down):  1.507E-02 0.000E+00

     total cpu time spent up to now is      330.1 secs

     total energy              =   -1842.80803015 Ry
     Harris-Foulkes estimate   =   -1842.80861982 Ry
     estimated scf accuracy    <       0.00497243 Ry

     iteration # 19     ecut=    60.00 Ry     beta= 0.70
     Davidson diagonalization with overlap
     ethr =  2.19E-06,  avg # of iterations =  6.2

     negative rho (up, down):  1.291E-02 0.000E+00

     total cpu time spent up to now is      352.2 secs

     total energy              =   -1842.80775446 Ry
     Harris-Foulkes estimate   =   -1842.80813561 Ry
     estimated scf accuracy    <       0.00407402 Ry

     iteration # 20     ecut=    60.00 Ry     beta= 0.70
     Davidson diagonalization with overlap
     ethr =  1.79E-06,  avg # of iterations =  6.7

     negative rho (up, down):  1.190E-02 0.000E+00

     total cpu time spent up to now is      375.0 secs

     total energy              =   -1842.80774440 Ry
     Harris-Foulkes estimate   =   -1842.80790612 Ry
     estimated scf accuracy    <       0.00214434 Ry

     iteration # 21     ecut=    60.00 Ry     beta= 0.70
     Davidson diagonalization with overlap
     ethr =  9.45E-07,  avg # of iterations =  7.5

     negative rho (up, down):  3.100E-03 0.000E+00

     total cpu time spent up to now is      398.9 secs

     total energy              =   -1842.80759938 Ry
     Harris-Foulkes estimate   =   -1842.80782044 Ry
     estimated scf accuracy    <       0.00201046 Ry

     iteration # 22     ecut=    60.00 Ry     beta= 0.70
     Davidson diagonalization with overlap
     c_bands:  1 eigenvalues not converged
     c_bands:  2 eigenvalues not converged
     ethr =  8.86E-07,  avg # of iterations = 10.0

     negative rho (up, down):  4.552E-03 0.000E+00

     total cpu time spent up to now is      427.1 secs

     total energy              =   -1842.80765047 Ry
     Harris-Foulkes estimate   =   -1842.80763672 Ry
     estimated scf accuracy    <       0.00026346 Ry

     iteration # 23     ecut=    60.00 Ry     beta= 0.70
     Davidson diagonalization with overlap
     c_bands:  1 eigenvalues not converged
     ethr =  1.16E-07,  avg # of iterations =  5.8

     negative rho (up, down):  2.236E-03 0.000E+00

     total cpu time spent up to now is      448.2 secs

     total energy              =   -1842.80767141 Ry
     Harris-Foulkes estimate   =   -1842.80766358 Ry
     estimated scf accuracy    <       0.00022894 Ry

     iteration # 24     ecut=    60.00 Ry     beta= 0.70
     Davidson diagonalization with overlap
     c_bands:  1 eigenvalues not converged
     c_bands:  1 eigenvalues not converged
     ethr =  1.01E-07,  avg # of iterations =  6.4

     negative rho (up, down):  1.776E-03 0.000E+00

     total cpu time spent up to now is      470.5 secs

     total energy              =   -1842.80768020 Ry
     Harris-Foulkes estimate   =   -1842.80767660 Ry
     estimated scf accuracy    <       0.00002649 Ry

     iteration # 25     ecut=    60.00 Ry     beta= 0.70
     Davidson diagonalization with overlap
     ethr =  1.17E-08,  avg # of iterations =  3.8

     negative rho (up, down):  1.596E-03 0.000E+00

     total cpu time spent up to now is      488.8 secs

     total energy              =   -1842.80768362 Ry
     Harris-Foulkes estimate   =   -1842.80768209 Ry
     estimated scf accuracy    <       0.00003094 Ry

     iteration # 26     ecut=    60.00 Ry     beta= 0.70
     Davidson diagonalization with overlap
     ethr =  1.17E-08,  avg # of iterations =  3.0

     negative rho (up, down):  1.431E-03 0.000E+00

     total cpu time spent up to now is      506.3 secs

     total energy              =   -1842.80768452 Ry
     Harris-Foulkes estimate   =   -1842.80768461 Ry
     estimated scf accuracy    <       0.00000782 Ry

     iteration # 27     ecut=    60.00 Ry     beta= 0.70
     Davidson diagonalization with overlap
     ethr =  3.44E-09,  avg # of iterations =  1.6

     negative rho (up, down):  1.580E-03 0.000E+00

     total cpu time spent up to now is      521.8 secs

     total energy              =   -1842.80768447 Ry
     Harris-Foulkes estimate   =   -1842.80768517 Ry
     estimated scf accuracy    <       0.00000767 Ry

     iteration # 28     ecut=    60.00 Ry     beta= 0.70
     Davidson diagonalization with overlap
     ethr =  3.38E-09,  avg # of iterations =  1.0

     negative rho (up, down):  1.464E-03 0.000E+00

     total cpu time spent up to now is      536.7 secs

     total energy              =   -1842.80768486 Ry
     Harris-Foulkes estimate   =   -1842.80768482 Ry
     estimated scf accuracy    <       0.00000267 Ry

     iteration # 29     ecut=    60.00 Ry     beta= 0.70
     Davidson diagonalization with overlap
     ethr =  1.18E-09,  avg # of iterations =  1.4

     negative rho (up, down):  1.499E-03 0.000E+00

     total cpu time spent up to now is      551.9 secs

     total energy              =   -1842.80768484 Ry
     Harris-Foulkes estimate   =   -1842.80768494 Ry
     estimated scf accuracy    <       0.00000072 Ry

     iteration # 30     ecut=    60.00 Ry     beta= 0.70
     Davidson diagonalization with overlap
     ethr =  3.17E-10,  avg # of iterations =  2.4

     negative rho (up, down):  1.500E-03 0.000E+00

     total cpu time spent up to now is      568.5 secs

     total energy              =   -1842.80768486 Ry
     Harris-Foulkes estimate   =   -1842.80768487 Ry
     estimated scf accuracy    <       0.00000027 Ry

     iteration # 31     ecut=    60.00 Ry     beta= 0.70
     Davidson diagonalization with overlap
     ethr =  1.19E-10,  avg # of iterations =  1.9

     negative rho (up, down):  1.537E-03 0.000E+00

     total cpu time spent up to now is      584.4 secs

     total energy              =   -1842.80768481 Ry
     Harris-Foulkes estimate   =   -1842.80768487 Ry
     estimated scf accuracy    <       0.00000018 Ry

     iteration # 32     ecut=    60.00 Ry     beta= 0.70
     Davidson diagonalization with overlap
     ethr =  8.11E-11,  avg # of iterations =  1.3

     negative rho (up, down):  1.539E-03 0.000E+00

     total cpu time spent up to now is      599.6 secs

     total energy              =   -1842.80768481 Ry
     Harris-Foulkes estimate   =   -1842.80768481 Ry
     estimated scf accuracy    <       0.00000002 Ry

     iteration # 33     ecut=    60.00 Ry     beta= 0.70
     Davidson diagonalization with overlap
     ethr =  8.49E-12,  avg # of iterations =  3.5

     negative rho (up, down):  1.538E-03 0.000E+00

     total cpu time spent up to now is      619.4 secs

     total energy              =   -1842.80768481 Ry
     Harris-Foulkes estimate   =   -1842.80768481 Ry
     estimated scf accuracy    <       0.00000001 Ry

     iteration # 34     ecut=    60.00 Ry     beta= 0.70
     Davidson diagonalization with overlap
     ethr =  4.91E-12,  avg # of iterations =  1.1

     negative rho (up, down):  1.537E-03 0.000E+00

     total cpu time spent up to now is      634.2 secs

     total energy              =   -1842.80768481 Ry
     Harris-Foulkes estimate   =   -1842.80768481 Ry
     estimated scf accuracy    <          5.2E-09 Ry

     iteration # 35     ecut=    60.00 Ry     beta= 0.70
     Davidson diagonalization with overlap
     ethr =  2.30E-12,  avg # of iterations =  1.2

     negative rho (up, down):  1.532E-03 0.000E+00

     total cpu time spent up to now is      649.4 secs

     total energy              =   -1842.80768482 Ry
     Harris-Foulkes estimate   =   -1842.80768481 Ry
     estimated scf accuracy    <          6.2E-09 Ry

     iteration # 36     ecut=    60.00 Ry     beta= 0.70
     Davidson diagonalization with overlap
     ethr =  2.30E-12,  avg # of iterations =  1.0

     negative rho (up, down):  1.531E-03 0.000E+00

     total cpu time spent up to now is      664.7 secs

     total energy              =   -1842.80768482 Ry
     Harris-Foulkes estimate   =   -1842.80768482 Ry
     estimated scf accuracy    <          2.1E-09 Ry

     iteration # 37     ecut=    60.00 Ry     beta= 0.70
     Davidson diagonalization with overlap
     ethr =  9.22E-13,  avg # of iterations =  1.0

     negative rho (up, down):  1.531E-03 0.000E+00

     total cpu time spent up to now is      680.0 secs

     total energy              =   -1842.80768482 Ry
     Harris-Foulkes estimate   =   -1842.80768482 Ry
     estimated scf accuracy    <          5.0E-10 Ry

     iteration # 38     ecut=    60.00 Ry     beta= 0.70
     Davidson diagonalization with overlap
     ethr =  2.20E-13,  avg # of iterations =  2.1

     negative rho (up, down):  1.530E-03 0.000E+00

     total cpu time spent up to now is      696.5 secs

     total energy              =   -1842.80768482 Ry
     Harris-Foulkes estimate   =   -1842.80768482 Ry
     estimated scf accuracy    <          1.9E-10 Ry

     iteration # 39     ecut=    60.00 Ry     beta= 0.70
     Davidson diagonalization with overlap
     ethr =  1.00E-13,  avg # of iterations =  2.3

     negative rho (up, down):  1.530E-03 0.000E+00

     total cpu time spent up to now is      712.6 secs

     End of self-consistent calculation

          k = 0.0000 0.0000 0.0000 ( 34843 PWs)   bands (ev):

   -35.7391 -35.7147 -22.9023 -22.8991 -22.7335 -22.6335 -17.2405 -17.2200
   -16.7908 -16.7800 -16.7677 -16.7540 -15.4398 -15.4271 -14.7874 -14.7815
   -14.7607 -14.7145 -14.7001 -14.2899 -14.2872 -14.1114 -14.0991 -13.9938
   -13.9682 -13.9544 -12.8667  -8.0346  -8.0308  -7.9958  -7.9929  -7.8779
    -7.8536  -7.8030  -7.7999  -7.7935  -7.6213  -7.6155  -7.4206  -2.4370
    -2.4361  -2.0779  -1.9565  -1.9532  -1.9340  -1.9286  -1.8040  -1.7870
    -1.6908  -1.6688  -1.6365  -1.6243  -1.3278  -1.3239  -0.9795  -0.5664
    -0.5643  -0.5022  -0.4866  -0.4829  -0.4529  -0.4251  -0.4123  -0.3949
    -0.3928  -0.3779  -0.3729  -0.3707  -0.3578  -0.3281  -0.2972  -0.1917
    -0.1469  -0.1442  -0.0356  -0.0211  -0.0171  -0.0119  -0.0081  -0.0052
     0.0321   0.0385   0.0575   0.0655   0.1052   0.1340   0.1798   0.2189
     0.4217   0.6744   0.7347   0.7732   0.7760   0.8190   0.8583   1.0551
     1.0603   1.2189   1.2382   1.2512   1.2662   1.3553   1.3757   1.3937
     1.4065   1.4204   1.4277   1.6869   1.7095   1.7719   1.9209   1.9314
     1.9880   2.1078   2.2023   2.2439   2.3149   2.4246   2.4379   5.0641
     5.1107   5.1731   6.0451   6.1556   6.6394   6.6503   6.8129   6.9649
     7.8584   7.9476   8.1042   8.1381   8.4207   8.4915   8.5727   8.7434
     9.0322

          k = 0.0000 0.1320 0.0000 ( 34781 PWs)   bands (ev):

   -35.7373 -35.7129 -22.8757 -22.8725 -22.7078 -22.6099 -17.2045 -17.1839
   -16.8522 -16.8265 -16.7885 -16.7654 -15.3508 -15.3385 -14.7930 -14.7874
   -14.7202 -14.6872 -14.6704 -14.3000 -14.2966 -14.1146 -14.1011 -14.0516
   -13.9974 -13.9936 -12.9253  -8.0340  -8.0303  -7.9480  -7.9451  -7.8768
    -7.8536  -7.8445  -7.8410  -7.7478  -7.6710  -7.5752  -7.4536  -2.4978
    -2.4957  -2.3278  -2.3084  -2.2316  -2.2135  -2.0600  -1.7821  -1.7666
    -1.7526  -1.7486  -1.6739  -1.6525  -1.5665  -1.4622  -1.4582  -0.8269
    -0.7490  -0.7275  -0.6643  -0.6618  -0.5744  -0.5709  -0.5176  -0.5153
    -0.4152  -0.4050  -0.3328  -0.2999  -0.2858  -0.2811  -0.2553  -0.2524
    -0.2488  -0.1253  -0.1225  -0.1171  -0.1108  -0.0310  -0.0189   0.0056
     0.0150   0.0160   0.0361   0.1051   0.1615   0.1801   0.2238   0.2504
     0.6591   0.8264   0.8820   0.9490   0.9700   0.9728   1.0230   1.0253
     1.0463   1.0491   1.0665   1.3063   1.3291   1.3492   1.3568   1.4533
     1.4710   1.4827   1.5745   1.6563   1.6943   1.7460   1.8556   1.8902
     1.9333   2.0754   2.0911   2.4293   2.4998   2.7141   2.7167   5.4366
     5.4861   5.4988   6.3539   6.4230   6.9477   6.9563   7.1153   7.2826
     8.0334   8.1543   8.3141   8.3410   8.6109   8.6990   8.8148   8.8952
     9.1047

          k = 0.0000 0.2640 0.0000 ( 34663 PWs)   bands (ev):

   -35.7329 -35.7085 -22.8098 -22.8066 -22.6444 -22.5516 -17.1129 -17.0922
   -17.0060 -16.9805 -16.7829 -16.7597 -15.1471 -15.1366 -14.8470 -14.8381
   -14.6630 -14.5997 -14.5945 -14.2888 -14.2831 -14.1733 -14.1447 -14.1392
   -14.0842 -14.0395 -13.0595  -8.0334  -8.0298  -7.9357  -7.9325  -7.8741
    -7.8501  -7.8276  -7.8246  -7.7779  -7.6329  -7.5236  -7.4747  -2.9543
    -2.9465  -2.8047  -2.7795  -2.5570  -2.5366  -2.5343  -2.3885  -2.3860
    -2.0637  -1.7240  -1.7124  -1.6405  -1.6187  -1.6097  -1.5997  -1.3664
    -1.1383  -1.0476  -0.9170  -0.9141  -0.7881  -0.7756  -0.7171  -0.6941
    -0.6687  -0.6625  -0.6375  -0.6056  -0.6024  -0.5865  -0.5279  -0.4777
    -0.3436  -0.0969  -0.0939  -0.0612  -0.0315  -0.0168   0.0183   0.0339
     0.0949   0.1303   0.2410   0.2690   0.4811   0.4860   0.5816   0.5983
     0.8295   0.8478   0.8580   1.0117   1.0216   1.0556   1.0578   1.1034
     1.1140   1.1805   1.1815   1.2117   1.2956   1.4014   1.4448   1.5473
     1.6604   1.6663   1.7369   1.7584   1.8244   1.8253   1.8539   1.8652
     1.8685   1.9600   2.0513   2.5554   2.8902   2.9410   3.0079   6.2203
     6.3787   6.3814   7.1449   7.1713   7.7736   7.7796   7.9272   8.1511
     8.5358   8.6468   8.7081   8.7521   8.9060   8.9936   9.0926   9.1636
     9.1980

          k = 0.0000 0.3960 0.0000 ( 34610 PWs)   bands (ev):

   -35.7285 -35.7041 -22.7416 -22.7384 -22.5789 -22.4917 -17.1427 -17.1169
   -17.0111 -16.9907 -16.7772 -16.7541 -15.0461 -15.0437 -14.8361 -14.8087
   -14.6827 -14.5343 -14.4721 -14.2450 -14.2365 -14.2274 -14.2231 -14.1990
   -14.1582 -14.0938 -13.1817  -8.0333  -8.0298  -8.0139  -8.0106  -7.8889
    -7.8575  -7.8427  -7.6992  -7.6962  -7.5821  -7.5108  -7.3691  -3.4125
    -3.4035  -3.3332  -3.2183  -3.2069  -3.1041  -3.1006  -2.4791  -2.4780
    -2.0922  -1.9531  -1.9289  -1.7447  -1.6547  -1.6474  -1.5217  -1.5077
    -1.3763  -1.2624  -1.1874  -1.1840  -1.0286  -1.0017  -0.9885  -0.9341
    -0.9338  -0.8923  -0.8655  -0.8503  -0.8362  -0.7859  -0.5693  -0.4976
    -0.3230  -0.1531  -0.0798  -0.0767  -0.0245   0.0149   0.0228   0.0495
     0.0597   0.0887   0.3601   0.3923   0.6425   0.6572   0.8083   0.8118
     0.8332   0.8532   0.9187   0.9419   0.9638   1.0175   1.0274   1.0293
     1.1234   1.2597   1.4182   1.4905   1.4985   1.5801   1.5834   1.5969
     1.6012   1.6597   1.7710   1.8420   1.8461   1.8895   2.0325   2.1039
     2.2596   2.2628   2.2664   2.4863   2.7997   2.8408   3.1266   7.0836
     7.3250   7.3280   8.0852   8.1179   8.5157   8.5687   8.5773   8.7270
     8.9344   8.9482   8.9553   8.9835   9.1725   9.3144   9.3442   9.3847
     9.5760

          k = 0.0000-0.5279 0.0000 ( 34682 PWs)   bands (ev):

   -35.7266 -35.7023 -22.7127 -22.7095 -22.5512 -22.4664 -17.1947 -17.1690
   -16.9665 -16.9460 -16.7748 -16.7517 -15.0874 -15.0838 -14.7511 -14.7051
   -14.7022 -14.5148 -14.4121 -14.2845 -14.2736 -14.2290 -14.1887 -14.1805
   -14.1787 -14.1566 -13.2285  -8.0435  -8.0403  -8.0330  -8.0294  -7.9173
    -7.8618  -7.8422  -7.6433  -7.6403  -7.6038  -7.4579  -7.3237  -3.6110
    -3.5809  -3.5751  -3.3879  -3.3858  -3.3331  -3.3297  -2.4952  -2.4942
    -2.1021  -2.0774  -2.0565  -1.8796  -1.6201  -1.6147  -1.4736  -1.4388
    -1.4305  -1.3533  -1.3137  -1.3087  -1.1544  -1.1228  -1.1076  -1.0439
    -1.0239  -0.9668  -0.9450  -0.9420  -0.9133  -0.8727  -0.5576  -0.4629
    -0.2876  -0.2043  -0.0742  -0.0710  -0.0569   0.0171   0.0434   0.0544
     0.0587   0.1072   0.2824   0.3012   0.6848   0.6943   0.7280   0.7405
     0.8844   0.9039   0.9199   0.9723   1.0103   1.0124   1.0955   1.1436
     1.1705   1.1895   1.3698   1.5060   1.5787   1.5984   1.6014   1.7308
     1.8718   1.8760   1.8787   1.8801   1.8903   1.9304   1.9376   2.2894
     2.3413   2.4211   2.4244   2.4442   2.6204   2.6701   3.1105   7.5933
     7.7364   7.7405   8.3263   8.5388   8.7868   8.8211   8.8503   8.8697
     8.8715   8.8752   9.2005   9.2038   9.2101   9.3163   9.6690   9.8518
     9.8897

          k = 0.1250 0.0000 0.0000 ( 34755 PWs)   bands (ev):

   -35.7380 -35.7136 -22.8843 -22.8811 -22.7160 -22.6182 -17.2072 -17.1865
   -16.8707 -16.8486 -16.7786 -16.7527 -15.3369 -15.3235 -14.8326 -14.8276
   -14.7865 -14.7193 -14.7050 -14.2990 -14.2961 -14.1214 -14.1103 -14.0126
   -13.9962 -13.9747 -12.9356  -8.0601  -8.0564  -7.9346  -7.9311  -7.9178
    -7.8560  -7.7706  -7.7674  -7.7268  -7.5904  -7.5667  -7.3939  -2.4802
    -2.4789  -2.1547  -1.9884  -1.9854  -1.9531  -1.9384  -1.9356  -1.9277
    -1.9011  -1.8959  -1.6022  -1.5869  -1.3257  -1.3219  -1.0062  -0.7613
    -0.7559  -0.6249  -0.6209  -0.5653  -0.5600  -0.5509  -0.4750  -0.4481
    -0.4460  -0.4018  -0.4003  -0.3968  -0.3580  -0.3332  -0.2975  -0.2844
    -0.1859  -0.1643  -0.0323  -0.0155  -0.0125   0.0142   0.0307   0.0658
     0.0819   0.0854   0.0964   0.1121   0.1801   0.2001   0.2562   0.3155
     0.4299   0.6797   0.6862   0.6923   0.7808   0.8535   0.9020   1.0410
     1.0600   1.0944   1.1030   1.2328   1.2551   1.3623   1.3711   1.3713
     1.4336   1.4699   1.7025   1.7641   1.8456   1.8688   1.8835   1.9312
     1.9341   2.0913   2.1565   2.2187   2.3054   2.4606   2.4704   5.2632
     5.2904   5.3268   6.2750   6.3515   6.8558   6.8659   7.0179   7.1998
     8.0026   8.0784   8.2529   8.3028   8.6545   8.6802   8.7803   8.8849
     9.2269

          k = 0.1250 0.1320 0.0000 ( 34736 PWs)   bands (ev):

   -35.7362 -35.7118 -22.8584 -22.8552 -22.6911 -22.5952 -17.1722 -17.1515
   -16.8737 -16.8509 -16.8415 -16.8164 -15.2549 -15.2421 -14.8283 -14.8226
   -14.7452 -14.6872 -14.6735 -14.3002 -14.2969 -14.1222 -14.1126 -14.0648
   -14.0174 -14.0144 -12.9765  -8.0788  -8.0756  -7.9970  -7.9934  -7.9176
    -7.8551  -7.8129  -7.7326  -7.7295  -7.6545  -7.5540  -7.3511  -2.5351
    -2.5323  -2.3337  -2.3006  -2.2176  -2.1912  -2.0922  -1.9669  -1.9638
    -1.9247  -1.9072  -1.7466  -1.7426  -1.5779  -1.4545  -1.4502  -0.9528
    -0.9214  -0.8204  -0.7873  -0.7783  -0.7117  -0.7110  -0.6123  -0.6095
    -0.5215  -0.4078  -0.3852  -0.3680  -0.3216  -0.3035  -0.2966  -0.2495
    -0.1987  -0.1774  -0.1473  -0.1074  -0.1063  -0.0036   0.0315   0.0468
     0.0589   0.0666   0.1201   0.1404   0.1827   0.2044   0.3758   0.4096
     0.6892   0.9002   0.9212   0.9328   0.9717   1.0196   1.0231   1.0935
     1.1098   1.1309   1.1440   1.1716   1.1812   1.1993   1.2246   1.4799
     1.4855   1.4953   1.5505   1.5537   1.6240   1.7445   1.9465   2.2182
     2.2363   2.2778   2.3413   2.4844   2.5114   2.7191   2.7228   5.5747
     5.6280   5.6325   6.5354   6.5855   7.1560   7.1633   7.3091   7.5100
     8.1752   8.2693   8.4425   8.4823   8.7615   8.8670   8.9250   9.0355
     9.1566

          k = 0.1250 0.2640 0.0000 ( 34685 PWs)   bands (ev):

   -35.7318 -35.7074 -22.7946 -22.7914 -22.6296 -22.5384 -17.0837 -17.0627
   -17.0028 -16.9774 -16.8535 -16.8311 -15.0735 -15.0636 -14.8387 -14.8268
   -14.6701 -14.5968 -14.5911 -14.2838 -14.2793 -14.1810 -14.1611 -14.1508
   -14.0817 -14.0465 -13.0720  -8.1475  -8.1444  -8.0342  -8.0305  -7.9678
    -7.8763  -7.8493  -7.7526  -7.7234  -7.7203  -7.5513  -7.3485  -2.9791
    -2.9702  -2.8096  -2.7832  -2.5485  -2.5372  -2.5350  -2.3880  -2.3853
    -2.1071  -1.9173  -1.9110  -1.8737  -1.8565  -1.6359  -1.6125  -1.3778
    -1.1519  -1.1069  -1.0944  -1.0649  -1.0220  -1.0145  -0.8053  -0.8013
    -0.7502  -0.7003  -0.6731  -0.6274  -0.6137  -0.5434  -0.5210  -0.4849
    -0.3966  -0.2680  -0.2256  -0.1159  -0.0807   0.0691   0.0902   0.1269
     0.2324   0.3201   0.3563   0.3803   0.6201   0.6388   0.6650   0.6751
     0.8963   0.9146   0.9367   0.9805   0.9878   1.0917   1.1662   1.1700
     1.2070   1.2107   1.2829   1.2867   1.3377   1.3948   1.4290   1.4369
     1.5147   1.5167   1.5532   1.8043   1.8310   1.8324   1.9291   2.2756
     2.4106   2.4341   2.5168   2.6829   2.8904   2.9524   3.0167   6.2676
     6.4396   6.4423   7.2268   7.2489   7.9415   7.9446   8.0675   8.3505
     8.6503   8.7019   8.7482   8.8004   8.9424   8.9794   9.0137   9.0680
     9.1510

          k = 0.1250 0.3960 0.0000 ( 34670 PWs)   bands (ev):

   -35.7274 -35.7030 -22.7287 -22.7254 -22.5661 -22.4801 -17.1375 -17.1118
   -16.9848 -16.9642 -16.8448 -16.8225 -15.0102 -15.0080 -14.7695 -14.7330
   -14.6486 -14.5193 -14.4632 -14.2739 -14.2706 -14.2270 -14.2155 -14.1923
   -14.1425 -14.0857 -13.1609  -8.1780  -8.1748  -8.0458  -8.0421  -8.0269
    -7.8730  -7.8513  -7.7685  -7.7655  -7.7606  -7.5898  -7.4169  -3.4550
    -3.4458  -3.3304  -3.2421  -3.2274  -3.0954  -3.0919  -2.4875  -2.4863
    -2.1252  -1.9070  -1.9018  -1.8115  -1.7817  -1.7805  -1.7470  -1.6112
    -1.4486  -1.4431  -1.3309  -1.3111  -1.3062  -1.2331  -1.0294  -1.0049
    -0.9797  -0.9747  -0.9213  -0.8672  -0.8653  -0.7238  -0.5653  -0.5066
    -0.4175  -0.3032  -0.2504  -0.0903  -0.0364   0.0933   0.0968   0.1546
     0.2544   0.3404   0.5351   0.5692   0.7842   0.7930   0.8304   0.8517
     0.9287   0.9350   0.9419   1.0278   1.0440   1.1180   1.1211   1.1404
     1.2641   1.2848   1.5170   1.5213   1.5685   1.5945   1.6150   1.6586
     1.6931   1.7431   1.7489   1.9810   2.2252   2.2274   2.2300   2.2647
     2.3600   2.3818   2.4959   2.6136   2.8298   2.9002   3.1313   6.9975
     7.1891   7.1927   7.9476   7.9872   8.4030   8.5498   8.5540   8.6890
     8.7830   8.8210   9.2374   9.2490   9.3131   9.4347   9.4698   9.5703
     9.6700

          k = 0.1250-0.5279 0.0000 ( 34632 PWs)   bands (ev):

   -35.7256 -35.7012 -22.7007 -22.6975 -22.5393 -22.4555 -17.1890 -17.1634
   -16.9417 -16.9210 -16.8411 -16.8187 -15.0424 -15.0391 -14.7081 -14.6309
   -14.6275 -14.4886 -14.3969 -14.3164 -14.3093 -14.2055 -14.1881 -14.1821
   -14.1780 -14.1413 -13.1951  -8.1726  -8.1694  -8.0505  -8.0469  -8.0396
    -7.8727  -7.8519  -7.8027  -7.7997  -7.7328  -7.6136  -7.4732  -3.6441
    -3.6308  -3.5872  -3.4202  -3.4174  -3.3247  -3.3212  -2.5085  -2.5074
    -2.1295  -1.9401  -1.9322  -1.8420  -1.7265  -1.7146  -1.6400  -1.6389
    -1.6351  -1.5839  -1.4919  -1.4795  -1.3842  -1.3153  -1.1279  -1.1081
    -1.0581  -1.0555  -1.0125  -0.9598  -0.9580  -0.7924  -0.5577  -0.4809
    -0.4165  -0.3159  -0.2632  -0.0764  -0.0141   0.1044   0.1079   0.1678
     0.2574   0.3328   0.5059   0.5235   0.8144   0.8184   0.8433   0.8499
     0.8826   0.9044   0.9372   1.0411   1.1470   1.1563   1.1890   1.2045
     1.2300   1.3417   1.3912   1.6423   1.6443   1.8687   1.8717   1.8810
     1.8884   1.9225   1.9269   2.0527   2.2271   2.2391   2.3250   2.3769
     2.3920   2.3952   2.4353   2.4479   2.6970   2.7814   3.1093   7.3369
     7.4099   7.4160   8.1167   8.1771   8.4080   8.5104   8.8916   8.9541
     9.1887   9.1921   9.3090   9.4537   9.4826   9.5832   9.7817   9.9278
     9.9306

          k = 0.2500 0.0000 0.0000 ( 34786 PWs)   bands (ev):

   -35.7354 -35.7110 -22.8400 -22.8368 -22.6731 -22.5808 -17.1227 -17.1014
   -17.0340 -17.0134 -16.7753 -16.7493 -15.1282 -15.1175 -14.9350 -14.9157
   -14.8597 -14.7304 -14.7288 -14.3134 -14.3100 -14.1667 -14.1543 -14.0518
   -14.0431 -14.0144 -13.0939  -8.0616  -8.0578  -7.9416  -7.8474  -7.8448
    -7.8422  -7.6899  -7.6867  -7.6488  -7.5136  -7.4653  -7.3279  -2.6783
    -2.6727  -2.5116  -2.4245  -2.3206  -2.3168  -2.0692  -1.8851  -1.8837
    -1.8048  -1.8005  -1.6186  -1.5847  -1.3224  -1.3186  -1.0853  -1.0843
    -1.0495  -0.8827  -0.8824  -0.8785  -0.8125  -0.8059  -0.7470  -0.6393
    -0.6373  -0.4820  -0.4511  -0.4180  -0.4111  -0.3705  -0.3546  -0.3442
    -0.3090  -0.2400  -0.0281  -0.0252   0.0163   0.0604   0.0831   0.1087
     0.2135   0.2159   0.2418   0.2617   0.2671   0.3557   0.4002   0.4315
     0.4344   0.5437   0.5507   0.6537   0.7948   0.7983   0.9294   1.1561
     1.1598   1.1894   1.1917   1.2346   1.2784   1.2984   1.3052   1.3711
     1.4205   1.4796   1.6725   1.7491   1.7798   1.8287   1.9074   1.9093
     2.0089   2.1651   2.1881   2.3243   2.4422   2.5663   2.5814   5.7192
     5.7471   5.7500   6.8732   6.9135   7.4357   7.4447   7.5833   7.8530
     8.3389   8.3532   8.5560   8.6674   8.7372   8.9093   9.1838   9.3904
     9.4386

          k = 0.2500 0.1320 0.0000 ( 34751 PWs)   bands (ev):

   -35.7336 -35.7092 -22.8162 -22.8129 -22.6500 -22.5592 -17.0909 -17.0696
   -17.0274 -17.0067 -16.8412 -16.8154 -15.0736 -15.0650 -14.8931 -14.8687
   -14.8085 -14.6950 -14.6907 -14.2991 -14.2957 -14.1611 -14.1519 -14.0855
   -14.0593 -14.0488 -13.0967  -8.1295  -8.1263  -7.9856  -7.9813  -7.9789
    -7.8512  -7.8076  -7.6727  -7.6562  -7.6531  -7.4874  -7.2797  -2.7310
    -2.7225  -2.5490  -2.4549  -2.3122  -2.3080  -2.2273  -2.2245  -2.1271
    -2.1137  -2.0363  -1.7370  -1.7329  -1.6107  -1.5093  -1.5057  -1.1599
    -1.1303  -1.1143  -1.0701  -1.0505  -1.0362  -0.8671  -0.7429  -0.7421
    -0.6929  -0.6724  -0.4783  -0.4528  -0.3994  -0.3710  -0.3447  -0.3144
    -0.3064  -0.1470  -0.1347  -0.0906  -0.0842  -0.0135   0.0457   0.0729
     0.1172   0.2101   0.2302   0.2542   0.4382   0.5050   0.6291   0.6582
     0.7287   0.7945   0.8029   0.8905   0.9261   0.9884   1.0379   1.0892
     1.0990   1.2494   1.2538   1.2787   1.2912   1.3136   1.3684   1.3736
     1.4008   1.4153   1.4914   1.6186   1.6226   1.6632   2.0189   2.4006
     2.5005   2.5633   2.5834   2.7124   2.7335   2.7726   2.7803   5.9151
     6.0074   6.0098   7.0322   7.0630   7.6982   7.7035   7.8335   8.1338
     8.4451   8.4721   8.6839   8.7731   8.8142   8.9973   9.0693   9.1150
     9.2974

          k = 0.2500 0.2640 0.0000 ( 34733 PWs)   bands (ev):

   -35.7292 -35.7048 -22.7575 -22.7542 -22.5933 -22.5062 -17.0301 -17.0079
   -17.0002 -16.9791 -16.9774 -16.9530 -14.9749 -14.9715 -14.7758 -14.7320
   -14.6822 -14.6059 -14.5860 -14.2779 -14.2720 -14.2144 -14.1987 -14.1346
   -14.0833 -14.0647 -13.1035  -8.3495  -8.3464  -8.1672  -8.0467  -8.0431
    -7.9588  -7.8866  -7.8375  -7.7761  -7.7730  -7.6137  -7.3965  -3.1211
    -3.1055  -2.8928  -2.8447  -2.5525  -2.5490  -2.5251  -2.4231  -2.4183
    -2.3703  -2.3209  -2.2811  -2.2751  -2.0325  -1.5826  -1.5719  -1.5355
    -1.5309  -1.4672  -1.4230  -1.2863  -1.1199  -1.0918  -0.8591  -0.8519
    -0.8477  -0.7949  -0.7147  -0.7071  -0.7028  -0.5911  -0.5674  -0.5314
    -0.5069  -0.4216  -0.3691  -0.1193  -0.0026   0.1748   0.2605   0.2908
     0.4302   0.5119   0.6442   0.6970   0.7075   0.7209   0.8452   0.8577
     0.9591   1.0218   1.0554   1.1358   1.1416   1.1720   1.2427   1.2444
     1.3200   1.3282   1.3651   1.3890   1.3957   1.4581   1.4749   1.5076
     1.5545   1.5886   1.6624   1.7480   1.7505   1.7573   2.1935   2.3884
     2.8594   2.8841   2.9469   3.1424   3.1504   3.2692   3.2773   6.3612
     6.5489   6.5515   7.4196   7.4386   8.2346   8.2366   8.2656   8.5738
     8.6297   8.8294   8.9149   8.9392   9.1071   9.1989   9.2156   9.2464
     9.2876

          k = 0.2500 0.3960 0.0000 ( 34712 PWs)   bands (ev):

   -35.7249 -35.7005 -22.6971 -22.6938 -22.5349 -22.4519 -17.1255 -17.0999
   -16.9930 -16.9721 -16.9160 -16.8946 -14.9276 -14.9259 -14.6421 -14.5598
   -14.5552 -14.5007 -14.4447 -14.3431 -14.3354 -14.2103 -14.1991 -14.1729
   -14.1068 -14.0732 -13.1094  -8.4695  -8.4664  -8.3026  -8.0968  -8.0935
    -8.0632  -7.9902  -7.9870  -7.9036  -7.8622  -7.8291  -7.6368  -3.6191
    -3.6051  -3.3917  -3.3416  -3.2560  -3.0744  -3.0708  -2.5616  -2.5587
    -2.3674  -2.2862  -2.2397  -2.2235  -2.0149  -1.9201  -1.9072  -1.7931
    -1.7578  -1.5821  -1.5529  -1.4262  -1.3076  -1.2930  -1.1126  -1.0240
    -0.9492  -0.9207  -0.9171  -0.9074  -0.9024  -0.7350  -0.6909  -0.5748
    -0.5655  -0.4635  -0.4376  -0.0098   0.1162   0.2203   0.3254   0.3383
     0.5830   0.7382   0.8590   0.8719   0.8756   0.8836   1.0137   1.1181
     1.1241   1.1638   1.1819   1.2020   1.2072   1.3238   1.3936   1.4133
     1.5135   1.5365   1.5725   1.5912   1.6479   1.6576   1.6917   1.7259
     1.7744   1.7758   1.9394   2.1227   2.1483   2.1509   2.1978   2.3209
     2.7029   2.7183   3.0460   3.3656   3.3726   3.5171   3.5215   6.6491
     6.7560   6.7617   7.5631   7.6130   8.2690   8.6589   8.6813   8.7311
     8.8880   8.9583   9.4612   9.5510   9.6128   9.6412   9.6719   9.7496
     9.7695

          k = 0.2500-0.5279 0.0000 ( 34740 PWs)   bands (ev):

   -35.7230 -35.6987 -22.6715 -22.6683 -22.5103 -22.4289 -17.1756 -17.1499
   -16.9875 -16.9665 -16.8767 -16.8553 -14.9244 -14.9221 -14.5958 -14.4839
   -14.4799 -14.4309 -14.3907 -14.3868 -14.3656 -14.1862 -14.1765 -14.1721
   -14.1455 -14.1088 -13.1111  -8.4697  -8.4665  -8.3237  -8.1845  -8.1814
    -8.0568  -8.0534  -8.0363  -7.9618  -7.8991  -7.8817  -7.7877  -3.8183
    -3.8040  -3.6133  -3.5375  -3.5045  -3.3020  -3.2985  -2.5684  -2.5659
    -2.3367  -2.2478  -2.1978  -2.1710  -2.0785  -2.0629  -1.9992  -1.9391
    -1.8927  -1.6063  -1.5776  -1.4802  -1.3830  -1.3699  -1.2044  -1.1159
    -1.0343  -0.9901  -0.9846  -0.9350  -0.9272  -0.7480  -0.6951  -0.5932
    -0.5886  -0.4765  -0.4483   0.0316   0.1460   0.2312   0.3435   0.3752
     0.6143   0.7688   0.9009   0.9143   0.9663   0.9725   1.0793   1.0798
     1.0822   1.1914   1.2197   1.2812   1.2959   1.3902   1.3954   1.3980
     1.4840   1.7306   1.7678   1.7808   1.8070   1.8590   1.8694   1.9089
     1.9266   1.9372   1.9498   2.1021   2.3019   2.3240   2.3271   2.4023
     2.4798   2.5012   3.0238   3.3849   3.3923   3.5535   3.5586   6.6816
     6.7210   6.7273   7.5245   7.5850   8.3427   8.5522   8.9916   9.1170
     9.4060   9.4091   9.4248   9.6119   9.6426   9.7313   9.8180   9.9259
     9.9842

          k = 0.3750 0.0000 0.0000 ( 34726 PWs)   bands (ev):

   -35.7327 -35.7084 -22.7946 -22.7913 -22.6292 -22.5427 -17.1744 -17.1548
   -17.0272 -17.0051 -16.7720 -16.7460 -15.1559 -15.1533 -14.9889 -14.7785
   -14.7650 -14.7340 -14.7212 -14.3279 -14.3224 -14.2661 -14.2548 -14.0802
   -14.0713 -14.0407 -13.2412  -8.0441  -8.0403  -7.9302  -7.8192  -7.7825
    -7.7796  -7.6093  -7.6056  -7.6023  -7.4334  -7.3777  -7.2597  -3.0098
    -3.0009  -2.8779  -2.8131  -2.4402  -2.4386  -2.1177  -1.8098  -1.8090
    -1.7158  -1.6835  -1.6558  -1.6536  -1.3273  -1.3240  -1.3203  -1.1809
    -1.1799  -1.1380  -1.1348  -1.0479  -1.0419  -1.0414  -0.9947  -0.8392
    -0.8374  -0.5834  -0.5431  -0.4953  -0.4457  -0.4172  -0.3903  -0.3451
    -0.3427  -0.3155  -0.0410  -0.0380   0.0028   0.0201   0.0607   0.1215
     0.2433   0.2918   0.2956   0.2960   0.3039   0.3105   0.3188   0.3730
     0.3802   0.5419   0.6096   0.6754   0.9643   1.0663   1.0700   1.0814
     1.0836   1.0987   1.2279   1.2398   1.3158   1.3624   1.3901   1.4783
     1.5431   1.6198   1.6352   1.6783   1.7025   1.7501   1.8203   1.9942
     1.9988   2.2023   2.2267   2.4311   2.5050   2.6798   2.7074   6.2953
     6.3961   6.3984   7.6082   7.6442   7.8883   7.8918   7.9497   8.3110
     8.3682   8.4771   8.6784   8.8550   9.2141   9.3388   9.3586   9.3603
     9.4106

          k = 0.3750 0.1320 0.0000 ( 34759 PWs)   bands (ev):

   -35.7310 -35.7066 -22.7729 -22.7696 -22.6081 -22.5226 -17.1658 -17.1461
   -16.9982 -16.9760 -16.8362 -16.8104 -15.1080 -15.1057 -14.9298 -14.7400
   -14.7217 -14.6720 -14.6611 -14.2985 -14.2938 -14.2453 -14.2345 -14.1117
   -14.0783 -14.0744 -13.2113  -8.1012  -8.0978  -7.9658  -7.9460  -7.9429
    -7.8353  -7.7714  -7.6952  -7.6920  -7.5945  -7.5349  -7.3236  -3.0745
    -3.0623  -2.9208  -2.8475  -2.4394  -2.4375  -2.2038  -2.1872  -2.1115
    -2.0225  -1.9983  -1.7253  -1.7213  -1.6299  -1.5865  -1.5695  -1.4273
    -1.4212  -1.3562  -1.3202  -1.2142  -1.0792  -0.9113  -0.9001  -0.8818
    -0.8450  -0.7912  -0.5424  -0.5283  -0.4417  -0.4082  -0.3937  -0.3746
    -0.3628  -0.1786  -0.1581  -0.0770  -0.0683  -0.0326   0.0435   0.0703
     0.0906   0.3218   0.3347   0.3474   0.5338   0.5461   0.6556   0.6702
     0.6785   0.8065   0.8355   0.9161   1.0173   1.0645   1.0876   1.1012
     1.1150   1.2404   1.2491   1.2516   1.3702   1.4071   1.4178   1.5127
     1.5716   1.5766   1.6293   1.6658   1.6695   1.6709   1.8384   2.4017
     2.5273   2.6444   2.6515   2.8070   2.8127   2.9793   2.9882   6.3793
     6.5446   6.5471   7.6537   7.6761   7.9551   7.9570   7.9939   8.3478
     8.3990   8.6705   8.8524   8.9436   9.1597   9.1959   9.3844   9.4771
     9.5176

          k = 0.3750 0.2640 0.0000 ( 34779 PWs)   bands (ev):

   -35.7266 -35.7022 -22.7196 -22.7163 -22.5563 -22.4735 -17.1455 -17.1257
   -16.9807 -16.9549 -16.9229 -16.9009 -14.9852 -14.9837 -14.7733 -14.6463
   -14.6213 -14.5234 -14.5101 -14.2654 -14.2548 -14.2296 -14.2219 -14.1556
   -14.1182 -14.0744 -13.1360  -8.4022  -8.3991  -8.2221  -8.0811  -8.0778
    -8.0092  -7.9587  -7.9554  -7.9064  -7.8282  -7.8110  -7.5951  -3.4001
    -3.3785  -3.1564  -3.0855  -2.6183  -2.6131  -2.5213  -2.5202  -2.5012
    -2.4900  -2.4871  -2.3593  -2.3569  -2.0878  -1.9070  -1.8926  -1.7292
    -1.7015  -1.3782  -1.3574  -1.1877  -1.1112  -1.0783  -1.0008  -0.9968
    -0.9560  -0.8989  -0.7733  -0.7591  -0.7558  -0.6691  -0.6457  -0.5075
    -0.4971  -0.4592  -0.3863  -0.1090   0.0393   0.2421   0.3737   0.4266
     0.5672   0.6123   0.7125   0.7384   0.8921   0.8996   0.9602   1.0278
     1.0335   1.0951   1.0965   1.1610   1.2553   1.2859   1.2912   1.2970
     1.4955   1.5073   1.5153   1.5380   1.5947   1.6078   1.6305   1.6376
     1.6437   1.6634   1.6937   1.6982   1.7008   1.7465   2.1737   2.3658
     2.8522   2.8880   2.9576   3.5955   3.5983   3.6913   3.6937   6.4170
     6.5895   6.5921   7.4769   7.4927   8.1648   8.2961   8.2981   8.6039
     8.7005   8.9132   9.2872   9.2976   9.3850   9.4448   9.5182   9.6582
     9.6856

          k = 0.3750 0.3960 0.0000 ( 34747 PWs)   bands (ev):

   -35.7223 -35.6979 -22.6649 -22.6617 -22.5033 -22.4232 -17.1283 -17.1075
   -17.1070 -17.0823 -16.8437 -16.8216 -14.8491 -14.8481 -14.5939 -14.5563
   -14.5108 -14.3669 -14.3636 -14.3462 -14.3428 -14.1925 -14.1861 -14.1469
   -14.0856 -14.0828 -13.0561  -8.6681  -8.6649  -8.4988  -8.3329  -8.3300
    -8.2647  -8.1250  -8.0839  -8.0804  -7.9531  -7.9302  -7.8436  -3.8812
    -3.8605  -3.5987  -3.5436  -3.2436  -3.0536  -3.0500  -2.7451  -2.7403
    -2.6320  -2.6074  -2.3883  -2.3865  -2.2190  -2.1996  -2.0650  -1.9613
    -1.9332  -1.3992  -1.3517  -1.3447  -1.3168  -1.3133  -1.1148  -1.0818
    -1.0754  -1.0012  -0.9816  -0.9467  -0.9438  -0.8856  -0.8540  -0.5117
    -0.5054  -0.4674  -0.3637   0.0421   0.1854   0.3106   0.5424   0.5892
     0.8174   0.9987   1.0364   1.0647   1.0984   1.1533   1.1875   1.2347
     1.2428   1.3563   1.3726   1.3742   1.4039   1.4483   1.4666   1.5857
     1.6531   1.6562   1.7263   1.7542   1.8117   1.8634   1.8709   1.9252
     1.9426   1.9546   1.9773   2.0697   2.0728   2.1222   2.2519   2.3771
     2.6871   2.7139   3.0400   4.1074   4.1097   4.1810   4.1820   6.1992
     6.2869   6.2903   7.1978   7.2395   8.3081   8.6251   8.8640   8.8752
     9.1532   9.2302   9.3227   9.3704   9.4151   9.4848   9.5099   9.6093
     9.7659

          k = 0.3750-0.5279 0.0000 ( 34780 PWs)   bands (ev):

   -35.7205 -35.6961 -22.6419 -22.6386 -22.4809 -22.4020 -17.1622 -17.1366
   -17.1156 -17.0956 -16.8084 -16.7863 -14.7869 -14.7861 -14.5280 -14.5250
   -14.4649 -14.3879 -14.3482 -14.3031 -14.2967 -14.1805 -14.1685 -14.1641
   -14.0881 -14.0793 -13.0215  -8.7501  -8.7469  -8.5952  -8.4780  -8.4751
    -8.3324  -8.2546  -8.1143  -8.1100  -8.1054  -7.9431  -7.8664  -4.0871
    -4.0671  -3.8017  -3.7464  -3.5163  -3.2788  -3.2752  -2.7635  -2.7587
    -2.6413  -2.6108  -2.3826  -2.3807  -2.3252  -2.3052  -2.0462  -2.0446
    -2.0154  -1.4961  -1.4448  -1.4285  -1.3610  -1.3565  -1.1783  -1.0936
    -1.0829  -1.0758  -1.0685  -1.0394  -1.0346  -0.9130  -0.8650  -0.4959
    -0.4900  -0.4637  -0.3417   0.0886   0.2170   0.3242   0.5949   0.6799
     0.8900   1.1484   1.1543   1.1707   1.1774   1.2122   1.2199   1.2259
     1.2716   1.4124   1.4272   1.4723   1.4835   1.6602   1.6687   1.6742
     1.7575   1.7635   1.8162   1.9267   1.9303   1.9427   2.0065   2.0113
     2.1043   2.1317   2.1999   2.2596   2.2633   2.2714   2.3157   2.3815
     2.4422   2.4790   3.0030   4.2444   4.2481   4.3320   4.3335   6.0521
     6.1090   6.1113   7.0923   7.1538   8.2946   8.5676   9.0057   9.0286
     9.1986   9.2530   9.2703   9.4750   9.5498   9.5951   9.7245   9.7525
     9.8421

          k =-0.5000 0.0000 0.0000 ( 34714 PWs)   bands (ev):

   -35.7317 -35.7073 -22.7754 -22.7722 -22.6106 -22.5266 -17.2266 -17.2073
   -16.9853 -16.9628 -16.7706 -16.7446 -15.2137 -15.2100 -15.0324 -14.8054
   -14.7678 -14.5098 -14.4975 -14.4591 -14.4356 -14.3064 -14.3028 -14.0890
   -14.0790 -14.0464 -13.2991  -8.0338  -8.0300  -7.9185  -7.8076  -7.7593
    -7.7565  -7.6009  -7.5695  -7.5662  -7.3992  -7.3442  -7.2307  -3.1520
    -3.1431  -3.0227  -2.9622  -2.4647  -2.4634  -2.1279  -1.7831  -1.7668
    -1.7644  -1.7552  -1.5319  -1.5303  -1.4260  -1.3279  -1.3242  -1.3016
    -1.2938  -1.2194  -1.2145  -1.1493  -1.1410  -1.0627  -1.0560  -0.9226
    -0.9207  -0.6517  -0.5973  -0.4975  -0.4717  -0.4335  -0.4183  -0.3529
    -0.3333  -0.3229  -0.0463  -0.0434  -0.0317  -0.0026   0.0080   0.1086
     0.2180   0.2935   0.2945   0.2972   0.3079   0.3114   0.3198   0.3214
     0.4303   0.4697   0.6530   0.7058   1.0195   1.0220   1.0267   1.0358
     1.2141   1.2382   1.2417   1.2587   1.2717   1.4565   1.4661   1.4734
     1.5454   1.5473   1.6424   1.7230   1.7367   1.7860   1.8382   2.0088
     2.0130   2.2047   2.2241   2.4372   2.5010   2.7118   2.7420   6.8432
     7.1674   7.1700   7.2207   7.2230   7.3331   8.1076   8.1678   8.3906
     8.4022   8.8154   8.9380   9.1006   9.3002   9.3198   9.4375   9.4934
     9.5618

          k =-0.5000 0.1320 0.0000 ( 34798 PWs)   bands (ev):

   -35.7299 -35.7055 -22.7547 -22.7514 -22.5904 -22.5073 -17.2174 -17.1980
   -16.9580 -16.9354 -16.8341 -16.8082 -15.1564 -15.1532 -14.9675 -14.7654
   -14.7275 -14.4710 -14.4589 -14.3991 -14.3771 -14.2847 -14.2811 -14.1187
   -14.0843 -14.0788 -13.2567  -8.0726  -8.0690  -7.9405  -7.8887  -7.8859
    -7.8245  -7.7726  -7.7691  -7.7205  -7.6123  -7.4752  -7.4347  -3.2231
    -3.2110  -3.0737  -3.0042  -2.4701  -2.4686  -2.1954  -2.1577  -2.1054
    -1.9654  -1.9458  -1.7199  -1.7159  -1.6514  -1.6331  -1.5786  -1.5431
    -1.5368  -1.4575  -1.4121  -1.2571  -1.0890  -0.9787  -0.9768  -0.8797
    -0.8688  -0.8112  -0.5787  -0.5654  -0.4550  -0.4202  -0.4082  -0.3989
    -0.3952  -0.2021  -0.1713  -0.0838  -0.0587  -0.0365   0.0403   0.0711
     0.0800   0.3940   0.4070   0.4098   0.4427   0.4572   0.5885   0.6334
     0.7198   0.8007   0.8844   0.9268   1.0342   1.0709   1.1123   1.1551
     1.1695   1.1867   1.2703   1.2805   1.3764   1.4914   1.4941   1.5210
     1.5989   1.6240   1.6396   1.7271   1.7490   1.7504   1.7960   2.3928
     2.5314   2.6478   2.6526   2.8222   2.8267   3.0325   3.0418   6.7481
     7.0152   7.0177   7.5028   7.5231   7.5531   8.0275   8.0710   8.2976
     8.3560   8.9327   9.1479   9.2785   9.2950   9.4005   9.5252   9.6211
     9.6519

          k =-0.5000 0.2640 0.0000 ( 34772 PWs)   bands (ev):

   -35.7256 -35.7012 -22.7037 -22.7004 -22.5408 -22.4597 -17.1955 -17.1760
   -16.9774 -16.9515 -16.8868 -16.8644 -15.0047 -15.0026 -14.7941 -14.6699
   -14.6283 -14.3748 -14.3634 -14.2869 -14.2767 -14.2347 -14.2309 -14.2008
   -14.1536 -14.0695 -13.1494  -8.3412  -8.3379  -8.1899  -8.1871  -8.1656
    -8.0226  -8.0189  -7.9985  -7.9562  -7.8904  -7.7875  -7.7832  -3.5387
    -3.5165  -3.3022  -3.2311  -2.6451  -2.6411  -2.5431  -2.5415  -2.4971
    -2.4948  -2.4915  -2.3671  -2.3645  -2.1056  -2.0342  -2.0159  -1.8168
    -1.7842  -1.2974  -1.2708  -1.1421  -1.0774  -1.0749  -1.0620  -1.0337
    -1.0257  -0.9663  -0.7972  -0.7826  -0.7797  -0.6721  -0.6445  -0.5056
    -0.5016  -0.4824  -0.3890  -0.1044   0.0548   0.2637   0.4117   0.4808
     0.6151   0.6509   0.7431   0.7533   0.9677   0.9735   1.0355   1.0407
     1.0468   1.0823   1.1155   1.1288   1.2981   1.3076   1.3390   1.3664
     1.4853   1.5811   1.5854   1.6052   1.6159   1.6308   1.6385   1.6827
     1.6974   1.7497   1.7544   1.7689   1.7746   1.9333   1.9374   2.3365
     2.8440   2.8820   2.9529   3.7355   3.7371   3.8241   3.8265   6.4287
     6.5859   6.5878   7.4013   7.4293   8.1266   8.3324   8.3436   8.5358
     8.9121   9.1716   9.1801   9.4672   9.4796   9.5186   9.5304   9.6647
     9.7952

          k =-0.5000 0.3960 0.0000 ( 34764 PWs)   bands (ev):

   -35.7212 -35.6968 -22.6515 -22.6482 -22.4900 -22.4112 -17.1739 -17.1543
   -17.1062 -17.0806 -16.8116 -16.7891 -14.8203 -14.8196 -14.6091 -14.5863
   -14.4960 -14.3527 -14.3330 -14.2785 -14.2691 -14.1865 -14.1822 -14.1299
   -14.1092 -14.0908 -13.0334  -8.7163  -8.7130  -8.5526  -8.4780  -8.4751
    -8.3086  -8.2628  -8.1005  -8.0975  -8.0967  -7.9443  -7.8555  -4.0130
    -3.9904  -3.7203  -3.6629  -3.2356  -3.0450  -3.0414  -2.8148  -2.8101
    -2.7045  -2.6923  -2.4042  -2.4028  -2.3215  -2.2996  -2.0719  -2.0212
    -1.9895  -1.4047  -1.3493  -1.3272  -1.2245  -1.2183  -1.1883  -1.1647
    -1.0927  -1.0024  -0.9975  -0.9679  -0.9584  -0.9500  -0.9264  -0.4749
    -0.4660  -0.4635  -0.3297   0.0583   0.2085   0.3428   0.6415   0.6971
     0.9148   1.0795   1.1477   1.1533   1.1578   1.2584   1.2602   1.2789
     1.3331   1.3725   1.4493   1.4527   1.4544   1.4571   1.4878   1.6558
     1.7036   1.7454   1.7549   1.7770   1.8607   1.9254   1.9392   1.9684
     2.0373   2.0407   2.0778   2.0896   2.1028   2.1713   2.3023   2.3096
     2.6744   2.7041   3.0335   4.3741   4.3766   4.4261   4.4270   6.0014
     6.0914   6.0932   7.0502   7.0920   8.4293   8.4379   8.8087   8.8289
     9.1922   9.2790   9.3609   9.4036   9.4839   9.5105   9.5638   9.6768
     9.7762

          k =-0.5000-0.5279 0.0000 ( 34796 PWs)   bands (ev):

   -35.7194 -35.6950 -22.6295 -22.6262 -22.4686 -22.3908 -17.1651 -17.1568
   -17.1455 -17.1312 -16.7782 -16.7558 -14.7202 -14.7200 -14.5710 -14.5682
   -14.4008 -14.3787 -14.3496 -14.2522 -14.2421 -14.1753 -14.1636 -14.1595
   -14.0868 -14.0495 -12.9824  -8.8624  -8.8590  -8.7047  -8.5941  -8.5912
    -8.4538  -8.3684  -8.2262  -8.1284  -8.1245  -7.9603  -7.8739  -4.2210
    -4.1990  -3.9193  -3.8636  -3.5105  -3.2693  -3.2657  -2.8470  -2.8423
    -2.7300  -2.7121  -2.4126  -2.3943  -2.3929  -2.3905  -2.0885  -2.0577
    -2.0432  -1.5139  -1.4636  -1.4389  -1.2926  -1.2833  -1.1629  -1.1508
    -1.1356  -1.0904  -1.0875  -1.0683  -1.0592  -0.9902  -0.9379  -0.4663
    -0.4370  -0.4346  -0.3010   0.1055   0.2417   0.3581   0.7190   0.8218
     1.0130   1.2268   1.2325   1.2338   1.2345   1.2688   1.2777   1.3515
     1.4958   1.4973   1.5007   1.5178   1.5422   1.7365   1.7622   1.7758
     1.7824   1.7928   1.8881   1.9058   1.9554   1.9600   2.0567   2.0683
     2.2300   2.2336   2.2468   2.2742   2.2949   2.3121   2.4179   2.4495
     2.4584   2.4601   2.9940   4.5667   4.5711   4.6356   4.6366   5.7941
     5.8637   5.8656   6.9296   6.9930   8.3325   8.5089   8.8997   8.9183
     8.9314   8.9779   9.2862   9.3361   9.3973   9.4903   9.7260   9.8186
     9.9039

     the Fermi energy is     2.4592 ev

!    total energy              =   -1842.80768482 Ry
     Harris-Foulkes estimate   =   -1842.80768482 Ry
     estimated scf accuracy    <          7.1E-11 Ry

     The total energy is the sum of the following terms:

     one-electron contribution =  -28374.20962605 Ry
     hartree contribution      =   14339.44601752 Ry
     xc contribution           =    -621.62292765 Ry
     ewald contribution        =   12813.59008863 Ry
     smearing contrib. (-TS)   =      -0.01123727 Ry

     convergence has been achieved in  39 iterations

     negative rho (up, down):  1.530E-03 0.000E+00

     Forces acting on atoms (cartesian axes, Ry/au):

     atom    1 type  4   force =     0.00000000    0.00000000   -0.00029356
     atom    2 type  3   force =     0.00000000    0.00000000    0.00046511
     atom    3 type  4   force =     0.00000000    0.00000000   -0.00075818
     atom    4 type  1   force =     0.00000000    0.00000000   -0.00048534
     atom    5 type  3   force =     0.00000000    0.00000000    0.00049507
     atom    6 type  4   force =     0.00000000    0.00000000    0.00082656
     atom    7 type  4   force =     0.00000000    0.00000000    0.00108153
     atom    8 type  2   force =     0.00000000    0.00000000   -0.00254577
     atom    9 type  4   force =     0.00000000    0.00000000    0.00369803
     atom   10 type  4   force =     0.00000000    0.00000000    0.00332857
     atom   11 type  3   force =     0.00000000    0.00000000    0.00159890
     atom   12 type  1   force =     0.00000000    0.00000000    0.00884920
     atom   13 type  4   force =     0.00000000    0.00000000   -0.01648684
     atom   14 type  4   force =     0.00000000    0.00000000    0.03386731
     atom   15 type  3   force =     0.00000000    0.00000000   -0.01291060
     atom   16 type  4   force =     0.00000000    0.00000000    0.01392205
     atom   17 type  1   force =     0.00000000    0.00000000   -0.01519861
     atom   18 type  3   force =     0.00000000    0.00000000   -0.01998769
     atom   19 type  4   force =     0.00000000    0.00000000    0.00046046
     atom   20 type  4   force =     0.00000000    0.00000000   -0.00077953
     atom   21 type  2   force =     0.00000000    0.00000000    0.00216055
     atom   22 type  4   force =     0.00000000    0.00000000   -0.00142143
     atom   23 type  4   force =     0.00000000    0.00000000   -0.00019251
     atom   24 type  3   force =     0.00000000    0.00000000   -0.00034677
     atom   25 type  1   force =     0.00000000    0.00000000    0.00039126
     atom   26 type  4   force =     0.00000000    0.00000000    0.00036465
     atom   27 type  3   force =     0.00000000    0.00000000   -0.00010180
     atom   28 type  4   force =     0.00000000    0.00000000   -0.00000062

     Total force =     0.049889     Total SCF correction =     0.000014


     Computing stress (Cartesian axis) and pressure


     negative rho (up, down):  1.530E-03 0.000E+00
          total   stress  (Ry/bohr**3)                   (kbar)     P=       -6.14
   0.00000623   0.00000000   0.00000000            0.92        0.00        0.00
   0.00000000  -0.00007477   0.00000000            0.00      -11.00        0.00
   0.00000000   0.00000000  -0.00005662            0.00        0.00       -8.33


     number of scf cycles    =   2
     number of bfgs steps    =   1

     energy   old            =   -1842.8869342713 Ry
     energy   new            =   -1842.8076848217 Ry

     CASE: energy  _new > energy  _old


 %%%%%%%%%%%%%%%%%%%%%%%%%%%%%%%%%%%%%%%%%%%%%%%%%%%%%%%%%%%%%%%%%%%%%%%%%%%%%%
     Error in routine bfgs (1):
     dE0s is positive which should never happen
 %%%%%%%%%%%%%%%%%%%%%%%%%%%%%%%%%%%%%%%%%%%%%%%%%%%%%%%%%%%%%%%%%%%%%%%%%%%%%%

     stopping ...
