
     Program PWSCF v.6.5 starts on 28Jun2021 at 23:26:13 

     This program is part of the open-source Quantum ESPRESSO suite
     for quantum simulation of materials; please cite
         "P. Giannozzi et al., J. Phys.:Condens. Matter 21 395502 (2009);
         "P. Giannozzi et al., J. Phys.:Condens. Matter 29 465901 (2017);
          URL http://www.quantum-espresso.org", 
     in publications or presentations arising from this work. More details at
     http://www.quantum-espresso.org/quote

     Parallel version (MPI), running on    20 processors

     MPI processes distributed on     4 nodes
     R & G space division:  proc/nbgrp/npool/nimage =      20
     Reading input from CBCO_CuO_cleave_0.25_sep.pwi
Warning: card &CELL ignored
Warning: card     CELL_DYNAMICS = 'BFGS' ignored
Warning: card     PRESS_CONV_THR = 0.5 ignored
Warning: card / ignored

     Current dimensions of program PWSCF are:
     Max number of different atomic species (ntypx) = 10
     Max number of k-points (npk) =  40000
     Max angular momentum in pseudopotentials (lmaxx) =  3

     Subspace diagonalization in iterative solution of the eigenvalue problem:
     one sub-group per band group will be used
     scalapack distributed-memory algorithm (size of sub-group:  4*  4 procs)

     Message from routine setup:
     using ibrav=0 with symmetry is DISCOURAGED, use correct ibrav instead
 
     Parallelization info
     --------------------
     sticks:   dense  smooth     PW     G-vecs:    dense   smooth      PW
     Min         149      50     14                70565    13584    2122
     Max         150      51     15                70602    13609    2165
     Sum        2991    1007    289              1411709   271883   42721
 


     bravais-lattice index     =            0
     lattice parameter (alat)  =       7.4270  a.u.
     unit-cell volume          =    4326.9901 (a.u.)^3
     number of atoms/cell      =           28
     number of atomic types    =            4
     number of electrons       =       227.00
     number of Kohn-Sham states=          137
     kinetic-energy cutoff     =      60.0000  Ry
     charge density cutoff     =     720.0000  Ry
     convergence threshold     =      1.0E-10
     mixing beta               =       0.7000
     number of iterations used =           10  local-TF  mixing
     Exchange-correlation= SLA PW PBE PBE
                           (   1   4   3   4   0   0   0)
     nstep                     =          300


     celldm(1)=   7.427040  celldm(2)=   0.000000  celldm(3)=   0.000000
     celldm(4)=   0.000000  celldm(5)=   0.000000  celldm(6)=   0.000000

     crystal axes: (cart. coord. in units of alat)
               a(1) = (   1.000000   0.000000   0.000000 )  
               a(2) = (   0.000000   0.947081   0.000000 )  
               a(3) = (   0.000000   0.000000  11.151966 )  

     reciprocal axes: (cart. coord. in units 2 pi/alat)
               b(1) = (  1.000000  0.000000  0.000000 )  
               b(2) = (  0.000000  1.055876  0.000000 )  
               b(3) = (  0.000000  0.000000  0.089670 )  


     PseudoPot. # 1 for Ba read from file:
     ./pseudo/Ba.pbe-nsp-van.UPF
     MD5 check sum: 2b9c31dd849566dd297d80989662b7a0
     Pseudo is Ultrasoft + core correction, Zval = 10.0
     Generated by new atomic code, or converted to UPF format
     Using radial grid of  907 points,  6 beta functions with: 
                l(1) =   0
                l(2) =   0
                l(3) =   1
                l(4) =   1
                l(5) =   2
                l(6) =   2
     Q(r) pseudized with  6 coefficients,  rinner =    1.200   1.200   1.200
                                                       1.200   1.200

     PseudoPot. # 2 for Ca read from file:
     ./pseudo/Ca.pbe-nsp-van.UPF
     MD5 check sum: 6471098428ff4fa451746d08035ff179
     Pseudo is Ultrasoft + core correction, Zval = 10.0
     Generated by new atomic code, or converted to UPF format
     Using radial grid of  845 points,  6 beta functions with: 
                l(1) =   0
                l(2) =   0
                l(3) =   1
                l(4) =   1
                l(5) =   2
                l(6) =   2
     Q(r) pseudized with  6 coefficients,  rinner =    1.200   1.200   1.200
                                                       1.200   1.200

     PseudoPot. # 3 for Cu read from file:
     ./pseudo/Cu.pbe-n-van_ak.UPF
     MD5 check sum: 34e3282627ffb533726feb647e090d62
     Pseudo is Ultrasoft + core correction, Zval = 11.0
     Generated by new atomic code, or converted to UPF format
     Using radial grid of  867 points,  6 beta functions with: 
                l(1) =   0
                l(2) =   0
                l(3) =   1
                l(4) =   1
                l(5) =   2
                l(6) =   2
     Q(r) pseudized with  8 coefficients,  rinner =    1.400   1.400   1.400
                                                       1.400   1.400

     PseudoPot. # 4 for O  read from file:
     ./pseudo/O.pbe-van_ak.UPF
     MD5 check sum: 783ce7fe4c79b6a4916957118fed0856
     Pseudo is Ultrasoft, Zval =  6.0
     Generated by new atomic code, or converted to UPF format
     Using radial grid of  737 points,  4 beta functions with: 
                l(1) =   0
                l(2) =   0
                l(3) =   1
                l(4) =   1
     Q(r) pseudized with  8 coefficients,  rinner =    0.800   0.800   0.800


     atomic species   valence    mass     pseudopotential
        Ba            10.00   137.32700     Ba( 1.00)
        Ca            10.00    40.07800     Ca( 1.00)
        Cu            11.00    63.54600     Cu( 1.00)
        O              6.00    15.99900     O ( 1.00)

      4 Sym. Ops. (no inversion) found



   Cartesian axes

     site n.     atom                  positions (alat units)
         1           O   tau(   1) = (   0.0000000   0.4735409  -0.0469745  )
         2           Cu  tau(   2) = (   0.0000000   0.0000000   0.0264565  )
         3           O   tau(   3) = (   0.0000000   0.0000000   0.5030914  )
         4           Ba  tau(   4) = (   0.5000000   0.4735409   0.5690292  )
         5           Cu  tau(   5) = (   0.0000000   0.0000000   1.0374254  )
         6           O   tau(   6) = (   0.5000000   0.0000000   1.0768099  )
         7           O   tau(   7) = (   0.0000000   0.4735409   1.1116985  )
         8           Ca  tau(   8) = (   0.5000000   0.4735409   1.4976260  )
         9           O   tau(   9) = (   0.0000000   0.4735409   1.8667529  )
        10           O   tau(  10) = (   0.5000000   0.0000000   1.9044124  )
        11           Cu  tau(  11) = (   0.0000000   0.0000000   1.9512546  )
        12           Ba  tau(  12) = (   0.5000000   0.4735409   2.4295764  )
        13           O   tau(  13) = (   0.0000000   0.0000000   2.5115362  )
        14           O   tau(  14) = (   0.0000000   0.4735409   2.9918528  )
        15           Cu  tau(  15) = (   0.0000000   0.0000000   2.9919088  )
        16           O   tau(  16) = (   0.0000000   0.0000000   3.5358783  )
        17           Ba  tau(  17) = (   0.5000000   0.4735409   3.6178304  )
        18           Cu  tau(  18) = (   0.0000000   0.0000000   4.0961344  )
        19           O   tau(  19) = (   0.5000000   0.0000000   4.1429766  )
        20           O   tau(  20) = (   0.0000000   0.4735409   4.1806310  )
        21           Ca  tau(  21) = (   0.5000000   0.4735409   4.5497681  )
        22           O   tau(  22) = (   0.0000000   0.4735409   4.9356930  )
        23           O   tau(  23) = (   0.5000000   0.0000000   4.9705816  )
        24           Cu  tau(  24) = (   0.0000000   0.0000000   5.0099687  )
        25           Ba  tau(  25) = (   0.5000000   0.4735409   5.4783624  )
        26           O   tau(  26) = (   0.0000000   0.0000000   5.5442900  )
        27           Cu  tau(  27) = (   0.0000000   0.0000000   6.0209299  )
        28           O   tau(  28) = (   0.0000000   0.4735409   6.0943482  )

     number of k points=    25  Gaussian smearing, width (Ry)=  0.0100
                       cart. coord. in units 2pi/alat
        k(    1) = (   0.0000000   0.0000000   0.0000000), wk =   0.0312500
        k(    2) = (   0.0000000   0.1319845   0.0000000), wk =   0.0625000
        k(    3) = (   0.0000000   0.2639689   0.0000000), wk =   0.0625000
        k(    4) = (   0.0000000   0.3959534   0.0000000), wk =   0.0625000
        k(    5) = (   0.0000000  -0.5279378   0.0000000), wk =   0.0312500
        k(    6) = (   0.1250000   0.0000000   0.0000000), wk =   0.0625000
        k(    7) = (   0.1250000   0.1319845   0.0000000), wk =   0.1250000
        k(    8) = (   0.1250000   0.2639689   0.0000000), wk =   0.1250000
        k(    9) = (   0.1250000   0.3959534   0.0000000), wk =   0.1250000
        k(   10) = (   0.1250000  -0.5279378   0.0000000), wk =   0.0625000
        k(   11) = (   0.2500000   0.0000000   0.0000000), wk =   0.0625000
        k(   12) = (   0.2500000   0.1319845   0.0000000), wk =   0.1250000
        k(   13) = (   0.2500000   0.2639689   0.0000000), wk =   0.1250000
        k(   14) = (   0.2500000   0.3959534   0.0000000), wk =   0.1250000
        k(   15) = (   0.2500000  -0.5279378   0.0000000), wk =   0.0625000
        k(   16) = (   0.3750000   0.0000000   0.0000000), wk =   0.0625000
        k(   17) = (   0.3750000   0.1319845   0.0000000), wk =   0.1250000
        k(   18) = (   0.3750000   0.2639689   0.0000000), wk =   0.1250000
        k(   19) = (   0.3750000   0.3959534   0.0000000), wk =   0.1250000
        k(   20) = (   0.3750000  -0.5279378   0.0000000), wk =   0.0625000
        k(   21) = (  -0.5000000   0.0000000   0.0000000), wk =   0.0312500
        k(   22) = (  -0.5000000   0.1319845   0.0000000), wk =   0.0625000
        k(   23) = (  -0.5000000   0.2639689   0.0000000), wk =   0.0625000
        k(   24) = (  -0.5000000   0.3959534   0.0000000), wk =   0.0625000
        k(   25) = (  -0.5000000  -0.5279378   0.0000000), wk =   0.0312500

     Dense  grid:  1411709 G-vectors     FFT dimensions: (  64,  64, 720)

     Smooth grid:   271883 G-vectors     FFT dimensions: (  40,  36, 432)

     Estimated max dynamical RAM per process >     450.82 MB

     Estimated total dynamical RAM >       8.81 GB

     Initial potential from superposition of free atoms

     starting charge  226.84630, renormalised to  227.00000

     negative rho (up, down):  3.526E-03 0.000E+00
     Starting wfcs are  195 randomized atomic wfcs

     total cpu time spent up to now is        9.9 secs

     Self-consistent Calculation

     iteration #  1     ecut=    60.00 Ry     beta= 0.70
     Davidson diagonalization with overlap
     ethr =  1.00E-02,  avg # of iterations =  2.0

     negative rho (up, down):  2.814E-04 0.000E+00

     total cpu time spent up to now is       25.5 secs

     total energy              =   -1839.41057180 Ry
     Harris-Foulkes estimate   =   -1845.34353357 Ry
     estimated scf accuracy    <      19.10050645 Ry

     iteration #  2     ecut=    60.00 Ry     beta= 0.70
     Davidson diagonalization with overlap
     ethr =  8.41E-03,  avg # of iterations =  2.0

     negative rho (up, down):  2.567E-04 0.000E+00

     total cpu time spent up to now is       41.9 secs

     total energy              =   -1842.04715891 Ry
     Harris-Foulkes estimate   =   -1843.97901258 Ry
     estimated scf accuracy    <      12.06499381 Ry

     iteration #  3     ecut=    60.00 Ry     beta= 0.70
     Davidson diagonalization with overlap
     ethr =  5.31E-03,  avg # of iterations =  2.0

     negative rho (up, down):  2.447E-04 0.000E+00

     total cpu time spent up to now is       56.9 secs

     total energy              =   -1842.67661489 Ry
     Harris-Foulkes estimate   =   -1843.12944878 Ry
     estimated scf accuracy    <       5.01755931 Ry

     iteration #  4     ecut=    60.00 Ry     beta= 0.70
     Davidson diagonalization with overlap
     ethr =  2.21E-03,  avg # of iterations =  1.0

     negative rho (up, down):  2.392E-04 0.000E+00

     total cpu time spent up to now is       70.9 secs

     total energy              =   -1842.85913781 Ry
     Harris-Foulkes estimate   =   -1843.01938179 Ry
     estimated scf accuracy    <       6.49549143 Ry

     iteration #  5     ecut=    60.00 Ry     beta= 0.70
     Davidson diagonalization with overlap
     ethr =  2.21E-03,  avg # of iterations =  1.0

     negative rho (up, down):  2.356E-04 0.000E+00

     total cpu time spent up to now is       85.0 secs

     total energy              =   -1842.90633389 Ry
     Harris-Foulkes estimate   =   -1842.92868877 Ry
     estimated scf accuracy    <       1.09086597 Ry

     iteration #  6     ecut=    60.00 Ry     beta= 0.70
     Davidson diagonalization with overlap
     ethr =  4.81E-04,  avg # of iterations =  1.0

     negative rho (up, down):  2.352E-04 0.000E+00

     total cpu time spent up to now is       99.1 secs

     total energy              =   -1842.90144914 Ry
     Harris-Foulkes estimate   =   -1842.92925849 Ry
     estimated scf accuracy    <       2.72683653 Ry

     iteration #  7     ecut=    60.00 Ry     beta= 0.70
     Davidson diagonalization with overlap
     ethr =  4.81E-04,  avg # of iterations =  1.1

     negative rho (up, down):  2.354E-04 0.000E+00

     total cpu time spent up to now is      113.4 secs

     total energy              =   -1842.90268696 Ry
     Harris-Foulkes estimate   =   -1842.91357256 Ry
     estimated scf accuracy    <       1.07444933 Ry

     iteration #  8     ecut=    60.00 Ry     beta= 0.70
     Davidson diagonalization with overlap
     ethr =  4.73E-04,  avg # of iterations =  1.0

     negative rho (up, down):  2.351E-04 0.000E+00

     total cpu time spent up to now is      127.8 secs

     total energy              =   -1842.89830954 Ry
     Harris-Foulkes estimate   =   -1842.90658896 Ry
     estimated scf accuracy    <       0.56634995 Ry

     iteration #  9     ecut=    60.00 Ry     beta= 0.70
     Davidson diagonalization with overlap
     ethr =  2.49E-04,  avg # of iterations =  1.8

     negative rho (up, down):  2.356E-04 0.000E+00

     total cpu time spent up to now is      142.7 secs

     total energy              =   -1842.89511882 Ry
     Harris-Foulkes estimate   =   -1842.90103412 Ry
     estimated scf accuracy    <       0.24688237 Ry

     iteration # 10     ecut=    60.00 Ry     beta= 0.70
     Davidson diagonalization with overlap
     ethr =  1.09E-04,  avg # of iterations =  6.2

     negative rho (up, down):  2.356E-04 0.000E+00

     total cpu time spent up to now is      162.6 secs

     total energy              =   -1842.89392163 Ry
     Harris-Foulkes estimate   =   -1842.89696437 Ry
     estimated scf accuracy    <       0.05413199 Ry

     iteration # 11     ecut=    60.00 Ry     beta= 0.70
     Davidson diagonalization with overlap
     ethr =  2.38E-05,  avg # of iterations =  7.3

     negative rho (up, down):  2.360E-04 0.000E+00

     total cpu time spent up to now is      184.6 secs

     total energy              =   -1842.89284591 Ry
     Harris-Foulkes estimate   =   -1842.89495221 Ry
     estimated scf accuracy    <       0.08571662 Ry

     iteration # 12     ecut=    60.00 Ry     beta= 0.70
     Davidson diagonalization with overlap
     ethr =  2.38E-05,  avg # of iterations =  1.2

     negative rho (up, down):  2.863E-03 0.000E+00

     total cpu time spent up to now is      198.7 secs

     total energy              =   -1842.89066390 Ry
     Harris-Foulkes estimate   =   -1842.89335153 Ry
     estimated scf accuracy    <       0.08273859 Ry

     iteration # 13     ecut=    60.00 Ry     beta= 0.70
     Davidson diagonalization with overlap
     ethr =  2.38E-05,  avg # of iterations =  3.5

     negative rho (up, down):  9.251E-03 0.000E+00

     total cpu time spent up to now is      215.4 secs

     total energy              =   -1842.89017742 Ry
     Harris-Foulkes estimate   =   -1842.89130394 Ry
     estimated scf accuracy    <       0.01322410 Ry

     iteration # 14     ecut=    60.00 Ry     beta= 0.70
     Davidson diagonalization with overlap
     ethr =  5.83E-06,  avg # of iterations =  8.3

     negative rho (up, down):  9.598E-03 0.000E+00

     total cpu time spent up to now is      238.6 secs

     total energy              =   -1842.88959786 Ry
     Harris-Foulkes estimate   =   -1842.89048184 Ry
     estimated scf accuracy    <       0.01120327 Ry

     iteration # 15     ecut=    60.00 Ry     beta= 0.70
     Davidson diagonalization with overlap
     ethr =  4.94E-06,  avg # of iterations =  3.1

     negative rho (up, down):  1.762E-02 0.000E+00

     total cpu time spent up to now is      254.7 secs

     total energy              =   -1842.88838786 Ry
     Harris-Foulkes estimate   =   -1842.88978339 Ry
     estimated scf accuracy    <       0.00998685 Ry

     iteration # 16     ecut=    60.00 Ry     beta= 0.70
     Davidson diagonalization with overlap
     ethr =  4.40E-06,  avg # of iterations =  8.1

     negative rho (up, down):  2.380E-02 0.000E+00

     total cpu time spent up to now is      278.0 secs

     total energy              =   -1842.88767622 Ry
     Harris-Foulkes estimate   =   -1842.88857628 Ry
     estimated scf accuracy    <       0.00416230 Ry

     iteration # 17     ecut=    60.00 Ry     beta= 0.70
     Davidson diagonalization with overlap
     c_bands:  1 eigenvalues not converged
     ethr =  1.83E-06,  avg # of iterations =  9.8

     negative rho (up, down):  2.015E-02 0.000E+00

     total cpu time spent up to now is      303.7 secs

     total energy              =   -1842.88727085 Ry
     Harris-Foulkes estimate   =   -1842.88778143 Ry
     estimated scf accuracy    <       0.00204667 Ry

     iteration # 18     ecut=    60.00 Ry     beta= 0.70
     Davidson diagonalization with overlap
     c_bands:  1 eigenvalues not converged
     ethr =  9.02E-07,  avg # of iterations =  8.0

     negative rho (up, down):  9.909E-03 0.000E+00

     total cpu time spent up to now is      326.9 secs

     total energy              =   -1842.88689561 Ry
     Harris-Foulkes estimate   =   -1842.88733004 Ry
     estimated scf accuracy    <       0.00214346 Ry

     iteration # 19     ecut=    60.00 Ry     beta= 0.70
     Davidson diagonalization with overlap
     c_bands:  1 eigenvalues not converged
     c_bands:  1 eigenvalues not converged
     ethr =  9.02E-07,  avg # of iterations =  5.9

     negative rho (up, down):  6.685E-03 0.000E+00

     total cpu time spent up to now is      346.8 secs

     total energy              =   -1842.88687507 Ry
     Harris-Foulkes estimate   =   -1842.88702811 Ry
     estimated scf accuracy    <       0.00205606 Ry

     iteration # 20     ecut=    60.00 Ry     beta= 0.70
     Davidson diagonalization with overlap
     c_bands:  1 eigenvalues not converged
     ethr =  9.02E-07,  avg # of iterations =  5.9

     negative rho (up, down):  4.233E-03 0.000E+00

     total cpu time spent up to now is      366.5 secs

     total energy              =   -1842.88691548 Ry
     Harris-Foulkes estimate   =   -1842.88694408 Ry
     estimated scf accuracy    <       0.00068815 Ry

     iteration # 21     ecut=    60.00 Ry     beta= 0.70
     Davidson diagonalization with overlap
     c_bands:  1 eigenvalues not converged
     ethr =  3.03E-07,  avg # of iterations =  4.9

     negative rho (up, down):  2.138E-03 0.000E+00

     total cpu time spent up to now is      385.0 secs

     total energy              =   -1842.88691345 Ry
     Harris-Foulkes estimate   =   -1842.88693122 Ry
     estimated scf accuracy    <       0.00010724 Ry

     iteration # 22     ecut=    60.00 Ry     beta= 0.70
     Davidson diagonalization with overlap
     c_bands:  1 eigenvalues not converged
     ethr =  4.72E-08,  avg # of iterations =  7.5

     negative rho (up, down):  1.423E-03 0.000E+00

     total cpu time spent up to now is      406.8 secs

     total energy              =   -1842.88693214 Ry
     Harris-Foulkes estimate   =   -1842.88692020 Ry
     estimated scf accuracy    <       0.00009119 Ry

     iteration # 23     ecut=    60.00 Ry     beta= 0.70
     Davidson diagonalization with overlap
     c_bands:  1 eigenvalues not converged
     ethr =  4.02E-08,  avg # of iterations =  4.7

     negative rho (up, down):  1.678E-03 0.000E+00

     total cpu time spent up to now is      425.2 secs

     total energy              =   -1842.88693108 Ry
     Harris-Foulkes estimate   =   -1842.88693447 Ry
     estimated scf accuracy    <       0.00001571 Ry

     iteration # 24     ecut=    60.00 Ry     beta= 0.70
     Davidson diagonalization with overlap
     ethr =  6.92E-09,  avg # of iterations =  1.8

     negative rho (up, down):  1.507E-03 0.000E+00

     total cpu time spent up to now is      440.1 secs

     total energy              =   -1842.88693376 Ry
     Harris-Foulkes estimate   =   -1842.88693260 Ry
     estimated scf accuracy    <       0.00000914 Ry

     iteration # 25     ecut=    60.00 Ry     beta= 0.70
     Davidson diagonalization with overlap
     ethr =  4.03E-09,  avg # of iterations =  1.2

     negative rho (up, down):  1.554E-03 0.000E+00

     total cpu time spent up to now is      454.3 secs

     total energy              =   -1842.88693409 Ry
     Harris-Foulkes estimate   =   -1842.88693424 Ry
     estimated scf accuracy    <       0.00000261 Ry

     iteration # 26     ecut=    60.00 Ry     beta= 0.70
     Davidson diagonalization with overlap
     ethr =  1.15E-09,  avg # of iterations =  2.6

     negative rho (up, down):  1.450E-03 0.000E+00

     total cpu time spent up to now is      470.3 secs

     total energy              =   -1842.88693434 Ry
     Harris-Foulkes estimate   =   -1842.88693430 Ry
     estimated scf accuracy    <       0.00000271 Ry

     iteration # 27     ecut=    60.00 Ry     beta= 0.70
     Davidson diagonalization with overlap
     ethr =  1.15E-09,  avg # of iterations =  1.0

     negative rho (up, down):  1.509E-03 0.000E+00

     total cpu time spent up to now is      484.5 secs

     total energy              =   -1842.88693426 Ry
     Harris-Foulkes estimate   =   -1842.88693441 Ry
     estimated scf accuracy    <       0.00000104 Ry

     iteration # 28     ecut=    60.00 Ry     beta= 0.70
     Davidson diagonalization with overlap
     ethr =  4.57E-10,  avg # of iterations =  1.4

     negative rho (up, down):  1.538E-03 0.000E+00

     total cpu time spent up to now is      499.2 secs

     total energy              =   -1842.88693423 Ry
     Harris-Foulkes estimate   =   -1842.88693430 Ry
     estimated scf accuracy    <       0.00000034 Ry

     iteration # 29     ecut=    60.00 Ry     beta= 0.70
     Davidson diagonalization with overlap
     ethr =  1.50E-10,  avg # of iterations =  2.3

     negative rho (up, down):  1.539E-03 0.000E+00

     total cpu time spent up to now is      515.3 secs

     total energy              =   -1842.88693425 Ry
     Harris-Foulkes estimate   =   -1842.88693426 Ry
     estimated scf accuracy    <       0.00000009 Ry

     iteration # 30     ecut=    60.00 Ry     beta= 0.70
     Davidson diagonalization with overlap
     ethr =  4.05E-11,  avg # of iterations =  2.5

     negative rho (up, down):  1.551E-03 0.000E+00

     total cpu time spent up to now is      531.2 secs

     total energy              =   -1842.88693424 Ry
     Harris-Foulkes estimate   =   -1842.88693426 Ry
     estimated scf accuracy    <       0.00000006 Ry

     iteration # 31     ecut=    60.00 Ry     beta= 0.70
     Davidson diagonalization with overlap
     ethr =  2.43E-11,  avg # of iterations =  1.2

     negative rho (up, down):  1.549E-03 0.000E+00

     total cpu time spent up to now is      545.5 secs

     total energy              =   -1842.88693424 Ry
     Harris-Foulkes estimate   =   -1842.88693424 Ry
     estimated scf accuracy    <       0.00000001 Ry

     iteration # 32     ecut=    60.00 Ry     beta= 0.70
     Davidson diagonalization with overlap
     ethr =  5.78E-12,  avg # of iterations =  2.9

     negative rho (up, down):  1.546E-03 0.000E+00

     total cpu time spent up to now is      562.3 secs

     total energy              =   -1842.88693425 Ry
     Harris-Foulkes estimate   =   -1842.88693424 Ry
     estimated scf accuracy    <       0.00000003 Ry

     iteration # 33     ecut=    60.00 Ry     beta= 0.70
     Davidson diagonalization with overlap
     ethr =  5.78E-12,  avg # of iterations =  1.1

     negative rho (up, down):  1.542E-03 0.000E+00

     total cpu time spent up to now is      576.6 secs

     total energy              =   -1842.88693425 Ry
     Harris-Foulkes estimate   =   -1842.88693425 Ry
     estimated scf accuracy    <          5.7E-09 Ry

     iteration # 34     ecut=    60.00 Ry     beta= 0.70
     Davidson diagonalization with overlap
     ethr =  2.53E-12,  avg # of iterations =  1.1

     negative rho (up, down):  1.533E-03 0.000E+00

     total cpu time spent up to now is      590.9 secs

     total energy              =   -1842.88693426 Ry
     Harris-Foulkes estimate   =   -1842.88693425 Ry
     estimated scf accuracy    <          2.4E-09 Ry

     iteration # 35     ecut=    60.00 Ry     beta= 0.70
     Davidson diagonalization with overlap
     ethr =  1.06E-12,  avg # of iterations =  1.4

     negative rho (up, down):  1.531E-03 0.000E+00

     total cpu time spent up to now is      605.5 secs

     total energy              =   -1842.88693427 Ry
     Harris-Foulkes estimate   =   -1842.88693426 Ry
     estimated scf accuracy    <          1.6E-09 Ry

     iteration # 36     ecut=    60.00 Ry     beta= 0.70
     Davidson diagonalization with overlap
     ethr =  6.93E-13,  avg # of iterations =  1.0

     negative rho (up, down):  1.529E-03 0.000E+00

     total cpu time spent up to now is      619.7 secs

     total energy              =   -1842.88693427 Ry
     Harris-Foulkes estimate   =   -1842.88693427 Ry
     estimated scf accuracy    <          5.9E-10 Ry

     iteration # 37     ecut=    60.00 Ry     beta= 0.70
     Davidson diagonalization with overlap
     ethr =  2.61E-13,  avg # of iterations =  1.6

     negative rho (up, down):  1.528E-03 0.000E+00

     total cpu time spent up to now is      634.4 secs

     total energy              =   -1842.88693427 Ry
     Harris-Foulkes estimate   =   -1842.88693427 Ry
     estimated scf accuracy    <          2.2E-10 Ry

     iteration # 38     ecut=    60.00 Ry     beta= 0.70
     Davidson diagonalization with overlap
     ethr =  1.00E-13,  avg # of iterations =  1.8

     negative rho (up, down):  1.527E-03 0.000E+00

     total cpu time spent up to now is      648.9 secs

     End of self-consistent calculation

          k = 0.0000 0.0000 0.0000 ( 34019 PWs)   bands (ev):

   -35.5388 -35.5290 -22.7312 -22.7302 -22.4842 -22.4269 -17.0424 -17.0334
   -16.5903 -16.5808 -16.5788 -16.5686 -15.2497 -15.2426 -14.6423 -14.6117
   -14.6088 -14.5220 -14.5128 -14.1209 -14.1200 -13.9266 -13.9225 -13.7785
   -13.7654 -13.6805 -13.2122  -7.8626  -7.8615  -7.8249  -7.8240  -7.6594
    -7.6320  -7.6310  -7.6226  -7.5361  -7.4430  -7.3668  -7.2701  -2.2689
    -2.2684  -1.9060  -1.7717  -1.7705  -1.7276  -1.7183  -1.6146  -1.6081
    -1.4928  -1.4794  -1.4356  -1.4285  -1.1596  -1.1584  -0.8659  -0.8044
    -0.4521  -0.3978  -0.3971  -0.3155  -0.3155  -0.2693  -0.2601  -0.2383
    -0.2067  -0.2044  -0.2039  -0.2033  -0.1980  -0.1862  -0.1218  -0.1024
     0.0236   0.0239   0.0656   0.0920   0.1582   0.1592   0.1598   0.1607
     0.1858   0.2163   0.2305   0.2331   0.3388   0.3549   0.3736   0.3840
     0.6773   0.8037   0.8729   0.9424   0.9432   1.0038   1.0419   1.2379
     1.2414   1.4028   1.4094   1.4267   1.4401   1.5463   1.5570   1.5741
     1.5875   1.6085   1.6126   1.8595   1.8782   1.9640   2.0963   2.0986
     2.2189   2.2399   2.3300   2.3354   2.3451   2.5945   2.6015   5.2729
     5.2796   5.7908   6.2583   6.4717   6.8182   6.8266   7.1908   7.2973
     8.0296   8.1523   8.3221   8.3690   8.5666   8.6811   8.7576   9.1592
     9.3491

          k = 0.0000 0.1320 0.0000 ( 34015 PWs)   bands (ev):

   -35.5370 -35.5272 -22.7045 -22.7035 -22.4586 -22.4022 -17.0063 -16.9973
   -16.6513 -16.6411 -16.5879 -16.5784 -15.1610 -15.1541 -14.6199 -14.6166
   -14.5853 -14.4949 -14.4844 -14.1305 -14.1294 -13.9308 -13.9273 -13.8278
   -13.8060 -13.7232 -13.2680  -7.8622  -7.8611  -7.7770  -7.7761  -7.6745
    -7.6732  -7.6599  -7.6179  -7.4909  -7.4152  -7.3999  -7.3115  -2.3278
    -2.3269  -2.1327  -2.1171  -2.0475  -2.0170  -1.8821  -1.5938  -1.5879
    -1.5839  -1.5827  -1.4763  -1.4754  -1.4620  -1.2901  -1.2643  -0.8768
    -0.6623  -0.5715  -0.5598  -0.4952  -0.4946  -0.4016  -0.4009  -0.3419
    -0.3032  -0.2800  -0.2562  -0.1565  -0.1291  -0.1056  -0.0897  -0.0871
    -0.0862   0.0450   0.0454   0.0602   0.0656   0.1533   0.1828   0.1837
     0.1865   0.2011   0.2284   0.2292   0.3287   0.3408   0.4178   0.4257
     0.9377   1.0001   1.0038   1.0929   1.1360   1.1398   1.1405   1.1993
     1.2181   1.2368   1.2484   1.4785   1.5000   1.5148   1.5363   1.6148
     1.6543   1.6616   1.7608   1.8285   1.8621   1.9350   2.0410   2.0558
     2.0671   2.1251   2.1934   2.5966   2.8219   2.8828   2.9074   5.6526
     5.6545   6.1073   6.5653   6.6888   7.1244   7.1297   7.5137   7.5850
     8.2037   8.3447   8.5274   8.5752   8.7879   8.8347   9.0032   9.2906
     9.4793

          k = 0.0000 0.2640 0.0000 ( 33931 PWs)   bands (ev):

   -35.5326 -35.5228 -22.6386 -22.6376 -22.3956 -22.3414 -16.9144 -16.9054
   -16.8054 -16.7953 -16.5823 -16.5728 -14.9599 -14.9544 -14.6685 -14.6642
   -14.4615 -14.4291 -14.4171 -14.1183 -14.1161 -13.9689 -13.9672 -13.9550
   -13.8972 -13.7933 -13.3923  -7.8618  -7.8607  -7.7646  -7.7636  -7.6639
    -7.6566  -7.6557  -7.6066  -7.5205  -7.4005  -7.3773  -7.2920  -2.7759
    -2.7712  -2.6174  -2.5708  -2.4716  -2.3678  -2.3671  -2.2203  -2.2195
    -1.9051  -1.5388  -1.5342  -1.4850  -1.4322  -1.4195  -1.4058  -1.2871
    -0.9559  -0.8758  -0.7595  -0.7471  -0.7462  -0.6654  -0.5996  -0.5931
    -0.5282  -0.4927  -0.4854  -0.4440  -0.4380  -0.4360  -0.4294  -0.2780
    -0.2447   0.0733   0.0737   0.0976   0.1166   0.1524   0.1555   0.2404
     0.2463   0.2819   0.4231   0.4352   0.6667   0.6763   0.7557   0.7626
     1.0222   1.0297   1.0980   1.1736   1.1934   1.1978   1.2253   1.2270
     1.2649   1.2803   1.3392   1.3880   1.4184   1.5022   1.6341   1.7263
     1.7901   1.8118   1.8796   1.9553   1.9637   1.9994   2.0255   2.0341
     2.0350   2.1458   2.2869   2.7130   3.0935   3.1078   3.5870   6.5473
     6.5481   6.8142   7.3524   7.3662   7.9470   7.9501   8.3669   8.4069
     8.7077   8.8230   8.8493   8.9516   9.0639   9.1774   9.3659   9.3744
     9.4143

          k = 0.0000 0.3960 0.0000 ( 33860 PWs)   bands (ev):

   -35.5282 -35.5183 -22.5704 -22.5694 -22.3304 -22.2788 -16.9418 -16.9316
   -16.8127 -16.8038 -16.5766 -16.5671 -14.8747 -14.8736 -14.6339 -14.6223
   -14.4318 -14.3643 -14.2783 -14.0851 -14.0623 -14.0528 -14.0437 -14.0322
   -13.9913 -13.8610 -13.4999  -7.8617  -7.8606  -7.8428  -7.8418  -7.6646
    -7.6137  -7.5939  -7.5281  -7.5272  -7.4782  -7.2570  -7.1780  -3.2757
    -3.2301  -3.2241  -3.0146  -3.0057  -2.9351  -2.9340  -2.3109  -2.3105
    -1.9396  -1.7962  -1.7578  -1.6587  -1.4728  -1.4686  -1.3256  -1.3097
    -1.1909  -1.0861  -1.0167  -1.0154  -0.9197  -0.8282  -0.8138  -0.8115
    -0.7909  -0.7176  -0.7130  -0.6920  -0.6804  -0.6578  -0.6011  -0.2942
    -0.2622  -0.0578   0.0902   0.0908   0.1091   0.1807   0.1881   0.2085
     0.2219   0.2417   0.5469   0.5590   0.8341   0.8416   0.9751   0.9828
     1.0123   1.0223   1.0539   1.1112   1.1349   1.1541   1.1963   1.1969
     1.1990   1.4184   1.6099   1.6152   1.6731   1.6949   1.7711   1.7829
     1.7916   1.8101   1.9740   2.0185   2.0332   2.0401   2.2796   2.2857
     2.3200   2.4284   2.4293   2.6224   2.9850   3.0045   4.0135   7.4867
     7.4945   7.5191   8.2986   8.3241   8.6948   8.7399   8.7565   9.1371
     9.1429   9.1459   9.1542   9.2357   9.4435   9.5191   9.5523   9.5795
     9.7632

          k = 0.0000-0.5279 0.0000 ( 33926 PWs)   bands (ev):

   -35.5263 -35.5165 -22.5415 -22.5405 -22.3028 -22.2522 -16.9939 -16.9837
   -16.7678 -16.7589 -16.5743 -16.5648 -14.9166 -14.9152 -14.5169 -14.5124
   -14.4644 -14.3562 -14.1866 -14.1251 -14.0799 -14.0784 -14.0612 -14.0126
   -14.0113 -13.9154 -13.5410  -7.8725  -7.8714  -7.8613  -7.8602  -7.6561
    -7.6558  -7.5887  -7.5089  -7.4722  -7.4713  -7.2048  -7.1287  -3.5407
    -3.4084  -3.4070  -3.1886  -3.1816  -3.1610  -3.1580  -2.3271  -2.3267
    -1.9521  -1.9193  -1.8864  -1.7945  -1.4394  -1.4348  -1.2881  -1.2514
    -1.2285  -1.1766  -1.1411  -1.1396  -0.9952  -0.9561  -0.9385  -0.9317
    -0.8363  -0.7831  -0.7818  -0.7765  -0.7757  -0.7334  -0.6793  -0.2598
    -0.2255  -0.1380   0.0930   0.0958   0.0964   0.1745   0.1865   0.2254
     0.2323   0.2415   0.4739   0.4836   0.8591   0.8706   0.9054   0.9172
     0.9635   1.0638   1.0715   1.0808   1.1793   1.1799   1.2107   1.3396
     1.3769   1.4020   1.5760   1.6117   1.7697   1.7892   1.7912   1.8301
     2.0682   2.0693   2.0718   2.0730   2.0924   2.1138   2.1193   2.3016
     2.4582   2.5648   2.5900   2.5909   2.8055   2.8283   4.1368   7.8681
     7.9067   7.9120   8.5534   8.9118   8.9983   9.0109   9.0531   9.0531
     9.0621   9.2423   9.3754   9.4036   9.4411   9.5030   9.9465  10.0595
    10.1809

          k = 0.1250 0.0000 0.0000 ( 34005 PWs)   bands (ev):

   -35.5377 -35.5279 -22.7131 -22.7121 -22.4668 -22.4107 -17.0090 -17.0000
   -16.6705 -16.6612 -16.5774 -16.5672 -15.1471 -15.1402 -14.6617 -14.6575
   -14.6502 -14.5281 -14.5183 -14.1299 -14.1289 -13.9380 -13.9343 -13.7987
   -13.7866 -13.7186 -13.2670  -7.8883  -7.8872  -7.7631  -7.7621  -7.6909
    -7.6457  -7.5995  -7.5986  -7.4706  -7.3924  -7.3361  -7.2415  -2.3117
    -2.3112  -1.9658  -1.8136  -1.8117  -1.7684  -1.7506  -1.7490  -1.7249
    -1.6976  -1.6891  -1.4034  -1.3956  -1.1575  -1.1563  -0.8871  -0.8426
    -0.5828  -0.5745  -0.4718  -0.4533  -0.4531  -0.3934  -0.3423  -0.3370
    -0.2788  -0.2782  -0.2740  -0.2139  -0.2079  -0.1806  -0.1387  -0.1144
    -0.0087   0.0058   0.0577   0.1162   0.1526   0.1535   0.1654   0.1817
     0.2546   0.2552   0.2725   0.2804   0.4083   0.4231   0.4606   0.4833
     0.5984   0.8477   0.8540   0.9059   0.9689   1.0326   1.0952   1.2396
     1.2465   1.2690   1.2843   1.4179   1.4264   1.5273   1.5397   1.5690
     1.5995   1.6178   1.8618   1.9475   1.9817   2.0469   2.0500   2.1321
     2.1773   2.1962   2.2594   2.3815   2.3992   2.6309   2.6336   5.4561
     5.4586   6.0033   6.4866   6.6248   7.0351   7.0389   7.3957   7.5193
     8.1755   8.2814   8.4760   8.5481   8.8336   8.8557   9.0313   9.2533
     9.5540

          k = 0.1250 0.1320 0.0000 ( 33966 PWs)   bands (ev):

   -35.5359 -35.5261 -22.6873 -22.6863 -22.4420 -22.3867 -16.9739 -16.9649
   -16.6735 -16.6640 -16.6406 -16.6306 -15.0656 -15.0591 -14.6532 -14.6509
   -14.6012 -14.4982 -14.4875 -14.1309 -14.1299 -13.9422 -13.9397 -13.8423
   -13.8230 -13.7527 -13.3089  -7.9075  -7.9065  -7.8255  -7.8244  -7.6886
    -7.6438  -7.5631  -7.5607  -7.5593  -7.4839  -7.2971  -7.1989  -2.3647
    -2.3635  -2.1361  -2.1082  -2.0373  -1.9979  -1.8979  -1.7925  -1.7903
    -1.7379  -1.7037  -1.5780  -1.5768  -1.4851  -1.2855  -1.2623  -0.9268
    -0.7537  -0.7162  -0.6827  -0.6165  -0.6128  -0.5056  -0.4957  -0.4427
    -0.4417  -0.3646  -0.2883  -0.2142  -0.2006  -0.1530  -0.1292  -0.0822
    -0.0274   0.0184   0.0312   0.0625   0.0690   0.1866   0.1974   0.2143
     0.2281   0.2579   0.2651   0.2891   0.3412   0.3529   0.5656   0.5846
     0.9324   1.0359   1.0816   1.0958   1.1102   1.1842   1.2098   1.2705
     1.2911   1.3227   1.3320   1.3522   1.3621   1.3769   1.4070   1.6421
     1.6527   1.6617   1.7216   1.7223   1.8227   1.8288   2.0484   2.3603
     2.3979   2.4066   2.5341   2.6527   2.8370   2.8883   2.9128   5.7956
     5.7966   6.2588   6.7463   6.8181   7.3320   7.3343   7.7092   7.8044
     8.3473   8.4631   8.6569   8.7276   8.9379   9.0241   9.2110   9.3322
     9.4893

          k = 0.1250 0.2640 0.0000 ( 33895 PWs)   bands (ev):

   -35.5315 -35.5217 -22.6234 -22.6224 -22.3808 -22.3276 -16.8849 -16.8758
   -16.8023 -16.7923 -16.6531 -16.6438 -14.8892 -14.8846 -14.6563 -14.6507
   -14.4711 -14.4217 -14.4135 -14.1135 -14.1120 -13.9924 -13.9882 -13.9444
   -13.8950 -13.8045 -13.4034  -7.9765  -7.9755  -7.8625  -7.8615  -7.7183
    -7.6616  -7.6223  -7.5913  -7.5523  -7.5513  -7.2925  -7.1941  -2.7997
    -2.7945  -2.6176  -2.5768  -2.4682  -2.3683  -2.3676  -2.2197  -2.2189
    -1.9339  -1.7424  -1.7408  -1.6950  -1.6506  -1.4743  -1.4383  -1.2963
    -0.9849  -0.9336  -0.9250  -0.8905  -0.8173  -0.8047  -0.7442  -0.6892
    -0.6331  -0.6319  -0.5353  -0.5234  -0.4604  -0.4455  -0.3880  -0.2790
    -0.2595  -0.0941  -0.0432   0.0119   0.0972   0.1836   0.2469   0.2602
     0.4131   0.4733   0.5479   0.5545   0.7944   0.8058   0.8507   0.8548
     1.0106   1.0817   1.0826   1.1565   1.1655   1.2591   1.3539   1.3610
     1.3726   1.3869   1.4474   1.4600   1.4832   1.5588   1.5795   1.6430
     1.6540   1.6918   1.7101   1.8848   1.9977   1.9999   2.0767   2.3702
     2.5935   2.6040   2.7516   2.8738   3.1010   3.1207   3.5840   6.6083
     6.6091   6.8141   7.4329   7.4426   8.1125   8.1139   8.5550   8.5950
     8.8211   8.8901   8.8976   8.9972   9.1194   9.1522   9.2187   9.2735
     9.4298

          k = 0.1250 0.3960 0.0000 ( 33906 PWs)   bands (ev):

   -35.5271 -35.5173 -22.5575 -22.5565 -22.3177 -22.2667 -16.9366 -16.9264
   -16.7862 -16.7773 -16.6445 -16.6352 -14.8395 -14.8385 -14.5603 -14.5473
   -14.4080 -14.3464 -14.2712 -14.0893 -14.0872 -14.0673 -14.0471 -14.0240
   -13.9750 -13.8545 -13.4858  -8.0069  -8.0059  -7.8741  -7.8730  -7.7698
    -7.6701  -7.6274  -7.6158  -7.5974  -7.5964  -7.3302  -7.2456  -3.2872
    -3.2717  -3.2440  -3.0420  -3.0312  -2.9265  -2.9255  -2.3192  -2.3188
    -1.9621  -1.7353  -1.7321  -1.7077  -1.5989  -1.5945  -1.5478  -1.4709
    -1.2723  -1.2673  -1.1476  -1.1313  -1.1094  -1.0463  -0.9561  -0.8166
    -0.8130  -0.8003  -0.7834  -0.7569  -0.6989  -0.6940  -0.5473  -0.3251
    -0.3033  -0.1488  -0.0660   0.0396   0.1338   0.1925   0.2629   0.2655
     0.4493   0.5165   0.7243   0.7386   0.9105   0.9612   0.9691   1.0249
     1.0335   1.1112   1.1158   1.2072   1.2344   1.2867   1.2888   1.3101
     1.4154   1.4717   1.6279   1.7042   1.7075   1.7748   1.7784   1.7972
     1.8805   1.9260   1.9473   2.0625   2.2662   2.3955   2.3964   2.4590
     2.5415   2.5527   2.7162   2.7912   3.0335   3.0677   3.9978   7.2688
     7.3587   7.3637   8.1660   8.1947   8.6988   8.7220   8.7386   8.9489
     9.0018   9.1964   9.4180   9.4481   9.6007   9.6203   9.7100   9.7551
     9.8863

          k = 0.1250-0.5279 0.0000 ( 33848 PWs)   bands (ev):

   -35.5253 -35.5155 -22.5295 -22.5285 -22.2909 -22.2409 -16.9882 -16.9780
   -16.7429 -16.7340 -16.6408 -16.6315 -14.8718 -14.8705 -14.4436 -14.4396
   -14.4236 -14.3271 -14.1675 -14.1343 -14.1128 -14.0836 -14.0532 -14.0130
   -14.0118 -13.9007 -13.5167  -8.0016  -8.0006  -7.8789  -7.8778  -7.7786
    -7.6623  -7.6355  -7.6318  -7.6309  -7.6135  -7.3540  -7.2821  -3.5345
    -3.4575  -3.4537  -3.2213  -3.2108  -3.1554  -3.1541  -2.3402  -2.3398
    -1.9732  -1.7798  -1.7626  -1.7467  -1.5548  -1.5429  -1.4640  -1.4539
    -1.4315  -1.3868  -1.3114  -1.2839  -1.2211  -1.1333  -1.0503  -0.9049
    -0.8887  -0.8876  -0.8674  -0.7917  -0.7874  -0.7829  -0.5990  -0.3147
    -0.2837  -0.1676  -0.0759   0.0573   0.1477   0.2012   0.2732   0.2749
     0.4520   0.5193   0.6968   0.7055   0.9323   0.9863   0.9902   1.0166
     1.0177   1.0643   1.0863   1.1162   1.3158   1.3231   1.3856   1.4082
     1.4319   1.5068   1.5347   1.8304   1.8334   1.9540   2.0608   2.0648
     2.0770   2.0838   2.0966   2.0993   2.4034   2.4069   2.4386   2.5576
     2.5609   2.5619   2.5852   2.6201   2.9073   2.9460   4.1145   7.4256
     7.5804   7.5832   8.3478   8.3805   8.6716   9.0769   9.0860   9.1416
     9.3615   9.3660   9.5486   9.6611   9.7434   9.8259  10.0378  10.1416
    10.1798

          k = 0.2500 0.0000 0.0000 ( 34032 PWs)   bands (ev):

   -35.5351 -35.5253 -22.6688 -22.6678 -22.4241 -22.3710 -16.9239 -16.9147
   -16.8345 -16.8256 -16.5741 -16.5639 -14.9457 -14.9415 -14.7483 -14.7385
   -14.7058 -14.5478 -14.5424 -14.1441 -14.1430 -13.9841 -13.9781 -13.8458
   -13.8318 -13.7916 -13.3874  -7.8899  -7.8887  -7.7330  -7.6765  -7.6755
    -7.6291  -7.5188  -7.5178  -7.3927  -7.3018  -7.2600  -7.1706  -2.5058
    -2.5041  -2.2983  -2.2419  -2.1492  -2.1484  -1.8803  -1.6931  -1.6906
    -1.6053  -1.5985  -1.4208  -1.4038  -1.1542  -1.1530  -0.9501  -0.9497
    -0.8938  -0.8694  -0.7094  -0.7089  -0.6709  -0.6075  -0.5975  -0.5706
    -0.5011  -0.4701  -0.4695  -0.2954  -0.2532  -0.1921  -0.1895  -0.1787
    -0.1479  -0.1284   0.0412   0.1387   0.1399   0.1408   0.2457   0.2469
     0.3844   0.3846   0.4721   0.4861   0.4897   0.5023   0.5257   0.6032
     0.6100   0.7190   0.7218   0.9599   0.9841   1.0402   1.1226   1.3046
     1.3380   1.3422   1.3665   1.3712   1.4654   1.4781   1.4839   1.5438
     1.6122   1.6434   1.7835   1.9349   1.9428   2.0501   2.0866   2.0971
     2.1008   2.3379   2.3824   2.5432   2.5619   2.7384   2.7418   5.9147
     5.9155   6.4597   7.0856   7.1098   7.6134   7.6152   7.9648   8.1172
     8.5456   8.5509   8.7674   8.9610   9.2841   9.2850   9.3708   9.6392
     9.6480

          k = 0.2500 0.1320 0.0000 ( 33975 PWs)   bands (ev):

   -35.5333 -35.5235 -22.6450 -22.6440 -22.4012 -22.3486 -16.8919 -16.8827
   -16.8280 -16.8191 -16.6402 -16.6300 -14.8941 -14.8909 -14.7015 -14.6897
   -14.6472 -14.5115 -14.5065 -14.1299 -14.1289 -13.9823 -13.9789 -13.8745
   -13.8617 -13.8106 -13.3998  -7.9583  -7.9573  -7.8134  -7.8123  -7.7601
    -7.6446  -7.5696  -7.4949  -7.4851  -7.4841  -7.2285  -7.1296  -2.5563
    -2.5532  -2.3368  -2.2754  -2.1405  -2.1395  -2.0392  -2.0364  -1.9315
    -1.9112  -1.8462  -1.5685  -1.5672  -1.5054  -1.3397  -1.3312  -1.0530
    -0.9664  -0.9600  -0.9196  -0.8607  -0.8441  -0.8374  -0.7202  -0.5697
    -0.5668  -0.5006  -0.4345  -0.3288  -0.3089  -0.2779  -0.2197  -0.1560
    -0.1517   0.0269   0.0310   0.0820   0.1051   0.1767   0.2395   0.2422
     0.2869   0.3106   0.3902   0.3922   0.6271   0.6703   0.8203   0.8387
     0.8480   0.9616   0.9711   1.0560   1.1093   1.1622   1.2351   1.2606
     1.2984   1.4277   1.4372   1.4481   1.4794   1.4891   1.5386   1.5408
     1.5870   1.5952   1.6449   1.7910   1.7921   1.8862   2.0482   2.4831
     2.7143   2.7310   2.8790   2.9127   2.9170   2.9505   2.9830   6.1759
     6.1767   6.5690   7.2404   7.2531   7.8713   7.8726   8.2457   8.3769
     8.6609   8.6727   8.9069   9.0906   9.1708   9.2672   9.3971   9.4276
     9.5186

          k = 0.2500 0.2640 0.0000 ( 33963 PWs)   bands (ev):

   -35.5289 -35.5191 -22.5863 -22.5853 -22.3446 -22.2937 -16.8287 -16.8190
   -16.8028 -16.7941 -16.7767 -16.7669 -14.8024 -14.8011 -14.5676 -14.5508
   -14.4975 -14.4190 -14.4108 -14.1056 -14.1040 -14.0330 -14.0275 -13.9246
   -13.8951 -13.8315 -13.4283  -8.1784  -8.1775  -7.9166  -7.8751  -7.8741
    -7.8165  -7.6573  -7.6210  -7.6050  -7.6039  -7.3512  -7.2494  -2.9382
    -2.9308  -2.6893  -2.6518  -2.4555  -2.3817  -2.3808  -2.2528  -2.2517
    -2.1626  -2.1303  -2.1092  -2.1051  -1.8555  -1.3987  -1.3931  -1.3685
    -1.3622  -1.3461  -1.2445  -1.1693  -0.9814  -0.9074  -0.7421  -0.7321
    -0.6762  -0.6750  -0.6010  -0.5864  -0.5360  -0.5341  -0.3773  -0.3662
    -0.3475  -0.2998  -0.2332   0.0473   0.1328   0.3123   0.3977   0.4159
     0.6067   0.6575   0.8281   0.8610   0.8714   0.8972   0.9619   1.0224
     1.0226   1.1921   1.2401   1.3173   1.3228   1.3824   1.4320   1.4407
     1.5044   1.5115   1.5182   1.5584   1.5899   1.6597   1.6650   1.6727
     1.7207   1.7536   1.8120   1.8978   1.9182   1.9192   2.2101   2.4765
     3.0445   3.0497   3.3255   3.3295   3.4602   3.4749   3.5761   6.7053
     6.7183   6.7256   7.6281   7.6446   8.4039   8.4050   8.7759   8.8050
     9.0015   9.0459   9.1116   9.1366   9.3148   9.3931   9.4401   9.5060
     9.5733

          k = 0.2500 0.3960 0.0000 ( 33940 PWs)   bands (ev):

   -35.5246 -35.5147 -22.5259 -22.5249 -22.2865 -22.2372 -16.9246 -16.9144
   -16.7927 -16.7837 -16.7174 -16.7084 -14.7579 -14.7571 -14.3950 -14.3824
   -14.3665 -14.3115 -14.2524 -14.1606 -14.1555 -14.0394 -14.0317 -13.9939
   -13.9336 -13.8451 -13.4512  -8.2985  -8.2975  -8.0466  -7.9349  -7.9254
    -7.9241  -7.8190  -7.8180  -7.6823  -7.6608  -7.5534  -7.4731  -3.4380
    -3.4299  -3.2468  -3.1504  -3.1259  -2.9057  -2.9047  -2.3913  -2.3907
    -2.1643  -2.1068  -2.0666  -2.0523  -1.8446  -1.7432  -1.7323  -1.6284
    -1.5704  -1.4275  -1.3886  -1.3181  -1.1508  -1.1120  -1.0099  -0.8254
    -0.7928  -0.7496  -0.7444  -0.7409  -0.7307  -0.7272  -0.5092  -0.4876
    -0.4137  -0.3706  -0.3215   0.1696   0.2535   0.3364   0.4376   0.4839
     0.7597   0.8898   0.9991   1.0395   1.0450   1.0677   1.0786   1.3010
     1.3110   1.3458   1.3663   1.3802   1.3857   1.5247   1.5664   1.6045
     1.6193   1.7092   1.7302   1.7815   1.8036   1.8293   1.8462   1.9182
     1.9624   1.9703   1.9781   2.1764   2.2237   2.3171   2.3180   2.5020
     2.8763   2.8823   3.5530   3.5580   3.6966   3.7129   3.9575   6.6659
     6.9253   6.9286   7.7816   7.8166   8.8387   8.8537   8.9239   8.9856
     9.1753   9.2283   9.7245   9.7407   9.8576   9.8605   9.9128   9.9718
    10.0455

          k = 0.2500-0.5279 0.0000 ( 33964 PWs)   bands (ev):

   -35.5228 -35.5129 -22.5003 -22.4993 -22.2619 -22.2134 -16.9747 -16.9646
   -16.7872 -16.7782 -16.6780 -16.6689 -14.7546 -14.7536 -14.3230 -14.3061
   -14.3046 -14.2629 -14.1850 -14.1764 -14.1177 -14.0973 -14.0073 -14.0062
   -13.9865 -13.8715 -13.4577  -8.2986  -8.2976  -8.0644  -8.0134  -8.0125
    -7.9314  -7.8853  -7.8842  -7.7502  -7.6899  -7.6270  -7.5811  -3.6396
    -3.6290  -3.5102  -3.3466  -3.3297  -3.1334  -3.1324  -2.3986  -2.3980
    -2.1417  -2.0678  -2.0252  -1.9963  -1.9041  -1.8884  -1.8264  -1.7763
    -1.7041  -1.4474  -1.4138  -1.3589  -1.2203  -1.1943  -1.1046  -0.9093
    -0.8743  -0.8166  -0.8076  -0.7778  -0.7569  -0.7478  -0.5207  -0.4981
    -0.4208  -0.3950  -0.3452   0.2114   0.2892   0.3440   0.4577   0.5175
     0.7856   0.9384   1.0885   1.0968   1.1144   1.1395   1.1583   1.2555
     1.2585   1.3717   1.4091   1.4554   1.4887   1.5610   1.5636   1.5646
     1.6979   1.7769   1.8008   1.9617   1.9658   2.0459   2.0465   2.0509
     2.0947   2.1009   2.1242   2.1322   2.3969   2.4928   2.4937   2.5479
     2.6536   2.6623   3.5714   3.5784   3.7349   3.7478   4.0562   6.5951
     6.8904   6.8922   7.7430   7.7895   8.9204   8.9249   9.2054   9.3241
     9.5774   9.5788   9.7841   9.8951   9.9181  10.0375  10.1338  10.1359
    10.1905

          k = 0.3750 0.0000 0.0000 ( 33964 PWs)   bands (ev):

   -35.5324 -35.5226 -22.6234 -22.6224 -22.3805 -22.3304 -16.9746 -16.9658
   -16.8286 -16.8193 -16.5708 -16.5606 -14.9849 -14.9837 -14.7971 -14.5988
   -14.5897 -14.5520 -14.5321 -14.1563 -14.1539 -14.0894 -14.0766 -13.8837
   -13.8665 -13.8466 -13.4895  -7.8724  -7.8713  -7.7412  -7.6116  -7.6106
    -7.5955  -7.4344  -7.4335  -7.3473  -7.2362  -7.1807  -7.0971  -2.8344
    -2.8320  -2.6665  -2.6308  -2.2711  -2.2707  -1.9137  -1.6140  -1.6115
    -1.5266  -1.5129  -1.4583  -1.4536  -1.1558  -1.1546  -1.1129  -1.0408
    -1.0287  -1.0112  -0.9606  -0.9597  -0.8427  -0.8398  -0.8371  -0.8002
    -0.6702  -0.6697  -0.5588  -0.4248  -0.3786  -0.2911  -0.2107  -0.2036
    -0.1725  -0.1703   0.0272   0.0696   0.1270   0.1279   0.2299   0.2503
     0.4056   0.4571   0.4636   0.4643   0.4803   0.4915   0.5229   0.5637
     0.6078   0.7916   0.8112   0.9858   1.0815   1.1774   1.2439   1.2446
     1.2703   1.2862   1.4036   1.4137   1.5209   1.5527   1.5650   1.6698
     1.7049   1.8079   1.8276   1.8435   1.8717   1.9531   1.9716   2.1758
     2.1887   2.3524   2.4291   2.6307   2.6559   2.8596   2.8653   6.5644
     6.5652   6.8791   7.8156   7.8321   8.0591   8.0601   8.5267   8.5432
     8.7353   8.8249   9.3490   9.3711   9.3897   9.5408   9.5495   9.5598
     9.6538

          k = 0.3750 0.1320 0.0000 ( 33991 PWs)   bands (ev):

   -35.5307 -35.5208 -22.6017 -22.6007 -22.3594 -22.3098 -16.9660 -16.9572
   -16.7995 -16.7902 -16.6352 -16.6250 -14.9372 -14.9361 -14.7322 -14.5590
   -14.5467 -14.4904 -14.4725 -14.1280 -14.1266 -14.0671 -14.0575 -13.9101
   -13.8972 -13.8525 -13.4776  -7.9299  -7.9288  -7.7753  -7.7741  -7.7657
    -7.6226  -7.5243  -7.5231  -7.5203  -7.4340  -7.2762  -7.1764  -2.8967
    -2.8929  -2.7097  -2.6692  -2.2700  -2.2696  -2.0065  -1.9945  -1.9193
    -1.8246  -1.7981  -1.5569  -1.5557  -1.5064  -1.4153  -1.4103  -1.2535
    -1.2522  -1.1563  -1.1388  -1.1055  -0.9970  -0.9197  -0.7426  -0.7320
    -0.7101  -0.6332  -0.5476  -0.3808  -0.3705  -0.3487  -0.2929  -0.2087
    -0.2074  -0.0004   0.0028   0.1016   0.1173   0.1642   0.2375   0.2415
     0.2724   0.4213   0.5003   0.5013   0.6656   0.7220   0.7496   0.8488
     0.8561   0.9895   1.0202   1.0691   1.2095   1.2310   1.2624   1.2833
     1.3459   1.3689   1.4191   1.4201   1.5588   1.5937   1.5946   1.7110
     1.7516   1.7734   1.7939   1.8468   1.8523   1.8863   1.9238   2.4638
     2.7905   2.8108   2.9017   2.9947   3.0106   3.1650   3.1943   6.7132
     6.7140   6.8073   7.8621   7.8742   8.1246   8.1255   8.5428   8.5680
     8.9700   9.0133   9.2809   9.3415   9.3773   9.5538   9.5790   9.7075
     9.7446

          k = 0.3750 0.2640 0.0000 ( 33991 PWs)   bands (ev):

   -35.5263 -35.5165 -22.5484 -22.5474 -22.3078 -22.2592 -16.9456 -16.9368
   -16.7796 -16.7693 -16.7243 -16.7151 -14.8151 -14.8143 -14.5589 -14.4635
   -14.4453 -14.3400 -14.3235 -14.0891 -14.0856 -14.0560 -14.0530 -13.9475
   -13.9311 -13.8459 -13.4484  -8.2312  -8.2302  -7.9723  -7.9098  -7.9088
    -7.8716  -7.7874  -7.7864  -7.6876  -7.6225  -7.5409  -7.4471  -3.2151
    -3.2060  -2.9495  -2.9081  -2.4433  -2.4420  -2.4344  -2.3227  -2.3213
    -2.3142  -2.3085  -2.1908  -2.1901  -1.8953  -1.7237  -1.7158  -1.5427
    -1.5182  -1.2856  -1.1985  -1.1773  -0.9509  -0.9021  -0.8253  -0.8233
    -0.8030  -0.7412  -0.6425  -0.6228  -0.5890  -0.5869  -0.4602  -0.4361
    -0.3418  -0.3172  -0.2810   0.0821   0.1653   0.4130   0.5225   0.5449
     0.7371   0.7651   0.8823   0.8947   1.0069   1.0666   1.0745   1.1376
     1.2097   1.2696   1.2783   1.3188   1.4469   1.4666   1.4801   1.4936
     1.6338   1.6855   1.6940   1.7048   1.7439   1.7882   1.7967   1.8077
     1.8138   1.8558   1.8682   1.8838   1.8884   1.9523   2.1761   2.4327
     3.0441   3.0525   3.5579   3.7788   3.7819   3.8903   3.8996   6.5124
     6.7585   6.7604   7.6865   7.6960   8.4634   8.4660   8.8723   8.8967
     9.2175   9.4694   9.4747   9.5199   9.6044   9.6754   9.8181   9.8887
     9.9493

          k = 0.3750 0.3960 0.0000 ( 33993 PWs)   bands (ev):

   -35.5220 -35.5122 -22.4937 -22.4927 -22.2548 -22.2074 -16.9282 -16.9192
   -16.9063 -16.8964 -16.6447 -16.6355 -14.6799 -14.6793 -14.3856 -14.3726
   -14.2945 -14.1780 -14.1757 -14.1704 -14.1619 -14.0214 -14.0194 -13.9456
   -13.9059 -13.8566 -13.4153  -8.4970  -8.4960  -8.2439  -8.1620  -8.1611
    -8.1354  -7.9125  -7.9114  -7.8851  -7.7692  -7.7328  -7.6128  -3.6957
    -3.6857  -3.4005  -3.3592  -3.1691  -2.8850  -2.8841  -2.5724  -2.5717
    -2.4265  -2.4071  -2.2193  -2.2188  -2.0354  -2.0231  -1.8917  -1.7797
    -1.7532  -1.3790  -1.1906  -1.1695  -1.1484  -1.1471  -1.0258  -0.9033
    -0.9005  -0.8158  -0.8061  -0.7567  -0.7361  -0.7156  -0.6576  -0.6351
    -0.3368  -0.3351  -0.2931   0.2306   0.3194   0.4603   0.6674   0.7133
     0.9909   1.1346   1.1981   1.2208   1.2521   1.3007   1.3255   1.4110
     1.4149   1.5333   1.5440   1.5453   1.5971   1.6366   1.6539   1.7803
     1.8123   1.8268   1.8462   1.9357   1.9521   2.0130   2.0412   2.0526
     2.0669   2.1208   2.1595   2.1891   2.2389   2.2397   2.2839   2.5105
     2.8643   2.8756   3.9004   4.2945   4.3013   4.3744   4.3791   6.1086
     6.4554   6.4570   7.4074   7.4402   8.9742   9.0269   9.0402   9.1519
     9.4758   9.5134   9.5673   9.5880   9.6663   9.7033   9.7482   9.8766
    10.0072

          k = 0.3750-0.5279 0.0000 ( 34004 PWs)   bands (ev):

   -35.5202 -35.5104 -22.4707 -22.4697 -22.2325 -22.1855 -16.9614 -16.9512
   -16.9157 -16.9069 -16.6093 -16.6001 -14.6184 -14.6178 -14.3437 -14.3408
   -14.2347 -14.2153 -14.1104 -14.0967 -14.0841 -14.0406 -13.9993 -13.9981
   -13.9078 -13.8638 -13.3988  -8.5790  -8.5780  -8.3382  -8.3071  -8.3062
    -8.2169  -8.0337  -7.9382  -7.9371  -7.9006  -7.7459  -7.6298  -3.9024
    -3.8918  -3.6131  -3.5605  -3.4317  -3.1103  -3.1093  -2.5909  -2.5902
    -2.4366  -2.4127  -2.2135  -2.2130  -2.1422  -2.1285  -1.8851  -1.8634
    -1.8370  -1.4223  -1.2776  -1.2646  -1.1967  -1.1840  -1.0983  -0.9029
    -0.8992  -0.8984  -0.8945  -0.8439  -0.8314  -0.7451  -0.6806  -0.6508
    -0.3218  -0.3206  -0.2712   0.2733   0.3575   0.4700   0.7218   0.8002
     1.0619   1.3047   1.3198   1.3242   1.3568   1.3634   1.3802   1.4058
     1.4143   1.5997   1.6230   1.6544   1.6704   1.8017   1.8316   1.8491
     1.8523   1.9279   1.9774   2.0291   2.0912   2.0994   2.1353   2.1951
     2.1997   2.2920   2.3096   2.3372   2.3773   2.4294   2.4304   2.5826
     2.6195   2.6354   3.9678   4.4341   4.4469   4.5228   4.5269   5.9192
     6.2779   6.2788   7.3004   7.3582   8.8201   9.0847   9.1871   9.2373
     9.4208   9.4361   9.6753   9.8127   9.8355   9.8435   9.9026   9.9096
     9.9704

          k =-0.5000 0.0000 0.0000 ( 33930 PWs)   bands (ev):

   -35.5314 -35.5215 -22.6042 -22.6032 -22.3621 -22.3133 -17.0269 -17.0183
   -16.7864 -16.7771 -16.5694 -16.5592 -15.0420 -15.0401 -14.8352 -14.6244
   -14.5925 -14.3390 -14.3086 -14.2688 -14.2601 -14.1372 -14.1351 -13.8912
   -13.8808 -13.8669 -13.5265  -7.8621  -7.8610  -7.7386  -7.5884  -7.5875
    -7.5781  -7.3983  -7.3973  -7.3354  -7.2134  -7.1468  -7.0658  -2.9764
    -2.9742  -2.8120  -2.7797  -2.2960  -2.2956  -1.9165  -1.5975  -1.5862
    -1.5678  -1.5655  -1.3323  -1.3295  -1.1956  -1.1597  -1.1585  -1.1199
    -1.1171  -1.0741  -1.0714  -1.0622  -0.9507  -0.9427  -0.8591  -0.8480
    -0.7537  -0.7532  -0.5844  -0.4912  -0.4373  -0.3290  -0.2348  -0.2224
    -0.1609  -0.1578  -0.0031   0.0225   0.1217   0.1226   0.1878   0.2307
     0.4009   0.4370   0.4632   0.4641   0.4882   0.4895   0.5144   0.5216
     0.6124   0.8435   0.9074   0.9207   0.9923   1.1938   1.1948   1.2434
     1.4169   1.4335   1.4421   1.4481   1.4580   1.6440   1.6483   1.6860
     1.7140   1.7147   1.7644   1.9177   1.9255   1.9963   2.0162   2.1921
     2.2019   2.3461   2.4323   2.6236   2.6651   2.8925   2.9009   7.0789
     7.3367   7.3378   7.3892   7.3899   8.3164   8.3464   8.5815   8.5987
     9.0991   9.1490   9.2169   9.5023   9.5059   9.5109   9.6895   9.7495
     9.9057

          k =-0.5000 0.1320 0.0000 ( 33986 PWs)   bands (ev):

   -35.5296 -35.5197 -22.5834 -22.5824 -22.3419 -22.2934 -17.0177 -17.0090
   -16.7590 -16.7496 -16.6330 -16.6229 -14.9850 -14.9833 -14.7662 -14.5834
   -14.5521 -14.2979 -14.2701 -14.2101 -14.2024 -14.1155 -14.1135 -13.9190
   -13.9042 -13.8723 -13.5057  -7.9010  -7.9000  -7.7559  -7.7178  -7.7169
    -7.6032  -7.6011  -7.5979  -7.4573  -7.3602  -7.3385  -7.2747  -3.0453
    -3.0416  -2.8632  -2.8257  -2.3011  -2.3007  -1.9902  -1.9641  -1.9125
    -1.7686  -1.7456  -1.5515  -1.5503  -1.4906  -1.4614  -1.4542  -1.3688
    -1.3674  -1.2585  -1.2229  -1.1581  -1.0330  -0.9384  -0.8095  -0.8090
    -0.6988  -0.6501  -0.5746  -0.4152  -0.4050  -0.3743  -0.3191  -0.2321
    -0.2300  -0.0187  -0.0118   0.1095   0.1210   0.1602   0.2388   0.2414
     0.2642   0.5189   0.5393   0.5746   0.5755   0.6396   0.6841   0.8174
     0.8547   0.9910   1.0742   1.1075   1.2141   1.2207   1.2434   1.3380
     1.3410   1.3722   1.4634   1.4740   1.5742   1.6802   1.6872   1.6907
     1.7395   1.7792   1.8078   1.9240   1.9338   1.9608   1.9775   2.4422
     2.8004   2.8149   2.9001   3.0108   3.0285   3.2163   3.2489   6.8975
     7.1845   7.1853   7.6912   7.6924   8.2087   8.2350   8.5190   8.5546
     9.2867   9.3444   9.3857   9.5626   9.6229   9.6958   9.7807   9.8200
     9.8719

          k =-0.5000 0.2640 0.0000 ( 33976 PWs)   bands (ev):

   -35.5253 -35.5154 -22.5325 -22.5315 -22.2923 -22.2447 -16.9957 -16.9870
   -16.7763 -16.7660 -16.6879 -16.6786 -14.8340 -14.8328 -14.5821 -14.4857
   -14.4507 -14.1950 -14.1743 -14.1087 -14.1060 -14.0653 -14.0639 -13.9902
   -13.9701 -13.8437 -13.4546  -8.1700  -8.1690  -8.0190  -8.0181  -7.9223
    -7.8509  -7.8499  -7.8154  -7.7463  -7.6837  -7.6285  -7.5635  -3.3535
    -3.3444  -3.0955  -3.0554  -2.4690  -2.4679  -2.4253  -2.3422  -2.3389
    -2.3231  -2.3202  -2.1986  -2.1978  -1.9056  -1.8513  -1.8379  -1.6329
    -1.5950  -1.2987  -1.1170  -1.0978  -0.9088  -0.9080  -0.8917  -0.8598
    -0.8469  -0.7770  -0.6630  -0.6234  -0.6141  -0.6133  -0.4540  -0.4349
    -0.3394  -0.3344  -0.3092   0.0958   0.1777   0.4448   0.5584   0.6159
     0.7851   0.8024   0.9119   0.9156   1.0726   1.1473   1.1612   1.1910
     1.2321   1.2356   1.2460   1.2760   1.4822   1.4966   1.5252   1.5515
     1.6638   1.7243   1.7546   1.7604   1.7999   1.8138   1.8194   1.8539
     1.8752   1.9399   1.9515   1.9610   1.9726   1.9801   2.0356   2.3881
     3.0370   3.0463   3.5510   3.9188   3.9210   4.0218   4.0342   6.4139
     6.7546   6.7557   7.6134   7.6338   8.5011   8.5035   8.9881   9.1254
     9.2132   9.6206   9.6446   9.6491   9.7483   9.7826   9.8430   9.9407
     9.9650

          k =-0.5000 0.3960 0.0000 ( 33992 PWs)   bands (ev):

   -35.5209 -35.5111 -22.4803 -22.4793 -22.2416 -22.1948 -16.9741 -16.9654
   -16.9053 -16.8952 -16.6124 -16.6031 -14.6509 -14.6502 -14.4126 -14.4006
   -14.2821 -14.1663 -14.1598 -14.0884 -14.0770 -14.0173 -14.0162 -13.9272
   -13.9106 -13.8749 -13.3996  -8.5452  -8.5442  -8.3070  -8.3061  -8.2977
    -8.1843  -8.0323  -7.9287  -7.9276  -7.9004  -7.7569  -7.6178  -3.8265
    -3.8158  -3.5193  -3.4812  -3.1639  -2.8765  -2.8755  -2.6421  -2.6415
    -2.4995  -2.4873  -2.2356  -2.2352  -2.1419  -2.1181  -1.8961  -1.8446
    -1.7968  -1.4093  -1.1763  -1.1728  -1.0498  -1.0486  -1.0464  -0.9918
    -0.9761  -0.8288  -0.8267  -0.7508  -0.7388  -0.7356  -0.7163  -0.6833
    -0.2978  -0.2970  -0.2681   0.2488   0.3407   0.5060   0.7771   0.8116
     1.0874   1.2157   1.3049   1.3306   1.3339   1.3958   1.4132   1.4440
     1.4478   1.5571   1.6227   1.6232   1.6360   1.6498   1.6917   1.8156
     1.8218   1.8769   1.9399   1.9739   2.0459   2.0790   2.1070   2.1204
     2.1561   2.1840   2.2078   2.2091   2.2464   2.2916   2.3465   2.4691
     2.8524   2.8653   3.8832   4.5621   4.5673   4.6180   4.6255   5.8901
     6.2596   6.2606   7.2585   7.2878   8.9719   8.9844   8.9859   9.1223
     9.4897   9.4996   9.6531   9.7381   9.7463   9.7913   9.7984   9.9311
     9.9558

          k =-0.5000-0.5279 0.0000 ( 34028 PWs)   bands (ev):

   -35.5192 -35.5093 -22.4583 -22.4573 -22.2202 -22.1739 -16.9653 -16.9566
   -16.9559 -16.9458 -16.5790 -16.5697 -14.5525 -14.5522 -14.3851 -14.3816
   -14.2125 -14.2048 -14.0993 -14.0467 -14.0397 -13.9941 -13.9928 -13.9745
   -13.8860 -13.8703 -13.3747  -8.6912  -8.6902  -8.4489  -8.4232  -8.4222
    -8.3330  -8.1512  -8.0072  -7.9566  -7.9554  -7.7735  -7.6352  -4.0350
    -4.0239  -3.7227  -3.6802  -3.4340  -3.1008  -3.0998  -2.6745  -2.6739
    -2.5254  -2.5099  -2.2348  -2.2257  -2.2253  -2.2068  -1.9144  -1.8844
    -1.8630  -1.4602  -1.2917  -1.2838  -1.1158  -1.1074  -1.0947  -0.9660
    -0.9618  -0.9219  -0.9211  -0.8527  -0.8302  -0.7611  -0.7342  -0.7179
    -0.2690  -0.2681  -0.2395   0.2918   0.3801   0.5177   0.8521   0.9338
     1.1846   1.3938   1.4039   1.4176   1.4220   1.4569   1.4625   1.4667
     1.5410   1.6817   1.6967   1.7071   1.7095   1.7360   1.9126   1.9334
     1.9537   1.9618   2.0980   2.1046   2.1178   2.1573   2.2285   2.2424
     2.2516   2.3388   2.4003   2.4014   2.4417   2.4795   2.4866   2.5958
     2.6138   2.6303   3.9434   4.7581   4.7697   4.8232   4.8297   5.6576
     6.0326   6.0333   7.1339   7.1955   8.8258   9.0613   9.0952   9.1301
     9.1443   9.1677   9.5854   9.6422   9.7379   9.8096   9.9382  10.0424
    10.3383

     the Fermi energy is     2.6280 ev

!    total energy              =   -1842.88693427 Ry
     Harris-Foulkes estimate   =   -1842.88693427 Ry
     estimated scf accuracy    <          8.2E-11 Ry

     The total energy is the sum of the following terms:

     one-electron contribution =  -30420.97760435 Ry
     hartree contribution      =   15364.29098347 Ry
     xc contribution           =    -621.74290965 Ry
     ewald contribution        =   13835.55120175 Ry
     smearing contrib. (-TS)   =      -0.00860550 Ry

     convergence has been achieved in  38 iterations

     negative rho (up, down):  1.527E-03 0.000E+00

     Forces acting on atoms (cartesian axes, Ry/au):

     atom    1 type  4   force =     0.00000000    0.00000000   -0.00019227
     atom    2 type  3   force =     0.00000000    0.00000000    0.00041877
     atom    3 type  4   force =     0.00000000    0.00000000   -0.00078083
     atom    4 type  1   force =     0.00000000    0.00000000   -0.00032655
     atom    5 type  3   force =     0.00000000    0.00000000    0.00053197
     atom    6 type  4   force =     0.00000000    0.00000000    0.00024211
     atom    7 type  4   force =     0.00000000    0.00000000    0.00055179
     atom    8 type  2   force =     0.00000000    0.00000000   -0.00121167
     atom    9 type  4   force =     0.00000000    0.00000000    0.00105323
     atom   10 type  4   force =     0.00000000    0.00000000    0.00085652
     atom   11 type  3   force =     0.00000000    0.00000000    0.00069207
     atom   12 type  1   force =     0.00000000    0.00000000    0.00408480
     atom   13 type  4   force =     0.00000000    0.00000000   -0.00280883
     atom   14 type  4   force =     0.00000000    0.00000000    0.01014922
     atom   15 type  3   force =     0.00000000    0.00000000    0.04082438
     atom   16 type  4   force =     0.00000000    0.00000000   -0.03851917
     atom   17 type  1   force =     0.00000000    0.00000000   -0.01068733
     atom   18 type  3   force =     0.00000000    0.00000000   -0.00631129
     atom   19 type  4   force =     0.00000000    0.00000000    0.00090763
     atom   20 type  4   force =     0.00000000    0.00000000   -0.00011694
     atom   21 type  2   force =     0.00000000    0.00000000    0.00094197
     atom   22 type  4   force =     0.00000000    0.00000000   -0.00055347
     atom   23 type  4   force =     0.00000000    0.00000000   -0.00004071
     atom   24 type  3   force =     0.00000000    0.00000000   -0.00051179
     atom   25 type  1   force =     0.00000000    0.00000000    0.00031588
     atom   26 type  4   force =     0.00000000    0.00000000    0.00069873
     atom   27 type  3   force =     0.00000000    0.00000000   -0.00032973
     atom   28 type  4   force =     0.00000000    0.00000000    0.00012151

     Total force =     0.058590     Total SCF correction =     0.000029


     Computing stress (Cartesian axis) and pressure


     negative rho (up, down):  1.527E-03 0.000E+00
          total   stress  (Ry/bohr**3)                   (kbar)     P=       -4.07
   0.00000331   0.00000000   0.00000000            0.49        0.00        0.00
   0.00000000  -0.00002553   0.00000000            0.00       -3.76        0.00
   0.00000000   0.00000000  -0.00006075            0.00        0.00       -8.94


     BFGS Geometry Optimization

     number of scf cycles    =   1
     number of bfgs steps    =   0

     energy   new            =   -1842.8869342712 Ry

     new trust radius        =       0.0408243755 bohr
     new conv_thr            =            1.0E-10 Ry


ATOMIC_POSITIONS (angstrom)
O             0.0000000000        1.8611200000       -0.1846200000    0   0   0
Cu            0.0000000000        0.0000000000        0.1039800000    0   0   0
O             0.0000000000        0.0000000000        1.9772600000    0   0   0
Ba            1.9651100000        1.8611200000        2.2364100000    0   0   0
Cu            0.0000000000        0.0000000000        4.0773100000    0   0   0
O             1.9651100000        0.0000000000        4.2321000000    0   0   0
O             0.0000000000        1.8611200000        4.3692200000    0   0   0
Ca            1.9651100000        1.8611200000        5.8860000000    0   0   0
O             0.0000000000        1.8611200000        7.3367500000    0   0   0
O             1.9651100000        0.0000000000        7.4847600000    0   0   0
Cu            0.0000000000        0.0000000000        7.6688600000    0   0   0
Ba            1.9651100000        1.8611200000        9.5509315834
O             0.0000000000        0.0000000000        9.8694036290
O             0.0000000000        1.8611200000       11.7640107340
Cu            0.0000000000        0.0000000000       11.7804633291
O             0.0000000000        0.0000000000       13.8763965317
Ba            1.9651100000        1.8611200000       14.2132145099
Cu            0.0000000000        0.0000000000       16.0953702093
O             1.9651100000        0.0000000000       16.2832902952
O             0.0000000000        1.8611200000       16.4307381206
Ca            1.9651100000        1.8611200000       17.8815900000    0   0   0
O             0.0000000000        1.8611200000       19.3983600000    0   0   0
O             1.9651100000        0.0000000000       19.5354800000    0   0   0
Cu            0.0000000000        0.0000000000       19.6902800000    0   0   0
Ba            1.9651100000        1.8611200000       21.5311700000    0   0   0
O             0.0000000000        0.0000000000       21.7902800000    0   0   0
Cu            0.0000000000        0.0000000000       23.6635800000    0   0   0
O             0.0000000000        1.8611200000       23.9521300000    0   0   0


     NEW-OLD atomic charge density approx. for the potential

     negative rho (up, down):  1.619E-03 0.000E+00

     total cpu time spent up to now is      677.0 secs

     Self-consistent Calculation

     iteration #  1     ecut=    60.00 Ry     beta= 0.70
     Davidson diagonalization with overlap
     ethr =  1.00E-06,  avg # of iterations =  5.4

     negative rho (up, down):  1.526E-03 0.000E+00

     total cpu time spent up to now is      707.2 secs

     total energy              =   -1842.89011155 Ry
     Harris-Foulkes estimate   =   -1842.89009177 Ry
     estimated scf accuracy    <       0.00095236 Ry

     iteration #  2     ecut=    60.00 Ry     beta= 0.70
     Davidson diagonalization with overlap
     ethr =  4.20E-07,  avg # of iterations =  2.0

     negative rho (up, down):  1.528E-03 0.000E+00

     total cpu time spent up to now is      722.5 secs

     total energy              =   -1842.89011873 Ry
     Harris-Foulkes estimate   =   -1842.89017851 Ry
     estimated scf accuracy    <       0.00206330 Ry

     iteration #  3     ecut=    60.00 Ry     beta= 0.70
     Davidson diagonalization with overlap
     ethr =  4.20E-07,  avg # of iterations =  1.0

     negative rho (up, down):  1.519E-03 0.000E+00

     total cpu time spent up to now is      736.7 secs

     total energy              =   -1842.89013687 Ry
     Harris-Foulkes estimate   =   -1842.89015850 Ry
     estimated scf accuracy    <       0.00027597 Ry

     iteration #  4     ecut=    60.00 Ry     beta= 0.70
     Davidson diagonalization with overlap
     ethr =  1.22E-07,  avg # of iterations =  2.0

     negative rho (up, down):  1.521E-03 0.000E+00

     total cpu time spent up to now is      752.4 secs

     total energy              =   -1842.89014043 Ry
     Harris-Foulkes estimate   =   -1842.89015066 Ry
     estimated scf accuracy    <       0.00014725 Ry

     iteration #  5     ecut=    60.00 Ry     beta= 0.70
     Davidson diagonalization with overlap
     ethr =  6.49E-08,  avg # of iterations =  1.0

     negative rho (up, down):  1.518E-03 0.000E+00

     total cpu time spent up to now is      767.6 secs

     total energy              =   -1842.89014505 Ry
     Harris-Foulkes estimate   =   -1842.89014721 Ry
     estimated scf accuracy    <       0.00002539 Ry

     iteration #  6     ecut=    60.00 Ry     beta= 0.70
     Davidson diagonalization with overlap
     ethr =  1.12E-08,  avg # of iterations =  2.5

     negative rho (up, down):  1.518E-03 0.000E+00

     total cpu time spent up to now is      783.7 secs

     total energy              =   -1842.89014602 Ry
     Harris-Foulkes estimate   =   -1842.89014692 Ry
     estimated scf accuracy    <       0.00001343 Ry

     iteration #  7     ecut=    60.00 Ry     beta= 0.70
     Davidson diagonalization with overlap
     ethr =  5.92E-09,  avg # of iterations =  1.0

     negative rho (up, down):  1.519E-03 0.000E+00

     total cpu time spent up to now is      797.7 secs

     total energy              =   -1842.89014606 Ry
     Harris-Foulkes estimate   =   -1842.89014655 Ry
     estimated scf accuracy    <       0.00001270 Ry

     iteration #  8     ecut=    60.00 Ry     beta= 0.70
     Davidson diagonalization with overlap
     ethr =  5.60E-09,  avg # of iterations =  1.0

     negative rho (up, down):  1.521E-03 0.000E+00

     total cpu time spent up to now is      811.9 secs

     total energy              =   -1842.89014617 Ry
     Harris-Foulkes estimate   =   -1842.89014638 Ry
     estimated scf accuracy    <       0.00000554 Ry

     iteration #  9     ecut=    60.00 Ry     beta= 0.70
     Davidson diagonalization with overlap
     ethr =  2.44E-09,  avg # of iterations =  1.0

     negative rho (up, down):  1.522E-03 0.000E+00

     total cpu time spent up to now is      825.9 secs

     total energy              =   -1842.89014623 Ry
     Harris-Foulkes estimate   =   -1842.89014629 Ry
     estimated scf accuracy    <       0.00000049 Ry

     iteration # 10     ecut=    60.00 Ry     beta= 0.70
     Davidson diagonalization with overlap
     ethr =  2.15E-10,  avg # of iterations =  2.9

     negative rho (up, down):  1.523E-03 0.000E+00

     total cpu time spent up to now is      842.6 secs

     total energy              =   -1842.89014626 Ry
     Harris-Foulkes estimate   =   -1842.89014629 Ry
     estimated scf accuracy    <       0.00000051 Ry

     iteration # 11     ecut=    60.00 Ry     beta= 0.70
     Davidson diagonalization with overlap
     ethr =  2.15E-10,  avg # of iterations =  1.0

     negative rho (up, down):  1.523E-03 0.000E+00

     total cpu time spent up to now is      856.8 secs

     total energy              =   -1842.89014627 Ry
     Harris-Foulkes estimate   =   -1842.89014628 Ry
     estimated scf accuracy    <       0.00000006 Ry

     iteration # 12     ecut=    60.00 Ry     beta= 0.70
     Davidson diagonalization with overlap
     ethr =  2.46E-11,  avg # of iterations =  2.4

     negative rho (up, down):  1.524E-03 0.000E+00

     total cpu time spent up to now is      872.9 secs

     total energy              =   -1842.89014627 Ry
     Harris-Foulkes estimate   =   -1842.89014627 Ry
     estimated scf accuracy    <       0.00000010 Ry

     iteration # 13     ecut=    60.00 Ry     beta= 0.70
     Davidson diagonalization with overlap
     ethr =  2.46E-11,  avg # of iterations =  1.0

     negative rho (up, down):  1.524E-03 0.000E+00

     total cpu time spent up to now is      886.9 secs

     total energy              =   -1842.89014627 Ry
     Harris-Foulkes estimate   =   -1842.89014627 Ry
     estimated scf accuracy    <       0.00000004 Ry

     iteration # 14     ecut=    60.00 Ry     beta= 0.70
     Davidson diagonalization with overlap
     ethr =  1.63E-11,  avg # of iterations =  1.0

     negative rho (up, down):  1.525E-03 0.000E+00

     total cpu time spent up to now is      901.0 secs

     total energy              =   -1842.89014627 Ry
     Harris-Foulkes estimate   =   -1842.89014627 Ry
     estimated scf accuracy    <       0.00000004 Ry

     iteration # 15     ecut=    60.00 Ry     beta= 0.70
     Davidson diagonalization with overlap
     ethr =  1.63E-11,  avg # of iterations =  1.0

     negative rho (up, down):  1.525E-03 0.000E+00

     total cpu time spent up to now is      915.1 secs

     total energy              =   -1842.89014627 Ry
     Harris-Foulkes estimate   =   -1842.89014627 Ry
     estimated scf accuracy    <       0.00000001 Ry

     iteration # 16     ecut=    60.00 Ry     beta= 0.70
     Davidson diagonalization with overlap
     ethr =  6.24E-12,  avg # of iterations =  1.0

     negative rho (up, down):  1.526E-03 0.000E+00

     total cpu time spent up to now is      929.6 secs

     total energy              =   -1842.89014627 Ry
     Harris-Foulkes estimate   =   -1842.89014627 Ry
     estimated scf accuracy    <          9.9E-09 Ry

     iteration # 17     ecut=    60.00 Ry     beta= 0.70
     Davidson diagonalization with overlap
     ethr =  4.35E-12,  avg # of iterations =  1.0

     negative rho (up, down):  1.526E-03 0.000E+00

     total cpu time spent up to now is      943.7 secs

     total energy              =   -1842.89014627 Ry
     Harris-Foulkes estimate   =   -1842.89014627 Ry
     estimated scf accuracy    <          5.2E-09 Ry

     iteration # 18     ecut=    60.00 Ry     beta= 0.70
     Davidson diagonalization with overlap
     ethr =  2.29E-12,  avg # of iterations =  1.0

     negative rho (up, down):  1.527E-03 0.000E+00

     total cpu time spent up to now is      957.8 secs

     total energy              =   -1842.89014627 Ry
     Harris-Foulkes estimate   =   -1842.89014627 Ry
     estimated scf accuracy    <          1.3E-09 Ry

     iteration # 19     ecut=    60.00 Ry     beta= 0.70
     Davidson diagonalization with overlap
     ethr =  5.93E-13,  avg # of iterations =  1.0

     negative rho (up, down):  1.527E-03 0.000E+00

     total cpu time spent up to now is      971.8 secs

     total energy              =   -1842.89014627 Ry
     Harris-Foulkes estimate   =   -1842.89014627 Ry
     estimated scf accuracy    <          3.8E-10 Ry

     iteration # 20     ecut=    60.00 Ry     beta= 0.70
     Davidson diagonalization with overlap
     ethr =  1.67E-13,  avg # of iterations =  1.3

     negative rho (up, down):  1.527E-03 0.000E+00

     total cpu time spent up to now is      986.2 secs

     total energy              =   -1842.89014627 Ry
     Harris-Foulkes estimate   =   -1842.89014627 Ry
     estimated scf accuracy    <          3.4E-10 Ry

     iteration # 21     ecut=    60.00 Ry     beta= 0.70
     Davidson diagonalization with overlap
     ethr =  1.50E-13,  avg # of iterations =  1.0

     negative rho (up, down):  1.527E-03 0.000E+00

     total cpu time spent up to now is     1000.1 secs

     total energy              =   -1842.89014627 Ry
     Harris-Foulkes estimate   =   -1842.89014627 Ry
     estimated scf accuracy    <          2.1E-10 Ry

     iteration # 22     ecut=    60.00 Ry     beta= 0.70
     Davidson diagonalization with overlap
     ethr =  1.00E-13,  avg # of iterations =  1.0

     negative rho (up, down):  1.528E-03 0.000E+00

     total cpu time spent up to now is     1014.1 secs

     total energy              =   -1842.89014627 Ry
     Harris-Foulkes estimate   =   -1842.89014627 Ry
     estimated scf accuracy    <          3.0E-10 Ry

     iteration # 23     ecut=    60.00 Ry     beta= 0.70
     Davidson diagonalization with overlap
     ethr =  1.00E-13,  avg # of iterations =  1.0

     negative rho (up, down):  1.528E-03 0.000E+00

     total cpu time spent up to now is     1027.9 secs

     total energy              =   -1842.89014627 Ry
     Harris-Foulkes estimate   =   -1842.89014627 Ry
     estimated scf accuracy    <          1.5E-10 Ry

     iteration # 24     ecut=    60.00 Ry     beta= 0.70
     Davidson diagonalization with overlap
     ethr =  1.00E-13,  avg # of iterations =  1.0

     negative rho (up, down):  1.529E-03 0.000E+00

     total cpu time spent up to now is     1041.4 secs

     End of self-consistent calculation

          k = 0.0000 0.0000 0.0000 ( 34019 PWs)   bands (ev):

   -35.5345 -35.5285 -22.7313 -22.7307 -22.4643 -22.4542 -17.0381 -17.0326
   -16.5861 -16.5802 -16.5745 -16.5682 -15.2468 -15.2417 -14.6356 -14.6115
   -14.6080 -14.5180 -14.5112 -14.1211 -14.1206 -13.9250 -13.9225 -13.7722
   -13.7639 -13.6203 -13.2607  -7.8626  -7.8621  -7.8250  -7.8245  -7.6656
    -7.6321  -7.6316  -7.6240  -7.5109  -7.4718  -7.3408  -7.3007  -2.2692
    -2.2690  -1.8611  -1.7714  -1.7707  -1.7226  -1.7174  -1.6122  -1.6090
    -1.4878  -1.4812  -1.4328  -1.4279  -1.1598  -1.1591  -0.8749  -0.8228
    -0.4212  -0.3981  -0.3977  -0.3161  -0.3160  -0.2587  -0.2407  -0.2406
    -0.2042  -0.2042  -0.2039  -0.1962  -0.1950  -0.1886  -0.1212  -0.1044
     0.0232   0.0234   0.0710   0.0972   0.1581   0.1590   0.1595   0.1600
     0.1926   0.2304   0.2308   0.2325   0.3444   0.3692   0.3752   0.3822
     0.6712   0.8303   0.8597   0.9422   0.9426   1.0052   1.0394   1.2390
     1.2444   1.4039   1.4109   1.4273   1.4408   1.5460   1.5604   1.5770
     1.5946   1.6164   1.6175   1.8586   1.8780   1.9639   2.0961   2.0980
     2.2142   2.2431   2.3177   2.3267   2.3472   2.5941   2.6004   5.2727
     5.2792   5.8020   6.2597   6.4784   6.8176   6.8263   7.1888   7.2961
     8.0293   8.1530   8.3239   8.3691   8.5625   8.6811   8.7541   9.1598
     9.3426

          k = 0.0000 0.1320 0.0000 ( 34015 PWs)   bands (ev):

   -35.5327 -35.5267 -22.7046 -22.7041 -22.4391 -22.4294 -17.0020 -16.9964
   -16.6469 -16.6407 -16.5837 -16.5779 -15.1580 -15.1532 -14.6193 -14.6166
   -14.5768 -14.4905 -14.4831 -14.1307 -14.1300 -13.9296 -13.9275 -13.8181
   -13.8044 -13.6672 -13.3164  -7.8622  -7.8617  -7.7772  -7.7767  -7.6749
    -7.6740  -7.6659  -7.6191  -7.4661  -7.4287  -7.3886  -7.3436  -2.3280
    -2.3274  -2.1278  -2.1164  -2.0403  -2.0152  -1.8464  -1.5917  -1.5885
    -1.5842  -1.5835  -1.4803  -1.4705  -1.4634  -1.2877  -1.2621  -0.8756
    -0.6548  -0.5725  -0.5605  -0.4955  -0.4952  -0.4017  -0.4012  -0.3241
    -0.2974  -0.2653  -0.2510  -0.1555  -0.1295  -0.1028  -0.0893  -0.0874
    -0.0869   0.0447   0.0448   0.0605   0.0649   0.1578   0.1828   0.1834
     0.1958   0.2067   0.2369   0.2415   0.3292   0.3409   0.4202   0.4237
     0.9458   0.9932   1.0047   1.0977   1.1351   1.1395   1.1399   1.2005
     1.2170   1.2423   1.2520   1.4786   1.5005   1.5152   1.5382   1.6134
     1.6558   1.6648   1.7671   1.8274   1.8621   1.9359   2.0410   2.0517
     2.0641   2.1223   2.1948   2.5903   2.8246   2.8821   2.9087   5.6523
     5.6540   6.1200   6.5674   6.6948   7.1239   7.1293   7.5126   7.5817
     8.2033   8.3449   8.5293   8.5758   8.7872   8.8314   8.9994   9.2898
     9.4751

          k = 0.0000 0.2640 0.0000 ( 33931 PWs)   bands (ev):

   -35.5283 -35.5223 -22.6387 -22.6382 -22.3770 -22.3679 -16.9101 -16.9044
   -16.8012 -16.7949 -16.5781 -16.5722 -14.9576 -14.9537 -14.6671 -14.6642
   -14.4453 -14.4263 -14.4160 -14.1181 -14.1167 -13.9685 -13.9675 -13.9358
   -13.8960 -13.7520 -13.4398  -7.8618  -7.8613  -7.7647  -7.7642  -7.6705
    -7.6567  -7.6563  -7.6076  -7.4927  -7.4361  -7.3539  -7.3204  -2.7752
    -2.7710  -2.6124  -2.5654  -2.4706  -2.3681  -2.3677  -2.2205  -2.2202
    -1.8650  -1.5373  -1.5342  -1.4784  -1.4314  -1.4148  -1.4057  -1.2755
    -0.9527  -0.8723  -0.7707  -0.7473  -0.7468  -0.6626  -0.5978  -0.5925
    -0.5158  -0.4898  -0.4834  -0.4418  -0.4373  -0.4366  -0.4048  -0.2744
    -0.2401   0.0729   0.0731   0.1064   0.1219   0.1527   0.1556   0.2483
[...]

   -35.7750 -35.4920 -22.5337 -22.5160 -22.3956 -22.2556 -17.1077 -16.9881
   -16.9115 -16.8930 -16.7451 -16.6898 -14.8042 -14.8005 -14.6049 -14.4539
   -14.4360 -14.3695 -14.3022 -14.0721 -14.0713 -14.0389 -14.0360 -13.9748
   -13.9011 -13.8171 -13.6664  -8.2165  -8.2015  -8.0310  -7.9156  -7.8950
    -7.8695  -7.7728  -7.7606  -7.7549  -7.6576  -7.5840  -7.4859  -3.1919
    -3.1440  -2.9365  -2.8958  -2.4998  -2.4275  -2.4055  -2.3078  -2.3042
    -2.2886  -2.2728  -2.1771  -2.1741  -1.9956  -1.7015  -1.6823  -1.5331
    -1.5201  -1.4250  -1.1799  -1.1579  -0.9514  -0.8850  -0.8210  -0.8043
    -0.7761  -0.7631  -0.6616  -0.6229  -0.5751  -0.5744  -0.4906  -0.4166
    -0.3976  -0.3031  -0.2952   0.1129   0.1874   0.3856   0.5270   0.5395
     0.7212   0.7734   0.8678   0.8961   0.9043   1.0805   1.0815   1.1369
     1.2421   1.2843   1.3013   1.3203   1.4675   1.4776   1.4981   1.5143
     1.6621   1.7039   1.7165   1.7432   1.7674   1.7951   1.8140   1.8222
     1.8288   1.8666   1.8767   1.9110   1.9180   1.9245   2.2074   2.3832
     3.0596   3.0645   3.7497   3.8011   3.8177   3.9053   3.9397   6.5090
     6.7730   6.7761   7.5149   7.7179   8.4727   8.4792   8.7353   8.9090
     9.2686   9.4400   9.4856   9.5077   9.5876   9.6628   9.7562   9.8781
     9.9217

          k = 0.3750 0.3960 0.0000 ( 33993 PWs)   bands (ev):

   -35.7709 -35.4876 -22.4791 -22.4614 -22.3439 -22.2033 -17.1000 -17.0847
   -16.8941 -16.8721 -16.8343 -16.6099 -14.6661 -14.6658 -14.3733 -14.3559
   -14.3234 -14.2151 -14.1527 -14.1429 -14.1396 -14.0098 -14.0061 -13.9580
   -13.8879 -13.7846 -13.7191  -8.4823  -8.4691  -8.3006  -8.1798  -8.1474
    -8.1334  -7.9560  -7.8975  -7.8669  -7.8202  -7.7685  -7.6209  -3.6713
    -3.6177  -3.3892  -3.3428  -3.2120  -2.8715  -2.8711  -2.5581  -2.5374
    -2.3973  -2.3785  -2.2057  -2.1985  -2.0146  -2.0058  -1.9962  -1.7789
    -1.7531  -1.5148  -1.1775  -1.1377  -1.1340  -1.1336  -1.0584  -0.8852
    -0.8737  -0.7985  -0.7897  -0.7703  -0.7391  -0.7036  -0.6423  -0.6072
    -0.4577  -0.3223  -0.3216   0.2514   0.3333   0.4296   0.6607   0.7264
     0.9759   1.1229   1.1322   1.2328   1.2334   1.3127   1.3517   1.4290
     1.4366   1.5214   1.5579   1.5593   1.6160   1.6293   1.6731   1.7830
     1.8211   1.8394   1.8475   1.9154   1.9783   2.0006   2.0404   2.0789
     2.1039   2.1321   2.1755   2.1972   2.2526   2.2567   2.2750   2.5311
     2.8791   2.8866   4.1787   4.3166   4.3369   4.3859   4.4157   6.0848
     6.4688   6.4705   7.2360   7.4475   9.0007   9.0257   9.0515   9.1485
     9.3916   9.5101   9.5553   9.5816   9.6229   9.7093   9.7223   9.8826
     9.9175

          k = 0.3750-0.5279 0.0000 ( 34004 PWs)   bands (ev):

   -35.7692 -35.4858 -22.4560 -22.4384 -22.3221 -22.1812 -17.1376 -17.0832
   -16.9272 -16.8816 -16.8078 -16.5745 -14.6045 -14.6018 -14.3254 -14.3204
   -14.1994 -14.1890 -14.1547 -14.1347 -14.0610 -13.9933 -13.9861 -13.9852
   -13.9250 -13.8319 -13.6975  -8.5643  -8.5519  -8.3953  -8.2925  -8.2793
    -8.2702  -8.1046  -7.9234  -7.9067  -7.8915  -7.8096  -7.6337  -3.8781
    -3.8228  -3.6082  -3.5447  -3.4592  -3.0970  -3.0964  -2.5767  -2.5551
    -2.4103  -2.3846  -2.1999  -2.1924  -2.1211  -2.1047  -2.0078  -1.8660
    -1.8366  -1.5413  -1.2614  -1.2410  -1.1922  -1.1640  -1.1261  -0.8864
    -0.8832  -0.8794  -0.8682  -0.8304  -0.8101  -0.7966  -0.6683  -0.6295
    -0.4256  -0.3079  -0.3073   0.2891   0.3705   0.4409   0.7158   0.8111
     1.0481   1.2570   1.2950   1.3407   1.3473   1.3807   1.3933   1.4289
     1.4421   1.5955   1.6399   1.6612   1.6927   1.7883   1.8123   1.8441
     1.8577   1.9222   1.9402   2.0186   2.1000   2.1101   2.1314   2.2216
     2.2461   2.2907   2.3254   2.3746   2.3862   2.4435   2.4479   2.6050
     2.6342   2.6454   4.2657   4.4557   4.4889   4.5336   4.5626   5.8960
     6.2903   6.2922   7.1376   7.3562   8.8621   9.0771   9.1898   9.2364
     9.3621   9.4412   9.6806   9.6861   9.7977   9.8258   9.8554   9.9224
     9.9917

          k =-0.5000 0.0000 0.0000 ( 33930 PWs)   bands (ev):

   -35.7797 -35.4970 -22.5896 -22.5717 -22.4492 -22.3096 -17.1731 -16.9928
   -16.9522 -16.8106 -16.7517 -16.5351 -15.0276 -15.0263 -14.8989 -14.6045
   -14.5766 -14.3814 -14.2938 -14.2409 -14.2213 -14.1274 -14.1221 -13.9300
   -13.9218 -13.8434 -13.6387  -7.8477  -7.8293  -7.8149  -7.5990  -7.5739
    -7.5606  -7.4221  -7.3837  -7.3674  -7.2699  -7.2153  -7.0853  -2.9605
    -2.9281  -2.7858  -2.7607  -2.2824  -2.2775  -1.9996  -1.5740  -1.5535
    -1.5391  -1.5121  -1.3251  -1.2972  -1.1876  -1.1722  -1.1467  -1.1459
    -1.1296  -1.0998  -1.0940  -1.0582  -0.9263  -0.9109  -0.8613  -0.8251
    -0.8070  -0.7399  -0.7345  -0.5492  -0.4314  -0.3727  -0.2745  -0.2003
    -0.1545  -0.1418  -0.0638  -0.0566   0.1339   0.1354   0.2136   0.2518
     0.3177   0.4762   0.4769   0.5019   0.5150   0.5319   0.5352   0.6151
     0.6317   0.8678   0.8882   0.9292   0.9897   1.2079   1.2091   1.2781
     1.4331   1.4449   1.4769   1.4907   1.5466   1.6703   1.6963   1.7142
     1.7277   1.7300   1.8143   1.9446   1.9553   1.9789   2.0418   2.2095
     2.2320   2.3105   2.4666   2.6148   2.6944   2.8908   2.9118   7.0951
     7.3510   7.3596   7.4017   7.4030   8.1843   8.3536   8.4646   8.6263
     9.0525   9.1332   9.2896   9.4488   9.5366   9.5715   9.6157   9.7826
     9.7864

          k =-0.5000 0.1320 0.0000 ( 33986 PWs)   bands (ev):

   -35.7780 -35.4952 -22.5688 -22.5510 -22.4294 -22.2895 -17.1657 -16.9836
   -16.9334 -16.8580 -16.7241 -16.5988 -14.9703 -14.9694 -14.8255 -14.5631
   -14.5373 -14.3404 -14.2543 -14.1838 -14.1756 -14.1052 -14.1005 -13.9523
   -13.8983 -13.8798 -13.6394  -7.8863  -7.8567  -7.8411  -7.7033  -7.6902
    -7.6204  -7.5865  -7.5700  -7.5393  -7.4269  -7.3885  -7.2986  -3.0279
    -2.9906  -2.8391  -2.8105  -2.2874  -2.2818  -2.0286  -1.9362  -1.9063
    -1.7612  -1.7255  -1.5788  -1.5389  -1.5376  -1.4354  -1.4205  -1.3534
    -1.3136  -1.3132  -1.2382  -1.2098  -1.0088  -0.9658  -0.7958  -0.7918
    -0.7572  -0.6165  -0.5921  -0.4718  -0.4341  -0.3794  -0.3713  -0.2189
    -0.2179  -0.0238   0.0035   0.0926   0.1422   0.2001   0.2532   0.2549
     0.3323   0.4541   0.4717   0.5875   0.5883   0.6664   0.6981   0.8347
     0.8596   0.9768   1.0800   1.0966   1.1888   1.2391   1.2551   1.3532
     1.3549   1.4002   1.4973   1.5138   1.6523   1.6985   1.7116   1.7555
     1.7833   1.8124   1.8138   1.9419   1.9549   1.9635   2.0058   2.3676
     2.8231   2.8298   2.9769   3.0365   3.0702   3.2243   3.2794   6.9005
     7.1986   7.2066   7.6958   7.7058   8.0741   8.2542   8.3846   8.5614
     9.3036   9.3755   9.3918   9.5726   9.6352   9.6459   9.6811   9.8190
     9.8317

          k =-0.5000 0.2640 0.0000 ( 33976 PWs)   bands (ev):

   -35.7740 -35.4909 -22.5178 -22.5001 -22.3808 -22.2404 -17.1482 -16.9848
   -16.9616 -16.8668 -16.7419 -16.6532 -14.8191 -14.8184 -14.6244 -14.4643
   -14.4428 -14.2388 -14.1550 -14.0911 -14.0880 -14.0537 -14.0506 -14.0159
   -13.9413 -13.8214 -13.6617  -8.1553  -8.1379  -8.0045  -7.9916  -7.9828
    -7.8569  -7.8361  -7.8216  -7.8080  -7.7566  -7.6589  -7.5781  -3.3304
    -3.2811  -3.0798  -3.0427  -2.4911  -2.4529  -2.4303  -2.3198  -2.3193
    -2.3024  -2.2900  -2.1848  -2.1831  -2.0006  -1.8284  -1.8069  -1.6230
    -1.5808  -1.4774  -1.0977  -1.0700  -0.9116  -0.8949  -0.8937  -0.8361
    -0.8073  -0.7681  -0.6747  -0.6527  -0.6007  -0.6003  -0.4792  -0.4294
    -0.4035  -0.3207  -0.3199   0.1295   0.1985   0.4298   0.5740   0.5975
     0.7649   0.8105   0.9241   0.9271   0.9363   1.1595   1.1639   1.1680
     1.2524   1.2606   1.2728   1.2739   1.4747   1.5175   1.5523   1.5778
     1.6737   1.6973   1.7719   1.7777   1.7964   1.8394   1.8525   1.8894
     1.8977   1.9288   1.9772   1.9980   2.0148   2.0200   2.0718   2.3256
     3.0525   3.0579   3.7572   3.9387   3.9487   4.0353   4.0712   6.3969
     6.7688   6.7734   7.4480   7.6477   8.5078   8.5163   8.8915   9.1146
     9.2785   9.5825   9.6296   9.6629   9.7074   9.7323   9.8483   9.9409
     9.9782

          k =-0.5000 0.3960 0.0000 ( 33992 PWs)   bands (ev):

   -35.7699 -35.4866 -22.4656 -22.4480 -22.3312 -22.1902 -17.1309 -17.0906
   -16.9400 -16.8711 -16.8102 -16.5775 -14.6365 -14.6351 -14.3927 -14.3778
   -14.3215 -14.1421 -14.1352 -14.1336 -14.0509 -14.0040 -14.0033 -13.9635
   -13.8840 -13.7780 -13.7150  -8.5305  -8.5171  -8.3527  -8.2925  -8.2798
    -8.2300  -8.1051  -7.9139  -7.9063  -7.8826  -7.8314  -7.6255  -3.8014
    -3.7462  -3.5056  -3.4646  -3.2109  -2.8631  -2.8626  -2.6280  -2.6072
    -2.4652  -2.4550  -2.2221  -2.2172  -2.1219  -2.0907  -2.0145  -1.8459
    -1.7871  -1.5611  -1.1596  -1.1510  -1.0832  -1.0317  -1.0206  -0.9720
    -0.9595  -0.8132  -0.8118  -0.7553  -0.7271  -0.7217  -0.6918  -0.6846
    -0.4389  -0.2841  -0.2836   0.2716   0.3540   0.4859   0.7664   0.8213
     1.0738   1.2087   1.2427   1.3476   1.3534   1.3737   1.3953   1.4633
     1.4714   1.5350   1.6331   1.6356   1.6397   1.6709   1.7224   1.8178
     1.8266   1.8895   1.9291   1.9628   2.0316   2.0672   2.1084   2.1340
     2.1575   2.1822   2.2211   2.2228   2.2948   2.3431   2.3769   2.4813
     2.8668   2.8758   4.1700   4.5822   4.5922   4.6288   4.6610   5.8736
     6.2737   6.2747   7.0855   7.2952   8.9618   8.9980   9.0280   9.1531
     9.4163   9.5075   9.5692   9.6607   9.7513   9.7692   9.8181   9.8908
     9.9530

          k =-0.5000-0.5279 0.0000 ( 34028 PWs)   bands (ev):

   -35.7682 -35.4848 -22.4436 -22.4260 -22.3103 -22.1691 -17.1332 -17.1239
   -16.9312 -16.9217 -16.7849 -16.5441 -14.5391 -14.5373 -14.3598 -14.3572
   -14.1860 -14.1700 -14.1529 -14.0933 -14.0112 -13.9819 -13.9789 -13.9293
   -13.8725 -13.8445 -13.6956  -8.6765  -8.6641  -8.5039  -8.4086  -8.3960
    -8.3816  -8.2232  -8.0022  -7.9418  -7.9100  -7.8447  -7.6403  -4.0099
    -3.9530  -3.7100  -3.6635  -3.4730  -3.0876  -3.0869  -2.6604  -2.6389
    -2.4919  -2.4786  -2.2166  -2.2122  -2.2072  -2.1803  -2.0154  -1.9193
    -1.8548  -1.5881  -1.2744  -1.2658  -1.1372  -1.0957  -1.0841  -0.9470
    -0.9356  -0.9085  -0.9081  -0.8343  -0.7966  -0.7774  -0.7565  -0.7106
    -0.3995  -0.2553  -0.2551   0.3109   0.3928   0.4980   0.8391   0.9397
     1.1727   1.3454   1.4211   1.4291   1.4405   1.4455   1.4683   1.4811
     1.4955   1.6825   1.6979   1.7179   1.7414   1.7580   1.9017   1.9370
     1.9652   1.9766   2.0533   2.0845   2.1269   2.1442   2.2017   2.2527
     2.2881   2.3304   2.4122   2.4150   2.4680   2.5157   2.5365   2.6097
     2.6231   2.6558   4.2520   4.7777   4.7954   4.8348   4.8626   5.6479
     6.0458   6.0467   6.9743   7.1921   8.8788   9.0539   9.0762   9.1062
     9.1694   9.1711   9.4731   9.6501   9.7723   9.7790   9.9079   9.9555
    10.0887

     the Fermi energy is     2.6416 ev

!    total energy              =   -1842.89964099 Ry
     Harris-Foulkes estimate   =   -1842.89964099 Ry
     estimated scf accuracy    <          4.8E-13 Ry

     The total energy is the sum of the following terms:

     one-electron contribution =  -30571.29478602 Ry
     hartree contribution      =   15439.40608565 Ry
     xc contribution           =    -621.73891275 Ry
     ewald contribution        =   13910.73615359 Ry
     smearing contrib. (-TS)   =      -0.00818146 Ry

     convergence has been achieved in  33 iterations

     negative rho (up, down):  1.523E-03 0.000E+00

     Forces acting on atoms (cartesian axes, Ry/au):

     atom    1 type  4   force =     0.00000000    0.00000000   -0.00013855
     atom    2 type  3   force =     0.00000000    0.00000000    0.00037557
     atom    3 type  4   force =     0.00000000    0.00000000   -0.00076335
     atom    4 type  1   force =     0.00000000    0.00000000   -0.00028647
     atom    5 type  3   force =     0.00000000    0.00000000    0.00052630
     atom    6 type  4   force =     0.00000000    0.00000000   -0.00012079
     atom    7 type  4   force =     0.00000000    0.00000000    0.00029564
     atom    8 type  2   force =     0.00000000    0.00000000    0.00018248
     atom    9 type  4   force =     0.00000000    0.00000000    0.00077281
     atom   10 type  4   force =     0.00000000    0.00000000    0.00061306
     atom   11 type  3   force =     0.00000000    0.00000000    0.00126662
     atom   12 type  1   force =     0.00000000    0.00000000    0.00275238
     atom   13 type  4   force =     0.00000000    0.00000000    0.00713729
     atom   14 type  4   force =     0.00000000    0.00000000   -0.00071482
     atom   15 type  3   force =     0.00000000    0.00000000   -0.00104314
     atom   16 type  4   force =     0.00000000    0.00000000   -0.00229176
     atom   17 type  1   force =     0.00000000    0.00000000   -0.00315554
     atom   18 type  3   force =     0.00000000    0.00000000    0.00188399
     atom   19 type  4   force =     0.00000000    0.00000000    0.00244805
     atom   20 type  4   force =     0.00000000    0.00000000    0.00291486
     atom   21 type  2   force =     0.00000000    0.00000000    0.01162276
     atom   22 type  4   force =     0.00000000    0.00000000   -0.00889989
     atom   23 type  4   force =     0.00000000    0.00000000   -0.00799378
     atom   24 type  3   force =     0.00000000    0.00000000   -0.00323364
     atom   25 type  1   force =     0.00000000    0.00000000   -0.00448250
     atom   26 type  4   force =     0.00000000    0.00000000    0.00060585
     atom   27 type  3   force =     0.00000000    0.00000000   -0.00052033
     atom   28 type  4   force =     0.00000000    0.00000000    0.00024689

     Total force =     0.009663     Total SCF correction =     0.000002


     Computing stress (Cartesian axis) and pressure


     negative rho (up, down):  1.523E-03 0.000E+00
          total   stress  (Ry/bohr**3)                   (kbar)     P=       -4.37
  -0.00001213   0.00000000   0.00000000           -1.78        0.00        0.00
   0.00000000  -0.00001665   0.00000000            0.00       -2.45        0.00
   0.00000000   0.00000000  -0.00006025            0.00        0.00       -8.86


     bfgs converged in  19 scf cycles and   7 bfgs steps
     (criteria: energy <  1.0E-03 Ry, force <  1.0E-02 Ry/Bohr)

     End of BFGS Geometry Optimization

     Final energy   =   -1842.8996409930 Ry
Begin final coordinates

ATOMIC_POSITIONS (angstrom)
O             0.0000000000        1.8611200000       -0.1846200000    0   0   0
Cu            0.0000000000        0.0000000000        0.1039800000    0   0   0
O             0.0000000000        0.0000000000        1.9772600000    0   0   0
Ba            1.9651100000        1.8611200000        2.2364100000    0   0   0
Cu            0.0000000000        0.0000000000        4.0773100000    0   0   0
O             1.9651100000        0.0000000000        4.2321000000    0   0   0
O             0.0000000000        1.8611200000        4.3692200000    0   0   0
Ca            1.9651100000        1.8611200000        5.8860000000    0   0   0
O             0.0000000000        1.8611200000        7.3367500000    0   0   0
O             1.9651100000        0.0000000000        7.4847600000    0   0   0
Cu            0.0000000000        0.0000000000        7.6688600000    0   0   0
Ba            1.9651100000        1.8611200000        9.5626719760
O             0.0000000000        0.0000000000        9.8978258614
O             0.0000000000        1.8611200000       11.7703090210
Cu            0.0000000000        0.0000000000       11.8125959685
O             0.0000000000        0.0000000000       13.7103805364
Ba            1.9651100000        1.8611200000       14.0734728547
Cu            0.0000000000        0.0000000000       15.9707922632
O             1.9651100000        0.0000000000       16.1630953334
O             0.0000000000        1.8611200000       16.3096641759
Ca            1.9651100000        1.8611200000       17.7640128599    0   0   0
O             0.0000000000        1.8611200000       19.3949463103    0   0   0
O             1.9651100000        0.0000000000       19.5322598001    0   0   0
Cu            0.0000000000        0.0000000000       19.6893469323    0   0   0
Ba            1.9651100000        1.8611200000       21.5311700000    0   0   0
O             0.0000000000        0.0000000000       21.7902800000    0   0   0
Cu            0.0000000000        0.0000000000       23.6635800000    0   0   0
O             0.0000000000        1.8611200000       23.9521300000    0   0   0
End final coordinates


 
     init_run     :      8.37s CPU      8.90s WALL (       1 calls)
     electrons    :   2704.57s CPU   2923.90s WALL (       6 calls)
     update_pot   :      8.13s CPU      8.20s WALL (       5 calls)
     forces       :     21.15s CPU     23.39s WALL (       6 calls)
     stress       :    129.40s CPU    135.07s WALL (       6 calls)

     Called by init_run:
     wfcinit      :      5.93s CPU      6.07s WALL (       1 calls)
     potinit      :      0.59s CPU      0.61s WALL (       1 calls)
     hinit0       :      1.04s CPU      1.06s WALL (       1 calls)

     Called by electrons:
     c_bands      :   2090.43s CPU   2178.18s WALL (     190 calls)
     sum_band     :    413.75s CPU    486.63s WALL (     190 calls)
     v_of_rho     :     17.32s CPU     17.52s WALL (     196 calls)
     newd         :     92.26s CPU    151.57s WALL (     196 calls)
     mix_rho      :     92.05s CPU     92.87s WALL (     190 calls)

     Called by c_bands:
     init_us_2    :     18.91s CPU     19.28s WALL (    9825 calls)
     cegterg      :   1955.62s CPU   2040.25s WALL (    4750 calls)

     Called by sum_band:
     sum_band:bec :      1.31s CPU      1.32s WALL (    4750 calls)
     addusdens    :     98.21s CPU    166.95s WALL (     190 calls)

     Called by *egterg:
     h_psi        :   1090.40s CPU   1139.76s WALL (   13617 calls)
     s_psi        :    108.35s CPU    109.80s WALL (   13617 calls)
     g_psi        :      3.52s CPU      3.55s WALL (    8842 calls)
     cdiaghg      :    352.77s CPU    354.54s WALL (   13467 calls)

     Called by h_psi:
     h_psi:calbec :    122.85s CPU    128.97s WALL (   13617 calls)
     vloc_psi     :    850.37s CPU    865.29s WALL (   13617 calls)
     add_vuspsi   :    111.20s CPU    127.19s WALL (   13617 calls)

     General routines
     calbec       :    209.57s CPU    216.06s WALL (   19117 calls)
     fft          :     15.54s CPU     15.65s WALL (    2691 calls)
     ffts         :     49.71s CPU     50.15s WALL (   74746 calls)
     fftw         :    984.43s CPU   1001.19s WALL ( 3363320 calls)
     interpolate  :      1.20s CPU      1.20s WALL (     196 calls)
 
     Parallel routines
     fft_scatt_xy :    124.14s CPU    126.01s WALL ( 3440757 calls)
     fft_scatt_yz :    621.41s CPU    631.56s WALL ( 3440757 calls)
 
     PWSCF        :  47m55.00s CPU  51m44.61s WALL

 
   This run was terminated on:   0:17:57  29Jun2021            

=------------------------------------------------------------------------------=
   JOB DONE.
=------------------------------------------------------------------------------=
[1624940277.817108] [holy7c04306:235222:0]          mpool.c:43   UCX  WARN  object 0x3b80a00 was not returned to mpool ucp_requests
[1624940277.824412] [holy7c04303:221233:0]          mpool.c:43   UCX  WARN  object 0x324ecc0 was not returned to mpool ucp_requests
[1624940277.830328] [holy7c04101:201166:0]          mpool.c:43   UCX  WARN  object 0x3a1b500 was not returned to mpool ucp_requests
[1624940277.828346] [holy7c04303:221228:0]          mpool.c:43   UCX  WARN  object 0x2a7c480 was not returned to mpool ucp_requests
[1624940277.828941] [holy7c04303:221232:0]          mpool.c:43   UCX  WARN  object 0x2cf19c0 was not returned to mpool ucp_requests
[1624940277.828961] [holy7c04303:221232:0]          mpool.c:43   UCX  WARN  object 0x2cf1f00 was not returned to mpool ucp_requests
[1624940277.838515] [holy7c04101:201167:0]          mpool.c:43   UCX  WARN  object 0x2980200 was not returned to mpool ucp_requests
