
     Program PWSCF v.6.5 starts on  9Jul2021 at 12:47:43 

     This program is part of the open-source Quantum ESPRESSO suite
     for quantum simulation of materials; please cite
         "P. Giannozzi et al., J. Phys.:Condens. Matter 21 395502 (2009);
         "P. Giannozzi et al., J. Phys.:Condens. Matter 29 465901 (2017);
          URL http://www.quantum-espresso.org", 
     in publications or presentations arising from this work. More details at
     http://www.quantum-espresso.org/quote

     Parallel version (MPI), running on    20 processors

     MPI processes distributed on     2 nodes
     R & G space division:  proc/nbgrp/npool/nimage =      20
     Reading input from CBCO_Y_cleave_1.0_sep.pwi
Warning: card &CELL ignored
Warning: card     CELL_DYNAMICS = 'BFGS' ignored
Warning: card     PRESS_CONV_THR = 0.5 ignored
Warning: card / ignored

     Current dimensions of program PWSCF are:
     Max number of different atomic species (ntypx) = 10
     Max number of k-points (npk) =  40000
     Max angular momentum in pseudopotentials (lmaxx) =  3

     Subspace diagonalization in iterative solution of the eigenvalue problem:
     one sub-group per band group will be used
     scalapack distributed-memory algorithm (size of sub-group:  4*  4 procs)

     Message from routine setup:
     using ibrav=0 with symmetry is DISCOURAGED, use correct ibrav instead
 
     Parallelization info
     --------------------
     sticks:   dense  smooth     PW     G-vecs:    dense   smooth      PW
     Min         149      50     14                71773    13820    2160
     Max         150      51     15                71810    13841    2205
     Sum        2991    1007    289              1435837   276553   43473
 


     bravais-lattice index     =            0
     lattice parameter (alat)  =       7.4270  a.u.
     unit-cell volume          =    4401.0322 (a.u.)^3
     number of atoms/cell      =           28
     number of atomic types    =            4
     number of electrons       =       227.00
     number of Kohn-Sham states=          137
     kinetic-energy cutoff     =      60.0000  Ry
     charge density cutoff     =     720.0000  Ry
     convergence threshold     =      1.0E-10
     mixing beta               =       0.7000
     number of iterations used =           10  local-TF  mixing
     Exchange-correlation= SLA PW PBE PBE
                           (   1   4   3   4   0   0   0)
     nstep                     =          300


     celldm(1)=   7.427040  celldm(2)=   0.000000  celldm(3)=   0.000000
     celldm(4)=   0.000000  celldm(5)=   0.000000  celldm(6)=   0.000000

     crystal axes: (cart. coord. in units of alat)
               a(1) = (   1.000000   0.000000   0.000000 )  
               a(2) = (   0.000000   0.947081   0.000000 )  
               a(3) = (   0.000000   0.000000  11.342795 )  

     reciprocal axes: (cart. coord. in units 2 pi/alat)
               b(1) = (  1.000000  0.000000  0.000000 )  
               b(2) = (  0.000000  1.055876  0.000000 )  
               b(3) = (  0.000000  0.000000  0.088162 )  


     PseudoPot. # 1 for Ba read from file:
     ./pseudo/Ba.pbe-nsp-van.UPF
     MD5 check sum: 2b9c31dd849566dd297d80989662b7a0
     Pseudo is Ultrasoft + core correction, Zval = 10.0
     Generated by new atomic code, or converted to UPF format
     Using radial grid of  907 points,  6 beta functions with: 
                l(1) =   0
                l(2) =   0
                l(3) =   1
                l(4) =   1
                l(5) =   2
                l(6) =   2
     Q(r) pseudized with  6 coefficients,  rinner =    1.200   1.200   1.200
                                                       1.200   1.200

     PseudoPot. # 2 for Ca read from file:
     ./pseudo/Ca.pbe-nsp-van.UPF
     MD5 check sum: 6471098428ff4fa451746d08035ff179
     Pseudo is Ultrasoft + core correction, Zval = 10.0
     Generated by new atomic code, or converted to UPF format
     Using radial grid of  845 points,  6 beta functions with: 
                l(1) =   0
                l(2) =   0
                l(3) =   1
                l(4) =   1
                l(5) =   2
                l(6) =   2
     Q(r) pseudized with  6 coefficients,  rinner =    1.200   1.200   1.200
                                                       1.200   1.200

     PseudoPot. # 3 for Cu read from file:
     ./pseudo/Cu.pbe-n-van_ak.UPF
     MD5 check sum: 34e3282627ffb533726feb647e090d62
     Pseudo is Ultrasoft + core correction, Zval = 11.0
     Generated by new atomic code, or converted to UPF format
     Using radial grid of  867 points,  6 beta functions with: 
                l(1) =   0
                l(2) =   0
                l(3) =   1
                l(4) =   1
                l(5) =   2
                l(6) =   2
     Q(r) pseudized with  8 coefficients,  rinner =    1.400   1.400   1.400
                                                       1.400   1.400

     PseudoPot. # 4 for O  read from file:
     ./pseudo/O.pbe-van_ak.UPF
     MD5 check sum: 783ce7fe4c79b6a4916957118fed0856
     Pseudo is Ultrasoft, Zval =  6.0
     Generated by new atomic code, or converted to UPF format
     Using radial grid of  737 points,  4 beta functions with: 
                l(1) =   0
                l(2) =   0
                l(3) =   1
                l(4) =   1
     Q(r) pseudized with  8 coefficients,  rinner =    0.800   0.800   0.800


     atomic species   valence    mass     pseudopotential
        Ba            10.00   137.32700     Ba( 1.00)
        Ca            10.00    40.07800     Ca( 1.00)
        Cu            11.00    63.54600     Cu( 1.00)
        O              6.00    15.99900     O ( 1.00)

      4 Sym. Ops. (no inversion) found



   Cartesian axes

     site n.     atom                  positions (alat units)
         1           O   tau(   1) = (   0.0000000   0.4735409  -0.0469745  )
         2           Cu  tau(   2) = (   0.0000000   0.0000000   0.0264565  )
         3           O   tau(   3) = (   0.0000000   0.0000000   0.5030914  )
         4           Ba  tau(   4) = (   0.5000000   0.4735409   0.5690292  )
         5           Cu  tau(   5) = (   0.0000000   0.0000000   1.0374254  )
         6           O   tau(   6) = (   0.5000000   0.0000000   1.0768099  )
         7           O   tau(   7) = (   0.0000000   0.4735409   1.1116985  )
         8           Ca  tau(   8) = (   0.5000000   0.4735409   1.4976260  )
         9           O   tau(   9) = (   0.0000000   0.4735409   1.8667529  )
        10           O   tau(  10) = (   0.5000000   0.0000000   1.9044124  )
        11           Cu  tau(  11) = (   0.0000000   0.0000000   1.9512546  )
        12           Ba  tau(  12) = (   0.5000000   0.4735409   2.4295764  )
        13           O   tau(  13) = (   0.0000000   0.0000000   2.5115362  )
        14           O   tau(  14) = (   0.0000000   0.4735409   2.9918528  )
        15           Cu  tau(  15) = (   0.0000000   0.0000000   2.9919088  )
        16           O   tau(  16) = (   0.0000000   0.0000000   3.4468248  )
        17           Ba  tau(  17) = (   0.5000000   0.4735409   3.5287769  )
        18           Cu  tau(  18) = (   0.0000000   0.0000000   4.0579686  )
        19           O   tau(  19) = (   0.5000000   0.0000000   4.1048108  )
        20           O   tau(  20) = (   0.0000000   0.4735409   4.0915774  )
        21           Ca  tau(  21) = (   0.5000000   0.4735409   4.4607145  )
        22           O   tau(  22) = (   0.0000000   0.4735409   5.1519659  )
        23           O   tau(  23) = (   0.5000000   0.0000000   5.1868545  )
        24           Cu  tau(  24) = (   0.0000000   0.0000000   5.1753539  )
        25           Ba  tau(  25) = (   0.5000000   0.4735409   5.6691914  )
        26           O   tau(  26) = (   0.0000000   0.0000000   5.7351190  )
        27           Cu  tau(  27) = (   0.0000000   0.0000000   6.2117589  )
        28           O   tau(  28) = (   0.0000000   0.4735409   6.2851772  )

     number of k points=    25  Gaussian smearing, width (Ry)=  0.0100
                       cart. coord. in units 2pi/alat
        k(    1) = (   0.0000000   0.0000000   0.0000000), wk =   0.0312500
        k(    2) = (   0.0000000   0.1319845   0.0000000), wk =   0.0625000
        k(    3) = (   0.0000000   0.2639689   0.0000000), wk =   0.0625000
        k(    4) = (   0.0000000   0.3959534   0.0000000), wk =   0.0625000
        k(    5) = (   0.0000000  -0.5279378   0.0000000), wk =   0.0312500
        k(    6) = (   0.1250000   0.0000000   0.0000000), wk =   0.0625000
        k(    7) = (   0.1250000   0.1319845   0.0000000), wk =   0.1250000
        k(    8) = (   0.1250000   0.2639689   0.0000000), wk =   0.1250000
        k(    9) = (   0.1250000   0.3959534   0.0000000), wk =   0.1250000
        k(   10) = (   0.1250000  -0.5279378   0.0000000), wk =   0.0625000
        k(   11) = (   0.2500000   0.0000000   0.0000000), wk =   0.0625000
        k(   12) = (   0.2500000   0.1319845   0.0000000), wk =   0.1250000
        k(   13) = (   0.2500000   0.2639689   0.0000000), wk =   0.1250000
        k(   14) = (   0.2500000   0.3959534   0.0000000), wk =   0.1250000
        k(   15) = (   0.2500000  -0.5279378   0.0000000), wk =   0.0625000
        k(   16) = (   0.3750000   0.0000000   0.0000000), wk =   0.0625000
        k(   17) = (   0.3750000   0.1319845   0.0000000), wk =   0.1250000
        k(   18) = (   0.3750000   0.2639689   0.0000000), wk =   0.1250000
        k(   19) = (   0.3750000   0.3959534   0.0000000), wk =   0.1250000
        k(   20) = (   0.3750000  -0.5279378   0.0000000), wk =   0.0625000
        k(   21) = (  -0.5000000   0.0000000   0.0000000), wk =   0.0312500
        k(   22) = (  -0.5000000   0.1319845   0.0000000), wk =   0.0625000
        k(   23) = (  -0.5000000   0.2639689   0.0000000), wk =   0.0625000
        k(   24) = (  -0.5000000   0.3959534   0.0000000), wk =   0.0625000
        k(   25) = (  -0.5000000  -0.5279378   0.0000000), wk =   0.0312500

     Dense  grid:  1435837 G-vectors     FFT dimensions: (  64,  64, 720)

     Smooth grid:   276553 G-vectors     FFT dimensions: (  40,  36, 432)

     Estimated max dynamical RAM per process >     458.17 MB

     Estimated total dynamical RAM >       8.95 GB

     Initial potential from superposition of free atoms

     starting charge  226.84630, renormalised to  227.00000

     negative rho (up, down):  3.462E-03 0.000E+00
     Starting wfcs are  195 randomized atomic wfcs

     total cpu time spent up to now is        9.7 secs

     Self-consistent Calculation

     iteration #  1     ecut=    60.00 Ry     beta= 0.70
     Davidson diagonalization with overlap
     ethr =  1.00E-02,  avg # of iterations =  2.0

     negative rho (up, down):  2.931E-04 0.000E+00

     total cpu time spent up to now is       24.6 secs

     total energy              =   -1839.50457257 Ry
     Harris-Foulkes estimate   =   -1845.33890960 Ry
     estimated scf accuracy    <      17.70528619 Ry

     iteration #  2     ecut=    60.00 Ry     beta= 0.70
     Davidson diagonalization with overlap
     ethr =  7.80E-03,  avg # of iterations =  2.0

     negative rho (up, down):  2.664E-04 0.000E+00

     total cpu time spent up to now is       41.1 secs

     total energy              =   -1842.04255571 Ry
     Harris-Foulkes estimate   =   -1843.87700423 Ry
     estimated scf accuracy    <      12.72816217 Ry

     iteration #  3     ecut=    60.00 Ry     beta= 0.70
     Davidson diagonalization with overlap
     ethr =  5.61E-03,  avg # of iterations =  1.4

     negative rho (up, down):  2.505E-04 0.000E+00

     total cpu time spent up to now is       55.3 secs

     total energy              =   -1842.64443061 Ry
     Harris-Foulkes estimate   =   -1842.99940832 Ry
     estimated scf accuracy    <       3.36049019 Ry

     iteration #  4     ecut=    60.00 Ry     beta= 0.70
     Davidson diagonalization with overlap
     ethr =  1.48E-03,  avg # of iterations =  1.3

     negative rho (up, down):  2.441E-04 0.000E+00

     total cpu time spent up to now is       69.0 secs

     total energy              =   -1842.76689837 Ry
     Harris-Foulkes estimate   =   -1842.94758284 Ry
     estimated scf accuracy    <       6.54705371 Ry

     iteration #  5     ecut=    60.00 Ry     beta= 0.70
     Davidson diagonalization with overlap
     ethr =  1.48E-03,  avg # of iterations =  1.0

     negative rho (up, down):  2.414E-04 0.000E+00

     total cpu time spent up to now is       82.3 secs

     total energy              =   -1842.82022082 Ry
     Harris-Foulkes estimate   =   -1842.84174700 Ry
     estimated scf accuracy    <       1.79922227 Ry

     iteration #  6     ecut=    60.00 Ry     beta= 0.70
     Davidson diagonalization with overlap
     ethr =  7.93E-04,  avg # of iterations =  1.0

     negative rho (up, down):  2.342E-04 0.000E+00

     total cpu time spent up to now is       95.8 secs

     total energy              =   -1842.79972148 Ry
     Harris-Foulkes estimate   =   -1842.82956727 Ry
     estimated scf accuracy    <       1.12045799 Ry

     iteration #  7     ecut=    60.00 Ry     beta= 0.70
     Davidson diagonalization with overlap
     ethr =  4.94E-04,  avg # of iterations =  2.9

     negative rho (up, down):  2.333E-04 0.000E+00

     total cpu time spent up to now is      111.1 secs

     total energy              =   -1842.80441824 Ry
     Harris-Foulkes estimate   =   -1842.81404301 Ry
     estimated scf accuracy    <       1.08190239 Ry

     iteration #  8     ecut=    60.00 Ry     beta= 0.70
     Davidson diagonalization with overlap
     ethr =  4.77E-04,  avg # of iterations =  1.2

     negative rho (up, down):  2.322E-04 0.000E+00

     total cpu time spent up to now is      124.9 secs

     total energy              =   -1842.79900424 Ry
     Harris-Foulkes estimate   =   -1842.80867683 Ry
     estimated scf accuracy    <       0.79202319 Ry

     iteration #  9     ecut=    60.00 Ry     beta= 0.70
     Davidson diagonalization with overlap
     ethr =  3.49E-04,  avg # of iterations =  3.0

     negative rho (up, down):  2.316E-04 0.000E+00

     total cpu time spent up to now is      140.3 secs

     total energy              =   -1842.79378295 Ry
     Harris-Foulkes estimate   =   -1842.80253036 Ry
     estimated scf accuracy    <       0.26951185 Ry

     iteration # 10     ecut=    60.00 Ry     beta= 0.70
     Davidson diagonalization with overlap
     ethr =  1.19E-04,  avg # of iterations =  8.9

     negative rho (up, down):  2.305E-04 0.000E+00

     total cpu time spent up to now is      162.6 secs

     total energy              =   -1842.79409529 Ry
     Harris-Foulkes estimate   =   -1842.79733480 Ry
     estimated scf accuracy    <       0.12124754 Ry

     iteration # 11     ecut=    60.00 Ry     beta= 0.70
     Davidson diagonalization with overlap
     ethr =  5.34E-05,  avg # of iterations =  1.6

     negative rho (up, down):  2.301E-04 0.000E+00

     total cpu time spent up to now is      176.5 secs

     total energy              =   -1842.79394111 Ry
     Harris-Foulkes estimate   =   -1842.79542374 Ry
     estimated scf accuracy    <       0.10306720 Ry

     iteration # 12     ecut=    60.00 Ry     beta= 0.70
     Davidson diagonalization with overlap
     ethr =  4.54E-05,  avg # of iterations =  1.9

     negative rho (up, down):  2.300E-04 0.000E+00

     total cpu time spent up to now is      190.8 secs

     total energy              =   -1842.79270666 Ry
     Harris-Foulkes estimate   =   -1842.79470633 Ry
     estimated scf accuracy    <       0.12486714 Ry

     iteration # 13     ecut=    60.00 Ry     beta= 0.70
     Davidson diagonalization with overlap
     ethr =  4.54E-05,  avg # of iterations =  1.6

     negative rho (up, down):  2.311E-04 0.000E+00

     total cpu time spent up to now is      204.9 secs

     total energy              =   -1842.79214845 Ry
     Harris-Foulkes estimate   =   -1842.79327216 Ry
     estimated scf accuracy    <       0.10439830 Ry

     iteration # 14     ecut=    60.00 Ry     beta= 0.70
     Davidson diagonalization with overlap
     ethr =  4.54E-05,  avg # of iterations =  1.0

     negative rho (up, down):  2.138E-03 0.000E+00

     total cpu time spent up to now is      218.3 secs

     total energy              =   -1842.79055814 Ry
     Harris-Foulkes estimate   =   -1842.79253491 Ry
     estimated scf accuracy    <       0.07635678 Ry

     iteration # 15     ecut=    60.00 Ry     beta= 0.70
     Davidson diagonalization with overlap
     ethr =  3.36E-05,  avg # of iterations =  3.0

     negative rho (up, down):  2.478E-04 0.000E+00

     total cpu time spent up to now is      233.8 secs

     total energy              =   -1842.78980388 Ry
     Harris-Foulkes estimate   =   -1842.79112022 Ry
     estimated scf accuracy    <       0.07827451 Ry

     iteration # 16     ecut=    60.00 Ry     beta= 0.70
     Davidson diagonalization with overlap
     ethr =  3.36E-05,  avg # of iterations =  1.0

     negative rho (up, down):  1.656E-02 0.000E+00

     total cpu time spent up to now is      247.3 secs

     total energy              =   -1842.78770170 Ry
     Harris-Foulkes estimate   =   -1842.79072397 Ry
     estimated scf accuracy    <       0.05450238 Ry

     iteration # 17     ecut=    60.00 Ry     beta= 0.70
     Davidson diagonalization with overlap
     ethr =  2.40E-05,  avg # of iterations =  7.0

     negative rho (up, down):  1.935E-02 0.000E+00

     total cpu time spent up to now is      267.4 secs

     total energy              =   -1842.78765877 Ry
     Harris-Foulkes estimate   =   -1842.78835812 Ry
     estimated scf accuracy    <       0.01696491 Ry

     iteration # 18     ecut=    60.00 Ry     beta= 0.70
     Davidson diagonalization with overlap
     ethr =  7.47E-06,  avg # of iterations =  9.4

     negative rho (up, down):  1.570E-02 0.000E+00

     total cpu time spent up to now is      290.2 secs

     total energy              =   -1842.78737945 Ry
     Harris-Foulkes estimate   =   -1842.78786646 Ry
     estimated scf accuracy    <       0.00651740 Ry

     iteration # 19     ecut=    60.00 Ry     beta= 0.70
     Davidson diagonalization with overlap
     ethr =  2.87E-06,  avg # of iterations =  7.4

     negative rho (up, down):  6.330E-03 0.000E+00

     total cpu time spent up to now is      310.4 secs

     total energy              =   -1842.78723881 Ry
     Harris-Foulkes estimate   =   -1842.78756075 Ry
     estimated scf accuracy    <       0.00299014 Ry

     iteration # 20     ecut=    60.00 Ry     beta= 0.70
     Davidson diagonalization with overlap
     ethr =  1.32E-06,  avg # of iterations =  9.0

     negative rho (up, down):  3.865E-03 0.000E+00

     total cpu time spent up to now is      332.9 secs

     total energy              =   -1842.78724879 Ry
     Harris-Foulkes estimate   =   -1842.78730432 Ry
     estimated scf accuracy    <       0.00126980 Ry

     iteration # 21     ecut=    60.00 Ry     beta= 0.70
     Davidson diagonalization with overlap
     ethr =  5.59E-07,  avg # of iterations =  5.4

     negative rho (up, down):  3.971E-03 0.000E+00

     total cpu time spent up to now is      351.0 secs

     total energy              =   -1842.78723176 Ry
     Harris-Foulkes estimate   =   -1842.78726347 Ry
     estimated scf accuracy    <       0.00050597 Ry

     iteration # 22     ecut=    60.00 Ry     beta= 0.70
     Davidson diagonalization with overlap
     ethr =  2.23E-07,  avg # of iterations =  1.7

     negative rho (up, down):  1.167E-03 0.000E+00

     total cpu time spent up to now is      365.2 secs

     total energy              =   -1842.78725997 Ry
     Harris-Foulkes estimate   =   -1842.78726680 Ry
     estimated scf accuracy    <       0.00086390 Ry

     iteration # 23     ecut=    60.00 Ry     beta= 0.70
     Davidson diagonalization with overlap
     c_bands:  1 eigenvalues not converged
     c_bands:  1 eigenvalues not converged
     ethr =  2.23E-07,  avg # of iterations =  8.1

     negative rho (up, down):  1.297E-03 0.000E+00

     total cpu time spent up to now is      386.3 secs

     total energy              =   -1842.78728064 Ry
     Harris-Foulkes estimate   =   -1842.78728962 Ry
     estimated scf accuracy    <       0.00023856 Ry

     iteration # 24     ecut=    60.00 Ry     beta= 0.70
     Davidson diagonalization with overlap
     ethr =  1.05E-07,  avg # of iterations =  1.2

     negative rho (up, down):  1.249E-03 0.000E+00

     total cpu time spent up to now is      400.1 secs

     total energy              =   -1842.78728375 Ry
     Harris-Foulkes estimate   =   -1842.78728470 Ry
     estimated scf accuracy    <       0.00009385 Ry

     iteration # 25     ecut=    60.00 Ry     beta= 0.70
     Davidson diagonalization with overlap
     ethr =  4.13E-08,  avg # of iterations =  1.0

     negative rho (up, down):  1.390E-03 0.000E+00

     total cpu time spent up to now is      413.9 secs

     total energy              =   -1842.78728504 Ry
     Harris-Foulkes estimate   =   -1842.78728491 Ry
     estimated scf accuracy    <       0.00002444 Ry

     iteration # 26     ecut=    60.00 Ry     beta= 0.70
     Davidson diagonalization with overlap
     ethr =  1.08E-08,  avg # of iterations =  1.2

     negative rho (up, down):  1.540E-03 0.000E+00

     total cpu time spent up to now is      427.6 secs

     total energy              =   -1842.78728544 Ry
     Harris-Foulkes estimate   =   -1842.78728583 Ry
     estimated scf accuracy    <       0.00000486 Ry

     iteration # 27     ecut=    60.00 Ry     beta= 0.70
     Davidson diagonalization with overlap
     ethr =  2.14E-09,  avg # of iterations =  2.0

     negative rho (up, down):  1.555E-03 0.000E+00

     total cpu time spent up to now is      442.1 secs

     total energy              =   -1842.78728557 Ry
     Harris-Foulkes estimate   =   -1842.78728575 Ry
     estimated scf accuracy    <       0.00000337 Ry

     iteration # 28     ecut=    60.00 Ry     beta= 0.70
     Davidson diagonalization with overlap
     ethr =  1.48E-09,  avg # of iterations =  1.0

     negative rho (up, down):  1.563E-03 0.000E+00

     total cpu time spent up to now is      455.6 secs

     total energy              =   -1842.78728561 Ry
     Harris-Foulkes estimate   =   -1842.78728566 Ry
     estimated scf accuracy    <       0.00000087 Ry

     iteration # 29     ecut=    60.00 Ry     beta= 0.70
     Davidson diagonalization with overlap
     ethr =  3.82E-10,  avg # of iterations =  2.4

     negative rho (up, down):  1.513E-03 0.000E+00

     total cpu time spent up to now is      470.7 secs

     total energy              =   -1842.78728570 Ry
     Harris-Foulkes estimate   =   -1842.78728566 Ry
     estimated scf accuracy    <       0.00000058 Ry

     iteration # 30     ecut=    60.00 Ry     beta= 0.70
     Davidson diagonalization with overlap
     ethr =  2.57E-10,  avg # of iterations =  1.0

     negative rho (up, down):  1.522E-03 0.000E+00

     total cpu time spent up to now is      484.3 secs

     total energy              =   -1842.78728569 Ry
     Harris-Foulkes estimate   =   -1842.78728571 Ry
     estimated scf accuracy    <       0.00000029 Ry

     iteration # 31     ecut=    60.00 Ry     beta= 0.70
     Davidson diagonalization with overlap
     ethr =  1.29E-10,  avg # of iterations =  1.3

     negative rho (up, down):  1.513E-03 0.000E+00

     total cpu time spent up to now is      498.3 secs

     total energy              =   -1842.78728570 Ry
     Harris-Foulkes estimate   =   -1842.78728570 Ry
     estimated scf accuracy    <       0.00000008 Ry

     iteration # 32     ecut=    60.00 Ry     beta= 0.70
     Davidson diagonalization with overlap
     ethr =  3.63E-11,  avg # of iterations =  2.6

     negative rho (up, down):  1.501E-03 0.000E+00

     total cpu time spent up to now is      513.5 secs

     total energy              =   -1842.78728573 Ry
     Harris-Foulkes estimate   =   -1842.78728571 Ry
     estimated scf accuracy    <       0.00000002 Ry

     iteration # 33     ecut=    60.00 Ry     beta= 0.70
     Davidson diagonalization with overlap
     ethr =  9.74E-12,  avg # of iterations =  3.0

     negative rho (up, down):  1.503E-03 0.000E+00

     total cpu time spent up to now is      529.8 secs

     total energy              =   -1842.78728573 Ry
     Harris-Foulkes estimate   =   -1842.78728573 Ry
     estimated scf accuracy    <       0.00000002 Ry

     iteration # 34     ecut=    60.00 Ry     beta= 0.70
     Davidson diagonalization with overlap
     ethr =  7.65E-12,  avg # of iterations =  1.0

     negative rho (up, down):  1.503E-03 0.000E+00

     total cpu time spent up to now is      543.3 secs

     total energy              =   -1842.78728573 Ry
     Harris-Foulkes estimate   =   -1842.78728573 Ry
     estimated scf accuracy    <          3.9E-09 Ry

     iteration # 35     ecut=    60.00 Ry     beta= 0.70
     Davidson diagonalization with overlap
     ethr =  1.72E-12,  avg # of iterations =  2.6

     negative rho (up, down):  1.504E-03 0.000E+00

     total cpu time spent up to now is      559.0 secs

     total energy              =   -1842.78728572 Ry
     Harris-Foulkes estimate   =   -1842.78728573 Ry
     estimated scf accuracy    <          4.0E-09 Ry

     iteration # 36     ecut=    60.00 Ry     beta= 0.70
     Davidson diagonalization with overlap
     ethr =  1.72E-12,  avg # of iterations =  1.0

     negative rho (up, down):  1.504E-03 0.000E+00

     total cpu time spent up to now is      572.7 secs

     total energy              =   -1842.78728572 Ry
     Harris-Foulkes estimate   =   -1842.78728572 Ry
     estimated scf accuracy    <          1.1E-09 Ry

     iteration # 37     ecut=    60.00 Ry     beta= 0.70
     Davidson diagonalization with overlap
     ethr =  4.74E-13,  avg # of iterations =  1.0

     negative rho (up, down):  1.505E-03 0.000E+00

     total cpu time spent up to now is      586.1 secs

     total energy              =   -1842.78728572 Ry
     Harris-Foulkes estimate   =   -1842.78728572 Ry
     estimated scf accuracy    <          7.8E-10 Ry

     iteration # 38     ecut=    60.00 Ry     beta= 0.70
     Davidson diagonalization with overlap
     ethr =  3.43E-13,  avg # of iterations =  1.0

     negative rho (up, down):  1.503E-03 0.000E+00

     total cpu time spent up to now is      599.6 secs

     total energy              =   -1842.78728573 Ry
     Harris-Foulkes estimate   =   -1842.78728572 Ry
     estimated scf accuracy    <          1.0E-09 Ry

     iteration # 39     ecut=    60.00 Ry     beta= 0.70
     Davidson diagonalization with overlap
     ethr =  3.43E-13,  avg # of iterations =  1.0

     negative rho (up, down):  1.503E-03 0.000E+00

     total cpu time spent up to now is      613.1 secs

     total energy              =   -1842.78728573 Ry
     Harris-Foulkes estimate   =   -1842.78728573 Ry
     estimated scf accuracy    <          6.0E-10 Ry

     iteration # 40     ecut=    60.00 Ry     beta= 0.70
     Davidson diagonalization with overlap
     ethr =  2.62E-13,  avg # of iterations =  1.0

     negative rho (up, down):  1.503E-03 0.000E+00

     total cpu time spent up to now is      626.5 secs

     total energy              =   -1842.78728573 Ry
     Harris-Foulkes estimate   =   -1842.78728573 Ry
     estimated scf accuracy    <          3.0E-10 Ry

     iteration # 41     ecut=    60.00 Ry     beta= 0.70
     Davidson diagonalization with overlap
     ethr =  1.31E-13,  avg # of iterations =  1.0

     negative rho (up, down):  1.504E-03 0.000E+00

     total cpu time spent up to now is      640.0 secs

     total energy              =   -1842.78728573 Ry
     Harris-Foulkes estimate   =   -1842.78728573 Ry
     estimated scf accuracy    <          1.6E-10 Ry

     iteration # 42     ecut=    60.00 Ry     beta= 0.70
     Davidson diagonalization with overlap
     ethr =  1.00E-13,  avg # of iterations =  1.0

     negative rho (up, down):  1.505E-03 0.000E+00

     total cpu time spent up to now is      653.1 secs

     End of self-consistent calculation

          k = 0.0000 0.0000 0.0000 ( 34661 PWs)   bands (ev):

   -37.4057 -35.5717 -22.8335 -22.7816 -22.5270 -22.2794 -18.5833 -18.4356
   -18.4059 -17.0765 -16.6226 -16.6114 -15.4011 -15.2887 -15.0090 -14.9611
   -14.6617 -14.5581 -14.4947 -14.3779 -14.1722 -13.9744 -13.9708 -13.8165
   -13.8013 -13.6932 -13.6417  -8.0611  -7.9129  -7.8754  -7.8298  -7.7156
    -7.6974  -7.6825  -7.5688  -7.4029  -7.3947  -7.3526  -7.2037  -2.3584
    -2.3205  -2.0434  -2.0015  -1.9465  -1.8198  -1.7467  -1.6564  -1.5235
    -1.4679  -1.3686  -1.2110  -1.2099  -1.2012  -1.1769  -1.1059  -0.9891
    -0.9713  -0.8083  -0.4494  -0.3676  -0.3335  -0.3103  -0.2869  -0.2640
    -0.2554  -0.2513  -0.2440  -0.2350  -0.2249  -0.2241  -0.1935  -0.1890
    -0.1705  -0.1349  -0.0280  -0.0141   0.0617   0.0753   0.0864   0.1083
     0.1084   0.1085   0.1843   0.1864   0.2285   0.3237   0.3321   0.3371
     0.6053   0.6183   0.7869   0.8663   0.8767   0.8912   0.9601   0.9792
     0.9910   1.1225   1.1407   1.1948   1.3594   1.3718   1.4588   1.5325
     1.5348   1.6745   1.6959   1.7155   1.8391   2.0214   2.0410   2.0712
     2.1154   2.2105   2.2285   2.2789   2.2904   2.5205   2.5450   4.5954
     5.2261   5.3645   5.8843   6.2958   6.7735   6.8550   7.1024   7.2792
     7.4054   7.9679   8.0007   8.1903   8.1949   8.3094   8.5282   8.6133
     8.6390

          k = 0.0000 0.1320 0.0000 ( 34589 PWs)   bands (ev):

   -37.4040 -35.5698 -22.8094 -22.7549 -22.5016 -22.2515 -18.5875 -18.4335
   -18.4306 -17.0403 -16.6840 -16.6203 -15.3403 -15.2001 -14.9512 -14.9072
   -14.6668 -14.5308 -14.4647 -14.3892 -14.1816 -14.0118 -13.9767 -13.8636
   -13.8514 -13.7225 -13.6965  -8.0529  -7.9125  -7.8276  -7.7863  -7.7576
    -7.7249  -7.7081  -7.5238  -7.4500  -7.3616  -7.3455  -7.2376  -2.4148
    -2.3772  -2.2529  -2.1566  -2.0427  -2.0390  -2.0160  -1.7742  -1.6880
    -1.6363  -1.6352  -1.6166  -1.5057  -1.4027  -1.3275  -1.1996  -1.1237
    -0.9157  -0.8592  -0.6725  -0.6174  -0.5835  -0.5468  -0.4581  -0.4520
    -0.4352  -0.4015  -0.3198  -0.2715  -0.2509  -0.2144  -0.1617  -0.1386
    -0.1249  -0.1080  -0.0066   0.0034   0.0168   0.0660   0.1318   0.1514
     0.1521   0.1899   0.1916   0.2330   0.2708   0.2930   0.3840   0.5910
     0.6190   0.7027   0.7476   0.9316   1.0527   1.0883   1.0944   1.1513
     1.2018   1.2040   1.2507   1.2632   1.4038   1.4166   1.4595   1.5266
     1.5631   1.6071   1.7047   1.7135   1.8297   1.8890   1.9798   2.0404
     2.1036   2.1133   2.1173   2.4384   2.8135   2.8334   2.8998   4.8460
     5.6023   5.7110   6.1549   6.5815   7.0743   7.1001   7.3064   7.5107
     7.6378   7.9589   8.0488   8.1727   8.3717   8.5169   8.6556   8.6876
     8.7650

          k = 0.0000 0.2640 0.0000 ( 34465 PWs)   bands (ev):

   -37.3998 -35.5654 -22.7498 -22.6890 -22.4390 -22.1825 -18.6278 -18.4570
   -18.4286 -16.9482 -16.8384 -16.6147 -15.1775 -15.0008 -14.8087 -14.7656
   -14.7142 -14.4690 -14.4388 -14.4125 -14.1686 -14.0797 -14.0171 -13.9996
   -13.9694 -13.7945 -13.7936  -8.0371  -7.9120  -7.8708  -7.8151  -7.7072
    -7.7063  -7.6774  -7.5518  -7.4107  -7.3828  -7.3102  -7.2212  -2.9836
    -2.8250  -2.7650  -2.6012  -2.6005  -2.4194  -2.3428  -2.3134  -2.2719
    -2.0227  -1.9311  -1.8173  -1.5829  -1.4761  -1.4495  -1.3720  -1.1947
    -1.1684  -1.0083  -0.9720  -0.9677  -0.8925  -0.7980  -0.7911  -0.7064
    -0.7016  -0.6422  -0.5455  -0.5211  -0.5107  -0.4878  -0.4818  -0.3071
    -0.2536  -0.1841   0.0216   0.0273   0.0422   0.1014   0.1151   0.1614
     0.2128   0.2307   0.3236   0.3869   0.6245   0.6302   0.7066   0.8138
     0.8187   0.9522   0.9811   1.0261   1.1351   1.1553   1.1736   1.2105
     1.2821   1.2948   1.3023   1.3818   1.4293   1.5130   1.5886   1.6230
     1.6600   1.6633   1.8174   1.9337   1.9634   1.9697   1.9831   2.0141
     2.1106   2.1502   2.1736   2.5714   3.0504   3.1182   3.8207   5.3353
     6.4961   6.5889   6.7488   7.3249   7.3735   7.6376   7.7980   7.8980
     8.2673   8.3352   8.4115   8.5988   8.6854   8.7565   8.8680   8.9131
     9.1067

          k = 0.0000 0.3960 0.0000 ( 34424 PWs)   bands (ev):

   -37.3956 -35.5610 -22.6885 -22.6209 -22.3744 -22.1109 -18.6978 -18.4498
   -18.4236 -16.9747 -16.8465 -16.6090 -14.9630 -14.9248 -14.7061 -14.6694
   -14.6268 -14.5123 -14.4270 -14.3538 -14.1585 -14.1340 -14.0916 -14.0802
   -14.0701 -13.9046 -13.8601  -8.0391  -7.9522  -7.9120  -7.8933  -7.7003
    -7.6416  -7.5787  -7.5623  -7.4035  -7.3714  -7.2908  -7.0883  -3.5637
    -3.4661  -3.2790  -3.2520  -3.0425  -2.9859  -2.9549  -2.3628  -2.3420
    -2.1653  -2.0582  -1.8030  -1.7881  -1.6258  -1.5183  -1.4895  -1.3669
    -1.2368  -1.2116  -1.1896  -1.1808  -1.1020  -1.0663  -0.9975  -0.9509
    -0.9064  -0.8561  -0.8155  -0.7412  -0.7234  -0.6975  -0.5271  -0.3256
    -0.2743  -0.1828  -0.1614   0.0125   0.0387   0.0449   0.1351   0.1535
     0.1809   0.2124   0.3869   0.5042   0.7851   0.7935   0.8150   0.8283
     0.9001   0.9365   0.9772   1.1059   1.1085   1.1446   1.1623   1.2129
     1.3839   1.4677   1.5258   1.6244   1.6307   1.6336   1.7139   1.7475
     1.7623   1.9485   1.9632   2.0126   2.0335   2.0890   2.1893   2.2576
     2.2660   2.3771   2.4026   2.5115   2.9455   3.1033   4.4562   5.7919
     7.1952   7.3566   7.4440   7.5730   7.6069   7.8889   8.2731   8.4064
     8.6902   8.7969   8.9404   8.9863   9.1057   9.1074   9.2379   9.4322
     9.5315

          k = 0.0000-0.5279 0.0000 ( 34482 PWs)   bands (ev):

   -37.3939 -35.5592 -22.6625 -22.5919 -22.3471 -22.0804 -18.7300 -18.4427
   -18.4215 -17.0269 -16.8015 -16.6067 -14.9673 -14.7671 -14.7443 -14.7041
   -14.5561 -14.4817 -14.3426 -14.3179 -14.2609 -14.1794 -14.1137 -14.0625
   -14.0368 -14.0037 -13.8946  -8.0564  -7.9653  -7.9230  -7.9116  -7.6923
    -7.6812  -7.5228  -7.5126  -7.4151  -7.3906  -7.2388  -7.0302  -3.8015
    -3.7070  -3.4939  -3.4576  -3.2252  -3.2010  -3.1895  -2.3790  -2.3451
    -2.2979  -2.0577  -1.9327  -1.7545  -1.6607  -1.5802  -1.4859  -1.3972
    -1.3488  -1.2711  -1.2241  -1.2211  -1.2109  -1.1893  -1.0970  -1.0651
    -0.9783  -0.9341  -0.9070  -0.8280  -0.8082  -0.7744  -0.5033  -0.2921
    -0.2816  -0.2629  -0.1639  -0.0269   0.0443   0.0509   0.1325   0.1519
     0.1836   0.2093   0.4024   0.4335   0.7064   0.7676   0.8254   0.8678
     0.8716   0.9261   1.0175   1.0228   1.1276   1.1346   1.1754   1.3357
     1.3985   1.4895   1.6092   1.7313   1.7492   1.7501   1.7690   1.9690
     2.0240   2.0320   2.0442   2.0590   2.0802   2.1432   2.2190   2.2359
     2.2967   2.4699   2.5387   2.5605   2.7685   3.0141   4.6573   6.0226
     7.0857   7.5376   7.5959   7.8561   7.8755   8.0804   8.4163   8.8110
     8.8629   8.9795   9.0218   9.0431   9.3159   9.3456   9.4144   9.4192
     9.4525

          k = 0.1250 0.0000 0.0000 ( 34573 PWs)   bands (ev):

   -37.4049 -35.5706 -22.8166 -22.7636 -22.5098 -22.2607 -18.5811 -18.4540
   -18.4049 -17.0431 -16.7029 -16.6100 -15.3570 -15.1868 -14.9878 -14.9708
   -14.7071 -14.5630 -14.5161 -14.3973 -14.1811 -13.9993 -13.9829 -13.8626
   -13.8231 -13.7241 -13.6743  -8.1045  -7.9387  -7.8137  -7.7944  -7.7232
    -7.6677  -7.6500  -7.5094  -7.4028  -7.3725  -7.3087  -7.1702  -2.3957
    -2.3629  -2.2118  -2.0399  -1.9127  -1.8620  -1.7972  -1.7970  -1.7183
    -1.4455  -1.4390  -1.3550  -1.2301  -1.2089  -1.2073  -1.1574  -1.0271
    -1.0146  -0.8294  -0.6221  -0.5688  -0.5051  -0.4076  -0.3807  -0.3620
    -0.3488  -0.3296  -0.3212  -0.2583  -0.2573  -0.2381  -0.2164  -0.1974
    -0.1878  -0.1409  -0.0366  -0.0160   0.0829   0.1010   0.1046   0.1115
     0.1301   0.2014   0.2039   0.2362   0.2389   0.2750   0.4014   0.4339
     0.6508   0.6859   0.7533   0.8017   0.8602   0.8929   0.9697   1.0029
     1.0195   1.1967   1.2145   1.2467   1.3276   1.3763   1.4928   1.5429
     1.6227   1.6470   1.7192   1.8779   1.9569   1.9806   2.0096   2.0657
     2.0789   2.1823   2.1846   2.2174   2.3291   2.5799   2.5919   4.7968
     5.4062   5.5254   6.0510   6.4939   6.9875   7.0117   7.2311   7.4814
     7.5907   7.9345   8.1132   8.1441   8.3101   8.4107   8.5754   8.7946
     8.8382

          k = 0.1250 0.1320 0.0000 ( 34564 PWs)   bands (ev):

   -37.4032 -35.5688 -22.7932 -22.7377 -22.4852 -22.2336 -18.5847 -18.4587
   -18.4232 -17.0079 -16.7060 -16.6732 -15.2979 -15.1055 -14.9310 -14.9151
   -14.7012 -14.5331 -14.4828 -14.4048 -14.1820 -14.0226 -13.9892 -13.8971
   -13.8661 -13.7527 -13.7213  -8.0846  -7.9580  -7.9008  -7.8758  -7.7354
    -7.6203  -7.6122  -7.5976  -7.4560  -7.3392  -7.3312  -7.1301  -2.4530
    -2.4134  -2.2705  -2.1469  -2.1420  -2.0685  -2.0223  -1.8412  -1.7899
    -1.7639  -1.6750  -1.6293  -1.6186  -1.4397  -1.4196  -1.3271  -1.2181
    -0.9726  -0.8491  -0.8111  -0.7647  -0.6749  -0.6640  -0.5877  -0.5265
    -0.5176  -0.4934  -0.4547  -0.3562  -0.2730  -0.2561  -0.2009  -0.1916
    -0.1376  -0.1180  -0.0956  -0.0119   0.0206   0.0835   0.1476   0.1632
     0.2023   0.2169   0.2372   0.2697   0.3028   0.3767   0.5240   0.6124
     0.7248   0.7935   0.8956   0.9976   1.0163   1.0465   1.1253   1.1564
     1.1943   1.2265   1.2570   1.2950   1.3234   1.3416   1.4372   1.5666
     1.6002   1.6638   1.6741   1.7351   1.8119   1.8774   1.9760   2.1660
     2.2118   2.3558   2.4804   2.5665   2.8244   2.8498   2.9165   4.9806
     5.7446   5.8469   6.2715   6.7398   7.2291   7.2832   7.4045   7.6899
     7.8027   7.9370   7.9992   8.3163   8.4805   8.5158   8.7031   8.8995
     8.9281

          k = 0.1250 0.2640 0.0000 ( 34463 PWs)   bands (ev):

   -37.3990 -35.5644 -22.7353 -22.6739 -22.4244 -22.1666 -18.6240 -18.4774
   -18.4267 -16.9186 -16.8354 -16.6856 -15.1398 -14.9322 -14.7792 -14.7782
   -14.7003 -14.4635 -14.4443 -14.4126 -14.1641 -14.0718 -14.0383 -13.9998
   -13.9618 -13.8184 -13.8060  -8.0590  -8.0360  -8.0270  -7.9128  -7.7428
    -7.7180  -7.6030  -7.5983  -7.5335  -7.3761  -7.3255  -7.1123  -3.0103
    -2.8472  -2.7577  -2.6132  -2.6111  -2.4199  -2.3393  -2.3213  -2.2712
    -2.1226  -2.0278  -1.8156  -1.7888  -1.6918  -1.4886  -1.4771  -1.3671
    -1.1937  -1.1564  -1.0324  -0.9772  -0.9646  -0.9281  -0.8727  -0.8334
    -0.8308  -0.7217  -0.6848  -0.5773  -0.5627  -0.5221  -0.4927  -0.4117
    -0.3084  -0.1712  -0.1327  -0.1051  -0.0289   0.1434   0.2056   0.2199
     0.3127   0.4078   0.4789   0.5107   0.6759   0.7469   0.7537   0.8103
     0.9319   1.0293   1.0767   1.1139   1.1372   1.2258   1.3021   1.3189
     1.3515   1.3668   1.3707   1.3799   1.4213   1.5413   1.5893   1.6027
     1.6449   1.6772   1.6795   1.8625   1.9471   1.9939   2.0688   2.2311
     2.4977   2.5548   2.7073   2.7989   3.0621   3.1317   3.8249   5.3835
     6.5571   6.6572   6.7297   7.4033   7.4482   7.6176   7.7126   8.0622
     8.3754   8.4227   8.4652   8.6382   8.7462   8.8115   8.9335   9.0118
     9.1412

          k = 0.1250 0.3960 0.0000 ( 34482 PWs)   bands (ev):

   -37.3948 -35.5600 -22.6759 -22.6079 -22.3618 -22.0974 -18.6945 -18.4751
   -18.4163 -16.9695 -16.8199 -16.6770 -14.9327 -14.8900 -14.6702 -14.6132
   -14.5935 -14.5126 -14.4081 -14.3352 -14.1427 -14.1275 -14.1131 -14.0695
   -14.0686 -13.9103 -13.8547  -8.1497  -8.0574  -7.9985  -7.9243  -7.7959
    -7.7345  -7.6480  -7.6133  -7.5519  -7.4073  -7.3655  -7.1499  -3.5958
    -3.4691  -3.3200  -3.2739  -3.0718  -2.9776  -2.9478  -2.3711  -2.3557
    -2.1280  -2.0640  -1.9667  -1.7827  -1.6441  -1.6143  -1.5884  -1.5480
    -1.4768  -1.3534  -1.3183  -1.2398  -1.1790  -1.1295  -1.1160  -1.0568
    -0.9859  -0.8750  -0.8598  -0.8280  -0.7502  -0.7454  -0.5581  -0.5102
    -0.3610  -0.1985  -0.1791  -0.1158  -0.0099   0.1595   0.2131   0.2219
     0.2685   0.4387   0.5901   0.6250   0.6850   0.9104   0.9587   0.9739
     1.0375   1.0748   1.0965   1.1445   1.2070   1.2389   1.3211   1.3983
     1.4869   1.5072   1.5581   1.6633   1.6748   1.7223   1.7314   1.7861
     1.8787   1.9622   1.9863   2.0275   2.1526   2.3441   2.3703   2.3723
     2.4980   2.6139   2.6430   2.7382   3.0069   3.1955   4.4408   5.7827
     7.0433   7.2688   7.3086   7.4512   7.5017   7.9159   8.1440   8.4139
     8.6716   8.7392   8.9164   8.9373   8.9559   9.3372   9.4138   9.5636
     9.6528

          k = 0.1250-0.5279 0.0000 ( 34444 PWs)   bands (ev):

   -37.3931 -35.5581 -22.6507 -22.5800 -22.3352 -22.0679 -18.7268 -18.4712
   -18.4107 -17.0212 -16.7765 -16.6733 -14.9226 -14.7532 -14.7086 -14.6556
   -14.4841 -14.4441 -14.3437 -14.2949 -14.2578 -14.1543 -14.1455 -14.0638
   -14.0356 -13.9932 -13.8784  -8.1748  -8.0521  -7.9849  -7.9292  -7.8053
    -7.7482  -7.6822  -7.6189  -7.5413  -7.4198  -7.3911  -7.1822  -3.8284
    -3.7239  -3.5206  -3.5061  -3.2495  -3.2056  -3.1808  -2.3921  -2.3674
    -2.1995  -2.0764  -1.8400  -1.8130  -1.7922  -1.6382  -1.6082  -1.5690
    -1.5069  -1.4489  -1.3776  -1.3520  -1.3179  -1.2553  -1.2019  -1.1266
    -1.0737  -0.9390  -0.9362  -0.8528  -0.8409  -0.8332  -0.5463  -0.5390
    -0.3520  -0.2128  -0.1901  -0.1145   0.0077   0.1689   0.2223   0.2250
     0.2401   0.4351   0.6148   0.6534   0.6555   0.8682   0.9427   0.9647
     0.9835   1.0389   1.1193   1.1437   1.2723   1.2908   1.3518   1.3666
     1.5061   1.5607   1.7211   1.7909   1.7915   1.8048   2.0184   2.0456
     2.0472   2.0515   2.1387   2.2135   2.3318   2.3560   2.3917   2.4573
     2.5096   2.5365   2.5642   2.6253   2.8868   3.1638   4.6312   5.9752
     7.1178   7.1354   7.4226   7.5302   7.7956   7.9465   8.3305   8.4963
     8.7845   8.8715   9.0609   9.3128   9.4818   9.4980   9.5260   9.5513
     9.7465

          k = 0.2500 0.0000 0.0000 ( 34590 PWs)   bands (ev):

   -37.4028 -35.5679 -22.7752 -22.7193 -22.4677 -22.2145 -18.5878 -18.4854
   -18.4023 -16.9577 -16.8672 -16.6067 -15.2447 -15.0572 -14.9903 -14.8895
   -14.7872 -14.5872 -14.5610 -14.4571 -14.1952 -14.0454 -14.0340 -13.9729
   -13.8655 -13.8060 -13.7334  -8.1628  -7.9401  -7.7651  -7.7270  -7.6810
    -7.5939  -7.5693  -7.4240  -7.3936  -7.2971  -7.2335  -7.0868  -2.6703
    -2.5564  -2.4060  -2.2623  -2.2028  -2.1978  -1.9029  -1.8110  -1.7350
    -1.6299  -1.4597  -1.4082  -1.3095  -1.2056  -1.2023  -1.1410  -1.0998
    -1.0830  -0.9831  -0.9132  -0.8325  -0.7600  -0.7321  -0.6198  -0.5712
    -0.5387  -0.5215  -0.5186  -0.3636  -0.3052  -0.2748  -0.2738  -0.2411
    -0.2114  -0.1775  -0.1153  -0.0175   0.0883   0.0884   0.1167   0.1181
     0.1290   0.1834   0.1981   0.2668   0.3329   0.4625   0.4739   0.5548
     0.6655   0.6718   0.7324   0.8577   0.9055   0.9484   1.0013   1.0616
     1.1059   1.1537   1.2886   1.3174   1.4275   1.4496   1.4676   1.5807
     1.6716   1.7474   1.8029   1.8270   1.8713   1.8990   2.0455   2.0641
     2.1055   2.1134   2.2201   2.3687   2.5006   2.6881   2.7516   5.2438
     5.8634   5.9603   6.4081   7.0540   7.3278   7.4680   7.5650   7.8809
     7.9432   8.0794   8.1179   8.4957   8.6165   8.6735   8.8974   9.0499
     9.1678

          k = 0.2500 0.1320 0.0000 ( 34551 PWs)   bands (ev):

   -37.4011 -35.5661 -22.7535 -22.6954 -22.4448 -22.1895 -18.5875 -18.4979
   -18.4166 -16.9255 -16.8608 -16.6729 -15.1900 -14.9920 -14.9405 -14.8389
   -14.7379 -14.5518 -14.5163 -14.4543 -14.1811 -14.0429 -14.0312 -13.9808
   -13.8985 -13.8299 -13.7628  -8.1555  -8.0088  -7.9122  -7.8637  -7.7752
    -7.6149  -7.5390  -7.5356  -7.5079  -7.3277  -7.2625  -7.0498  -2.7223
    -2.6061  -2.4286  -2.2883  -2.2123  -2.1900  -2.1415  -2.0810  -1.9406
    -1.8990  -1.8148  -1.6397  -1.6198  -1.5942  -1.4704  -1.3737  -1.3245
    -1.1339  -1.0709  -1.0102  -0.9741  -0.9233  -0.8654  -0.7806  -0.7595
    -0.6361  -0.6174  -0.5811  -0.5060  -0.4712  -0.3330  -0.3228  -0.2844
    -0.2061  -0.1645  -0.0236  -0.0115   0.0358   0.0994   0.1574   0.1868
     0.2315   0.2996   0.3235   0.3406   0.4610   0.5196   0.6186   0.7676
     0.8325   0.9243   0.9434   0.9848   1.0302   1.0747   1.1016   1.1276
     1.2019   1.2500   1.2771   1.3891   1.4491   1.4870   1.5203   1.5426
     1.6526   1.6629   1.7100   1.7141   1.7424   1.9467   2.0628   2.2538
     2.4983   2.6778   2.7137   2.8708   2.8931   2.9731   2.9887   5.3210
     6.1246   6.2236   6.5049   7.2106   7.3739   7.5917   7.7719   7.8213
     8.0555   8.2672   8.2994   8.5643   8.6515   8.8358   9.0152   9.0698
     9.1796

          k = 0.2500 0.2640 0.0000 ( 34523 PWs)   bands (ev):

   -37.3970 -35.5618 -22.7000 -22.6367 -22.3886 -22.1279 -18.6157 -18.5299
   -18.4172 -16.8605 -16.8375 -16.8094 -15.0446 -14.8522 -14.8144 -14.7117
   -14.5984 -14.4660 -14.4628 -14.4033 -14.1557 -14.0790 -14.0526 -14.0037
   -13.9473 -13.8797 -13.8289  -8.2435  -8.2289  -8.0908  -7.9278  -7.9253
    -7.7425  -7.7303  -7.6556  -7.6397  -7.4036  -7.3842  -7.1533  -3.1537
    -2.9832  -2.7493  -2.6966  -2.6856  -2.4685  -2.4332  -2.3327  -2.3059
    -2.2997  -2.1710  -2.1637  -2.1291  -1.8714  -1.7625  -1.6375  -1.4406
    -1.4141  -1.3830  -1.2511  -1.1978  -1.1398  -1.0588  -0.9230  -0.8976
    -0.8401  -0.8160  -0.7803  -0.7242  -0.6304  -0.5854  -0.5713  -0.5412
    -0.3780  -0.3421  -0.2991   0.0026   0.0531   0.2540   0.3263   0.3734
     0.5634   0.6015   0.6386   0.6800   0.7989   0.8528   0.9122   0.9676
     1.0609   1.0866   1.1488   1.2244   1.2703   1.2916   1.3917   1.4384
     1.4547   1.4693   1.5420   1.5479   1.5762   1.6218   1.6410   1.6732
     1.7020   1.7240   1.7926   1.8664   1.9267   1.9671   2.1650   2.3392
     2.9959   3.0665   3.1868   3.2822   3.4400   3.4532   3.8353   5.5185
     6.5606   6.6673   6.8022   7.3182   7.5523   7.6029   7.8632   8.3531
     8.4853   8.5693   8.5958   8.7467   8.9552   9.0594   9.0825   9.2612
     9.3394

          k = 0.2500 0.3960 0.0000 ( 34490 PWs)   bands (ev):

   -37.3928 -35.5574 -22.6451 -22.5763 -22.3308 -22.0644 -18.6862 -18.5309
   -18.4028 -16.9575 -16.8250 -16.7513 -14.8581 -14.8090 -14.5849 -14.5794
   -14.5139 -14.4312 -14.3635 -14.2894 -14.2017 -14.0947 -14.0848 -14.0668
   -14.0238 -13.9281 -13.8471  -8.4088  -8.3490  -8.1080  -8.0285  -7.9758
    -7.8970  -7.8694  -7.8366  -7.7080  -7.5957  -7.4931  -7.3441  -3.7469
    -3.4881  -3.4440  -3.3531  -3.1889  -2.9570  -2.9305  -2.4971  -2.4426
    -2.3363  -2.2174  -2.1336  -2.0926  -2.0628  -1.8632  -1.8461  -1.7703
    -1.5927  -1.5332  -1.5057  -1.4144  -1.2750  -1.2322  -1.1396  -1.0703
    -0.9964  -0.8576  -0.8289  -0.7990  -0.7921  -0.7889  -0.7626  -0.5446
    -0.5257  -0.4113  -0.3633   0.0303   0.1657   0.3007   0.3591   0.4492
     0.6599   0.7408   0.8154   0.8266   0.9869   1.0177   1.1446   1.2426
     1.2573   1.2972   1.3347   1.3980   1.4742   1.5089   1.5544   1.6187
     1.6323   1.6676   1.7013   1.7118   1.7394   1.7901   1.8133   1.8882
     1.9363   1.9701   2.0342   2.0880   2.2641   2.2658   2.3124   2.4166
     2.8281   2.9070   3.5132   3.5477   3.6756   3.8148   4.3958   5.7408
     6.3839   6.8752   7.0625   7.2164   7.4549   7.7656   8.0767   8.5923
     8.6428   8.8047   8.9023   9.0522   9.0802   9.5053   9.6887   9.8105
     9.8368

          k = 0.2500-0.5279 0.0000 ( 34528 PWs)   bands (ev):

   -37.3911 -35.5556 -22.6220 -22.5507 -22.3064 -22.0375 -18.7191 -18.5280
   -18.3956 -17.0077 -16.8195 -16.7117 -14.8057 -14.7225 -14.6193 -14.5259
   -14.3541 -14.3533 -14.3459 -14.2527 -14.2422 -14.2066 -14.0847 -14.0584
   -14.0309 -13.9771 -13.8449  -8.4529  -8.3491  -8.0942  -8.0640  -8.0480
    -8.0116  -7.9355  -7.8302  -7.7241  -7.6975  -7.5811  -7.4181  -3.9846
    -3.7266  -3.6711  -3.6096  -3.3811  -3.1847  -3.1599  -2.4809  -2.4498
    -2.3110  -2.2491  -2.2090  -2.0963  -2.0102  -1.9818  -1.9039  -1.8252
    -1.6877  -1.6692  -1.5764  -1.4492  -1.3263  -1.2980  -1.2283  -1.1608
    -1.0425  -0.9304  -0.8661  -0.8560  -0.8187  -0.8060  -0.7655  -0.5422
    -0.5399  -0.4373  -0.3810   0.0362   0.2086   0.3115   0.3765   0.4820
     0.7441   0.7484   0.8602   0.8903   1.0455   1.0893   1.2049   1.2321
     1.2476   1.3558   1.3788   1.4679   1.4698   1.5127   1.5667   1.7004
     1.7119   1.7304   1.7922   1.8525   1.9243   1.9740   2.0037   2.0482
     2.0510   2.0886   2.1316   2.1797   2.4394   2.4414   2.4491   2.4923
     2.6069   2.6843   3.5340   3.6337   3.7100   3.8924   4.5530   5.8421
     6.2642   6.8400   7.0324   7.2687   7.3598   7.7358   8.1324   8.6400
     8.7225   8.7843   9.2012   9.5278   9.6926   9.7110   9.8081   9.8224
     9.8804

          k = 0.3750 0.0000 0.0000 ( 34518 PWs)   bands (ev):

   -37.4008 -35.5653 -22.7329 -22.6738 -22.4246 -22.1671 -18.6174 -18.4924
   -18.3998 -17.0070 -16.8626 -16.6034 -15.1867 -15.0576 -15.0339 -14.8723
   -14.6440 -14.5921 -14.5519 -14.5244 -14.2077 -14.1516 -14.0694 -14.0572
   -13.9178 -13.9032 -13.7732  -8.1901  -7.9226  -7.7349  -7.6621  -7.6422
    -7.5171  -7.4849  -7.3752  -7.3717  -7.2185  -7.1733  -6.9995  -3.0161
    -2.8837  -2.6977  -2.6854  -2.3228  -2.2882  -2.0000  -1.6515  -1.6452
    -1.5741  -1.5101  -1.4863  -1.3997  -1.2664  -1.2072  -1.2002  -1.1947
    -1.1619  -1.1554  -1.0724  -1.0087  -1.0034  -0.9071  -0.8646  -0.7627
    -0.7387  -0.7217  -0.5474  -0.5030  -0.4309  -0.3724  -0.2863  -0.2591
    -0.2265  -0.2169  -0.1818   0.0005   0.0648   0.0755   0.0767   0.1132
     0.1238   0.1365   0.1949   0.2987   0.4119   0.4356   0.4790   0.4826
     0.5319   0.7009   0.7845   0.8194   0.9188   1.0827   1.1506   1.1854
     1.1929   1.2408   1.3066   1.3307   1.3577   1.5134   1.5720   1.6086
     1.7077   1.7318   1.7959   1.8293   1.9351   1.9555   1.9909   2.1062
     2.1389   2.1848   2.2805   2.4591   2.6094   2.8135   2.9011   5.6994
     6.5131   6.6115   6.7296   7.1688   7.7393   7.7853   7.7985   8.0082
     8.2281   8.4332   8.5078   8.7360   8.8374   9.0853   9.1843   9.3468
     9.4433

          k = 0.3750 0.1320 0.0000 ( 34583 PWs)   bands (ev):

   -37.3991 -35.5635 -22.7129 -22.6521 -22.4036 -22.1443 -18.6132 -18.5122
   -18.4103 -16.9984 -16.8334 -16.6679 -15.1213 -15.0002 -14.9858 -14.8166
   -14.6033 -14.5395 -14.5258 -14.4790 -14.1790 -14.1255 -14.0535 -14.0437
   -13.9373 -13.9295 -13.7858  -8.1871  -7.9802  -7.8517  -7.8254  -7.7582
    -7.6094  -7.5746  -7.5474  -7.4724  -7.3104  -7.3059  -7.0769  -3.0772
    -2.9450  -2.7423  -2.7193  -2.3216  -2.2996  -2.0608  -2.0333  -1.9991
    -1.8578  -1.8148  -1.6082  -1.6068  -1.5559  -1.5152  -1.5085  -1.4532
    -1.3895  -1.3039  -1.1954  -1.1313  -1.0811  -1.0089  -0.9620  -0.8160
    -0.7651  -0.6881  -0.6513  -0.6269  -0.5857  -0.4106  -0.3662  -0.3295
    -0.2600  -0.2159  -0.0487   0.0376   0.0770   0.1319   0.1736   0.1943
     0.2193   0.3308   0.3793   0.4146   0.4498   0.5274   0.6724   0.7579
     0.8121   0.8276   0.9681   1.0691   1.1191   1.1555   1.2084   1.2198
     1.2411   1.2843   1.2938   1.3682   1.4727   1.5481   1.5992   1.6027
     1.7191   1.7604   1.7945   1.8059   1.9231   1.9643   2.0793   2.2283
     2.6870   2.7386   2.7572   2.9431   3.0099   3.1596   3.1695   5.7008
     6.6489   6.6631   6.7836   7.1230   7.6709   7.8308   7.8552   8.0737
     8.2486   8.5100   8.5907   8.8335   8.9361   9.0648   9.2929   9.4093
     9.4672

          k = 0.3750 0.2640 0.0000 ( 34595 PWs)   bands (ev):

   -37.3950 -35.5592 -22.6640 -22.5988 -22.3521 -22.0883 -18.6119 -18.5778
   -18.4063 -16.9780 -16.8123 -16.7582 -14.9575 -14.8663 -14.8297 -14.6693
   -14.5100 -14.5055 -14.3809 -14.3577 -14.1381 -14.1052 -14.0328 -14.0131
   -13.9729 -13.9541 -13.8315  -8.3020  -8.2817  -8.1297  -7.9847  -7.9602
    -7.8719  -7.8378  -7.7857  -7.7071  -7.5816  -7.4677  -7.3023  -3.4226
    -3.2588  -2.9802  -2.9367  -2.7082  -2.6089  -2.4928  -2.3798  -2.3731
    -2.3373  -2.3166  -2.2762  -2.2422  -2.0188  -1.9506  -1.7747  -1.7191
    -1.5620  -1.4654  -1.2983  -1.2368  -1.0454  -1.0136  -0.9958  -0.9199
    -0.8880  -0.8717  -0.8362  -0.8010  -0.7351  -0.6905  -0.6396  -0.6049
    -0.4707  -0.3657  -0.3030   0.0622   0.1865   0.3315   0.4462   0.4964
     0.6592   0.7119   0.7684   0.8380   0.9112   0.9945   1.0154   1.0532
     1.1570   1.1703   1.2348   1.2651   1.3701   1.4125   1.4270   1.4603
     1.5171   1.5622   1.5970   1.6476   1.6938   1.7327   1.7596   1.7869
     1.8198   1.8301   1.8424   1.9105   1.9866   2.1495   2.1830   2.2667
     2.9975   3.0704   3.6395   3.7294   3.8120   3.8972   3.9085   5.6857
     6.2607   6.7078   6.8866   7.1259   7.5405   7.6577   8.0493   8.4137
     8.5792   8.7051   8.7978   8.8479   9.3291   9.4246   9.4819   9.5276
     9.6227

          k = 0.3750 0.3960 0.0000 ( 34549 PWs)   bands (ev):

   -37.3908 -35.5549 -22.6139 -22.5442 -22.2994 -22.0309 -18.6775 -18.5851
   -18.3901 -16.9607 -16.9391 -16.6784 -14.7835 -14.7313 -14.5730 -14.5047
   -14.4852 -14.4164 -14.2428 -14.2233 -14.2150 -14.0716 -14.0517 -14.0446
   -13.9674 -13.9618 -13.8545  -8.6069  -8.5474  -8.2905  -8.2125  -8.1624
    -8.1074  -8.0301  -7.9626  -7.8723  -7.7339  -7.7202  -7.4512  -3.9873
    -3.7378  -3.5040  -3.4559  -3.3808  -2.9364  -2.9132  -2.7514  -2.6231
    -2.5588  -2.4638  -2.3463  -2.2877  -2.2704  -2.0820  -1.9454  -1.8727
    -1.7465  -1.7300  -1.4125  -1.2517  -1.2003  -1.1816  -1.1510  -1.0912
    -1.0552  -0.9508  -0.8817  -0.8564  -0.8509  -0.7958  -0.7553  -0.6995
    -0.6690  -0.3874  -0.2948   0.1615   0.2696   0.3856   0.5615   0.6816
     0.9260   0.9696   1.0564   1.1575   1.1688   1.2521   1.3636   1.3764
     1.3991   1.4686   1.4927   1.5855   1.6025   1.6354   1.6704   1.7279
     1.7689   1.7747   1.8138   1.8337   1.9354   1.9511   1.9540   1.9724
     2.0155   2.0987   2.1160   2.1750   2.1876   2.2347   2.4592   2.4945
     2.8191   2.9212   4.2207   4.2598   4.3263   4.3886   4.5146   5.6600
     5.8203   6.4047   6.6076   7.1687   7.3914   7.4710   8.2070   8.6791
     8.7674   8.9871   9.1970   9.3101   9.3929   9.4931   9.5151   9.5732
     9.6580

          k = 0.3750-0.5279 0.0000 ( 34580 PWs)   bands (ev):

   -37.3891 -35.5531 -22.5928 -22.5211 -22.2772 -22.0066 -18.7114 -18.5815
   -18.3823 -16.9943 -16.9481 -16.6429 -14.6966 -14.6701 -14.5245 -14.3868
   -14.3655 -14.3475 -14.2742 -14.2514 -14.1899 -14.1295 -14.0503 -14.0231
   -13.9874 -13.9863 -13.8308  -8.7229  -8.6295  -8.3711  -8.3576  -8.3028
    -8.1194  -8.1007  -7.9889  -7.9765  -7.8580  -7.7470  -7.4969  -4.2292
    -3.9445  -3.7611  -3.7115  -3.5905  -3.1616  -3.1394  -2.7702  -2.6416
    -2.5745  -2.4796  -2.4585  -2.2866  -2.2643  -2.1888  -1.9421  -1.9362
    -1.8255  -1.7890  -1.4834  -1.3293  -1.2865  -1.2585  -1.2258  -1.1396
    -1.0737  -0.9493  -0.9452  -0.9137  -0.8985  -0.8645  -0.7519  -0.7201
    -0.6753  -0.3732  -0.2755   0.1773   0.3017   0.3972   0.5972   0.7601
     1.0189   1.0763   1.1620   1.1789   1.2743   1.3154   1.3639   1.5263
     1.5386   1.5447   1.5972   1.6767   1.7319   1.7686   1.7882   1.7980
     1.8309   1.8622   1.9408   2.0302   2.0375   2.0384   2.0582   2.0978
     2.1564   2.2007   2.2763   2.2983   2.3781   2.4049   2.5148   2.5770
     2.6607   2.6991   4.3365   4.4268   4.4839   4.5339   4.6970   5.5751
     5.7267   6.2270   6.4431   7.2572   7.3034   7.3872   8.2396   8.6307
     8.7467   9.1072   9.2215   9.2907   9.3830   9.6804   9.7047   9.7769
     9.7924

          k =-0.5000 0.0000 0.0000 ( 34514 PWs)   bands (ev):

   -37.4000 -35.5642 -22.7151 -22.6547 -22.4064 -22.1471 -18.6343 -18.4902
   -18.3987 -17.0594 -16.8203 -16.6020 -15.2151 -15.0910 -14.9889 -14.8939
   -14.6630 -14.6079 -14.4712 -14.3869 -14.3094 -14.1908 -14.1026 -14.0657
   -13.9915 -13.9153 -13.7860  -8.1956  -7.9123  -7.7183  -7.6390  -7.6315
    -7.4843  -7.4488  -7.3618  -7.3599  -7.1850  -7.1519  -6.9620  -3.1537
    -3.0256  -2.8592  -2.8389  -2.3478  -2.2792  -2.0092  -1.6447  -1.6030
    -1.5595  -1.5093  -1.3872  -1.3602  -1.3219  -1.3152  -1.3024  -1.2474
    -1.2111  -1.2009  -1.1946  -1.1655  -0.9785  -0.9035  -0.8875  -0.8781
    -0.8466  -0.8052  -0.5686  -0.5304  -0.4915  -0.4168  -0.2904  -0.2651
    -0.2638  -0.2180  -0.2064   0.0137   0.0494   0.0701   0.0717   0.0914
     0.1193   0.1425   0.1736   0.3077   0.4105   0.4117   0.4366   0.4698
     0.5261   0.6889   0.7232   0.8408   0.9110   1.1371   1.1426   1.1800
     1.2712   1.3237   1.3670   1.3733   1.4119   1.5078   1.5720   1.6029
     1.6623   1.7161   1.7607   1.8837   1.9742   1.9762   2.1168   2.1290
     2.1549   2.2092   2.2858   2.4751   2.6254   2.8499   2.9556   5.9404
     6.8594   6.9640   7.2857   7.3378   7.3989   7.4610   7.7438   7.8600
     8.2844   8.5622   8.8768   9.0246   9.0661   9.0990   9.1676   9.4709
     9.5672

          k =-0.5000 0.1320 0.0000 ( 34570 PWs)   bands (ev):

   -37.3982 -35.5624 -22.6959 -22.6339 -22.3863 -22.1253 -18.6297 -18.5121
   -18.4075 -17.0502 -16.7928 -16.6658 -15.1409 -15.0343 -14.9388 -14.8314
   -14.6224 -14.5868 -14.4264 -14.3451 -14.2517 -14.1683 -14.0734 -14.0506
   -13.9920 -13.9524 -13.7921  -8.1910  -7.9513  -7.7684  -7.7477  -7.7405
    -7.7119  -7.6517  -7.4815  -7.4328  -7.3981  -7.2790  -7.1336  -3.2206
    -3.0934  -2.8964  -2.8914  -2.3527  -2.3099  -2.0205  -2.0069  -1.9797
    -1.8158  -1.7884  -1.6773  -1.6029  -1.5990  -1.5325  -1.5087  -1.5029
    -1.4219  -1.4185  -1.2989  -1.1781  -1.1181  -1.0998  -1.0005  -0.8610
    -0.8095  -0.7047  -0.6869  -0.6344  -0.6062  -0.4475  -0.3917  -0.3410
    -0.2841  -0.2447  -0.0620   0.0504   0.0959   0.1447   0.1891   0.2133
     0.2359   0.2845   0.3766   0.4009   0.5230   0.5705   0.6038   0.7550
     0.7589   0.7780   0.9612   1.0758   1.1251   1.1663   1.1993   1.2600
     1.2884   1.3378   1.3789   1.4295   1.4324   1.5626   1.6147   1.6604
     1.7256   1.7725   1.7774   1.8915   1.9388   2.0954   2.1595   2.2066
     2.7143   2.7395   2.7641   2.9590   3.0336   3.2138   3.2365   5.8998
     6.6453   6.9860   7.1334   7.3209   7.6393   7.6412   7.7258   7.9308
     8.1924   8.4925   8.9341   9.0443   9.1322   9.3043   9.4123   9.5488
     9.6956

          k =-0.5000 0.2640 0.0000 ( 34584 PWs)   bands (ev):

   -37.3941 -35.5581 -22.6488 -22.5829 -22.3368 -22.0717 -18.6186 -18.5891
   -18.4016 -17.0281 -16.8090 -16.7217 -14.9459 -14.8841 -14.8013 -14.6629
   -14.5399 -14.5257 -14.3175 -14.2388 -14.1560 -14.1169 -14.0232 -14.0177
   -14.0087 -13.9962 -13.8255  -8.2669  -8.2204  -8.1267  -8.0696  -8.0254
    -7.9396  -7.9012  -7.7537  -7.7369  -7.6901  -7.5745  -7.3555  -3.5557
    -3.3971  -3.1242  -3.0895  -2.7028  -2.6327  -2.5180  -2.4071  -2.3848
    -2.3544  -2.3149  -2.2762  -2.2499  -2.1377  -1.9673  -1.8910  -1.7379
    -1.6628  -1.5625  -1.2554  -1.1557  -1.0735  -0.9952  -0.9602  -0.9011
    -0.8993  -0.8808  -0.8526  -0.8514  -0.7937  -0.7308  -0.6654  -0.6305
    -0.4713  -0.3862  -0.3033   0.0817   0.2404   0.3594   0.5012   0.5380
     0.7389   0.7471   0.8319   0.8619   0.9837   1.0063   1.0497   1.0996
     1.1858   1.1975   1.2495   1.3265   1.3813   1.4055   1.4514   1.4918
     1.5453   1.5665   1.5786   1.6873   1.7082   1.7729   1.7912   1.8295
     1.8814   1.9262   1.9491   1.9899   2.0116   2.0800   2.1887   2.2892
     2.9910   3.0626   3.7738   3.8209   3.8778   4.0139   4.0600   5.7815
     6.0909   6.7035   6.8720   7.1243   7.4859   7.5904   8.1215   8.4516
     8.5493   8.8210   9.0384   9.0562   9.4668   9.5201   9.5994   9.6001
     9.7704

          k =-0.5000 0.3960 0.0000 ( 34556 PWs)   bands (ev):

   -37.3900 -35.5538 -22.6008 -22.5307 -22.2863 -22.0168 -18.6734 -18.6076
   -18.3848 -17.0066 -16.9382 -16.6461 -14.7542 -14.7021 -14.5710 -14.4987
   -14.4454 -14.4410 -14.2232 -14.2095 -14.1252 -14.0685 -14.0225 -14.0164
   -14.0051 -13.9587 -13.8610  -8.6689  -8.5956  -8.3576  -8.3339  -8.3025
    -8.1363  -8.0776  -8.0005  -7.9789  -7.8559  -7.7416  -7.4769  -4.1080
    -3.8679  -3.5987  -3.5489  -3.4020  -2.9278  -2.9062  -2.8281  -2.6929
    -2.6741  -2.5262  -2.4395  -2.3054  -2.2873  -2.1756  -1.9527  -1.8715
    -1.8349  -1.8033  -1.3148  -1.2700  -1.2247  -1.1784  -1.1180  -1.0968
    -1.0371  -1.0130  -0.8963  -0.8784  -0.8238  -0.8038  -0.7627  -0.7588
    -0.7376  -0.3494  -0.2628   0.2017   0.3131   0.4174   0.6520   0.7751
     1.0416   1.0706   1.1385   1.2887   1.3138   1.3210   1.3948   1.4298
     1.4733   1.5609   1.5698   1.5987   1.6350   1.6643   1.7243   1.7327
     1.7717   1.8365   1.8554   1.8634   1.9490   2.0008   2.0364   2.0553
     2.0805   2.1573   2.1582   2.2126   2.2310   2.3154   2.4011   2.5981
     2.8081   2.9113   4.2709   4.5190   4.5420   4.6016   4.7803   5.5573
     5.6752   6.2085   6.4055   7.2049   7.2419   7.4101   8.2540   8.6992
     8.9306   9.0430   9.1940   9.2464   9.4383   9.4493   9.5993   9.6775
     9.7602

          k =-0.5000-0.5279 0.0000 ( 34620 PWs)   bands (ev):

   -37.3883 -35.5520 -22.5806 -22.5087 -22.2650 -21.9937 -18.7082 -18.6031
   -18.3769 -16.9977 -16.9888 -16.6126 -14.6876 -14.6046 -14.4834 -14.4267
   -14.3476 -14.2778 -14.2544 -14.2520 -14.1637 -14.0796 -14.0443 -14.0189
   -14.0103 -13.9187 -13.8492  -8.8330  -8.7416  -8.4830  -8.4737  -8.4180
    -8.2083  -8.1362  -8.0947  -8.0065  -7.9690  -7.7564  -7.5238  -4.3501
    -4.0761  -3.8501  -3.7618  -3.6534  -3.1521  -3.1311  -2.8632  -2.7253
    -2.7089  -2.5550  -2.5404  -2.3072  -2.2774  -2.2660  -1.9404  -1.9371
    -1.8788  -1.8652  -1.4001  -1.3393  -1.3126  -1.2954  -1.1605  -1.1405
    -1.0766  -1.0124  -0.9733  -0.9430  -0.8642  -0.8421  -0.8190  -0.7926
    -0.7017  -0.3206  -0.2357   0.2244   0.3398   0.4302   0.6969   0.8858
     1.1023   1.1851   1.3038   1.3549   1.3554   1.3768   1.4163   1.5090
     1.6439   1.6447   1.6782   1.7709   1.7836   1.8509   1.8580   1.8633
     1.8898   1.9259   1.9976   2.0209   2.0691   2.0864   2.1087   2.1831
     2.2104   2.2574   2.3496   2.3766   2.4219   2.4436   2.5545   2.5791
     2.6804   2.7579   4.3520   4.7241   4.7917   4.8118   5.0093   5.3317
     5.6654   5.9815   6.1897   7.1385   7.2463   7.3987   8.2697   8.6333
     9.0100   9.0323   9.0899   9.1108   9.2310   9.4544   9.5796   9.6826
     9.6980

     the Fermi energy is     2.5764 ev

!    total energy              =   -1842.78728572 Ry
     Harris-Foulkes estimate   =   -1842.78728573 Ry
     estimated scf accuracy    <          6.2E-11 Ry

     The total energy is the sum of the following terms:

     one-electron contribution =  -30023.75964647 Ry
     hartree contribution      =   15164.52859017 Ry
     xc contribution           =    -621.68317526 Ry
     ewald contribution        =   13638.13528229 Ry
     smearing contrib. (-TS)   =      -0.00833644 Ry

     convergence has been achieved in  42 iterations

     negative rho (up, down):  1.505E-03 0.000E+00

     Forces acting on atoms (cartesian axes, Ry/au):

     atom    1 type  4   force =     0.00000000    0.00000000   -0.00016128
     atom    2 type  3   force =     0.00000000    0.00000000    0.00039163
     atom    3 type  4   force =     0.00000000    0.00000000   -0.00076609
     atom    4 type  1   force =     0.00000000    0.00000000   -0.00026866
     atom    5 type  3   force =     0.00000000    0.00000000    0.00056480
     atom    6 type  4   force =     0.00000000    0.00000000   -0.00013096
     atom    7 type  4   force =     0.00000000    0.00000000    0.00021654
     atom    8 type  2   force =     0.00000000    0.00000000   -0.00033269
     atom    9 type  4   force =     0.00000000    0.00000000   -0.00001741
     atom   10 type  4   force =     0.00000000    0.00000000    0.00008371
     atom   11 type  3   force =     0.00000000    0.00000000   -0.00002278
     atom   12 type  1   force =     0.00000000    0.00000000   -0.00240938
     atom   13 type  4   force =     0.00000000    0.00000000    0.00340219
     atom   14 type  4   force =     0.00000000    0.00000000   -0.00079324
     atom   15 type  3   force =     0.00000000    0.00000000   -0.05428523
     atom   16 type  4   force =     0.00000000    0.00000000    0.05272169
     atom   17 type  1   force =     0.00000000    0.00000000    0.00390618
     atom   18 type  3   force =     0.00000000    0.00000000   -0.01037207
     atom   19 type  4   force =     0.00000000    0.00000000    0.02419285
     atom   20 type  4   force =     0.00000000    0.00000000    0.04160450
     atom   21 type  2   force =     0.00000000    0.00000000   -0.00312040
     atom   22 type  4   force =     0.00000000    0.00000000   -0.03052415
     atom   23 type  4   force =     0.00000000    0.00000000   -0.02351512
     atom   24 type  3   force =     0.00000000    0.00000000    0.00809131
     atom   25 type  1   force =     0.00000000    0.00000000   -0.01338091
     atom   26 type  4   force =     0.00000000    0.00000000    0.01057872
     atom   27 type  3   force =     0.00000000    0.00000000   -0.00801122
     atom   28 type  4   force =     0.00000000    0.00000000    0.00235745

     Total force =     0.082332     Total SCF correction =     0.000008


     Computing stress (Cartesian axis) and pressure


     negative rho (up, down):  1.505E-03 0.000E+00
          total   stress  (Ry/bohr**3)                   (kbar)     P=       -2.24
  -0.00002207   0.00000000   0.00000000           -3.25        0.00        0.00
   0.00000000   0.00004615   0.00000000            0.00        6.79        0.00
   0.00000000   0.00000000  -0.00006985            0.00        0.00      -10.28


     number of scf cycles    =   2
     number of bfgs steps    =   1

     energy   old            =   -1842.8415044086 Ry
     energy   new            =   -1842.7872857237 Ry

     CASE: energy  _new > energy  _old


 %%%%%%%%%%%%%%%%%%%%%%%%%%%%%%%%%%%%%%%%%%%%%%%%%%%%%%%%%%%%%%%%%%%%%%%%%%%%%%
     Error in routine bfgs (1):
     dE0s is positive which should never happen
 %%%%%%%%%%%%%%%%%%%%%%%%%%%%%%%%%%%%%%%%%%%%%%%%%%%%%%%%%%%%%%%%%%%%%%%%%%%%%%

     stopping ...
