
     Program PWSCF v.6.5 starts on 28Jun2021 at 19:56:13 

     This program is part of the open-source Quantum ESPRESSO suite
     for quantum simulation of materials; please cite
         "P. Giannozzi et al., J. Phys.:Condens. Matter 21 395502 (2009);
         "P. Giannozzi et al., J. Phys.:Condens. Matter 29 465901 (2017);
          URL http://www.quantum-espresso.org", 
     in publications or presentations arising from this work. More details at
     http://www.quantum-espresso.org/quote

     Parallel version (MPI), running on    20 processors

     MPI processes distributed on     8 nodes
     R & G space division:  proc/nbgrp/npool/nimage =      20
     Reading input from CBCO_BaO_cleave_0.75_sep.pwi
Warning: card &CELL ignored
Warning: card     CELL_DYNAMICS = 'BFGS' ignored
Warning: card     PRESS_CONV_THR = 5 ignored
Warning: card / ignored

     Current dimensions of program PWSCF are:
     Max number of different atomic species (ntypx) = 10
     Max number of k-points (npk) =  40000
     Max angular momentum in pseudopotentials (lmaxx) =  3

     Subspace diagonalization in iterative solution of the eigenvalue problem:
     one sub-group per band group will be used
     scalapack distributed-memory algorithm (size of sub-group:  4*  4 procs)

     Message from routine setup:
     using ibrav=0 with symmetry is DISCOURAGED, use correct ibrav instead
 
     Parallelization info
     --------------------
     sticks:   dense  smooth     PW     G-vecs:    dense   smooth      PW
     Min         149      50     14                71365    13742    2148
     Max         150      51     15                71404    13765    2191
     Sum        2991    1007    289              1427725   274999   43215
 


     bravais-lattice index     =            0
     lattice parameter (alat)  =       7.4270  a.u.
     unit-cell volume          =    4376.3515 (a.u.)^3
     number of atoms/cell      =           28
     number of atomic types    =            4
     number of electrons       =       227.00
     number of Kohn-Sham states=          137
     kinetic-energy cutoff     =      60.0000  Ry
     charge density cutoff     =     720.0000  Ry
     convergence threshold     =      1.0E-10
     mixing beta               =       0.7000
     number of iterations used =           10  local-TF  mixing
     Exchange-correlation= SLA PW PBE PBE
                           (   1   4   3   4   0   0   0)
     nstep                     =          300


     celldm(1)=   7.427040  celldm(2)=   0.000000  celldm(3)=   0.000000
     celldm(4)=   0.000000  celldm(5)=   0.000000  celldm(6)=   0.000000

     crystal axes: (cart. coord. in units of alat)
               a(1) = (   1.000000   0.000000   0.000000 )  
               a(2) = (   0.000000   0.947081   0.000000 )  
               a(3) = (   0.000000   0.000000  11.279186 )  

     reciprocal axes: (cart. coord. in units 2 pi/alat)
               b(1) = (  1.000000  0.000000  0.000000 )  
               b(2) = (  0.000000  1.055876  0.000000 )  
               b(3) = (  0.000000  0.000000  0.088659 )  


     PseudoPot. # 1 for Ba read from file:
     ./pseudo/Ba.pbe-nsp-van.UPF
     MD5 check sum: 2b9c31dd849566dd297d80989662b7a0
     Pseudo is Ultrasoft + core correction, Zval = 10.0
     Generated by new atomic code, or converted to UPF format
     Using radial grid of  907 points,  6 beta functions with: 
                l(1) =   0
                l(2) =   0
                l(3) =   1
                l(4) =   1
                l(5) =   2
                l(6) =   2
     Q(r) pseudized with  6 coefficients,  rinner =    1.200   1.200   1.200
                                                       1.200   1.200

     PseudoPot. # 2 for Ca read from file:
     ./pseudo/Ca.pbe-nsp-van.UPF
     MD5 check sum: 6471098428ff4fa451746d08035ff179
     Pseudo is Ultrasoft + core correction, Zval = 10.0
     Generated by new atomic code, or converted to UPF format
     Using radial grid of  845 points,  6 beta functions with: 
                l(1) =   0
                l(2) =   0
                l(3) =   1
                l(4) =   1
                l(5) =   2
                l(6) =   2
     Q(r) pseudized with  6 coefficients,  rinner =    1.200   1.200   1.200
                                                       1.200   1.200

     PseudoPot. # 3 for Cu read from file:
     ./pseudo/Cu.pbe-n-van_ak.UPF
     MD5 check sum: 34e3282627ffb533726feb647e090d62
     Pseudo is Ultrasoft + core correction, Zval = 11.0
     Generated by new atomic code, or converted to UPF format
     Using radial grid of  867 points,  6 beta functions with: 
                l(1) =   0
                l(2) =   0
                l(3) =   1
                l(4) =   1
                l(5) =   2
                l(6) =   2
     Q(r) pseudized with  8 coefficients,  rinner =    1.400   1.400   1.400
                                                       1.400   1.400

     PseudoPot. # 4 for O  read from file:
     ./pseudo/O.pbe-van_ak.UPF
     MD5 check sum: 783ce7fe4c79b6a4916957118fed0856
     Pseudo is Ultrasoft, Zval =  6.0
     Generated by new atomic code, or converted to UPF format
     Using radial grid of  737 points,  4 beta functions with: 
                l(1) =   0
                l(2) =   0
                l(3) =   1
                l(4) =   1
     Q(r) pseudized with  8 coefficients,  rinner =    0.800   0.800   0.800


     atomic species   valence    mass     pseudopotential
        Ba            10.00   137.32700     Ba( 1.00)
        Ca            10.00    40.07800     Ca( 1.00)
        Cu            11.00    63.54600     Cu( 1.00)
        O              6.00    15.99900     O ( 1.00)

      4 Sym. Ops. (no inversion) found



   Cartesian axes

     site n.     atom                  positions (alat units)
         1           O   tau(   1) = (   0.0000000   0.4735409  -0.0469745  )
         2           Cu  tau(   2) = (   0.0000000   0.0000000   0.0264565  )
         3           O   tau(   3) = (   0.0000000   0.0000000   0.5030914  )
         4           Ba  tau(   4) = (   0.5000000   0.4735409   0.5690292  )
         5           Cu  tau(   5) = (   0.0000000   0.0000000   1.0374254  )
         6           O   tau(   6) = (   0.5000000   0.0000000   1.0768099  )
         7           O   tau(   7) = (   0.0000000   0.4735409   1.1116985  )
         8           Ca  tau(   8) = (   0.5000000   0.4735409   1.4976260  )
         9           O   tau(   9) = (   0.0000000   0.4735409   1.8667529  )
        10           O   tau(  10) = (   0.5000000   0.0000000   1.9044124  )
        11           Cu  tau(  11) = (   0.0000000   0.0000000   1.9512546  )
        12           Ba  tau(  12) = (   0.5000000   0.4735409   2.4295764  )
        13           O   tau(  13) = (   0.0000000   0.0000000   2.5115362  )
        14           O   tau(  14) = (   0.0000000   0.4735409   2.9943972  )
        15           Cu  tau(  15) = (   0.0000000   0.0000000   2.9664649  )
        16           O   tau(  16) = (   0.0000000   0.0000000   3.4722686  )
        17           Ba  tau(  17) = (   0.5000000   0.4735409   3.5542208  )
        18           Cu  tau(  18) = (   0.0000000   0.0000000   4.2233538  )
        19           O   tau(  19) = (   0.5000000   0.0000000   4.2701959  )
        20           O   tau(  20) = (   0.0000000   0.4735409   4.3078503  )
        21           Ca  tau(  21) = (   0.5000000   0.4735409   4.6769874  )
        22           O   tau(  22) = (   0.0000000   0.4735409   5.0629123  )
        23           O   tau(  23) = (   0.5000000   0.0000000   5.0978010  )
        24           Cu  tau(  24) = (   0.0000000   0.0000000   5.1371881  )
        25           Ba  tau(  25) = (   0.5000000   0.4735409   5.6055817  )
        26           O   tau(  26) = (   0.0000000   0.0000000   5.6715093  )
        27           Cu  tau(  27) = (   0.0000000   0.0000000   6.1481493  )
        28           O   tau(  28) = (   0.0000000   0.4735409   6.2215676  )

     number of k points=    25  Gaussian smearing, width (Ry)=  0.0100
                       cart. coord. in units 2pi/alat
        k(    1) = (   0.0000000   0.0000000   0.0000000), wk =   0.0312500
        k(    2) = (   0.0000000   0.1319845   0.0000000), wk =   0.0625000
        k(    3) = (   0.0000000   0.2639689   0.0000000), wk =   0.0625000
        k(    4) = (   0.0000000   0.3959534   0.0000000), wk =   0.0625000
        k(    5) = (   0.0000000  -0.5279378   0.0000000), wk =   0.0312500
        k(    6) = (   0.1250000   0.0000000   0.0000000), wk =   0.0625000
        k(    7) = (   0.1250000   0.1319845   0.0000000), wk =   0.1250000
        k(    8) = (   0.1250000   0.2639689   0.0000000), wk =   0.1250000
        k(    9) = (   0.1250000   0.3959534   0.0000000), wk =   0.1250000
        k(   10) = (   0.1250000  -0.5279378   0.0000000), wk =   0.0625000
        k(   11) = (   0.2500000   0.0000000   0.0000000), wk =   0.0625000
        k(   12) = (   0.2500000   0.1319845   0.0000000), wk =   0.1250000
        k(   13) = (   0.2500000   0.2639689   0.0000000), wk =   0.1250000
        k(   14) = (   0.2500000   0.3959534   0.0000000), wk =   0.1250000
        k(   15) = (   0.2500000  -0.5279378   0.0000000), wk =   0.0625000
        k(   16) = (   0.3750000   0.0000000   0.0000000), wk =   0.0625000
        k(   17) = (   0.3750000   0.1319845   0.0000000), wk =   0.1250000
        k(   18) = (   0.3750000   0.2639689   0.0000000), wk =   0.1250000
        k(   19) = (   0.3750000   0.3959534   0.0000000), wk =   0.1250000
        k(   20) = (   0.3750000  -0.5279378   0.0000000), wk =   0.0625000
        k(   21) = (  -0.5000000   0.0000000   0.0000000), wk =   0.0312500
        k(   22) = (  -0.5000000   0.1319845   0.0000000), wk =   0.0625000
        k(   23) = (  -0.5000000   0.2639689   0.0000000), wk =   0.0625000
        k(   24) = (  -0.5000000   0.3959534   0.0000000), wk =   0.0625000
        k(   25) = (  -0.5000000  -0.5279378   0.0000000), wk =   0.0312500

     Dense  grid:  1427725 G-vectors     FFT dimensions: (  64,  64, 720)

     Smooth grid:   274999 G-vectors     FFT dimensions: (  40,  36, 432)

     Estimated max dynamical RAM per process >     455.52 MB

     Estimated total dynamical RAM >       8.90 GB

     Initial potential from superposition of free atoms

     starting charge  226.84630, renormalised to  227.00000

     negative rho (up, down):  3.478E-03 0.000E+00
     Starting wfcs are  195 randomized atomic wfcs

     total cpu time spent up to now is        9.6 secs

     Self-consistent Calculation

     iteration #  1     ecut=    60.00 Ry     beta= 0.70
     Davidson diagonalization with overlap
     ethr =  1.00E-02,  avg # of iterations =  2.0

     negative rho (up, down):  2.673E-04 0.000E+00

     total cpu time spent up to now is       25.3 secs

     total energy              =   -1839.42938448 Ry
     Harris-Foulkes estimate   =   -1845.34189367 Ry
     estimated scf accuracy    <      17.47465888 Ry

     iteration #  2     ecut=    60.00 Ry     beta= 0.70
     Davidson diagonalization with overlap
     ethr =  7.70E-03,  avg # of iterations =  2.0

     negative rho (up, down):  2.463E-04 0.000E+00

     total cpu time spent up to now is       42.2 secs

     total energy              =   -1842.09323581 Ry
     Harris-Foulkes estimate   =   -1843.97482438 Ry
     estimated scf accuracy    <      12.68075721 Ry

     iteration #  3     ecut=    60.00 Ry     beta= 0.70
     Davidson diagonalization with overlap
     ethr =  5.59E-03,  avg # of iterations =  1.4

     negative rho (up, down):  2.316E-04 0.000E+00

     total cpu time spent up to now is       56.6 secs

     total energy              =   -1842.68275793 Ry
     Harris-Foulkes estimate   =   -1843.06174376 Ry
     estimated scf accuracy    <       2.95951039 Ry

     iteration #  4     ecut=    60.00 Ry     beta= 0.70
     Davidson diagonalization with overlap
     ethr =  1.30E-03,  avg # of iterations =  1.8

     negative rho (up, down):  2.275E-04 0.000E+00

     total cpu time spent up to now is       71.5 secs

     total energy              =   -1842.84679357 Ry
     Harris-Foulkes estimate   =   -1843.01329085 Ry
     estimated scf accuracy    <       6.26043307 Ry

     iteration #  5     ecut=    60.00 Ry     beta= 0.70
     Davidson diagonalization with overlap
     ethr =  1.30E-03,  avg # of iterations =  1.0

     negative rho (up, down):  2.253E-04 0.000E+00

     total cpu time spent up to now is       85.5 secs

     total energy              =   -1842.87569519 Ry
     Harris-Foulkes estimate   =   -1842.91196278 Ry
     estimated scf accuracy    <       1.08638948 Ry

     iteration #  6     ecut=    60.00 Ry     beta= 0.70
     Davidson diagonalization with overlap
     ethr =  4.79E-04,  avg # of iterations =  1.0

     negative rho (up, down):  2.249E-04 0.000E+00

     total cpu time spent up to now is       99.6 secs

     total energy              =   -1842.87914352 Ry
     Harris-Foulkes estimate   =   -1842.90079866 Ry
     estimated scf accuracy    <       1.43823246 Ry

     iteration #  7     ecut=    60.00 Ry     beta= 0.70
     Davidson diagonalization with overlap
     ethr =  4.79E-04,  avg # of iterations =  1.0

     negative rho (up, down):  2.253E-04 0.000E+00

     total cpu time spent up to now is      113.6 secs

     total energy              =   -1842.88000223 Ry
     Harris-Foulkes estimate   =   -1842.89029128 Ry
     estimated scf accuracy    <       0.85857577 Ry

     iteration #  8     ecut=    60.00 Ry     beta= 0.70
     Davidson diagonalization with overlap
     ethr =  3.78E-04,  avg # of iterations =  1.0

     negative rho (up, down):  2.250E-04 0.000E+00

     total cpu time spent up to now is      127.6 secs

     total energy              =   -1842.88180739 Ry
     Harris-Foulkes estimate   =   -1842.88360892 Ry
     estimated scf accuracy    <       0.51397866 Ry

     iteration #  9     ecut=    60.00 Ry     beta= 0.70
     Davidson diagonalization with overlap
     ethr =  2.26E-04,  avg # of iterations =  2.4

     negative rho (up, down):  2.250E-04 0.000E+00

     total cpu time spent up to now is      143.1 secs

     total energy              =   -1842.87064207 Ry
     Harris-Foulkes estimate   =   -1842.88249653 Ry
     estimated scf accuracy    <       0.38701012 Ry

     iteration # 10     ecut=    60.00 Ry     beta= 0.70
     Davidson diagonalization with overlap
     ethr =  1.70E-04,  avg # of iterations =  4.1

     negative rho (up, down):  2.252E-04 0.000E+00

     total cpu time spent up to now is      160.4 secs

     total energy              =   -1842.87112563 Ry
     Harris-Foulkes estimate   =   -1842.87451237 Ry
     estimated scf accuracy    <       0.07933392 Ry

     iteration # 11     ecut=    60.00 Ry     beta= 0.70
     Davidson diagonalization with overlap
     ethr =  3.49E-05,  avg # of iterations =  7.7

     negative rho (up, down):  2.255E-04 0.000E+00

     total cpu time spent up to now is      182.8 secs

     total energy              =   -1842.87011288 Ry
     Harris-Foulkes estimate   =   -1842.87212065 Ry
     estimated scf accuracy    <       0.09051569 Ry

     iteration # 12     ecut=    60.00 Ry     beta= 0.70
     Davidson diagonalization with overlap
     ethr =  3.49E-05,  avg # of iterations =  1.4

     negative rho (up, down):  8.597E-04 0.000E+00

     total cpu time spent up to now is      197.0 secs

     total energy              =   -1842.86875465 Ry
     Harris-Foulkes estimate   =   -1842.87070207 Ry
     estimated scf accuracy    <       0.08112656 Ry

     iteration # 13     ecut=    60.00 Ry     beta= 0.70
     Davidson diagonalization with overlap
     c_bands:  1 eigenvalues not converged
     ethr =  3.49E-05,  avg # of iterations =  2.4

     negative rho (up, down):  2.968E-03 0.000E+00

     total cpu time spent up to now is      212.5 secs

     total energy              =   -1842.86778557 Ry
     Harris-Foulkes estimate   =   -1842.86926262 Ry
     estimated scf accuracy    <       0.04882722 Ry

     iteration # 14     ecut=    60.00 Ry     beta= 0.70
     Davidson diagonalization with overlap
     ethr =  2.15E-05,  avg # of iterations =  3.3

     negative rho (up, down):  8.031E-03 0.000E+00

     total cpu time spent up to now is      228.8 secs

     total energy              =   -1842.86688701 Ry
     Harris-Foulkes estimate   =   -1842.86822606 Ry
     estimated scf accuracy    <       0.02445649 Ry

     iteration # 15     ecut=    60.00 Ry     beta= 0.70
     Davidson diagonalization with overlap
     ethr =  1.08E-05,  avg # of iterations =  6.5

     negative rho (up, down):  1.191E-02 0.000E+00

     total cpu time spent up to now is      249.3 secs

     total energy              =   -1842.86593824 Ry
     Harris-Foulkes estimate   =   -1842.86723373 Ry
     estimated scf accuracy    <       0.01573333 Ry

     iteration # 16     ecut=    60.00 Ry     beta= 0.70
     Davidson diagonalization with overlap
     ethr =  6.93E-06,  avg # of iterations =  5.9

     negative rho (up, down):  1.970E-02 0.000E+00

     total cpu time spent up to now is      269.1 secs

     total energy              =   -1842.86527476 Ry
     Harris-Foulkes estimate   =   -1842.86616487 Ry
     estimated scf accuracy    <       0.00754270 Ry

     iteration # 17     ecut=    60.00 Ry     beta= 0.70
     Davidson diagonalization with overlap
     ethr =  3.32E-06,  avg # of iterations =  8.2

     negative rho (up, down):  2.061E-02 0.000E+00

     total cpu time spent up to now is      291.8 secs

     total energy              =   -1842.86491159 Ry
     Harris-Foulkes estimate   =   -1842.86542008 Ry
     estimated scf accuracy    <       0.00386168 Ry

     iteration # 18     ecut=    60.00 Ry     beta= 0.70
     Davidson diagonalization with overlap
     ethr =  1.70E-06,  avg # of iterations =  8.2

     negative rho (up, down):  1.867E-02 0.000E+00

     total cpu time spent up to now is      314.8 secs

     total energy              =   -1842.86479952 Ry
     Harris-Foulkes estimate   =   -1842.86502497 Ry
     estimated scf accuracy    <       0.00323994 Ry

     iteration # 19     ecut=    60.00 Ry     beta= 0.70
     Davidson diagonalization with overlap
     ethr =  1.43E-06,  avg # of iterations =  7.6

     negative rho (up, down):  1.212E-02 0.000E+00

     total cpu time spent up to now is      337.0 secs

     total energy              =   -1842.86473019 Ry
     Harris-Foulkes estimate   =   -1842.86487668 Ry
     estimated scf accuracy    <       0.00156383 Ry

     iteration # 20     ecut=    60.00 Ry     beta= 0.70
     Davidson diagonalization with overlap
     c_bands:  1 eigenvalues not converged
     ethr =  6.89E-07,  avg # of iterations =  4.4

     negative rho (up, down):  2.999E-03 0.000E+00

     total cpu time spent up to now is      354.8 secs

     total energy              =   -1842.86455863 Ry
     Harris-Foulkes estimate   =   -1842.86474881 Ry
     estimated scf accuracy    <       0.00079109 Ry

     iteration # 21     ecut=    60.00 Ry     beta= 0.70
     Davidson diagonalization with overlap
     c_bands:  1 eigenvalues not converged
     c_bands:  1 eigenvalues not converged
     c_bands:  1 eigenvalues not converged
     ethr =  3.48E-07,  avg # of iterations = 10.2

     negative rho (up, down):  3.048E-03 0.000E+00

     total cpu time spent up to now is      380.5 secs

     total energy              =   -1842.86460501 Ry
     Harris-Foulkes estimate   =   -1842.86458150 Ry
     estimated scf accuracy    <       0.00076292 Ry

     iteration # 22     ecut=    60.00 Ry     beta= 0.70
     Davidson diagonalization with overlap
     c_bands:  1 eigenvalues not converged
     ethr =  3.36E-07,  avg # of iterations =  5.4

     negative rho (up, down):  1.236E-03 0.000E+00

     total cpu time spent up to now is      399.1 secs

     total energy              =   -1842.86460572 Ry
     Harris-Foulkes estimate   =   -1842.86462335 Ry
     estimated scf accuracy    <       0.00012218 Ry

     iteration # 23     ecut=    60.00 Ry     beta= 0.70
     Davidson diagonalization with overlap
     c_bands:  1 eigenvalues not converged
     ethr =  5.38E-08,  avg # of iterations =  5.5

     negative rho (up, down):  1.212E-03 0.000E+00

     total cpu time spent up to now is      417.7 secs

     total energy              =   -1842.86460899 Ry
     Harris-Foulkes estimate   =   -1842.86460832 Ry
     estimated scf accuracy    <       0.00001431 Ry

     iteration # 24     ecut=    60.00 Ry     beta= 0.70
     Davidson diagonalization with overlap
     ethr =  6.30E-09,  avg # of iterations =  1.5

     negative rho (up, down):  1.159E-03 0.000E+00

     total cpu time spent up to now is      431.9 secs

     total energy              =   -1842.86460922 Ry
     Harris-Foulkes estimate   =   -1842.86460946 Ry
     estimated scf accuracy    <       0.00001428 Ry

     iteration # 25     ecut=    60.00 Ry     beta= 0.70
     Davidson diagonalization with overlap
     ethr =  6.29E-09,  avg # of iterations =  1.0

     negative rho (up, down):  1.205E-03 0.000E+00

     total cpu time spent up to now is      445.8 secs

     total energy              =   -1842.86460887 Ry
     Harris-Foulkes estimate   =   -1842.86460945 Ry
     estimated scf accuracy    <       0.00000539 Ry

     iteration # 26     ecut=    60.00 Ry     beta= 0.70
     Davidson diagonalization with overlap
     ethr =  2.37E-09,  avg # of iterations =  1.0

     negative rho (up, down):  1.203E-03 0.000E+00

     total cpu time spent up to now is      459.6 secs

     total energy              =   -1842.86460895 Ry
     Harris-Foulkes estimate   =   -1842.86460906 Ry
     estimated scf accuracy    <       0.00000428 Ry

     iteration # 27     ecut=    60.00 Ry     beta= 0.70
     Davidson diagonalization with overlap
     ethr =  1.89E-09,  avg # of iterations =  1.0

     negative rho (up, down):  1.505E-03 0.000E+00

     total cpu time spent up to now is      474.3 secs

     total energy              =   -1842.86460845 Ry
     Harris-Foulkes estimate   =   -1842.86460906 Ry
     estimated scf accuracy    <       0.00000267 Ry

     iteration # 28     ecut=    60.00 Ry     beta= 0.70
     Davidson diagonalization with overlap
     ethr =  1.18E-09,  avg # of iterations =  2.0

     negative rho (up, down):  1.524E-03 0.000E+00

     total cpu time spent up to now is      489.2 secs

     total energy              =   -1842.86460855 Ry
     Harris-Foulkes estimate   =   -1842.86460859 Ry
     estimated scf accuracy    <       0.00000014 Ry

     iteration # 29     ecut=    60.00 Ry     beta= 0.70
     Davidson diagonalization with overlap
     ethr =  6.36E-11,  avg # of iterations =  4.0

     negative rho (up, down):  1.514E-03 0.000E+00

     total cpu time spent up to now is      508.9 secs

     total energy              =   -1842.86460859 Ry
     Harris-Foulkes estimate   =   -1842.86460858 Ry
     estimated scf accuracy    <       0.00000007 Ry

     iteration # 30     ecut=    60.00 Ry     beta= 0.70
     Davidson diagonalization with overlap
     ethr =  3.19E-11,  avg # of iterations =  1.0

     negative rho (up, down):  1.510E-03 0.000E+00

     total cpu time spent up to now is      522.9 secs

     total energy              =   -1842.86460860 Ry
     Harris-Foulkes estimate   =   -1842.86460859 Ry
     estimated scf accuracy    <       0.00000006 Ry

     iteration # 31     ecut=    60.00 Ry     beta= 0.70
     Davidson diagonalization with overlap
     ethr =  2.50E-11,  avg # of iterations =  1.0

     negative rho (up, down):  1.504E-03 0.000E+00

     total cpu time spent up to now is      536.9 secs

     total energy              =   -1842.86460860 Ry
     Harris-Foulkes estimate   =   -1842.86460860 Ry
     estimated scf accuracy    <       0.00000002 Ry

     iteration # 32     ecut=    60.00 Ry     beta= 0.70
     Davidson diagonalization with overlap
     ethr =  1.01E-11,  avg # of iterations =  1.0

     negative rho (up, down):  1.515E-03 0.000E+00

     total cpu time spent up to now is      551.1 secs

     total energy              =   -1842.86460859 Ry
     Harris-Foulkes estimate   =   -1842.86460860 Ry
     estimated scf accuracy    <          4.5E-09 Ry

     iteration # 33     ecut=    60.00 Ry     beta= 0.70
     Davidson diagonalization with overlap
     ethr =  2.00E-12,  avg # of iterations =  1.9

     negative rho (up, down):  1.517E-03 0.000E+00

     total cpu time spent up to now is      566.2 secs

     total energy              =   -1842.86460859 Ry
     Harris-Foulkes estimate   =   -1842.86460859 Ry
     estimated scf accuracy    <          5.8E-09 Ry

     iteration # 34     ecut=    60.00 Ry     beta= 0.70
     Davidson diagonalization with overlap
     ethr =  2.00E-12,  avg # of iterations =  1.5

     negative rho (up, down):  1.520E-03 0.000E+00

     total cpu time spent up to now is      580.6 secs

     total energy              =   -1842.86460858 Ry
     Harris-Foulkes estimate   =   -1842.86460859 Ry
     estimated scf accuracy    <          4.9E-09 Ry

     iteration # 35     ecut=    60.00 Ry     beta= 0.70
     Davidson diagonalization with overlap
     ethr =  2.00E-12,  avg # of iterations =  1.0

     negative rho (up, down):  1.519E-03 0.000E+00

     total cpu time spent up to now is      594.5 secs

     total energy              =   -1842.86460858 Ry
     Harris-Foulkes estimate   =   -1842.86460858 Ry
     estimated scf accuracy    <          1.1E-09 Ry

     iteration # 36     ecut=    60.00 Ry     beta= 0.70
     Davidson diagonalization with overlap
     ethr =  4.78E-13,  avg # of iterations =  1.0

     negative rho (up, down):  1.520E-03 0.000E+00

     total cpu time spent up to now is      608.4 secs

     total energy              =   -1842.86460858 Ry
     Harris-Foulkes estimate   =   -1842.86460858 Ry
     estimated scf accuracy    <          8.3E-10 Ry

     iteration # 37     ecut=    60.00 Ry     beta= 0.70
     Davidson diagonalization with overlap
     ethr =  3.67E-13,  avg # of iterations =  1.0

     negative rho (up, down):  1.520E-03 0.000E+00

     total cpu time spent up to now is      622.7 secs

     total energy              =   -1842.86460858 Ry
     Harris-Foulkes estimate   =   -1842.86460858 Ry
     estimated scf accuracy    <          3.2E-10 Ry

     iteration # 38     ecut=    60.00 Ry     beta= 0.70
     Davidson diagonalization with overlap
     ethr =  1.39E-13,  avg # of iterations =  1.0

     negative rho (up, down):  1.520E-03 0.000E+00

     total cpu time spent up to now is      636.2 secs

     End of self-consistent calculation

          k = 0.0000 0.0000 0.0000 ( 34429 PWs)   bands (ev):

   -35.5945 -35.4607 -23.1194 -22.7843 -22.7828 -22.6936 -17.0986 -16.9431
   -16.6449 -16.6345 -16.5218 -16.5072 -15.3053 -15.1979 -14.9253 -14.6672
   -14.6567 -14.5810 -14.4044 -14.1750 -14.1714 -14.0412 -13.9807 -13.9535
   -13.8374 -13.5770 -13.1868  -8.3586  -8.0139  -7.9179  -7.9127  -7.8958
    -7.8780  -7.8769  -7.8570  -7.7531  -7.6852  -7.6836  -7.5810  -2.3291
    -2.3231  -2.3201  -1.8232  -1.8188  -1.7718  -1.6704  -1.6312  -1.5786
    -1.5516  -1.4864  -1.4489  -1.3166  -1.2313  -1.2141  -1.2134  -0.8607
    -0.7434  -0.5604  -0.4521  -0.4514  -0.3729  -0.3679  -0.3178  -0.2855
    -0.2594  -0.2582  -0.2575  -0.2419  -0.2182  -0.2031  -0.1574  -0.1360
    -0.1218  -0.1172  -0.0311  -0.0292   0.1053   0.1058   0.1060   0.1094
     0.1515   0.1776   0.2071   0.2982   0.3128   0.3257   0.3773   0.3863
     0.5710   0.5996   0.8586   0.8889   0.8889   0.9533   1.0176   1.1884
     1.2303   1.3550   1.3616   1.3819   1.4083   1.4554   1.5220   1.5242
     1.7075   1.7391   1.7857   1.8347   1.9302   1.9418   1.9807   2.0406
     2.0560   2.1242   2.1347   2.2260   2.3441   2.5344   2.5447   5.2099
     5.2241   5.5291   6.1397   6.2410   6.6638   6.7626   6.7881   7.0765
     7.9550   8.0024   8.1424   8.2939   8.3891   8.5663   8.6153   8.9217
     9.0908

          k = 0.0000 0.1320 0.0000 ( 34389 PWs)   bands (ev):

   -35.5926 -35.4589 -23.0979 -22.7576 -22.7561 -22.6679 -17.0624 -16.9067
   -16.7070 -16.6426 -16.5792 -16.5194 -15.2161 -15.1154 -14.8758 -14.6734
   -14.6567 -14.5550 -14.3742 -14.1850 -14.1792 -14.0894 -13.9828 -13.9680
   -13.8754 -13.6020 -13.2540  -8.3474  -7.9758  -7.9409  -7.9164  -7.9127
    -7.8546  -7.8302  -7.8291  -7.7270  -7.7254  -7.7071  -7.6326  -2.3870
    -2.3800  -2.3525  -2.1586  -2.1470  -2.0504  -1.9045  -1.7708  -1.6490
    -1.6379  -1.6377  -1.6138  -1.5339  -1.3599  -1.3000  -1.2836  -1.1492
    -0.7989  -0.6270  -0.6191  -0.5496  -0.5490  -0.5475  -0.4552  -0.4528
    -0.4440  -0.3371  -0.2242  -0.2071  -0.1775  -0.1675  -0.1414  -0.1408
    -0.0994  -0.0552  -0.0098  -0.0078   0.0106   0.0512   0.1293   0.1294
     0.1556   0.1816   0.2589   0.2833   0.3333   0.3670   0.3979   0.4802
     0.6583   0.7361   0.9408   1.0379   1.0718   1.0861   1.0866   1.1502
     1.1699   1.1769   1.4027   1.4035   1.4235   1.5191   1.5241   1.5393
     1.6622   1.6856   1.7455   1.7714   1.8210   1.9519   1.9589   1.9885
     2.0263   2.0369   2.2170   2.3579   2.8038   2.8225   2.8958   5.5945
     5.6000   5.8395   6.4626   6.5528   6.9327   7.0693   7.0884   7.3492
     8.1410   8.1920   8.3139   8.4709   8.6228   8.6728   8.7859   9.0177
     9.1852

          k = 0.0000 0.2640 0.0000 ( 34275 PWs)   bands (ev):

   -35.5882 -35.4545 -23.0451 -22.6917 -22.6902 -22.6045 -16.9704 -16.8613
   -16.8141 -16.7325 -16.6370 -16.5138 -15.0146 -14.9446 -14.7589 -14.7222
   -14.6814 -14.4999 -14.3013 -14.2075 -14.1636 -14.1585 -14.0212 -14.0106
   -13.9352 -13.6638 -13.4214  -8.3165  -8.0355  -7.9152  -7.9127  -7.8812
    -7.8530  -7.8178  -7.8160  -7.7435  -7.7098  -7.7086  -7.5913  -2.8315
    -2.8147  -2.7426  -2.6270  -2.4515  -2.4216  -2.4191  -2.2892  -2.2748
    -2.2740  -1.7161  -1.5928  -1.5651  -1.4770  -1.4677  -1.4511  -1.2494
    -0.9735  -0.9711  -0.9452  -0.9219  -0.8000  -0.8000  -0.6451  -0.6370
    -0.5366  -0.5153  -0.4917  -0.4903  -0.4855  -0.3942  -0.3849  -0.3133
    -0.2014  -0.1337   0.0185   0.0203   0.0980   0.1034   0.1142   0.2089
     0.2620   0.3791   0.4332   0.4471   0.6133   0.6986   0.7066   0.7264
     0.8425   0.8899   0.9645   1.0386   1.0859   1.1504   1.1715   1.1717
     1.1900   1.1999   1.2741   1.3194   1.3561   1.5745   1.5888   1.6267
     1.6267   1.7185   1.7610   1.9169   1.9665   1.9796   1.9805   1.9913
     2.0569   2.1295   2.3396   2.4922   3.0437   3.0486   3.6919   6.4935
     6.4937   6.5487   7.2501   7.3021   7.7451   7.8928   7.9060   8.0656
     8.2567   8.6515   8.7145   8.7676   8.9486   8.9848   9.0855   9.2128
     9.4018

          k = 0.0000 0.3960 0.0000 ( 34242 PWs)   bands (ev):

   -35.5838 -35.4500 -22.9909 -22.6236 -22.6221 -22.5390 -16.9979 -16.8684
   -16.8676 -16.7124 -16.6313 -16.5081 -14.9283 -14.9202 -14.7309 -14.6415
   -14.5987 -14.4356 -14.2677 -14.2517 -14.1108 -14.0969 -14.0966 -14.0264
   -13.9901 -13.7578 -13.5965  -8.2702  -8.1301  -7.9152  -7.9127  -7.8960
    -7.8942  -7.8623  -7.8281  -7.7822  -7.5813  -7.5801  -7.4683  -3.4461
    -3.2826  -3.2763  -3.0693  -2.9913  -2.9887  -2.8911  -2.3653  -2.3648
    -2.3236  -2.0615  -1.8024  -1.7953  -1.5262  -1.5003  -1.3867  -1.1982
    -1.1860  -1.1640  -1.1347  -1.1315  -1.0681  -1.0647  -0.8619  -0.8280
    -0.8211  -0.7450  -0.7389  -0.7243  -0.7080  -0.5710  -0.3885  -0.3038
    -0.2638  -0.1520   0.0009   0.0356   0.0373   0.1310   0.1342   0.1594
     0.2293   0.4593   0.4835   0.5615   0.7399   0.7555   0.7913   0.9056
     0.9231   0.9311   0.9362   0.9711   1.0307   1.0892   1.1421   1.1427
     1.1766   1.3362   1.4440   1.5444   1.6228   1.6304   1.7247   1.7502
     1.7706   1.8562   1.9440   1.9575   1.9656   1.9973   2.1458   2.2496
     2.3137   2.3745   2.3748   2.4380   2.9364   2.9426   4.2356   7.2058
     7.4406   7.4413   7.6874   8.2493   8.3909   8.5295   8.6766   8.6871
     8.7272   9.0779   9.0839   9.1400   9.1961   9.2679   9.4583   9.4993
     9.5994

          k = 0.0000-0.5279 0.0000 ( 34286 PWs)   bands (ev):

   -35.5820 -35.4482 -22.9681 -22.5946 -22.5931 -22.5113 -17.0500 -16.9194
   -16.8235 -16.6674 -16.6290 -16.5058 -14.9716 -14.9638 -14.7121 -14.5687
   -14.4988 -14.3409 -14.3135 -14.2730 -14.1316 -14.0726 -14.0664 -14.0443
   -13.9673 -13.8398 -13.6722  -8.2216  -8.1946  -7.9257  -7.9238  -7.9149
    -7.9122  -7.8878  -7.8380  -7.7398  -7.5254  -7.5242  -7.4149  -3.7066
    -3.4609  -3.4557  -3.2407  -3.2217  -3.2140  -3.0609  -2.3814  -2.3809
    -2.3292  -2.1927  -1.9328  -1.9273  -1.4938  -1.4640  -1.3489  -1.2772
    -1.2254  -1.2238  -1.2185  -1.1901  -1.1899  -1.0951  -0.9862  -0.9375
    -0.9299  -0.8308  -0.8302  -0.8174  -0.7850  -0.6479  -0.3725  -0.2773
    -0.2436  -0.1585  -0.0575   0.0412   0.0428   0.1215   0.1421   0.1728
     0.2255   0.4083   0.4519   0.5099   0.6464   0.6985   0.8068   0.8360
     0.8566   0.9570   0.9819   1.0175   1.0435   1.1251   1.1257   1.2892
     1.3456   1.4004   1.4446   1.4951   1.7373   1.7405   1.7481   1.7928
     2.0174   2.0187   2.0288   2.0657   2.0960   2.1421   2.1542   2.1754
     2.1839   2.4165   2.5360   2.5364   2.7573   2.7651   4.4101   7.3380
     7.8528   7.8547   8.0244   8.1429   8.9325   8.9546   8.9801   8.9905
     9.0001   9.1111   9.1118   9.3150   9.3280   9.3594   9.6265   9.7019
     9.8605

          k = 0.1250 0.0000 0.0000 ( 34399 PWs)   bands (ev):

   -35.5934 -35.4596 -23.1052 -22.7663 -22.7647 -22.6761 -17.0653 -16.9091
   -16.7249 -16.6331 -16.6026 -16.5058 -15.2028 -15.1029 -14.9487 -14.7132
   -14.6971 -14.5860 -14.4066 -14.1840 -14.1807 -14.0746 -13.9909 -13.9669
   -13.8599 -13.5890 -13.2409  -8.3836  -7.9699  -7.9421  -7.9389  -7.8882
    -7.8705  -7.8160  -7.8149  -7.6889  -7.6527  -7.6512  -7.5498  -2.3677
    -2.3654  -2.3490  -1.8669  -1.8584  -1.8174  -1.8013  -1.7945  -1.7423
    -1.5926  -1.5553  -1.4583  -1.4035  -1.2411  -1.2120  -1.2114  -0.9034
    -0.8203  -0.6420  -0.6154  -0.5819  -0.5093  -0.5057  -0.3808  -0.3377
    -0.3342  -0.3322  -0.2747  -0.2662  -0.2341  -0.2252  -0.2217  -0.1985
    -0.1734  -0.1247  -0.0535   0.0683   0.0981   0.0988   0.1229   0.1762
     0.2021   0.2027   0.2171   0.2719   0.2833   0.3758   0.4246   0.4771
     0.6514   0.7362   0.7998   0.8066   0.9358   1.0069   1.0780   1.1787
     1.2105   1.2324   1.3725   1.3836   1.4047   1.4430   1.4938   1.5387
     1.5950   1.8045   1.8611   1.9170   1.9327   1.9704   1.9840   1.9990
     2.1035   2.1113   2.1598   2.2607   2.3910   2.5738   2.5785   5.3987
     5.4039   5.7348   6.3816   6.4676   6.8276   6.9781   6.9969   7.2852
     8.0902   8.1321   8.2755   8.4443   8.6061   8.7670   8.8273   9.1011
     9.2644

          k = 0.1250 0.1320 0.0000 ( 34364 PWs)   bands (ev):

   -35.5916 -35.4578 -23.0842 -22.7404 -22.7389 -22.6512 -17.0301 -16.8737
   -16.7282 -16.6960 -16.6047 -16.5695 -15.1210 -15.0298 -14.8971 -14.7084
   -14.6862 -14.5574 -14.3708 -14.1852 -14.1813 -14.1077 -13.9950 -13.9829
   -13.8972 -13.6109 -13.2919  -8.3601  -8.0952  -7.9610  -7.9589  -7.8956
    -7.8769  -7.8766  -7.8035  -7.7744  -7.6148  -7.6134  -7.5157  -2.4237
    -2.4160  -2.3724  -2.1447  -2.1315  -2.0289  -1.8916  -1.8461  -1.8361
    -1.7980  -1.7646  -1.6319  -1.6319  -1.5647  -1.3769  -1.2765  -1.1881
    -0.8523  -0.7871  -0.7686  -0.6704  -0.6660  -0.5657  -0.5518  -0.4957
    -0.4952  -0.4521  -0.4121  -0.2651  -0.2265  -0.1984  -0.1816  -0.1321
    -0.0849  -0.0556  -0.0257   0.0110   0.0134   0.1274   0.1580   0.1687
     0.1991   0.2218   0.2787   0.2939   0.3080   0.3532   0.5161   0.6131
     0.6424   0.8901   1.0090   1.0422   1.0466   1.1210   1.1412   1.2240
     1.2377   1.2501   1.2696   1.3037   1.3241   1.4423   1.5740   1.5972
     1.6413   1.6668   1.6751   1.6882   1.7171   1.7409   2.0415   2.1242
     2.3485   2.3553   2.5042   2.6192   2.8152   2.8307   2.9049   5.7401
     5.7423   5.9941   6.6550   6.7289   7.0936   7.2759   7.2890   7.5471
     8.2039   8.2954   8.4331   8.6054   8.7639   8.7904   8.9500   9.1459
     9.2548

          k = 0.1250 0.2640 0.0000 ( 34297 PWs)   bands (ev):

   -35.5872 -35.4534 -23.0327 -22.6766 -22.6750 -22.5897 -16.9411 -16.8581
   -16.7840 -16.7296 -16.7076 -16.5852 -14.9442 -14.8931 -14.7721 -14.7091
   -14.6584 -14.4930 -14.2837 -14.1980 -14.1632 -14.1586 -14.0422 -14.0301
   -13.9433 -13.6629 -13.4239  -8.3144  -8.2281  -8.0297  -8.0282  -7.9284
    -7.9158  -7.9135  -7.8660  -7.7862  -7.6056  -7.6042  -7.5133  -2.8554
    -2.8354  -2.7351  -2.6374  -2.4574  -2.4221  -2.4194  -2.2906  -2.2741
    -2.2733  -1.7982  -1.7900  -1.7739  -1.6741  -1.5171  -1.4732  -1.4614
    -1.0447  -0.9896  -0.9791  -0.9745  -0.9378  -0.8952  -0.8375  -0.7184
    -0.6867  -0.6862  -0.5573  -0.5354  -0.4906  -0.4631  -0.3899  -0.3123
    -0.2223  -0.1250  -0.0755  -0.0266   0.0022   0.1264   0.1976   0.2236
     0.3685   0.4171   0.5013   0.5775   0.6877   0.7489   0.7552   0.7944
     0.9258   1.0150   1.0272   1.0726   1.1011   1.1867   1.2298   1.3065
     1.3314   1.3439   1.3806   1.4026   1.4116   1.4995   1.5582   1.5926
     1.6226   1.6480   1.6516   1.8576   1.9414   1.9468   1.9777   2.2556
     2.5452   2.5529   2.7428   2.8396   3.0538   3.0632   3.6936   6.5543
     6.5547   6.5715   7.3303   7.3808   7.8930   8.0288   8.0590   8.0696
     8.3774   8.6408   8.7802   8.8243   8.9495   9.0039   9.1091   9.1476
     9.1861

          k = 0.1250 0.3960 0.0000 ( 34292 PWs)   bands (ev):

   -35.5828 -35.4490 -22.9800 -22.6106 -22.6091 -22.5262 -16.9927 -16.8626
   -16.8420 -16.6990 -16.6853 -16.5768 -14.8932 -14.8868 -14.6927 -14.5865
   -14.5343 -14.4237 -14.2562 -14.2287 -14.1416 -14.0950 -14.0931 -14.0522
   -13.9822 -13.7416 -13.5691  -8.3206  -8.2319  -8.0601  -8.0584  -7.9938
    -7.9274  -7.9251  -7.8896  -7.8124  -7.6506  -7.6493  -7.5486  -3.4353
    -3.3240  -3.3147  -3.1008  -2.9829  -2.9802  -2.9121  -2.3735  -2.3730
    -2.3332  -2.0046  -1.7855  -1.7808  -1.6520  -1.6293  -1.5841  -1.4255
    -1.3304  -1.2951  -1.2556  -1.2006  -1.1157  -1.1118  -1.0168  -0.9961
    -0.8665  -0.8634  -0.8288  -0.7822  -0.7466  -0.6911  -0.3945  -0.3371
    -0.3069  -0.1713  -0.0765  -0.0332   0.0344   0.1717   0.2092   0.2187
     0.4124   0.4725   0.6138   0.6664   0.7425   0.9045   0.9114   0.9486
     1.0363   1.0659   1.0704   1.1282   1.1644   1.1883   1.2356   1.2450
     1.2849   1.4112   1.5142   1.6527   1.6865   1.6976   1.7239   1.7590
     1.8452   1.9128   1.9417   1.9752   2.0912   2.3417   2.3418   2.3536
     2.4929   2.5030   2.6967   2.7695   2.9940   3.0112   4.2247   6.9387
     7.3053   7.3068   7.7345   8.1260   8.2013   8.4458   8.6033   8.6679
     8.6830   8.8899   9.1604   9.3326   9.4001   9.4512   9.5413   9.6317
     9.6377

          k = 0.1250-0.5279 0.0000 ( 34244 PWs)   bands (ev):

   -35.5809 -35.4471 -22.9578 -22.5826 -22.5811 -22.4994 -17.0443 -16.9139
   -16.7986 -16.6953 -16.6419 -16.5731 -14.9267 -14.9196 -14.6703 -14.4957
   -14.4373 -14.3391 -14.2986 -14.2564 -14.1655 -14.0690 -14.0666 -14.0276
   -13.9911 -13.8093 -13.6337  -8.3173  -8.2232  -8.0548  -8.0530  -8.0090
    -7.9330  -7.9299  -7.9161  -7.8190  -7.6848  -7.6837  -7.5696  -3.6965
    -3.5103  -3.5017  -3.2771  -3.2125  -3.2091  -3.0885  -2.3945  -2.3940
    -2.3493  -2.0913  -1.8155  -1.8099  -1.6028  -1.5905  -1.5146  -1.4852
    -1.4711  -1.3677  -1.3435  -1.3064  -1.2003  -1.1875  -1.1659  -1.0640
    -0.9422  -0.9404  -0.9384  -0.8701  -0.8437  -0.7953  -0.3755  -0.3372
    -0.3027  -0.1897  -0.0759  -0.0199   0.0559   0.1856   0.2195   0.2229
     0.4161   0.4867   0.6312   0.6497   0.7234   0.8262   0.9331   0.9501
     0.9617   0.9628   1.0215   1.1615   1.1694   1.2684   1.2824   1.3468
     1.4272   1.4360   1.4976   1.6848   1.7811   1.8304   2.0088   2.0293
     2.0301   2.0426   2.1254   2.1597   2.2068   2.3523   2.3570   2.4093
     2.5070   2.5072   2.5517   2.6189   2.8731   2.8949   4.3945   6.9536
     7.5269   7.5279   7.9641   8.1699   8.3047   8.4146   8.8934   9.0370
     9.1384   9.3022   9.3156   9.4416   9.4713   9.7711   9.8226   9.8570
     9.9591

          k = 0.2500 0.0000 0.0000 ( 34384 PWs)   bands (ev):

   -35.5907 -35.4570 -23.0704 -22.7219 -22.7204 -22.6332 -16.9803 -16.8885
   -16.8223 -16.7678 -16.6298 -16.5025 -15.0198 -14.9984 -14.9577 -14.7989
   -14.7428 -14.6082 -14.4169 -14.1991 -14.1955 -14.1528 -14.0272 -13.9998
   -13.9037 -13.6194 -13.3631  -8.4086  -7.9462  -7.9406  -7.9252  -7.8587
    -7.8082  -7.7296  -7.7284  -7.6117  -7.5720  -7.5704  -7.4723  -2.5618
    -2.5557  -2.4674  -2.2023  -2.2021  -2.1742  -2.0724  -1.7418  -1.7254
    -1.6506  -1.4871  -1.4853  -1.4121  -1.2690  -1.2087  -1.2080  -1.0462
    -1.0158  -0.8928  -0.8591  -0.7622  -0.7615  -0.7236  -0.6411  -0.5382
    -0.5265  -0.5237  -0.4657  -0.4415  -0.3097  -0.2774  -0.2444  -0.2413
    -0.2407  -0.1977  -0.1068  -0.0779   0.0853   0.0861   0.1832   0.1910
     0.1939   0.3299   0.3316   0.4508   0.4720   0.5036   0.5521   0.6029
     0.6665   0.6848   0.7857   0.8716   0.9380   1.0264   1.0730   1.1476
     1.2925   1.2961   1.3187   1.3303   1.4254   1.4457   1.4679   1.5841
     1.6536   1.7269   1.7429   1.8725   1.8896   1.9152   2.0200   2.0549
     2.0887   2.1170   2.3422   2.5216   2.5317   2.6807   2.6862   5.8605
     5.8611   6.2073   7.0116   7.0662   7.2946   7.5587   7.5685   7.8377
     8.2111   8.4907   8.5354   8.7167   8.9414   9.2588   9.2936   9.4119
     9.5619

          k = 0.2500 0.1320 0.0000 ( 34351 PWs)   bands (ev):

   -35.5889 -35.4551 -23.0507 -22.6981 -22.6966 -22.6101 -16.9482 -16.8821
   -16.7899 -16.7613 -16.6960 -16.5683 -14.9638 -14.9446 -14.9184 -14.7509
   -14.6911 -14.5736 -14.3710 -14.1843 -14.1827 -14.1556 -14.0303 -14.0128
   -13.9390 -13.6350 -13.3799  -8.3882  -8.1185  -8.0116  -8.0099  -7.9488
    -7.8664  -7.8645  -7.7829  -7.7245  -7.5384  -7.5369  -7.4502  -2.6152
    -2.6017  -2.4954  -2.1959  -2.1943  -2.1715  -2.1146  -2.0888  -2.0449
    -1.9550  -1.8166  -1.7836  -1.6226  -1.6223  -1.4501  -1.3513  -1.2975
    -1.0319  -1.0111  -0.9974  -0.9087  -0.8796  -0.8139  -0.7222  -0.6280
    -0.6090  -0.6003  -0.5082  -0.4524  -0.3820  -0.3281  -0.2976  -0.2092
    -0.1917  -0.0277  -0.0195   0.0080   0.0384   0.1081   0.1687   0.2060
     0.2207   0.3336   0.3374   0.3761   0.5235   0.6062   0.6562   0.7759
     0.8598   0.9109   0.9202   0.9816   1.0586   1.0725   1.1606   1.1970
     1.2223   1.3177   1.3863   1.4114   1.4248   1.4826   1.4877   1.5253
     1.5650   1.6689   1.7083   1.7387   1.7493   1.8976   2.0288   2.1169
     2.6695   2.6860   2.8553   2.8729   2.8770   2.9558   3.0091   6.1221
     6.1223   6.3372   7.1829   7.2033   7.5491   7.8171   7.8238   8.0245
     8.1854   8.6070   8.6223   8.8537   8.9368   9.0576   9.1692   9.3050
     9.4076

          k = 0.2500 0.2640 0.0000 ( 34331 PWs)   bands (ev):

   -35.5846 -35.4508 -23.0026 -22.6394 -22.6379 -22.5534 -16.8839 -16.8585
   -16.8321 -16.7549 -16.7079 -16.7038 -14.8567 -14.8463 -14.8097 -14.6113
   -14.5602 -14.4883 -14.2493 -14.1855 -14.1577 -14.1555 -14.0806 -14.0599
   -13.9641 -13.6633 -13.4313  -8.4313  -8.3167  -8.2316  -8.2301  -8.1198
    -7.9283  -7.9263  -7.8918  -7.8223  -7.6584  -7.6566  -7.5764  -2.9968
    -2.9635  -2.7794  -2.6766  -2.5104  -2.4358  -2.4319  -2.3124  -2.3062
    -2.3028  -2.1653  -2.1633  -2.1211  -1.9845  -1.6607  -1.4494  -1.4179
    -1.4151  -1.4065  -1.2878  -1.1561  -1.0782  -0.9676  -0.9143  -0.8557
    -0.7295  -0.7180  -0.6066  -0.5947  -0.5865  -0.5680  -0.4165  -0.4017
    -0.3259  -0.2918  -0.2425   0.0186   0.0821   0.1012   0.3326   0.3603
     0.5354   0.5838   0.6330   0.7838   0.7995   0.8449   0.9137   0.9650
     0.9681   1.1307   1.2198   1.2559   1.2846   1.3300   1.3494   1.3934
     1.4555   1.4750   1.4926   1.5235   1.5347   1.6062   1.6257   1.6463
     1.6705   1.6909   1.7426   1.8623   1.8645   1.9421   2.0679   2.3110
     2.9918   2.9935   3.2755   3.2897   3.4168   3.5321   3.6999   6.4639
     6.6646   6.6649   7.5801   7.6015   7.8071   8.1794   8.3505   8.3528
     8.6857   8.7616   8.8309   9.0133   9.0478   9.2315   9.2577   9.3269
     9.4138

          k = 0.2500 0.3960 0.0000 ( 34334 PWs)   bands (ev):

   -35.5802 -35.4464 -22.9534 -22.5790 -22.5775 -22.4951 -16.9806 -16.8507
   -16.8469 -16.7734 -16.7248 -16.6166 -14.8118 -14.8079 -14.6391 -14.4379
   -14.4180 -14.3948 -14.2391 -14.2007 -14.1782 -14.0973 -14.0842 -14.0757
   -13.9674 -13.7006 -13.5001  -8.5836  -8.3517  -8.3500  -8.2951  -8.2352
    -8.0795  -7.9786  -7.9767  -7.8735  -7.8714  -7.8705  -7.7850  -3.4945
    -3.4624  -3.4031  -3.2233  -3.0035  -2.9595  -2.9583  -2.4449  -2.4445
    -2.3830  -2.1325  -2.1269  -2.0701  -1.9330  -1.8654  -1.7713  -1.7657
    -1.5898  -1.5039  -1.4455  -1.4130  -1.2850  -1.1553  -1.1423  -0.9337
    -0.8294  -0.8242  -0.7958  -0.7874  -0.7693  -0.7079  -0.5560  -0.4737
    -0.4358  -0.3496  -0.2824   0.0599   0.1557   0.2067   0.3733   0.4251
     0.6821   0.7158   0.8523   0.9842   0.9845   1.0021   1.0786   1.2478
     1.2762   1.2908   1.3240   1.3262   1.4234   1.4566   1.4998   1.5130
     1.5841   1.5974   1.6369   1.7276   1.7515   1.7774   1.8110   1.8730
     1.8992   1.9308   1.9595   2.0078   2.1869   2.2633   2.2635   2.4055
     2.8233   2.8255   3.5037   3.5295   3.6566   3.7552   4.1941   6.2812
     6.8720   6.8733   7.5955   7.7339   8.0407   8.3966   8.6160   8.8011
     8.8171   9.0179   9.3392   9.4604   9.6607   9.7466   9.7813   9.8375
     9.9099

          k = 0.2500-0.5279 0.0000 ( 34344 PWs)   bands (ev):

   -35.5784 -35.4446 -22.9326 -22.5534 -22.5519 -22.4704 -17.0308 -16.9006
   -16.8414 -16.7339 -16.7195 -16.5770 -14.8091 -14.8040 -14.5612 -14.3585
   -14.3450 -14.3359 -14.2690 -14.2339 -14.2212 -14.0615 -14.0610 -14.0106
   -13.9902 -13.7346 -13.5340  -8.6093  -8.3519  -8.3500  -8.2906  -8.2390
    -8.2128  -8.0666  -8.0652  -7.9387  -7.9363  -7.9046  -7.8662  -3.7028
    -3.6635  -3.6553  -3.4147  -3.2021  -3.1871  -3.1806  -2.4523  -2.4520
    -2.3964  -2.0963  -2.0888  -2.0061  -2.0056  -1.9251  -1.9053  -1.8753
    -1.6842  -1.6291  -1.4804  -1.4433  -1.3542  -1.2408  -1.2319  -0.9479
    -0.9058  -0.8958  -0.8667  -0.8103  -0.8019  -0.7900  -0.5712  -0.5011
    -0.4623  -0.3594  -0.2715   0.0670   0.1888   0.2401   0.3892   0.4581
     0.7173   0.7988   0.9803   1.0274   1.0880   1.0886   1.0942   1.1992
     1.2222   1.2279   1.3658   1.4515   1.4558   1.4876   1.5090   1.5387
     1.5535   1.6992   1.7084   1.8797   1.9123   1.9582   1.9934   2.0273
     2.0378   2.0710   2.0957   2.1310   2.3144   2.4232   2.4391   2.4392
     2.6009   2.6042   3.5231   3.5548   3.6926   3.7866   4.3460   6.1491
     6.8367   6.8374   7.5195   7.7016   8.1204   8.4601   8.6958   9.1710
     9.1733   9.2717   9.5234   9.5389   9.7127   9.8469   9.9496  10.0368
    10.1107

          k = 0.3750 0.0000 0.0000 ( 34362 PWs)   bands (ev):

   -35.5881 -35.4543 -23.0349 -22.6765 -22.6750 -22.5892 -17.0284 -16.9077
   -16.8851 -16.7256 -16.6265 -16.4992 -15.1057 -15.0363 -15.0321 -14.6500
   -14.6227 -14.6151 -14.3794 -14.2425 -14.2023 -14.2009 -14.1062 -14.0594
   -13.9361 -13.6567 -13.4725  -8.4049  -7.9268  -7.9233  -7.8997  -7.8092
    -7.7438  -7.6648  -7.6636  -7.5766  -7.4876  -7.4860  -7.3915  -2.8886
    -2.8818  -2.7546  -2.4832  -2.3252  -2.3247  -2.2637  -1.6604  -1.6297
    -1.5981  -1.5353  -1.5031  -1.3754  -1.3034  -1.2966  -1.2103  -1.2097
    -1.1401  -1.0122  -1.0045  -0.9529  -0.9214  -0.8879  -0.8403  -0.7373
    -0.7267  -0.7238  -0.6861  -0.6372  -0.4330  -0.3987  -0.2676  -0.2543
    -0.2373  -0.2275  -0.1562  -0.1371   0.0725   0.0732   0.1208   0.1794
     0.1855   0.4084   0.4106   0.4308   0.4345   0.5101   0.5223   0.5669
     0.7425   0.8011   0.8165   0.8749   0.8968   1.1511   1.1907   1.1911
     1.2540   1.2888   1.3629   1.3693   1.4773   1.5047   1.5355   1.5598
     1.6648   1.7602   1.7807   1.7932   1.9090   1.9540   1.9737   2.1425
     2.1447   2.1766   2.3940   2.5803   2.6152   2.7960   2.8106   6.5105
     6.5109   6.6387   7.7452   7.7771   7.8836   8.0057   8.0082   8.2060
     8.4433   8.5519   8.6156   9.2571   9.3285   9.4676   9.4880   9.5632
     9.5992

          k = 0.3750 0.1320 0.0000 ( 34383 PWs)   bands (ev):

   -35.5863 -35.4525 -23.0166 -22.6548 -22.6533 -22.5681 -17.0198 -16.8991
   -16.8560 -16.6963 -16.6910 -16.5634 -15.0385 -14.9884 -14.9850 -14.6102
   -14.5785 -14.5539 -14.3253 -14.2127 -14.1802 -14.1786 -14.0941 -14.0530
   -13.9743 -13.6705 -13.4616  -8.3879  -8.0534  -7.9830  -7.9812  -7.9310
    -7.8281  -7.8265  -7.7956  -7.7312  -7.5774  -7.5757  -7.4975  -2.9530
    -2.9389  -2.8026  -2.5102  -2.3240  -2.3235  -2.2657  -2.0399  -2.0146
    -1.8650  -1.7912  -1.7489  -1.6112  -1.6107  -1.4961  -1.4298  -1.3720
    -1.3050  -1.3016  -1.2285  -1.1118  -0.9945  -0.8743  -0.8155  -0.7805
    -0.7265  -0.6754  -0.5876  -0.5667  -0.5457  -0.4098  -0.4022  -0.2626
    -0.2583  -0.0540  -0.0409   0.0520   0.1063   0.1326   0.1793   0.1956
     0.2180   0.3722   0.4393   0.4466   0.4589   0.6685   0.6894   0.7936
     0.8293   0.9018   0.9579   1.0325   1.1204   1.1487   1.1931   1.2248
     1.2720   1.3183   1.3653   1.3730   1.4985   1.5413   1.5852   1.6270
     1.7074   1.7464   1.7598   1.7954   1.8638   1.9555   2.0801   2.1110
     2.7485   2.7567   2.9059   2.9704   2.9783   3.1407   3.1918   6.5665
     6.6600   6.6601   7.7954   7.8348   7.9199   8.0710   8.0725   8.1764
     8.4623   8.6711   8.8284   9.0678   9.2151   9.3777   9.4883   9.5233
     9.6363

          k = 0.3750 0.2640 0.0000 ( 34389 PWs)   bands (ev):

   -35.5820 -35.4482 -22.9720 -22.6015 -22.6000 -22.5164 -16.9995 -16.8788
   -16.8356 -16.7805 -16.7061 -16.6221 -14.8717 -14.8646 -14.8501 -14.5147
   -14.4764 -14.4072 -14.2064 -14.1813 -14.1330 -14.1231 -14.1039 -14.0599
   -14.0126 -13.6797 -13.4402  -8.4853  -8.3219  -8.2843  -8.2828  -8.1757
    -8.0478  -7.9630  -7.9612  -7.8731  -7.8407  -7.8388  -7.7732  -3.2750
    -3.2340  -3.0358  -2.7314  -2.6678  -2.4957  -2.4909  -2.3758  -2.3752
    -2.3581  -2.2539  -2.2458  -2.2436  -2.2182  -1.7810  -1.7372  -1.6363
    -1.5503  -1.4430  -1.2598  -1.2296  -1.0769  -0.9612  -0.9251  -0.8839
    -0.8627  -0.8481  -0.6667  -0.6494  -0.6424  -0.6241  -0.5004  -0.4040
    -0.3911  -0.3544  -0.3163   0.0537   0.1289   0.2478   0.4249   0.4673
     0.6499   0.6997   0.7168   0.8243   0.8356   1.0120   1.0132   1.0952
     1.1767   1.2017   1.2400   1.2482   1.4036   1.4095   1.4496   1.4659
     1.5219   1.5766   1.6336   1.6576   1.6769   1.7328   1.7397   1.7582
     1.7661   1.8101   1.8159   1.8611   1.9236   2.0720   2.1503   2.2063
     2.9919   2.9948   3.6894   3.7346   3.7399   3.8527   3.9523   6.1896
     6.7050   6.7060   7.5350   7.6314   8.0177   8.3339   8.4102   8.4357
     8.8056   9.0631   9.2159   9.3052   9.3875   9.4228   9.5028   9.7456
     9.7953

          k = 0.3750 0.3960 0.0000 ( 34365 PWs)   bands (ev):

   -35.5777 -35.4438 -22.9264 -22.5469 -22.5453 -22.4634 -16.9825 -16.9618
   -16.8603 -16.8338 -16.7009 -16.5420 -14.7340 -14.7312 -14.6111 -14.4223
   -14.3847 -14.2852 -14.2300 -14.1785 -14.1687 -14.0747 -14.0708 -14.0082
   -13.9723 -13.6646 -13.4269  -8.7909  -8.5502  -8.5484  -8.4715  -8.3621
    -8.2629  -8.2152  -8.2138  -8.0676  -7.9656  -7.9633  -7.8932  -3.7523
    -3.7068  -3.4715  -3.3582  -3.1857  -2.9393  -2.9388  -2.6259  -2.6248
    -2.5000  -2.3032  -2.2738  -2.2727  -2.2516  -2.0964  -2.0458  -1.8601
    -1.7447  -1.6867  -1.3025  -1.2082  -1.2029  -1.2019  -1.1900  -0.9570
    -0.9441  -0.8695  -0.8544  -0.8271  -0.7536  -0.7100  -0.6900  -0.5746
    -0.3921  -0.3895  -0.3047   0.1505   0.2660   0.3020   0.5157   0.6432
     0.8698   0.9993   1.0673   1.1626   1.1642   1.2443   1.2871   1.3559
     1.3894   1.4593   1.4870   1.4902   1.5801   1.6265   1.6784   1.7184
     1.7483   1.7698   1.7888   1.8691   1.8835   1.9209   1.9432   1.9707
     2.0037   2.0393   2.0607   2.1234   2.1852   2.1853   2.3987   2.4535
     2.8114   2.8163   4.1375   4.2509   4.2612   4.3312   4.4307   5.7048
     6.4018   6.4027   7.1893   7.3604   8.1504   8.2997   8.8616   8.9882
     9.0076   9.1802   9.3617   9.4737   9.5310   9.5704   9.5930   9.6642
     9.8789

          k = 0.3750-0.5279 0.0000 ( 34392 PWs)   bands (ev):

   -35.5759 -35.4420 -22.9072 -22.5238 -22.5223 -22.4411 -17.0174 -16.9696
   -16.8875 -16.8490 -16.6654 -16.5067 -14.6725 -14.6706 -14.4331 -14.3956
   -14.3557 -14.3340 -14.2582 -14.1983 -14.1524 -14.0537 -14.0530 -13.9600
   -13.9501 -13.6578 -13.4237  -8.8986  -8.6322  -8.6303  -8.5596  -8.5071
    -8.3602  -8.3591  -8.2684  -8.1672  -7.9919  -7.9888  -7.9046  -3.9576
    -3.9130  -3.6892  -3.5992  -3.3872  -3.1646  -3.1641  -2.6444  -2.6434
    -2.5200  -2.3059  -2.2685  -2.2665  -2.2462  -2.2044  -2.1585  -1.9428
    -1.8437  -1.7407  -1.3704  -1.3141  -1.3034  -1.2343  -1.2294  -0.9557
    -0.9530  -0.9479  -0.9362  -0.8925  -0.7967  -0.7904  -0.7057  -0.5822
    -0.3766  -0.3758  -0.2857   0.1800   0.3031   0.3199   0.5468   0.7238
     0.9389   1.1169   1.2447   1.2743   1.2871   1.3034   1.3522   1.3564
     1.3971   1.5271   1.5905   1.6566   1.6738   1.7035   1.7598   1.7693
     1.8159   1.8647   1.8691   1.9933   2.0114   2.0464   2.0573   2.0652
     2.1432   2.1944   2.2082   2.2771   2.3739   2.3755   2.5216   2.5511
     2.5664   2.5742   4.2402   4.3940   4.4137   4.4786   4.5734   5.4974
     6.2244   6.2249   7.0685   7.2678   8.0514   8.3554   8.8453   9.0280
     9.1476   9.1653   9.3302   9.5270   9.5450   9.6730   9.8476   9.8697
     9.8699

          k =-0.5000 0.0000 0.0000 ( 34370 PWs)   bands (ev):

   -35.5870 -35.4532 -23.0200 -22.6574 -22.6558 -22.5707 -17.0806 -16.9603
   -16.8431 -16.6825 -16.6251 -16.4978 -15.1493 -15.0887 -15.0877 -14.6692
   -14.5993 -14.4172 -14.3285 -14.2354 -14.2256 -14.2104 -14.1714 -14.1454
   -13.9450 -13.6746 -13.5137  -8.3972  -7.9162  -7.9130  -7.8827  -7.7946
    -7.7166  -7.6417  -7.6405  -7.5707  -7.4515  -7.4499  -7.3569  -3.0301
    -3.0242  -2.8910  -2.6362  -2.3502  -2.3496  -2.2674  -1.6676  -1.6151
    -1.6127  -1.5730  -1.3977  -1.3742  -1.3198  -1.2789  -1.2141  -1.2135
    -1.1929  -1.1726  -1.1486  -1.0020  -0.9345  -0.8851  -0.8796  -0.8245
    -0.8079  -0.8073  -0.7887  -0.7378  -0.4929  -0.4513  -0.2759  -0.2595
    -0.2381  -0.2120  -0.1996  -0.1634   0.0672   0.0679   0.1170   0.1411
     0.1540   0.4086   0.4096   0.4336   0.4356   0.4930   0.5164   0.5337
     0.7095   0.8209   0.8606   0.8702   0.9013   1.1401   1.1406   1.2164
     1.3677   1.3912   1.3931   1.4062   1.4588   1.4729   1.5905   1.6525
     1.6594   1.6603   1.7400   1.8612   1.9406   1.9910   2.1041   2.1555
     2.1567   2.1821   2.3988   2.5645   2.6240   2.8231   2.8469   6.8129
     7.2832   7.2842   7.3352   7.3356   7.8448   8.2307   8.2816   8.5423
     8.6251   8.6296   8.9691   9.3476   9.4489   9.4498   9.5598   9.5926
     9.6040

          k =-0.5000 0.1320 0.0000 ( 34378 PWs)   bands (ev):

   -35.5852 -35.4514 -23.0024 -22.6366 -22.6350 -22.5505 -17.0714 -16.9511
   -16.8156 -16.6888 -16.6548 -16.5613 -15.0783 -15.0316 -15.0304 -14.6284
   -14.5612 -14.3776 -14.2689 -14.1955 -14.1950 -14.1872 -14.1520 -14.1171
   -13.9840 -13.6904 -13.4931  -8.3786  -7.9543  -7.9522  -7.9365  -7.9164
    -7.9043  -7.7711  -7.7699  -7.6871  -7.6546  -7.6527  -7.5708  -3.1007
    -3.0879  -2.9480  -2.6689  -2.3552  -2.3546  -2.2853  -2.0070  -1.9798
    -1.8146  -1.7845  -1.7033  -1.6059  -1.6053  -1.5197  -1.4618  -1.4224
    -1.4159  -1.3575  -1.3487  -1.1864  -1.0917  -0.8636  -0.8631  -0.8561
    -0.7047  -0.6910  -0.6414  -0.6267  -0.5839  -0.4465  -0.4407  -0.2860
    -0.2850  -0.0690  -0.0501   0.0619   0.1298   0.1419   0.1874   0.1906
     0.2674   0.3092   0.4400   0.5203   0.5209   0.5945   0.6118   0.7658
     0.8116   0.9238   0.9544   1.0558   1.1220   1.1442   1.1886   1.2449
     1.2849   1.2876   1.4145   1.4886   1.5412   1.5586   1.6285   1.6805
     1.7018   1.7265   1.7632   1.8658   1.9059   2.0831   2.0991   2.1644
     2.7554   2.7600   2.9126   2.9884   2.9991   3.1936   3.2294   6.6157
     7.1309   7.1320   7.6353   7.6379   7.8134   8.1713   8.3046   8.3802
     8.4436   8.8454   9.2090   9.2548   9.4373   9.5496   9.5860   9.6400
     9.6709

          k =-0.5000 0.2640 0.0000 ( 34396 PWs)   bands (ev):

   -35.5809 -35.4471 -22.9591 -22.5856 -22.5841 -22.5009 -17.0494 -16.9291
   -16.8323 -16.7442 -16.7030 -16.5847 -14.8954 -14.8820 -14.8649 -14.5312
   -14.4720 -14.2827 -14.1616 -14.1457 -14.1419 -14.1271 -14.1125 -14.0609
   -14.0398 -13.6977 -13.4442  -8.4348  -8.3177  -8.2233  -8.2213  -8.2086
    -8.1230  -8.0722  -8.0710  -7.9542  -7.9041  -7.9019  -7.8510  -3.4130
    -3.3725  -3.1781  -2.8749  -2.6616  -2.5209  -2.5162  -2.3906  -2.3848
    -2.3725  -2.2667  -2.2572  -2.2515  -2.2419  -1.9063  -1.8566  -1.6910
    -1.5691  -1.5352  -1.1896  -1.1419  -1.0509  -0.9629  -0.9626  -0.9052
    -0.9013  -0.8707  -0.7000  -0.6818  -0.6675  -0.6659  -0.5106  -0.3921
    -0.3886  -0.3866  -0.3424   0.0644   0.1388   0.3215   0.4598   0.5079
     0.6909   0.7433   0.7811   0.8555   0.8594   1.0964   1.1015   1.1257
     1.1751   1.1873   1.2110   1.2254   1.3960   1.4462   1.4738   1.5158
     1.5449   1.5612   1.7038   1.7150   1.7254   1.7591   1.8071   1.8176
     1.8465   1.8751   1.8987   1.9335   1.9437   2.0529   2.1013   2.2564
     2.9850   2.9882   3.6995   3.8701   3.8777   3.9853   4.0786   6.0520
     6.7010   6.7018   7.4112   7.5643   8.1486   8.4476   8.4627   8.4673
     9.0081   9.1859   9.2425   9.4077   9.5913   9.6198   9.6955   9.6965
     9.8323

          k =-0.5000 0.3960 0.0000 ( 34384 PWs)   bands (ev):

   -35.5766 -35.4428 -22.9151 -22.5334 -22.5319 -22.4501 -17.0279 -16.9613
   -16.9076 -16.8318 -16.6687 -16.5090 -14.7051 -14.7015 -14.6057 -14.4458
   -14.3976 -14.2253 -14.2237 -14.1691 -14.1181 -14.0716 -14.0710 -13.9935
   -13.9494 -13.6541 -13.3953  -8.8535  -8.5984  -8.5965  -8.5174  -8.5010
    -8.3602  -8.3591  -8.2733  -8.2017  -7.9822  -7.9795  -7.8996  -3.8834
    -3.8339  -3.5877  -3.3580  -3.2979  -2.9309  -2.9303  -2.6962  -2.6944
    -2.5548  -2.3925  -2.2900  -2.2897  -2.2783  -2.1959  -2.1484  -1.8996
    -1.8065  -1.7192  -1.2680  -1.2287  -1.2225  -1.1019  -1.0906  -1.0439
    -1.0347  -0.8830  -0.8785  -0.7965  -0.7959  -0.7351  -0.6731  -0.6614
    -0.3520  -0.3517  -0.3043   0.1702   0.2859   0.3798   0.5755   0.7356
     0.9563   1.1189   1.1589   1.2901   1.2949   1.2984   1.3085   1.3904
     1.4234   1.4848   1.5625   1.5682   1.5802   1.6910   1.7170   1.7543
     1.7710   1.8079   1.8475   1.9167   1.9544   1.9781   1.9902   2.0324
     2.0644   2.1165   2.1539   2.1609   2.2048   2.2568   2.3958   2.5291
     2.7993   2.8052   4.1321   4.5146   4.5193   4.5761   4.6700   5.4859
     6.2061   6.2069   7.0239   7.2099   8.2007   8.2375   8.8105   8.9289
     9.0283   9.2465   9.3810   9.4676   9.5750   9.6444   9.6609   9.8631
     9.9027

          k =-0.5000-0.5279 0.0000 ( 34420 PWs)   bands (ev):

   -35.5748 -35.4410 -22.8966 -22.5114 -22.5099 -22.4288 -17.0191 -17.0119
   -16.8988 -16.8821 -16.6352 -16.4758 -14.6067 -14.6066 -14.4371 -14.3824
   -14.3647 -14.3338 -14.2710 -14.1956 -14.1001 -14.0503 -14.0478 -13.9512
   -13.9087 -13.6253 -13.3744  -9.0186  -8.7444  -8.7424  -8.6681  -8.6227
    -8.4763  -8.4752  -8.2984  -8.2563  -8.0104  -8.0068  -7.9125  -4.0906
    -4.0411  -3.7867  -3.6156  -3.4981  -3.1552  -3.1546  -2.7288  -2.7268
    -2.5872  -2.4110  -2.2885  -2.2804  -2.2799  -2.2729  -2.2496  -1.9693
    -1.8961  -1.7730  -1.3435  -1.3392  -1.3302  -1.1665  -1.1556  -1.0207
    -1.0040  -0.9761  -0.9756  -0.8950  -0.8441  -0.7892  -0.7035  -0.6413
    -0.3233  -0.3228  -0.2867   0.2043   0.3250   0.3965   0.6144   0.8469
     1.0496   1.2843   1.3028   1.3555   1.3584   1.3671   1.4084   1.4126
     1.4465   1.6285   1.6392   1.7534   1.7577   1.7841   1.8287   1.8779
     1.8928   1.9165   1.9955   1.9998   2.0460   2.0511   2.0873   2.1058
     2.1948   2.2575   2.3466   2.3499   2.3608   2.4221   2.5420   2.5519
     2.6014   2.6846   4.2254   4.7140   4.7244   4.7792   4.8643   5.2533
     5.9791   5.9799   6.8905   7.1046   8.0498   8.2835   8.6762   9.0398
     9.0497   9.0594   9.3249   9.3375   9.4219   9.4625   9.8774   9.9730
    10.1181

     the Fermi energy is     2.5749 ev

!    total energy              =   -1842.86460858 Ry
     Harris-Foulkes estimate   =   -1842.86460858 Ry
     estimated scf accuracy    <          6.1E-11 Ry

     The total energy is the sum of the following terms:

     one-electron contribution =  -29492.57456930 Ry
     hartree contribution      =   14899.35312708 Ry
     xc contribution           =    -621.62953547 Ry
     ewald contribution        =   13371.99412720 Ry
     smearing contrib. (-TS)   =      -0.00775808 Ry

     convergence has been achieved in  38 iterations

     negative rho (up, down):  1.520E-03 0.000E+00

     Forces acting on atoms (cartesian axes, Ry/au):

     atom    1 type  4   force =     0.00000000    0.00000000   -0.00024342
     atom    2 type  3   force =     0.00000000    0.00000000    0.00049165
     atom    3 type  4   force =     0.00000000    0.00000000   -0.00080284
     atom    4 type  1   force =     0.00000000    0.00000000   -0.00028215
     atom    5 type  3   force =     0.00000000    0.00000000    0.00059602
     atom    6 type  4   force =     0.00000000    0.00000000    0.00024497
     atom    7 type  4   force =     0.00000000    0.00000000    0.00034095
     atom    8 type  2   force =     0.00000000    0.00000000   -0.00134182
     atom    9 type  4   force =     0.00000000    0.00000000    0.00233064
     atom   10 type  4   force =     0.00000000    0.00000000    0.00274812
     atom   11 type  3   force =     0.00000000    0.00000000   -0.00374000
     atom   12 type  1   force =     0.00000000    0.00000000   -0.00720606
     atom   13 type  4   force =     0.00000000    0.00000000   -0.04098948
     atom   14 type  4   force =     0.00000000    0.00000000    0.01347867
     atom   15 type  3   force =     0.00000000    0.00000000    0.06801722
     atom   16 type  4   force =     0.00000000    0.00000000   -0.01770601
     atom   17 type  1   force =     0.00000000    0.00000000    0.01197144
     atom   18 type  3   force =     0.00000000    0.00000000   -0.00455368
     atom   19 type  4   force =     0.00000000    0.00000000   -0.00590656
     atom   20 type  4   force =     0.00000000    0.00000000   -0.00518887
     atom   21 type  2   force =     0.00000000    0.00000000   -0.01477878
     atom   22 type  4   force =     0.00000000    0.00000000    0.00033012
     atom   23 type  4   force =     0.00000000    0.00000000    0.00143217
     atom   24 type  3   force =     0.00000000    0.00000000   -0.00021525
     atom   25 type  1   force =     0.00000000    0.00000000    0.00027577
     atom   26 type  4   force =     0.00000000    0.00000000    0.00102657
     atom   27 type  3   force =     0.00000000    0.00000000   -0.00058851
     atom   28 type  4   force =     0.00000000    0.00000000    0.00025913

     Total force =     0.074604     Total SCF correction =     0.000027


     Computing stress (Cartesian axis) and pressure


     negative rho (up, down):  1.520E-03 0.000E+00
          total   stress  (Ry/bohr**3)                   (kbar)     P=       -6.39
  -0.00005982   0.00000000   0.00000000           -8.80        0.00        0.00
   0.00000000  -0.00003763   0.00000000            0.00       -5.54        0.00
   0.00000000   0.00000000  -0.00003292            0.00        0.00       -4.84


     number of scf cycles    =   2
     number of bfgs steps    =   1

     energy   old            =   -1842.8486839903 Ry
     energy   new            =   -1842.8646085796 Ry

     CASE: energy  _new < energy  _old


     WARNING: bfgs curvature condition failed, Theta= 0.800
     new trust radius        =       0.3645640696 bohr
     new conv_thr            =            6.8E-12 Ry


ATOMIC_POSITIONS (angstrom)
O             0.0000000000        1.8611200000       -0.1857589071    0   0   0
Cu            0.0000000000        0.0000000000        0.1046214449    0   0   0
O             0.0000000000        0.0000000000        1.9894575706    0   0   0
Ba            1.9651100000        1.8611200000        2.2502062478    0   0   0
Cu            0.0000000000        0.0000000000        4.1024626237    0   0   0
O             1.9651100000        0.0000000000        4.2582075118    0   0   0
O             0.0000000000        1.8611200000        4.3961733949    0   0   0
Ca            1.9651100000        1.8611200000        5.9223102985    0   0   0
O             0.0000000000        1.8611200000        7.3820098679    0   0   0
O             1.9651100000        0.0000000000        7.5309329307    0   0   0
Cu            0.0000000000        0.0000000000        7.7161686299    0   0   0
Ba            1.9651100000        1.8611200000        9.6076756556    0   0   0
O             0.0000000000        0.0000000000        9.9317827901    0   0   0
O             0.0000000000        1.8611200000       11.9615589967
Cu            0.0000000000        0.0000000000       11.7307773932
O             0.0000000000        0.0000000000       13.7309678138
Ba            1.9651100000        1.8611200000       14.0550516009
Cu            0.0000000000        0.0000000000       16.4276398081
O             1.9651100000        0.0000000000       16.6128711904
O             0.0000000000        1.8611200000       16.7617766887
Ca            1.9651100000        1.8611200000       18.2215198654
O             0.0000000000        1.8611200000       19.7476449824    0   0   0
O             1.9651100000        0.0000000000       19.8856108655    0   0   0
Cu            0.0000000000        0.0000000000       20.0413658153    0   0   0
Ba            1.9651100000        1.8611200000       21.8936121295    0   0   0
O             0.0000000000        0.0000000000       22.1543205599    0   0   0
Cu            0.0000000000        0.0000000000       24.0391768090    0   0   0
O             0.0000000000        1.8611200000       24.3295068526    0   0   0


     NEW-OLD atomic charge density approx. for the potential

     negative rho (up, down):  8.588E-03 0.000E+00

     total cpu time spent up to now is      667.0 secs

     Self-consistent Calculation

     iteration #  1     ecut=    60.00 Ry     beta= 0.70
     Davidson diagonalization with overlap
     c_bands:  1 eigenvalues not converged
     c_bands:  1 eigenvalues not converged
     c_bands:  2 eigenvalues not converged
     c_bands:  2 eigenvalues not converged
     c_bands:  1 eigenvalues not converged
     c_bands:  1 eigenvalues not converged
     ethr =  1.00E-06,  avg # of iterations = 14.2

     negative rho (up, down):  2.858E-03 0.000E+00

     total cpu time spent up to now is      725.2 secs

     total energy              =   -1842.86134302 Ry
     Harris-Foulkes estimate   =   -1842.88560514 Ry
     estimated scf accuracy    <       0.51622185 Ry

     iteration #  2     ecut=    60.00 Ry     beta= 0.70
     Davidson diagonalization with overlap
     ethr =  2.27E-04,  avg # of iterations =  1.0

     negative rho (up, down):  3.070E-03 0.000E+00

     total cpu time spent up to now is      739.7 secs

     total energy              =   -1842.85502103 Ry
     Harris-Foulkes estimate   =   -1842.89942252 Ry
     estimated scf accuracy    <       0.82243070 Ry

     iteration #  3     ecut=    60.00 Ry     beta= 0.70
     Davidson diagonalization with overlap
     ethr =  2.27E-04,  avg # of iterations =  1.2

     negative rho (up, down):  1.765E-03 0.000E+00

     total cpu time spent up to now is      754.0 secs

     total energy              =   -1842.87859133 Ry
     Harris-Foulkes estimate   =   -1842.88609127 Ry
     estimated scf accuracy    <       0.36901326 Ry

     iteration #  4     ecut=    60.00 Ry     beta= 0.70
     Davidson diagonalization with overlap
     ethr =  1.63E-04,  avg # of iterations =  1.0

     negative rho (up, down):  1.733E-03 0.000E+00

     total cpu time spent up to now is      768.1 secs

     total energy              =   -1842.87928869 Ry
     Harris-Foulkes estimate   =   -1842.88241376 Ry
     estimated scf accuracy    <       0.16198387 Ry

     iteration #  5     ecut=    60.00 Ry     beta= 0.70
     Davidson diagonalization with overlap
     ethr =  7.14E-05,  avg # of iterations =  1.2

     negative rho (up, down):  1.602E-03 0.000E+00

     total cpu time spent up to now is      782.4 secs

     total energy              =   -1842.87921478 Ry
     Harris-Foulkes estimate   =   -1842.88055406 Ry
     estimated scf accuracy    <       0.04609876 Ry

     iteration #  6     ecut=    60.00 Ry     beta= 0.70
     Davidson diagonalization with overlap
     ethr =  2.03E-05,  avg # of iterations =  5.5

     negative rho (up, down):  1.349E-03 0.000E+00

     total cpu time spent up to now is      801.4 secs

     total energy              =   -1842.87948711 Ry
     Harris-Foulkes estimate   =   -1842.88015328 Ry
     estimated scf accuracy    <       0.03084520 Ry

     iteration #  7     ecut=    60.00 Ry     beta= 0.70
     Davidson diagonalization with overlap
     ethr =  1.36E-05,  avg # of iterations =  3.4

     negative rho (up, down):  1.243E-03 0.000E+00

     total cpu time spent up to now is      817.9 secs

     total energy              =   -1842.87943635 Ry
     Harris-Foulkes estimate   =   -1842.87992438 Ry
     estimated scf accuracy    <       0.01341612 Ry

     iteration #  8     ecut=    60.00 Ry     beta= 0.70
     Davidson diagonalization with overlap
     c_bands:  1 eigenvalues not converged
     ethr =  5.91E-06,  avg # of iterations =  4.8

     negative rho (up, down):  1.202E-03 0.000E+00

     total cpu time spent up to now is      836.2 secs

     total energy              =   -1842.87950735 Ry
     Harris-Foulkes estimate   =   -1842.87964451 Ry
     estimated scf accuracy    <       0.00283575 Ry

     iteration #  9     ecut=    60.00 Ry     beta= 0.70
     Davidson diagonalization with overlap
     ethr =  1.25E-06,  avg # of iterations =  7.2

     negative rho (up, down):  1.196E-03 0.000E+00

     total cpu time spent up to now is      857.4 secs

     total energy              =   -1842.87953639 Ry
     Harris-Foulkes estimate   =   -1842.87956483 Ry
     estimated scf accuracy    <       0.00033214 Ry

     iteration # 10     ecut=    60.00 Ry     beta= 0.70
     Davidson diagonalization with overlap
     ethr =  1.46E-07,  avg # of iterations =  2.4

     negative rho (up, down):  1.204E-03 0.000E+00

     total cpu time spent up to now is      872.9 secs

     total energy              =   -1842.87954688 Ry
     Harris-Foulkes estimate   =   -1842.87956383 Ry
     estimated scf accuracy    <       0.00052195 Ry

     iteration # 11     ecut=    60.00 Ry     beta= 0.70
     Davidson diagonalization with overlap
     ethr =  1.46E-07,  avg # of iterations =  1.0

     negative rho (up, down):  1.234E-03 0.000E+00

     total cpu time spent up to now is      886.9 secs

     total energy              =   -1842.87955141 Ry
     Harris-Foulkes estimate   =   -1842.87955496 Ry
     estimated scf accuracy    <       0.00011781 Ry

     iteration # 12     ecut=    60.00 Ry     beta= 0.70
     Davidson diagonalization with overlap
     ethr =  5.19E-08,  avg # of iterations =  1.0

     negative rho (up, down):  1.265E-03 0.000E+00

     total cpu time spent up to now is      900.8 secs

     total energy              =   -1842.87955200 Ry
     Harris-Foulkes estimate   =   -1842.87955381 Ry
     estimated scf accuracy    <       0.00003915 Ry

     iteration # 13     ecut=    60.00 Ry     beta= 0.70
     Davidson diagonalization with overlap
     ethr =  1.72E-08,  avg # of iterations =  1.2

     negative rho (up, down):  1.295E-03 0.000E+00

     total cpu time spent up to now is      914.9 secs

     total energy              =   -1842.87955277 Ry
     Harris-Foulkes estimate   =   -1842.87955318 Ry
     estimated scf accuracy    <       0.00001165 Ry

     iteration # 14     ecut=    60.00 Ry     beta= 0.70
     Davidson diagonalization with overlap
     ethr =  5.13E-09,  avg # of iterations =  2.0

     negative rho (up, down):  1.317E-03 0.000E+00

     total cpu time spent up to now is      930.0 secs

     total energy              =   -1842.87955298 Ry
     Harris-Foulkes estimate   =   -1842.87955319 Ry
     estimated scf accuracy    <       0.00000677 Ry

     iteration # 15     ecut=    60.00 Ry     beta= 0.70
     Davidson diagonalization with overlap
     ethr =  2.98E-09,  avg # of iterations =  1.2

     negative rho (up, down):  1.336E-03 0.000E+00

     total cpu time spent up to now is      944.1 secs

     total energy              =   -1842.87955303 Ry
     Harris-Foulkes estimate   =   -1842.87955316 Ry
     estimated scf accuracy    <       0.00000290 Ry

     iteration # 16     ecut=    60.00 Ry     beta= 0.70
     Davidson diagonalization with overlap
     ethr =  1.28E-09,  avg # of iterations =  1.5

     negative rho (up, down):  1.348E-03 0.000E+00

     total cpu time spent up to now is      958.5 secs

     total energy              =   -1842.87955308 Ry
     Harris-Foulkes estimate   =   -1842.87955313 Ry
     estimated scf accuracy    <       0.00000273 Ry

     iteration # 17     ecut=    60.00 Ry     beta= 0.70
     Davidson diagonalization with overlap
     ethr =  1.20E-09,  avg # of iterations =  1.0

     negative rho (up, down):  1.370E-03 0.000E+00

     total cpu time spent up to now is      972.4 secs

     total energy              =   -1842.87955303 Ry
     Harris-Foulkes estimate   =   -1842.87955311 Ry
     estimated scf accuracy    <       0.00000227 Ry

     iteration # 18     ecut=    60.00 Ry     beta= 0.70
     Davidson diagonalization with overlap
     ethr =  9.98E-10,  avg # of iterations =  1.0

     negative rho (up, down):  1.387E-03 0.000E+00

     total cpu time spent up to now is      986.5 secs

     total energy              =   -1842.87955297 Ry
     Harris-Foulkes estimate   =   -1842.87955308 Ry
     estimated scf accuracy    <       0.00000118 Ry

     iteration # 19     ecut=    60.00 Ry     beta= 0.70
     Davidson diagonalization with overlap
     ethr =  5.21E-10,  avg # of iterations =  1.0

     negative rho (up, down):  1.416E-03 0.000E+00

     total cpu time spent up to now is     1000.3 secs

     total energy              =   -1842.87955291 Ry
     Harris-Foulkes estimate   =   -1842.87955301 Ry
     estimated scf accuracy    <       0.00000115 Ry

     iteration # 20     ecut=    60.00 Ry     beta= 0.70
     Davidson diagonalization with overlap
     ethr =  5.06E-10,  avg # of iterations =  1.0

     negative rho (up, down):  1.446E-03 0.000E+00

     total cpu time spent up to now is     1014.9 secs

     total energy              =   -1842.87955284 Ry
     Harris-Foulkes estimate   =   -1842.87955293 Ry
     estimated scf accuracy    <       0.00000045 Ry

     iteration # 21     ecut=    60.00 Ry     beta= 0.70
     Davidson diagonalization with overlap
     ethr =  2.00E-10,  avg # of iterations =  1.1

     negative rho (up, down):  1.470E-03 0.000E+00

     total cpu time spent up to now is     1028.7 secs

     total energy              =   -1842.87955279 Ry
     Harris-Foulkes estimate   =   -1842.87955285 Ry
     estimated scf accuracy    <       0.00000027 Ry

     iteration # 22     ecut=    60.00 Ry     beta= 0.70
     Davidson diagonalization with overlap
     ethr =  1.20E-10,  avg # of iterations =  1.2

     negative rho (up, down):  1.478E-03 0.000E+00

     total cpu time spent up to now is     1043.1 secs

     total energy              =   -1842.87955277 Ry
     Harris-Foulkes estimate   =   -1842.87955280 Ry
     estimated scf accuracy    <       0.00000009 Ry

     iteration # 23     ecut=    60.00 Ry     beta= 0.70
     Davidson diagonalization with overlap
     ethr =  3.98E-11,  avg # of iterations =  1.7

     negative rho (up, down):  1.481E-03 0.000E+00

     total cpu time spent up to now is     1057.9 secs

     total energy              =   -1842.87955277 Ry
     Harris-Foulkes estimate   =   -1842.87955278 Ry
     estimated scf accuracy    <       0.00000009 Ry

     iteration # 24     ecut=    60.00 Ry     beta= 0.70
     Davidson diagonalization with overlap
     ethr =  3.98E-11,  avg # of iterations =  1.0

     negative rho (up, down):  1.506E-03 0.000E+00

     total cpu time spent up to now is     1071.9 secs

     total energy              =   -1842.87955273 Ry
     Harris-Foulkes estimate   =   -1842.87955277 Ry
     estimated scf accuracy    <       0.00000005 Ry

     iteration # 25     ecut=    60.00 Ry     beta= 0.70
     Davidson diagonalization with overlap
     ethr =  2.02E-11,  avg # of iterations =  1.1

     negative rho (up, down):  1.504E-03 0.000E+00

     total cpu time spent up to now is     1085.9 secs

     total energy              =   -1842.87955274 Ry
     Harris-Foulkes estimate   =   -1842.87955273 Ry
     estimated scf accuracy    <       0.00000005 Ry

     iteration # 26     ecut=    60.00 Ry     beta= 0.70
     Davidson diagonalization with overlap
     ethr =  2.00E-11,  avg # of iterations =  1.0

     negative rho (up, down):  1.505E-03 0.000E+00

     total cpu time spent up to now is     1100.2 secs

     total energy              =   -1842.87955273 Ry
     Harris-Foulkes estimate   =   -1842.87955274 Ry
     estimated scf accuracy    <       0.00000002 Ry

     iteration # 27     ecut=    60.00 Ry     beta= 0.70
     Davidson diagonalization with overlap
     ethr =  8.18E-12,  avg # of iterations =  1.0

     negative rho (up, down):  1.506E-03 0.000E+00

     total cpu time spent up to now is     1113.9 secs

     total energy              =   -1842.87955273 Ry
     Harris-Foulkes estimate   =   -1842.87955273 Ry
     estimated scf accuracy    <       0.00000001 Ry

     iteration # 28     ecut=    60.00 Ry     beta= 0.70
     Davidson diagonalization with overlap
     ethr =  5.07E-12,  avg # of iterations =  1.0

     negative rho (up, down):  1.507E-03 0.000E+00

     total cpu time spent up to now is     1128.0 secs

     total energy              =   -1842.87955273 Ry
     Harris-Foulkes estimate   =   -1842.87955273 Ry
     estimated scf accuracy    <          6.9E-09 Ry

     iteration # 29     ecut=    60.00 Ry     beta= 0.70
     Davidson diagonalization with overlap
     ethr =  3.06E-12,  avg # of iterations =  1.0

     negative rho (up, down):  1.510E-03 0.000E+00

     total cpu time spent up to now is     1141.7 secs

     total energy              =   -1842.87955273 Ry
     Harris-Foulkes estimate   =   -1842.87955273 Ry
     estimated scf accuracy    <          8.4E-10 Ry

     iteration # 30     ecut=    60.00 Ry     beta= 0.70
     Davidson diagonalization with overlap
     ethr =  3.72E-13,  avg # of iterations =  2.9

     negative rho (up, down):  1.509E-03 0.000E+00

     total cpu time spent up to now is     1157.7 secs

     total energy              =   -1842.87955273 Ry
     Harris-Foulkes estimate   =   -1842.87955273 Ry
     estimated scf accuracy    <          5.2E-10 Ry

     iteration # 31     ecut=    60.00 Ry     beta= 0.70
     Davidson diagonalization with overlap
     ethr =  2.28E-13,  avg # of iterations =  1.3

     negative rho (up, down):  1.510E-03 0.000E+00

     total cpu time spent up to now is     1171.9 secs

     total energy              =   -1842.87955273 Ry
     Harris-Foulkes estimate   =   -1842.87955273 Ry
     estimated scf accuracy    <          3.3E-10 Ry

     iteration # 32     ecut=    60.00 Ry     beta= 0.70
[...]
    -8.0001  -7.9680  -7.8940  -7.8879  -7.8650  -7.7505  -7.6307  -3.2514
    -3.2245  -3.0103  -2.9095  -2.6840  -2.5087  -2.5042  -2.3740  -2.3639
    -2.3636  -2.3149  -2.1687  -2.1673  -2.0721  -1.7923  -1.7700  -1.6161
    -1.5682  -1.4043  -1.2326  -1.2131  -1.0220  -0.9418  -0.8840  -0.8737
    -0.8596  -0.8303  -0.6897  -0.6808  -0.6486  -0.6437  -0.6061  -0.5013
    -0.4426  -0.3427  -0.3343   0.0325   0.1034   0.2741   0.4324   0.4608
     0.6368   0.6685   0.7244   0.8066   0.8133   0.9878   0.9889   1.0421
     1.1574   1.1823   1.2127   1.2276   1.3797   1.3843   1.4071   1.4316
     1.4444   1.5888   1.6300   1.6418   1.6771   1.6988   1.7038   1.7306
     1.7381   1.7616   1.7780   1.8117   1.8267   1.9149   2.0631   2.2143
     2.9382   2.9422   3.6528   3.7096   3.7205   3.8236   3.8743   6.2829
     6.6761   6.6789   7.5398   7.5559   8.3704   8.3745   8.7093   8.7286
     8.9808   9.2332   9.3062   9.3526   9.3775   9.4580   9.5982   9.6531
     9.7883

          k = 0.3750 0.3960 0.0000 ( 34365 PWs)   bands (ev):

   -35.6934 -35.6411 -22.6066 -22.6007 -22.5833 -22.3635 -17.0637 -17.0471
   -17.0131 -16.9954 -16.7899 -16.7287 -14.6712 -14.6673 -14.5330 -14.4370
   -14.4116 -14.2833 -14.2360 -14.2040 -14.1790 -14.0972 -14.0919 -14.0481
   -13.9702 -13.9076 -13.7169  -8.5972  -8.5918  -8.5301  -8.3292  -8.2603
    -8.2550  -8.1894  -8.0301  -8.0090  -8.0025  -7.8946  -7.7579  -3.7321
    -3.7039  -3.4523  -3.3636  -3.2419  -2.9423  -2.9416  -2.6270  -2.6246
    -2.4858  -2.4147  -2.1788  -2.1773  -2.1110  -2.0887  -2.0794  -1.8659
    -1.8320  -1.5557  -1.2599  -1.2220  -1.1771  -1.1740  -1.1525  -0.9668
    -0.9585  -0.8825  -0.8695  -0.8267  -0.7835  -0.7595  -0.7236  -0.6732
    -0.5769  -0.3424  -0.3407   0.1579   0.2488   0.3221   0.5607   0.6391
     0.8741   0.9748   1.0422   1.1464   1.1483   1.2232   1.2695   1.3331
     1.3536   1.4146   1.4650   1.4661   1.5370   1.5477   1.5825   1.6827
     1.6953   1.7372   1.7527   1.7851   1.8136   1.8866   1.9273   1.9435
     2.0119   2.0397   2.0642   2.1178   2.1635   2.1643   2.1939   2.4339
     2.7564   2.7625   4.0243   4.2226   4.2364   4.3006   4.3466   5.8734
     6.3742   6.3767   7.2346   7.2627   8.7635   8.8260   8.9008   8.9336
     9.2882   9.3012   9.3570   9.4191   9.4361   9.5011   9.5348   9.7882
     9.8081

          k = 0.3750-0.5279 0.0000 ( 34392 PWs)   bands (ev):

   -35.6917 -35.6393 -22.5839 -22.5781 -22.5617 -22.3425 -17.0996 -17.0510
   -17.0468 -17.0013 -16.7578 -16.6970 -14.6001 -14.5967 -14.4129 -14.3912
   -14.3637 -14.2883 -14.2292 -14.1902 -14.1091 -14.1089 -14.0772 -14.0762
   -13.9640 -13.9138 -13.7449  -8.6810  -8.6755  -8.6189  -8.4315  -8.4074
    -8.4022  -8.3443  -8.0630  -8.0297  -8.0231  -7.9807  -7.7565  -3.9378
    -3.9108  -3.6541  -3.5752  -3.4522  -3.1666  -3.1658  -2.6412  -2.6387
    -2.4975  -2.4203  -2.2223  -2.2023  -2.1721  -2.1708  -2.0797  -1.9537
    -1.9248  -1.6018  -1.3386  -1.3164  -1.2602  -1.2209  -1.2054  -0.9697
    -0.9667  -0.9620  -0.9574  -0.9157  -0.8567  -0.8287  -0.7487  -0.6956
    -0.5433  -0.3244  -0.3230   0.1917   0.2878   0.3370   0.6094   0.7191
     0.9447   1.1126   1.2201   1.2608   1.2647   1.2862   1.3123   1.3408
     1.3696   1.4758   1.5485   1.5717   1.6011   1.6538   1.6982   1.7443
     1.7631   1.7885   1.8278   1.9257   1.9496   2.0193   2.0226   2.0670
     2.1550   2.1951   2.1955   2.2748   2.3483   2.3550   2.3703   2.5059
     2.5154   2.5276   4.0924   4.3617   4.3844   4.4462   4.4890   5.6927
     6.1975   6.1997   7.1171   7.1723   8.6082   8.8023   9.0231   9.0457
     9.1967   9.2270   9.3994   9.5305   9.6113   9.6509   9.7761   9.7856
     9.9150

          k =-0.5000 0.0000 0.0000 ( 34370 PWs)   bands (ev):

   -35.7025 -35.6502 -22.7153 -22.7095 -22.6882 -22.4644 -17.1533 -17.1030
   -16.9206 -16.8582 -16.7382 -16.6879 -15.0852 -15.0394 -15.0329 -14.6885
   -14.6344 -14.4541 -14.3446 -14.3275 -14.2786 -14.2107 -14.2022 -14.1209
   -13.9759 -13.8870 -13.6182  -8.0419  -7.9703  -7.9634  -7.7922  -7.6874
    -7.6822  -7.6366  -7.4979  -7.4923  -7.4419  -7.4238  -7.2230  -3.0229
    -3.0158  -2.8778  -2.7874  -2.2511  -2.2498  -2.0800  -1.7615  -1.6237
    -1.6173  -1.5993  -1.5919  -1.4029  -1.3655  -1.2741  -1.2616  -1.2155
    -1.2147  -1.1767  -1.1595  -1.1056  -1.0133  -0.9418  -0.9204  -0.8891
    -0.7411  -0.7394  -0.6602  -0.6089  -0.4805  -0.4364  -0.3275  -0.2999
    -0.2407  -0.2363  -0.1853  -0.1505   0.0686   0.0691   0.1292   0.1543
     0.1612   0.4104   0.4108   0.4431   0.4438   0.4461   0.5190   0.5670
     0.6370   0.7460   0.7695   0.8017   0.8385   1.1014   1.1032   1.2125
     1.3162   1.3446   1.3860   1.4052   1.4317   1.5984   1.6098   1.6110
     1.6357   1.6396   1.6620   1.8574   1.9123   1.9474   1.9808   2.0586
     2.1438   2.1670   2.3995   2.5117   2.6218   2.7761   2.8027   6.8231
     7.2519   7.2546   7.2991   7.2999   8.1661   8.2483   8.4775   8.5197
     8.8748   8.9466   9.2525   9.3426   9.3459   9.3826   9.3925   9.4558
     9.7172

          k =-0.5000 0.1320 0.0000 ( 34378 PWs)   bands (ev):

   -35.7008 -35.6484 -22.6949 -22.6890 -22.6685 -22.4453 -17.1449 -17.0947
   -16.8952 -16.8330 -16.7960 -16.7452 -15.0129 -14.9817 -14.9746 -14.6461
   -14.5953 -14.4119 -14.3061 -14.2735 -14.2316 -14.1883 -14.1807 -14.0931
   -14.0109 -13.9135 -13.6210  -8.0522  -8.0026  -7.9956  -7.8166  -7.8115
    -7.7987  -7.7594  -7.7050  -7.6991  -7.6532  -7.5365  -7.4448  -3.0875
    -3.0763  -2.9275  -2.8328  -2.2652  -2.2635  -2.1290  -2.0567  -2.0008
    -1.9928  -1.8264  -1.7885  -1.6186  -1.6179  -1.5112  -1.4812  -1.4152
    -1.4025  -1.3113  -1.2534  -1.2098  -1.0998  -1.0029  -0.7939  -0.7916
    -0.7283  -0.6875  -0.6685  -0.6136  -0.5118  -0.4292  -0.4256  -0.2929
    -0.2912  -0.0835  -0.0699   0.0271   0.0461   0.1228   0.1711   0.1718
     0.3043   0.3171   0.3713   0.5193   0.5197   0.5846   0.6041   0.7479
     0.7717   0.8366   0.9635   1.0034   1.0915   1.1231   1.1465   1.2283
     1.2528   1.2556   1.4062   1.4459   1.5335   1.6095   1.6331   1.6559
     1.6711   1.6718   1.7118   1.8615   1.8788   1.9463   1.9565   2.1477
     2.7241   2.7285   2.9086   2.9459   2.9850   3.1426   3.1947   6.6427
     7.1003   7.1032   7.6028   7.6048   8.0884   8.1213   8.3784   8.4467
     9.1290   9.1341   9.1884   9.2906   9.4746   9.5144   9.5719   9.5945
     9.6516

          k =-0.5000 0.2640 0.0000 ( 34396 PWs)   bands (ev):

   -35.6966 -35.6443 -22.6447 -22.6389 -22.6202 -22.3984 -17.1248 -17.0748
   -16.9276 -16.8760 -16.8295 -16.7677 -14.8343 -14.8271 -14.8007 -14.5444
   -14.5027 -14.3054 -14.2092 -14.1740 -14.1629 -14.1375 -14.1323 -14.0805
   -14.0306 -13.9475 -13.6450  -8.2632  -8.2573  -8.2033  -8.1181  -8.1130
    -8.0526  -8.0106  -7.9571  -7.9503  -7.9499  -7.7925  -7.7519  -3.3906
    -3.3641  -3.1554  -3.0561  -2.6752  -2.5355  -2.5304  -2.3931  -2.3654
    -2.3642  -2.3359  -2.1813  -2.1800  -2.0774  -1.9202  -1.8958  -1.7058
    -1.6558  -1.4272  -1.1722  -1.1476  -1.0049  -0.9219  -0.9172  -0.9037
    -0.8871  -0.8619  -0.7248  -0.6839  -0.6766  -0.6750  -0.6061  -0.5127
    -0.4457  -0.3546  -0.3526   0.0475   0.1134   0.3291   0.4743   0.5070
     0.6766   0.7108   0.7926   0.8379   0.8399   1.0485   1.0826   1.0876
     1.1622   1.1665   1.1787   1.1868   1.3759   1.4272   1.4393   1.4736
     1.5001   1.5671   1.6805   1.6863   1.6914   1.7557   1.7573   1.7990
     1.8177   1.8216   1.8768   1.8845   1.9173   1.9423   2.0388   2.1343
     2.9321   2.9365   3.6568   3.8471   3.8551   3.9545   4.0043   6.1646
     6.6727   6.6753   7.4583   7.4765   8.4032   8.4054   8.8525   8.9576
     9.0182   9.3761   9.4465   9.4809   9.5097   9.5100   9.6087   9.7698
     9.8250

          k =-0.5000 0.3960 0.0000 ( 34384 PWs)   bands (ev):

   -35.6924 -35.6401 -22.5934 -22.5875 -22.5708 -22.3504 -17.1052 -17.0553
   -17.0475 -16.9950 -16.7605 -16.6993 -14.6428 -14.6376 -14.5379 -14.4553
   -14.4249 -14.2260 -14.1934 -14.1919 -14.1064 -14.0922 -14.0908 -14.0196
   -13.9997 -13.9020 -13.7021  -8.6451  -8.6395  -8.5793  -8.4074  -8.4023
    -8.3807  -8.3432  -8.0402  -8.0263  -8.0207  -8.0152  -7.7648  -3.8622
    -3.8318  -3.5721  -3.4802  -3.2404  -2.9340  -2.9333  -2.7035  -2.7017
    -2.5566  -2.4927  -2.2196  -2.1923  -2.1869  -2.1857  -2.0876  -1.9330
    -1.8833  -1.5845  -1.2229  -1.2154  -1.1856  -1.0896  -1.0824  -1.0577
    -1.0476  -0.8983  -0.8945  -0.8178  -0.8162  -0.7635  -0.7594  -0.7267
    -0.5678  -0.3040  -0.3027   0.1781   0.2683   0.3845   0.6465   0.7322
     0.9605   1.0980   1.1380   1.2610   1.2794   1.2920   1.3032   1.3703
     1.3862   1.4175   1.5491   1.5500   1.5540   1.5898   1.6662   1.7092
     1.7280   1.7613   1.8050   1.8641   1.8726   1.9263   1.9473   1.9696
     2.0781   2.1123   2.1341   2.1499   2.1937   2.2471   2.3374   2.3856
     2.7452   2.7523   4.0086   4.4877   4.4961   4.5446   4.5914   5.6672
     6.1812   6.1835   7.0755   7.1020   8.7723   8.7817   8.8345   8.8658
     9.2422   9.2677   9.4660   9.5194   9.5343   9.6268   9.7092   9.7640
     9.8175

          k =-0.5000-0.5279 0.0000 ( 34420 PWs)   bands (ev):

   -35.6906 -35.6383 -22.5718 -22.5659 -22.5500 -22.3303 -17.0971 -17.0947
   -17.0473 -17.0419 -16.7302 -16.6693 -14.5289 -14.5270 -14.4498 -14.4218
   -14.3645 -14.2679 -14.2256 -14.1416 -14.0769 -14.0727 -14.0604 -14.0399
   -13.9801 -13.8691 -13.7334  -8.7939  -8.7884  -8.7309  -8.5406  -8.5244
    -8.5193  -8.4633  -8.1165  -8.0581  -8.0393  -8.0358  -7.7658  -4.0698
    -4.0401  -3.7693  -3.6835  -3.4610  -3.1572  -3.1565  -2.7329  -2.7312
    -2.5833  -2.5156  -2.3180  -2.2885  -2.1755  -2.1743  -2.0864  -2.0091
    -1.9578  -1.6313  -1.3394  -1.3323  -1.2409  -1.1600  -1.1508  -1.0362
    -1.0270  -0.9903  -0.9896  -0.9191  -0.8592  -0.8480  -0.7907  -0.7645
    -0.5277  -0.2751  -0.2739   0.2149   0.3086   0.3982   0.7103   0.8435
     1.0536   1.2536   1.3294   1.3450   1.3486   1.3531   1.3659   1.3953
     1.4229   1.5734   1.6002   1.6388   1.6624   1.6999   1.7611   1.8313
     1.8678   1.8825   1.9328   1.9436   2.0085   2.0439   2.0518   2.0606
     2.2135   2.2631   2.3264   2.3304   2.3389   2.4256   2.4818   2.4932
     2.5119   2.5876   4.0620   4.6833   4.6996   4.7466   4.7883   5.4550
     5.9558   5.9580   6.9424   7.0039   8.6224   8.7927   8.9004   8.9297
     8.9363   8.9688   9.3159   9.4401   9.5718   9.5889   9.8851   9.9030
     9.9280

     the Fermi energy is     2.5399 ev

!    total energy              =   -1842.89709223 Ry
     Harris-Foulkes estimate   =   -1842.89709223 Ry
     estimated scf accuracy    <          5.9E-13 Ry

     The total energy is the sum of the following terms:

     one-electron contribution =  -31091.69294407 Ry
     hartree contribution      =   15698.79294153 Ry
     xc contribution           =    -621.61774552 Ry
     ewald contribution        =   14171.62883739 Ry
     smearing contrib. (-TS)   =      -0.00818156 Ry

     convergence has been achieved in  34 iterations

     negative rho (up, down):  1.534E-03 0.000E+00

     Forces acting on atoms (cartesian axes, Ry/au):

     atom    1 type  4   force =     0.00000000    0.00000000    0.00101277
     atom    2 type  3   force =     0.00000000    0.00000000    0.00962579
     atom    3 type  4   force =     0.00000000    0.00000000   -0.00675910
     atom    4 type  1   force =     0.00000000    0.00000000    0.00251222
     atom    5 type  3   force =     0.00000000    0.00000000   -0.00113948
     atom    6 type  4   force =     0.00000000    0.00000000    0.00123013
     atom    7 type  4   force =     0.00000000    0.00000000    0.00203221
     atom    8 type  2   force =     0.00000000    0.00000000   -0.00118989
     atom    9 type  4   force =     0.00000000    0.00000000    0.00131132
     atom   10 type  4   force =     0.00000000    0.00000000    0.00126847
     atom   11 type  3   force =     0.00000000    0.00000000   -0.00241680
     atom   12 type  1   force =     0.00000000    0.00000000   -0.00698283
     atom   13 type  4   force =     0.00000000    0.00000000    0.01829736
     atom   14 type  4   force =     0.00000000    0.00000000   -0.00936213
     atom   15 type  3   force =     0.00000000    0.00000000   -0.00616677
     atom   16 type  4   force =     0.00000000    0.00000000    0.00667874
     atom   17 type  1   force =     0.00000000    0.00000000    0.00615061
     atom   18 type  3   force =     0.00000000    0.00000000   -0.00029341
     atom   19 type  4   force =     0.00000000    0.00000000   -0.00263511
     atom   20 type  4   force =     0.00000000    0.00000000   -0.00193027
     atom   21 type  2   force =     0.00000000    0.00000000   -0.00242249
     atom   22 type  4   force =     0.00000000    0.00000000   -0.00210589
     atom   23 type  4   force =     0.00000000    0.00000000   -0.00099133
     atom   24 type  3   force =     0.00000000    0.00000000    0.00112483
     atom   25 type  1   force =     0.00000000    0.00000000   -0.00301937
     atom   26 type  4   force =     0.00000000    0.00000000    0.00681836
     atom   27 type  3   force =     0.00000000    0.00000000   -0.00960149
     atom   28 type  4   force =     0.00000000    0.00000000   -0.00104649

     Total force =     0.014991     Total SCF correction =     0.000003


     Computing stress (Cartesian axis) and pressure


     negative rho (up, down):  1.534E-03 0.000E+00
          total   stress  (Ry/bohr**3)                   (kbar)     P=       -8.90
  -0.00003669   0.00000000   0.00000000           -5.40        0.00        0.00
   0.00000000  -0.00004515   0.00000000            0.00       -6.64        0.00
   0.00000000   0.00000000  -0.00009969            0.00        0.00      -14.67


     bfgs converged in   7 scf cycles and   6 bfgs steps
     (criteria: energy <  1.0E-03 Ry, force <  1.0E-02 Ry/Bohr)

     End of BFGS Geometry Optimization

     Final energy   =   -1842.8970922274 Ry
Begin final coordinates

ATOMIC_POSITIONS (angstrom)
O             0.0000000000        1.8611200000       -0.1871477488    0   0   0
Cu            0.0000000000        0.0000000000        0.1054036557    0   0   0
O             0.0000000000        0.0000000000        2.0043319135    0   0   0
Ba            1.9651100000        1.8611200000        2.2670300995    0   0   0
Cu            0.0000000000        0.0000000000        4.1331350223    0   0   0
O             1.9651100000        0.0000000000        4.2900443498    0   0   0
O             0.0000000000        1.8611200000        4.4290417461    0   0   0
Ca            1.9651100000        1.8611200000        5.9665889376    0   0   0
O             0.0000000000        1.8611200000        7.4372020706    0   0   0
O             1.9651100000        0.0000000000        7.5872385689    0   0   0
Cu            0.0000000000        0.0000000000        7.7738591981    0   0   0
Ba            1.9651100000        1.8611200000        9.6795082313    0   0   0
O             0.0000000000        0.0000000000       10.0060385793    0   0   0
O             0.0000000000        1.8611200000       12.1402190759
Cu            0.0000000000        0.0000000000       11.9121897670
O             0.0000000000        0.0000000000       13.8170822806
Ba            1.9651100000        1.8611200000       14.1830799345
Cu            0.0000000000        0.0000000000       16.2146492810
O             1.9651100000        0.0000000000       16.4015413747
O             0.0000000000        1.8611200000       16.5534141909
Ca            1.9651100000        1.8611200000       18.0152629355
O             0.0000000000        1.8611200000       19.5638553651    0   0   0
O             1.9651100000        0.0000000000       19.7028527615    0   0   0
Cu            0.0000000000        0.0000000000       19.8597722259    0   0   0
Ba            1.9651100000        1.8611200000       21.7258670117    0   0   0
O             0.0000000000        0.0000000000       21.9885246501    0   0   0
Cu            0.0000000000        0.0000000000       23.8874731817    0   0   0
O             0.0000000000        1.8611200000       24.1799739017    0   0   0
End final coordinates


 
     init_run     :      8.33s CPU      8.82s WALL (       1 calls)
     electrons    :   3039.01s CPU   3278.34s WALL (       6 calls)
     update_pot   :      7.82s CPU      7.87s WALL (       5 calls)
     forces       :     21.31s CPU     23.47s WALL (       6 calls)
     stress       :    135.86s CPU    141.50s WALL (       6 calls)

     Called by init_run:
     wfcinit      :      5.87s CPU      6.02s WALL (       1 calls)
     potinit      :      0.60s CPU      0.61s WALL (       1 calls)
     hinit0       :      0.95s CPU      0.96s WALL (       1 calls)

     Called by electrons:
     c_bands      :   2363.07s CPU   2460.49s WALL (     209 calls)
     sum_band     :    456.12s CPU    533.67s WALL (     209 calls)
     v_of_rho     :     16.73s CPU     16.91s WALL (     215 calls)
     newd         :    105.18s CPU    169.94s WALL (     215 calls)
     mix_rho      :     99.64s CPU    100.71s WALL (     209 calls)

     Called by c_bands:
     init_us_2    :     22.10s CPU     22.53s WALL (   10775 calls)
     cegterg      :   2218.01s CPU   2311.89s WALL (    5225 calls)

     Called by sum_band:
     sum_band:bec :      1.43s CPU      1.44s WALL (    5225 calls)
     addusdens    :    112.92s CPU    185.55s WALL (     209 calls)

     Called by *egterg:
     h_psi        :   1206.19s CPU   1262.69s WALL (   15999 calls)
     s_psi        :    123.73s CPU    125.38s WALL (   15999 calls)
     g_psi        :      4.01s CPU      4.05s WALL (   10749 calls)
     cdiaghg      :    417.33s CPU    419.04s WALL (   15849 calls)

     Called by h_psi:
     h_psi:calbec :    138.12s CPU    144.87s WALL (   15999 calls)
     vloc_psi     :    934.07s CPU    951.31s WALL (   15999 calls)
     add_vuspsi   :    126.99s CPU    144.47s WALL (   15999 calls)

     General routines
     calbec       :    230.67s CPU    237.83s WALL (   21974 calls)
     fft          :     13.34s CPU     13.44s WALL (    2938 calls)
     ffts         :     53.46s CPU     54.01s WALL (   89433 calls)
     fftw         :   1068.62s CPU   1088.10s WALL ( 3747005 calls)
     interpolate  :      0.95s CPU      0.96s WALL (     215 calls)
 
     Parallel routines
     fft_scatt_xy :    137.12s CPU    139.29s WALL ( 3839376 calls)
     fft_scatt_yz :    657.34s CPU    669.07s WALL ( 3839376 calls)
 
     PWSCF        :  53m35.49s CPU  57m44.92s WALL

 
   This run was terminated on:  20:53:58  28Jun2021            

=------------------------------------------------------------------------------=
   JOB DONE.
=------------------------------------------------------------------------------=
[1624928038.137045] [holy7c04311:87435:0]          mpool.c:43   UCX  WARN  object 0x2e926c0 was not returned to mpool ucp_requests
[1624928038.137062] [holy7c04311:87435:0]          mpool.c:43   UCX  WARN  object 0x2e92dc0 was not returned to mpool ucp_requests
[1624928038.143356] [holy7c04403:167415:0]          mpool.c:43   UCX  WARN  object 0x2c1de80 was not returned to mpool ucp_requests
[1624928038.143157] [holy7c04401:104422:0]          mpool.c:43   UCX  WARN  object 0x2cc1040 was not returned to mpool ucp_requests
[1624928038.150760] [holy7c04305:53392:0]          mpool.c:43   UCX  WARN  object 0x3a37580 was not returned to mpool ucp_requests
[1624928038.150782] [holy7c04305:53392:0]          mpool.c:43   UCX  WARN  object 0x3a37740 was not returned to mpool ucp_requests
[1624928038.150677] [holy7c04305:53393:0]          mpool.c:43   UCX  WARN  object 0x451e680 was not returned to mpool ucp_requests
[1624928038.149842] [holy7c04307:57839:0]          mpool.c:43   UCX  WARN  object 0x405fd80 was not returned to mpool ucp_requests
[1624928038.149871] [holy7c04307:57839:0]          mpool.c:43   UCX  WARN  object 0x40602c0 was not returned to mpool ucp_requests
