
     Program PWSCF v.6.5 starts on  7Jul2021 at 22:29:23 

     This program is part of the open-source Quantum ESPRESSO suite
     for quantum simulation of materials; please cite
         "P. Giannozzi et al., J. Phys.:Condens. Matter 21 395502 (2009);
         "P. Giannozzi et al., J. Phys.:Condens. Matter 29 465901 (2017);
          URL http://www.quantum-espresso.org", 
     in publications or presentations arising from this work. More details at
     http://www.quantum-espresso.org/quote

     Parallel version (MPI), running on    20 processors

     MPI processes distributed on     2 nodes
     R & G space division:  proc/nbgrp/npool/nimage =      20
     Reading input from CBCO_BaO_cleave_1.0_sep.pwi
Warning: card &CELL ignored
Warning: card     CELL_DYNAMICS = 'BFGS' ignored
Warning: card     PRESS_CONV_THR = 5 ignored
Warning: card / ignored

     Current dimensions of program PWSCF are:
     Max number of different atomic species (ntypx) = 10
     Max number of k-points (npk) =  40000
     Max angular momentum in pseudopotentials (lmaxx) =  3

     Subspace diagonalization in iterative solution of the eigenvalue problem:
     one sub-group per band group will be used
     scalapack distributed-memory algorithm (size of sub-group:  4*  4 procs)

     Message from routine setup:
     using ibrav=0 with symmetry is DISCOURAGED, use correct ibrav instead
 
     Parallelization info
     --------------------
     sticks:   dense  smooth     PW     G-vecs:    dense   smooth      PW
     Min         149      50     14                71773    13820    2160
     Max         150      51     15                71810    13841    2205
     Sum        2991    1007    289              1435837   276553   43473
 


     bravais-lattice index     =            0
     lattice parameter (alat)  =       7.4270  a.u.
     unit-cell volume          =    4401.0322 (a.u.)^3
     number of atoms/cell      =           28
     number of atomic types    =            4
     number of electrons       =       227.00
     number of Kohn-Sham states=          137
     kinetic-energy cutoff     =      60.0000  Ry
     charge density cutoff     =     720.0000  Ry
     convergence threshold     =      1.0E-10
     mixing beta               =       0.7000
     number of iterations used =           10  local-TF  mixing
     Exchange-correlation= SLA PW PBE PBE
                           (   1   4   3   4   0   0   0)
     nstep                     =          300


     celldm(1)=   7.427040  celldm(2)=   0.000000  celldm(3)=   0.000000
     celldm(4)=   0.000000  celldm(5)=   0.000000  celldm(6)=   0.000000

     crystal axes: (cart. coord. in units of alat)
               a(1) = (   1.000000   0.000000   0.000000 )  
               a(2) = (   0.000000   0.947081   0.000000 )  
               a(3) = (   0.000000   0.000000  11.342795 )  

     reciprocal axes: (cart. coord. in units 2 pi/alat)
               b(1) = (  1.000000  0.000000  0.000000 )  
               b(2) = (  0.000000  1.055876  0.000000 )  
               b(3) = (  0.000000  0.000000  0.088162 )  


     PseudoPot. # 1 for Ba read from file:
     ./pseudo/Ba.pbe-nsp-van.UPF
     MD5 check sum: 2b9c31dd849566dd297d80989662b7a0
     Pseudo is Ultrasoft + core correction, Zval = 10.0
     Generated by new atomic code, or converted to UPF format
     Using radial grid of  907 points,  6 beta functions with: 
                l(1) =   0
                l(2) =   0
                l(3) =   1
                l(4) =   1
                l(5) =   2
                l(6) =   2
     Q(r) pseudized with  6 coefficients,  rinner =    1.200   1.200   1.200
                                                       1.200   1.200

     PseudoPot. # 2 for Ca read from file:
     ./pseudo/Ca.pbe-nsp-van.UPF
     MD5 check sum: 6471098428ff4fa451746d08035ff179
     Pseudo is Ultrasoft + core correction, Zval = 10.0
     Generated by new atomic code, or converted to UPF format
     Using radial grid of  845 points,  6 beta functions with: 
                l(1) =   0
                l(2) =   0
                l(3) =   1
                l(4) =   1
                l(5) =   2
                l(6) =   2
     Q(r) pseudized with  6 coefficients,  rinner =    1.200   1.200   1.200
                                                       1.200   1.200

     PseudoPot. # 3 for Cu read from file:
     ./pseudo/Cu.pbe-n-van_ak.UPF
     MD5 check sum: 34e3282627ffb533726feb647e090d62
     Pseudo is Ultrasoft + core correction, Zval = 11.0
     Generated by new atomic code, or converted to UPF format
     Using radial grid of  867 points,  6 beta functions with: 
                l(1) =   0
                l(2) =   0
                l(3) =   1
                l(4) =   1
                l(5) =   2
                l(6) =   2
     Q(r) pseudized with  8 coefficients,  rinner =    1.400   1.400   1.400
                                                       1.400   1.400

     PseudoPot. # 4 for O  read from file:
     ./pseudo/O.pbe-van_ak.UPF
     MD5 check sum: 783ce7fe4c79b6a4916957118fed0856
     Pseudo is Ultrasoft, Zval =  6.0
     Generated by new atomic code, or converted to UPF format
     Using radial grid of  737 points,  4 beta functions with: 
                l(1) =   0
                l(2) =   0
                l(3) =   1
                l(4) =   1
     Q(r) pseudized with  8 coefficients,  rinner =    0.800   0.800   0.800


     atomic species   valence    mass     pseudopotential
        Ba            10.00   137.32700     Ba( 1.00)
        Ca            10.00    40.07800     Ca( 1.00)
        Cu            11.00    63.54600     Cu( 1.00)
        O              6.00    15.99900     O ( 1.00)

      2 Sym. Ops. (no inversion) found



   Cartesian axes

     site n.     atom                  positions (alat units)
         1           O   tau(   1) = (   0.0000000   0.4735409  -0.0469745  )
         2           Cu  tau(   2) = (   0.0000000   0.0000000   0.0264565  )
         3           O   tau(   3) = (   0.0000000   0.0000000   0.5030914  )
         4           Ba  tau(   4) = (   0.5000000   0.4735409   0.5690292  )
         5           Cu  tau(   5) = (   0.0000000   0.0000000   1.0374254  )
         6           O   tau(   6) = (   0.5000000   0.0000000   1.0768099  )
         7           O   tau(   7) = (   0.0000000   0.4735409   1.1116985  )
         8           Ca  tau(   8) = (   0.5000000   0.4735409   1.4976260  )
         9           O   tau(   9) = (   0.0000000   0.4735409   1.8667529  )
        10           O   tau(  10) = (   0.5000000   0.0000000   1.9044124  )
        11           Cu  tau(  11) = (   0.0000000   0.0000000   1.9512546  )
        12           Ba  tau(  12) = (   0.5000000   0.4735409   2.4295764  )
        13           O   tau(  13) = (   0.0000000   0.0000000   2.5115362  )
        14           O   tau(  14) = (   0.0000000   0.4480970   2.9664089  )
        15           Cu  tau(  15) = (   0.0000000   0.0000000   2.9664649  )
        16           O   tau(  16) = (   0.0000000   0.0000000   3.4468248  )
        17           Ba  tau(  17) = (   0.5000000   0.4989848   3.5287769  )
        18           Cu  tau(  18) = (   0.0000000   0.0000000   4.2615196  )
        19           O   tau(  19) = (   0.5000000   0.0000000   4.3338056  )
        20           O   tau(  20) = (   0.0000000   0.4989848   4.3460161  )
        21           Ca  tau(  21) = (   0.5000000   0.4480970   4.7151532  )
        22           O   tau(  22) = (   0.0000000   0.4735409   5.1265220  )
        23           O   tau(  23) = (   0.5000000   0.0000000   5.1614106  )
        24           Cu  tau(  24) = (   0.0000000   0.0000000   5.2007978  )
        25           Ba  tau(  25) = (   0.5000000   0.4735409   5.6691914  )
        26           O   tau(  26) = (   0.0000000   0.0000000   5.7351190  )
        27           Cu  tau(  27) = (   0.0000000   0.0000000   6.2117589  )
        28           O   tau(  28) = (   0.0000000   0.4735409   6.2851772  )

     number of k points=    25  Gaussian smearing, width (Ry)=  0.0100
                       cart. coord. in units 2pi/alat
        k(    1) = (   0.0000000   0.0000000   0.0000000), wk =   0.0312500
        k(    2) = (   0.0000000   0.1319845   0.0000000), wk =   0.0625000
        k(    3) = (   0.0000000   0.2639689   0.0000000), wk =   0.0625000
        k(    4) = (   0.0000000   0.3959534   0.0000000), wk =   0.0625000
        k(    5) = (   0.0000000  -0.5279378   0.0000000), wk =   0.0312500
        k(    6) = (   0.1250000   0.0000000   0.0000000), wk =   0.0625000
        k(    7) = (   0.1250000   0.1319845   0.0000000), wk =   0.1250000
        k(    8) = (   0.1250000   0.2639689   0.0000000), wk =   0.1250000
        k(    9) = (   0.1250000   0.3959534   0.0000000), wk =   0.1250000
        k(   10) = (   0.1250000  -0.5279378   0.0000000), wk =   0.0625000
        k(   11) = (   0.2500000   0.0000000   0.0000000), wk =   0.0625000
        k(   12) = (   0.2500000   0.1319845   0.0000000), wk =   0.1250000
        k(   13) = (   0.2500000   0.2639689   0.0000000), wk =   0.1250000
        k(   14) = (   0.2500000   0.3959534   0.0000000), wk =   0.1250000
        k(   15) = (   0.2500000  -0.5279378   0.0000000), wk =   0.0625000
        k(   16) = (   0.3750000   0.0000000   0.0000000), wk =   0.0625000
        k(   17) = (   0.3750000   0.1319845   0.0000000), wk =   0.1250000
        k(   18) = (   0.3750000   0.2639689   0.0000000), wk =   0.1250000
        k(   19) = (   0.3750000   0.3959534   0.0000000), wk =   0.1250000
        k(   20) = (   0.3750000  -0.5279378   0.0000000), wk =   0.0625000
        k(   21) = (  -0.5000000   0.0000000   0.0000000), wk =   0.0312500
        k(   22) = (  -0.5000000   0.1319845   0.0000000), wk =   0.0625000
        k(   23) = (  -0.5000000   0.2639689   0.0000000), wk =   0.0625000
        k(   24) = (  -0.5000000   0.3959534   0.0000000), wk =   0.0625000
        k(   25) = (  -0.5000000  -0.5279378   0.0000000), wk =   0.0312500

     Dense  grid:  1435837 G-vectors     FFT dimensions: (  64,  64, 720)

     Smooth grid:   276553 G-vectors     FFT dimensions: (  40,  36, 432)

     Estimated max dynamical RAM per process >     458.17 MB

     Estimated total dynamical RAM >       8.95 GB

     Initial potential from superposition of free atoms

     starting charge  226.84630, renormalised to  227.00000

     negative rho (up, down):  3.495E-03 0.000E+00
     Starting wfcs are  195 randomized atomic wfcs

     total cpu time spent up to now is        9.8 secs

     Self-consistent Calculation

     iteration #  1     ecut=    60.00 Ry     beta= 0.70
     Davidson diagonalization with overlap
     ethr =  1.00E-02,  avg # of iterations =  2.0

     negative rho (up, down):  3.064E-04 0.000E+00

     total cpu time spent up to now is       24.8 secs

     total energy              =   -1839.42342011 Ry
     Harris-Foulkes estimate   =   -1845.34031561 Ry
     estimated scf accuracy    <      17.63151045 Ry

     iteration #  2     ecut=    60.00 Ry     beta= 0.70
     Davidson diagonalization with overlap
     ethr =  7.77E-03,  avg # of iterations =  2.0

     negative rho (up, down):  2.799E-04 0.000E+00

     total cpu time spent up to now is       41.0 secs

     total energy              =   -1842.04830829 Ry
     Harris-Foulkes estimate   =   -1843.93465368 Ry
     estimated scf accuracy    <      11.92867492 Ry

     iteration #  3     ecut=    60.00 Ry     beta= 0.70
     Davidson diagonalization with overlap
     ethr =  5.25E-03,  avg # of iterations =  1.5

     negative rho (up, down):  2.653E-04 0.000E+00

     total cpu time spent up to now is       55.1 secs

     total energy              =   -1842.66518071 Ry
     Harris-Foulkes estimate   =   -1843.02849464 Ry
     estimated scf accuracy    <       2.68786988 Ry

     iteration #  4     ecut=    60.00 Ry     beta= 0.70
     Davidson diagonalization with overlap
     ethr =  1.18E-03,  avg # of iterations =  1.9

     negative rho (up, down):  2.600E-04 0.000E+00

     total cpu time spent up to now is       70.8 secs

     total energy              =   -1842.81204415 Ry
     Harris-Foulkes estimate   =   -1842.98925855 Ry
     estimated scf accuracy    <       5.82637380 Ry

     iteration #  5     ecut=    60.00 Ry     beta= 0.70
     Davidson diagonalization with overlap
     ethr =  1.18E-03,  avg # of iterations =  1.0

     negative rho (up, down):  2.572E-04 0.000E+00

     total cpu time spent up to now is       84.2 secs

     total energy              =   -1842.83964729 Ry
     Harris-Foulkes estimate   =   -1842.88173893 Ry
     estimated scf accuracy    <       0.85991572 Ry

     iteration #  6     ecut=    60.00 Ry     beta= 0.70
     Davidson diagonalization with overlap
     ethr =  3.79E-04,  avg # of iterations =  1.2

     negative rho (up, down):  2.552E-04 0.000E+00

     total cpu time spent up to now is       98.1 secs

     total energy              =   -1842.84222961 Ry
     Harris-Foulkes estimate   =   -1842.86988452 Ry
     estimated scf accuracy    <       1.10780022 Ry

     iteration #  7     ecut=    60.00 Ry     beta= 0.70
     Davidson diagonalization with overlap
     ethr =  3.79E-04,  avg # of iterations =  1.1

     negative rho (up, down):  2.551E-04 0.000E+00

     total cpu time spent up to now is      111.9 secs

     total energy              =   -1842.85173684 Ry
     Harris-Foulkes estimate   =   -1842.85879833 Ry
     estimated scf accuracy    <       0.95327646 Ry

     iteration #  8     ecut=    60.00 Ry     beta= 0.70
     Davidson diagonalization with overlap
     ethr =  3.79E-04,  avg # of iterations =  1.0

     negative rho (up, down):  2.554E-04 0.000E+00

     total cpu time spent up to now is      125.7 secs

     total energy              =   -1842.84702932 Ry
     Harris-Foulkes estimate   =   -1842.85453801 Ry
     estimated scf accuracy    <       0.49510235 Ry

     iteration #  9     ecut=    60.00 Ry     beta= 0.70
     Davidson diagonalization with overlap
     ethr =  2.18E-04,  avg # of iterations =  3.1

     negative rho (up, down):  2.562E-04 0.000E+00

     total cpu time spent up to now is      141.4 secs

     total energy              =   -1842.84084878 Ry
     Harris-Foulkes estimate   =   -1842.84931488 Ry
     estimated scf accuracy    <       0.32716538 Ry

     iteration # 10     ecut=    60.00 Ry     beta= 0.70
     Davidson diagonalization with overlap
     ethr =  1.44E-04,  avg # of iterations =  4.4

     negative rho (up, down):  2.566E-04 0.000E+00

     total cpu time spent up to now is      158.8 secs

     total energy              =   -1842.84032241 Ry
     Harris-Foulkes estimate   =   -1842.84337643 Ry
     estimated scf accuracy    <       0.09546481 Ry

     iteration # 11     ecut=    60.00 Ry     beta= 0.70
     Davidson diagonalization with overlap
     c_bands:  1 eigenvalues not converged
     ethr =  4.21E-05,  avg # of iterations =  7.7

     negative rho (up, down):  2.570E-04 0.000E+00

     total cpu time spent up to now is      179.6 secs

     total energy              =   -1842.83852248 Ry
     Harris-Foulkes estimate   =   -1842.84161375 Ry
     estimated scf accuracy    <       0.07908933 Ry

     iteration # 12     ecut=    60.00 Ry     beta= 0.70
     Davidson diagonalization with overlap
     ethr =  3.48E-05,  avg # of iterations =  3.7

     negative rho (up, down):  2.936E-04 0.000E+00

     total cpu time spent up to now is      196.0 secs

     total energy              =   -1842.83786338 Ry
     Harris-Foulkes estimate   =   -1842.83926442 Ry
     estimated scf accuracy    <       0.06645148 Ry

     iteration # 13     ecut=    60.00 Ry     beta= 0.70
     Davidson diagonalization with overlap
     ethr =  2.93E-05,  avg # of iterations =  1.3

     negative rho (up, down):  3.522E-04 0.000E+00

     total cpu time spent up to now is      209.9 secs

     total energy              =   -1842.83701641 Ry
     Harris-Foulkes estimate   =   -1842.83814790 Ry
     estimated scf accuracy    <       0.04889408 Ry

     iteration # 14     ecut=    60.00 Ry     beta= 0.70
     Davidson diagonalization with overlap
     ethr =  2.15E-05,  avg # of iterations =  3.2

     negative rho (up, down):  5.095E-03 0.000E+00

     total cpu time spent up to now is      225.7 secs

     total energy              =   -1842.83574334 Ry
     Harris-Foulkes estimate   =   -1842.83744455 Ry
     estimated scf accuracy    <       0.03438174 Ry

     iteration # 15     ecut=    60.00 Ry     beta= 0.70
     Davidson diagonalization with overlap
     ethr =  1.51E-05,  avg # of iterations =  8.0

     negative rho (up, down):  4.101E-03 0.000E+00

     total cpu time spent up to now is      247.1 secs

     total energy              =   -1842.83503317 Ry
     Harris-Foulkes estimate   =   -1842.83627351 Ry
     estimated scf accuracy    <       0.03561571 Ry

     iteration # 16     ecut=    60.00 Ry     beta= 0.70
     Davidson diagonalization with overlap
     ethr =  1.51E-05,  avg # of iterations =  2.6

     negative rho (up, down):  1.941E-02 0.000E+00

     total cpu time spent up to now is      262.4 secs

     total energy              =   -1842.83383628 Ry
     Harris-Foulkes estimate   =   -1842.83546537 Ry
     estimated scf accuracy    <       0.03005731 Ry

     iteration # 17     ecut=    60.00 Ry     beta= 0.70
     Davidson diagonalization with overlap
     ethr =  1.32E-05,  avg # of iterations =  6.6

     negative rho (up, down):  2.221E-02 0.000E+00

     total cpu time spent up to now is      282.8 secs

     total energy              =   -1842.83355368 Ry
     Harris-Foulkes estimate   =   -1842.83414925 Ry
     estimated scf accuracy    <       0.01261627 Ry

     iteration # 18     ecut=    60.00 Ry     beta= 0.70
     Davidson diagonalization with overlap
     ethr =  5.56E-06,  avg # of iterations = 10.1

     negative rho (up, down):  1.622E-02 0.000E+00

     total cpu time spent up to now is      307.1 secs

     total energy              =   -1842.83346313 Ry
     Harris-Foulkes estimate   =   -1842.83371729 Ry
     estimated scf accuracy    <       0.00659780 Ry

     iteration # 19     ecut=    60.00 Ry     beta= 0.70
     Davidson diagonalization with overlap
     ethr =  2.91E-06,  avg # of iterations =  6.3

     negative rho (up, down):  4.125E-03 0.000E+00

     total cpu time spent up to now is      327.4 secs

     total energy              =   -1842.83329518 Ry
     Harris-Foulkes estimate   =   -1842.83356854 Ry
     estimated scf accuracy    <       0.00159859 Ry

     iteration # 20     ecut=    60.00 Ry     beta= 0.70
     Davidson diagonalization with overlap
     c_bands:  1 eigenvalues not converged
     c_bands:  1 eigenvalues not converged
     c_bands:  1 eigenvalues not converged
     c_bands:  1 eigenvalues not converged
     ethr =  7.04E-07,  avg # of iterations = 10.3

     negative rho (up, down):  2.639E-03 0.000E+00

     total cpu time spent up to now is      351.9 secs

     total energy              =   -1842.83326322 Ry
     Harris-Foulkes estimate   =   -1842.83337396 Ry
     estimated scf accuracy    <       0.00089722 Ry

     iteration # 21     ecut=    60.00 Ry     beta= 0.70
     Davidson diagonalization with overlap
     ethr =  3.95E-07,  avg # of iterations =  7.4

     negative rho (up, down):  2.002E-03 0.000E+00

     total cpu time spent up to now is      372.5 secs

     total energy              =   -1842.83331014 Ry
     Harris-Foulkes estimate   =   -1842.83330003 Ry
     estimated scf accuracy    <       0.00027511 Ry

     iteration # 22     ecut=    60.00 Ry     beta= 0.70
     Davidson diagonalization with overlap
     ethr =  1.21E-07,  avg # of iterations =  4.7

     negative rho (up, down):  1.589E-03 0.000E+00

     total cpu time spent up to now is      390.4 secs

     total energy              =   -1842.83331203 Ry
     Harris-Foulkes estimate   =   -1842.83331381 Ry
     estimated scf accuracy    <       0.00011619 Ry

     iteration # 23     ecut=    60.00 Ry     beta= 0.70
     Davidson diagonalization with overlap
     ethr =  5.12E-08,  avg # of iterations =  2.6

     negative rho (up, down):  1.159E-03 0.000E+00

     total cpu time spent up to now is      405.7 secs

     total energy              =   -1842.83331264 Ry
     Harris-Foulkes estimate   =   -1842.83331441 Ry
     estimated scf accuracy    <       0.00008144 Ry

     iteration # 24     ecut=    60.00 Ry     beta= 0.70
     Davidson diagonalization with overlap
     ethr =  3.59E-08,  avg # of iterations =  1.8

     negative rho (up, down):  1.372E-03 0.000E+00

     total cpu time spent up to now is      420.5 secs

     total energy              =   -1842.83331216 Ry
     Harris-Foulkes estimate   =   -1842.83331377 Ry
     estimated scf accuracy    <       0.00002772 Ry

     iteration # 25     ecut=    60.00 Ry     beta= 0.70
     Davidson diagonalization with overlap
     ethr =  1.22E-08,  avg # of iterations =  1.0

     negative rho (up, down):  1.341E-03 0.000E+00

     total cpu time spent up to now is      434.3 secs

     total energy              =   -1842.83331238 Ry
     Harris-Foulkes estimate   =   -1842.83331342 Ry
     estimated scf accuracy    <       0.00001515 Ry

     iteration # 26     ecut=    60.00 Ry     beta= 0.70
     Davidson diagonalization with overlap
     ethr =  6.67E-09,  avg # of iterations =  1.2

     negative rho (up, down):  1.439E-03 0.000E+00

     total cpu time spent up to now is      448.1 secs

     total energy              =   -1842.83331257 Ry
     Harris-Foulkes estimate   =   -1842.83331302 Ry
     estimated scf accuracy    <       0.00000484 Ry

     iteration # 27     ecut=    60.00 Ry     beta= 0.70
     Davidson diagonalization with overlap
     ethr =  2.13E-09,  avg # of iterations =  1.6

     negative rho (up, down):  1.500E-03 0.000E+00

     total cpu time spent up to now is      462.3 secs

     total energy              =   -1842.83331260 Ry
     Harris-Foulkes estimate   =   -1842.83331274 Ry
     estimated scf accuracy    <       0.00000040 Ry

     iteration # 28     ecut=    60.00 Ry     beta= 0.70
     Davidson diagonalization with overlap
     ethr =  1.74E-10,  avg # of iterations =  3.8

     negative rho (up, down):  1.508E-03 0.000E+00

     total cpu time spent up to now is      482.2 secs

     total energy              =   -1842.83331266 Ry
     Harris-Foulkes estimate   =   -1842.83331270 Ry
     estimated scf accuracy    <       0.00000019 Ry

     iteration # 29     ecut=    60.00 Ry     beta= 0.70
     Davidson diagonalization with overlap
     ethr =  8.46E-11,  avg # of iterations =  1.1

     negative rho (up, down):  1.520E-03 0.000E+00

     total cpu time spent up to now is      496.1 secs

     total energy              =   -1842.83331266 Ry
     Harris-Foulkes estimate   =   -1842.83331268 Ry
     estimated scf accuracy    <       0.00000019 Ry

     iteration # 30     ecut=    60.00 Ry     beta= 0.70
     Davidson diagonalization with overlap
     ethr =  8.46E-11,  avg # of iterations =  1.0

     negative rho (up, down):  1.532E-03 0.000E+00

     total cpu time spent up to now is      510.2 secs

     total energy              =   -1842.83331265 Ry
     Harris-Foulkes estimate   =   -1842.83331266 Ry
     estimated scf accuracy    <       0.00000002 Ry

     iteration # 31     ecut=    60.00 Ry     beta= 0.70
     Davidson diagonalization with overlap
     ethr =  8.98E-12,  avg # of iterations =  1.3

     negative rho (up, down):  1.535E-03 0.000E+00

     total cpu time spent up to now is      524.4 secs

     total energy              =   -1842.83331264 Ry
     Harris-Foulkes estimate   =   -1842.83331265 Ry
     estimated scf accuracy    <          9.5E-09 Ry

     iteration # 32     ecut=    60.00 Ry     beta= 0.70
     Davidson diagonalization with overlap
     ethr =  4.17E-12,  avg # of iterations =  2.1

     negative rho (up, down):  1.534E-03 0.000E+00

     total cpu time spent up to now is      539.8 secs

     total energy              =   -1842.83331264 Ry
     Harris-Foulkes estimate   =   -1842.83331264 Ry
     estimated scf accuracy    <          2.7E-09 Ry

     iteration # 33     ecut=    60.00 Ry     beta= 0.70
     Davidson diagonalization with overlap
     ethr =  1.18E-12,  avg # of iterations =  2.3

     negative rho (up, down):  1.537E-03 0.000E+00

     total cpu time spent up to now is      555.1 secs

     total energy              =   -1842.83331264 Ry
     Harris-Foulkes estimate   =   -1842.83331264 Ry
     estimated scf accuracy    <          2.5E-09 Ry

     iteration # 34     ecut=    60.00 Ry     beta= 0.70
     Davidson diagonalization with overlap
     ethr =  1.11E-12,  avg # of iterations =  1.3

     negative rho (up, down):  1.535E-03 0.000E+00

     total cpu time spent up to now is      569.1 secs

     total energy              =   -1842.83331264 Ry
     Harris-Foulkes estimate   =   -1842.83331264 Ry
     estimated scf accuracy    <          1.7E-09 Ry

     iteration # 35     ecut=    60.00 Ry     beta= 0.70
     Davidson diagonalization with overlap
     ethr =  7.66E-13,  avg # of iterations =  1.0

     negative rho (up, down):  1.539E-03 0.000E+00

     total cpu time spent up to now is      583.1 secs

     total energy              =   -1842.83331264 Ry
     Harris-Foulkes estimate   =   -1842.83331264 Ry
     estimated scf accuracy    <          6.0E-10 Ry

     iteration # 36     ecut=    60.00 Ry     beta= 0.70
     Davidson diagonalization with overlap
     ethr =  2.64E-13,  avg # of iterations =  2.0

     negative rho (up, down):  1.539E-03 0.000E+00

     total cpu time spent up to now is      598.3 secs

     total energy              =   -1842.83331264 Ry
     Harris-Foulkes estimate   =   -1842.83331264 Ry
     estimated scf accuracy    <          3.2E-10 Ry

     iteration # 37     ecut=    60.00 Ry     beta= 0.70
     Davidson diagonalization with overlap
     ethr =  1.40E-13,  avg # of iterations =  1.0

     negative rho (up, down):  1.539E-03 0.000E+00

     total cpu time spent up to now is      611.7 secs

     total energy              =   -1842.83331264 Ry
     Harris-Foulkes estimate   =   -1842.83331264 Ry
     estimated scf accuracy    <          1.2E-10 Ry

     iteration # 38     ecut=    60.00 Ry     beta= 0.70
     Davidson diagonalization with overlap
     ethr =  1.00E-13,  avg # of iterations =  1.0

     negative rho (up, down):  1.541E-03 0.000E+00

     total cpu time spent up to now is      624.9 secs

     End of self-consistent calculation

          k = 0.0000 0.0000 0.0000 ( 34661 PWs)   bands (ev):

   -35.5995 -35.5311 -23.5593 -22.8003 -22.7642 -22.6091 -17.1039 -16.9718
   -16.6501 -16.6395 -16.5983 -16.5821 -15.3154 -15.1938 -15.1075 -14.6817
   -14.6680 -14.5867 -14.4660 -14.1911 -14.1858 -13.9924 -13.9748 -13.8926
   -13.8389 -13.6070 -13.5886  -8.8058  -8.4374  -8.3225  -7.9320  -7.8941
    -7.8833  -7.8623  -7.7793  -7.7012  -7.6731  -7.6676  -7.5043  -2.4386
    -2.3390  -2.3341  -1.8386  -1.7806  -1.7802  -1.6911  -1.6809  -1.5831
    -1.5574  -1.4950  -1.4804  -1.4618  -1.3775  -1.2302  -1.2298  -1.2004
    -0.9263  -0.6448  -0.5492  -0.4679  -0.4634  -0.3937  -0.3851  -0.3827
    -0.3554  -0.2900  -0.2739  -0.2666  -0.2500  -0.2442  -0.2200  -0.2066
    -0.2029  -0.1640  -0.0460  -0.0432   0.0885   0.0895   0.0898   0.1161
     0.1430   0.1442   0.1635   0.2725   0.2953   0.2974   0.3138   0.4216
     0.5601   0.6199   0.7854   0.8725   0.8804   0.9423   0.9652   1.1723
     1.2426   1.2947   1.3358   1.3968   1.4375   1.4458   1.4786   1.4861
     1.6293   1.7574   1.8131   1.8267   1.8693   1.9199   1.9899   1.9903
     2.0287   2.0904   2.0911   2.1819   2.3204   2.5197   2.5258   5.1536
     5.2080   5.3052   5.9370   6.1200   6.5939   6.7547   6.7850   7.0707
     7.7091   7.9689   8.1202   8.2642   8.3136   8.5226   8.6052   8.7499
     9.0648

          k = 0.0000 0.1320 0.0000 ( 34589 PWs)   bands (ev):

   -35.5977 -35.5293 -23.5380 -22.7737 -22.7375 -22.5832 -17.0677 -16.9390
   -16.7121 -16.6508 -16.6478 -16.5960 -15.2261 -15.1127 -15.0543 -14.6873
   -14.6673 -14.5605 -14.4348 -14.2008 -14.1940 -14.0315 -13.9948 -13.9115
   -13.8737 -13.6551 -13.6255  -8.7946  -8.3998  -8.3694  -7.9314  -7.8830
    -7.8463  -7.8144  -7.7775  -7.7428  -7.7095  -7.6268  -7.5562  -2.4604
    -2.3949  -2.3842  -2.1779  -2.1324  -2.0727  -1.9962  -1.9076  -1.6603
    -1.6541  -1.6533  -1.5647  -1.5401  -1.5029  -1.4637  -1.3099  -1.2908
    -0.9754  -0.8072  -0.6566  -0.6476  -0.5720  -0.5652  -0.5579  -0.4699
    -0.4598  -0.3459  -0.3266  -0.3084  -0.2527  -0.1934  -0.1573  -0.1573
    -0.1460  -0.1093  -0.0246  -0.0222  -0.0124  -0.0042   0.1130   0.1138
     0.1431   0.1706   0.2284   0.2547   0.2723   0.3579   0.4288   0.4790
     0.5354   0.7393   0.9029   1.0254   1.0562   1.0697   1.0824   1.1328
     1.1693   1.1920   1.2877   1.3704   1.4040   1.4655   1.4896   1.5461
     1.6228   1.6398   1.6943   1.7982   1.8107   1.8621   1.9911   1.9942
     2.0011   2.0235   2.2520   2.3506   2.7832   2.8100   2.8558   5.5331
     5.5840   5.6232   6.2477   6.4605   6.7950   7.0585   7.0851   7.3422
     7.8476   8.1392   8.2911   8.3369   8.5255   8.6430   8.7734   8.9259
     9.1681

          k = 0.0000 0.2640 0.0000 ( 34465 PWs)   bands (ev):

   -35.5933 -35.5248 -23.4856 -22.7078 -22.6715 -22.5193 -16.9755 -16.8721
   -16.8664 -16.7816 -16.6422 -16.5904 -15.0247 -14.9457 -14.9160 -14.7374
   -14.6851 -14.5065 -14.3555 -14.1965 -14.1772 -14.1568 -14.0362 -13.9728
   -13.9277 -13.8216 -13.6662  -8.7639  -8.4719  -8.3062  -7.9309  -7.8825
    -7.8339  -7.8005  -7.7737  -7.7258  -7.6936  -7.6680  -7.5104  -2.9089
    -2.8360  -2.7968  -2.6545  -2.5356  -2.4383  -2.4318  -2.3778  -2.2905
    -2.2881  -1.9348  -1.6062  -1.5173  -1.4874  -1.4860  -1.4561  -1.4081
    -1.1698  -1.1075  -1.0014  -0.9858  -0.8165  -0.8019  -0.6613  -0.6354
    -0.5673  -0.5471  -0.5415  -0.5357  -0.5170  -0.5067  -0.5056  -0.3556
    -0.2553  -0.2464   0.0035   0.0069   0.0488   0.0658   0.0839   0.1414
     0.2062   0.3641   0.4267   0.5670   0.6045   0.6584   0.6660   0.6889
     0.7052   0.8696   0.9561   0.9884   1.0617   1.1289   1.1552   1.1553
     1.1655   1.1929   1.2623   1.2766   1.3297   1.4811   1.5360   1.5858
     1.6026   1.7346   1.7851   1.9115   1.9260   1.9641   1.9658   2.0089
     2.0829   2.0876   2.3802   2.4771   3.0296   3.0366   3.7330   6.2885
     6.4773   6.4832   6.9396   7.2952   7.3718   7.6755   7.8792   7.9034
     8.2431   8.5176   8.6382   8.7530   8.9035   8.9793   9.0858   9.1363
     9.3510

          k = 0.0000 0.3960 0.0000 ( 34424 PWs)   bands (ev):

   -35.5888 -35.5204 -23.4319 -22.6396 -22.6032 -22.4533 -17.0029 -16.9499
   -16.8737 -16.7427 -16.6365 -16.5848 -14.9439 -14.9282 -14.7697 -14.6905
   -14.5842 -14.4910 -14.2816 -14.2714 -14.1237 -14.1163 -14.1094 -14.0467
   -14.0151 -13.9695 -13.7213  -8.7185  -8.5725  -8.2084  -7.9308  -7.9121
    -7.8830  -7.8778  -7.7867  -7.7496  -7.5974  -7.5647  -7.3866  -3.6177
    -3.2985  -3.2598  -3.0772  -3.0058  -3.0050  -2.9653  -2.4172  -2.3812
    -2.3772  -2.2766  -1.8195  -1.7959  -1.5482  -1.4658  -1.4604  -1.3306
    -1.3092  -1.2716  -1.2081  -1.1542  -1.0851  -1.0642  -0.8775  -0.8431
    -0.8409  -0.8136  -0.7608  -0.7605  -0.7211  -0.7134  -0.5180  -0.3794
    -0.3179  -0.2642  -0.1265   0.0205   0.0247   0.0636   0.1164   0.1241
     0.1553   0.4755   0.5204   0.5953   0.6484   0.6742   0.7660   0.8627
     0.9066   0.9147   0.9273   0.9539   1.0003   1.0781   1.1262   1.1331
     1.1886   1.2920   1.4113   1.5165   1.6077   1.6229   1.7136   1.7383
     1.8100   1.8302   1.8746   1.9279   1.9713   1.9834   2.1607   2.2195
     2.3311   2.3583   2.3596   2.4209   2.9235   2.9292   4.3580   6.9078
     7.0489   7.4244   7.4349   8.1253   8.2423   8.3382   8.3958   8.6700
     8.7007   9.0727   9.0784   9.1215   9.2000   9.2033   9.4209   9.4781
     9.5064

          k = 0.0000-0.5279 0.0000 ( 34482 PWs)   bands (ev):

   -35.5870 -35.5185 -23.4092 -22.6107 -22.5742 -22.4253 -17.0550 -16.9988
   -16.8287 -16.7037 -16.6342 -16.5825 -14.9870 -14.9710 -14.7126 -14.5809
   -14.4859 -14.4720 -14.3117 -14.2816 -14.1392 -14.1045 -14.0894 -14.0819
   -14.0550 -14.0132 -13.7596  -8.6727  -8.6370  -8.1665  -7.9417  -7.9305
    -7.9090  -7.8808  -7.8145  -7.7576  -7.5414  -7.5086  -7.3328  -3.8800
    -3.4767  -3.4401  -3.2504  -3.2349  -3.2274  -3.1321  -2.4298  -2.3987
    -2.3973  -2.3934  -1.9497  -1.9278  -1.5585  -1.4823  -1.4328  -1.3479
    -1.2990  -1.2657  -1.2320  -1.2315  -1.2093  -1.1772  -1.0020  -0.9646
    -0.9588  -0.9109  -0.8467  -0.8461  -0.7981  -0.7854  -0.5092  -0.3674
    -0.3038  -0.2505  -0.2187   0.0261   0.0306   0.0475   0.1115   0.1410
     0.1616   0.4042   0.4829   0.5118   0.5542   0.6945   0.7981   0.8264
     0.8431   0.8965   0.9675   1.0016   1.0377   1.1092   1.1160   1.2581
     1.3314   1.4044   1.4244   1.4728   1.7264   1.7286   1.7462   1.8488
     1.9950   2.0037   2.0132   2.0564   2.0608   2.0777   2.1176   2.1746
     2.1920   2.4021   2.5199   2.5210   2.7461   2.7507   4.5627   6.7971
     7.6158   7.8347   7.8431   7.8757   8.6092   8.8491   8.9218   8.9462
     8.9945   9.0757   9.1231   9.2799   9.3039   9.3488   9.4155   9.6237
     9.7863

          k = 0.1250 0.0000 0.0000 ( 34573 PWs)   bands (ev):

   -35.5984 -35.5301 -23.5451 -22.7823 -22.7461 -22.5912 -17.0705 -16.9420
   -16.7302 -16.6642 -16.6381 -16.5802 -15.2139 -15.1310 -15.1110 -14.7274
   -14.7078 -14.5917 -14.4641 -14.2001 -14.1953 -14.0161 -13.9994 -13.9130
   -13.8610 -13.6377 -13.6180  -8.8316  -8.3908  -8.2903  -7.9577  -7.9130
    -7.8337  -7.8264  -7.7965  -7.6688  -7.6350  -7.6026  -7.4726  -2.4598
    -2.3814  -2.3735  -1.8816  -1.8245  -1.8162  -1.8161  -1.7673  -1.7516
    -1.7505  -1.6229  -1.4691  -1.4143  -1.3987  -1.2281  -1.2278  -1.2198
    -0.9926  -0.6928  -0.6426  -0.6328  -0.5673  -0.5228  -0.5096  -0.3917
    -0.3868  -0.3623  -0.3483  -0.3415  -0.3338  -0.2798  -0.2447  -0.2223
    -0.1967  -0.1894  -0.0642   0.0262   0.0816   0.0823   0.1084   0.1721
     0.1857   0.1973   0.2056   0.2184   0.2533   0.3690   0.4110   0.4150
     0.6566   0.7521   0.7824   0.7940   0.8804   0.9826   1.0286   1.1548
     1.1904   1.2178   1.2429   1.3518   1.4527   1.4546   1.4727   1.4899
     1.6316   1.7257   1.8220   1.8311   1.8922   1.9472   1.9762   1.9823
     2.0464   2.1030   2.1451   2.3052   2.3381   2.5609   2.5620   5.3658
     5.3880   5.4828   6.1643   6.3601   6.7214   6.9676   6.9937   7.2722
     7.7970   8.1124   8.2503   8.4523   8.5348   8.6876   8.8163   8.9675
     9.1748

          k = 0.1250 0.1320 0.0000 ( 34564 PWs)   bands (ev):

   -35.5966 -35.5283 -23.5243 -22.7564 -22.7202 -22.5660 -17.0353 -16.9106
   -16.7335 -16.7011 -16.6668 -16.6403 -15.1317 -15.0755 -15.0387 -14.7221
   -14.6964 -14.5631 -14.4293 -14.2011 -14.1956 -14.0510 -14.0091 -13.9316
   -13.8958 -13.6890 -13.6342  -8.8080  -8.5203  -8.2278  -7.9767  -7.9380
    -7.8948  -7.8527  -7.8243  -7.6944  -7.6308  -7.5978  -7.4353  -2.4808
    -2.4287  -2.4175  -2.1649  -2.1172  -2.0519  -1.9879  -1.9162  -1.8607
    -1.7950  -1.7944  -1.6888  -1.6483  -1.6462  -1.5310  -1.3148  -1.2731
    -1.0193  -0.8557  -0.8100  -0.7820  -0.6841  -0.6646  -0.5957  -0.5459
    -0.5183  -0.5120  -0.5049  -0.2815  -0.2495  -0.2283  -0.2063  -0.2022
    -0.1348  -0.1305  -0.0379  -0.0117  -0.0030   0.1092   0.1400   0.1443
     0.1758   0.2100   0.2253   0.2474   0.2823   0.3894   0.4781   0.5341
     0.5893   0.8809   0.9578   1.0243   1.0330   1.0816   1.1304   1.1818
     1.2093   1.2642   1.2754   1.2939   1.3154   1.3594   1.5527   1.5727
     1.5851   1.6459   1.6520   1.6674   1.6769   1.7237   1.9820   2.0672
     2.3331   2.3801   2.5120   2.6310   2.7968   2.8172   2.8678   5.6993
     5.7262   5.7582   6.4370   6.6535   6.8980   7.2634   7.2860   7.4963
     7.8761   8.2816   8.4146   8.4726   8.6407   8.7575   8.9383   9.0029
     9.1333

          k = 0.1250 0.2640 0.0000 ( 34463 PWs)   bands (ev):

   -35.5922 -35.5238 -23.4733 -22.6926 -22.6563 -22.5041 -16.9461 -16.8633
   -16.8549 -16.7695 -16.7129 -16.6487 -14.9554 -14.9290 -14.9028 -14.7242
   -14.6645 -14.5002 -14.3418 -14.1872 -14.1741 -14.1558 -14.0563 -13.9924
   -13.9376 -13.8232 -13.6666  -8.7619  -8.6604  -8.2232  -8.0457  -8.0124
    -7.9316  -7.8838  -7.8546  -7.7779  -7.6216  -7.5890  -7.4310  -2.9029
    -2.8567  -2.8144  -2.6717  -2.5412  -2.4389  -2.4313  -2.3765  -2.2899
    -2.2873  -1.9449  -1.8094  -1.7487  -1.7217  -1.6436  -1.4981  -1.4660
    -1.2161  -1.1184  -1.0000  -0.9947  -0.9656  -0.9590  -0.8618  -0.8125
    -0.7034  -0.6959  -0.5827  -0.5726  -0.5360  -0.5104  -0.4968  -0.3392
    -0.2644  -0.2174  -0.1397  -0.0661  -0.0348   0.1548   0.1782   0.2450
     0.2798   0.3727   0.4864   0.5212   0.5785   0.7323   0.7376   0.7831
     0.8872   1.0002   1.0114   1.0474   1.0855   1.1596   1.1937   1.2949
     1.3021   1.3383   1.3443   1.3700   1.3875   1.4567   1.4976   1.5439
     1.5786   1.6301   1.6496   1.8833   1.9203   1.9326   1.9427   2.1918
     2.5308   2.5704   2.7478   2.8568   3.0400   3.0513   3.7376   6.3441
     6.5383   6.5450   6.9528   7.3746   7.4555   7.6745   8.0430   8.0632
     8.3389   8.4334   8.7624   8.8103   8.9179   9.0178   9.0880   9.1267
     9.1851

          k = 0.1250 0.3960 0.0000 ( 34482 PWs)   bands (ev):

   -35.5878 -35.5194 -23.4210 -22.6267 -22.5903 -22.4402 -16.9977 -16.9449
   -16.8472 -16.7208 -16.7043 -16.6398 -14.9090 -14.8955 -14.7587 -14.6208
   -14.5303 -14.4694 -14.2620 -14.2562 -14.1527 -14.1173 -14.1093 -14.0616
   -13.9945 -13.9563 -13.7107  -8.7689  -8.6749  -8.2719  -8.0762  -8.0434
    -7.9433  -7.9174  -7.8943  -7.7752  -7.6666  -7.6341  -7.4652  -3.6068
    -3.3404  -3.2941  -3.1095  -3.0014  -2.9966  -2.9827  -2.4280  -2.3894
    -2.3845  -2.2139  -1.8018  -1.7636  -1.6667  -1.6136  -1.6031  -1.5444
    -1.4657  -1.3335  -1.2752  -1.2536  -1.1450  -1.1325  -1.1198  -1.0986
    -0.8832  -0.8740  -0.8539  -0.8306  -0.7647  -0.7569  -0.5114  -0.3951
    -0.3164  -0.2423  -0.1804  -0.0721  -0.0045   0.1908   0.1914   0.2573
     0.3194   0.3646   0.4974   0.6551   0.7731   0.8832   0.8905   0.9026
     0.9735   1.0255   1.0479   1.0767   1.1152   1.1752   1.2189   1.2332
     1.2917   1.3732   1.4648   1.6354   1.6685   1.7001   1.7091   1.7765
     1.8141   1.8887   1.9009   1.9192   2.0939   2.3143   2.3256   2.3271
     2.4784   2.5111   2.6931   2.7956   2.9819   3.0021   4.3496   6.6700
     7.0842   7.2892   7.2997   8.0555   8.1113   8.1578   8.2980   8.6518
     8.6793   8.8800   9.0691   9.2471   9.3657   9.4277   9.4784   9.5679
     9.6264

          k = 0.1250-0.5279 0.0000 ( 34444 PWs)   bands (ev):

   -35.5860 -35.5175 -23.3989 -22.5987 -22.5623 -22.4131 -17.0494 -16.9936
   -16.8037 -16.7006 -16.6844 -16.6349 -14.9422 -14.9267 -14.6771 -14.5117
   -14.4724 -14.4227 -14.2973 -14.2662 -14.1713 -14.0858 -14.0829 -14.0733
   -14.0659 -13.9911 -13.7433  -8.7714  -8.6681  -8.2998  -8.0709  -8.0383
    -7.9480  -7.9353  -7.8990  -7.7728  -7.7009  -7.6682  -7.4859  -3.8707
    -3.5260  -3.4814  -3.2845  -3.2267  -3.2252  -3.1598  -2.4432  -2.4105
    -2.4058  -2.3053  -1.8322  -1.8046  -1.6255  -1.5661  -1.5533  -1.5290
    -1.5021  -1.4618  -1.3962  -1.3890  -1.2616  -1.2270  -1.2086  -1.1965
    -0.9596  -0.9573  -0.9479  -0.9288  -0.8601  -0.8555  -0.5033  -0.3903
    -0.3078  -0.2548  -0.1908  -0.0611   0.0217   0.2019   0.2024   0.2609
     0.3338   0.3637   0.5225   0.6219   0.7055   0.7629   0.9195   0.9393
     0.9459   0.9527   1.0105   1.0442   1.1422   1.2516   1.2784   1.3288
     1.3960   1.4471   1.4580   1.6501   1.7696   1.8882   1.9820   2.0138
     2.0156   2.0262   2.0640   2.0925   2.2059   2.3366   2.3557   2.3845
     2.4908   2.4922   2.5442   2.6556   2.8612   2.8909   4.5500   6.5587
     7.4815   7.5116   7.5376   7.8327   8.2733   8.3278   8.4753   9.0187
     9.1571   9.1838   9.2950   9.3129   9.4501   9.6369   9.7357   9.8502
     9.8797

          k = 0.2500 0.0000 0.0000 ( 34590 PWs)   bands (ev):

   -35.5958 -35.5276 -23.5105 -22.7380 -22.7017 -22.5472 -16.9852 -16.8941
   -16.8694 -16.7996 -16.6348 -16.5760 -15.1999 -15.0124 -14.9801 -14.8106
   -14.7563 -14.6157 -14.4605 -14.2145 -14.2096 -14.1148 -14.0346 -13.9687
   -13.9037 -13.7419 -13.6464  -8.8560  -8.3103  -8.2205  -7.9592  -7.9130
    -7.8593  -7.7457  -7.7116  -7.5880  -7.5540  -7.5224  -7.3941  -2.5816
    -2.5450  -2.5311  -2.2219  -2.2169  -2.1930  -2.1367  -1.7555  -1.6894
    -1.6641  -1.5674  -1.5063  -1.4767  -1.4023  -1.2700  -1.2247  -1.2244
    -1.1553  -0.9345  -0.8938  -0.7844  -0.7781  -0.7516  -0.6693  -0.6351
    -0.5966  -0.5403  -0.5370  -0.5312  -0.4378  -0.3238  -0.3110  -0.2602
    -0.2546  -0.2135  -0.1869  -0.1247   0.0686   0.0696   0.1394   0.1769
     0.1868   0.3149   0.3259   0.3922   0.4433   0.4511   0.5402   0.5796
     0.6514   0.6861   0.8079   0.8828   0.8971   0.9301   1.0184   1.0607
     1.2681   1.2866   1.2975   1.3203   1.3981   1.4295   1.4909   1.5049
     1.6043   1.6259   1.6877   1.8634   1.8701   1.9055   1.9936   2.0111
     2.0641   2.1213   2.3284   2.4717   2.4981   2.6683   2.6761   5.8441
     5.8475   5.9441   6.7356   6.9748   7.0910   7.5442   7.5588   7.7015
     7.9821   8.4771   8.5348   8.7136   8.8932   8.9957   9.2719   9.3469
     9.3885

          k = 0.2500 0.1320 0.0000 ( 34551 PWs)   bands (ev):

   -35.5940 -35.5258 -23.4910 -22.7141 -22.6778 -22.5240 -16.9531 -16.8877
   -16.8450 -16.7910 -16.7010 -16.6377 -15.1368 -14.9615 -14.9384 -14.7622
   -14.7063 -14.5812 -14.4182 -14.2001 -14.1961 -14.1151 -14.0421 -13.9812
   -13.9376 -13.7635 -13.6579  -8.8335  -8.5473  -8.1603  -8.0275  -7.9902
    -7.8892  -7.8814  -7.8390  -7.6910  -7.5544  -7.5214  -7.3673  -2.6349
    -2.5853  -2.5519  -2.2323  -2.2084  -2.1900  -2.1641  -2.1025  -2.0444
    -1.9793  -1.9258  -1.8822  -1.6388  -1.6381  -1.5881  -1.4003  -1.3396
    -1.1524  -1.0261  -0.9992  -0.9809  -0.9043  -0.8889  -0.8005  -0.7950
    -0.6412  -0.6250  -0.6159  -0.4989  -0.3658  -0.3512  -0.2961  -0.2257
    -0.1909  -0.1203  -0.0513  -0.0411  -0.0116   0.0113   0.1361   0.1675
     0.1983   0.3080   0.3200   0.3269   0.4062   0.5923   0.6824   0.7667
     0.8497   0.8744   0.9036   0.9127   1.0313   1.0546   1.1606   1.1747
     1.2155   1.2271   1.3674   1.4169   1.4498   1.4615   1.4795   1.4919
     1.5309   1.5958   1.6058   1.7222   1.7434   1.8185   1.9562   2.1035
     2.6547   2.6974   2.8424   2.8573   2.8674   2.9363   2.9708   6.0965
     6.1061   6.1143   6.9101   7.1626   7.1850   7.6685   7.8023   7.8250
     8.1715   8.5231   8.5942   8.6430   8.8471   9.0466   9.1617   9.2149
     9.3713

          k = 0.2500 0.2640 0.0000 ( 34523 PWs)   bands (ev):

   -35.5896 -35.5214 -23.4432 -22.6554 -22.6190 -22.4669 -16.8884 -16.8644
   -16.8372 -16.8315 -16.7728 -16.7219 -14.9665 -14.8713 -14.8608 -14.6242
   -14.5765 -14.4976 -14.3093 -14.1760 -14.1639 -14.1513 -14.0905 -14.0317
   -13.9626 -13.8271 -13.6714  -8.8657  -8.7540  -8.2742  -8.2477  -8.2148
    -8.0494  -7.9442  -7.8963  -7.7945  -7.6743  -7.6417  -7.4924  -3.0112
    -2.9306  -2.8761  -2.7750  -2.5878  -2.4528  -2.4375  -2.3703  -2.3221
    -2.3144  -2.1827  -2.1550  -2.1520  -2.0390  -1.8754  -1.4637  -1.4323
    -1.4049  -1.3900  -1.3494  -1.2302  -1.1986  -1.0994  -0.9363  -0.9295
    -0.7443  -0.7177  -0.6503  -0.6259  -0.6049  -0.5899  -0.5409  -0.4144
    -0.3591  -0.3453  -0.2262  -0.0717   0.0096   0.0561   0.2847   0.3197
     0.4387   0.4689   0.5800   0.7722   0.7819   0.8294   0.9128   0.9493
     0.9585   1.0909   1.1920   1.2344   1.2670   1.2940   1.3310   1.3744
     1.4367   1.4558   1.4685   1.5003   1.5399   1.5475   1.5893   1.6058
     1.6066   1.6781   1.6845   1.8472   1.8516   1.9275   2.0274   2.2407
     2.9766   2.9827   3.2618   3.3033   3.4116   3.4959   3.7519   6.2959
     6.6481   6.6574   6.9914   7.5735   7.6471   7.6861   8.3339   8.3497
     8.4100   8.7163   8.7750   9.0142   9.0422   9.1846   9.2555   9.3176
     9.3770

          k = 0.2500 0.3960 0.0000 ( 34490 PWs)   bands (ev):

   -35.5852 -35.5170 -23.3943 -22.5950 -22.5586 -22.4081 -16.9856 -16.9330
   -16.8522 -16.7786 -16.7685 -16.6576 -14.8278 -14.8175 -14.7452 -14.4564
   -14.4291 -14.4243 -14.2369 -14.2074 -14.2041 -14.1303 -14.0989 -14.0759
   -13.9676 -13.9029 -13.6838  -9.0304  -8.7016  -8.4860  -8.3677  -8.3352
    -8.1859  -7.9946  -7.9510  -7.8881  -7.8513  -7.8120  -7.7030  -3.5865
    -3.4986  -3.4284  -3.2351  -3.0740  -2.9759  -2.9738  -2.4650  -2.4558
    -2.4473  -2.1587  -2.1269  -2.1153  -2.0236  -1.9907  -1.7957  -1.7432
    -1.6299  -1.5505  -1.5184  -1.4218  -1.3969  -1.1770  -1.1557  -1.0776
    -0.8657  -0.8612  -0.8120  -0.7968  -0.7950  -0.7847  -0.5605  -0.5085
    -0.4784  -0.4203  -0.2639  -0.0635   0.1054   0.1725   0.3207   0.3842
     0.5406   0.6003   0.8097   0.9674   0.9743   0.9882   1.0999   1.2161
     1.2568   1.2820   1.3094   1.3123   1.3394   1.3869   1.4223   1.4886
     1.5322   1.5653   1.6073   1.7073   1.7422   1.7604   1.8204   1.8672
     1.8781   1.9076   1.9119   1.9872   2.1840   2.2470   2.2494   2.3397
     2.8087   2.8144   3.4914   3.5407   3.6488   3.7279   4.3254   6.0461
     6.8557   6.8653   7.1319   7.7052   7.7814   7.9989   8.3673   8.7847
     8.8125   8.9531   9.0973   9.3721   9.6685   9.7397   9.7748   9.8301
     9.8533

          k = 0.2500-0.5279 0.0000 ( 34528 PWs)   bands (ev):

   -35.5834 -35.5152 -23.3738 -22.5695 -22.5330 -22.3833 -17.0358 -16.9811
   -16.8467 -16.7633 -16.7390 -16.6230 -14.8249 -14.8113 -14.5996 -14.4419
   -14.3726 -14.3511 -14.2680 -14.2345 -14.2219 -14.0784 -14.0774 -14.0755
   -14.0054 -13.9229 -13.6968  -9.0678  -8.6753  -8.5989  -8.3679  -8.3354
    -8.2170  -8.0826  -8.0489  -7.9544  -7.9078  -7.8225  -7.8071  -3.8520
    -3.6978  -3.6285  -3.4235  -3.2651  -3.2035  -3.2011  -2.4783  -2.4666
    -2.4565  -2.1639  -2.1146  -2.0771  -2.0264  -1.9509  -1.9450  -1.8972
    -1.7404  -1.6737  -1.5857  -1.4451  -1.4357  -1.2577  -1.2437  -1.0846
    -0.9588  -0.9490  -0.8801  -0.8767  -0.8256  -0.8025  -0.5770  -0.5059
    -0.5001  -0.4368  -0.2641  -0.0614   0.1355   0.2123   0.3313   0.4234
     0.6378   0.6489   0.8916   1.0144   1.0705   1.0804   1.1183   1.1274
     1.1913   1.2168   1.3432   1.3446   1.4356   1.4405   1.4912   1.5228
     1.5318   1.6081   1.6943   1.8510   1.9019   1.9635   2.0025   2.0043
     2.0160   2.0504   2.0739   2.1013   2.3109   2.3714   2.4227   2.4249
     2.5873   2.5934   3.5114   3.5646   3.6837   3.7636   4.5083   5.8813
     6.8210   6.8265   7.1978   7.6933   7.8481   8.1132   8.1918   8.8486
     9.1458   9.2798   9.5082   9.5156   9.6942   9.8525   9.9712  10.0476
    10.0613

          k = 0.3750 0.0000 0.0000 ( 34518 PWs)   bands (ev):

   -35.5931 -35.5252 -23.4753 -22.6926 -22.6561 -22.5021 -17.0339 -16.9273
   -16.8901 -16.7798 -16.6315 -16.5712 -15.2806 -15.0534 -15.0461 -14.6645
   -14.6398 -14.6225 -14.4118 -14.2408 -14.2149 -14.2102 -14.1101 -14.0640
   -13.9376 -13.8231 -13.6790  -8.8496  -8.2405  -8.1735  -7.9417  -7.8930
    -7.8514  -7.6808  -7.6492  -7.5037  -7.4864  -7.4692  -7.3121  -2.9044
    -2.8608  -2.7681  -2.4740  -2.3629  -2.3411  -2.3325  -1.6730  -1.6174
    -1.6003  -1.5871  -1.5210  -1.5021  -1.4563  -1.3674  -1.3150  -1.2261
    -1.2260  -1.0278  -1.0160  -0.9880  -0.9409  -0.9031  -0.8942  -0.8246
    -0.8036  -0.7402  -0.7316  -0.6484  -0.6013  -0.4420  -0.4138  -0.2820
    -0.2706  -0.2445  -0.2397  -0.1608   0.0117   0.0558   0.0567   0.1684
     0.1903   0.3939   0.4022   0.4152   0.4288   0.4630   0.5052   0.5497
     0.6675   0.7386   0.7629   0.8443   0.9478   1.0732   1.1741   1.1799
     1.2157   1.2824   1.3302   1.3474   1.3829   1.4527   1.5040   1.5814
     1.6441   1.7558   1.7560   1.7905   1.8598   1.8900   1.9728   2.0175
     2.1342   2.1772   2.3753   2.4945   2.5776   2.7773   2.7913   6.4085
     6.4947   6.5005   7.1606   7.5520   7.7527   7.9893   7.9967   8.0167
     8.4497   8.5555   8.6069   8.8989   9.3141   9.4110   9.4815   9.4963
     9.5119

          k = 0.3750 0.1320 0.0000 ( 34583 PWs)   bands (ev):

   -35.5913 -35.5234 -23.4571 -22.6709 -22.6344 -22.4809 -17.0253 -16.9197
   -16.8610 -16.7587 -16.6960 -16.6280 -15.2086 -15.0058 -14.9985 -14.6245
   -14.5946 -14.5621 -14.3615 -14.2043 -14.1917 -14.1914 -14.0983 -14.0560
   -13.9742 -13.8241 -13.6897  -8.8302  -8.4844  -8.2162  -7.9990  -7.9570
    -7.8810  -7.8440  -7.8056  -7.6523  -7.5934  -7.5600  -7.4153  -2.9682
    -2.9125  -2.8175  -2.5013  -2.3749  -2.3399  -2.3303  -2.0545  -1.9944
    -1.9441  -1.8695  -1.8275  -1.6274  -1.6269  -1.6189  -1.4876  -1.4172
    -1.3304  -1.2995  -1.2740  -1.1643  -1.0889  -0.9924  -0.8444  -0.8237
    -0.7574  -0.7437  -0.6950  -0.6610  -0.5351  -0.4297  -0.4128  -0.2791
    -0.2733  -0.0956  -0.0723  -0.0253  -0.0038   0.0361   0.1331   0.1677
     0.1796   0.2947   0.4171   0.4303   0.4350   0.6525   0.7110   0.7712
     0.8101   0.8452   0.9408   1.0055   1.0680   1.1130   1.1716   1.2027
     1.2389   1.3157   1.3490   1.3642   1.4361   1.5077   1.5292   1.6278
     1.6885   1.7345   1.7381   1.7802   1.8401   1.8599   1.9777   2.0903
     2.7330   2.7498   2.8915   2.9562   2.9577   3.1138   3.1319   6.3828
     6.6435   6.6515   7.1632   7.5783   7.8045   7.9386   8.0548   8.0679
     8.4713   8.5751   8.7167   8.8509   9.1904   9.3388   9.4420   9.4917
     9.6267

          k = 0.3750 0.2640 0.0000 ( 34595 PWs)   bands (ev):

   -35.5870 -35.5190 -23.4127 -22.6176 -22.5811 -22.4289 -17.0050 -16.9020
   -16.8405 -16.7969 -16.7857 -16.6610 -15.0105 -14.8842 -14.8766 -14.5295
   -14.4896 -14.4164 -14.2411 -14.1720 -14.1412 -14.1375 -14.1075 -14.0669
   -14.0111 -13.8311 -13.6892  -8.9220  -8.7506  -8.4641  -8.3004  -8.2673
    -8.1054  -7.9789  -7.9365  -7.8566  -7.8193  -7.8142  -7.6927  -3.2875
    -3.1901  -3.0477  -2.8525  -2.7557  -2.5120  -2.4825  -2.3922  -2.3855
    -2.3656  -2.3320  -2.2619  -2.2608  -2.2544  -1.8545  -1.7821  -1.7123
    -1.6144  -1.4996  -1.3149  -1.2311  -1.1977  -1.0653  -0.9375  -0.9364
    -0.8836  -0.8439  -0.7235  -0.6648  -0.6590  -0.6297  -0.5467  -0.5003
    -0.4365  -0.3835  -0.3738   0.0210   0.0862   0.1338   0.3604   0.4330
     0.5284   0.6003   0.6853   0.8101   0.8184   0.9962   1.0010   1.0633
     1.1480   1.1958   1.2208   1.2562   1.3660   1.3780   1.4051   1.4257
     1.4921   1.5152   1.5920   1.6277   1.6716   1.7246   1.7376   1.7479
     1.7537   1.7967   1.8073   1.8152   1.8437   2.0342   2.0877   2.1548
     2.9777   2.9815   3.7050   3.7396   3.7555   3.8579   3.8653   6.0065
     6.6888   6.7015   7.0945   7.6140   7.6981   7.8493   8.3937   8.4120
     8.7667   8.7915   9.0722   9.2019   9.3201   9.4091   9.4818   9.6391
     9.7594

          k = 0.3750 0.3960 0.0000 ( 34549 PWs)   bands (ev):

   -35.5827 -35.5146 -23.3674 -22.5629 -22.5264 -22.3756 -16.9879 -16.9670
   -16.9217 -16.8788 -16.7059 -16.5957 -14.7517 -14.7414 -14.7407 -14.4389
   -14.3943 -14.2931 -14.2403 -14.1657 -14.1557 -14.0903 -14.0893 -14.0731
   -13.9722 -13.8343 -13.6601  -9.2359  -8.7607  -8.6995  -8.5662  -8.5336
    -8.3820  -8.2312  -8.2000  -7.9856  -7.9804  -7.9331  -7.8456  -3.7649
    -3.6587  -3.5656  -3.4518  -3.2344  -2.9552  -2.9539  -2.6413  -2.6197
    -2.5238  -2.3426  -2.3077  -2.2890  -2.2793  -2.1214  -2.0310  -1.9740
    -1.8369  -1.7701  -1.4550  -1.2274  -1.2176  -1.2144  -1.2007  -0.9836
    -0.9620  -0.9418  -0.8784  -0.8678  -0.8007  -0.7948  -0.7105  -0.5457
    -0.4808  -0.4049  -0.3999   0.0906   0.2017   0.2403   0.4250   0.6118
     0.8120   0.8389   1.0191   1.1460   1.1542   1.2287   1.2939   1.3406
     1.3882   1.4182   1.4727   1.4762   1.5424   1.5610   1.6301   1.6521
     1.7161   1.7303   1.7679   1.8109   1.8330   1.8502   1.9201   1.9429
     1.9913   2.0426   2.1032   2.1189   2.1688   2.1774   2.3637   2.3712
     2.7988   2.8019   4.2090   4.2600   4.2862   4.3456   4.3580   5.4864
     6.3857   6.3963   6.9607   7.3571   7.7092   7.8592   8.5915   8.7400
     8.9719   9.0114   9.3512   9.4848   9.5105   9.5768   9.6031   9.7211
     9.9039

          k = 0.3750-0.5279 0.0000 ( 34580 PWs)   bands (ev):

   -35.5809 -35.5128 -23.3483 -22.5398 -22.5034 -22.3531 -17.0224 -16.9750
   -16.9685 -16.8737 -16.6704 -16.5645 -14.6887 -14.6792 -14.5521 -14.4066
   -14.3638 -14.3595 -14.2562 -14.1793 -14.1558 -14.0693 -14.0679 -14.0321
   -13.9631 -13.8276 -13.6447  -9.3497  -8.8848  -8.6798  -8.6482  -8.6155
    -8.4863  -8.3763  -8.3460  -8.1013  -8.0075  -7.9582  -7.8584  -3.9723
    -3.8649  -3.8295  -3.6450  -3.4380  -3.1805  -3.1794  -2.6599  -2.6378
    -2.5476  -2.3407  -2.3039  -2.2829  -2.2727  -2.2277  -2.1464  -2.0336
    -1.9111  -1.8630  -1.5206  -1.3318  -1.3174  -1.2512  -1.2387  -0.9833
    -0.9698  -0.9667  -0.9488  -0.9306  -0.8999  -0.8950  -0.7226  -0.5419
    -0.4660  -0.3912  -0.3876   0.1086   0.2284   0.2793   0.4429   0.6920
     0.8870   0.9903   1.1658   1.2576   1.2715   1.2908   1.3410   1.3528
     1.3953   1.4932   1.5612   1.6245   1.6383   1.6588   1.6800   1.7165
     1.7807   1.7978   1.8434   1.9653   1.9853   1.9938   2.0322   2.0423
     2.1331   2.1572   2.2716   2.2844   2.3592   2.3630   2.4308   2.5237
     2.5558   2.5592   4.3312   4.4049   4.4406   4.5010   4.5107   5.2713
     6.2082   6.2174   6.8796   7.2703   7.6854   7.8822   8.4933   8.6105
     9.1199   9.1531   9.3469   9.4757   9.5790   9.7393   9.8277   9.8307
     9.8886

          k =-0.5000 0.0000 0.0000 ( 34514 PWs)   bands (ev):

   -35.5920 -35.5241 -23.4605 -22.6734 -22.6369 -22.4831 -17.0862 -16.9725
   -16.8480 -16.7445 -16.6301 -16.5687 -15.3183 -15.1089 -15.0992 -14.6852
   -14.6059 -14.4276 -14.3361 -14.2757 -14.2206 -14.2071 -14.1952 -14.1751
   -13.9477 -13.8497 -13.6932  -8.8404  -8.2089  -8.1644  -7.9314  -7.8813
    -7.8402  -7.6577  -7.6274  -7.4803  -7.4675  -7.4329  -7.2770  -3.0458
    -3.0028  -2.8986  -2.6002  -2.3733  -2.3661  -2.3595  -1.6838  -1.6270
    -1.6210  -1.6012  -1.5507  -1.4531  -1.3822  -1.3669  -1.3415  -1.2299
    -1.2297  -1.1863  -1.1224  -1.0131  -0.9961  -0.9738  -0.9038  -0.9033
    -0.8350  -0.8237  -0.8158  -0.7713  -0.6432  -0.4921  -0.4682  -0.3157
    -0.2865  -0.2348  -0.2266  -0.1727  -0.0327   0.0505   0.0514   0.1351
     0.1648   0.3927   0.3930   0.4188   0.4269   0.4624   0.4646   0.5542
     0.6080   0.7526   0.8183   0.8574   0.9535   1.1238   1.1263   1.1291
     1.3170   1.3646   1.3711   1.3742   1.3859   1.4404   1.5800   1.6438
     1.6486   1.6981   1.7023   1.8557   1.9388   1.9790   1.9925   2.0406
     2.1448   2.1646   2.3826   2.4532   2.5876   2.7964   2.8272   6.6192
     7.1360   7.2668   7.2821   7.3191   7.3207   7.8560   8.2423   8.5356
     8.5397   8.5821   8.8830   9.0262   9.4287   9.4441   9.5342   9.5369
     9.6077

          k =-0.5000 0.1320 0.0000 ( 34570 PWs)   bands (ev):

   -35.5902 -35.5223 -23.4429 -22.6526 -22.6161 -22.4627 -17.0770 -16.9643
   -16.8205 -16.7281 -16.6938 -16.6217 -15.2419 -15.0522 -15.0425 -14.6445
   -14.5674 -14.3868 -14.2774 -14.2392 -14.1958 -14.1728 -14.1687 -14.1507
   -13.9858 -13.8444 -13.7055  -8.8197  -8.3828  -8.3259  -7.9702  -7.9224
    -7.8606  -7.7871  -7.7570  -7.6706  -7.6345  -7.5974  -7.4935  -3.1157
    -3.0609  -2.9574  -2.6323  -2.4037  -2.3711  -2.3635  -2.0220  -1.9604
    -1.9321  -1.8134  -1.7865  -1.6220  -1.6217  -1.6184  -1.5317  -1.4441
    -1.4393  -1.4027  -1.3887  -1.2259  -1.1773  -1.0147  -0.8795  -0.8735
    -0.7474  -0.7420  -0.7175  -0.7081  -0.6406  -0.4667  -0.4522  -0.3029
    -0.2984  -0.1163  -0.0842  -0.0055   0.0115   0.0753   0.1325   0.1694
     0.1707   0.2409   0.4455   0.5044   0.5045   0.5770   0.6283   0.7346
     0.8259   0.8627   0.8763   1.0466   1.0836   1.1118   1.1683   1.2107
     1.2689   1.2742   1.4038   1.4144   1.4697   1.5067   1.6177   1.6816
     1.7189   1.7280   1.7339   1.8616   1.9039   1.9704   2.0566   2.0735
     2.7398   2.7491   2.9008   2.9610   2.9775   3.1385   3.1862   6.4467
     7.1146   7.1302   7.1485   7.6218   7.6266   7.8327   8.1650   8.2235
     8.4498   8.6773   8.8934   9.2308   9.4270   9.4602   9.5562   9.6084
     9.6432

          k =-0.5000 0.2640 0.0000 ( 34584 PWs)   bands (ev):

   -35.5859 -35.5180 -23.3999 -22.6016 -22.5651 -22.4129 -17.0550 -16.9446
   -16.8372 -16.7927 -16.7493 -16.6317 -15.0313 -14.9018 -14.8923 -14.5475
   -14.4769 -14.2870 -14.1761 -14.1517 -14.1411 -14.1236 -14.1173 -14.1057
   -14.0567 -13.8326 -13.7036  -8.8808  -8.7487  -8.6055  -8.2392  -8.2036
    -8.0883  -8.0594  -8.0584  -7.9200  -7.8728  -7.8666  -7.8006  -3.4252
    -3.3268  -3.1864  -2.8715  -2.8487  -2.5368  -2.5066  -2.4045  -2.3950
    -2.3845  -2.3377  -2.2958  -2.2686  -2.2653  -1.9209  -1.8337  -1.8263
    -1.7135  -1.5898  -1.2830  -1.1491  -1.1278  -1.0272  -0.9789  -0.9751
    -0.9135  -0.8672  -0.7705  -0.6859  -0.6842  -0.6672  -0.5608  -0.4963
    -0.4624  -0.4050  -0.3966   0.0365   0.1003   0.2154   0.3863   0.4811
     0.6015   0.6456   0.7220   0.8408   0.8428   1.0738   1.0798   1.0917
     1.1557   1.1775   1.1864   1.2447   1.3264   1.4163   1.4409   1.4645
     1.5062   1.5323   1.6321   1.6877   1.7056   1.7492   1.8024   1.8052
     1.8162   1.8735   1.8936   1.8943   1.9347   1.9679   2.0794   2.1767
     2.9710   2.9740   3.7560   3.8572   3.8729   3.9715   3.9858   5.8583
     6.6847   6.6987   7.0794   7.5600   7.8006   7.8755   8.4316   8.4404
     8.8718   8.9761   9.0489   9.3916   9.4191   9.5792   9.5994   9.7017
     9.7963

          k =-0.5000 0.3960 0.0000 ( 34556 PWs)   bands (ev):

   -35.5816 -35.5136 -23.3561 -22.5494 -22.5129 -22.3619 -17.0334 -16.9663
   -16.9252 -16.9138 -16.6736 -16.5684 -14.7458 -14.7189 -14.7114 -14.4631
   -14.4009 -14.2337 -14.2161 -14.1475 -14.1145 -14.0873 -14.0856 -14.0373
   -13.9938 -13.8042 -13.6529  -9.2985  -8.8834  -8.7045  -8.6144  -8.5812
    -8.4418  -8.3763  -8.3465  -8.1163  -7.9979  -7.9488  -7.8591  -3.8952
    -3.7812  -3.6062  -3.5274  -3.3300  -2.9467  -2.9456  -2.7110  -2.6907
    -2.5666  -2.4001  -2.3701  -2.3057  -2.2996  -2.2120  -2.1357  -1.9496
    -1.9257  -1.8462  -1.4357  -1.2440  -1.2293  -1.1164  -1.0969  -1.0593
    -1.0298  -0.9310  -0.8964  -0.8889  -0.7961  -0.7869  -0.7829  -0.6396
    -0.4801  -0.3681  -0.3644   0.1247   0.2568   0.2862   0.4647   0.7054
     0.9078   0.9873   1.0887   1.2730   1.2794   1.2889   1.2982   1.3750
     1.4247   1.4456   1.5495   1.5510   1.5575   1.6350   1.6806   1.7095
     1.7273   1.7675   1.8239   1.8478   1.8890   1.9313   1.9442   1.9972
     2.0554   2.1312   2.1381   2.1610   2.2365   2.2397   2.3095   2.4846
     2.7869   2.7897   4.2647   4.5030   4.5220   4.5744   4.5764   5.2729
     6.1897   6.2014   6.8422   7.2127   7.7658   7.7788   8.5081   8.8135
     8.9163   8.9761   9.4060   9.5125   9.5595   9.6308   9.7222   9.8457
     9.8897

          k =-0.5000-0.5279 0.0000 ( 34620 PWs)   bands (ev):

   -35.5798 -35.5118 -23.3377 -22.5275 -22.4910 -22.3404 -17.0246 -17.0170
   -16.9628 -16.9173 -16.6401 -16.5388 -14.6230 -14.6169 -14.5434 -14.4450
   -14.3845 -14.2898 -14.2799 -14.1726 -14.1049 -14.0647 -14.0636 -13.9969
   -13.9526 -13.7818 -13.6223  -9.4634  -8.9987  -8.7604  -8.7276  -8.6813
    -8.5949  -8.4924  -8.4626  -8.2136  -8.0259  -7.9761  -7.8747  -4.1032
    -3.9882  -3.8437  -3.7468  -3.5353  -3.1710  -3.1701  -2.7434  -2.7229
    -2.6010  -2.4101  -2.3687  -2.3050  -2.2958  -2.2897  -2.2405  -1.9968
    -1.9926  -1.9313  -1.4958  -1.3592  -1.3459  -1.1809  -1.1637  -1.0371
    -0.9973  -0.9921  -0.9906  -0.9347  -0.9012  -0.8950  -0.7710  -0.6302
    -0.4714  -0.3393  -0.3365   0.1520   0.2962   0.3100   0.4869   0.8142
     1.0056   1.1250   1.2558   1.3369   1.3536   1.3566   1.3945   1.4013
     1.4484   1.6098   1.6112   1.7085   1.7424   1.7501   1.7684   1.7979
     1.8603   1.8963   1.9208   1.9582   1.9842   2.0221   2.0624   2.0763
     2.1861   2.3009   2.3237   2.3306   2.3843   2.4169   2.4935   2.5311
     2.5360   2.6503   4.3881   4.7083   4.7271   4.7763   4.7832   5.0393
     5.9627   5.9730   6.7267   7.1119   7.6790   7.7999   8.3335   8.8481
     9.0258   9.0506   9.0752   9.2474   9.4873   9.5747   9.8590   9.9369
     9.9974

     the Fermi energy is     2.5581 ev

!    total energy              =   -1842.83331263 Ry
     Harris-Foulkes estimate   =   -1842.83331264 Ry
     estimated scf accuracy    <          3.4E-11 Ry

     The total energy is the sum of the following terms:

     one-electron contribution =  -29130.32673644 Ry
     hartree contribution      =   14717.86304695 Ry
     xc contribution           =    -621.64541951 Ry
     ewald contribution        =   13191.28300980 Ry
     smearing contrib. (-TS)   =      -0.00721344 Ry

     convergence has been achieved in  38 iterations

     negative rho (up, down):  1.541E-03 0.000E+00

     Forces acting on atoms (cartesian axes, Ry/au):

     atom    1 type  4   force =     0.00000000    0.00000387   -0.00019565
     atom    2 type  3   force =     0.00000000    0.00000081    0.00044527
     atom    3 type  4   force =     0.00000000    0.00000490   -0.00080069
     atom    4 type  1   force =     0.00000000   -0.00000153   -0.00026566
     atom    5 type  3   force =     0.00000000    0.00000048    0.00058612
     atom    6 type  4   force =     0.00000000    0.00000424    0.00005328
     atom    7 type  4   force =     0.00000000   -0.00000303    0.00023325
     atom    8 type  2   force =     0.00000000    0.00002631   -0.00071677
     atom    9 type  4   force =     0.00000000    0.00013941    0.00079774
     atom   10 type  4   force =     0.00000000    0.00006990    0.00132355
     atom   11 type  3   force =     0.00000000   -0.00029127   -0.00285985
     atom   12 type  1   force =     0.00000000   -0.00240298   -0.00836245
     atom   13 type  4   force =     0.00000000   -0.00468618   -0.04416345
     atom   14 type  4   force =     0.00000000    0.08608629    0.01469059
     atom   15 type  3   force =     0.00000000   -0.06588189    0.04119443
     atom   16 type  4   force =     0.00000000   -0.00683713    0.01373325
     atom   17 type  1   force =     0.00000000   -0.00625283    0.00814902
     atom   18 type  3   force =     0.00000000    0.05405861    0.00180280
     atom   19 type  4   force =     0.00000000   -0.00006414   -0.01433204
     atom   20 type  4   force =     0.00000000   -0.06994834    0.00007552
     atom   21 type  2   force =     0.00000000    0.02318182    0.00150528
     atom   22 type  4   force =     0.00000000   -0.00338992   -0.00616467
     atom   23 type  4   force =     0.00000000   -0.00165901   -0.00115893
     atom   24 type  3   force =     0.00000000   -0.00246427   -0.00186404
     atom   25 type  1   force =     0.00000000    0.00022277   -0.00435193
     atom   26 type  4   force =     0.00000000    0.00009658    0.00105322
     atom   27 type  3   force =     0.00000000   -0.00007011   -0.00060270
     atom   28 type  4   force =     0.00000000    0.00005666    0.00019552

     Total force =     0.150228     Total SCF correction =     0.000022


     Computing stress (Cartesian axis) and pressure


     negative rho (up, down):  1.541E-03 0.000E+00
          total   stress  (Ry/bohr**3)                   (kbar)     P=       -3.84
  -0.00007766   0.00000000   0.00000000          -11.42        0.00        0.00
   0.00000000   0.00001205  -0.00000849            0.00        1.77       -1.25
   0.00000000  -0.00000849  -0.00001278            0.00       -1.25       -1.88


     number of scf cycles    =   2
     number of bfgs steps    =   1

     energy   old            =   -1842.8459339375 Ry
     energy   new            =   -1842.8333126341 Ry

     CASE: energy  _new > energy  _old

     new trust radius        =       0.1182285802 bohr
     new conv_thr            =            1.0E-10 Ry


ATOMIC_POSITIONS (angstrom)
O             0.0000000000        1.8611200000       -0.1838273774    0   0   0
Cu            0.0000000000        0.0000000000        0.1035335863    0   0   0
O             0.0000000000        0.0000000000        1.9687710989    0   0   0
Ba            1.9651100000        1.8611200000        2.2268084993    0   0   0
Cu            0.0000000000        0.0000000000        4.0598050278    0   0   0
O             1.9651100000        0.0000000000        4.2139304733    0   0   0
O             0.0000000000        1.8611200000        4.3504617808    0   0   0
Ca            1.9651100000        1.8611200000        5.8607298423    0   0   0
O             0.0000000000        1.8611200000        7.3052513882    0   0   0
O             1.9651100000        0.0000000000        7.4526259420    0   0   0
Cu            0.0000000000        0.0000000000        7.6359355519    0   0   0
Ba            1.9651100000        1.8611200000        9.5077746002    0   0   0
O             0.0000000000        0.0000000000        9.8285116536    0   0   0
O             0.0000000000        1.8381062815       11.6851433241
Cu            0.0000000000        0.0000000000       11.6853623796
O             0.0000000000        0.0000000000       13.5651770388
Ba            1.9651100000        1.8841337185       13.8858842211
Cu            0.0000000000        0.0000000000       16.9447526923
O             1.9651100000        0.0000000000       17.1510760207
O             0.0000000000        1.8841337185       17.2754169419
Ca            1.9651100000        1.8381062815       18.7199783160
O             0.0000000000        1.8611200000       20.2532501390    0   0   0
O             1.9651100000        0.0000000000       20.3897814465    0   0   0
Cu            0.0000000000        0.0000000000       20.5439168491    0   0   0
Ba            1.9651100000        1.8611200000       22.3769034205    0   0   0
O             0.0000000000        0.0000000000       22.6349009927    0   0   0
Cu            0.0000000000        0.0000000000       24.5001584194    0   0   0
O             0.0000000000        1.8611200000       24.7874695978    0   0   0


     NEW-OLD atomic charge density approx. for the potential

     negative rho (up, down):  6.720E-03 0.000E+00

     total cpu time spent up to now is      655.2 secs

     Self-consistent Calculation

     iteration #  1     ecut=    60.00 Ry     beta= 0.70
     Davidson diagonalization with overlap
     c_bands:  1 eigenvalues not converged
     c_bands:  1 eigenvalues not converged
     c_bands:  1 eigenvalues not converged
     c_bands:  1 eigenvalues not converged
     ethr =  1.00E-06,  avg # of iterations = 16.2

     negative rho (up, down):  2.473E-03 0.000E+00

     total cpu time spent up to now is      719.4 secs

     total energy              =   -1842.81929142 Ry
     Harris-Foulkes estimate   =   -1842.84483362 Ry
     estimated scf accuracy    <       0.45908572 Ry

     iteration #  2     ecut=    60.00 Ry     beta= 0.70
     Davidson diagonalization with overlap
     ethr =  2.02E-04,  avg # of iterations =  1.9

     negative rho (up, down):  2.139E-03 0.000E+00

     total cpu time spent up to now is      734.0 secs

     total energy              =   -1842.81570210 Ry
     Harris-Foulkes estimate   =   -1842.87338223 Ry
     estimated scf accuracy    <       1.25930290 Ry

     iteration #  3     ecut=    60.00 Ry     beta= 0.70
     Davidson diagonalization with overlap
     ethr =  2.02E-04,  avg # of iterations =  1.1

     negative rho (up, down):  2.015E-03 0.000E+00

     total cpu time spent up to now is      748.1 secs

     total energy              =   -1842.84735539 Ry
     Harris-Foulkes estimate   =   -1842.85104100 Ry
     estimated scf accuracy    <       0.13489801 Ry

     iteration #  4     ecut=    60.00 Ry     beta= 0.70
     Davidson diagonalization with overlap
     ethr =  5.94E-05,  avg # of iterations =  1.3

     negative rho (up, down):  1.548E-03 0.000E+00

     total cpu time spent up to now is      762.3 secs

     total energy              =   -1842.84692049 Ry
     Harris-Foulkes estimate   =   -1842.84951739 Ry
     estimated scf accuracy    <       0.05147042 Ry

     iteration #  5     ecut=    60.00 Ry     beta= 0.70
     Davidson diagonalization with overlap
     c_bands:  1 eigenvalues not converged
     c_bands:  1 eigenvalues not converged
     ethr =  2.27E-05,  avg # of iterations =  6.4

     negative rho (up, down):  1.598E-03 0.000E+00

     total cpu time spent up to now is      781.5 secs

     total energy              =   -1842.84760469 Ry
     Harris-Foulkes estimate   =   -1842.84828812 Ry
     estimated scf accuracy    <       0.01870962 Ry

     iteration #  6     ecut=    60.00 Ry     beta= 0.70
     Davidson diagonalization with overlap
     ethr =  8.24E-06,  avg # of iterations =  4.6

     negative rho (up, down):  1.598E-03 0.000E+00

     total cpu time spent up to now is      799.2 secs

     total energy              =   -1842.84800540 Ry
     Harris-Foulkes estimate   =   -1842.84802566 Ry
     estimated scf accuracy    <       0.00674071 Ry

     iteration #  7     ecut=    60.00 Ry     beta= 0.70
     Davidson diagonalization with overlap
     c_bands:  1 eigenvalues not converged
     ethr =  2.97E-06,  avg # of iterations =  4.8

     negative rho (up, down):  1.580E-03 0.000E+00

     total cpu time spent up to now is      817.1 secs

     total energy              =   -1842.84803333 Ry
     Harris-Foulkes estimate   =   -1842.84807950 Ry
     estimated scf accuracy    <       0.00570258 Ry

     iteration #  8     ecut=    60.00 Ry     beta= 0.70
     Davidson diagonalization with overlap
     ethr =  2.51E-06,  avg # of iterations =  1.2

     negative rho (up, down):  1.604E-03 0.000E+00

     total cpu time spent up to now is      831.1 secs

     total energy              =   -1842.84799022 Ry
     Harris-Foulkes estimate   =   -1842.84809970 Ry
     estimated scf accuracy    <       0.00464418 Ry

     iteration #  9     ecut=    60.00 Ry     beta= 0.70
     Davidson diagonalization with overlap
     ethr =  2.05E-06,  avg # of iterations =  2.7

     negative rho (up, down):  1.638E-03 0.000E+00

     total cpu time spent up to now is      847.2 secs

     total energy              =   -1842.84800640 Ry
     Harris-Foulkes estimate   =   -1842.84805216 Ry
     estimated scf accuracy    <       0.00255093 Ry

     iteration # 10     ecut=    60.00 Ry     beta= 0.70
     Davidson diagonalization with overlap
     ethr =  1.12E-06,  avg # of iterations =  1.8

     negative rho (up, down):  1.648E-03 0.000E+00

     total cpu time spent up to now is      861.8 secs

     total energy              =   -1842.84800821 Ry
     Harris-Foulkes estimate   =   -1842.84803239 Ry
     estimated scf accuracy    <       0.00074925 Ry

     iteration # 11     ecut=    60.00 Ry     beta= 0.70
     Davidson diagonalization with overlap
     ethr =  3.30E-07,  avg # of iterations =  1.0

     negative rho (up, down):  1.663E-03 0.000E+00

     total cpu time spent up to now is      875.5 secs

     total energy              =   -1842.84799090 Ry
     Harris-Foulkes estimate   =   -1842.84801632 Ry
     estimated scf accuracy    <       0.00050306 Ry

     iteration # 12     ecut=    60.00 Ry     beta= 0.70
     Davidson diagonalization with overlap
     ethr =  2.22E-07,  avg # of iterations =  1.2

     negative rho (up, down):  1.668E-03 0.000E+00

     total cpu time spent up to now is      889.7 secs

     total energy              =   -1842.84798232 Ry
     Harris-Foulkes estimate   =   -1842.84799576 Ry
     estimated scf accuracy    <       0.00018574 Ry

     iteration # 13     ecut=    60.00 Ry     beta= 0.70
     Davidson diagonalization with overlap
     ethr =  8.18E-08,  avg # of iterations =  1.0

     negative rho (up, down):  1.669E-03 0.000E+00

     total cpu time spent up to now is      903.5 secs

     total energy              =   -1842.84797649 Ry
     Harris-Foulkes estimate   =   -1842.84798575 Ry
     estimated scf accuracy    <       0.00008417 Ry

     iteration # 14     ecut=    60.00 Ry     beta= 0.70
     Davidson diagonalization with overlap
     ethr =  3.71E-08,  avg # of iterations =  1.8

     negative rho (up, down):  1.669E-03 0.000E+00

     total cpu time spent up to now is      918.4 secs

     total energy              =   -1842.84797624 Ry
     Harris-Foulkes estimate   =   -1842.84797926 Ry
     estimated scf accuracy    <       0.00003628 Ry

     iteration # 15     ecut=    60.00 Ry     beta= 0.70
     Davidson diagonalization with overlap
     ethr =  1.60E-08,  avg # of iterations =  2.8

     negative rho (up, down):  1.667E-03 0.000E+00

     total cpu time spent up to now is      934.6 secs

     total energy              =   -1842.84797791 Ry
     Harris-Foulkes estimate   =   -1842.84797824 Ry
     estimated scf accuracy    <       0.00000804 Ry

     iteration # 16     ecut=    60.00 Ry     beta= 0.70
     Davidson diagonalization with overlap
     ethr =  3.54E-09,  avg # of iterations =  1.5

     negative rho (up, down):  1.661E-03 0.000E+00

     total cpu time spent up to now is      949.0 secs

     total energy              =   -1842.84797784 Ry
     Harris-Foulkes estimate   =   -1842.84797812 Ry
     estimated scf accuracy    <       0.00000626 Ry

     iteration # 17     ecut=    60.00 Ry     beta= 0.70
     Davidson diagonalization with overlap
     ethr =  2.76E-09,  avg # of iterations =  1.8

     negative rho (up, down):  1.651E-03 0.000E+00

     total cpu time spent up to now is      963.7 secs

     total energy              =   -1842.84797777 Ry
     Harris-Foulkes estimate   =   -1842.84797798 Ry
     estimated scf accuracy    <       0.00000436 Ry

     iteration # 18     ecut=    60.00 Ry     beta= 0.70
     Davidson diagonalization with overlap
     ethr =  1.92E-09,  avg # of iterations =  1.2

     negative rho (up, down):  1.649E-03 0.000E+00

     total cpu time spent up to now is      977.9 secs

     total energy              =   -1842.84797786 Ry
     Harris-Foulkes estimate   =   -1842.84797790 Ry
     estimated scf accuracy    <       0.00000230 Ry

     iteration # 19     ecut=    60.00 Ry     beta= 0.70
     Davidson diagonalization with overlap
     ethr =  1.01E-09,  avg # of iterations =  1.0

     negative rho (up, down):  1.639E-03 0.000E+00

     total cpu time spent up to now is      991.6 secs

     total energy              =   -1842.84797786 Ry
     Harris-Foulkes estimate   =   -1842.84797788 Ry
     estimated scf accuracy    <       0.00000189 Ry

     iteration # 20     ecut=    60.00 Ry     beta= 0.70
     Davidson diagonalization with overlap
     ethr =  8.34E-10,  avg # of iterations =  1.0

     negative rho (up, down):  1.632E-03 0.000E+00

     total cpu time spent up to now is     1005.6 secs

     total energy              =   -1842.84797786 Ry
     Harris-Foulkes estimate   =   -1842.84797787 Ry
     estimated scf accuracy    <       0.00000061 Ry

     iteration # 21     ecut=    60.00 Ry     beta= 0.70
     Davidson diagonalization with overlap
     ethr =  2.70E-10,  avg # of iterations =  1.0

     negative rho (up, down):  1.623E-03 0.000E+00

     total cpu time spent up to now is     1019.4 secs

     total energy              =   -1842.84797787 Ry
     Harris-Foulkes estimate   =   -1842.84797787 Ry
     estimated scf accuracy    <       0.00000054 Ry

     iteration # 22     ecut=    60.00 Ry     beta= 0.70
     Davidson diagonalization with overlap
     ethr =  2.38E-10,  avg # of iterations =  1.0

     negative rho (up, down):  1.610E-03 0.000E+00

     total cpu time spent up to now is     1033.3 secs

     total energy              =   -1842.84797788 Ry
     Harris-Foulkes estimate   =   -1842.84797788 Ry
     estimated scf accuracy    <       0.00000017 Ry

     iteration # 23     ecut=    60.00 Ry     beta= 0.70
     Davidson diagonalization with overlap
     ethr =  7.31E-11,  avg # of iterations =  1.0

     negative rho (up, down):  1.602E-03 0.000E+00

     total cpu time spent up to now is     1047.1 secs

     total energy              =   -1842.84797789 Ry
     Harris-Foulkes estimate   =   -1842.84797789 Ry
     estimated scf accuracy    <       0.00000007 Ry

     iteration # 24     ecut=    60.00 Ry     beta= 0.70
     Davidson diagonalization with overlap
     ethr =  3.19E-11,  avg # of iterations =  1.0

     negative rho (up, down):  1.597E-03 0.000E+00

     total cpu time spent up to now is     1060.8 secs

     total energy              =   -1842.84797790 Ry
     Harris-Foulkes estimate   =   -1842.84797789 Ry
     estimated scf accuracy    <       0.00000004 Ry

     iteration # 25     ecut=    60.00 Ry     beta= 0.70
     Davidson diagonalization with overlap
     ethr =  1.63E-11,  avg # of iterations =  1.0

     negative rho (up, down):  1.594E-03 0.000E+00

     total cpu time spent up to now is     1075.1 secs

     total energy              =   -1842.84797790 Ry
     Harris-Foulkes estimate   =   -1842.84797790 Ry
     estimated scf accuracy    <       0.00000002 Ry

     iteration # 26     ecut=    60.00 Ry     beta= 0.70
     Davidson diagonalization with overlap
     ethr =  9.58E-12,  avg # of iterations =  1.2

     negative rho (up, down):  1.582E-03 0.000E+00

     total cpu time spent up to now is     1089.2 secs

     total energy              =   -1842.84797791 Ry
     Harris-Foulkes estimate   =   -1842.84797790 Ry
     estimated scf accuracy    <       0.00000002 Ry

     iteration # 27     ecut=    60.00 Ry     beta= 0.70
     Davidson diagonalization with overlap
     ethr =  6.91E-12,  avg # of iterations =  1.0

     negative rho (up, down):  1.576E-03 0.000E+00

     total cpu time spent up to now is     1103.4 secs

     total energy              =   -1842.84797792 Ry
     Harris-Foulkes estimate   =   -1842.84797792 Ry
     estimated scf accuracy    <       0.00000003 Ry

     iteration # 28     ecut=    60.00 Ry     beta= 0.70
     Davidson diagonalization with overlap
     ethr =  6.91E-12,  avg # of iterations =  1.0

     negative rho (up, down):  1.571E-03 0.000E+00

     total cpu time spent up to now is     1117.3 secs

     total energy              =   -1842.84797793 Ry
     Harris-Foulkes estimate   =   -1842.84797792 Ry
     estimated scf accuracy    <       0.00000001 Ry

     iteration # 29     ecut=    60.00 Ry     beta= 0.70
     Davidson diagonalization with overlap
     ethr =  4.46E-12,  avg # of iterations =  1.0

     negative rho (up, down):  1.570E-03 0.000E+00

     total cpu time spent up to now is     1131.2 secs

     total energy              =   -1842.84797793 Ry
     Harris-Foulkes estimate   =   -1842.84797793 Ry
     estimated scf accuracy    <          1.4E-09 Ry

     iteration # 30     ecut=    60.00 Ry     beta= 0.70
     Davidson diagonalization with overlap
     ethr =  6.03E-13,  avg # of iterations =  2.7

     negative rho (up, down):  1.569E-03 0.000E+00

     total cpu time spent up to now is     1146.7 secs

     total energy              =   -1842.84797793 Ry
     Harris-Foulkes estimate   =   -1842.84797793 Ry
     estimated scf accuracy    <          8.8E-10 Ry

     iteration # 31     ecut=    60.00 Ry     beta= 0.70
     Davidson diagonalization with overlap
     ethr =  3.88E-13,  avg # of iterations =  1.0

     negative rho (up, down):  1.569E-03 0.000E+00

     total cpu time spent up to now is     1160.4 secs

     total energy              =   -1842.84797793 Ry
     Harris-Foulkes estimate   =   -1842.84797793 Ry
     estimated scf accuracy    <          2.2E-10 Ry

     iteration # 32     ecut=    60.00 Ry     beta= 0.70
     Davidson diagonalization with overlap
     ethr =  1.00E-13,  avg # of iterations =  2.3

     negative rho (up, down):  1.570E-03 0.000E+00

[...]
    -2.3891  -2.2904  -2.2847  -2.2528  -1.9954  -1.8078  -1.7081  -1.6251
    -1.4741  -1.3887  -1.2821  -1.2453  -1.0767  -0.9803  -0.9473  -0.9073
    -0.8457  -0.8298  -0.6805  -0.6763  -0.6597  -0.6151  -0.5250  -0.5149
    -0.4237  -0.4038  -0.3622   0.0358   0.0846   0.2557   0.3645   0.4315
     0.5928   0.6631   0.7063   0.7999   0.8087   0.9842   0.9913   1.0719
     1.1570   1.2007   1.2181   1.2577   1.3639   1.3716   1.4019   1.4401
     1.4969   1.5323   1.5689   1.5990   1.6837   1.7062   1.7336   1.7364
     1.7665   1.7763   1.7970   1.8196   1.8701   2.0077   2.0908   2.1264
     2.9712   2.9772   3.5845   3.6996   3.7413   3.8167   3.9040   6.0798
     6.6768   6.6917   7.3041   7.6086   7.7825   8.1063   8.3836   8.4047
     8.7717   8.9764   9.1174   9.2118   9.2452   9.3976   9.4467   9.6457
     9.7238

          k = 0.3750 0.3960 0.0000 ( 34549 PWs)   bands (ev):

   -35.6722 -35.5905 -23.0312 -22.5688 -22.5267 -22.5201 -17.0250 -17.0083
   -17.0028 -16.9811 -16.7197 -16.7149 -14.7820 -14.7726 -14.5659 -14.4602
   -14.4077 -14.2871 -14.2630 -14.1718 -14.1053 -14.0938 -14.0490 -14.0458
   -13.9688 -13.7003 -13.6406  -8.9179  -8.5747  -8.5321  -8.4903  -8.4534
    -8.3583  -8.2402  -8.1986  -8.1185  -7.9911  -7.9502  -7.9243  -3.7841
    -3.6522  -3.4803  -3.3194  -3.2417  -2.9722  -2.9697  -2.6592  -2.6293
    -2.5053  -2.3301  -2.3257  -2.3106  -2.1196  -2.0214  -2.0029  -1.8637
    -1.7660  -1.5736  -1.3039  -1.2423  -1.2363  -1.2289  -1.1994  -0.9886
    -0.9527  -0.8991  -0.8768  -0.8368  -0.7493  -0.7421  -0.6348  -0.5818
    -0.4610  -0.4299  -0.4249   0.1430   0.2308   0.3093   0.4518   0.6085
     0.8114   0.9594   1.0653   1.1338   1.1444   1.2174   1.2982   1.3264
     1.3896   1.4309   1.4611   1.4725   1.5503   1.5871   1.6303   1.6939
     1.7230   1.7332   1.7527   1.7939   1.8299   1.8642   1.9059   1.9384
     1.9679   2.0038   2.0683   2.1369   2.1557   2.1805   2.3395   2.3809
     2.7930   2.7977   3.9868   4.2178   4.2600   4.2983   4.3932   5.6012
     6.3735   6.3850   6.9769   7.3361   7.9360   8.1444   8.7565   8.9669
     8.9867   9.0859   9.2260   9.3826   9.4502   9.4879   9.5780   9.5969
     9.8183

          k = 0.3750-0.5279 0.0000 ( 34580 PWs)   bands (ev):

   -35.6705 -35.5887 -23.0119 -22.5457 -22.5047 -22.4969 -17.0634 -17.0373
   -17.0069 -16.9897 -16.6886 -16.6836 -14.7222 -14.7106 -14.4288 -14.4188
   -14.3729 -14.3295 -14.1867 -14.1818 -14.1075 -14.0820 -14.0795 -13.9891
   -13.9486 -13.7005 -13.6612  -9.0328  -8.6564  -8.6140  -8.5755  -8.5639
    -8.3848  -8.3658  -8.3442  -8.2410  -8.0191  -7.9646  -7.9501  -3.9895
    -3.8584  -3.6823  -3.5530  -3.4453  -3.1976  -3.1955  -2.6789  -2.6483
    -2.5169  -2.3319  -2.3198  -2.3040  -2.2262  -2.1351  -2.0044  -1.9473
    -1.8692  -1.6308  -1.3775  -1.3360  -1.3273  -1.2698  -1.2469  -0.9874
    -0.9824  -0.9749  -0.9410  -0.9233  -0.8482  -0.7728  -0.6467  -0.5738
    -0.4382  -0.4175  -0.4140   0.1757   0.2691   0.3249   0.4787   0.6917
     0.8855   1.0800   1.2283   1.2615   1.2722   1.2842   1.3231   1.3649
     1.3874   1.4948   1.5598   1.6167   1.6497   1.6795   1.7312   1.7488
     1.7854   1.7936   1.8125   1.9478   1.9663   1.9910   2.0176   2.0306
     2.1040   2.1257   2.2380   2.3097   2.3456   2.3571   2.4685   2.4935
     2.5513   2.5559   4.0834   4.3614   4.4049   4.4460   4.5399   5.3962
     6.1959   6.2059   6.8603   7.2411   7.8668   8.2468   8.7269   8.9175
     9.1275   9.1508   9.2772   9.2958   9.4776   9.6077   9.7625   9.7966
     9.8252

          k =-0.5000 0.0000 0.0000 ( 34514 PWs)   bands (ev):

   -35.6813 -35.5999 -23.1248 -22.6797 -22.6332 -22.6309 -17.1026 -17.0980
   -16.8644 -16.8378 -16.7201 -16.6384 -15.1426 -15.1290 -15.0922 -14.7169
   -14.6118 -14.4442 -14.3644 -14.2542 -14.2251 -14.2048 -14.1983 -14.1075
   -13.9748 -13.7278 -13.6048  -8.5259  -7.9419  -7.9271  -7.8979  -7.8695
    -7.8373  -7.6665  -7.6259  -7.5788  -7.4762  -7.4306  -7.3947  -3.0650
    -3.0079  -2.9010  -2.6585  -2.4037  -2.3938  -2.0058  -1.7058  -1.6928
    -1.6452  -1.6203  -1.5287  -1.4025  -1.3216  -1.2915  -1.2481  -1.2468
    -1.2062  -1.1081  -1.0986  -1.0343  -0.9325  -0.9277  -0.8545  -0.8434
    -0.8245  -0.8074  -0.7342  -0.6588  -0.5346  -0.4902  -0.3002  -0.2734
    -0.2393  -0.2276  -0.2271  -0.2039   0.0331   0.0336   0.1179   0.1298
     0.1597   0.3753   0.3758   0.3999   0.4122   0.4615   0.4956   0.5368
     0.6488   0.7804   0.8229   0.8429   0.8661   1.1139   1.1225   1.1859
     1.3171   1.3515   1.3598   1.3615   1.4261   1.4970   1.5534   1.6364
     1.6439   1.6468   1.7376   1.8252   1.8543   1.9112   2.0246   2.0902
     2.1250   2.1632   2.3660   2.5030   2.5956   2.7981   2.8245   6.6521
     7.2553   7.2761   7.3088   7.3107   7.5608   8.1301   8.2157   8.4333
     8.5161   8.5773   8.9488   9.1485   9.3191   9.3267   9.3500   9.4349
     9.5063

          k =-0.5000 0.1320 0.0000 ( 34570 PWs)   bands (ev):

   -35.6796 -35.5981 -23.1071 -22.6588 -22.6132 -22.6101 -17.0932 -17.0906
   -16.8365 -16.8261 -16.7623 -16.7033 -15.0853 -15.0722 -15.0202 -14.6751
   -14.5732 -14.4023 -14.3034 -14.2215 -14.2026 -14.1771 -14.1710 -14.0804
   -14.0148 -13.7347 -13.5984  -8.5056  -8.0594  -8.0168  -7.9789  -7.9511
    -7.9131  -7.7959  -7.7556  -7.7009  -7.6785  -7.6307  -7.6043  -3.1350
    -3.0645  -2.9526  -2.6930  -2.4074  -2.3962  -2.0726  -2.0599  -1.9901
    -1.9472  -1.8209  -1.7470  -1.6366  -1.6358  -1.5518  -1.4578  -1.4568
    -1.3868  -1.3397  -1.1254  -1.1240  -1.0726  -0.9121  -0.9036  -0.8874
    -0.7436  -0.7085  -0.6591  -0.6023  -0.5546  -0.4808  -0.4741  -0.3187
    -0.3139  -0.1001  -0.0828   0.0387   0.0683   0.1057   0.1570   0.1581
     0.2590   0.3097   0.3844   0.4872   0.4880   0.5606   0.6209   0.7353
     0.8248   0.9073   0.9132   1.0064   1.0805   1.1124   1.1666   1.1962
     1.2570   1.2679   1.3793   1.4550   1.4927   1.5165   1.5901   1.6214
     1.7032   1.7188   1.7691   1.8295   1.8759   2.0058   2.0320   2.1009
     2.7277   2.7401   2.8662   2.9491   2.9863   3.1580   3.1724   6.4791
     7.1029   7.1238   7.5229   7.6107   7.6259   8.1209   8.1502   8.1531
     8.4238   8.7870   9.1078   9.1939   9.2173   9.4645   9.5235   9.5264
     9.5601

          k =-0.5000 0.2640 0.0000 ( 34584 PWs)   bands (ev):

   -35.6754 -35.5938 -23.0636 -22.6077 -22.5642 -22.5589 -17.0727 -17.0708
   -16.9062 -16.8494 -16.7639 -16.7469 -14.9344 -14.9220 -14.8233 -14.5754
   -14.4829 -14.2962 -14.1932 -14.1531 -14.1506 -14.1453 -14.0942 -14.0930
   -14.0215 -13.7280 -13.5942  -8.5621  -8.4387  -8.2966  -8.2495  -8.2023
    -8.1489  -8.0970  -8.0571  -7.9855  -7.9276  -7.9003  -7.8629  -3.4441
    -3.3236  -3.1843  -2.9141  -2.7109  -2.5518  -2.5112  -2.4311  -2.4168
    -2.4030  -2.2965  -2.2949  -2.2799  -2.0008  -1.9332  -1.8288  -1.7080
    -1.5643  -1.3885  -1.2062  -1.1446  -1.0624  -1.0063  -1.0007  -0.9358
    -0.8699  -0.8658  -0.7188  -0.7005  -0.6971  -0.6101  -0.5379  -0.5029
    -0.4293  -0.4197  -0.3899   0.0470   0.0964   0.3191   0.3943   0.4828
     0.6377   0.7222   0.7632   0.8288   0.8307   1.0647   1.0795   1.1187
     1.1438   1.1682   1.1868   1.2555   1.3635   1.3923   1.4334   1.4709
     1.5064   1.5514   1.6731   1.6835   1.7026   1.7233   1.7722   1.7888
     1.8121   1.8494   1.8629   1.8943   1.9108   2.0061   2.0495   2.1883
     2.9644   2.9694   3.5853   3.8391   3.8759   3.9508   4.0279   5.9381
     6.6727   6.6903   7.1928   7.5437   7.9658   8.1977   8.4212   8.4346
     8.9604   8.9904   9.1471   9.3269   9.5342   9.5723   9.5810   9.6043
     9.8034

          k =-0.5000 0.3960 0.0000 ( 34556 PWs)   bands (ev):

   -35.6713 -35.5895 -23.0194 -22.5553 -22.5140 -22.5065 -17.0552 -17.0489
   -17.0152 -16.9804 -16.6908 -16.6870 -14.7529 -14.7418 -14.5706 -14.4866
   -14.4074 -14.2582 -14.1822 -14.1631 -14.1006 -14.0978 -14.0243 -13.9991
   -13.9962 -13.6871 -13.6093  -8.9847  -8.6230  -8.5799  -8.5691  -8.5290
    -8.3920  -8.3847  -8.3449  -8.2552  -8.0086  -7.9566  -7.9405  -3.9153
    -3.7745  -3.6008  -3.3587  -3.3076  -2.9636  -2.9614  -2.7269  -2.6982
    -2.5766  -2.4191  -2.3443  -2.3347  -2.2193  -2.1243  -2.0052  -1.9146
    -1.8393  -1.5853  -1.2729  -1.2647  -1.2448  -1.1383  -1.1053  -1.0761
    -1.0405  -0.9138  -0.9016  -0.8235  -0.8201  -0.7262  -0.7010  -0.5698
    -0.4627  -0.3959  -0.3905   0.1590   0.2517   0.3830   0.5071   0.7078
     0.9041   1.1021   1.1414   1.2664   1.2758   1.2817   1.2914   1.3609
     1.4282   1.4614   1.5375   1.5379   1.5565   1.6567   1.6816   1.7296
     1.7581   1.7685   1.8080   1.8654   1.8790   1.9308   1.9391   1.9947
     2.0228   2.1207   2.1238   2.1330   2.2049   2.2687   2.3251   2.4647
     2.7811   2.7850   3.9754   4.4842   4.5212   4.5439   4.6312   5.3824
     6.1771   6.1907   6.8191   7.1864   8.0064   8.1029   8.7163   8.9096
     8.9837   9.1119   9.2427   9.3487   9.5130   9.5798   9.6051   9.7082
     9.8835

          k =-0.5000-0.5279 0.0000 ( 34620 PWs)   bands (ev):

   -35.6695 -35.5877 -23.0008 -22.5332 -22.4929 -22.4845 -17.0590 -17.0480
   -17.0400 -17.0317 -16.6658 -16.6528 -14.6572 -14.6489 -14.4696 -14.4209
   -14.3906 -14.3069 -14.1820 -14.1290 -14.0767 -14.0760 -14.0278 -13.9810
   -13.9569 -13.6630 -13.6200  -9.1512  -8.7684  -8.7259  -8.6808  -8.6764
    -8.5006  -8.4609  -8.3728  -8.3621  -8.0385  -7.9714  -7.9686  -4.1227
    -3.9814  -3.7980  -3.5706  -3.5350  -3.1881  -3.1862  -2.7601  -2.7311
    -2.6040  -2.4363  -2.3346  -2.3250  -2.3102  -2.2267  -2.0035  -1.9832
    -1.9301  -1.6431  -1.3784  -1.3601  -1.3391  -1.2017  -1.1710  -1.0496
    -1.0073  -1.0066  -1.0040  -0.9234  -0.8460  -0.8435  -0.6993  -0.5369
    -0.4614  -0.3672  -0.3629   0.1940   0.2915   0.4000   0.5418   0.8216
     1.0024   1.2655   1.3060   1.3279   1.3377   1.3459   1.3746   1.4081
     1.4410   1.6040   1.6061   1.6987   1.7243   1.7630   1.7959   1.8304
     1.8743   1.8913   1.9420   1.9519   1.9813   2.0111   2.0515   2.0658
     2.1527   2.2770   2.3142   2.3165   2.3836   2.4108   2.5260   2.5323
     2.5395   2.6287   4.0566   4.6836   4.7250   4.7482   4.8309   5.1552
     5.9498   5.9616   6.6902   7.0772   7.8760   8.1947   8.5794   8.9887
     9.0208   9.0406   9.1699   9.2057   9.2573   9.3958   9.8085   9.8615
     9.9428

     the Fermi energy is     2.5479 ev

!    total energy              =   -1842.86024261 Ry
     Harris-Foulkes estimate   =   -1842.86024261 Ry
     estimated scf accuracy    <          9.7E-13 Ry

     The total energy is the sum of the following terms:

     one-electron contribution =  -28821.79005341 Ry
     hartree contribution      =   14563.66169012 Ry
     xc contribution           =    -621.54521651 Ry
     ewald contribution        =   13036.82068623 Ry
     smearing contrib. (-TS)   =      -0.00734904 Ry

     convergence has been achieved in  31 iterations

     negative rho (up, down):  1.552E-03 0.000E+00

     Forces acting on atoms (cartesian axes, Ry/au):

     atom    1 type  4   force =     0.00000000   -0.00000023   -0.00047925
     atom    2 type  3   force =     0.00000000    0.00000058   -0.00158991
     atom    3 type  4   force =     0.00000000   -0.00000042    0.00053083
     atom    4 type  1   force =     0.00000000   -0.00000056   -0.00088703
     atom    5 type  3   force =     0.00000000    0.00000149    0.00103036
     atom    6 type  4   force =     0.00000000    0.00000062    0.00003827
     atom    7 type  4   force =     0.00000000   -0.00000323    0.00003529
     atom    8 type  2   force =     0.00000000    0.00000466   -0.00157862
     atom    9 type  4   force =     0.00000000    0.00008839    0.00305230
     atom   10 type  4   force =     0.00000000   -0.00001052    0.00273693
     atom   11 type  3   force =     0.00000000    0.00000300   -0.00143863
     atom   12 type  1   force =     0.00000000    0.00020807   -0.00337292
     atom   13 type  4   force =     0.00000000    0.00110979    0.02454032
     atom   14 type  4   force =     0.00000000    0.00173488   -0.00081585
     atom   15 type  3   force =     0.00000000   -0.00510555   -0.00888548
     atom   16 type  4   force =     0.00000000    0.00283636    0.00241919
     atom   17 type  1   force =     0.00000000   -0.00098619    0.00956699
     atom   18 type  3   force =     0.00000000    0.00320154   -0.00314693
     atom   19 type  4   force =     0.00000000    0.00191175   -0.00164492
     atom   20 type  4   force =     0.00000000   -0.00244090    0.00105077
     atom   21 type  2   force =     0.00000000   -0.00349237    0.00306833
     atom   22 type  4   force =     0.00000000    0.00041098   -0.00912733
     atom   23 type  4   force =     0.00000000    0.00012186   -0.00701565
     atom   24 type  3   force =     0.00000000    0.00045970   -0.00379079
     atom   25 type  1   force =     0.00000000   -0.00004275   -0.00592251
     atom   26 type  4   force =     0.00000000   -0.00001152   -0.00030604
     atom   27 type  3   force =     0.00000000    0.00000506    0.00141706
     atom   28 type  4   force =     0.00000000   -0.00000449    0.00051522

     Total force =     0.016440     Total SCF correction =     0.000001


     Computing stress (Cartesian axis) and pressure


     negative rho (up, down):  1.552E-03 0.000E+00
          total   stress  (Ry/bohr**3)                   (kbar)     P=      -10.13
  -0.00007128   0.00000000   0.00000000          -10.49        0.00        0.00
   0.00000000  -0.00004212  -0.00000088            0.00       -6.20       -0.13
   0.00000000  -0.00000088  -0.00009321            0.00       -0.13      -13.71


     bfgs converged in  13 scf cycles and  10 bfgs steps
     (criteria: energy <  1.0E-03 Ry, force <  1.0E-02 Ry/Bohr)

     End of BFGS Geometry Optimization

     Final energy   =   -1842.8602426110 Ry
Begin final coordinates

ATOMIC_POSITIONS (angstrom)
O             0.0000000000        1.8611200000       -0.1841069337    0   0   0
Cu            0.0000000000        0.0000000000        0.1036910355    0   0   0
O             0.0000000000        0.0000000000        1.9717651165    0   0   0
Ba            1.9651100000        1.8611200000        2.2301949284    0   0   0
Cu            0.0000000000        0.0000000000        4.0659789947    0   0   0
O             1.9651100000        0.0000000000        4.2203388272    0   0   0
O             0.0000000000        1.8611200000        4.3570777653    0   0   0
Ca            1.9651100000        1.8611200000        5.8696425738    0   0   0
O             0.0000000000        1.8611200000        7.3163608823    0   0   0
O             1.9651100000        0.0000000000        7.4639595567    0   0   0
Cu            0.0000000000        0.0000000000        7.6475479355    0   0   0
Ba            1.9651100000        1.8611200000        9.5222335915    0   0   0
O             0.0000000000        0.0000000000        9.8434584073    0   0   0
O             0.0000000000        1.8656768368       11.9638427404
Cu            0.0000000000        0.0095741071       11.7631732181
O             0.0000000000       -0.0083861689       13.6875555674
Ba            1.9651100000        1.8805803431       13.9990696654
Cu            0.0000000000       -0.0008009846       16.7901825179
O             1.9651100000       -0.0022966877       16.9948299818
O             0.0000000000        1.8648169672       17.1144920577
Ca            1.9651100000        1.8805753221       18.5359893643
O             0.0000000000        1.8611200000       20.2162556075    0   0   0
O             1.9651100000        0.0000000000       20.3529945456    0   0   0
Cu            0.0000000000        0.0000000000       20.5073643503    0   0   0
Ba            1.9651100000        1.8611200000       22.3431384444    0   0   0
O             0.0000000000        0.0000000000       22.6015283675    0   0   0
Cu            0.0000000000        0.0000000000       24.4696223929    0   0   0
O             0.0000000000        1.8611200000       24.7573705011    0   0   0
End final coordinates


 
     init_run     :      8.06s CPU      8.57s WALL (       1 calls)
     electrons    :   4468.78s CPU   4763.01s WALL (      10 calls)
     update_pot   :     14.42s CPU     14.51s WALL (       9 calls)
     forces       :     35.95s CPU     39.54s WALL (      10 calls)
     stress       :    232.59s CPU    242.25s WALL (      10 calls)

     Called by init_run:
     wfcinit      :      5.64s CPU      5.77s WALL (       1 calls)
     potinit      :      0.61s CPU      0.62s WALL (       1 calls)
     hinit0       :      1.02s CPU      1.04s WALL (       1 calls)

     Called by electrons:
     c_bands      :   3421.81s CPU   3504.03s WALL (     316 calls)
     sum_band     :    692.93s CPU    805.20s WALL (     316 calls)
     v_of_rho     :     27.52s CPU     27.84s WALL (     326 calls)
     newd         :    161.56s CPU    261.92s WALL (     326 calls)
     mix_rho      :    167.74s CPU    169.27s WALL (     316 calls)

     Called by c_bands:
     init_us_2    :     60.43s CPU     60.84s WALL (   16325 calls)
     cegterg      :   3181.73s CPU   3259.30s WALL (    7900 calls)

     Called by sum_band:
     sum_band:bec :      2.10s CPU      2.11s WALL (    7900 calls)
     addusdens    :    172.70s CPU    278.39s WALL (     316 calls)

     Called by *egterg:
     h_psi        :   1761.37s CPU   1809.85s WALL (   22348 calls)
     s_psi        :    174.18s CPU    175.67s WALL (   22348 calls)
     g_psi        :      5.88s CPU      5.93s WALL (   14423 calls)
     cdiaghg      :    516.44s CPU    518.62s WALL (   22098 calls)

     Called by h_psi:
     h_psi:calbec :    207.73s CPU    212.64s WALL (   22348 calls)
     vloc_psi     :   1363.55s CPU   1385.89s WALL (   22348 calls)
     add_vuspsi   :    177.60s CPU    189.39s WALL (   22348 calls)

     General routines
     calbec       :    354.35s CPU    359.91s WALL (   31498 calls)
     fft          :     22.26s CPU     22.43s WALL (    4477 calls)
     ffts         :     84.52s CPU     85.29s WALL (  143670 calls)
     fftw         :   1553.65s CPU   1578.59s WALL ( 5624026 calls)
     interpolate  :      1.97s CPU      1.99s WALL (     326 calls)
 
     Parallel routines
     fft_scatt_xy :    198.21s CPU    201.00s WALL ( 5772173 calls)
     fft_scatt_yz :    970.18s CPU    985.39s WALL ( 5772173 calls)
 
     PWSCF        :      1h19m CPU      1h24m WALL

 
   This run was terminated on:  23:54: 0   7Jul2021            

=------------------------------------------------------------------------------=
   JOB DONE.
=------------------------------------------------------------------------------=
[1625716440.562412] [holy7c04406:58309:0]          mpool.c:43   UCX  WARN  object 0x38e0980 was not returned to mpool ucp_requests
[1625716440.562990] [holy7c04207:142232:0]          mpool.c:43   UCX  WARN  object 0x438ab00 was not returned to mpool ucp_requests
[1625716440.575378] [holy7c04207:142231:0]          mpool.c:43   UCX  WARN  object 0x44d6540 was not returned to mpool ucp_requests
[1625716440.574902] [holy7c04207:142237:0]          mpool.c:43   UCX  WARN  object 0x45ec4c0 was not returned to mpool ucp_requests
[1625716440.574923] [holy7c04207:142237:0]          mpool.c:43   UCX  WARN  object 0x45ecd80 was not returned to mpool ucp_requests
[1625716440.562754] [holy7c04406:58310:0]          mpool.c:43   UCX  WARN  object 0x46bbe80 was not returned to mpool ucp_requests
[1625716440.563082] [holy7c04406:58308:0]          mpool.c:43   UCX  WARN  object 0x43c0f00 was not returned to mpool ucp_requests
[1625716440.563112] [holy7c04406:58308:0]          mpool.c:43   UCX  WARN  object 0x43c1440 was not returned to mpool ucp_requests
[1625716440.563147] [holy7c04406:58306:0]          mpool.c:43   UCX  WARN  object 0x29089c0 was not returned to mpool ucp_requests
[1625716440.574781] [holy7c04207:142233:0]          mpool.c:43   UCX  WARN  object 0x31efa00 was not returned to mpool ucp_requests
