
     Program PWSCF v.6.5 starts on  9Jul2021 at 12:48:27 

     This program is part of the open-source Quantum ESPRESSO suite
     for quantum simulation of materials; please cite
         "P. Giannozzi et al., J. Phys.:Condens. Matter 21 395502 (2009);
         "P. Giannozzi et al., J. Phys.:Condens. Matter 29 465901 (2017);
          URL http://www.quantum-espresso.org", 
     in publications or presentations arising from this work. More details at
     http://www.quantum-espresso.org/quote

     Parallel version (MPI), running on    20 processors

     MPI processes distributed on     2 nodes
     R & G space division:  proc/nbgrp/npool/nimage =      20
     Reading input from CBCO_Y_cleave_1.25_sep.pwi
Warning: card &CELL ignored
Warning: card     CELL_DYNAMICS = 'BFGS' ignored
Warning: card     PRESS_CONV_THR = 0.5 ignored
Warning: card / ignored

     Current dimensions of program PWSCF are:
     Max number of different atomic species (ntypx) = 10
     Max number of k-points (npk) =  40000
     Max angular momentum in pseudopotentials (lmaxx) =  3

     Subspace diagonalization in iterative solution of the eigenvalue problem:
     one sub-group per band group will be used
     scalapack distributed-memory algorithm (size of sub-group:  4*  4 procs)

     Message from routine setup:
     using ibrav=0 with symmetry is DISCOURAGED, use correct ibrav instead
 
     Parallelization info
     --------------------
     sticks:   dense  smooth     PW     G-vecs:    dense   smooth      PW
     Min         149      50     14                72165    13894    2172
     Max         150      51     15                72202    13919    2217
     Sum        2991    1007    289              1443693   278079   43709
 


     bravais-lattice index     =            0
     lattice parameter (alat)  =       7.4270  a.u.
     unit-cell volume          =    4425.7129 (a.u.)^3
     number of atoms/cell      =           28
     number of atomic types    =            4
     number of electrons       =       227.00
     number of Kohn-Sham states=          137
     kinetic-energy cutoff     =      60.0000  Ry
     charge density cutoff     =     720.0000  Ry
     convergence threshold     =      1.0E-10
     mixing beta               =       0.7000
     number of iterations used =           10  local-TF  mixing
     Exchange-correlation= SLA PW PBE PBE
                           (   1   4   3   4   0   0   0)
     nstep                     =          300


     celldm(1)=   7.427040  celldm(2)=   0.000000  celldm(3)=   0.000000
     celldm(4)=   0.000000  celldm(5)=   0.000000  celldm(6)=   0.000000

     crystal axes: (cart. coord. in units of alat)
               a(1) = (   1.000000   0.000000   0.000000 )  
               a(2) = (   0.000000   0.947081   0.000000 )  
               a(3) = (   0.000000   0.000000  11.406405 )  

     reciprocal axes: (cart. coord. in units 2 pi/alat)
               b(1) = (  1.000000  0.000000  0.000000 )  
               b(2) = (  0.000000  1.055876  0.000000 )  
               b(3) = (  0.000000  0.000000  0.087670 )  


     PseudoPot. # 1 for Ba read from file:
     ./pseudo/Ba.pbe-nsp-van.UPF
     MD5 check sum: 2b9c31dd849566dd297d80989662b7a0
     Pseudo is Ultrasoft + core correction, Zval = 10.0
     Generated by new atomic code, or converted to UPF format
     Using radial grid of  907 points,  6 beta functions with: 
                l(1) =   0
                l(2) =   0
                l(3) =   1
                l(4) =   1
                l(5) =   2
                l(6) =   2
     Q(r) pseudized with  6 coefficients,  rinner =    1.200   1.200   1.200
                                                       1.200   1.200

     PseudoPot. # 2 for Ca read from file:
     ./pseudo/Ca.pbe-nsp-van.UPF
     MD5 check sum: 6471098428ff4fa451746d08035ff179
     Pseudo is Ultrasoft + core correction, Zval = 10.0
     Generated by new atomic code, or converted to UPF format
     Using radial grid of  845 points,  6 beta functions with: 
                l(1) =   0
                l(2) =   0
                l(3) =   1
                l(4) =   1
                l(5) =   2
                l(6) =   2
     Q(r) pseudized with  6 coefficients,  rinner =    1.200   1.200   1.200
                                                       1.200   1.200

     PseudoPot. # 3 for Cu read from file:
     ./pseudo/Cu.pbe-n-van_ak.UPF
     MD5 check sum: 34e3282627ffb533726feb647e090d62
     Pseudo is Ultrasoft + core correction, Zval = 11.0
     Generated by new atomic code, or converted to UPF format
     Using radial grid of  867 points,  6 beta functions with: 
                l(1) =   0
                l(2) =   0
                l(3) =   1
                l(4) =   1
                l(5) =   2
                l(6) =   2
     Q(r) pseudized with  8 coefficients,  rinner =    1.400   1.400   1.400
                                                       1.400   1.400

     PseudoPot. # 4 for O  read from file:
     ./pseudo/O.pbe-van_ak.UPF
     MD5 check sum: 783ce7fe4c79b6a4916957118fed0856
     Pseudo is Ultrasoft, Zval =  6.0
     Generated by new atomic code, or converted to UPF format
     Using radial grid of  737 points,  4 beta functions with: 
                l(1) =   0
                l(2) =   0
                l(3) =   1
                l(4) =   1
     Q(r) pseudized with  8 coefficients,  rinner =    0.800   0.800   0.800


     atomic species   valence    mass     pseudopotential
        Ba            10.00   137.32700     Ba( 1.00)
        Ca            10.00    40.07800     Ca( 1.00)
        Cu            11.00    63.54600     Cu( 1.00)
        O              6.00    15.99900     O ( 1.00)

      4 Sym. Ops. (no inversion) found



   Cartesian axes

     site n.     atom                  positions (alat units)
         1           O   tau(   1) = (   0.0000000   0.4735409  -0.0469745  )
         2           Cu  tau(   2) = (   0.0000000   0.0000000   0.0264565  )
         3           O   tau(   3) = (   0.0000000   0.0000000   0.5030914  )
         4           Ba  tau(   4) = (   0.5000000   0.4735409   0.5690292  )
         5           Cu  tau(   5) = (   0.0000000   0.0000000   1.0374254  )
         6           O   tau(   6) = (   0.5000000   0.0000000   1.0768099  )
         7           O   tau(   7) = (   0.0000000   0.4735409   1.1116985  )
         8           Ca  tau(   8) = (   0.5000000   0.4735409   1.4976260  )
         9           O   tau(   9) = (   0.0000000   0.4735409   1.8667529  )
        10           O   tau(  10) = (   0.5000000   0.0000000   1.9044124  )
        11           Cu  tau(  11) = (   0.0000000   0.0000000   1.9512546  )
        12           Ba  tau(  12) = (   0.5000000   0.4735409   2.4295764  )
        13           O   tau(  13) = (   0.0000000   0.0000000   2.5115362  )
        14           O   tau(  14) = (   0.0000000   0.4735409   2.9918528  )
        15           Cu  tau(  15) = (   0.0000000   0.0000000   2.9919088  )
        16           O   tau(  16) = (   0.0000000   0.0000000   3.4468248  )
        17           Ba  tau(  17) = (   0.5000000   0.4735409   3.5287769  )
        18           Cu  tau(  18) = (   0.0000000   0.0000000   4.0579686  )
        19           O   tau(  19) = (   0.5000000   0.0000000   4.1048108  )
        20           O   tau(  20) = (   0.0000000   0.4735409   4.0915774  )
        21           Ca  tau(  21) = (   0.5000000   0.4735409   4.4607145  )
        22           O   tau(  22) = (   0.0000000   0.4735409   5.2155756  )
        23           O   tau(  23) = (   0.5000000   0.0000000   5.2504642  )
        24           Cu  tau(  24) = (   0.0000000   0.0000000   5.2389636  )
        25           Ba  tau(  25) = (   0.5000000   0.4735409   5.7328010  )
        26           O   tau(  26) = (   0.0000000   0.0000000   5.7987286  )
        27           Cu  tau(  27) = (   0.0000000   0.0000000   6.2753686  )
        28           O   tau(  28) = (   0.0000000   0.4735409   6.3487869  )

     number of k points=    25  Gaussian smearing, width (Ry)=  0.0100
                       cart. coord. in units 2pi/alat
        k(    1) = (   0.0000000   0.0000000   0.0000000), wk =   0.0312500
        k(    2) = (   0.0000000   0.1319845   0.0000000), wk =   0.0625000
        k(    3) = (   0.0000000   0.2639689   0.0000000), wk =   0.0625000
        k(    4) = (   0.0000000   0.3959534   0.0000000), wk =   0.0625000
        k(    5) = (   0.0000000  -0.5279378   0.0000000), wk =   0.0312500
        k(    6) = (   0.1250000   0.0000000   0.0000000), wk =   0.0625000
        k(    7) = (   0.1250000   0.1319845   0.0000000), wk =   0.1250000
        k(    8) = (   0.1250000   0.2639689   0.0000000), wk =   0.1250000
        k(    9) = (   0.1250000   0.3959534   0.0000000), wk =   0.1250000
        k(   10) = (   0.1250000  -0.5279378   0.0000000), wk =   0.0625000
        k(   11) = (   0.2500000   0.0000000   0.0000000), wk =   0.0625000
        k(   12) = (   0.2500000   0.1319845   0.0000000), wk =   0.1250000
        k(   13) = (   0.2500000   0.2639689   0.0000000), wk =   0.1250000
        k(   14) = (   0.2500000   0.3959534   0.0000000), wk =   0.1250000
        k(   15) = (   0.2500000  -0.5279378   0.0000000), wk =   0.0625000
        k(   16) = (   0.3750000   0.0000000   0.0000000), wk =   0.0625000
        k(   17) = (   0.3750000   0.1319845   0.0000000), wk =   0.1250000
        k(   18) = (   0.3750000   0.2639689   0.0000000), wk =   0.1250000
        k(   19) = (   0.3750000   0.3959534   0.0000000), wk =   0.1250000
        k(   20) = (   0.3750000  -0.5279378   0.0000000), wk =   0.0625000
        k(   21) = (  -0.5000000   0.0000000   0.0000000), wk =   0.0312500
        k(   22) = (  -0.5000000   0.1319845   0.0000000), wk =   0.0625000
        k(   23) = (  -0.5000000   0.2639689   0.0000000), wk =   0.0625000
        k(   24) = (  -0.5000000   0.3959534   0.0000000), wk =   0.0625000
        k(   25) = (  -0.5000000  -0.5279378   0.0000000), wk =   0.0312500

     Dense  grid:  1443693 G-vectors     FFT dimensions: (  64,  64, 729)

     Smooth grid:   278079 G-vectors     FFT dimensions: (  40,  36, 432)

     Estimated max dynamical RAM per process >     460.71 MB

     Estimated total dynamical RAM >       9.00 GB

     Initial potential from superposition of free atoms

     starting charge  226.84630, renormalised to  227.00000

     negative rho (up, down):  3.486E-03 0.000E+00
     Starting wfcs are  195 randomized atomic wfcs

     total cpu time spent up to now is       10.7 secs

     Self-consistent Calculation

     iteration #  1     ecut=    60.00 Ry     beta= 0.70
     Davidson diagonalization with overlap
     ethr =  1.00E-02,  avg # of iterations =  2.0

     negative rho (up, down):  2.896E-04 0.000E+00

     total cpu time spent up to now is       25.7 secs

     total energy              =   -1839.50227459 Ry
     Harris-Foulkes estimate   =   -1845.34308171 Ry
     estimated scf accuracy    <      17.69859460 Ry

     iteration #  2     ecut=    60.00 Ry     beta= 0.70
     Davidson diagonalization with overlap
     ethr =  7.80E-03,  avg # of iterations =  2.0

     negative rho (up, down):  2.645E-04 0.000E+00

     total cpu time spent up to now is       42.0 secs

     total energy              =   -1842.07302343 Ry
     Harris-Foulkes estimate   =   -1843.87306520 Ry
     estimated scf accuracy    <      13.22838651 Ry

     iteration #  3     ecut=    60.00 Ry     beta= 0.70
     Davidson diagonalization with overlap
     ethr =  5.83E-03,  avg # of iterations =  1.3

     negative rho (up, down):  2.482E-04 0.000E+00

     total cpu time spent up to now is       55.8 secs

     total energy              =   -1842.63478403 Ry
     Harris-Foulkes estimate   =   -1842.97950942 Ry
     estimated scf accuracy    <       3.47129987 Ry

     iteration #  4     ecut=    60.00 Ry     beta= 0.70
     Davidson diagonalization with overlap
     ethr =  1.53E-03,  avg # of iterations =  1.1

     negative rho (up, down):  2.424E-04 0.000E+00

     total cpu time spent up to now is       69.1 secs

     total energy              =   -1842.75634901 Ry
     Harris-Foulkes estimate   =   -1842.93032505 Ry
     estimated scf accuracy    <       6.50075708 Ry

     iteration #  5     ecut=    60.00 Ry     beta= 0.70
     Davidson diagonalization with overlap
     ethr =  1.53E-03,  avg # of iterations =  1.0

     negative rho (up, down):  2.397E-04 0.000E+00

     total cpu time spent up to now is       82.5 secs

     total energy              =   -1842.79872122 Ry
     Harris-Foulkes estimate   =   -1842.82921586 Ry
     estimated scf accuracy    <       2.79346583 Ry

     iteration #  6     ecut=    60.00 Ry     beta= 0.70
     Davidson diagonalization with overlap
     ethr =  1.23E-03,  avg # of iterations =  1.0

     negative rho (up, down):  2.333E-04 0.000E+00

     total cpu time spent up to now is       96.0 secs

     total energy              =   -1842.77771605 Ry
     Harris-Foulkes estimate   =   -1842.81191962 Ry
     estimated scf accuracy    <       1.39330236 Ry

     iteration #  7     ecut=    60.00 Ry     beta= 0.70
     Davidson diagonalization with overlap
     ethr =  6.14E-04,  avg # of iterations =  2.6

     negative rho (up, down):  2.317E-04 0.000E+00

     total cpu time spent up to now is      111.0 secs

     total energy              =   -1842.77124947 Ry
     Harris-Foulkes estimate   =   -1842.80435989 Ry
     estimated scf accuracy    <       2.15073745 Ry

     iteration #  8     ecut=    60.00 Ry     beta= 0.70
     Davidson diagonalization with overlap
     ethr =  6.14E-04,  avg # of iterations =  1.7

     negative rho (up, down):  2.292E-04 0.000E+00

     total cpu time spent up to now is      125.4 secs

     total energy              =   -1842.77395413 Ry
     Harris-Foulkes estimate   =   -1842.78568485 Ry
     estimated scf accuracy    <       0.85178395 Ry

     iteration #  9     ecut=    60.00 Ry     beta= 0.70
     Davidson diagonalization with overlap
     ethr =  3.75E-04,  avg # of iterations =  4.1

     negative rho (up, down):  2.282E-04 0.000E+00

     total cpu time spent up to now is      142.1 secs

     total energy              =   -1842.76915572 Ry
     Harris-Foulkes estimate   =   -1842.77827476 Ry
     estimated scf accuracy    <       0.29171700 Ry

     iteration # 10     ecut=    60.00 Ry     beta= 0.70
     Davidson diagonalization with overlap
     c_bands:  3 eigenvalues not converged
     ethr =  1.29E-04,  avg # of iterations =  8.1

     negative rho (up, down):  2.269E-04 0.000E+00

     total cpu time spent up to now is      163.3 secs

     total energy              =   -1842.76974698 Ry
     Harris-Foulkes estimate   =   -1842.77385300 Ry
     estimated scf accuracy    <       0.20583198 Ry

     iteration # 11     ecut=    60.00 Ry     beta= 0.70
     Davidson diagonalization with overlap
     ethr =  9.07E-05,  avg # of iterations =  1.2

     negative rho (up, down):  2.262E-04 0.000E+00

     total cpu time spent up to now is      176.7 secs

     total energy              =   -1842.76919439 Ry
     Harris-Foulkes estimate   =   -1842.77120144 Ry
     estimated scf accuracy    <       0.11622633 Ry

     iteration # 12     ecut=    60.00 Ry     beta= 0.70
     Davidson diagonalization with overlap
     ethr =  5.12E-05,  avg # of iterations =  1.8

     negative rho (up, down):  2.264E-04 0.000E+00

     total cpu time spent up to now is      190.8 secs

     total energy              =   -1842.76818684 Ry
     Harris-Foulkes estimate   =   -1842.76995400 Ry
     estimated scf accuracy    <       0.10525044 Ry

     iteration # 13     ecut=    60.00 Ry     beta= 0.70
     Davidson diagonalization with overlap
     ethr =  4.64E-05,  avg # of iterations =  1.2

     negative rho (up, down):  2.271E-04 0.000E+00

     total cpu time spent up to now is      204.5 secs

     total energy              =   -1842.76773823 Ry
     Harris-Foulkes estimate   =   -1842.76886527 Ry
     estimated scf accuracy    <       0.10083682 Ry

     iteration # 14     ecut=    60.00 Ry     beta= 0.70
     Davidson diagonalization with overlap
     ethr =  4.44E-05,  avg # of iterations =  1.8

     negative rho (up, down):  7.147E-04 0.000E+00

     total cpu time spent up to now is      218.9 secs

     total energy              =   -1842.76674488 Ry
     Harris-Foulkes estimate   =   -1842.76811711 Ry
     estimated scf accuracy    <       0.09629449 Ry

     iteration # 15     ecut=    60.00 Ry     beta= 0.70
     Davidson diagonalization with overlap
     ethr =  4.24E-05,  avg # of iterations =  2.2

     negative rho (up, down):  2.286E-04 0.000E+00

     total cpu time spent up to now is      233.3 secs

     total energy              =   -1842.76542164 Ry
     Harris-Foulkes estimate   =   -1842.76725435 Ry
     estimated scf accuracy    <       0.11038268 Ry

     iteration # 16     ecut=    60.00 Ry     beta= 0.70
     Davidson diagonalization with overlap
     ethr =  4.24E-05,  avg # of iterations =  1.8

     negative rho (up, down):  8.727E-03 0.000E+00

     total cpu time spent up to now is      247.4 secs

     total energy              =   -1842.76328129 Ry
     Harris-Foulkes estimate   =   -1842.76638424 Ry
     estimated scf accuracy    <       0.06432302 Ry

     iteration # 17     ecut=    60.00 Ry     beta= 0.70
     Davidson diagonalization with overlap
     ethr =  2.83E-05,  avg # of iterations =  6.4

     negative rho (up, down):  1.404E-02 0.000E+00

     total cpu time spent up to now is      266.7 secs

     total energy              =   -1842.76297873 Ry
     Harris-Foulkes estimate   =   -1842.76407959 Ry
     estimated scf accuracy    <       0.01435705 Ry

     iteration # 18     ecut=    60.00 Ry     beta= 0.70
     Davidson diagonalization with overlap
     ethr =  6.32E-06,  avg # of iterations =  9.3

     negative rho (up, down):  1.011E-02 0.000E+00

     total cpu time spent up to now is      289.5 secs

     total energy              =   -1842.76292532 Ry
     Harris-Foulkes estimate   =   -1842.76332047 Ry
     estimated scf accuracy    <       0.01549526 Ry

     iteration # 19     ecut=    60.00 Ry     beta= 0.70
     Davidson diagonalization with overlap
     ethr =  6.32E-06,  avg # of iterations =  3.8

     negative rho (up, down):  8.331E-03 0.000E+00

     total cpu time spent up to now is      305.6 secs

     total energy              =   -1842.76292900 Ry
     Harris-Foulkes estimate   =   -1842.76304277 Ry
     estimated scf accuracy    <       0.01035010 Ry

     iteration # 20     ecut=    60.00 Ry     beta= 0.70
     Davidson diagonalization with overlap
     ethr =  4.56E-06,  avg # of iterations =  1.6

     negative rho (up, down):  2.264E-03 0.000E+00

     total cpu time spent up to now is      319.7 secs

     total energy              =   -1842.76280377 Ry
     Harris-Foulkes estimate   =   -1842.76295828 Ry
     estimated scf accuracy    <       0.00602179 Ry

     iteration # 21     ecut=    60.00 Ry     beta= 0.70
     Davidson diagonalization with overlap
     ethr =  2.65E-06,  avg # of iterations =  7.1

     negative rho (up, down):  1.488E-03 0.000E+00

     total cpu time spent up to now is      339.6 secs

     total energy              =   -1842.76283911 Ry
     Harris-Foulkes estimate   =   -1842.76286884 Ry
     estimated scf accuracy    <       0.00126631 Ry

     iteration # 22     ecut=    60.00 Ry     beta= 0.70
     Davidson diagonalization with overlap
     c_bands:  1 eigenvalues not converged
     ethr =  5.58E-07,  avg # of iterations =  6.3

     negative rho (up, down):  6.955E-04 0.000E+00

     total cpu time spent up to now is      358.1 secs

     total energy              =   -1842.76285630 Ry
     Harris-Foulkes estimate   =   -1842.76286423 Ry
     estimated scf accuracy    <       0.00080952 Ry

     iteration # 23     ecut=    60.00 Ry     beta= 0.70
     Davidson diagonalization with overlap
     ethr =  3.57E-07,  avg # of iterations =  7.0

     negative rho (up, down):  7.978E-04 0.000E+00

     total cpu time spent up to now is      377.8 secs

     total energy              =   -1842.76286808 Ry
     Harris-Foulkes estimate   =   -1842.76286697 Ry
     estimated scf accuracy    <       0.00052991 Ry

     iteration # 24     ecut=    60.00 Ry     beta= 0.70
     Davidson diagonalization with overlap
     ethr =  2.33E-07,  avg # of iterations =  1.6

     negative rho (up, down):  1.635E-03 0.000E+00

     total cpu time spent up to now is      391.8 secs

     total energy              =   -1842.76286933 Ry
     Harris-Foulkes estimate   =   -1842.76287155 Ry
     estimated scf accuracy    <       0.00033486 Ry

     iteration # 25     ecut=    60.00 Ry     beta= 0.70
     Davidson diagonalization with overlap
     ethr =  1.48E-07,  avg # of iterations =  3.1

     negative rho (up, down):  1.406E-03 0.000E+00

     total cpu time spent up to now is      407.3 secs

     total energy              =   -1842.76286985 Ry
     Harris-Foulkes estimate   =   -1842.76287199 Ry
     estimated scf accuracy    <       0.00001619 Ry

     iteration # 26     ecut=    60.00 Ry     beta= 0.70
     Davidson diagonalization with overlap
     ethr =  7.13E-09,  avg # of iterations =  1.3

     negative rho (up, down):  1.560E-03 0.000E+00

     total cpu time spent up to now is      421.4 secs

     total energy              =   -1842.76286994 Ry
     Harris-Foulkes estimate   =   -1842.76287120 Ry
     estimated scf accuracy    <       0.00002248 Ry

     iteration # 27     ecut=    60.00 Ry     beta= 0.70
     Davidson diagonalization with overlap
     ethr =  7.13E-09,  avg # of iterations =  1.0

     negative rho (up, down):  1.540E-03 0.000E+00

     total cpu time spent up to now is      435.0 secs

     total energy              =   -1842.76287031 Ry
     Harris-Foulkes estimate   =   -1842.76287072 Ry
     estimated scf accuracy    <       0.00000460 Ry

     iteration # 28     ecut=    60.00 Ry     beta= 0.70
     Davidson diagonalization with overlap
     ethr =  2.03E-09,  avg # of iterations =  1.6

     negative rho (up, down):  1.616E-03 0.000E+00

     total cpu time spent up to now is      449.1 secs

     total energy              =   -1842.76287035 Ry
     Harris-Foulkes estimate   =   -1842.76287050 Ry
     estimated scf accuracy    <       0.00000277 Ry

     iteration # 29     ecut=    60.00 Ry     beta= 0.70
     Davidson diagonalization with overlap
     ethr =  1.22E-09,  avg # of iterations =  1.2

     negative rho (up, down):  1.611E-03 0.000E+00

     total cpu time spent up to now is      462.7 secs

     total energy              =   -1842.76287041 Ry
     Harris-Foulkes estimate   =   -1842.76287044 Ry
     estimated scf accuracy    <       0.00000069 Ry

     iteration # 30     ecut=    60.00 Ry     beta= 0.70
     Davidson diagonalization with overlap
     ethr =  3.03E-10,  avg # of iterations =  2.5

     negative rho (up, down):  1.546E-03 0.000E+00

     total cpu time spent up to now is      477.7 secs

     total energy              =   -1842.76287047 Ry
     Harris-Foulkes estimate   =   -1842.76287045 Ry
     estimated scf accuracy    <       0.00000062 Ry

     iteration # 31     ecut=    60.00 Ry     beta= 0.70
     Davidson diagonalization with overlap
     ethr =  2.75E-10,  avg # of iterations =  1.0

     negative rho (up, down):  1.492E-03 0.000E+00

     total cpu time spent up to now is      491.0 secs

     total energy              =   -1842.76287053 Ry
     Harris-Foulkes estimate   =   -1842.76287048 Ry
     estimated scf accuracy    <       0.00000023 Ry

     iteration # 32     ecut=    60.00 Ry     beta= 0.70
     Davidson diagonalization with overlap
     ethr =  9.93E-11,  avg # of iterations =  1.8

     negative rho (up, down):  1.489E-03 0.000E+00

     total cpu time spent up to now is      505.4 secs

     total energy              =   -1842.76287054 Ry
     Harris-Foulkes estimate   =   -1842.76287054 Ry
     estimated scf accuracy    <       0.00000006 Ry

     iteration # 33     ecut=    60.00 Ry     beta= 0.70
     Davidson diagonalization with overlap
     ethr =  2.80E-11,  avg # of iterations =  2.4

     negative rho (up, down):  1.491E-03 0.000E+00

     total cpu time spent up to now is      520.4 secs

     total energy              =   -1842.76287054 Ry
     Harris-Foulkes estimate   =   -1842.76287054 Ry
     estimated scf accuracy    <          8.0E-09 Ry

     iteration # 34     ecut=    60.00 Ry     beta= 0.70
     Davidson diagonalization with overlap
     ethr =  3.51E-12,  avg # of iterations =  3.8

     negative rho (up, down):  1.491E-03 0.000E+00

     total cpu time spent up to now is      539.2 secs

     total energy              =   -1842.76287054 Ry
     Harris-Foulkes estimate   =   -1842.76287054 Ry
     estimated scf accuracy    <       0.00000001 Ry

     iteration # 35     ecut=    60.00 Ry     beta= 0.70
     Davidson diagonalization with overlap
     ethr =  3.51E-12,  avg # of iterations =  1.0

     negative rho (up, down):  1.492E-03 0.000E+00

     total cpu time spent up to now is      552.8 secs

     total energy              =   -1842.76287054 Ry
     Harris-Foulkes estimate   =   -1842.76287054 Ry
     estimated scf accuracy    <          3.7E-09 Ry

     iteration # 36     ecut=    60.00 Ry     beta= 0.70
     Davidson diagonalization with overlap
     ethr =  1.62E-12,  avg # of iterations =  1.0

     negative rho (up, down):  1.492E-03 0.000E+00

     total cpu time spent up to now is      566.6 secs

     total energy              =   -1842.76287054 Ry
     Harris-Foulkes estimate   =   -1842.76287054 Ry
     estimated scf accuracy    <          3.6E-09 Ry

     iteration # 37     ecut=    60.00 Ry     beta= 0.70
     Davidson diagonalization with overlap
     ethr =  1.59E-12,  avg # of iterations =  1.0

     negative rho (up, down):  1.494E-03 0.000E+00

     total cpu time spent up to now is      580.4 secs

     total energy              =   -1842.76287054 Ry
     Harris-Foulkes estimate   =   -1842.76287054 Ry
     estimated scf accuracy    <          3.6E-09 Ry

     iteration # 38     ecut=    60.00 Ry     beta= 0.70
     Davidson diagonalization with overlap
     ethr =  1.56E-12,  avg # of iterations =  1.0

     negative rho (up, down):  1.496E-03 0.000E+00

     total cpu time spent up to now is      594.0 secs

     total energy              =   -1842.76287053 Ry
     Harris-Foulkes estimate   =   -1842.76287054 Ry
     estimated scf accuracy    <          3.7E-10 Ry

     iteration # 39     ecut=    60.00 Ry     beta= 0.70
     Davidson diagonalization with overlap
     ethr =  1.61E-13,  avg # of iterations =  1.0

     negative rho (up, down):  1.496E-03 0.000E+00

     total cpu time spent up to now is      607.4 secs

     total energy              =   -1842.76287053 Ry
     Harris-Foulkes estimate   =   -1842.76287053 Ry
     estimated scf accuracy    <          2.0E-10 Ry

     iteration # 40     ecut=    60.00 Ry     beta= 0.70
     Davidson diagonalization with overlap
     ethr =  1.00E-13,  avg # of iterations =  1.0

     negative rho (up, down):  1.496E-03 0.000E+00

     total cpu time spent up to now is      620.5 secs

     End of self-consistent calculation

          k = 0.0000 0.0000 0.0000 ( 34843 PWs)   bands (ev):

   -37.7088 -35.5930 -22.8871 -22.8029 -22.5480 -22.2880 -18.8793 -18.7342
   -18.7028 -17.0978 -16.6439 -16.6327 -15.5153 -15.3100 -15.0030 -14.9855
   -14.6831 -14.5794 -14.5135 -14.4812 -14.1935 -13.9934 -13.9920 -13.8430
   -13.8247 -13.6861 -13.6633  -8.1180  -7.9342  -7.8967  -7.8811  -7.7499
    -7.7369  -7.7038  -7.5899  -7.4239  -7.4044  -7.3572  -7.2126  -2.3861
    -2.3419  -2.1395  -2.0402  -2.0180  -1.8411  -1.7680  -1.6777  -1.5448
    -1.4907  -1.4633  -1.2323  -1.2275  -1.2264  -1.1642  -1.0890  -1.0114
    -0.9978  -0.8334  -0.4707  -0.3889  -0.3515  -0.3490  -0.3158  -0.2876
    -0.2767  -0.2752  -0.2745  -0.2647  -0.2479  -0.2461  -0.2218  -0.2032
    -0.1858  -0.1576  -0.0493  -0.0200   0.0413   0.0489   0.0543   0.0869
     0.0872   0.0899   0.1630   0.1644   0.2133   0.2982   0.3108   0.3157
     0.5828   0.5933   0.7645   0.7722   0.8633   0.8699   0.9377   0.9607
     0.9667   1.0513   1.1409   1.1735   1.3382   1.3470   1.4322   1.5112
     1.5130   1.6633   1.6889   1.6965   1.8171   1.9915   2.0177   2.0433
     2.1155   2.1846   2.2218   2.2563   2.2677   2.5025   2.5237   4.2498
     5.2047   5.3339   5.8346   6.2559   6.6939   6.7518   6.8142   7.2420
     7.3471   7.7189   7.9110   7.9769   8.1569   8.2627   8.3098   8.4775
     8.5139

          k = 0.0000 0.1320 0.0000 ( 34781 PWs)   bands (ev):

   -37.7071 -35.5911 -22.8629 -22.7762 -22.5226 -22.2601 -18.8819 -18.7322
   -18.7287 -17.0616 -16.7053 -16.6416 -15.4546 -15.2214 -14.9452 -14.9315
   -14.6881 -14.5521 -14.4935 -14.4835 -14.2029 -14.0302 -13.9980 -13.8925
   -13.8727 -13.7179 -13.7156  -8.1097  -7.9338  -7.8489  -7.8377  -7.8081
    -7.7463  -7.7312  -7.5449  -7.4711  -7.3666  -7.3552  -7.2459  -2.4609
    -2.3996  -2.3157  -2.1783  -2.1103  -2.0643  -2.0535  -1.8000  -1.6860
    -1.6576  -1.6565  -1.6315  -1.5270  -1.4636  -1.3691  -1.2321  -1.1092
    -0.9411  -0.8847  -0.6906  -0.6388  -0.6075  -0.5681  -0.4907  -0.4733
    -0.4720  -0.4647  -0.3410  -0.2848  -0.2624  -0.2380  -0.1837  -0.1599
    -0.1430  -0.1306  -0.0279  -0.0045  -0.0013   0.0566   0.1105   0.1255
     0.1347   0.1636   0.1667   0.1917   0.2614   0.2710   0.3627   0.4900
     0.5932   0.6922   0.7133   0.9097   1.0308   1.0670   1.1009   1.1298
     1.1767   1.1804   1.1862   1.2856   1.3707   1.3830   1.4288   1.5031
     1.5370   1.5976   1.6800   1.6983   1.8074   1.8603   1.9555   2.0155
     2.0891   2.1009   2.1185   2.4140   2.7915   2.8166   2.8753   4.4778
     5.5811   5.6882   6.1128   6.5517   6.8483   6.9987   7.0576   7.4591
     7.6042   7.7642   7.7653   8.1526   8.3447   8.3741   8.4197   8.5414
     8.7500

          k = 0.0000 0.2640 0.0000 ( 34663 PWs)   bands (ev):

   -37.7029 -35.5867 -22.8034 -22.7103 -22.4600 -22.1910 -18.9168 -18.7601
   -18.7273 -16.9695 -16.8597 -16.6360 -15.2913 -15.0221 -14.8041 -14.7904
   -14.7355 -14.5442 -14.4903 -14.4294 -14.1900 -14.0960 -14.0385 -14.0288
   -13.9918 -13.8147 -13.7889  -8.0932  -7.9333  -7.9232  -7.8364  -7.7291
    -7.7285  -7.7278  -7.5731  -7.4319  -7.3889  -7.3172  -7.2308  -3.0517
    -2.8471  -2.7905  -2.6220  -2.6010  -2.4407  -2.3603  -2.3402  -2.2932
    -2.0386  -2.0200  -1.8503  -1.6042  -1.5044  -1.4708  -1.4182  -1.2235
    -1.1594  -1.0370  -0.9960  -0.9903  -0.9214  -0.8385  -0.8193  -0.7187
    -0.7141  -0.6635  -0.6337  -0.5425  -0.5324  -0.5092  -0.4997  -0.3290
    -0.2625  -0.2181   0.0003   0.0176   0.0250   0.0257   0.0838   0.1456
     0.1862   0.2088   0.3210   0.3654   0.6089   0.6229   0.6846   0.7700
     0.7878   0.9413   0.9596   0.9742   1.1112   1.1330   1.1523   1.1869
     1.2775   1.2804   1.2871   1.3589   1.4182   1.4449   1.5648   1.6275
     1.6385   1.6426   1.7917   1.8950   1.9405   1.9459   1.9618   1.9952
     2.1042   2.1253   2.1783   2.5462   3.0290   3.1048   3.7952   4.9303
     6.4748   6.5716   6.7044   7.0471   7.2237   7.3040   7.5177   7.8767
     8.2016   8.3038   8.3411   8.4460   8.4959   8.6640   8.8297   8.8634
     9.0059

          k = 0.0000 0.3960 0.0000 ( 34610 PWs)   bands (ev):

   -37.6988 -35.5823 -22.7422 -22.6422 -22.3954 -22.1194 -18.9834 -18.7563
   -18.7224 -16.9960 -16.8678 -16.6303 -15.0744 -14.9461 -14.7119 -14.6978
   -14.6902 -14.5720 -14.4492 -14.3587 -14.1899 -14.1563 -14.1129 -14.1017
   -14.0859 -13.9009 -13.8815  -8.0927  -8.0068  -7.9333  -7.9146  -7.7219
    -7.6629  -7.6142  -7.6000  -7.4107  -7.3772  -7.3120  -7.0977  -3.6173
    -3.4999  -3.3003  -3.2541  -3.0638  -3.0073  -2.9726  -2.3842  -2.3689
    -2.1953  -2.0744  -1.8668  -1.8250  -1.6349  -1.5576  -1.5396  -1.3891
    -1.2831  -1.2222  -1.2068  -1.2032  -1.1422  -1.0876  -1.0019  -0.9623
    -0.9382  -0.8775  -0.8376  -0.7626  -0.7417  -0.7189  -0.6192  -0.3478
    -0.2795  -0.2214  -0.1861  -0.0853   0.0174   0.0444   0.1137   0.1375
     0.1591   0.1849   0.3962   0.4828   0.7589   0.7722   0.8004   0.8263
     0.8634   0.9149   0.9548   1.0844   1.1086   1.1233   1.1733   1.1957
     1.3573   1.4107   1.4963   1.5996   1.6080   1.6105   1.6635   1.7228
     1.7409   1.9261   1.9394   1.9908   2.0382   2.0498   2.1739   2.2435
     2.2607   2.3558   2.3846   2.4857   2.9241   3.0936   4.4293   5.3622
     6.8192   7.2811   7.3311   7.4222   7.5017   7.5828   8.2498   8.3179
     8.4860   8.6687   8.8106   8.9376   9.0822   9.0843   9.1202   9.4006
     9.4121

          k = 0.0000-0.5279 0.0000 ( 34682 PWs)   bands (ev):

   -37.6970 -35.5805 -22.7163 -22.6132 -22.3681 -22.0889 -19.0146 -18.7502
   -18.7203 -17.0482 -16.8228 -16.6280 -14.9886 -14.8728 -14.8480 -14.7156
   -14.5774 -14.5067 -14.3658 -14.3544 -14.2580 -14.2031 -14.1350 -14.0839
   -14.0549 -13.9999 -13.9161  -8.1083  -8.0215  -7.9443  -7.9329  -7.7140
    -7.7024  -7.5645  -7.5441  -7.4225  -7.3962  -7.2600  -7.0396  -3.8445
    -3.7493  -3.4968  -3.4789  -3.2465  -3.2222  -3.2072  -2.4003  -2.3713
    -2.3279  -2.0745  -1.9544  -1.7590  -1.7228  -1.6517  -1.5074  -1.4805
    -1.3730  -1.2938  -1.2441  -1.2397  -1.2221  -1.2111  -1.1003  -1.0761
    -0.9998  -0.9562  -0.9399  -0.8493  -0.8265  -0.7958  -0.5937  -0.3146
    -0.2881  -0.2850  -0.1904  -0.1437   0.0230   0.0509   0.1111   0.1366
     0.1622   0.1815   0.4122   0.4177   0.6795   0.7411   0.8039   0.8465
     0.8721   0.9075   1.0010   1.0035   1.1063   1.1583   1.1620   1.3137
     1.3742   1.4650   1.5838   1.6648   1.7098   1.7274   1.7289   1.9567
     2.0027   2.0106   2.0210   2.0274   2.0589   2.1193   2.1879   2.2379
     2.3000   2.4466   2.5173   2.5419   2.7471   3.0068   4.6276   5.5850
     6.6698   7.2636   7.5609   7.5621   7.8348   8.0595   8.2605   8.4995
     8.8165   8.9533   8.9865   9.0005   9.1560   9.2630   9.3130   9.4052
     9.4239

          k = 0.1250 0.0000 0.0000 ( 34755 PWs)   bands (ev):

   -37.7080 -35.5919 -22.8702 -22.7849 -22.5308 -22.2692 -18.8769 -18.7528
   -18.7017 -17.0644 -16.7242 -16.6314 -15.4713 -15.2081 -15.0120 -14.9649
   -14.7284 -14.5842 -14.5348 -14.5016 -14.2024 -14.0181 -14.0042 -13.8903
   -13.8450 -13.7165 -13.6964  -8.1605  -7.9600  -7.8396  -7.8346  -7.7519
    -7.7203  -7.6713  -7.5304  -7.4100  -7.3935  -7.3158  -7.1791  -2.4349
    -2.3845  -2.2875  -2.0552  -2.0054  -1.8833  -1.8189  -1.8183  -1.7396
    -1.4642  -1.4457  -1.4330  -1.2555  -1.2303  -1.2251  -1.1451  -1.0542
    -1.0369  -0.8547  -0.6434  -0.5816  -0.5264  -0.4626  -0.4379  -0.3833
    -0.3588  -0.3509  -0.3456  -0.2816  -0.2788  -0.2520  -0.2359  -0.2180
    -0.2038  -0.1647  -0.0580  -0.0227   0.0685   0.0797   0.0838   0.0865
     0.1082   0.1714   0.1826   0.2106   0.2239   0.2480   0.3801   0.4123
     0.5605   0.6531   0.7457   0.7802   0.8481   0.8695   0.8764   0.9808
     1.0070   1.1749   1.1928   1.2720   1.3009   1.3550   1.4707   1.5216
     1.5739   1.6330   1.7167   1.8550   1.9306   1.9534   1.9853   2.0501
     2.0637   2.1594   2.1781   2.1950   2.3063   2.5586   2.5769   4.4356
     5.3849   5.4996   6.0020   6.4610   6.8031   6.9542   6.9672   7.4421
     7.5127   7.6812   7.8298   8.1185   8.2114   8.3058   8.4992   8.7082
     8.7644

          k = 0.1250 0.1320 0.0000 ( 34736 PWs)   bands (ev):

   -37.7062 -35.5901 -22.8467 -22.7590 -22.5062 -22.2421 -18.8791 -18.7559
   -18.7228 -17.0292 -16.7274 -16.6945 -15.4121 -15.1268 -14.9552 -14.9094
   -14.7225 -14.5544 -14.5101 -14.5012 -14.2034 -14.0410 -14.0105 -13.9257
   -13.8874 -13.7451 -13.7431  -8.1406  -7.9793  -7.9519  -7.8971  -7.7587
    -7.6682  -7.6337  -7.6222  -7.4646  -7.3523  -7.3448  -7.1389  -2.5092
    -2.4364  -2.3278  -2.2258  -2.1650  -2.0820  -2.0441  -1.8625  -1.8154
    -1.7860  -1.6748  -1.6506  -1.6310  -1.4694  -1.4306  -1.3745  -1.2515
    -0.9976  -0.8735  -0.8292  -0.7881  -0.7198  -0.6873  -0.6160  -0.5484
    -0.5394  -0.5197  -0.5146  -0.3704  -0.2856  -0.2773  -0.2224  -0.2012
    -0.1603  -0.1323  -0.1187  -0.0333  -0.0008   0.0708   0.1227   0.1415
     0.1837   0.1943   0.2095   0.2241   0.2814   0.3681   0.5015   0.5843
     0.6347   0.7491   0.8903   0.9343   0.9919   1.0250   1.1031   1.1389
     1.1937   1.2048   1.2331   1.2736   1.3013   1.3634   1.4121   1.5623
     1.5787   1.6371   1.6514   1.7219   1.7849   1.8749   1.9341   2.1341
     2.1824   2.3343   2.4785   2.5445   2.8026   2.8334   2.8918   4.6020
     5.7234   5.8264   6.2310   6.7142   6.9389   7.0964   7.2620   7.6103
     7.6407   7.7738   7.8411   8.2487   8.3091   8.4787   8.6475   8.6681
     8.8914

          k = 0.1250 0.2640 0.0000 ( 34685 PWs)   bands (ev):

   -37.7021 -35.5857 -22.7890 -22.6952 -22.4454 -22.1752 -18.9133 -18.7758
   -18.7298 -16.9399 -16.8567 -16.7069 -15.2534 -14.9535 -14.8036 -14.7747
   -14.7216 -14.5511 -14.4847 -14.4289 -14.1854 -14.0881 -14.0596 -14.0290
   -13.9838 -13.8271 -13.8122  -8.1124  -8.0903  -8.0483  -7.9341  -7.7646
    -7.7430  -7.6469  -7.6242  -7.5422  -7.3814  -7.3465  -7.1208  -3.0823
    -2.8689  -2.7825  -2.6348  -2.6107  -2.4413  -2.3568  -2.3506  -2.2926
    -2.1993  -2.0432  -1.8448  -1.8107  -1.7160  -1.5133  -1.4761  -1.4195
    -1.2272  -1.1979  -1.0569  -0.9989  -0.9936  -0.9524  -0.8997  -0.8524
    -0.8380  -0.7330  -0.7061  -0.6619  -0.5856  -0.5399  -0.5142  -0.4232
    -0.3299  -0.1732  -0.1565  -0.1300  -0.0513   0.1178   0.1844   0.2010
     0.2216   0.3855   0.4734   0.4894   0.6470   0.7321   0.7425   0.7886
     0.8777   1.0054   1.0284   1.0925   1.1213   1.2213   1.2734   1.2972
     1.3102   1.3392   1.3453   1.3784   1.3992   1.5166   1.5694   1.5887
     1.6228   1.6541   1.6895   1.8647   1.9257   1.9772   2.0424   2.2014
     2.4524   2.5324   2.7016   2.7765   3.0407   3.1194   3.7992   4.9810
     6.5358   6.6402   6.6898   7.1067   7.2665   7.3663   7.3823   8.0410
     8.2202   8.2978   8.4224   8.5536   8.5983   8.7822   8.8829   8.9718
     9.0359

          k = 0.1250 0.3960 0.0000 ( 34670 PWs)   bands (ev):

   -37.6979 -35.5813 -22.7296 -22.6292 -22.3828 -22.1059 -18.9802 -18.7750
   -18.7212 -16.9908 -16.8412 -16.6983 -15.0439 -14.9113 -14.6839 -14.6741
   -14.6165 -14.5744 -14.4297 -14.3399 -14.1723 -14.1508 -14.1347 -14.0901
   -14.0848 -13.9067 -13.8760  -8.2018  -8.0787  -8.0542  -7.9456  -7.8184
    -7.7630  -7.6693  -7.6575  -7.5598  -7.4128  -7.3866  -7.1587  -3.6579
    -3.4969  -3.3413  -3.2754  -3.0931  -2.9990  -2.9656  -2.3924  -2.3834
    -2.1713  -2.0800  -2.0279  -1.8040  -1.6678  -1.6551  -1.6184  -1.5786
    -1.5315  -1.3514  -1.3402  -1.2689  -1.2021  -1.1379  -1.1328  -1.0817
    -0.9904  -0.9021  -0.8827  -0.8512  -0.7681  -0.7670  -0.6479  -0.5214
    -0.3828  -0.2158  -0.1823  -0.1427  -0.0337   0.1280   0.1675   0.1926
     0.2046   0.4164   0.5811   0.6118   0.6635   0.8890   0.9497   0.9618
     1.0068   1.0487   1.0638   1.1324   1.1850   1.2175   1.3464   1.3813
     1.4489   1.4632   1.5307   1.6158   1.6430   1.7093   1.7101   1.7586
     1.8555   1.9388   1.9627   2.0325   2.1547   2.3228   2.3457   2.3538
     2.4764   2.5714   2.6296   2.7142   2.9854   3.1883   4.4128   5.3748
     6.8625   7.0269   7.1801   7.2871   7.4260   7.5595   8.1217   8.2843
     8.4660   8.6506   8.8016   8.9097   8.9126   9.2149   9.3695   9.5188
     9.5423

          k = 0.1250-0.5279 0.0000 ( 34632 PWs)   bands (ev):

   -37.6962 -35.5795 -22.7045 -22.6013 -22.3563 -22.0764 -19.0116 -18.7712
   -18.7165 -17.0425 -16.7978 -16.6946 -14.9439 -14.8596 -14.8138 -14.6672
   -14.5054 -14.4690 -14.3667 -14.3300 -14.2545 -14.1780 -14.1668 -14.0852
   -14.0540 -13.9892 -13.9000  -8.2267  -8.0734  -8.0412  -7.9505  -7.8266
    -7.7799  -7.7036  -7.6605  -7.5486  -7.4255  -7.4123  -7.1912  -3.8845
    -3.7557  -3.5274  -3.5227  -3.2708  -3.2269  -3.1987  -2.4134  -2.3945
    -2.2305  -2.0928  -1.9069  -1.8675  -1.8344  -1.6686  -1.6307  -1.6096
    -1.5284  -1.4705  -1.3742  -1.3730  -1.3472  -1.2573  -1.2235  -1.1525
    -1.0783  -0.9604  -0.9577  -0.8837  -0.8622  -0.8511  -0.6271  -0.5572
    -0.3746  -0.2345  -0.1877  -0.1397  -0.0168   0.1313   0.1409   0.2013
     0.2070   0.4128   0.6025   0.6341   0.6488   0.8417   0.9211   0.9434
     0.9871   1.0175   1.0756   1.1287   1.2508   1.3146   1.3450   1.3500
     1.4811   1.5352   1.6593   1.7397   1.7655   1.7701   1.9970   2.0246
     2.0298   2.0303   2.1154   2.2161   2.3346   2.3363   2.3786   2.4338
     2.4883   2.5185   2.5376   2.5817   2.8652   3.1581   4.5994   5.5761
     6.7197   7.0794   7.1287   7.5088   7.6004   7.7648   8.3087   8.3243
     8.5205   8.8082   9.0347   9.2848   9.3087   9.3303   9.4685   9.5259
     9.5634

          k = 0.2500 0.0000 0.0000 ( 34786 PWs)   bands (ev):

   -37.7059 -35.5892 -22.8289 -22.7406 -22.4887 -22.2230 -18.8813 -18.7863
   -18.6992 -16.9790 -16.8885 -16.6280 -15.3574 -15.0824 -15.0116 -14.8867
   -14.8085 -14.6086 -14.5773 -14.5630 -14.2166 -14.0633 -14.0561 -13.9997
   -13.8871 -13.7975 -13.7562  -8.2174  -7.9614  -7.7935  -7.7483  -7.7272
    -7.6468  -7.5906  -7.4452  -7.3993  -7.3181  -7.2421  -7.0956  -2.7419
    -2.5778  -2.4333  -2.2657  -2.2267  -2.2202  -1.9099  -1.9007  -1.7563
    -1.6512  -1.4868  -1.4782  -1.3354  -1.2269  -1.2202  -1.1719  -1.1052
    -1.0893  -1.0044  -0.9191  -0.8629  -0.7813  -0.7811  -0.6410  -0.6100
    -0.5839  -0.5466  -0.5428  -0.3760  -0.3268  -0.2971  -0.2869  -0.2624
    -0.2285  -0.2001  -0.1428  -0.0250   0.0465   0.0670   0.0701   0.1007
     0.1039   0.1570   0.1754   0.2514   0.3116   0.4395   0.4526   0.5322
     0.6409   0.6552   0.6838   0.8004   0.9146   0.9266   0.9769   1.0364
     1.0766   1.0974   1.2672   1.2960   1.4062   1.4395   1.4458   1.5590
     1.6844   1.7367   1.7758   1.7976   1.8357   1.8767   2.0230   2.0422
     2.0954   2.1166   2.1870   2.3433   2.4785   2.6667   2.7394   4.8477
     5.8422   5.9416   6.3583   7.0096   7.0520   7.1050   7.5431   7.6618
     7.7282   8.0187   8.0564   8.3724   8.4981   8.6512   8.7546   8.8738
     9.1367

          k = 0.2500 0.1320 0.0000 ( 34751 PWs)   bands (ev):

   -37.7042 -35.5874 -22.8071 -22.7167 -22.4658 -22.1980 -18.8805 -18.7952
   -18.7171 -16.9468 -16.8821 -16.6942 -15.3024 -15.0173 -14.9618 -14.8367
   -14.7592 -14.5736 -14.5618 -14.5312 -14.2024 -14.0609 -14.0529 -14.0083
   -13.9199 -13.8210 -13.7854  -8.2095  -8.0301  -7.9647  -7.8850  -7.7986
    -7.6416  -7.5855  -7.5570  -7.5162  -7.3336  -7.2835  -7.0583  -2.7988
    -2.6277  -2.4552  -2.2909  -2.2520  -2.2136  -2.2000  -2.1023  -1.9620
    -1.9060  -1.8408  -1.6457  -1.6411  -1.6022  -1.5031  -1.4215  -1.3619
    -1.1881  -1.0866  -1.0295  -0.9966  -0.9581  -0.8877  -0.8093  -0.7619
    -0.6999  -0.6433  -0.6127  -0.5128  -0.4932  -0.3536  -0.3363  -0.2954
    -0.2275  -0.1802  -0.0455  -0.0350   0.0137   0.0849   0.1332   0.1624
     0.2079   0.2443   0.2818   0.3187   0.4520   0.4937   0.5961   0.7388
     0.8023   0.8709   0.9026   0.9616   0.9794   1.0530   1.0917   1.0972
     1.1792   1.2487   1.2537   1.3678   1.4278   1.4656   1.5092   1.5204
     1.6341   1.6643   1.6831   1.7181   1.7208   1.9442   2.0363   2.2278
     2.4506   2.6564   2.7039   2.8495   2.8709   2.9612   2.9644   4.9229
     6.1034   6.2061   6.4660   7.0665   7.1651   7.1903   7.4863   7.7999
     7.9230   8.2075   8.2354   8.3983   8.6118   8.7359   8.8215   9.0278
     9.1567

          k = 0.2500 0.2640 0.0000 ( 34733 PWs)   bands (ev):

   -37.7001 -35.5831 -22.7537 -22.6580 -22.4096 -22.1364 -18.9054 -18.8240
   -18.7239 -16.8818 -16.8588 -16.8307 -15.1563 -14.8735 -14.8397 -14.7124
   -14.6197 -14.5752 -14.4843 -14.4162 -14.1770 -14.1003 -14.0689 -14.0327
   -13.9687 -13.8720 -13.8504  -8.2953  -8.2503  -8.1429  -7.9529  -7.9467
    -7.7746  -7.7390  -7.6818  -7.6766  -7.4092  -7.4053  -7.1612  -3.2342
    -3.0047  -2.7723  -2.7187  -2.6831  -2.5284  -2.4546  -2.3498  -2.3309
    -2.3235  -2.1852  -2.1778  -2.1519  -1.8794  -1.8015  -1.6946  -1.4628
    -1.4474  -1.4315  -1.2744  -1.1967  -1.1488  -1.0832  -0.9542  -0.9250
    -0.8916  -0.8644  -0.7899  -0.7455  -0.6525  -0.6068  -0.5858  -0.5439
    -0.3993  -0.3636  -0.3093  -0.0219   0.0300   0.2372   0.2994   0.3456
     0.5159   0.5683   0.6139   0.6232   0.7768   0.8311   0.9067   0.9459
     1.0165   1.0668   1.1029   1.1914   1.2298   1.2521   1.3688   1.4102
     1.4473   1.4484   1.5180   1.5480   1.5516   1.5973   1.6191   1.6469
     1.6795   1.7416   1.7959   1.8451   1.9181   1.9635   2.1387   2.3137
     2.9746   3.0518   3.1378   3.2609   3.4188   3.4465   3.8093   5.1319
     6.5241   6.6460   6.7834   7.0187   7.1954   7.4160   7.5815   8.2282
     8.3320   8.4063   8.5698   8.7230   8.8946   8.9805   9.0452   9.1671
     9.3156

          k = 0.2500 0.3960 0.0000 ( 34712 PWs)   bands (ev):

   -37.6960 -35.5787 -22.6988 -22.5976 -22.3518 -22.0729 -18.9725 -18.8256
   -18.7121 -16.9788 -16.8463 -16.7726 -14.9683 -14.8303 -14.6470 -14.5878
   -14.5865 -14.4525 -14.3849 -14.2940 -14.2229 -14.1241 -14.1071 -14.0803
   -14.0455 -13.9249 -13.8684  -8.4609  -8.3703  -8.1433  -8.0704  -7.9971
    -7.9438  -7.8907  -7.8444  -7.7338  -7.6176  -7.5001  -7.3509  -3.8200
    -3.5101  -3.4672  -3.3524  -3.2102  -2.9784  -2.9485  -2.5528  -2.4639
    -2.3689  -2.2254  -2.1564  -2.1450  -2.0976  -1.8943  -1.8535  -1.7924
    -1.6251  -1.5622  -1.5181  -1.4417  -1.2809  -1.2626  -1.1625  -1.0758
    -1.0268  -0.9078  -0.8708  -0.8297  -0.8135  -0.8053  -0.7860  -0.5472
    -0.5406  -0.4327  -0.3734   0.0049   0.1431   0.2867   0.3278   0.4197
     0.6228   0.6599   0.7972   0.8048   0.9655   0.9961   1.1354   1.1956
     1.2334   1.2742   1.3133   1.3932   1.4441   1.4811   1.5172   1.5806
     1.6382   1.6597   1.6623   1.6750   1.7151   1.7685   1.8059   1.8654
     1.9143   1.9449   2.0420   2.0625   2.2445   2.2647   2.3011   2.3921
     2.8067   2.8939   3.4919   3.4978   3.6542   3.8085   4.3641   5.4009
     6.3469   6.8499   6.8541   6.9934   7.1128   7.6558   7.7437   8.3246
     8.5375   8.7786   8.8226   9.0311   9.0442   9.3194   9.6651   9.7594
     9.7962

          k = 0.2500-0.5279 0.0000 ( 34740 PWs)   bands (ev):

   -37.6943 -35.5769 -22.6757 -22.5720 -22.3274 -22.0460 -19.0043 -18.8228
   -18.7057 -17.0290 -16.8408 -16.7330 -14.8302 -14.8270 -14.7285 -14.5385
   -14.3772 -14.3756 -14.3684 -14.2743 -14.2489 -14.2278 -14.1082 -14.0798
   -14.0495 -13.9720 -13.8666  -8.5051  -8.3704  -8.1153  -8.1024  -8.0853
    -8.0598  -7.9568  -7.8374  -7.7489  -7.7208  -7.5897  -7.4240  -4.0551
    -3.7507  -3.6926  -3.6096  -3.4024  -3.2060  -3.1780  -2.5289  -2.4712
    -2.3498  -2.3175  -2.2188  -2.1180  -2.0325  -2.0096  -1.9279  -1.8317
    -1.7154  -1.6645  -1.6292  -1.4751  -1.3455  -1.3131  -1.2510  -1.1669
    -1.0731  -0.9518  -0.8915  -0.8824  -0.8773  -0.8287  -0.7939  -0.5617
    -0.5346  -0.4587  -0.3928   0.0108   0.1862   0.2984   0.3432   0.4529
     0.6520   0.7219   0.8485   0.8632   1.0241   1.0679   1.1830   1.2224
     1.2300   1.3093   1.3569   1.4459   1.4528   1.4912   1.5813   1.6643
     1.6996   1.7119   1.7453   1.7949   1.9030   1.9483   1.9822   2.0265
     2.0341   2.0670   2.1079   2.1867   2.4201   2.4249   2.4348   2.4858
     2.5856   2.6722   3.5127   3.5842   3.6885   3.8858   4.5151   5.5405
     6.2282   6.8186   6.8427   6.8462   7.1410   7.7142   7.7308   8.3545
     8.6659   8.7133   9.1723   9.4844   9.5066   9.5527   9.7176   9.7953
     9.8738

          k = 0.3750 0.0000 0.0000 ( 34726 PWs)   bands (ev):

   -37.7039 -35.5866 -22.7866 -22.6951 -22.4456 -22.1755 -18.9078 -18.7964
   -18.6967 -17.0283 -16.8839 -16.6247 -15.2563 -15.1221 -15.0557 -14.8796
   -14.6679 -14.6579 -14.6108 -14.5366 -14.2292 -14.1747 -14.0859 -14.0831
   -13.9246 -13.9076 -13.7965  -8.2439  -7.9439  -7.7600  -7.6924  -7.6835
    -7.5702  -7.5062  -7.3962  -7.3770  -7.2395  -7.1826  -7.0080  -3.0826
    -2.9050  -2.7193  -2.6843  -2.3441  -2.3155  -2.0143  -1.7300  -1.6728
    -1.5991  -1.5721  -1.5076  -1.4269  -1.2969  -1.2286  -1.2182  -1.2037
    -1.1846  -1.1719  -1.1291  -1.0300  -1.0007  -0.9344  -0.8858  -0.7936
    -0.7438  -0.7430  -0.6281  -0.5136  -0.4532  -0.3823  -0.3096  -0.2921
    -0.2540  -0.2331  -0.2232  -0.0166   0.0292   0.0541   0.0583   0.0831
     0.0950   0.1222   0.1716   0.2847   0.3906   0.4141   0.4577   0.4675
     0.5083   0.6667   0.7589   0.7898   0.9311   1.0567   1.1086   1.1588
     1.1716   1.2192   1.2386   1.3144   1.3363   1.4917   1.5455   1.5834
     1.6828   1.7150   1.7732   1.8076   1.9138   1.9253   2.0064   2.1147
     2.1170   2.1726   2.2489   2.4294   2.5866   2.7921   2.8901   5.2720
     6.4918   6.5825   6.6329   6.8554   7.3232   7.5191   7.7639   7.9870
     8.2027   8.3216   8.4730   8.6004   8.7107   8.7910   9.0965   9.3071
     9.3325

          k = 0.3750 0.1320 0.0000 ( 34759 PWs)   bands (ev):

   -37.7022 -35.5848 -22.7667 -22.6734 -22.4246 -22.1528 -18.9038 -18.8110
   -18.7117 -17.0197 -16.8547 -16.6892 -15.1985 -15.0567 -15.0081 -14.8242
   -14.6465 -14.6236 -14.5511 -14.4880 -14.2003 -14.1483 -14.0705 -14.0699
   -13.9587 -13.9188 -13.8089  -8.2404  -8.0015  -7.9038  -7.8467  -7.7826
    -7.6586  -7.5959  -7.5714  -7.4797  -7.3314  -7.3131  -7.0849  -3.1478
    -2.9663  -2.7639  -2.7177  -2.3429  -2.3290  -2.1310  -2.0555  -2.0129
    -1.8798  -1.8396  -1.6295  -1.6236  -1.5791  -1.5539  -1.5409  -1.4753
    -1.4531  -1.3254  -1.2174  -1.1341  -1.1048  -1.0092  -0.9926  -0.8442
    -0.7912  -0.7427  -0.6756  -0.6512  -0.6097  -0.4320  -0.3806  -0.3360
    -0.2813  -0.2308  -0.0700   0.0139   0.0543   0.1168   0.1469   0.1668
     0.1961   0.2468   0.3640   0.3838   0.4283   0.5194   0.6493   0.7240
     0.7894   0.8120   0.9442   1.0350   1.1133   1.1332   1.1745   1.2054
     1.2111   1.2270   1.2625   1.3469   1.4572   1.5265   1.5720   1.5764
     1.6972   1.7496   1.7716   1.7842   1.8982   1.9807   2.0887   2.2027
     2.6449   2.7239   2.7351   2.9207   2.9847   3.1398   3.1568   5.2932
     6.6143   6.6414   6.7381   6.7757   7.3558   7.4222   7.8111   8.0525
     8.2317   8.4128   8.4892   8.6372   8.8005   8.9122   9.2667   9.3277
     9.4309

          k = 0.3750 0.2640 0.0000 ( 34779 PWs)   bands (ev):

   -37.6981 -35.5805 -22.7177 -22.6201 -22.3731 -22.0968 -18.9021 -18.8694
   -18.7147 -16.9993 -16.8336 -16.7795 -15.0534 -14.8881 -14.8678 -14.6776
   -14.6209 -14.5285 -14.4024 -14.3651 -14.1594 -14.1266 -14.0493 -14.0412
   -13.9944 -13.9439 -13.8535  -8.3541  -8.3030  -8.1796  -8.0122  -7.9815
    -7.9204  -7.8591  -7.7940  -7.7318  -7.6031  -7.4753  -7.3085  -3.5038
    -3.2802  -3.0017  -2.9317  -2.7312  -2.6629  -2.5141  -2.3945  -2.3844
    -2.3586  -2.3341  -2.3036  -2.2636  -2.0931  -1.9654  -1.7968  -1.7445
    -1.5843  -1.4538  -1.3630  -1.2627  -1.0951  -1.0494  -1.0122  -0.9464
    -0.9156  -0.8938  -0.8452  -0.8259  -0.7319  -0.7127  -0.6609  -0.6207
    -0.4921  -0.3871  -0.3171   0.0392   0.1626   0.3252   0.4157   0.4618
     0.6303   0.6899   0.7509   0.8103   0.8218   0.9879   0.9937   1.0178
     1.1382   1.1492   1.2062   1.2202   1.2978   1.3896   1.4034   1.4509
     1.4825   1.5643   1.5738   1.6259   1.6675   1.7084   1.7374   1.7638
     1.7973   1.8176   1.8210   1.9066   2.0053   2.1238   2.1913   2.2412
     2.9761   3.0558   3.5918   3.7080   3.7874   3.8738   3.8997   5.3419
     6.2173   6.6863   6.7417   6.8956   7.1511   7.6020   7.6369   8.3925
     8.4598   8.5600   8.5871   8.8240   9.2378   9.3934   9.4271   9.4671
     9.5727

          k = 0.3750 0.3960 0.0000 ( 34747 PWs)   bands (ev):

   -37.6940 -35.5762 -22.6676 -22.5655 -22.3204 -22.0393 -18.9643 -18.8770
   -18.7013 -16.9820 -16.9604 -16.6997 -14.8903 -14.7526 -14.6203 -14.5984
   -14.4953 -14.4378 -14.2474 -14.2446 -14.2363 -14.0930 -14.0735 -14.0629
   -13.9889 -13.9585 -13.8758  -8.6594  -8.5687  -8.3144  -8.2339  -8.2102
    -8.1591  -8.0376  -7.9839  -7.8961  -7.7584  -7.7290  -7.4561  -4.0665
    -3.7592  -3.4998  -3.4784  -3.4028  -2.9577  -2.9313  -2.8025  -2.6444
    -2.5635  -2.4860  -2.4226  -2.3141  -2.2919  -2.1035  -1.9600  -1.8970
    -1.7698  -1.7178  -1.4742  -1.2831  -1.2218  -1.2075  -1.1589  -1.1301
    -1.0915  -0.9722  -0.9090  -0.8780  -0.8650  -0.8204  -0.7784  -0.6906
    -0.6881  -0.4087  -0.3121   0.1361   0.2477   0.3769   0.5273   0.6535
     0.8951   0.9566   1.0267   1.0793   1.1454   1.2264   1.3234   1.3433
     1.3885   1.4381   1.4713   1.5577   1.5695   1.5973   1.6307   1.7258
     1.7345   1.7512   1.8010   1.8159   1.9105   1.9258   1.9487   1.9616
     1.9940   2.0767   2.1224   2.1507   2.1663   2.2191   2.4343   2.5010
     2.7977   2.9087   4.1857   4.2276   4.2976   4.3574   4.5061   5.4198
     5.7643   6.3834   6.5449   6.8073   7.0222   7.3707   7.7928   8.4832
     8.6188   8.9643   9.1343   9.2079   9.3329   9.4450   9.4692   9.5132
     9.6251

          k = 0.3750-0.5279 0.0000 ( 34780 PWs)   bands (ev):

   -37.6923 -35.5744 -22.6465 -22.5424 -22.2982 -22.0150 -18.9971 -18.8736
   -18.6944 -17.0156 -16.9694 -16.6642 -14.8048 -14.6914 -14.6385 -14.4081
   -14.3814 -14.3701 -14.2960 -14.2479 -14.2199 -14.1507 -14.0717 -14.0417
   -14.0096 -13.9785 -13.8527  -8.7754  -8.6508  -8.3921  -8.3790  -8.3501
    -8.1705  -8.1077  -8.0106  -8.0035  -7.8671  -7.7717  -7.5018  -4.3066
    -3.9659  -3.7575  -3.7346  -3.6121  -3.1829  -3.1576  -2.8209  -2.6629
    -2.5789  -2.5358  -2.5019  -2.3125  -2.2858  -2.2104  -1.9657  -1.9512
    -1.8163  -1.8101  -1.5445  -1.3561  -1.3126  -1.2652  -1.2480  -1.1458
    -1.1428  -0.9706  -0.9667  -0.9300  -0.9291  -0.8858  -0.7775  -0.7042
    -0.6973  -0.3945  -0.2933   0.1515   0.2800   0.3877   0.5618   0.7341
     1.0079   1.0450   1.0825   1.1445   1.2525   1.2940   1.3424   1.4775
     1.5206   1.5365   1.5739   1.6430   1.7247   1.7463   1.7575   1.7796
     1.7932   1.8071   1.9125   2.0065   2.0236   2.0354   2.0454   2.0719
     2.1350   2.2089   2.2508   2.2769   2.3568   2.3884   2.4903   2.5556
     2.6660   2.6888   4.3039   4.3950   4.4498   4.4965   4.6870   5.4780
     5.5720   6.2057   6.4015   6.8375   6.9314   7.2803   7.8563   8.5094
     8.5784   9.0519   9.1575   9.1768   9.3608   9.5597   9.5791   9.7116
     9.7716

          k =-0.5000 0.0000 0.0000 ( 34714 PWs)   bands (ev):

   -37.7031 -35.5855 -22.7689 -22.6760 -22.4274 -22.1555 -18.9238 -18.7951
   -18.6957 -17.0807 -16.8416 -16.6233 -15.2606 -15.1135 -15.0723 -14.9054
   -14.7216 -14.6847 -14.4780 -14.4090 -14.3307 -14.2124 -14.1297 -14.0824
   -13.9786 -13.9365 -13.8095  -8.2491  -7.9336  -7.7428  -7.6826  -7.6603
    -7.5375  -7.4701  -7.3827  -7.3650  -7.2060  -7.1613  -6.9705  -3.2179
    -3.0469  -2.8603  -2.8583  -2.3691  -2.3060  -2.0245  -1.6668  -1.6243
    -1.6229  -1.5779  -1.4280  -1.3877  -1.3815  -1.3470  -1.3000  -1.2723
    -1.2325  -1.2189  -1.2167  -1.1867  -0.9997  -0.9088  -0.9030  -0.8836
    -0.8781  -0.8265  -0.6138  -0.5788  -0.5149  -0.4253  -0.3284  -0.3138
    -0.2852  -0.2334  -0.2277  -0.0148   0.0281   0.0488   0.0532   0.0684
     0.0902   0.1282   0.1472   0.2954   0.3903   0.3939   0.4153   0.4485
     0.5037   0.6495   0.6948   0.8189   0.9232   1.1118   1.1213   1.1783
     1.2434   1.2664   1.3010   1.3518   1.3906   1.4808   1.5442   1.5817
     1.6410   1.6981   1.7375   1.8625   1.9471   1.9528   2.1263   2.1330
     2.1450   2.1963   2.2554   2.4455   2.6014   2.8284   2.9448   5.4960
     6.5405   6.8441   7.2644   7.3166   7.3791   7.4185   7.4631   7.4653
     8.2630   8.5408   8.7726   8.8046   8.8194   8.8384   9.0457   9.4496
     9.5573

          k =-0.5000 0.1320 0.0000 ( 34798 PWs)   bands (ev):

   -37.7014 -35.5837 -22.7497 -22.6552 -22.4073 -22.1337 -18.9194 -18.8113
   -18.7094 -17.0715 -16.8141 -16.6871 -15.1909 -15.0569 -15.0179 -14.8428
   -14.7012 -14.6441 -14.4330 -14.3671 -14.2730 -14.1898 -14.1006 -14.0675
   -13.9790 -13.9737 -13.8153  -8.2443  -7.9726  -7.7986  -7.7897  -7.7738
    -7.7564  -7.6730  -7.5026  -7.4390  -7.4192  -7.2884  -7.1407  -3.2887
    -3.1147  -2.9129  -2.8949  -2.3741  -2.3385  -2.0557  -2.0349  -2.0214
    -1.8401  -1.8107  -1.7496  -1.6242  -1.6170  -1.5592  -1.5244  -1.5081
    -1.4884  -1.4399  -1.3207  -1.1687  -1.1376  -1.1053  -1.0337  -0.8823
    -0.8439  -0.7397  -0.7041  -0.6874  -0.6308  -0.4689  -0.4063  -0.3446
    -0.3054  -0.2595  -0.0833   0.0269   0.0744   0.1299   0.1674   0.1775
     0.1857   0.2617   0.3085   0.3925   0.5017   0.5607   0.5822   0.7208
     0.7403   0.7563   0.9340   1.0531   1.1348   1.1430   1.1930   1.2326
     1.2670   1.2755   1.3099   1.4110   1.4118   1.5341   1.5906   1.6366
     1.7036   1.7524   1.7610   1.8702   1.9174   2.1104   2.1725   2.1811
     2.6825   2.7164   2.7411   2.9361   3.0077   3.1929   3.2250   5.4915
     6.5232   6.6709   7.1121   7.3024   7.3296   7.5011   7.6196   7.7019
     8.1710   8.4704   8.6664   8.8613   8.9055   9.1647   9.2835   9.5164
     9.6607

          k =-0.5000 0.2640 0.0000 ( 34772 PWs)   bands (ev):

   -37.6973 -35.5794 -22.7026 -22.6042 -22.3578 -22.0802 -18.9090 -18.8799
   -18.7107 -17.0494 -16.8303 -16.7430 -15.0185 -14.9064 -14.8588 -14.6745
   -14.6556 -14.5472 -14.3234 -14.2606 -14.1773 -14.1382 -14.0408 -14.0389
   -14.0367 -13.9833 -13.8476  -8.3193  -8.2418  -8.1790  -8.0909  -8.0750
    -7.9632  -7.9225  -7.7760  -7.7446  -7.7139  -7.5838  -7.3604  -3.6355
    -3.4185  -3.1457  -3.0844  -2.7260  -2.6858  -2.5393  -2.4115  -2.4062
    -2.3757  -2.3329  -2.3032  -2.2713  -2.2144  -1.9825  -1.9125  -1.7647
    -1.6846  -1.5487  -1.3224  -1.1809  -1.1431  -1.0248  -0.9815  -0.9245
    -0.9228  -0.8768  -0.8693  -0.8468  -0.8195  -0.7530  -0.6868  -0.6470
    -0.4926  -0.4075  -0.3182   0.0589   0.2168   0.3526   0.4750   0.4997
     0.7102   0.7255   0.8148   0.8405   0.8900   0.9994   1.0137   1.0782
     1.1638   1.1756   1.2344   1.2712   1.3598   1.3724   1.4031   1.4700
     1.5073   1.5424   1.5790   1.6596   1.6868   1.7515   1.7747   1.8073
     1.8578   1.9047   1.9452   1.9642   1.9876   2.1003   2.1636   2.2995
     2.9696   3.0478   3.7263   3.7937   3.8561   3.9920   4.0509   5.4635
     6.0450   6.6532   6.6827   6.9234   7.0980   7.5689   7.6827   8.4304
     8.5213   8.5728   8.9156   8.9967   9.1748   9.4550   9.5612   9.5778
     9.7122

          k =-0.5000 0.3960 0.0000 ( 34764 PWs)   bands (ev):

   -37.6932 -35.5751 -22.6546 -22.5520 -22.3073 -22.0252 -18.9604 -18.8986
   -18.6967 -17.0279 -16.9595 -16.6674 -14.8576 -14.7234 -14.6151 -14.5995
   -14.4625 -14.4573 -14.2308 -14.2279 -14.1466 -14.0898 -14.0508 -14.0351
   -13.9927 -13.9800 -13.8824  -8.7216  -8.6169  -8.3789  -8.3553  -8.3501
    -8.1892  -8.0848  -8.0249  -8.0002  -7.8652  -7.7667  -7.4817  -4.1884
    -3.8892  -3.5930  -3.5704  -3.4249  -2.9492  -2.9243  -2.8766  -2.7142
    -2.6798  -2.5477  -2.5173  -2.3319  -2.3086  -2.1974  -1.9683  -1.8932
    -1.8633  -1.7883  -1.3827  -1.3058  -1.2461  -1.1843  -1.1838  -1.1181
    -1.0587  -1.0153  -0.9084  -0.8997  -0.8503  -0.8288  -0.7840  -0.7598
    -0.7491  -0.3707  -0.2806   0.1768   0.2910   0.4085   0.6185   0.7482
     1.0288   1.0349   1.1134   1.2483   1.2735   1.2903   1.3590   1.3832
     1.4381   1.5485   1.5529   1.5728   1.5884   1.6253   1.7082   1.7125
     1.7307   1.8227   1.8376   1.8426   1.9231   1.9789   2.0102   2.0590
     2.0681   2.1360   2.1609   2.2003   2.2085   2.2910   2.3763   2.6047
     2.7867   2.8988   4.2323   4.4885   4.5040   4.5789   4.7719   5.4459
     5.5245   6.1872   6.3633   6.7867   6.9640   7.2209   7.8510   8.5744
     8.9008   8.9451   9.0048   9.1025   9.3880   9.4267   9.5661   9.6035
     9.7376

          k =-0.5000-0.5279 0.0000 ( 34796 PWs)   bands (ev):

   -37.6915 -35.5733 -22.6343 -22.5300 -22.2860 -22.0021 -18.9941 -18.8943
   -18.6897 -17.0190 -17.0101 -16.6339 -14.7956 -14.6259 -14.5998 -14.4480
   -14.3704 -14.2978 -14.2757 -14.2489 -14.1923 -14.1009 -14.0656 -14.0374
   -13.9982 -13.9400 -13.8716  -8.8857  -8.7629  -8.5041  -8.4950  -8.4645
    -8.2152  -8.1890  -8.1202  -8.0279  -7.9781  -7.7818  -7.5286  -4.4292
    -4.0975  -3.8449  -3.7838  -3.6759  -3.1734  -3.1493  -2.9113  -2.7466
    -2.7141  -2.6183  -2.5765  -2.3334  -2.2987  -2.2879  -1.9620  -1.9530
    -1.8948  -1.8636  -1.4664  -1.3608  -1.3374  -1.3012  -1.2157  -1.1818
    -1.0783  -1.0337  -0.9946  -0.9607  -0.8855  -0.8687  -0.8428  -0.7757
    -0.7257  -0.3419  -0.2536   0.1989   0.3180   0.4207   0.6622   0.8619
     1.0891   1.1493   1.2365   1.3275   1.3330   1.3554   1.3949   1.4561
     1.6187   1.6230   1.6771   1.7251   1.7627   1.8024   1.8227   1.8377
     1.8765   1.9032   1.9681   2.0084   2.0433   2.0609   2.0834   2.1891
     2.1918   2.2636   2.3283   2.3589   2.3964   2.4223   2.5332   2.5545
     2.6699   2.7627   4.3060   4.7015   4.7528   4.7795   4.9996   5.3001
     5.4748   5.9602   6.1615   6.7953   6.9342   7.1170   7.9004   8.5821
     8.9084   8.9341   8.9896   9.0402   9.0867   9.3466   9.5580   9.6224
     9.6359

     the Fermi energy is     2.5551 ev

!    total energy              =   -1842.76287053 Ry
     Harris-Foulkes estimate   =   -1842.76287053 Ry
     estimated scf accuracy    <          4.1E-11 Ry

     The total energy is the sum of the following terms:

     one-electron contribution =  -29811.87074917 Ry
     hartree contribution      =   15058.28046554 Ry
     xc contribution           =    -621.66615022 Ry
     ewald contribution        =   13532.50183244 Ry
     smearing contrib. (-TS)   =      -0.00826912 Ry

     convergence has been achieved in  40 iterations

     negative rho (up, down):  1.496E-03 0.000E+00

     Forces acting on atoms (cartesian axes, Ry/au):

     atom    1 type  4   force =     0.00000000    0.00000000   -0.00015452
     atom    2 type  3   force =     0.00000000    0.00000000    0.00039553
     atom    3 type  4   force =     0.00000000    0.00000000   -0.00075528
     atom    4 type  1   force =     0.00000000    0.00000000   -0.00026615
     atom    5 type  3   force =     0.00000000    0.00000000    0.00057164
     atom    6 type  4   force =     0.00000000    0.00000000   -0.00013143
     atom    7 type  4   force =     0.00000000    0.00000000    0.00021234
     atom    8 type  2   force =     0.00000000    0.00000000   -0.00033368
     atom    9 type  4   force =     0.00000000    0.00000000   -0.00000221
     atom   10 type  4   force =     0.00000000    0.00000000    0.00010529
     atom   11 type  3   force =     0.00000000    0.00000000   -0.00002884
     atom   12 type  1   force =     0.00000000    0.00000000   -0.00242994
     atom   13 type  4   force =     0.00000000    0.00000000    0.00351741
     atom   14 type  4   force =     0.00000000    0.00000000   -0.00039661
     atom   15 type  3   force =     0.00000000    0.00000000   -0.05497718
     atom   16 type  4   force =     0.00000000    0.00000000    0.05385426
     atom   17 type  1   force =     0.00000000    0.00000000    0.00201089
     atom   18 type  3   force =     0.00000000    0.00000000   -0.00903195
     atom   19 type  4   force =     0.00000000    0.00000000    0.02982717
     atom   20 type  4   force =     0.00000000    0.00000000    0.04641629
     atom   21 type  2   force =     0.00000000    0.00000000   -0.01962893
     atom   22 type  4   force =     0.00000000    0.00000000   -0.02648688
     atom   23 type  4   force =     0.00000000    0.00000000   -0.01870030
     atom   24 type  3   force =     0.00000000    0.00000000    0.00572095
     atom   25 type  1   force =     0.00000000    0.00000000   -0.01408539
     atom   26 type  4   force =     0.00000000    0.00000000    0.01031904
     atom   27 type  3   force =     0.00000000    0.00000000   -0.00785210
     atom   28 type  4   force =     0.00000000    0.00000000    0.00231059

     Total force =     0.086599     Total SCF correction =     0.000031


     Computing stress (Cartesian axis) and pressure


     negative rho (up, down):  1.496E-03 0.000E+00
          total   stress  (Ry/bohr**3)                   (kbar)     P=       -2.30
  -0.00001959   0.00000000   0.00000000           -2.88        0.00        0.00
   0.00000000   0.00004730   0.00000000            0.00        6.96        0.00
   0.00000000   0.00000000  -0.00007466            0.00        0.00      -10.98


     number of scf cycles    =   2
     number of bfgs steps    =   1

     energy   old            =   -1842.8415044086 Ry
     energy   new            =   -1842.7628705338 Ry

     CASE: energy  _new > energy  _old


 %%%%%%%%%%%%%%%%%%%%%%%%%%%%%%%%%%%%%%%%%%%%%%%%%%%%%%%%%%%%%%%%%%%%%%%%%%%%%%
     Error in routine bfgs (1):
     dE0s is positive which should never happen
 %%%%%%%%%%%%%%%%%%%%%%%%%%%%%%%%%%%%%%%%%%%%%%%%%%%%%%%%%%%%%%%%%%%%%%%%%%%%%%

     stopping ...
