
     Program PWSCF v.6.5 starts on  9Jul2021 at 12:45:37 

     This program is part of the open-source Quantum ESPRESSO suite
     for quantum simulation of materials; please cite
         "P. Giannozzi et al., J. Phys.:Condens. Matter 21 395502 (2009);
         "P. Giannozzi et al., J. Phys.:Condens. Matter 29 465901 (2017);
          URL http://www.quantum-espresso.org", 
     in publications or presentations arising from this work. More details at
     http://www.quantum-espresso.org/quote

     Parallel version (MPI), running on    20 processors

     MPI processes distributed on     2 nodes
     R & G space division:  proc/nbgrp/npool/nimage =      20
     Reading input from CBCO_Y_cleave_0.75_sep.pwi
Warning: card &CELL ignored
Warning: card     CELL_DYNAMICS = 'BFGS' ignored
Warning: card     PRESS_CONV_THR = 0.5 ignored
Warning: card / ignored

     Current dimensions of program PWSCF are:
     Max number of different atomic species (ntypx) = 10
     Max number of k-points (npk) =  40000
     Max angular momentum in pseudopotentials (lmaxx) =  3

     Subspace diagonalization in iterative solution of the eigenvalue problem:
     one sub-group per band group will be used
     scalapack distributed-memory algorithm (size of sub-group:  4*  4 procs)

     Message from routine setup:
     using ibrav=0 with symmetry is DISCOURAGED, use correct ibrav instead
 
     Parallelization info
     --------------------
     sticks:   dense  smooth     PW     G-vecs:    dense   smooth      PW
     Min         149      50     14                71365    13742    2148
     Max         150      51     15                71404    13765    2191
     Sum        2991    1007    289              1427725   274999   43215
 


     bravais-lattice index     =            0
     lattice parameter (alat)  =       7.4270  a.u.
     unit-cell volume          =    4376.3515 (a.u.)^3
     number of atoms/cell      =           28
     number of atomic types    =            4
     number of electrons       =       227.00
     number of Kohn-Sham states=          137
     kinetic-energy cutoff     =      60.0000  Ry
     charge density cutoff     =     720.0000  Ry
     convergence threshold     =      1.0E-10
     mixing beta               =       0.7000
     number of iterations used =           10  local-TF  mixing
     Exchange-correlation= SLA PW PBE PBE
                           (   1   4   3   4   0   0   0)
     nstep                     =          300


     celldm(1)=   7.427040  celldm(2)=   0.000000  celldm(3)=   0.000000
     celldm(4)=   0.000000  celldm(5)=   0.000000  celldm(6)=   0.000000

     crystal axes: (cart. coord. in units of alat)
               a(1) = (   1.000000   0.000000   0.000000 )  
               a(2) = (   0.000000   0.947081   0.000000 )  
               a(3) = (   0.000000   0.000000  11.279186 )  

     reciprocal axes: (cart. coord. in units 2 pi/alat)
               b(1) = (  1.000000  0.000000  0.000000 )  
               b(2) = (  0.000000  1.055876  0.000000 )  
               b(3) = (  0.000000  0.000000  0.088659 )  


     PseudoPot. # 1 for Ba read from file:
     ./pseudo/Ba.pbe-nsp-van.UPF
     MD5 check sum: 2b9c31dd849566dd297d80989662b7a0
     Pseudo is Ultrasoft + core correction, Zval = 10.0
     Generated by new atomic code, or converted to UPF format
     Using radial grid of  907 points,  6 beta functions with: 
                l(1) =   0
                l(2) =   0
                l(3) =   1
                l(4) =   1
                l(5) =   2
                l(6) =   2
     Q(r) pseudized with  6 coefficients,  rinner =    1.200   1.200   1.200
                                                       1.200   1.200

     PseudoPot. # 2 for Ca read from file:
     ./pseudo/Ca.pbe-nsp-van.UPF
     MD5 check sum: 6471098428ff4fa451746d08035ff179
     Pseudo is Ultrasoft + core correction, Zval = 10.0
     Generated by new atomic code, or converted to UPF format
     Using radial grid of  845 points,  6 beta functions with: 
                l(1) =   0
                l(2) =   0
                l(3) =   1
                l(4) =   1
                l(5) =   2
                l(6) =   2
     Q(r) pseudized with  6 coefficients,  rinner =    1.200   1.200   1.200
                                                       1.200   1.200

     PseudoPot. # 3 for Cu read from file:
     ./pseudo/Cu.pbe-n-van_ak.UPF
     MD5 check sum: 34e3282627ffb533726feb647e090d62
     Pseudo is Ultrasoft + core correction, Zval = 11.0
     Generated by new atomic code, or converted to UPF format
     Using radial grid of  867 points,  6 beta functions with: 
                l(1) =   0
                l(2) =   0
                l(3) =   1
                l(4) =   1
                l(5) =   2
                l(6) =   2
     Q(r) pseudized with  8 coefficients,  rinner =    1.400   1.400   1.400
                                                       1.400   1.400

     PseudoPot. # 4 for O  read from file:
     ./pseudo/O.pbe-van_ak.UPF
     MD5 check sum: 783ce7fe4c79b6a4916957118fed0856
     Pseudo is Ultrasoft, Zval =  6.0
     Generated by new atomic code, or converted to UPF format
     Using radial grid of  737 points,  4 beta functions with: 
                l(1) =   0
                l(2) =   0
                l(3) =   1
                l(4) =   1
     Q(r) pseudized with  8 coefficients,  rinner =    0.800   0.800   0.800


     atomic species   valence    mass     pseudopotential
        Ba            10.00   137.32700     Ba( 1.00)
        Ca            10.00    40.07800     Ca( 1.00)
        Cu            11.00    63.54600     Cu( 1.00)
        O              6.00    15.99900     O ( 1.00)

      4 Sym. Ops. (no inversion) found



   Cartesian axes

     site n.     atom                  positions (alat units)
         1           O   tau(   1) = (   0.0000000   0.4735409  -0.0469745  )
         2           Cu  tau(   2) = (   0.0000000   0.0000000   0.0264565  )
         3           O   tau(   3) = (   0.0000000   0.0000000   0.5030914  )
         4           Ba  tau(   4) = (   0.5000000   0.4735409   0.5690292  )
         5           Cu  tau(   5) = (   0.0000000   0.0000000   1.0374254  )
         6           O   tau(   6) = (   0.5000000   0.0000000   1.0768099  )
         7           O   tau(   7) = (   0.0000000   0.4735409   1.1116985  )
         8           Ca  tau(   8) = (   0.5000000   0.4735409   1.4976260  )
         9           O   tau(   9) = (   0.0000000   0.4735409   1.8667529  )
        10           O   tau(  10) = (   0.5000000   0.0000000   1.9044124  )
        11           Cu  tau(  11) = (   0.0000000   0.0000000   1.9512546  )
        12           Ba  tau(  12) = (   0.5000000   0.4735409   2.4295764  )
        13           O   tau(  13) = (   0.0000000   0.0000000   2.5115362  )
        14           O   tau(  14) = (   0.0000000   0.4735409   2.9918528  )
        15           Cu  tau(  15) = (   0.0000000   0.0000000   2.9919088  )
        16           O   tau(  16) = (   0.0000000   0.0000000   3.4468248  )
        17           Ba  tau(  17) = (   0.5000000   0.4735409   3.5287769  )
        18           Cu  tau(  18) = (   0.0000000   0.0000000   4.0070809  )
        19           O   tau(  19) = (   0.5000000   0.0000000   4.1048108  )
        20           O   tau(  20) = (   0.0000000   0.4735409   4.0915774  )
        21           Ca  tau(  21) = (   0.5000000   0.4735409   4.5116023  )
        22           O   tau(  22) = (   0.0000000   0.4735409   5.0374685  )
        23           O   tau(  23) = (   0.5000000   0.0000000   5.1232448  )
        24           Cu  tau(  24) = (   0.0000000   0.0000000   5.1626320  )
        25           Ba  tau(  25) = (   0.5000000   0.4735409   5.6055817  )
        26           O   tau(  26) = (   0.0000000   0.0000000   5.6715093  )
        27           Cu  tau(  27) = (   0.0000000   0.0000000   6.1481493  )
        28           O   tau(  28) = (   0.0000000   0.4735409   6.2215676  )

     number of k points=    25  Gaussian smearing, width (Ry)=  0.0100
                       cart. coord. in units 2pi/alat
        k(    1) = (   0.0000000   0.0000000   0.0000000), wk =   0.0312500
        k(    2) = (   0.0000000   0.1319845   0.0000000), wk =   0.0625000
        k(    3) = (   0.0000000   0.2639689   0.0000000), wk =   0.0625000
        k(    4) = (   0.0000000   0.3959534   0.0000000), wk =   0.0625000
        k(    5) = (   0.0000000  -0.5279378   0.0000000), wk =   0.0312500
        k(    6) = (   0.1250000   0.0000000   0.0000000), wk =   0.0625000
        k(    7) = (   0.1250000   0.1319845   0.0000000), wk =   0.1250000
        k(    8) = (   0.1250000   0.2639689   0.0000000), wk =   0.1250000
        k(    9) = (   0.1250000   0.3959534   0.0000000), wk =   0.1250000
        k(   10) = (   0.1250000  -0.5279378   0.0000000), wk =   0.0625000
        k(   11) = (   0.2500000   0.0000000   0.0000000), wk =   0.0625000
        k(   12) = (   0.2500000   0.1319845   0.0000000), wk =   0.1250000
        k(   13) = (   0.2500000   0.2639689   0.0000000), wk =   0.1250000
        k(   14) = (   0.2500000   0.3959534   0.0000000), wk =   0.1250000
        k(   15) = (   0.2500000  -0.5279378   0.0000000), wk =   0.0625000
        k(   16) = (   0.3750000   0.0000000   0.0000000), wk =   0.0625000
        k(   17) = (   0.3750000   0.1319845   0.0000000), wk =   0.1250000
        k(   18) = (   0.3750000   0.2639689   0.0000000), wk =   0.1250000
        k(   19) = (   0.3750000   0.3959534   0.0000000), wk =   0.1250000
        k(   20) = (   0.3750000  -0.5279378   0.0000000), wk =   0.0625000
        k(   21) = (  -0.5000000   0.0000000   0.0000000), wk =   0.0312500
        k(   22) = (  -0.5000000   0.1319845   0.0000000), wk =   0.0625000
        k(   23) = (  -0.5000000   0.2639689   0.0000000), wk =   0.0625000
        k(   24) = (  -0.5000000   0.3959534   0.0000000), wk =   0.0625000
        k(   25) = (  -0.5000000  -0.5279378   0.0000000), wk =   0.0312500

     Dense  grid:  1427725 G-vectors     FFT dimensions: (  64,  64, 720)

     Smooth grid:   274999 G-vectors     FFT dimensions: (  40,  36, 432)

     Estimated max dynamical RAM per process >     455.52 MB

     Estimated total dynamical RAM >       8.90 GB

     Initial potential from superposition of free atoms

     starting charge  226.84630, renormalised to  227.00000

     negative rho (up, down):  3.555E-03 0.000E+00
     Starting wfcs are  195 randomized atomic wfcs

     total cpu time spent up to now is        9.5 secs

     Self-consistent Calculation

     iteration #  1     ecut=    60.00 Ry     beta= 0.70
     Davidson diagonalization with overlap
     ethr =  1.00E-02,  avg # of iterations =  2.0

     negative rho (up, down):  2.888E-04 0.000E+00

     total cpu time spent up to now is       24.7 secs

     total energy              =   -1839.57432161 Ry
     Harris-Foulkes estimate   =   -1845.26769984 Ry
     estimated scf accuracy    <      17.27021456 Ry

     iteration #  2     ecut=    60.00 Ry     beta= 0.70
     Davidson diagonalization with overlap
     ethr =  7.61E-03,  avg # of iterations =  2.0

     negative rho (up, down):  2.616E-04 0.000E+00

     total cpu time spent up to now is       40.9 secs

     total energy              =   -1842.09913978 Ry
     Harris-Foulkes estimate   =   -1843.85625314 Ry
     estimated scf accuracy    <      12.90914697 Ry

     iteration #  3     ecut=    60.00 Ry     beta= 0.70
     Davidson diagonalization with overlap
     ethr =  5.69E-03,  avg # of iterations =  1.3

     negative rho (up, down):  2.460E-04 0.000E+00

     total cpu time spent up to now is       54.7 secs

     total energy              =   -1842.64210361 Ry
     Harris-Foulkes estimate   =   -1843.03494969 Ry
     estimated scf accuracy    <       3.75385166 Ry

     iteration #  4     ecut=    60.00 Ry     beta= 0.70
     Davidson diagonalization with overlap
     ethr =  1.65E-03,  avg # of iterations =  1.2

     negative rho (up, down):  2.391E-04 0.000E+00

     total cpu time spent up to now is       68.0 secs

     total energy              =   -1842.76859155 Ry
     Harris-Foulkes estimate   =   -1842.98800546 Ry
     estimated scf accuracy    <       7.95275131 Ry

     iteration #  5     ecut=    60.00 Ry     beta= 0.70
     Davidson diagonalization with overlap
     ethr =  1.65E-03,  avg # of iterations =  1.0

     negative rho (up, down):  2.348E-04 0.000E+00

     total cpu time spent up to now is       81.1 secs

     total energy              =   -1842.83561003 Ry
     Harris-Foulkes estimate   =   -1842.86327983 Ry
     estimated scf accuracy    <       0.87493546 Ry

     iteration #  6     ecut=    60.00 Ry     beta= 0.70
     Davidson diagonalization with overlap
     ethr =  3.85E-04,  avg # of iterations =  3.1

     negative rho (up, down):  2.324E-04 0.000E+00

     total cpu time spent up to now is       96.5 secs

     total energy              =   -1842.83186003 Ry
     Harris-Foulkes estimate   =   -1842.84727299 Ry
     estimated scf accuracy    <       0.58716554 Ry

     iteration #  7     ecut=    60.00 Ry     beta= 0.70
     Davidson diagonalization with overlap
     ethr =  2.59E-04,  avg # of iterations =  4.7

     negative rho (up, down):  2.316E-04 0.000E+00

     total cpu time spent up to now is      113.8 secs

     total energy              =   -1842.83595459 Ry
     Harris-Foulkes estimate   =   -1842.84495000 Ry
     estimated scf accuracy    <       1.34851733 Ry

     iteration #  8     ecut=    60.00 Ry     beta= 0.70
     Davidson diagonalization with overlap
     ethr =  2.59E-04,  avg # of iterations =  1.9

     negative rho (up, down):  2.308E-04 0.000E+00

     total cpu time spent up to now is      127.9 secs

     total energy              =   -1842.83162533 Ry
     Harris-Foulkes estimate   =   -1842.84016744 Ry
     estimated scf accuracy    <       0.59534390 Ry

     iteration #  9     ecut=    60.00 Ry     beta= 0.70
     Davidson diagonalization with overlap
     ethr =  2.59E-04,  avg # of iterations =  1.2

     negative rho (up, down):  2.303E-04 0.000E+00

     total cpu time spent up to now is      141.4 secs

     total energy              =   -1842.82652256 Ry
     Harris-Foulkes estimate   =   -1842.83456834 Ry
     estimated scf accuracy    <       0.26306670 Ry

     iteration # 10     ecut=    60.00 Ry     beta= 0.70
     Davidson diagonalization with overlap
     c_bands:  1 eigenvalues not converged
     ethr =  1.16E-04,  avg # of iterations =  4.4

     negative rho (up, down):  2.302E-04 0.000E+00

     total cpu time spent up to now is      157.8 secs

     total energy              =   -1842.82640484 Ry
     Harris-Foulkes estimate   =   -1842.82967645 Ry
     estimated scf accuracy    <       0.11738875 Ry

     iteration # 11     ecut=    60.00 Ry     beta= 0.70
     Davidson diagonalization with overlap
     c_bands:  4 eigenvalues not converged
     ethr =  5.17E-05,  avg # of iterations =  8.8

     negative rho (up, down):  2.299E-04 0.000E+00

     total cpu time spent up to now is      179.2 secs

     total energy              =   -1842.82621280 Ry
     Harris-Foulkes estimate   =   -1842.82764545 Ry
     estimated scf accuracy    <       0.12688587 Ry

     iteration # 12     ecut=    60.00 Ry     beta= 0.70
     Davidson diagonalization with overlap
     ethr =  5.17E-05,  avg # of iterations =  1.7

     negative rho (up, down):  2.302E-04 0.000E+00

     total cpu time spent up to now is      193.2 secs

     total energy              =   -1842.82473947 Ry
     Harris-Foulkes estimate   =   -1842.82675826 Ry
     estimated scf accuracy    <       0.11916332 Ry

     iteration # 13     ecut=    60.00 Ry     beta= 0.70
     Davidson diagonalization with overlap
     ethr =  5.17E-05,  avg # of iterations =  1.0

     negative rho (up, down):  2.409E-04 0.000E+00

     total cpu time spent up to now is      206.5 secs

     total energy              =   -1842.82398244 Ry
     Harris-Foulkes estimate   =   -1842.82527484 Ry
     estimated scf accuracy    <       0.08495386 Ry

     iteration # 14     ecut=    60.00 Ry     beta= 0.70
     Davidson diagonalization with overlap
     ethr =  3.74E-05,  avg # of iterations =  1.4

     negative rho (up, down):  5.260E-03 0.000E+00

     total cpu time spent up to now is      220.0 secs

     total energy              =   -1842.82226387 Ry
     Harris-Foulkes estimate   =   -1842.82426540 Ry
     estimated scf accuracy    <       0.06927277 Ry

     iteration # 15     ecut=    60.00 Ry     beta= 0.70
     Davidson diagonalization with overlap
     ethr =  3.05E-05,  avg # of iterations =  3.2

     negative rho (up, down):  2.445E-03 0.000E+00

     total cpu time spent up to now is      235.3 secs

     total energy              =   -1842.82057568 Ry
     Harris-Foulkes estimate   =   -1842.82278325 Ry
     estimated scf accuracy    <       0.05652868 Ry

     iteration # 16     ecut=    60.00 Ry     beta= 0.70
     Davidson diagonalization with overlap
     ethr =  2.49E-05,  avg # of iterations =  3.1

     negative rho (up, down):  1.635E-02 0.000E+00

     total cpu time spent up to now is      250.4 secs

     total energy              =   -1842.81983107 Ry
     Harris-Foulkes estimate   =   -1842.82181060 Ry
     estimated scf accuracy    <       0.02459588 Ry

     iteration # 17     ecut=    60.00 Ry     beta= 0.70
     Davidson diagonalization with overlap
     ethr =  1.08E-05,  avg # of iterations =  8.9

     negative rho (up, down):  1.466E-02 0.000E+00

     total cpu time spent up to now is      272.5 secs

     total energy              =   -1842.82001490 Ry
     Harris-Foulkes estimate   =   -1842.82062399 Ry
     estimated scf accuracy    <       0.01249604 Ry

     iteration # 18     ecut=    60.00 Ry     beta= 0.70
     Davidson diagonalization with overlap
     c_bands:  1 eigenvalues not converged
     ethr =  5.50E-06,  avg # of iterations =  6.8

     negative rho (up, down):  4.952E-03 0.000E+00

     total cpu time spent up to now is      291.7 secs

     total energy              =   -1842.81962832 Ry
     Harris-Foulkes estimate   =   -1842.82016251 Ry
     estimated scf accuracy    <       0.00548191 Ry

     iteration # 19     ecut=    60.00 Ry     beta= 0.70
     Davidson diagonalization with overlap
     c_bands:  1 eigenvalues not converged
     ethr =  2.41E-06,  avg # of iterations =  7.3

     negative rho (up, down):  2.353E-03 0.000E+00

     total cpu time spent up to now is      311.7 secs

     total energy              =   -1842.81966417 Ry
     Harris-Foulkes estimate   =   -1842.81973870 Ry
     estimated scf accuracy    <       0.00140099 Ry

     iteration # 20     ecut=    60.00 Ry     beta= 0.70
     Davidson diagonalization with overlap
     ethr =  6.17E-07,  avg # of iterations =  4.5

     negative rho (up, down):  6.255E-04 0.000E+00

     total cpu time spent up to now is      328.4 secs

     total energy              =   -1842.81971163 Ry
     Harris-Foulkes estimate   =   -1842.81969852 Ry
     estimated scf accuracy    <       0.00037191 Ry

     iteration # 21     ecut=    60.00 Ry     beta= 0.70
     Davidson diagonalization with overlap
     c_bands:  1 eigenvalues not converged
     ethr =  1.64E-07,  avg # of iterations =  5.5

     negative rho (up, down):  7.230E-04 0.000E+00

     total cpu time spent up to now is      346.2 secs

     total energy              =   -1842.81975643 Ry
     Harris-Foulkes estimate   =   -1842.81972727 Ry
     estimated scf accuracy    <       0.00032309 Ry

     iteration # 22     ecut=    60.00 Ry     beta= 0.70
     Davidson diagonalization with overlap
     c_bands:  1 eigenvalues not converged
     ethr =  1.42E-07,  avg # of iterations =  6.6

     negative rho (up, down):  1.134E-03 0.000E+00

     total cpu time spent up to now is      365.0 secs

     total energy              =   -1842.81975216 Ry
     Harris-Foulkes estimate   =   -1842.81976542 Ry
     estimated scf accuracy    <       0.00019684 Ry

     iteration # 23     ecut=    60.00 Ry     beta= 0.70
     Davidson diagonalization with overlap
     ethr =  8.67E-08,  avg # of iterations =  3.0

     negative rho (up, down):  1.317E-03 0.000E+00

     total cpu time spent up to now is      380.3 secs

     total energy              =   -1842.81975984 Ry
     Harris-Foulkes estimate   =   -1842.81975808 Ry
     estimated scf accuracy    <       0.00008017 Ry

     iteration # 24     ecut=    60.00 Ry     beta= 0.70
     Davidson diagonalization with overlap
     ethr =  3.53E-08,  avg # of iterations =  1.5

     negative rho (up, down):  1.133E-03 0.000E+00

     total cpu time spent up to now is      394.0 secs

     total energy              =   -1842.81976370 Ry
     Harris-Foulkes estimate   =   -1842.81976275 Ry
     estimated scf accuracy    <       0.00003371 Ry

     iteration # 25     ecut=    60.00 Ry     beta= 0.70
     Davidson diagonalization with overlap
     ethr =  1.49E-08,  avg # of iterations =  3.0

     negative rho (up, down):  1.337E-03 0.000E+00

     total cpu time spent up to now is      409.1 secs

     total energy              =   -1842.81976470 Ry
     Harris-Foulkes estimate   =   -1842.81976575 Ry
     estimated scf accuracy    <       0.00001735 Ry

     iteration # 26     ecut=    60.00 Ry     beta= 0.70
     Davidson diagonalization with overlap
     ethr =  7.64E-09,  avg # of iterations =  1.1

     negative rho (up, down):  1.398E-03 0.000E+00

     total cpu time spent up to now is      422.6 secs

     total energy              =   -1842.81976489 Ry
     Harris-Foulkes estimate   =   -1842.81976536 Ry
     estimated scf accuracy    <       0.00000299 Ry

     iteration # 27     ecut=    60.00 Ry     beta= 0.70
     Davidson diagonalization with overlap
     ethr =  1.32E-09,  avg # of iterations =  3.4

     negative rho (up, down):  1.411E-03 0.000E+00

     total cpu time spent up to now is      438.5 secs

     total energy              =   -1842.81976503 Ry
     Harris-Foulkes estimate   =   -1842.81976517 Ry
     estimated scf accuracy    <       0.00000153 Ry

     iteration # 28     ecut=    60.00 Ry     beta= 0.70
     Davidson diagonalization with overlap
     ethr =  6.73E-10,  avg # of iterations =  1.2

     negative rho (up, down):  1.483E-03 0.000E+00

     total cpu time spent up to now is      451.8 secs

     total energy              =   -1842.81976493 Ry
     Harris-Foulkes estimate   =   -1842.81976517 Ry
     estimated scf accuracy    <       0.00000171 Ry

     iteration # 29     ecut=    60.00 Ry     beta= 0.70
     Davidson diagonalization with overlap
     ethr =  6.73E-10,  avg # of iterations =  1.1

     negative rho (up, down):  1.483E-03 0.000E+00

     total cpu time spent up to now is      465.4 secs

     total energy              =   -1842.81976498 Ry
     Harris-Foulkes estimate   =   -1842.81976499 Ry
     estimated scf accuracy    <       0.00000042 Ry

     iteration # 30     ecut=    60.00 Ry     beta= 0.70
     Davidson diagonalization with overlap
     ethr =  1.86E-10,  avg # of iterations =  1.5

     negative rho (up, down):  1.489E-03 0.000E+00

     total cpu time spent up to now is      479.3 secs

     total energy              =   -1842.81976497 Ry
     Harris-Foulkes estimate   =   -1842.81976499 Ry
     estimated scf accuracy    <       0.00000021 Ry

     iteration # 31     ecut=    60.00 Ry     beta= 0.70
     Davidson diagonalization with overlap
     ethr =  9.04E-11,  avg # of iterations =  1.4

     negative rho (up, down):  1.483E-03 0.000E+00

     total cpu time spent up to now is      493.0 secs

     total energy              =   -1842.81976498 Ry
     Harris-Foulkes estimate   =   -1842.81976497 Ry
     estimated scf accuracy    <       0.00000005 Ry

     iteration # 32     ecut=    60.00 Ry     beta= 0.70
     Davidson diagonalization with overlap
     ethr =  2.05E-11,  avg # of iterations =  2.6

     negative rho (up, down):  1.489E-03 0.000E+00

     total cpu time spent up to now is      508.3 secs

     total energy              =   -1842.81976497 Ry
     Harris-Foulkes estimate   =   -1842.81976498 Ry
     estimated scf accuracy    <       0.00000002 Ry

     iteration # 33     ecut=    60.00 Ry     beta= 0.70
     Davidson diagonalization with overlap
     ethr =  9.65E-12,  avg # of iterations =  1.4

     negative rho (up, down):  1.491E-03 0.000E+00

     total cpu time spent up to now is      522.0 secs

     total energy              =   -1842.81976497 Ry
     Harris-Foulkes estimate   =   -1842.81976498 Ry
     estimated scf accuracy    <          5.2E-09 Ry

     iteration # 34     ecut=    60.00 Ry     beta= 0.70
     Davidson diagonalization with overlap
     ethr =  2.31E-12,  avg # of iterations =  3.0

     negative rho (up, down):  1.490E-03 0.000E+00

     total cpu time spent up to now is      537.6 secs

     total energy              =   -1842.81976497 Ry
     Harris-Foulkes estimate   =   -1842.81976497 Ry
     estimated scf accuracy    <          2.3E-09 Ry

     iteration # 35     ecut=    60.00 Ry     beta= 0.70
     Davidson diagonalization with overlap
     ethr =  9.92E-13,  avg # of iterations =  1.5

     negative rho (up, down):  1.491E-03 0.000E+00

     total cpu time spent up to now is      551.4 secs

     total energy              =   -1842.81976497 Ry
     Harris-Foulkes estimate   =   -1842.81976497 Ry
     estimated scf accuracy    <          6.1E-10 Ry

     iteration # 36     ecut=    60.00 Ry     beta= 0.70
     Davidson diagonalization with overlap
     ethr =  2.67E-13,  avg # of iterations =  3.0

     negative rho (up, down):  1.489E-03 0.000E+00

     total cpu time spent up to now is      567.8 secs

     total energy              =   -1842.81976498 Ry
     Harris-Foulkes estimate   =   -1842.81976497 Ry
     estimated scf accuracy    <          4.9E-10 Ry

     iteration # 37     ecut=    60.00 Ry     beta= 0.70
     Davidson diagonalization with overlap
     ethr =  2.16E-13,  avg # of iterations =  1.0

     negative rho (up, down):  1.489E-03 0.000E+00

     total cpu time spent up to now is      580.9 secs

     total energy              =   -1842.81976498 Ry
     Harris-Foulkes estimate   =   -1842.81976498 Ry
     estimated scf accuracy    <          2.4E-10 Ry

     iteration # 38     ecut=    60.00 Ry     beta= 0.70
     Davidson diagonalization with overlap
     ethr =  1.06E-13,  avg # of iterations =  1.0

     negative rho (up, down):  1.489E-03 0.000E+00

     total cpu time spent up to now is      593.8 secs

     End of self-consistent calculation

          k = 0.0000 0.0000 0.0000 ( 34429 PWs)   bands (ev):

   -37.2434 -35.5203 -22.8295 -22.7290 -22.7072 -22.4669 -18.2487 -18.2486
   -18.2475 -17.0251 -16.5714 -16.5600 -15.2374 -15.1410 -14.9442 -14.9195
   -14.7099 -14.6092 -14.5070 -14.1824 -14.1194 -13.9481 -13.9190 -13.9172
   -13.7560 -13.6792 -13.5852  -8.0134  -7.8610  -7.8603  -7.8439  -7.8228
    -7.7575  -7.7208  -7.6576  -7.6343  -7.6298  -7.5084  -7.3431  -2.5225
    -2.4873  -2.2680  -1.8543  -1.7986  -1.7672  -1.7636  -1.6977  -1.6043
    -1.4724  -1.4223  -1.4174  -1.2803  -1.1781  -1.1583  -1.1421  -1.0705
    -0.9417  -0.8208  -0.7962  -0.4945  -0.3967  -0.3811  -0.3148  -0.2517
    -0.2388  -0.2187  -0.2105  -0.2027  -0.1974  -0.1761  -0.1637  -0.1555
    -0.1515  -0.0879   0.0247   0.0503   0.1260   0.1610   0.1611   0.1759
     0.2208   0.2365   0.3020   0.3223   0.3699   0.3857   0.3894   0.4144
     0.4586   0.8374   0.9224   0.9439   0.9591   1.0295   1.0838   1.2472
     1.3382   1.3943   1.4183   1.4554   1.5127   1.5751   1.5925   1.5940
     1.5984   1.6337   1.6691   1.8483   1.9058   2.0035   2.0929   2.1158
     2.2107   2.2550   2.3378   2.3416   2.4053   2.5977   2.6442   4.9988
     5.2787   5.4018   5.9437   6.3346   6.7704   6.8268   6.9392   7.3368
     7.8009   7.9240   8.0573   8.2506   8.3240   8.4778   8.4846   8.5813
     8.6713

          k = 0.0000 0.1320 0.0000 ( 34389 PWs)   bands (ev):

   -37.2419 -35.5185 -22.8048 -22.7023 -22.6791 -22.4416 -18.2927 -18.2469
   -18.2216 -16.9889 -16.6326 -16.5690 -15.1487 -15.0808 -14.9060 -14.8898
   -14.6994 -14.6143 -14.4796 -14.1716 -14.1289 -13.9982 -13.9452 -13.9243
   -13.8003 -13.7154 -13.6379  -8.0058  -7.8598  -7.8163  -7.7943  -7.7765
    -7.7759  -7.7750  -7.6722  -7.6569  -7.6531  -7.4634  -7.3904  -2.5558
    -2.5180  -2.3256  -2.1553  -2.1070  -2.0150  -1.9976  -1.7651  -1.7284
    -1.5842  -1.5825  -1.5663  -1.4547  -1.3725  -1.2563  -1.2540  -1.1575
    -1.0116  -0.8501  -0.7115  -0.6007  -0.5660  -0.5418  -0.5328  -0.4940
    -0.3992  -0.3199  -0.2964  -0.2709  -0.2195  -0.1626  -0.1109  -0.0859
    -0.0751  -0.0593   0.0462   0.0610   0.0691   0.1640   0.1844   0.1936
     0.2183   0.2234   0.2572   0.2899   0.3438   0.3792   0.4217   0.4354
     0.6563   0.9754   1.0206   1.0966   1.1066   1.1411   1.1697   1.1781
     1.2164   1.2580   1.3754   1.3930   1.4740   1.5542   1.5577   1.6128
     1.6613   1.6810   1.7750   1.8263   1.8993   1.9996   2.0276   2.0646
     2.1483   2.1706   2.2957   2.5434   2.8663   2.9042   2.9557   5.3290
     5.6551   5.7167   6.1921   6.6238   7.0159   7.1303   7.2378   7.6055
     7.9028   8.0790   8.2292   8.3348   8.4236   8.5195   8.6703   8.7741
     8.8293

          k = 0.0000 0.2640 0.0000 ( 34275 PWs)   bands (ev):

   -37.2383 -35.5141 -22.7439 -22.6364 -22.6098 -22.3790 -18.3638 -18.2427
   -18.1930 -16.8968 -16.7870 -16.5634 -14.9631 -14.9491 -14.8943 -14.7675
   -14.6621 -14.6054 -14.4172 -14.1377 -14.1208 -14.1159 -14.0128 -13.9644
   -13.9195 -13.8136 -13.7342  -8.0003  -7.8795  -7.8594  -7.8138  -7.7625
    -7.7108  -7.7039  -7.6690  -7.6545  -7.6486  -7.4926  -7.3504  -2.8356
    -2.7636  -2.6885  -2.6537  -2.5548  -2.3956  -2.3661  -2.3525  -2.2486
    -2.2192  -1.7864  -1.6650  -1.5308  -1.4174  -1.3989  -1.3139  -1.1892
    -1.0407  -1.0160  -0.9989  -0.9349  -0.9077  -0.8719  -0.7453  -0.6228
    -0.5900  -0.4734  -0.4720  -0.4560  -0.4394  -0.4352  -0.4074  -0.3530
    -0.2502  -0.1356  -0.0693   0.0740   0.0781   0.0797   0.1569   0.2120
     0.2784   0.3852   0.4271   0.4408   0.5611   0.6817   0.7491   0.7612
     0.9006   0.9285   1.0323   1.1243   1.1892   1.1931   1.2075   1.2264
     1.2792   1.3108   1.3229   1.3911   1.4235   1.4588   1.6410   1.6711
     1.7799   1.7850   1.9147   1.9958   1.9973   2.0329   2.0370   2.0540
     2.1011   2.1652   2.2913   2.6614   3.0766   3.1034   3.8511   5.9828
     6.5489   6.5716   6.7786   7.3764   7.5595   7.9503   7.9700   8.0367
     8.2212   8.3522   8.5808   8.6718   8.7288   8.8489   8.9505   8.9628
     9.0295

          k = 0.0000 0.3960 0.0000 ( 34242 PWs)   bands (ev):

   -37.2348 -35.5097 -22.6811 -22.5682 -22.5379 -22.3144 -18.4304 -18.2384
   -18.1669 -16.9232 -16.7951 -16.5577 -15.0568 -14.8722 -14.7248 -14.6179
   -14.6096 -14.4080 -14.3802 -14.2645 -14.1339 -14.0822 -14.0453 -14.0402
   -14.0274 -13.9641 -13.8055  -8.0458  -7.9160  -7.8594  -7.8406  -7.8343
    -7.7722  -7.6422  -7.5849  -7.5828  -7.5347  -7.5260  -7.2305  -3.4761
    -3.2266  -3.1070  -3.0100  -2.9937  -2.9333  -2.7454  -2.4650  -2.4556
    -2.3101  -2.1416  -1.7502  -1.7020  -1.5041  -1.4655  -1.3164  -1.2030
    -1.1739  -1.1718  -1.1610  -1.1000  -1.0829  -1.0140  -1.0138  -0.9395
    -0.8054  -0.7654  -0.6890  -0.6817  -0.6767  -0.6476  -0.5760  -0.5395
    -0.2745  -0.1537  -0.1448  -0.0238   0.0909   0.0914   0.1876   0.2086
     0.2300   0.3960   0.4714   0.5567   0.7910   0.8455   0.8738   0.9877
     1.0074   1.0082   1.0221   1.0534   1.1511   1.1587   1.1974   1.2229
     1.2552   1.3849   1.4587   1.6545   1.6930   1.6966   1.7037   1.7908
     1.8147   1.8876   2.0021   2.0092   2.0119   2.0566   2.0648   2.2118
     2.3105   2.4298   2.4381   2.5660   2.9249   2.9979   4.4665   6.6884
     7.3566   7.4964   7.5180   7.7394   7.7891   8.2899   8.3291   8.6107
     8.7425   8.8957   9.0138   9.0186   9.1569   9.1610   9.1859   9.3243
     9.4707

          k = 0.0000-0.5279 0.0000 ( 34286 PWs)   bands (ev):

   -37.2333 -35.5078 -22.6546 -22.5393 -22.5073 -22.2870 -18.4573 -18.2367
   -18.1562 -16.9754 -16.7501 -16.5554 -15.1117 -14.9146 -14.6622 -14.5054
   -14.4730 -14.4070 -14.2799 -14.2672 -14.1937 -14.1461 -14.1355 -14.0631
   -14.0100 -14.0054 -13.8427  -8.0779  -7.9139  -7.8703  -7.8589  -7.8239
    -7.8141  -7.6343  -7.6223  -7.5334  -7.4761  -7.4701  -7.1786  -3.7356
    -3.4051  -3.2624  -3.2142  -3.1738  -3.1509  -2.8544  -2.5055  -2.4690
    -2.3262  -2.2736  -1.8801  -1.8460  -1.4379  -1.3725  -1.2980  -1.2852
    -1.2582  -1.2462  -1.2051  -1.1630  -1.1617  -1.1380  -1.0424  -1.0132
    -0.9286  -0.8779  -0.7927  -0.7753  -0.7582  -0.7247  -0.6588  -0.5774
    -0.2657  -0.2430  -0.1384   0.0143   0.0955   0.0971   0.1844   0.2226
     0.2356   0.3827   0.4272   0.4862   0.7249   0.8628   0.8779   0.9199
     1.0260   1.0361   1.0704   1.1692   1.1742   1.1804   1.2417   1.2457
     1.3835   1.4407   1.6428   1.6578   1.6913   1.7214   1.8015   1.8162
     1.8813   2.0691   2.0714   2.0763   2.0834   2.1042   2.1312   2.1953
     2.2480   2.5097   2.5913   2.5995   2.7261   2.8207   4.6636   7.1955
     7.4886   7.6074   7.6964   7.9087   8.0200   8.2408   8.8359   8.8592
     9.0368   9.0437   9.0475   9.0731   9.2772   9.3698   9.3912   9.4765
     9.4871

          k = 0.1250 0.0000 0.0000 ( 34399 PWs)   bands (ev):

   -37.2426 -35.5192 -22.8121 -22.7109 -22.6888 -22.4498 -18.2752 -18.2466
   -18.2324 -16.9917 -16.6517 -16.5587 -15.1354 -15.0924 -14.9728 -14.9083
   -14.7329 -14.6546 -14.5118 -14.1831 -14.1284 -13.9917 -13.9448 -13.9294
   -13.7757 -13.7137 -13.6229  -8.0630  -7.8860  -7.8491  -7.8037  -7.7610
    -7.7143  -7.6902  -7.6793  -7.6011  -7.5974  -7.4488  -7.3127  -2.5531
    -2.5073  -2.3106  -1.9644  -1.8198  -1.8098  -1.7528  -1.7446  -1.7441
    -1.6692  -1.6017  -1.3888  -1.3867  -1.2109  -1.1562  -1.1402  -1.1146
    -0.9664  -0.9363  -0.7808  -0.5993  -0.5694  -0.4523  -0.3740  -0.3129
    -0.2954  -0.2910  -0.2839  -0.2770  -0.2521  -0.2175  -0.2050  -0.1602
    -0.1435  -0.0953  -0.0590   0.0146   0.1537   0.1693   0.1814   0.2280
     0.2567   0.2613   0.2786   0.3225   0.4272   0.4557   0.4857   0.5240
     0.5539   0.8531   0.8876   0.9376   0.9681   1.0592   1.1242   1.1620
     1.2503   1.2681   1.3795   1.4061   1.4356   1.5026   1.5462   1.5724
     1.5874   1.6042   1.8865   1.9723   2.0382   2.0629   2.0717   2.1763
     2.2227   2.2710   2.3064   2.3659   2.3894   2.6326   2.6830   5.2387
     5.4589   5.5548   6.1033   6.5374   6.9569   7.0406   7.1207   7.5431
     7.9314   8.0263   8.1989   8.3798   8.4006   8.4765   8.6375   8.8408
     8.8753

          k = 0.1250 0.1320 0.0000 ( 34364 PWs)   bands (ev):

   -37.2412 -35.5174 -22.7881 -22.6851 -22.6616 -22.4251 -18.2922 -18.2674
   -18.2109 -16.9565 -16.6548 -16.6218 -15.0541 -15.0354 -14.9204 -14.9007
   -14.7006 -14.6488 -14.4818 -14.1681 -14.1293 -14.0211 -13.9745 -13.9367
   -13.8152 -13.7471 -13.6666  -8.0430  -7.9211  -7.9108  -7.9053  -7.8232
    -7.7355  -7.6824  -7.6348  -7.5603  -7.5596  -7.5422  -7.2713  -2.5818
    -2.5335  -2.3619  -2.1451  -2.0953  -1.9965  -1.9801  -1.9221  -1.7890
    -1.7469  -1.7178  -1.5831  -1.5766  -1.5487  -1.3954  -1.2483  -1.1706
    -1.0511  -0.9330  -0.8326  -0.7253  -0.6263  -0.6103  -0.5471  -0.5045
    -0.4776  -0.4584  -0.4407  -0.3982  -0.2054  -0.1519  -0.1168  -0.0945
    -0.0822  -0.0539  -0.0331   0.0397   0.0719   0.1988   0.2165   0.2239
     0.2367   0.2653   0.2844   0.2910   0.3192   0.3571   0.5788   0.6273
     0.6734   1.0163   1.0920   1.1001   1.1360   1.1414   1.1861   1.2129
     1.2547   1.2810   1.3419   1.3478   1.3986   1.4117   1.5050   1.5888
     1.6546   1.6586   1.7234   1.7403   1.8574   1.8905   2.0822   2.2988
     2.4048   2.4919   2.6161   2.6395   2.8773   2.9092   2.9708   5.5081
     5.7974   5.8440   6.3032   6.7867   7.1914   7.3359   7.4084   7.8011
     7.9887   8.1463   8.2682   8.3687   8.5504   8.6163   8.7738   8.9299
     8.9757

          k = 0.1250 0.2640 0.0000 ( 34297 PWs)   bands (ev):

   -37.2376 -35.5130 -22.7291 -22.6212 -22.5945 -22.3643 -18.3619 -18.2638
   -18.1831 -16.8672 -16.7839 -16.6343 -14.9503 -14.8803 -14.8673 -14.7800
   -14.6482 -14.5792 -14.4118 -14.1320 -14.1155 -14.1114 -14.0322 -13.9856
   -13.9115 -13.8367 -13.7464  -8.0804  -7.9927  -7.9818  -7.9743  -7.8602
    -7.7759  -7.6837  -7.6755  -7.6049  -7.5502  -7.5443  -7.2653  -2.8346
    -2.7829  -2.7072  -2.6660  -2.5678  -2.3974  -2.3664  -2.3385  -2.2449
    -2.2185  -1.8672  -1.7860  -1.7375  -1.6430  -1.5187  -1.4285  -1.3779
    -1.0914  -1.0129  -0.9946  -0.9308  -0.9205  -0.8786  -0.8426  -0.8240
    -0.7830  -0.6364  -0.6321  -0.5194  -0.4972  -0.4420  -0.3554  -0.2618
    -0.2225  -0.1383  -0.0989  -0.0604   0.0159   0.0220   0.2214   0.2742
     0.2945   0.4526   0.5182   0.5632   0.7586   0.7845   0.8086   0.8246
     0.8645   0.9940   1.0810   1.1243   1.1657   1.2086   1.3274   1.3682
     1.3805   1.4005   1.4479   1.4586   1.4796   1.5109   1.5641   1.6102
     1.6695   1.6944   1.7358   1.8260   1.9997   2.0102   2.1037   2.3178
     2.6025   2.6772   2.7581   2.8692   3.0755   3.1151   3.8537   6.0674
     6.6099   6.6308   6.7558   7.4547   7.6804   7.8772   8.1047   8.1150
     8.3319   8.4519   8.6612   8.6945   8.8478   8.9026   8.9798   9.0273
     9.1240

          k = 0.1250 0.3960 0.0000 ( 34292 PWs)   bands (ev):

   -37.2341 -35.5086 -22.6683 -22.5553 -22.5249 -22.3017 -18.4284 -18.2587
   -18.1580 -16.9181 -16.7686 -16.6257 -15.0245 -14.8374 -14.7010 -14.5920
   -14.5427 -14.3843 -14.3589 -14.2575 -14.1316 -14.0796 -14.0609 -14.0448
   -14.0159 -13.9704 -13.7999  -8.1735  -8.0048  -7.9768  -7.9498  -7.8717
    -7.8168  -7.7405  -7.7026  -7.6078  -7.5976  -7.5952  -7.3049  -3.4638
    -3.2676  -3.1508  -3.0229  -3.0119  -2.9250  -2.7656  -2.4655  -2.4608
    -2.3183  -2.0773  -1.7301  -1.7099  -1.6580  -1.5925  -1.5371  -1.3680
    -1.3094  -1.2667  -1.2326  -1.1570  -1.1132  -1.0812  -1.0437  -1.0379
    -0.9631  -0.8332  -0.8113  -0.7833  -0.7550  -0.6934  -0.6291  -0.3525
    -0.3086  -0.1696  -0.1467  -0.0782   0.0226   0.1697   0.2159   0.2687
     0.2944   0.5005   0.6751   0.7357   0.7501   0.9076   0.9632   1.0175
     1.0386   1.0754   1.1222   1.1514   1.2206   1.2505   1.2895   1.3020
     1.3539   1.4802   1.5353   1.6459   1.7154   1.7832   1.7853   1.8234
     1.8565   1.9355   1.9741   2.0224   2.0453   2.3968   2.4064   2.4154
     2.5425   2.5510   2.7415   2.8022   2.9235   3.0588   4.4505   6.6393
     7.0854   7.3611   7.4005   7.6231   7.9093   8.1932   8.3264   8.6669
     8.7244   8.8764   8.9752   8.9900   9.0107   9.3116   9.4215   9.4853
     9.6181

          k = 0.1250-0.5279 0.0000 ( 34244 PWs)   bands (ev):

   -37.2326 -35.5068 -22.6426 -22.5273 -22.4954 -22.2752 -18.4553 -18.2566
   -18.1477 -16.9697 -16.7251 -16.6220 -15.0668 -14.8699 -14.6213 -14.4620
   -14.4323 -14.3703 -14.2825 -14.2501 -14.1920 -14.1324 -14.1127 -14.0953
   -14.0112 -14.0036 -13.8270  -8.1992  -7.9995  -7.9448  -7.9345  -7.8765
    -7.8354  -7.7464  -7.7275  -7.6468  -7.6298  -7.6065  -7.3302  -3.7262
    -3.4537  -3.3158  -3.2084  -3.2002  -3.1531  -2.8940  -2.5018  -2.4846
    -2.3393  -2.1642  -1.7603  -1.7050  -1.5611  -1.5499  -1.4960  -1.4576
    -1.3998  -1.3606  -1.3378  -1.3200  -1.1979  -1.1530  -1.1481  -1.0977
    -0.9679  -0.9484  -0.8860  -0.8832  -0.8517  -0.7882  -0.7414  -0.3692
    -0.3053  -0.1909  -0.1524  -0.0799   0.0327   0.2152   0.2463   0.2759
     0.3043   0.5028   0.6572   0.7075   0.7825   0.8635   0.9354   0.9941
     1.0175   1.0502   1.0902   1.1832   1.2174   1.3147   1.3664   1.4152
     1.4316   1.5425   1.6172   1.6358   1.8426   1.8938   1.9199   2.0699
     2.0970   2.0999   2.1022   2.1073   2.1935   2.3732   2.4085   2.4951
     2.5623   2.5717   2.6177   2.6653   2.7388   2.9377   4.6380   6.9016
     7.1439   7.5827   7.6067   7.6072   7.9694   8.3684   8.3802   8.8208
     8.8854   9.0251   9.1158   9.3491   9.3651   9.4678   9.5814   9.5885
     9.8053

          k = 0.2500 0.0000 0.0000 ( 34384 PWs)   bands (ev):

   -37.2409 -35.5166 -22.7695 -22.6666 -22.6436 -22.4077 -18.3207 -18.2444
   -18.2109 -16.9063 -16.8160 -16.5553 -15.0655 -14.9856 -14.9465 -14.9380
   -14.7352 -14.6758 -14.5364 -14.1808 -14.1429 -14.0992 -14.0204 -13.9710
   -13.8183 -13.8114 -13.6943  -8.1187  -7.8875  -7.8227  -7.7295  -7.6795
    -7.6743  -7.6507  -7.6140  -7.5182  -7.5167  -7.3638  -7.2374  -2.6517
    -2.5639  -2.5011  -2.2708  -2.1769  -2.1471  -2.0976  -1.7218  -1.6887
    -1.6831  -1.5804  -1.4297  -1.4079  -1.3005  -1.2482  -1.1529  -1.1489
    -1.1376  -1.0327  -0.9283  -0.8382  -0.7213  -0.7073  -0.6024  -0.5704
    -0.5564  -0.5261  -0.4888  -0.4688  -0.2843  -0.2458  -0.2329  -0.2146
    -0.1884  -0.1675  -0.1216  -0.0411   0.1410   0.1562   0.2304   0.2437
     0.2637   0.2840   0.3857   0.4796   0.5204   0.5336   0.6121   0.6980
     0.7053   0.7228   0.8809   0.9777   0.9885   1.0464   1.0975   1.1090
     1.1993   1.3417   1.3700   1.4163   1.4506   1.4876   1.5155   1.5283
     1.6420   1.6538   1.8193   1.9129   1.9565   2.0874   2.1205   2.1417
     2.2674   2.3237   2.4330   2.4594   2.5547   2.7407   2.8024   5.8261
     5.9162   5.9635   6.4541   7.1059   7.3927   7.6143   7.6413   8.0334
     8.1197   8.2163   8.3956   8.5506   8.7114   8.7548   8.8944   9.0640
     9.0952

          k = 0.2500 0.1320 0.0000 ( 34351 PWs)   bands (ev):

   -37.2394 -35.5148 -22.7473 -22.6428 -22.6186 -22.3848 -18.3189 -18.2820
   -18.1915 -16.8741 -16.8096 -16.6215 -15.0067 -14.9670 -14.8963 -14.8881
   -14.6860 -14.6269 -14.5010 -14.1586 -14.1285 -14.0933 -14.0425 -13.9752
   -13.8492 -13.8361 -13.7195  -8.1199  -7.9669  -7.9561  -7.9260  -7.8110
    -7.7177  -7.7112  -7.5839  -7.5307  -7.4858  -7.4830  -7.2025  -2.6775
    -2.5971  -2.5454  -2.3081  -2.1847  -2.1380  -2.0970  -2.0301  -2.0286
    -1.9351  -1.8923  -1.7785  -1.5671  -1.5530  -1.4609  -1.3353  -1.3088
    -1.1838  -1.0416  -0.9587  -0.9231  -0.8427  -0.8187  -0.7890  -0.7601
    -0.6398  -0.5666  -0.5409  -0.4464  -0.4132  -0.2805  -0.2464  -0.1544
    -0.1376  -0.1313   0.0223   0.0316   0.0803   0.1756   0.2038   0.2522
     0.3033   0.3073   0.3832   0.3928   0.3999   0.6076   0.6711   0.8348
     0.9390   0.9764   0.9930   1.0686   1.1265   1.1433   1.2180   1.2485
     1.2762   1.3220   1.3583   1.3820   1.4416   1.5005   1.5394   1.5460
     1.5989   1.6978   1.7225   1.7770   1.7983   1.9390   2.0744   2.3638
     2.7275   2.7522   2.8912   2.9227   2.9436   3.0301   3.0372   5.9846
     6.1775   6.1955   6.5269   7.2620   7.5390   7.8726   7.8845   8.0045
     8.1753   8.3351   8.5137   8.6556   8.7422   8.8604   8.9994   9.1479
     9.1849

          k = 0.2500 0.2640 0.0000 ( 34331 PWs)   bands (ev):

   -37.2359 -35.5104 -22.6928 -22.5841 -22.5569 -22.3286 -18.3577 -18.3092
   -18.1638 -16.8093 -16.7860 -16.7581 -14.9455 -14.8505 -14.7996 -14.7458
   -14.5468 -14.4951 -14.4127 -14.1229 -14.1030 -14.1025 -14.0840 -14.0262
   -13.9014 -13.8962 -13.7714  -8.2702  -8.1891  -8.1763  -8.0448  -7.8729
    -7.8700  -7.7863  -7.7206  -7.6263  -7.6028  -7.5944  -7.3240  -2.9373
    -2.8782  -2.8078  -2.6963  -2.6479  -2.3969  -2.3764  -2.3217  -2.2510
    -2.2371  -2.1473  -2.1116  -2.0884  -2.0397  -1.7314  -1.3885  -1.3768
    -1.3609  -1.3099  -1.2205  -1.1439  -1.0903  -1.0272  -0.9589  -0.8377
    -0.8020  -0.7117  -0.6718  -0.5845  -0.5484  -0.5329  -0.3420  -0.3278
    -0.3173  -0.2944  -0.2647  -0.0053   0.0374   0.0954   0.2526   0.4112
     0.4297   0.6424   0.6662   0.7567   0.8281   0.8503   0.9049   1.0206
     1.0289   1.1511   1.1702   1.2160   1.3035   1.3290   1.4448   1.4683
     1.5046   1.5203   1.5308   1.5479   1.6188   1.6223   1.6699   1.6899
     1.6925   1.7388   1.7588   1.8418   1.9193   1.9387   2.2054   2.3821
     3.0485   3.0551   3.3145   3.3345   3.3803   3.4902   3.8601   6.2572
     6.5966   6.7200   6.7510   7.6034   7.6532   7.9555   8.3936   8.4061
     8.5531   8.6793   8.7224   8.8048   9.0509   9.1034   9.1294   9.2497
     9.3610

          k = 0.2500 0.3960 0.0000 ( 34334 PWs)   bands (ev):

   -37.2324 -35.5060 -22.6370 -22.5237 -22.4933 -22.2708 -18.4237 -18.3037
   -18.1397 -16.9060 -16.7738 -16.6999 -14.9441 -14.7563 -14.6549 -14.5418
   -14.3791 -14.3219 -14.3142 -14.2371 -14.1501 -14.1268 -14.0477 -14.0340
   -13.9869 -13.9722 -13.7917  -8.4395  -8.2963  -8.2767  -8.0526  -7.9836
    -7.9233  -7.9083  -7.8950  -7.8167  -7.7905  -7.6595  -7.5357  -3.4593
    -3.4139  -3.2918  -3.1392  -3.0719  -2.9043  -2.8320  -2.4840  -2.4475
    -2.3897  -2.1284  -2.0734  -2.0262  -1.9912  -1.9008  -1.7258  -1.6438
    -1.5294  -1.4667  -1.3976  -1.3013  -1.2655  -1.1073  -1.0305  -0.9903
    -0.8967  -0.8557  -0.7903  -0.7576  -0.7398  -0.7222  -0.6218  -0.4757
    -0.4216  -0.3627  -0.3451   0.0590   0.1764   0.2451   0.3208   0.4714
     0.5157   0.7378   0.8641   1.0094   1.0351   1.0394   1.0698   1.1205
     1.2429   1.3038   1.3419   1.3625   1.3863   1.4883   1.4985   1.5459
     1.5784   1.6039   1.6801   1.7436   1.7924   1.8399   1.8808   1.8898
     1.9429   1.9825   2.0166   2.1055   2.1361   2.3185   2.3344   2.4422
     2.8776   2.8810   3.4544   3.5647   3.5701   3.7257   4.4053   6.3328
     6.5313   6.9279   6.9903   7.7141   7.8157   8.0873   8.5871   8.8135
     8.8590   8.8696   8.9533   8.9936   9.1249   9.5019   9.6558   9.7479
     9.8341

          k = 0.2500-0.5279 0.0000 ( 34344 PWs)   bands (ev):

   -37.2309 -35.5042 -22.6134 -22.4981 -22.4663 -22.2464 -18.4505 -18.3013
   -18.1299 -16.9562 -16.7683 -16.6603 -14.9501 -14.7530 -14.5148 -14.4394
   -14.3014 -14.2881 -14.2850 -14.2130 -14.1859 -14.1574 -14.1053 -14.0472
   -14.0057 -13.9980 -13.7950  -8.4832  -8.2965  -8.2426  -8.0362  -8.0351
    -8.0301  -8.0112  -7.9982  -7.8829  -7.8483  -7.6741  -7.6380  -3.7155
    -3.6210  -3.4801  -3.3314  -3.2261  -3.1320  -3.0157  -2.5068  -2.4854
    -2.3971  -2.0599  -2.0477  -2.0165  -1.9630  -1.9487  -1.8813  -1.7810
    -1.6196  -1.5876  -1.4391  -1.3459  -1.2641  -1.1859  -1.0738  -1.0587
    -0.9444  -0.8789  -0.8493  -0.8067  -0.8044  -0.7525  -0.7444  -0.4906
    -0.4351  -0.3888  -0.3787   0.0670   0.2256   0.3052   0.3497   0.5026
     0.6073   0.8069   0.9417   1.0304   1.0458   1.0973   1.1421   1.1486
     1.2242   1.2664   1.3603   1.4244   1.4347   1.4891   1.5118   1.5683
     1.6355   1.6627   1.7706   1.8008   1.9758   2.0097   2.0490   2.0597
     2.0979   2.1010   2.1400   2.1839   2.2650   2.4791   2.4942   2.5103
     2.6537   2.6599   3.4268   3.5855   3.6033   3.7600   4.5631   6.2554
     6.5185   6.8927   6.9564   7.7864   7.9458   8.0933   8.7094   8.7233
     8.8834   8.9394   9.2514   9.3998   9.5807   9.6988   9.7533   9.8461
     9.9303

          k = 0.3750 0.0000 0.0000 ( 34362 PWs)   bands (ev):

   -37.2392 -35.5139 -22.7258 -22.6212 -22.5972 -22.3646 -18.3642 -18.2423
   -18.1903 -16.9558 -16.8111 -16.5520 -15.1658 -15.0998 -14.9822 -14.8051
   -14.5925 -14.5422 -14.5083 -14.2061 -14.1737 -14.1534 -14.1310 -14.0565
   -13.9549 -13.8531 -13.7431  -8.1408  -7.8700  -7.7624  -7.6823  -7.6593
    -7.6235  -7.6095  -7.5346  -7.4323  -7.4315  -7.3149  -7.1589  -2.8333
    -2.8314  -2.6849  -2.5971  -2.3948  -2.3463  -2.2700  -1.6222  -1.6001
    -1.5906  -1.5762  -1.5221  -1.4366  -1.4045  -1.3882  -1.2919  -1.1545
    -1.1411  -1.1092  -1.0857  -0.9563  -0.9282  -0.8259  -0.8239  -0.8146
    -0.7896  -0.7034  -0.6703  -0.6690  -0.4930  -0.3819  -0.3576  -0.2452
    -0.1985  -0.1677  -0.1610  -0.0643   0.1281   0.1379   0.1434   0.2385
     0.3038   0.3842   0.4647   0.4756   0.4896   0.5282   0.5481   0.5946
     0.7990   0.8093   0.8237   0.9637   1.0202   1.0970   1.2178   1.2456
     1.2634   1.2951   1.4107   1.5057   1.5306   1.5726   1.5945   1.6930
     1.6931   1.7742   1.7929   1.8605   1.8789   1.9896   2.1288   2.1384
     2.1930   2.3126   2.4873   2.5185   2.6622   2.8659   2.8963   6.5336
     6.5660   6.5742   6.7791   7.5919   7.8371   8.0518   8.0610   8.0652
     8.3598   8.5428   8.6297   8.7728   8.8191   8.9760   9.0937   9.3959
     9.5136

          k = 0.3750 0.1320 0.0000 ( 34383 PWs)   bands (ev):

   -37.2377 -35.5121 -22.7056 -22.5995 -22.5745 -22.3436 -18.3613 -18.2790
   -18.1729 -16.9472 -16.7819 -16.6165 -15.0945 -15.0600 -14.9347 -14.7571
   -14.5521 -14.4817 -14.4678 -14.1824 -14.1477 -14.1312 -14.1223 -14.0437
   -13.9667 -13.8874 -13.7514  -8.1424  -7.9276  -7.9113  -7.8724  -7.7728
    -7.7067  -7.7006  -7.6251  -7.5220  -7.5137  -7.4926  -7.2505  -2.8932
    -2.8796  -2.7378  -2.6485  -2.3907  -2.3433  -2.2689  -1.9848  -1.9600
    -1.8738  -1.8146  -1.7852  -1.5556  -1.5422  -1.5139  -1.4517  -1.4065
    -1.2907  -1.2501  -1.1595  -1.1112  -1.0578  -1.0098  -0.9590  -0.8506
    -0.7431  -0.6683  -0.6041  -0.5463  -0.5072  -0.3583  -0.3382  -0.3192
    -0.2074  -0.1852   0.0035   0.0577   0.1263   0.1728   0.2156   0.2468
     0.2944   0.3320   0.4683   0.5027   0.5247   0.6322   0.7282   0.8196
     0.8531   0.8965   1.0185   1.0992   1.1671   1.2055   1.2338   1.3063
     1.3384   1.3647   1.4210   1.4281   1.5240   1.6014   1.6322   1.6372
     1.6905   1.7722   1.8367   1.8566   1.8655   1.9484   2.0076   2.3299
     2.8021   2.8123   2.8907   2.9897   3.0499   3.2089   3.2138   6.5486
     6.6798   6.7153   6.7335   7.4302   7.8838   8.1265   8.1379   8.1407
     8.5602   8.5644   8.6777   8.8784   8.9855   9.0275   9.2044   9.3397
     9.4947

          k = 0.3750 0.2640 0.0000 ( 34389 PWs)   bands (ev):

   -37.2342 -35.5078 -22.6559 -22.5462 -22.5185 -22.2921 -18.3575 -18.3482
   -18.1459 -16.9269 -16.7609 -16.7068 -14.9616 -14.8982 -14.8131 -14.6314
   -14.4565 -14.3642 -14.3332 -14.1651 -14.1085 -14.0878 -14.0823 -14.0509
   -13.9974 -13.9231 -13.7799  -8.3251  -8.2415  -8.2290  -8.0870  -7.9385
    -7.9076  -7.8866  -7.8840  -7.7852  -7.7124  -7.6534  -7.5218  -3.2082
    -3.0738  -3.0232  -2.9232  -2.6607  -2.4412  -2.4137  -2.3830  -2.3202
    -2.2871  -2.2743  -2.2308  -2.2073  -2.1896  -1.7394  -1.7140  -1.6404
    -1.5084  -1.4191  -1.2156  -1.1951  -1.0763  -0.9890  -0.9296  -0.8669
    -0.8488  -0.8025  -0.7102  -0.6453  -0.5871  -0.5858  -0.5401  -0.4202
    -0.3910  -0.3139  -0.2747  -0.0112   0.0989   0.2251   0.3957   0.5181
     0.5352   0.6971   0.7589   0.8773   0.8890   0.9951   1.0616   1.0686
     1.1049   1.2220   1.2678   1.2902   1.3340   1.4613   1.4733   1.4869
     1.6102   1.6236   1.6377   1.6984   1.7013   1.7494   1.7613   1.7920
     1.8079   1.8273   1.8728   1.8934   1.8987   2.1144   2.1762   2.3117
     3.0390   3.0502   3.6318   3.7800   3.8088   3.8442   3.9379   6.2357
     6.4885   6.7605   6.8100   7.4993   7.7091   8.2497   8.4666   8.5373
     8.7103   8.8015   8.8954   8.9945   9.3395   9.4471   9.4911   9.5251
     9.6314

          k = 0.3750 0.3960 0.0000 ( 34365 PWs)   bands (ev):

   -37.2307 -35.5035 -22.6051 -22.4915 -22.4611 -22.2394 -18.4190 -18.3465
   -18.1227 -16.9095 -16.8877 -16.6270 -14.8604 -14.6786 -14.6314 -14.4784
   -14.3656 -14.2445 -14.2095 -14.1720 -14.1656 -14.1226 -14.0632 -14.0189
   -14.0068 -13.9166 -13.7978  -8.6402  -8.4948  -8.4717  -8.2435  -8.1879
    -8.1784  -8.1598  -8.0602  -7.9100  -7.8332  -7.8178  -7.6770  -3.6877
    -3.5506  -3.3976  -3.3307  -3.2969  -2.8837  -2.8626  -2.5704  -2.4968
    -2.4324  -2.3739  -2.2908  -2.2630  -2.2181  -2.0321  -2.0124  -1.8211
    -1.6936  -1.6438  -1.2569  -1.1600  -1.1514  -1.1448  -0.9734  -0.9505
    -0.9150  -0.8980  -0.8122  -0.8045  -0.7730  -0.7178  -0.6833  -0.6261
    -0.6162  -0.3359  -0.3348   0.1886   0.2955   0.3192   0.5715   0.6823
     0.7369   0.9453   1.0779   1.1509   1.1988   1.2182   1.2746   1.2845
     1.3119   1.4152   1.4671   1.5103   1.5449   1.5730   1.6331   1.6869
     1.7832   1.8067   1.8094   1.8537   1.9111   1.9549   1.9820   2.0146
     2.0662   2.0732   2.1444   2.2184   2.2311   2.2402   2.4117   2.4714
     2.8437   2.8717   4.1316   4.1473   4.2828   4.3546   4.4192   5.7899
     6.2818   6.4574   6.5107   7.4431   7.9084   8.3535   8.6732   8.7079
     9.0207   9.0400   9.1959   9.2269   9.3100   9.4878   9.5501   9.5606
     9.6104

          k = 0.3750-0.5279 0.0000 ( 34392 PWs)   bands (ev):

   -37.2292 -35.5017 -22.5838 -22.4685 -22.4368 -22.2171 -18.4458 -18.3437
   -18.1134 -16.9429 -16.8969 -16.5915 -14.8180 -14.6173 -14.4302 -14.3898
   -14.3349 -14.2888 -14.2176 -14.1888 -14.1776 -14.0891 -14.0796 -13.9976
   -13.9902 -13.9470 -13.7849  -8.7573  -8.5768  -8.5203  -8.3526  -8.3292
    -8.3118  -8.3049  -8.0726  -7.9365  -7.9257  -7.8767  -7.6904  -3.8952
    -3.7720  -3.6348  -3.5404  -3.4217  -3.1089  -3.0822  -2.5889  -2.5229
    -2.4627  -2.3734  -2.2893  -2.2428  -2.2122  -2.1421  -2.1256  -1.8902
    -1.7429  -1.7124  -1.3239  -1.2541  -1.2086  -1.1777  -1.0317  -0.9970
    -0.9307  -0.8967  -0.8933  -0.8332  -0.8141  -0.7981  -0.7823  -0.6441
    -0.6123  -0.3423  -0.3205   0.2104   0.3521   0.3838   0.6291   0.7918
     0.9034   1.0810   1.0876   1.1818   1.2810   1.3001   1.3261   1.3658
     1.4078   1.4765   1.5425   1.5629   1.6105   1.6276   1.6647   1.7671
     1.8092   1.8636   1.9124   1.9565   2.0694   2.1037   2.1061   2.1426
     2.2081   2.2536   2.2900   2.3486   2.4166   2.4307   2.5314   2.5635
     2.5900   2.6297   4.2236   4.2827   4.4011   4.5003   4.5654   5.5943
     6.2084   6.2797   6.3435   7.3526   8.1352   8.3391   8.6443   8.7054
     8.9795   9.1515   9.1732   9.2554   9.3864   9.3962   9.4357   9.7866
     9.8488

          k =-0.5000 0.0000 0.0000 ( 34370 PWs)   bands (ev):

   -37.2384 -35.5128 -22.7074 -22.6020 -22.5777 -22.3464 -18.3818 -18.2414
   -18.1818 -17.0082 -16.7689 -16.5506 -15.2111 -15.1552 -15.0383 -14.7317
   -14.6109 -14.3834 -14.3471 -14.2572 -14.2485 -14.1663 -14.1620 -14.1254
   -14.0575 -13.8633 -13.7591  -8.1438  -7.8597  -7.7205  -7.6604  -7.6551
    -7.6299  -7.5864  -7.5007  -7.3961  -7.3943  -7.3014  -7.1254  -2.9732
    -2.9418  -2.7979  -2.6911  -2.4633  -2.3667  -2.2950  -1.6817  -1.5926
    -1.5839  -1.5520  -1.4859  -1.4520  -1.4259  -1.3722  -1.3103  -1.1584
    -1.1469  -1.1467  -1.1427  -1.1132  -0.9606  -0.9397  -0.9280  -0.8706
    -0.8369  -0.7905  -0.7525  -0.6603  -0.6355  -0.4459  -0.4139  -0.2492
    -0.2127  -0.1549  -0.1543  -0.1289   0.1228   0.1279   0.1381   0.2007
     0.2930   0.4126   0.4643   0.4644   0.4826   0.4900   0.5434   0.5856
     0.7511   0.8272   0.8954   0.9609   0.9621   1.1952   1.2182   1.2489
     1.2570   1.4268   1.4635   1.5352   1.5492   1.5960   1.6549   1.6733
     1.7151   1.8287   1.8731   1.8871   1.9350   2.0254   2.0368   2.1046
     2.2005   2.2865   2.4862   2.5228   2.6762   2.9017   2.9059   6.8970
     7.0276   7.3257   7.3384   7.3511   7.3908   7.4705   7.9882   8.3372
     8.6043   8.6133   8.8076   8.9455   9.1072   9.1088   9.1201   9.5220
     9.6274

          k =-0.5000 0.1320 0.0000 ( 34378 PWs)   bands (ev):

   -37.2370 -35.5111 -22.6880 -22.5812 -22.5559 -22.3262 -18.3788 -18.2776
   -18.1651 -16.9990 -16.7413 -16.6144 -15.1345 -15.1042 -14.9816 -14.6862
   -14.5707 -14.3491 -14.3061 -14.2359 -14.1995 -14.1414 -14.1371 -14.1048
   -14.0614 -13.9005 -13.7606  -8.1412  -7.8987  -7.8101  -7.7740  -7.7616
    -7.7367  -7.7158  -7.6778  -7.5991  -7.5498  -7.4214  -7.3387  -3.0412
    -3.0000  -2.8548  -2.7602  -2.4588  -2.3725  -2.3000  -1.9546  -1.9156
    -1.8406  -1.7889  -1.7501  -1.5502  -1.5350  -1.5326  -1.4862  -1.4510
    -1.3660  -1.3542  -1.2582  -1.1903  -1.1459  -1.0235  -1.0145  -0.9096
    -0.8083  -0.6350  -0.6267  -0.6114  -0.5400  -0.3949  -0.3854  -0.3617
    -0.2314  -0.2131  -0.0098   0.0678   0.1400   0.1637   0.2417   0.2863
     0.3204   0.3346   0.3394   0.5757   0.6107   0.6515   0.6800   0.7307
     0.8270   0.9169   0.9983   1.1121   1.1395   1.2298   1.2981   1.3410
     1.3468   1.3658   1.3768   1.4835   1.6018   1.6487   1.6532   1.7015
     1.7761   1.8082   1.8376   1.8598   1.9427   1.9896   2.0745   2.3005
     2.7927   2.8134   2.8842   3.0018   3.0682   3.2431   3.2647   6.6867
     7.0015   7.1408   7.1861   7.2104   7.6937   7.7226   8.2431   8.2709
     8.5442   8.6790   8.9204   8.9621   9.1791   9.3577   9.3622   9.6012
     9.7260

          k =-0.5000 0.2640 0.0000 ( 34396 PWs)   bands (ev):

   -37.2335 -35.5068 -22.6404 -22.5303 -22.5024 -22.2768 -18.3713 -18.3501
   -18.1385 -16.9770 -16.7576 -16.6703 -14.9726 -14.9219 -14.8312 -14.5721
   -14.4748 -14.2688 -14.2097 -14.2024 -14.1036 -14.0871 -14.0802 -14.0722
   -14.0606 -13.9659 -13.7763  -8.2801  -8.1678  -8.1553  -8.0934  -8.0674
    -8.0547  -8.0169  -7.8811  -7.8485  -7.7294  -7.6963  -7.6323  -3.3460
    -3.1940  -3.1274  -3.0615  -2.6538  -2.4665  -2.4657  -2.3843  -2.3325
    -2.3064  -2.3025  -2.2297  -2.2042  -2.1974  -1.8452  -1.7927  -1.7080
    -1.6089  -1.5254  -1.1241  -1.0953  -1.0261  -0.9517  -0.9250  -0.9178
    -0.9073  -0.8271  -0.6873  -0.6745  -0.6687  -0.6128  -0.6046  -0.4208
    -0.3862  -0.3335  -0.2955  -0.0134   0.1213   0.2726   0.4784   0.5570
     0.5682   0.7417   0.7962   0.9139   0.9211   1.0584   1.1029   1.1049
     1.1523   1.2388   1.2496   1.2726   1.3297   1.4587   1.4748   1.5433
     1.6082   1.6316   1.6987   1.7403   1.7583   1.7610   1.8249   1.8419
     1.8810   1.8825   1.9120   1.9770   2.0005   2.0432   2.2477   2.2486
     3.0288   3.0436   3.7108   3.8449   3.9287   3.9428   4.0611   6.1241
     6.5086   6.7562   6.7817   7.5362   7.6416   8.2993   8.5044   8.6460
     8.7925   8.9191   9.0609   9.0821   9.4824   9.5812   9.6522   9.6908
     9.7330

          k =-0.5000 0.3960 0.0000 ( 34384 PWs)   bands (ev):

   -37.2300 -35.5024 -22.5918 -22.4781 -22.4476 -22.2262 -18.4169 -18.3639
   -18.1158 -16.9554 -16.8868 -16.5946 -14.8247 -14.6498 -14.6278 -14.4497
   -14.3908 -14.1977 -14.1922 -14.1572 -14.1322 -14.0836 -14.0694 -14.0158
   -14.0155 -13.9069 -13.8039  -8.7025  -8.5430  -8.5008  -8.3591  -8.3304
    -8.3050  -8.2748  -8.0899  -7.9489  -7.9263  -7.8422  -7.6845  -3.8172
    -3.6465  -3.4953  -3.4337  -3.3521  -2.8751  -2.8632  -2.6402  -2.5074
    -2.4409  -2.4300  -2.3538  -2.3190  -2.2347  -2.1444  -2.0835  -1.8170
    -1.7866  -1.7269  -1.1988  -1.1729  -1.1247  -1.0455  -0.9853  -0.9415
    -0.9371  -0.9216  -0.8268  -0.8034  -0.7931  -0.7134  -0.7052  -0.6971
    -0.6902  -0.3046  -0.2967   0.2324   0.3154   0.3655   0.7017   0.7633
     0.8609   1.0085   1.1716   1.2108   1.2724   1.3120   1.3238   1.3494
     1.4184   1.4236   1.4512   1.5656   1.5778   1.6223   1.6485   1.7695
     1.7735   1.8606   1.8797   1.9078   1.9188   1.9803   2.0418   2.0709
     2.1317   2.1627   2.2063   2.2099   2.2669   2.3423   2.4189   2.5394
     2.8269   2.8607   4.2616   4.3821   4.4010   4.5738   4.6493   5.5717
     6.2174   6.2612   6.2850   7.2935   7.9823   8.3416   8.6767   8.9366
     8.9620   8.9995   9.1284   9.2810   9.3039   9.4906   9.5215   9.6497
     9.8145

          k =-0.5000-0.5279 0.0000 ( 34420 PWs)   bands (ev):

   -37.2285 -35.5006 -22.5714 -22.4561 -22.4245 -22.2049 -18.4438 -18.3609
   -18.1067 -16.9466 -16.9374 -16.5611 -14.7567 -14.5518 -14.4310 -14.3749
   -14.3252 -14.2870 -14.2021 -14.1887 -14.1737 -14.0875 -14.0293 -13.9918
   -13.9863 -13.8668 -13.8130  -8.8688  -8.6890  -8.6304  -8.4765  -8.4441
    -8.4238  -8.4211  -8.0900  -8.0463  -7.9539  -7.8881  -7.6994  -4.0259
    -3.8644  -3.7035  -3.6026  -3.5591  -3.0994  -3.0832  -2.6726  -2.5402
    -2.4532  -2.4510  -2.3663  -2.3087  -2.2436  -2.2247  -2.1769  -1.8854
    -1.8107  -1.7862  -1.2874  -1.2553  -1.2135  -1.1086  -1.0301  -0.9605
    -0.9569  -0.9206  -0.9012  -0.8849  -0.8332  -0.8146  -0.7997  -0.7229
    -0.6440  -0.2889  -0.2679   0.2636   0.3887   0.4114   0.7935   0.9547
     1.0756   1.0780   1.1006   1.3377   1.3565   1.4024   1.4119   1.4283
     1.4571   1.4588   1.5240   1.5567   1.6959   1.7138   1.7262   1.8744
     1.8850   1.9709   1.9965   2.0255   2.1080   2.1128   2.1310   2.1531
     2.2621   2.3486   2.4012   2.4023   2.4321   2.4947   2.5570   2.5900
     2.6072   2.6822   4.3732   4.5282   4.5845   4.7788   4.8499   5.3387
     6.0342   6.0542   6.1426   7.1895   8.1399   8.3333   8.6521   8.9143
     8.9376   9.0174   9.1020   9.1292   9.1668   9.2877   9.4232   9.6348
     9.7608

     the Fermi energy is     2.6291 ev

!    total energy              =   -1842.81976498 Ry
     Harris-Foulkes estimate   =   -1842.81976498 Ry
     estimated scf accuracy    <          3.6E-11 Ry

     The total energy is the sum of the following terms:

     one-electron contribution =  -30173.89992698 Ry
     hartree contribution      =   15239.79561145 Ry
     xc contribution           =    -621.64289585 Ry
     ewald contribution        =   13712.93538027 Ry
     smearing contrib. (-TS)   =      -0.00793387 Ry

     convergence has been achieved in  38 iterations

     negative rho (up, down):  1.489E-03 0.000E+00

     Forces acting on atoms (cartesian axes, Ry/au):

     atom    1 type  4   force =     0.00000000    0.00000000   -0.00014990
     atom    2 type  3   force =     0.00000000    0.00000000    0.00038326
     atom    3 type  4   force =     0.00000000    0.00000000   -0.00076272
     atom    4 type  1   force =     0.00000000    0.00000000   -0.00027522
     atom    5 type  3   force =     0.00000000    0.00000000    0.00056149
     atom    6 type  4   force =     0.00000000    0.00000000   -0.00010680
     atom    7 type  4   force =     0.00000000    0.00000000    0.00027149
     atom    8 type  2   force =     0.00000000    0.00000000   -0.00042166
     atom    9 type  4   force =     0.00000000    0.00000000   -0.00005491
     atom   10 type  4   force =     0.00000000    0.00000000   -0.00000931
     atom   11 type  3   force =     0.00000000    0.00000000    0.00020598
     atom   12 type  1   force =     0.00000000    0.00000000   -0.00216832
     atom   13 type  4   force =     0.00000000    0.00000000    0.00315271
     atom   14 type  4   force =     0.00000000    0.00000000   -0.00055946
     atom   15 type  3   force =     0.00000000    0.00000000   -0.05883515
     atom   16 type  4   force =     0.00000000    0.00000000    0.05898020
     atom   17 type  1   force =     0.00000000    0.00000000    0.00800390
     atom   18 type  3   force =     0.00000000    0.00000000    0.02168919
     atom   19 type  4   force =     0.00000000    0.00000000    0.01868079
     atom   20 type  4   force =     0.00000000    0.00000000    0.03099038
     atom   21 type  2   force =     0.00000000    0.00000000   -0.00386939
     atom   22 type  4   force =     0.00000000    0.00000000   -0.01366156
     atom   23 type  4   force =     0.00000000    0.00000000   -0.01694961
     atom   24 type  3   force =     0.00000000    0.00000000   -0.04601647
     atom   25 type  1   force =     0.00000000    0.00000000   -0.00696736
     atom   26 type  4   force =     0.00000000    0.00000000    0.00464816
     atom   27 type  3   force =     0.00000000    0.00000000    0.00427961
     atom   28 type  4   force =     0.00000000    0.00000000   -0.00103931

     Total force =     0.089045     Total SCF correction =     0.000021


     Computing stress (Cartesian axis) and pressure


     negative rho (up, down):  1.489E-03 0.000E+00
          total   stress  (Ry/bohr**3)                   (kbar)     P=       -5.86
  -0.00002696   0.00000000   0.00000000           -3.97        0.00        0.00
   0.00000000   0.00000460   0.00000000            0.00        0.68        0.00
   0.00000000   0.00000000  -0.00009723            0.00        0.00      -14.30


     number of scf cycles    =   3
     number of bfgs steps    =   2

     energy   old            =   -1842.8935607194 Ry
     energy   new            =   -1842.8197649756 Ry

     CASE: energy  _new > energy  _old


 %%%%%%%%%%%%%%%%%%%%%%%%%%%%%%%%%%%%%%%%%%%%%%%%%%%%%%%%%%%%%%%%%%%%%%%%%%%%%%
     Error in routine bfgs (1):
     dE0s is positive which should never happen
 %%%%%%%%%%%%%%%%%%%%%%%%%%%%%%%%%%%%%%%%%%%%%%%%%%%%%%%%%%%%%%%%%%%%%%%%%%%%%%

     stopping ...
