
     Program PWSCF v.6.5 starts on  9Jul2021 at 19:18:31 

     This program is part of the open-source Quantum ESPRESSO suite
     for quantum simulation of materials; please cite
         "P. Giannozzi et al., J. Phys.:Condens. Matter 21 395502 (2009);
         "P. Giannozzi et al., J. Phys.:Condens. Matter 29 465901 (2017);
          URL http://www.quantum-espresso.org", 
     in publications or presentations arising from this work. More details at
     http://www.quantum-espresso.org/quote

     Parallel version (MPI), running on    20 processors

     MPI processes distributed on     2 nodes
     R & G space division:  proc/nbgrp/npool/nimage =      20
     Reading input from CBCO_Y_cleave_0.5_sep.pwi
Warning: card &CELL ignored
Warning: card     CELL_DYNAMICS = 'BFGS' ignored
Warning: card     PRESS_CONV_THR = 0.5 ignored
Warning: card / ignored

     Current dimensions of program PWSCF are:
     Max number of different atomic species (ntypx) = 10
     Max number of k-points (npk) =  40000
     Max angular momentum in pseudopotentials (lmaxx) =  3

     Subspace diagonalization in iterative solution of the eigenvalue problem:
     one sub-group per band group will be used
     scalapack distributed-memory algorithm (size of sub-group:  4*  4 procs)

     Message from routine setup:
     using ibrav=0 with symmetry is DISCOURAGED, use correct ibrav instead
 
     Parallelization info
     --------------------
     sticks:   dense  smooth     PW     G-vecs:    dense   smooth      PW
     Min         149      50     14                70963    13664    2134
     Max         150      51     15                71000    13687    2179
     Sum        2991    1007    289              1419661   273473   42977
 


     bravais-lattice index     =            0
     lattice parameter (alat)  =       7.4270  a.u.
     unit-cell volume          =    4351.6708 (a.u.)^3
     number of atoms/cell      =           28
     number of atomic types    =            4
     number of electrons       =       227.00
     number of Kohn-Sham states=          137
     kinetic-energy cutoff     =      60.0000  Ry
     charge density cutoff     =     720.0000  Ry
     convergence threshold     =      1.0E-10
     mixing beta               =       0.7000
     number of iterations used =           10  local-TF  mixing
     Exchange-correlation= SLA PW PBE PBE
                           (   1   4   3   4   0   0   0)
     nstep                     =          300


     celldm(1)=   7.427040  celldm(2)=   0.000000  celldm(3)=   0.000000
     celldm(4)=   0.000000  celldm(5)=   0.000000  celldm(6)=   0.000000

     crystal axes: (cart. coord. in units of alat)
               a(1) = (   1.000000   0.000000   0.000000 )  
               a(2) = (   0.000000   0.947081   0.000000 )  
               a(3) = (   0.000000   0.000000  11.215576 )  

     reciprocal axes: (cart. coord. in units 2 pi/alat)
               b(1) = (  1.000000  0.000000  0.000000 )  
               b(2) = (  0.000000  1.055876  0.000000 )  
               b(3) = (  0.000000  0.000000  0.089162 )  


     PseudoPot. # 1 for Ba read from file:
     ./pseudo/Ba.pbe-nsp-van.UPF
     MD5 check sum: 2b9c31dd849566dd297d80989662b7a0
     Pseudo is Ultrasoft + core correction, Zval = 10.0
     Generated by new atomic code, or converted to UPF format
     Using radial grid of  907 points,  6 beta functions with: 
                l(1) =   0
                l(2) =   0
                l(3) =   1
                l(4) =   1
                l(5) =   2
                l(6) =   2
     Q(r) pseudized with  6 coefficients,  rinner =    1.200   1.200   1.200
                                                       1.200   1.200

     PseudoPot. # 2 for Ca read from file:
     ./pseudo/Ca.pbe-nsp-van.UPF
     MD5 check sum: 6471098428ff4fa451746d08035ff179
     Pseudo is Ultrasoft + core correction, Zval = 10.0
     Generated by new atomic code, or converted to UPF format
     Using radial grid of  845 points,  6 beta functions with: 
                l(1) =   0
                l(2) =   0
                l(3) =   1
                l(4) =   1
                l(5) =   2
                l(6) =   2
     Q(r) pseudized with  6 coefficients,  rinner =    1.200   1.200   1.200
                                                       1.200   1.200

     PseudoPot. # 3 for Cu read from file:
     ./pseudo/Cu.pbe-n-van_ak.UPF
     MD5 check sum: 34e3282627ffb533726feb647e090d62
     Pseudo is Ultrasoft + core correction, Zval = 11.0
     Generated by new atomic code, or converted to UPF format
     Using radial grid of  867 points,  6 beta functions with: 
                l(1) =   0
                l(2) =   0
                l(3) =   1
                l(4) =   1
                l(5) =   2
                l(6) =   2
     Q(r) pseudized with  8 coefficients,  rinner =    1.400   1.400   1.400
                                                       1.400   1.400

     PseudoPot. # 4 for O  read from file:
     ./pseudo/O.pbe-van_ak.UPF
     MD5 check sum: 783ce7fe4c79b6a4916957118fed0856
     Pseudo is Ultrasoft, Zval =  6.0
     Generated by new atomic code, or converted to UPF format
     Using radial grid of  737 points,  4 beta functions with: 
                l(1) =   0
                l(2) =   0
                l(3) =   1
                l(4) =   1
     Q(r) pseudized with  8 coefficients,  rinner =    0.800   0.800   0.800


     atomic species   valence    mass     pseudopotential
        Ba            10.00   137.32700     Ba( 1.00)
        Ca            10.00    40.07800     Ca( 1.00)
        Cu            11.00    63.54600     Cu( 1.00)
        O              6.00    15.99900     O ( 1.00)

      4 Sym. Ops. (no inversion) found



   Cartesian axes

     site n.     atom                  positions (alat units)
         1           O   tau(   1) = (   0.0000000   0.4735409  -0.0472155  )
         2           Cu  tau(   2) = (   0.0000000   0.0000000   0.0265923  )
         3           O   tau(   3) = (   0.0000000   0.0000000   0.5056726  )
         4           Ba  tau(   4) = (   0.5000000   0.4735409   0.5719487  )
         5           Cu  tau(   5) = (   0.0000000   0.0000000   1.0427481  )
         6           O   tau(   6) = (   0.5000000   0.0000000   1.0823347  )
         7           O   tau(   7) = (   0.0000000   0.4735409   1.1174023  )
         8           Ca  tau(   8) = (   0.5000000   0.4735409   1.5053099  )
         9           O   tau(   9) = (   0.0000000   0.4735409   1.8763307  )
        10           O   tau(  10) = (   0.5000000   0.0000000   1.9141834  )
        11           Cu  tau(  11) = (   0.0000000   0.0000000   1.9612659  )
        12           Ba  tau(  12) = (   0.5000000   0.4735409   2.4420418  )
        13           O   tau(  13) = (   0.0000000   0.0000000   2.5244221  )
        14           O   tau(  14) = (   0.0000000   0.4735409   3.0072031  )
        15           Cu  tau(  15) = (   0.0000000   0.0000000   3.0072594  )
        16           O   tau(  16) = (   0.0000000   0.0000000   3.4900838  )
        17           Ba  tau(  17) = (   0.5000000   0.4735409   3.5724564  )
        18           Cu  tau(  18) = (   0.0000000   0.0000000   4.0297691  )
        19           O   tau(  19) = (   0.5000000   0.0000000   4.0778682  )
        20           O   tau(  20) = (   0.0000000   0.4735409   4.1624042  )
        21           Ca  tau(  21) = (   0.5000000   0.4735409   4.5334218  )
        22           O   tau(  22) = (   0.0000000   0.4735409   4.8968287  )
        23           O   tau(  23) = (   0.5000000   0.0000000   5.0012223  )
        24           Cu  tau(  24) = (   0.0000000   0.0000000   5.0886313  )
        25           Ba  tau(  25) = (   0.5000000   0.4735409   5.5381338  )
        26           O   tau(  26) = (   0.0000000   0.0000000   5.5537722  )
        27           Cu  tau(  27) = (   0.0000000   0.0000000   6.0582137  )
        28           O   tau(  28) = (   0.0000000   0.4735409   6.1320087  )

     number of k points=    25  Gaussian smearing, width (Ry)=  0.0100
                       cart. coord. in units 2pi/alat
        k(    1) = (   0.0000000   0.0000000   0.0000000), wk =   0.0312500
        k(    2) = (   0.0000000   0.1319845   0.0000000), wk =   0.0625000
        k(    3) = (   0.0000000   0.2639689   0.0000000), wk =   0.0625000
        k(    4) = (   0.0000000   0.3959534   0.0000000), wk =   0.0625000
        k(    5) = (   0.0000000  -0.5279378   0.0000000), wk =   0.0312500
        k(    6) = (   0.1250000   0.0000000   0.0000000), wk =   0.0625000
        k(    7) = (   0.1250000   0.1319845   0.0000000), wk =   0.1250000
        k(    8) = (   0.1250000   0.2639689   0.0000000), wk =   0.1250000
        k(    9) = (   0.1250000   0.3959534   0.0000000), wk =   0.1250000
        k(   10) = (   0.1250000  -0.5279378   0.0000000), wk =   0.0625000
        k(   11) = (   0.2500000   0.0000000   0.0000000), wk =   0.0625000
        k(   12) = (   0.2500000   0.1319845   0.0000000), wk =   0.1250000
        k(   13) = (   0.2500000   0.2639689   0.0000000), wk =   0.1250000
        k(   14) = (   0.2500000   0.3959534   0.0000000), wk =   0.1250000
        k(   15) = (   0.2500000  -0.5279378   0.0000000), wk =   0.0625000
        k(   16) = (   0.3750000   0.0000000   0.0000000), wk =   0.0625000
        k(   17) = (   0.3750000   0.1319845   0.0000000), wk =   0.1250000
        k(   18) = (   0.3750000   0.2639689   0.0000000), wk =   0.1250000
        k(   19) = (   0.3750000   0.3959534   0.0000000), wk =   0.1250000
        k(   20) = (   0.3750000  -0.5279378   0.0000000), wk =   0.0625000
        k(   21) = (  -0.5000000   0.0000000   0.0000000), wk =   0.0312500
        k(   22) = (  -0.5000000   0.1319845   0.0000000), wk =   0.0625000
        k(   23) = (  -0.5000000   0.2639689   0.0000000), wk =   0.0625000
        k(   24) = (  -0.5000000   0.3959534   0.0000000), wk =   0.0625000
        k(   25) = (  -0.5000000  -0.5279378   0.0000000), wk =   0.0312500

     Dense  grid:  1419661 G-vectors     FFT dimensions: (  64,  64, 720)

     Smooth grid:   273473 G-vectors     FFT dimensions: (  40,  36, 432)

     Estimated max dynamical RAM per process >     453.21 MB

     Estimated total dynamical RAM >       8.85 GB

     Initial potential from superposition of free atoms

     starting charge  226.84630, renormalised to  227.00000

     negative rho (up, down):  3.546E-03 0.000E+00
     Starting wfcs are  195 randomized atomic wfcs

     total cpu time spent up to now is       10.3 secs

     Self-consistent Calculation

     iteration #  1     ecut=    60.00 Ry     beta= 0.70
     Davidson diagonalization with overlap
     ethr =  1.00E-02,  avg # of iterations =  2.0

     negative rho (up, down):  2.870E-04 0.000E+00

     total cpu time spent up to now is       25.5 secs

     total energy              =   -1839.45748179 Ry
     Harris-Foulkes estimate   =   -1845.25321151 Ry
     estimated scf accuracy    <      18.46001777 Ry

     iteration #  2     ecut=    60.00 Ry     beta= 0.70
     Davidson diagonalization with overlap
     ethr =  8.13E-03,  avg # of iterations =  2.0

     negative rho (up, down):  2.595E-04 0.000E+00

     total cpu time spent up to now is       42.3 secs

     total energy              =   -1842.25534863 Ry
     Harris-Foulkes estimate   =   -1843.90924860 Ry
     estimated scf accuracy    <      13.71791178 Ry

     iteration #  3     ecut=    60.00 Ry     beta= 0.70
     Davidson diagonalization with overlap
     ethr =  6.04E-03,  avg # of iterations =  1.1

     negative rho (up, down):  2.471E-04 0.000E+00

     total cpu time spent up to now is       56.0 secs

     total energy              =   -1842.64267820 Ry
     Harris-Foulkes estimate   =   -1843.04887381 Ry
     estimated scf accuracy    <       3.43453892 Ry

     iteration #  4     ecut=    60.00 Ry     beta= 0.70
     Davidson diagonalization with overlap
     ethr =  1.51E-03,  avg # of iterations =  1.4

     negative rho (up, down):  2.406E-04 0.000E+00

     total cpu time spent up to now is       70.2 secs

     total energy              =   -1842.86041526 Ry
     Harris-Foulkes estimate   =   -1843.01751084 Ry
     estimated scf accuracy    <       9.91158073 Ry

     iteration #  5     ecut=    60.00 Ry     beta= 0.70
     Davidson diagonalization with overlap
     ethr =  1.51E-03,  avg # of iterations =  1.0

     negative rho (up, down):  2.387E-04 0.000E+00

     total cpu time spent up to now is       84.1 secs

     total energy              =   -1842.87667631 Ry
     Harris-Foulkes estimate   =   -1842.91939086 Ry
     estimated scf accuracy    <       2.76910918 Ry

     iteration #  6     ecut=    60.00 Ry     beta= 0.70
     Davidson diagonalization with overlap
     ethr =  1.22E-03,  avg # of iterations =  1.0

     negative rho (up, down):  2.355E-04 0.000E+00

     total cpu time spent up to now is       98.0 secs

     total energy              =   -1842.88174718 Ry
     Harris-Foulkes estimate   =   -1842.91082630 Ry
     estimated scf accuracy    <       4.14556222 Ry

     iteration #  7     ecut=    60.00 Ry     beta= 0.70
     Davidson diagonalization with overlap
     ethr =  1.22E-03,  avg # of iterations =  1.0

     negative rho (up, down):  2.340E-04 0.000E+00

     total cpu time spent up to now is      111.9 secs

     total energy              =   -1842.87589707 Ry
     Harris-Foulkes estimate   =   -1842.89237455 Ry
     estimated scf accuracy    <       2.13041701 Ry

     iteration #  8     ecut=    60.00 Ry     beta= 0.70
     Davidson diagonalization with overlap
     ethr =  9.39E-04,  avg # of iterations =  1.0

     negative rho (up, down):  2.334E-04 0.000E+00

     total cpu time spent up to now is      125.7 secs

     total energy              =   -1842.86687532 Ry
     Harris-Foulkes estimate   =   -1842.88199474 Ry
     estimated scf accuracy    <       1.17199105 Ry

     iteration #  9     ecut=    60.00 Ry     beta= 0.70
     Davidson diagonalization with overlap
     ethr =  5.16E-04,  avg # of iterations =  1.0

     negative rho (up, down):  2.331E-04 0.000E+00

     total cpu time spent up to now is      139.5 secs

     total energy              =   -1842.86386957 Ry
     Harris-Foulkes estimate   =   -1842.87171964 Ry
     estimated scf accuracy    <       0.40057473 Ry

     iteration # 10     ecut=    60.00 Ry     beta= 0.70
     Davidson diagonalization with overlap
     ethr =  1.76E-04,  avg # of iterations =  5.0

     negative rho (up, down):  2.332E-04 0.000E+00

     total cpu time spent up to now is      157.5 secs

     total energy              =   -1842.86340625 Ry
     Harris-Foulkes estimate   =   -1842.86650978 Ry
     estimated scf accuracy    <       0.13550412 Ry

     iteration # 11     ecut=    60.00 Ry     beta= 0.70
     Davidson diagonalization with overlap
     ethr =  5.97E-05,  avg # of iterations =  7.0

     negative rho (up, down):  2.329E-04 0.000E+00

     total cpu time spent up to now is      177.8 secs

     total energy              =   -1842.86149514 Ry
     Harris-Foulkes estimate   =   -1842.86433123 Ry
     estimated scf accuracy    <       0.08902035 Ry

     iteration # 12     ecut=    60.00 Ry     beta= 0.70
     Davidson diagonalization with overlap
     ethr =  3.92E-05,  avg # of iterations =  3.6

     negative rho (up, down):  3.119E-04 0.000E+00

     total cpu time spent up to now is      194.0 secs

     total energy              =   -1842.86056393 Ry
     Harris-Foulkes estimate   =   -1842.86218018 Ry
     estimated scf accuracy    <       0.06406371 Ry

     iteration # 13     ecut=    60.00 Ry     beta= 0.70
     Davidson diagonalization with overlap
     ethr =  2.82E-05,  avg # of iterations =  1.1

     negative rho (up, down):  6.023E-04 0.000E+00

     total cpu time spent up to now is      207.8 secs

     total energy              =   -1842.85984092 Ry
     Harris-Foulkes estimate   =   -1842.86092410 Ry
     estimated scf accuracy    <       0.02833479 Ry

     iteration # 14     ecut=    60.00 Ry     beta= 0.70
     Davidson diagonalization with overlap
     c_bands:  1 eigenvalues not converged
     c_bands:  1 eigenvalues not converged
     ethr =  1.25E-05,  avg # of iterations =  6.7

     negative rho (up, down):  7.253E-03 0.000E+00

     total cpu time spent up to now is      227.3 secs

     total energy              =   -1842.85876736 Ry
     Harris-Foulkes estimate   =   -1842.86012837 Ry
     estimated scf accuracy    <       0.02073906 Ry

     iteration # 15     ecut=    60.00 Ry     beta= 0.70
     Davidson diagonalization with overlap
     c_bands:  1 eigenvalues not converged
     ethr =  9.14E-06,  avg # of iterations =  7.6

     negative rho (up, down):  5.551E-03 0.000E+00

     total cpu time spent up to now is      248.4 secs

     total energy              =   -1842.85832047 Ry
     Harris-Foulkes estimate   =   -1842.85916023 Ry
     estimated scf accuracy    <       0.03240423 Ry

     iteration # 16     ecut=    60.00 Ry     beta= 0.70
     Davidson diagonalization with overlap
     ethr =  9.14E-06,  avg # of iterations =  2.1

     negative rho (up, down):  1.273E-02 0.000E+00

     total cpu time spent up to now is      263.2 secs

     total energy              =   -1842.85698594 Ry
     Harris-Foulkes estimate   =   -1842.85846551 Ry
     estimated scf accuracy    <       0.02676820 Ry

     iteration # 17     ecut=    60.00 Ry     beta= 0.70
     Davidson diagonalization with overlap
     ethr =  9.14E-06,  avg # of iterations =  6.3

     negative rho (up, down):  1.421E-02 0.000E+00

     total cpu time spent up to now is      283.1 secs

     total energy              =   -1842.85662571 Ry
     Harris-Foulkes estimate   =   -1842.85720916 Ry
     estimated scf accuracy    <       0.00575265 Ry

     iteration # 18     ecut=    60.00 Ry     beta= 0.70
     Davidson diagonalization with overlap
     ethr =  2.53E-06,  avg # of iterations =  7.0

     negative rho (up, down):  2.159E-02 0.000E+00

     total cpu time spent up to now is      303.3 secs

     total energy              =   -1842.85633236 Ry
     Harris-Foulkes estimate   =   -1842.85705177 Ry
     estimated scf accuracy    <       0.01357942 Ry

     iteration # 19     ecut=    60.00 Ry     beta= 0.70
     Davidson diagonalization with overlap
     ethr =  2.53E-06,  avg # of iterations =  9.2

     negative rho (up, down):  1.551E-02 0.000E+00

     total cpu time spent up to now is      327.3 secs

     total energy              =   -1842.85625064 Ry
     Harris-Foulkes estimate   =   -1842.85657731 Ry
     estimated scf accuracy    <       0.00436536 Ry

     iteration # 20     ecut=    60.00 Ry     beta= 0.70
     Davidson diagonalization with overlap
     ethr =  1.92E-06,  avg # of iterations =  4.7

     negative rho (up, down):  6.371E-03 0.000E+00

     total cpu time spent up to now is      345.0 secs

     total energy              =   -1842.85604983 Ry
     Harris-Foulkes estimate   =   -1842.85634185 Ry
     estimated scf accuracy    <       0.00070688 Ry

     iteration # 21     ecut=    60.00 Ry     beta= 0.70
     Davidson diagonalization with overlap
     ethr =  3.11E-07,  avg # of iterations =  8.5

     negative rho (up, down):  3.147E-03 0.000E+00

     total cpu time spent up to now is      368.0 secs

     total energy              =   -1842.85607318 Ry
     Harris-Foulkes estimate   =   -1842.85612294 Ry
     estimated scf accuracy    <       0.00126333 Ry

     iteration # 22     ecut=    60.00 Ry     beta= 0.70
     Davidson diagonalization with overlap
     c_bands:  1 eigenvalues not converged
     ethr =  3.11E-07,  avg # of iterations =  5.2

     negative rho (up, down):  1.796E-03 0.000E+00

     total cpu time spent up to now is      386.1 secs

     total energy              =   -1842.85611309 Ry
     Harris-Foulkes estimate   =   -1842.85609787 Ry
     estimated scf accuracy    <       0.00025732 Ry

     iteration # 23     ecut=    60.00 Ry     beta= 0.70
     Davidson diagonalization with overlap
     c_bands:  1 eigenvalues not converged
     ethr =  1.13E-07,  avg # of iterations =  7.3

     negative rho (up, down):  1.390E-03 0.000E+00

     total cpu time spent up to now is      407.3 secs

     total energy              =   -1842.85612356 Ry
     Harris-Foulkes estimate   =   -1842.85611585 Ry
     estimated scf accuracy    <       0.00009245 Ry

     iteration # 24     ecut=    60.00 Ry     beta= 0.70
     Davidson diagonalization with overlap
     c_bands:  1 eigenvalues not converged
     ethr =  4.07E-08,  avg # of iterations =  3.7

     negative rho (up, down):  1.260E-03 0.000E+00

     total cpu time spent up to now is      423.9 secs

     total energy              =   -1842.85612743 Ry
     Harris-Foulkes estimate   =   -1842.85612496 Ry
     estimated scf accuracy    <       0.00004628 Ry

     iteration # 25     ecut=    60.00 Ry     beta= 0.70
     Davidson diagonalization with overlap
     ethr =  2.04E-08,  avg # of iterations =  2.0

     negative rho (up, down):  1.311E-03 0.000E+00

     total cpu time spent up to now is      438.7 secs

     total energy              =   -1842.85612734 Ry
     Harris-Foulkes estimate   =   -1842.85612818 Ry
     estimated scf accuracy    <       0.00003023 Ry

     iteration # 26     ecut=    60.00 Ry     beta= 0.70
     Davidson diagonalization with overlap
     ethr =  1.33E-08,  avg # of iterations =  1.0

     negative rho (up, down):  1.353E-03 0.000E+00

     total cpu time spent up to now is      452.6 secs

     total energy              =   -1842.85612781 Ry
     Harris-Foulkes estimate   =   -1842.85612790 Ry
     estimated scf accuracy    <       0.00000583 Ry

     iteration # 27     ecut=    60.00 Ry     beta= 0.70
     Davidson diagonalization with overlap
     ethr =  2.57E-09,  avg # of iterations =  2.3

     negative rho (up, down):  1.469E-03 0.000E+00

     total cpu time spent up to now is      467.7 secs

     total energy              =   -1842.85612781 Ry
     Harris-Foulkes estimate   =   -1842.85612816 Ry
     estimated scf accuracy    <       0.00000388 Ry

     iteration # 28     ecut=    60.00 Ry     beta= 0.70
     Davidson diagonalization with overlap
     ethr =  1.71E-09,  avg # of iterations =  1.0

     negative rho (up, down):  1.473E-03 0.000E+00

     total cpu time spent up to now is      481.5 secs

     total energy              =   -1842.85612794 Ry
     Harris-Foulkes estimate   =   -1842.85612795 Ry
     estimated scf accuracy    <       0.00000030 Ry

     iteration # 29     ecut=    60.00 Ry     beta= 0.70
     Davidson diagonalization with overlap
     ethr =  1.31E-10,  avg # of iterations =  4.0

     negative rho (up, down):  1.509E-03 0.000E+00

     total cpu time spent up to now is      499.8 secs

     total energy              =   -1842.85612795 Ry
     Harris-Foulkes estimate   =   -1842.85612800 Ry
     estimated scf accuracy    <       0.00000034 Ry

     iteration # 30     ecut=    60.00 Ry     beta= 0.70
     Davidson diagonalization with overlap
     ethr =  1.31E-10,  avg # of iterations =  1.0

     negative rho (up, down):  1.525E-03 0.000E+00

     total cpu time spent up to now is      513.7 secs

     total energy              =   -1842.85612793 Ry
     Harris-Foulkes estimate   =   -1842.85612796 Ry
     estimated scf accuracy    <       0.00000013 Ry

     iteration # 31     ecut=    60.00 Ry     beta= 0.70
     Davidson diagonalization with overlap
     ethr =  5.85E-11,  avg # of iterations =  1.0

     negative rho (up, down):  1.531E-03 0.000E+00

     total cpu time spent up to now is      527.7 secs

     total energy              =   -1842.85612793 Ry
     Harris-Foulkes estimate   =   -1842.85612793 Ry
     estimated scf accuracy    <       0.00000008 Ry

     iteration # 32     ecut=    60.00 Ry     beta= 0.70
     Davidson diagonalization with overlap
     ethr =  3.38E-11,  avg # of iterations =  1.1

     negative rho (up, down):  1.525E-03 0.000E+00

     total cpu time spent up to now is      541.5 secs

     total energy              =   -1842.85612793 Ry
     Harris-Foulkes estimate   =   -1842.85612793 Ry
     estimated scf accuracy    <       0.00000006 Ry

     iteration # 33     ecut=    60.00 Ry     beta= 0.70
     Davidson diagonalization with overlap
     ethr =  2.43E-11,  avg # of iterations =  1.0

     negative rho (up, down):  1.505E-03 0.000E+00

     total cpu time spent up to now is      555.4 secs

     total energy              =   -1842.85612795 Ry
     Harris-Foulkes estimate   =   -1842.85612793 Ry
     estimated scf accuracy    <       0.00000002 Ry

     iteration # 34     ecut=    60.00 Ry     beta= 0.70
     Davidson diagonalization with overlap
     ethr =  9.95E-12,  avg # of iterations =  1.0

     negative rho (up, down):  1.502E-03 0.000E+00

     total cpu time spent up to now is      569.3 secs

     total energy              =   -1842.85612796 Ry
     Harris-Foulkes estimate   =   -1842.85612796 Ry
     estimated scf accuracy    <       0.00000001 Ry

     iteration # 35     ecut=    60.00 Ry     beta= 0.70
     Davidson diagonalization with overlap
     ethr =  4.47E-12,  avg # of iterations =  1.1

     negative rho (up, down):  1.500E-03 0.000E+00

     total cpu time spent up to now is      583.0 secs

     total energy              =   -1842.85612796 Ry
     Harris-Foulkes estimate   =   -1842.85612796 Ry
     estimated scf accuracy    <          2.0E-09 Ry

     iteration # 36     ecut=    60.00 Ry     beta= 0.70
     Davidson diagonalization with overlap
     ethr =  8.85E-13,  avg # of iterations =  2.3

     negative rho (up, down):  1.496E-03 0.000E+00

     total cpu time spent up to now is      598.5 secs

     total energy              =   -1842.85612797 Ry
     Harris-Foulkes estimate   =   -1842.85612796 Ry
     estimated scf accuracy    <          1.6E-09 Ry

     iteration # 37     ecut=    60.00 Ry     beta= 0.70
     Davidson diagonalization with overlap
     ethr =  6.93E-13,  avg # of iterations =  1.0

     negative rho (up, down):  1.496E-03 0.000E+00

     total cpu time spent up to now is      612.3 secs

     total energy              =   -1842.85612797 Ry
     Harris-Foulkes estimate   =   -1842.85612797 Ry
     estimated scf accuracy    <          4.6E-10 Ry

     iteration # 38     ecut=    60.00 Ry     beta= 0.70
     Davidson diagonalization with overlap
     ethr =  2.01E-13,  avg # of iterations =  1.3

     negative rho (up, down):  1.495E-03 0.000E+00

     total cpu time spent up to now is      625.9 secs

     End of self-consistent calculation

          k = 0.0000 0.0000 0.0000 ( 34267 PWs)   bands (ev):

   -35.8292 -35.5886 -23.2802 -22.7705 -22.5474 -22.5042 -17.1160 -17.0719
   -16.8945 -16.8202 -16.6379 -16.6276 -15.2614 -15.1376 -14.9507 -14.8075
   -14.6173 -14.5483 -14.4841 -14.3044 -14.1374 -13.9410 -13.7998 -13.7851
   -13.7676 -13.5983 -13.5809  -8.4133  -8.3932  -8.1872  -7.9061  -7.8588
    -7.7014  -7.6801  -7.6662  -7.6194  -7.5430  -7.4349  -7.3788  -2.8457
    -2.2731  -2.2428  -1.8417  -1.7945  -1.7880  -1.7332  -1.6505  -1.6303
    -1.5575  -1.5029  -1.4480  -1.4457  -1.1831  -1.1095  -1.0676  -0.9972
    -0.7876  -0.6603  -0.6401  -0.5500  -0.4697  -0.3957  -0.3417  -0.3267
    -0.2827  -0.2379  -0.2128  -0.2089  -0.2010  -0.1530  -0.1440  -0.1385
    -0.1073  -0.0714   0.0034   0.1230   0.1409   0.1426   0.1748   0.2097
     0.2233   0.2317   0.2701   0.3292   0.3484   0.3525   0.4640   0.4856
     0.5656   0.8292   0.9032   0.9040   0.9189   0.9997   1.2176   1.3239
     1.3728   1.3937   1.4134   1.4226   1.4670   1.4885   1.5379   1.5785
     1.6112   1.6114   1.7968   1.8648   1.8692   1.9649   2.0649   2.1908
     2.2539   2.2867   2.3844   2.4387   2.5344   2.5619   2.7272   5.0342
     5.2411   5.8378   6.1144   6.2568   6.5061   6.7744   7.1724   7.2792
     8.0084   8.0710   8.1299   8.2926   8.4171   8.5872   8.6792   9.0243
     9.0890

          k = 0.0000 0.1320 0.0000 ( 34203 PWs)   bands (ev):

   -35.8277 -35.5868 -23.2539 -22.7441 -22.5211 -22.4790 -17.0940 -17.0366
   -16.9331 -16.8182 -16.6972 -16.6355 -15.1740 -15.1703 -14.9017 -14.7560
   -14.6201 -14.5194 -14.4580 -14.2778 -14.1504 -13.9475 -13.8611 -13.8306
   -13.7814 -13.6512 -13.6116  -8.4132  -8.3437  -8.2163  -7.9049  -7.8114
    -7.7100  -7.7063  -7.6768  -7.5738  -7.4979  -7.4779  -7.4256  -2.8846
    -2.3239  -2.3034  -2.1245  -2.0391  -2.0180  -1.9182  -1.6167  -1.6120
    -1.6098  -1.6076  -1.5113  -1.4851  -1.4163  -1.3852  -1.3040  -1.1229
    -0.9642  -0.7819  -0.7204  -0.6041  -0.5710  -0.4946  -0.4635  -0.4380
    -0.4224  -0.3120  -0.3057  -0.3052  -0.2228  -0.1709  -0.1187  -0.1070
    -0.0297  -0.0118   0.0255   0.0426   0.1471   0.1487   0.1613   0.1993
     0.2124   0.2316   0.2510   0.3061   0.3136   0.3572   0.3987   0.4089
     0.7825   0.9490   1.0647   1.0985   1.1161   1.1812   1.1842   1.1883
     1.2285   1.3421   1.4338   1.4453   1.4792   1.4918   1.5349   1.5530
     1.6457   1.7336   1.7687   1.8279   1.8525   1.9427   2.0213   2.0868
     2.1061   2.2319   2.3261   2.6042   2.7977   2.8494   2.9419   5.4429
     5.6208   6.1541   6.4435   6.5537   6.7147   7.0804   7.4657   7.5630
     8.1826   8.2929   8.3626   8.4911   8.6310   8.7151   8.8993   9.1673
     9.2662

          k = 0.0000 0.2640 0.0000 ( 34079 PWs)   bands (ev):

   -35.8239 -35.5825 -23.1889 -22.6787 -22.4565 -22.4168 -17.0414 -17.0196
   -16.9470 -16.8465 -16.8135 -16.6300 -15.2890 -14.9730 -14.7481 -14.6661
   -14.6207 -14.4532 -14.3956 -14.2049 -14.1439 -14.0111 -13.9887 -13.9462
   -13.8206 -13.7571 -13.6912  -8.4129  -8.2772  -8.2189  -7.9027  -7.8005
    -7.7232  -7.6918  -7.6688  -7.5733  -7.5251  -7.4592  -7.3848  -3.0010
    -2.7934  -2.7083  -2.5659  -2.4011  -2.3766  -2.2241  -2.2155  -2.2058
    -2.0404  -1.6103  -1.5556  -1.5166  -1.4285  -1.4130  -1.3374  -1.3334
    -1.0658  -1.0657  -0.9723  -0.9127  -0.8302  -0.7600  -0.7440  -0.6114
    -0.5039  -0.4993  -0.4903  -0.4571  -0.4137  -0.4025  -0.3307  -0.2762
    -0.2361  -0.0696  -0.0322  -0.0096   0.0550   0.1341   0.1571   0.2245
     0.2418   0.2855   0.3021   0.4107   0.4237   0.6514   0.7293   0.8152
     0.9905   1.0068   1.0109   1.1195   1.1376   1.1730   1.1951   1.2354
     1.2700   1.3029   1.3669   1.4037   1.5537   1.6099   1.6534   1.6768
     1.7424   1.7852   1.8066   1.8955   1.9210   1.9750   1.9789   1.9882
     2.0074   2.0834   2.2734   2.6583   2.9157   3.0602   3.7170   6.3802
     6.5186   6.8330   7.2822   7.3207   7.4108   7.9077   8.2255   8.3889
     8.4578   8.7358   8.7529   8.8876   8.9604   9.1007   9.1625   9.3250
     9.3703

          k = 0.0000 0.3960 0.0000 ( 34048 PWs)   bands (ev):

   -35.8202 -35.5781 -23.1216 -22.6111 -22.3896 -22.3526 -17.1064 -16.9807
   -16.9791 -16.8483 -16.8088 -16.6244 -15.4292 -14.8734 -14.6415 -14.5936
   -14.4590 -14.3974 -14.3224 -14.1449 -14.1093 -14.1001 -14.0708 -14.0546
   -13.9083 -13.8388 -13.7866  -8.4095  -8.3288  -8.0854  -7.9008  -7.8796
    -7.7366  -7.6667  -7.6548  -7.6091  -7.5644  -7.3378  -7.2647  -3.4091
    -3.2477  -3.2123  -3.0223  -2.9552  -2.7053  -2.6514  -2.2909  -2.2626
    -2.0822  -1.9481  -1.7516  -1.7435  -1.5348  -1.4899  -1.3377  -1.2332
    -1.1751  -1.1666  -1.0647  -1.0594  -1.0109  -0.9482  -0.8879  -0.8242
    -0.7629  -0.7371  -0.7126  -0.6784  -0.6442  -0.6332  -0.4946  -0.3582
    -0.3010  -0.2269  -0.0816   0.0288   0.0728   0.0931   0.1681   0.1855
     0.2090   0.3108   0.3140   0.5305   0.6949   0.8138   0.8973   0.9232
     0.9534   0.9737   0.9874   1.0003   1.1228   1.1616   1.2005   1.2129
     1.3496   1.4049   1.4788   1.5781   1.5843   1.6164   1.6599   1.6674
     1.7640   1.7724   1.8889   1.9358   1.9673   2.0196   2.1120   2.1211
     2.2831   2.4002   2.4025   2.5500   2.7659   2.9519   4.2502   7.2435
     7.4534   7.4737   8.2487   8.2746   8.5308   8.5899   8.6302   8.7086
     8.8959   9.0938   9.1077   9.1879   9.3001   9.3601   9.4585   9.5428
     9.7438

          k = 0.0000-0.5279 0.0000 ( 34110 PWs)   bands (ev):

   -35.8187 -35.5763 -23.0931 -22.5824 -22.3612 -22.3254 -17.1397 -17.0299
   -16.9560 -16.8068 -16.8049 -16.6221 -15.4908 -14.9112 -14.5644 -14.5297
   -14.4303 -14.3208 -14.2247 -14.1872 -14.1627 -14.0994 -14.0808 -14.0411
   -13.9923 -13.8730 -13.8348  -8.4048  -8.3502  -8.0271  -7.9093  -7.9000
    -7.7388  -7.6988  -7.6486  -7.6478  -7.5090  -7.2852  -7.2126  -3.6752
    -3.4262  -3.3579  -3.1981  -3.1773  -2.8244  -2.7429  -2.3063  -2.2791
    -2.0788  -2.0285  -1.9653  -1.8775  -1.6328  -1.4565  -1.2835  -1.2587
    -1.1801  -1.1360  -1.0812  -1.0683  -1.0560  -1.0375  -0.9696  -0.9433
    -0.8852  -0.8199  -0.7979  -0.7803  -0.7453  -0.7358  -0.5997  -0.3610
    -0.3300  -0.2696  -0.0882   0.0787   0.0933   0.1292   0.1519   0.2023
     0.2036   0.2988   0.3197   0.4586   0.7532   0.7840   0.8404   0.8839
     0.9181   0.9437   0.9596   1.0357   1.1434   1.2249   1.2437   1.3511
     1.3809   1.4057   1.4203   1.5524   1.5829   1.6277   1.6575   1.7589
     1.7750   1.9237   1.9422   2.0441   2.0549   2.0895   2.1344   2.2042
     2.2873   2.5190   2.5641   2.5716   2.5779   2.7721   4.4184   7.5011
     7.7739   7.8715   8.4747   8.7957   8.9158   8.9965   9.0089   9.0089
     9.0757   9.0902   9.2100   9.3468   9.4127   9.4702   9.5530   9.9595
     9.9677

          k = 0.1250 0.0000 0.0000 ( 34183 PWs)   bands (ev):

   -35.8281 -35.5876 -23.2623 -22.7526 -22.5299 -22.4873 -17.0889 -17.0392
   -16.8933 -16.8857 -16.7147 -16.6262 -15.1740 -15.1614 -14.8891 -14.8282
   -14.6610 -14.5521 -14.4660 -14.2979 -14.1485 -13.9540 -13.8470 -13.8048
   -13.7856 -13.6316 -13.6192  -8.4148  -8.3405  -8.1533  -7.9299  -7.7988
    -7.7647  -7.7022  -7.6340  -7.5417  -7.4823  -7.4041  -7.3486  -2.8760
    -2.2994  -2.2869  -1.8797  -1.8344  -1.8335  -1.7862  -1.7720  -1.7637
    -1.7185  -1.7046  -1.5061  -1.4166  -1.1808  -1.1384  -1.0638  -1.0172
    -0.9005  -0.8175  -0.6966  -0.5961  -0.5385  -0.4782  -0.4372  -0.3479
    -0.3432  -0.2958  -0.2850  -0.2751  -0.2417  -0.2245  -0.1620  -0.1331
    -0.1151  -0.0634  -0.0089   0.0011   0.1337   0.1551   0.1607   0.2374
     0.2569   0.2645   0.3104   0.3972   0.4168   0.4188   0.4549   0.5962
     0.6536   0.8254   0.8461   0.9265   0.9860   1.0554   1.2024   1.2187
     1.2329   1.2733   1.4058   1.4090   1.4357   1.4411   1.5170   1.5291
     1.5341   1.6079   1.8722   1.9501   2.0163   2.0969   2.1580   2.1904
     2.3071   2.3504   2.3841   2.4859   2.4910   2.5962   2.7423   5.2104
     5.4226   6.0517   6.3382   6.4771   6.6454   6.9905   7.3676   7.5010
     8.1667   8.2521   8.3693   8.4568   8.6173   8.7695   8.9224   9.0971
     9.1763

          k = 0.1250 0.1320 0.0000 ( 34158 PWs)   bands (ev):

   -35.8266 -35.5858 -23.2368 -22.7270 -22.5044 -22.4628 -17.0677 -17.0050
   -16.9322 -16.8819 -16.7176 -16.6870 -15.2045 -15.0808 -14.8290 -14.7758
   -14.6538 -14.5213 -14.4391 -14.2705 -14.1519 -13.9606 -13.8836 -13.8462
   -13.8067 -13.6749 -13.6471  -8.4702  -8.3705  -8.0999  -7.9451  -7.8649
    -7.7742  -7.6997  -7.6252  -7.5964  -7.5692  -7.3677  -7.3066  -2.9125
    -2.3556  -2.3285  -2.1152  -2.0373  -2.0034  -1.9226  -1.8128  -1.8061
    -1.7539  -1.6790  -1.6260  -1.6018  -1.5077  -1.3676  -1.2986  -1.1600
    -1.0704  -0.9903  -0.7450  -0.6585  -0.6405  -0.5971  -0.5205  -0.5083
    -0.4478  -0.4409  -0.4259  -0.3575  -0.2233  -0.1739  -0.1331  -0.0866
    -0.0613  -0.0001   0.0241   0.0286   0.0520   0.1609   0.1885   0.2278
     0.2293   0.2593   0.3194   0.3328   0.3449   0.4159   0.5031   0.5571
     0.7882   1.0125   1.0693   1.1215   1.1428   1.1806   1.2269   1.2531
     1.2673   1.2994   1.3184   1.3298   1.3790   1.4453   1.5125   1.5357
     1.6265   1.6733   1.6894   1.7914   1.8518   1.9773   2.0772   2.3150
     2.3763   2.5291   2.5784   2.7137   2.8229   2.8598   2.9520   5.5768
     5.7638   6.3058   6.6617   6.7294   6.8304   7.2882   7.6590   7.7741
     8.3064   8.4099   8.5311   8.6301   8.7824   8.8339   9.0719   9.1246
     9.3275

          k = 0.1250 0.2640 0.0000 ( 34093 PWs)   bands (ev):

   -35.8229 -35.5814 -23.1740 -22.6636 -22.4416 -22.4024 -17.0249 -17.0095
   -16.9182 -16.8752 -16.8434 -16.6981 -15.2946 -14.9023 -14.6799 -14.6552
   -14.6292 -14.4480 -14.3720 -14.1974 -14.1391 -14.0114 -14.0017 -13.9393
   -13.8379 -13.7649 -13.7203  -8.5654  -8.3621  -8.0844  -8.0114  -7.9035
    -7.8042  -7.7370  -7.6954  -7.6591  -7.5881  -7.3622  -7.3008  -3.0201
    -2.8149  -2.6970  -2.5728  -2.4242  -2.3766  -2.2187  -2.2175  -2.2072
    -2.0420  -1.7628  -1.7342  -1.7160  -1.6263  -1.5494  -1.5119  -1.4194
    -1.0642  -1.0004  -0.9577  -0.9346  -0.8860  -0.8315  -0.8238  -0.7458
    -0.6919  -0.6588  -0.6362  -0.5374  -0.4686  -0.4504  -0.3035  -0.2594
    -0.1790  -0.1023  -0.0599   0.0171   0.0309   0.1485   0.1842   0.2147
     0.2485   0.3585   0.4216   0.5359   0.6382   0.7704   0.8257   0.8338
     0.8722   1.0476   1.0757   1.1394   1.1952   1.2407   1.2674   1.3341
     1.3533   1.3794   1.4337   1.4393   1.4883   1.5454   1.6047   1.6340
     1.6765   1.6888   1.7363   1.7797   1.9348   1.9713   2.0679   2.3162
     2.5080   2.5728   2.7325   2.8301   2.9292   3.0723   3.7186   6.4170
     6.5796   6.8186   7.3980   7.4331   7.5522   8.0759   8.3553   8.4538
     8.5630   8.7832   8.8510   8.9607   8.9965   9.0352   9.1146   9.1979
     9.3111

          k = 0.1250 0.3960 0.0000 ( 34104 PWs)   bands (ev):

   -35.8192 -35.5771 -23.1091 -22.5982 -22.3768 -22.3401 -17.1033 -16.9741
   -16.9582 -16.8686 -16.8225 -16.6897 -15.4014 -14.8373 -14.5713 -14.5491
   -14.4294 -14.3747 -14.2935 -14.1308 -14.1100 -14.0967 -14.0841 -14.0426
   -13.9040 -13.8329 -13.8124  -8.5761  -8.3514  -8.1495  -8.0431  -7.9124
    -7.8209  -7.7846  -7.7214  -7.6768  -7.6340  -7.4020  -7.3422  -3.3972
    -3.2873  -3.2132  -3.0506  -2.9467  -2.7209  -2.6803  -2.3000  -2.2689
    -2.0622  -1.8991  -1.7496  -1.7412  -1.6134  -1.5911  -1.5495  -1.4573
    -1.2886  -1.2464  -1.1884  -1.1519  -1.0692  -1.0442  -0.9976  -0.9242
    -0.8448  -0.8325  -0.8119  -0.7639  -0.7178  -0.6928  -0.4713  -0.3389
    -0.2559  -0.2401  -0.0883   0.0028   0.0550   0.1577   0.2142   0.2430
     0.2921   0.3708   0.4705   0.7089   0.7772   0.8704   0.9297   0.9993
     1.0040   1.0555   1.0845   1.1257   1.1502   1.2269   1.2490   1.2577
     1.3858   1.4918   1.5048   1.5659   1.6282   1.6876   1.7477   1.8108
     1.8439   1.8811   1.9219   2.0287   2.1115   2.3095   2.3691   2.3768
     2.4066   2.5188   2.6128   2.7411   2.7774   3.0128   4.2368   7.0492
     7.1916   7.3290   8.1384   8.2603   8.5047   8.6044   8.6528   8.6914
     8.8959   8.9453   9.2353   9.3678   9.3987   9.4443   9.5698   9.5819
     9.7110

          k = 0.1250-0.5279 0.0000 ( 34036 PWs)   bands (ev):

   -35.8176 -35.5753 -23.0816 -22.5705 -22.3494 -22.3138 -17.1364 -17.0244
   -16.9344 -16.8659 -16.7806 -16.6860 -15.4497 -14.8661 -14.5170 -14.4600
   -14.3924 -14.2635 -14.2179 -14.1687 -14.1432 -14.1313 -14.0776 -14.0413
   -13.9791 -13.8610 -13.8572  -8.5473  -8.3531  -8.2024  -8.0383  -7.9164
    -7.8204  -7.7739  -7.7444  -7.6830  -7.6682  -7.4308  -7.3679  -3.6652
    -3.4738  -3.3506  -3.2279  -3.1751  -2.8428  -2.7831  -2.3200  -2.2883
    -2.0507  -1.9776  -1.7773  -1.7666  -1.5712  -1.5198  -1.4802  -1.4274
    -1.4236  -1.3563  -1.2884  -1.2732  -1.2364  -1.1493  -1.0729  -1.0320
    -0.9178  -0.8865  -0.8491  -0.8348  -0.8118  -0.7775  -0.5886  -0.3507
    -0.2739  -0.1735  -0.0941  -0.0072   0.0757   0.1796   0.2391   0.2539
     0.3056   0.3473   0.4770   0.6815   0.7844   0.9175   0.9446   0.9593
     0.9838   0.9847   1.0393   1.0647   1.0778   1.2847   1.3008   1.3825
     1.4259   1.5103   1.5545   1.6364   1.6466   1.8164   1.9191   1.9647
     2.0398   2.0587   2.0743   2.1325   2.1333   2.2794   2.3753   2.4545
     2.5040   2.5346   2.5456   2.5830   2.6082   2.8903   4.3977   7.1650
     7.3036   7.5462   8.3198   8.4379   8.5931   8.9876   9.0797   9.0868
     9.2306   9.2619   9.3334   9.5159   9.6508   9.6612   9.7118   9.7716
     9.9852

          k = 0.2500 0.0000 0.0000 ( 34204 PWs)   bands (ev):

   -35.8256 -35.5850 -23.2183 -22.7087 -22.4869 -22.4458 -17.0306 -17.0177
   -16.9560 -16.8903 -16.8731 -16.6230 -15.3118 -14.9598 -14.8968 -14.7464
   -14.6873 -14.5713 -14.4157 -14.2806 -14.1664 -14.0092 -13.9649 -13.8498
   -13.8362 -13.7078 -13.6959  -8.3908  -8.2418  -8.0689  -7.9310  -7.8244
    -7.7119  -7.6796  -7.5540  -7.4696  -7.3958  -7.3279  -7.2737  -2.9623
    -2.5050  -2.4105  -2.2609  -2.2284  -2.1485  -2.0881  -1.8174  -1.7110
    -1.6953  -1.6154  -1.5419  -1.4270  -1.2620  -1.2488  -1.1766  -1.0746
    -1.0549  -0.9318  -0.8975  -0.8771  -0.7327  -0.6820  -0.6729  -0.6039
    -0.5615  -0.5455  -0.5295  -0.4651  -0.3792  -0.2556  -0.2168  -0.1674
    -0.1383  -0.1310  -0.0006   0.0120   0.1208   0.2246   0.2460   0.2509
     0.3256   0.3669   0.4823   0.4952   0.5066   0.5842   0.6544   0.6928
     0.7104   0.7329   0.7806   0.9627   0.9780   1.0790   1.1288   1.1590
     1.2597   1.2861   1.3059   1.3369   1.4575   1.4846   1.5056   1.5226
     1.5808   1.6392   1.7882   1.9096   2.0569   2.0721   2.2558   2.2737
     2.3378   2.3749   2.5048   2.5627   2.7025   2.7337   2.7685   5.6538
     5.8820   6.5005   6.9186   7.0591   7.1052   7.5727   7.9114   8.0888
     8.3989   8.5285   8.7601   8.9589   9.0135   9.2528   9.2840   9.3419
     9.5399

          k = 0.2500 0.1320 0.0000 ( 34143 PWs)   bands (ev):

   -35.8240 -35.5832 -23.1949 -22.6851 -22.4634 -22.4231 -17.0252 -17.0001
   -16.9265 -16.9248 -16.8669 -16.6867 -15.3106 -14.9062 -14.8355 -14.7005
   -14.6350 -14.5358 -14.3854 -14.2518 -14.1531 -14.0050 -13.9657 -13.8811
   -13.8641 -13.7247 -13.7199  -8.5042  -8.3529  -8.0133  -7.9948  -7.8622
    -7.8524  -7.7248  -7.6172  -7.5703  -7.5207  -7.2993  -7.2399  -2.9929
    -2.5571  -2.4459  -2.2989  -2.2274  -2.1416  -2.0837  -2.0553  -1.9358
    -1.9246  -1.8476  -1.6492  -1.5922  -1.5290  -1.4779  -1.3808  -1.3086
    -1.1902  -1.0648  -0.9817  -0.9113  -0.8440  -0.8255  -0.7789  -0.7522
    -0.6016  -0.5736  -0.5436  -0.4436  -0.3802  -0.2920  -0.2601  -0.1747
    -0.1411   0.0078   0.0348   0.0613   0.1213   0.1923   0.2131   0.2408
     0.3366   0.3690   0.3992   0.4116   0.5931   0.6328   0.7266   0.8102
     0.8759   0.9385   0.9506   1.0498   1.1109   1.1552   1.2150   1.2470
     1.2701   1.3115   1.3867   1.4185   1.4478   1.4651   1.5088   1.5732
     1.5948   1.6956   1.7478   1.7580   1.8700   1.9627   2.0574   2.4253
     2.6969   2.7352   2.8834   2.9099   2.9546   3.0036   3.0862   5.9293
     6.1452   6.5928   7.1787   7.2080   7.3059   7.8331   8.1693   8.3109
     8.4010   8.6406   8.8921   8.9557   9.0772   9.1781   9.2278   9.2925
     9.3532

          k = 0.2500 0.2640 0.0000 ( 34141 PWs)   bands (ev):

   -35.8204 -35.5789 -23.1375 -22.6268 -22.4053 -22.3672 -17.0248 -17.0021
   -16.9517 -16.8665 -16.8395 -16.8187 -15.3159 -14.8063 -14.6741 -14.5698
   -14.5015 -14.4460 -14.3067 -14.1784 -14.1295 -14.0521 -13.9912 -13.9300
   -13.9045 -13.7823 -13.7683  -8.7718  -8.3597  -8.2137  -8.1390  -8.0025
    -7.9330  -7.9137  -7.7099  -7.6782  -7.6416  -7.4187  -7.3620  -3.0828
    -2.9477  -2.7242  -2.6272  -2.5576  -2.3916  -2.2729  -2.2605  -2.2102
    -2.1963  -2.1192  -2.1058  -2.0129  -1.8926  -1.6058  -1.5686  -1.4097
    -1.3745  -1.2522  -1.1568  -1.0735  -1.0258  -0.9915  -0.9332  -0.8200
    -0.7558  -0.6898  -0.6680  -0.5923  -0.5546  -0.5081  -0.4090  -0.3648
    -0.2932  -0.2183  -0.0441   0.0290   0.0422   0.1640   0.2383   0.3850
     0.4566   0.5804   0.6124   0.7601   0.8175   0.8803   0.8903   0.9848
     1.0331   1.1198   1.1652   1.2098   1.2923   1.3382   1.3711   1.4148
     1.4672   1.4939   1.5190   1.5741   1.6154   1.6357   1.6601   1.6873
     1.7114   1.7417   1.7508   1.8306   1.8683   1.8896   2.1799   2.4062
     2.8415   3.0068   3.1789   3.3045   3.3882   3.4527   3.7333   6.4439
     6.6594   6.6906   7.5965   7.7028   8.0126   8.3449   8.3752   8.7295
     8.7506   8.8982   8.9606   9.0620   9.1590   9.2191   9.3242   9.3537
     9.4101

          k = 0.2500 0.3960 0.0000 ( 34116 PWs)   bands (ev):

   -35.8167 -35.5746 -23.0785 -22.5668 -22.3456 -22.3097 -17.0962 -17.0014
   -16.9625 -16.9018 -16.8328 -16.7557 -15.3334 -14.7538 -14.4817 -14.4079
   -14.3594 -14.3252 -14.2065 -14.1762 -14.1042 -14.0719 -14.0630 -14.0010
   -13.9225 -13.8395 -13.8235  -8.8910  -8.4111  -8.3554  -8.3348  -8.1017
    -8.0627  -7.9601  -7.8572  -7.7668  -7.7353  -7.6165  -7.5663  -3.4513
    -3.3652  -3.2345  -3.1623  -2.9260  -2.8911  -2.7203  -2.3872  -2.3016
    -2.2686  -2.1065  -2.0645  -1.9615  -1.8550  -1.7796  -1.7229  -1.5635
    -1.5340  -1.4359  -1.3758  -1.2924  -1.1946  -1.1024  -1.0130  -0.9585
    -0.8405  -0.8157  -0.7669  -0.7568  -0.7219  -0.6235  -0.5040  -0.4866
    -0.4206  -0.3767  -0.2026   0.0698   0.1444   0.2106   0.4011   0.4561
     0.5158   0.5886   0.8131   0.8496   1.0078   1.0194   1.0473   1.1363
     1.1855   1.2866   1.2933   1.3287   1.3506   1.3557   1.4876   1.5313
     1.5649   1.6252   1.6339   1.7247   1.7745   1.8148   1.8196   1.8785
     1.9165   1.9607   1.9624   2.0932   2.1326   2.2900   2.2952   2.4389
     2.6581   2.8384   3.2050   3.4553   3.5337   3.6869   4.2104   6.5209
     6.5475   6.8953   7.7540   8.0065   8.4665   8.7919   8.8189   8.8777
     9.0327   9.1681   9.2925   9.3839   9.5423   9.6675   9.7025   9.8188
     9.8794

          k = 0.2500-0.5279 0.0000 ( 34148 PWs)   bands (ev):

   -35.8151 -35.5728 -23.0535 -22.5415 -22.3204 -22.2854 -17.1284 -17.0114
   -16.9976 -16.8802 -16.8275 -16.7175 -15.3446 -14.7480 -14.3908 -14.3322
   -14.3041 -14.2262 -14.1941 -14.1406 -14.1275 -14.0870 -14.0702 -14.0355
   -13.9543 -13.8961 -13.8251  -8.8718  -8.5848  -8.3568  -8.3354  -8.1037
    -8.0664  -8.0488  -7.9218  -7.8483  -7.8006  -7.6761  -7.6501  -3.6660
    -3.6218  -3.3561  -3.3464  -3.1534  -3.0181  -2.8537  -2.3897  -2.3184
    -2.2911  -2.0658  -2.0057  -1.9371  -1.9153  -1.8555  -1.8258  -1.6795
    -1.5314  -1.4744  -1.4078  -1.2791  -1.2400  -1.1900  -1.1550  -1.0479
    -0.9107  -0.9018  -0.8345  -0.7715  -0.7140  -0.6602  -0.5847  -0.5162
    -0.4796  -0.4055  -0.1928   0.1523   0.2393   0.2754   0.4058   0.4340
     0.4762   0.6076   0.8823   0.9582   1.0707   1.0894   1.1113   1.1123
     1.1640   1.2123   1.2323   1.3363   1.4031   1.4325   1.4841   1.5290
     1.6155   1.6649   1.7501   1.7797   1.9453   1.9494   2.0146   2.0248
     2.0674   2.0747   2.1160   2.1325   2.2626   2.3975   2.4660   2.4828
     2.4855   2.6151   3.1772   3.4261   3.5536   3.7210   4.3513   6.4416
     6.4531   6.8590   7.7193   7.9816   8.6002   8.8675   8.9796   9.2071
     9.4745   9.5060   9.5459   9.5759   9.6047   9.8702   9.9306  10.0064
    10.0349

          k = 0.3750 0.0000 0.0000 ( 34140 PWs)   bands (ev):

   -35.8230 -35.5824 -23.1732 -22.6638 -22.4431 -22.4033 -17.1535 -17.0092
   -16.9474 -16.8873 -16.8633 -16.6197 -15.4614 -14.9894 -14.9743 -14.6175
   -14.5742 -14.4783 -14.3418 -14.2463 -14.1811 -14.1255 -14.0505 -13.9280
   -13.8875 -13.8229 -13.7402  -8.3612  -8.1498  -7.9804  -7.9126  -7.8351
    -7.6473  -7.6332  -7.4703  -7.4338  -7.3532  -7.2485  -7.1958  -3.0711
    -2.8475  -2.6853  -2.6416  -2.4646  -2.2558  -2.2060  -1.8306  -1.8060
    -1.6288  -1.6046  -1.5298  -1.4716  -1.3651  -1.3129  -1.1764  -1.1546
    -1.1457  -1.0801  -1.0475  -0.9890  -0.9812  -0.8683  -0.8502  -0.8462
    -0.7818  -0.7658  -0.6647  -0.6469  -0.5360  -0.3785  -0.2407  -0.2009
    -0.1634  -0.1439  -0.1134  -0.0322   0.1078   0.2106   0.2369   0.2412
     0.2862   0.4466   0.4659   0.5032   0.5560   0.5708   0.6993   0.7287
     0.7841   0.8768   0.8912   0.9406   1.0114   1.0489   1.1768   1.1963
     1.2108   1.2682   1.3734   1.4967   1.5423   1.5459   1.6378   1.6763
     1.6882   1.7514   1.8020   1.8394   1.9481   2.0970   2.1621   2.2165
     2.3193   2.4104   2.5716   2.6496   2.7645   2.8250   2.8385   6.2808
     6.5334   6.8519   7.5197   7.7339   7.7838   8.0288   8.2594   8.4918
     8.6521   8.7647   9.1539   9.3241   9.3899   9.4965   9.4969   9.5477
     9.5770

          k = 0.3750 0.1320 0.0000 ( 34185 PWs)   bands (ev):

   -35.8215 -35.5806 -23.1521 -22.6422 -22.4215 -22.3825 -17.1481 -17.0009
   -16.9320 -16.9215 -16.8350 -16.6818 -15.4279 -14.9377 -14.9077 -14.5772
   -14.5150 -14.4385 -14.3053 -14.2160 -14.1527 -14.0996 -14.0333 -13.9491
   -13.9210 -13.8211 -13.7480  -8.4296  -8.3238  -8.0600  -7.9665  -7.8672
    -7.8125  -7.6935  -7.5731  -7.5606  -7.5317  -7.3457  -7.2889  -3.0980
    -2.9077  -2.7354  -2.6927  -2.4819  -2.2577  -2.2044  -2.0095  -1.9091
    -1.8402  -1.8032  -1.6880  -1.6555  -1.5808  -1.4823  -1.4479  -1.4151
    -1.2742  -1.2101  -1.1611  -1.0895  -1.0814  -1.0217  -0.9839  -0.8960
    -0.7368  -0.7279  -0.6468  -0.4878  -0.4766  -0.3677  -0.3227  -0.2301
    -0.2250  -0.0636  -0.0205   0.0780   0.1528   0.1925   0.2144   0.2781
     0.3800   0.4238   0.4800   0.5600   0.5846   0.7046   0.7719   0.8271
     0.8969   0.9903   0.9994   1.0540   1.1531   1.1840   1.2089   1.2560
     1.2842   1.3542   1.3881   1.5539   1.5795   1.6032   1.6121   1.6943
     1.7360   1.7675   1.7833   1.8268   1.8748   1.9076   1.9579   2.4019
     2.7653   2.7858   2.9446   2.9925   3.0648   3.1650   3.2752   6.4114
     6.6835   6.7530   7.7180   7.8180   7.8289   8.0946   8.2962   8.5154
     8.7682   8.9310   9.0773   9.1878   9.2897   9.3801   9.5179   9.5589
     9.6417

          k = 0.3750 0.2640 0.0000 ( 34193 PWs)   bands (ev):

   -35.8178 -35.5763 -23.1004 -22.5892 -22.3684 -22.3312 -17.1354 -17.0075
   -16.9812 -16.8868 -16.8215 -16.7621 -15.3463 -14.8130 -14.7164 -14.4814
   -14.3721 -14.3363 -14.2145 -14.1449 -14.1121 -14.0799 -14.0087 -13.9856
   -13.9570 -13.8193 -13.7819  -8.8116  -8.3953  -8.3296  -8.2662  -8.0572
    -7.9906  -7.9449  -7.8263  -7.7560  -7.6957  -7.5959  -7.5534  -3.2226
    -3.1890  -2.9679  -2.9172  -2.5782  -2.5524  -2.4662  -2.3347  -2.3223
    -2.1965  -2.1934  -2.1844  -2.1411  -1.8418  -1.7442  -1.5984  -1.5603
    -1.5088  -1.4501  -1.3247  -1.2041  -1.0160  -0.9435  -0.9320  -0.8894
    -0.8371  -0.7865  -0.6754  -0.6102  -0.5847  -0.5417  -0.5090  -0.4481
    -0.3243  -0.2435  -0.0504  -0.0066   0.0806   0.2312   0.3560   0.4915
     0.5298   0.7169   0.8039   0.8571   0.8701   0.9552   1.0373   1.0788
     1.1403   1.2122   1.2518   1.2766   1.3425   1.4398   1.4407   1.4717
     1.5563   1.6087   1.6553   1.6713   1.6940   1.7346   1.7590   1.7782
     1.7984   1.8043   1.8571   1.8663   1.9146   2.0076   2.1522   2.3443
     2.8490   3.0083   3.5125   3.6556   3.7564   3.8596   3.9054   6.3621
     6.4047   6.7297   7.6478   7.8646   8.1430   8.4331   8.6450   8.8477
     8.8604   9.1640   9.2768   9.4195   9.4284   9.4792   9.5649   9.6491
     9.7873

          k = 0.3750 0.3960 0.0000 ( 34177 PWs)   bands (ev):

   -35.8142 -35.5720 -23.0474 -22.5350 -22.3140 -22.2787 -17.1228 -17.0876
   -16.9647 -16.9446 -16.8421 -16.6849 -15.2639 -14.6745 -14.4576 -14.3895
   -14.2416 -14.2001 -14.1915 -14.1228 -14.0885 -14.0700 -14.0477 -13.9514
   -13.9442 -13.8294 -13.8255  -9.0957  -8.7429  -8.5334  -8.3589  -8.2965
    -8.2609  -8.1977  -7.9908  -7.9475  -7.8615  -7.8126  -7.6620  -3.7032
    -3.4246  -3.3508  -3.3023  -3.1757  -2.9055  -2.8125  -2.5915  -2.5489
    -2.4377  -2.2430  -2.2039  -2.1845  -2.0571  -1.8350  -1.8145  -1.8017
    -1.6087  -1.5243  -1.2433  -1.2120  -1.1580  -1.1261  -0.9791  -0.9682
    -0.9233  -0.8329  -0.8056  -0.7656  -0.6949  -0.6655  -0.5932  -0.5652
    -0.4633  -0.3375  -0.1283   0.0879   0.2290   0.3457   0.5390   0.6292
     0.7477   0.8578   1.0198   1.0391   1.1123   1.1896   1.1965   1.2687
     1.3562   1.3815   1.3965   1.5134   1.5145   1.5537   1.5608   1.6176
     1.7530   1.7588   1.7897   1.8539   1.8661   1.9246   1.9954   2.0346
     2.0566   2.1136   2.1445   2.1753   2.2115   2.2276   2.2779   2.4443
     2.6547   2.8290   3.7489   3.9875   4.2521   4.3052   4.3674   5.9633
     5.9848   6.4266   7.3763   7.7163   8.2872   8.9542   8.9856   9.0468
     9.0926   9.2862   9.4421   9.5060   9.5335   9.6248   9.6486   9.7607
     9.8544

          k = 0.3750-0.5279 0.0000 ( 34192 PWs)   bands (ev):

   -35.8126 -35.5703 -23.0251 -22.5121 -22.2911 -22.2566 -17.1206 -17.1168
   -16.9986 -16.9523 -16.8230 -16.6508 -15.2298 -14.6101 -14.3638 -14.2445
   -14.2246 -14.2242 -14.1350 -14.1193 -14.0932 -14.0639 -14.0273 -14.0039
   -13.9451 -13.8407 -13.8142  -9.1746  -8.9170  -8.6161  -8.3753  -8.3645
    -8.3458  -8.3436  -8.1551  -7.9715  -7.9711  -7.8393  -7.6814  -3.9100
    -3.6593  -3.5465  -3.4348  -3.3009  -3.1304  -2.9825  -2.6082  -2.5833
    -2.4502  -2.2589  -2.1982  -2.1787  -2.1653  -1.9067  -1.8861  -1.8183
    -1.6604  -1.5689  -1.2953  -1.2246  -1.1800  -1.0810  -1.0792  -1.0166
    -0.9235  -0.9199  -0.9104  -0.8516  -0.6953  -0.6924  -0.6861  -0.5642
    -0.5354  -0.3216  -0.1368   0.2512   0.3571   0.3851   0.5298   0.6807
     0.7349   0.9153   1.1315   1.1698   1.1781   1.2400   1.3019   1.3161
     1.3422   1.3848   1.3933   1.5635   1.5848   1.5970   1.6356   1.7520
     1.7635   1.8084   1.9198   1.9282   2.0549   2.0813   2.1419   2.1708
     2.1909   2.2643   2.2731   2.3277   2.3584   2.3700   2.4026   2.4461
     2.5133   2.5844   3.8079   4.0458   4.3705   4.4531   4.5140   5.7703
     5.7760   6.2492   7.2809   7.6542   8.2486   8.8777   8.9163   9.0057
     9.1415   9.3802   9.6073   9.6271   9.6732   9.7899   9.7908   9.8637
     9.8784

          k =-0.5000 0.0000 0.0000 ( 34130 PWs)   bands (ev):

   -35.8219 -35.5813 -23.1542 -22.6448 -22.4246 -22.3854 -17.2017 -17.0602
   -16.9157 -16.8861 -16.8224 -16.6183 -15.5240 -15.0438 -15.0126 -14.6373
   -14.4366 -14.3504 -14.3026 -14.2802 -14.1689 -14.1640 -14.0880 -13.9726
   -13.9246 -13.9000 -13.7547  -8.3484  -8.1123  -7.9425  -7.9017  -7.8308
    -7.6245  -7.6066  -7.4345  -7.4303  -7.3425  -7.2145  -7.1625  -3.1232
    -2.9915  -2.8218  -2.7842  -2.5391  -2.2787  -2.2149  -1.9761  -1.8057
    -1.5987  -1.5810  -1.5540  -1.3865  -1.3604  -1.3487  -1.1953  -1.1794
    -1.1789  -1.1784  -1.1371  -1.0436  -1.0259  -0.9600  -0.9308  -0.8831
    -0.8699  -0.8607  -0.7486  -0.6727  -0.6028  -0.4345  -0.2568  -0.2404
    -0.1882  -0.1482  -0.1048  -0.0933   0.1024   0.1831   0.2306   0.2309
     0.2526   0.4441   0.4713   0.4947   0.5237   0.5583   0.6874   0.7089
     0.8276   0.8589   0.9055   0.9683   0.9822   1.1565   1.1601   1.2475
     1.2708   1.3895   1.4336   1.4765   1.4983   1.6345   1.6751   1.7155
     1.7724   1.8402   1.9085   1.9125   1.9524   1.9857   2.1019   2.1767
     2.3172   2.4295   2.5535   2.6529   2.7541   2.8317   2.8609   6.9316
     6.9911   7.1875   7.3068   7.3580   7.9502   8.2883   8.5627   8.6709
     8.7565   9.0638   9.2485   9.3239   9.4573   9.4709   9.5024   9.5771
     9.6393

          k =-0.5000 0.1320 0.0000 ( 34202 PWs)   bands (ev):

   -35.8204 -35.5795 -23.1341 -22.6241 -22.4039 -22.3653 -17.1960 -17.0513
   -16.9225 -16.8987 -16.7957 -16.6797 -15.4781 -14.9844 -14.9403 -14.5961
   -14.3963 -14.3128 -14.2675 -14.2245 -14.1419 -14.1408 -14.0611 -13.9936
   -13.9360 -13.9054 -13.7558  -8.3657  -8.2590  -8.1691  -7.9379  -7.8524
    -7.7539  -7.6440  -7.6385  -7.5559  -7.4601  -7.4138  -7.3733  -3.1505
    -3.0579  -2.8779  -2.8470  -2.5708  -2.2866  -2.2221  -1.9786  -1.8792
    -1.7873  -1.7689  -1.7480  -1.6512  -1.5757  -1.4784  -1.4769  -1.4714
    -1.3844  -1.2672  -1.2436  -1.1692  -1.1210  -1.0923  -1.0336  -0.9303
    -0.8021  -0.7857  -0.6619  -0.5186  -0.4960  -0.4045  -0.3418  -0.2622
    -0.2543  -0.1084  -0.0363   0.0872   0.1536   0.1868   0.2155   0.3456
     0.3923   0.4313   0.4716   0.5545   0.6297   0.6568   0.6825   0.8021
     0.9024   1.0164   1.0177   1.0887   1.1224   1.2024   1.2456   1.3077
     1.3208   1.3762   1.4540   1.6070   1.6315   1.6662   1.6749   1.7168
     1.7624   1.7815   1.7917   1.8572   1.9155   1.9496   1.9791   2.3737
     2.7750   2.7909   2.9508   3.0072   3.0682   3.2120   3.3100   6.7743
     6.7941   7.1546   7.4997   7.6613   8.1523   8.1864   8.4431   8.4961
     8.8671   8.9983   9.3084   9.3908   9.3909   9.5687   9.6056   9.7454
     9.7806

          k =-0.5000 0.2640 0.0000 ( 34216 PWs)   bands (ev):

   -35.8168 -35.5753 -23.0848 -22.5735 -22.3530 -22.3161 -17.1824 -17.0301
   -17.0055 -16.8585 -16.8184 -16.7268 -15.3614 -14.8310 -14.7362 -14.4979
   -14.2968 -14.2170 -14.1821 -14.1303 -14.0914 -14.0789 -14.0468 -14.0001
   -13.9986 -13.8589 -13.7773  -8.7107  -8.5965  -8.3400  -8.2036  -8.0551
    -8.0046  -7.9218  -7.8895  -7.8574  -7.7608  -7.7261  -7.6015  -3.3612
    -3.2551  -3.1091  -3.0672  -2.6530  -2.5689  -2.4923  -2.3486  -2.3332
    -2.2183  -2.1949  -2.1893  -2.1404  -1.8694  -1.8150  -1.6712  -1.6281
    -1.5860  -1.4205  -1.3662  -1.1315  -0.9982  -0.9803  -0.9176  -0.9090
    -0.8459  -0.8416  -0.7006  -0.6364  -0.5862  -0.5442  -0.5293  -0.4558
    -0.3417  -0.2316  -0.0916   0.0019   0.0960   0.2434   0.4228   0.5388
     0.5540   0.7573   0.8501   0.8857   0.9521   0.9787   1.1177   1.1255
     1.1305   1.2095   1.2244   1.3622   1.3656   1.4114   1.4622   1.5162
     1.5943   1.5971   1.6536   1.6930   1.7296   1.7787   1.7796   1.8033
     1.8629   1.8836   1.9427   1.9561   1.9941   2.0696   2.1092   2.2868
     2.8474   3.0020   3.6041   3.6723   3.8953   3.9818   4.0302   6.2793
     6.3028   6.7254   7.5784   7.8267   8.2173   8.4688   8.7585   8.9767
     9.0412   9.1918   9.2903   9.5896   9.6314   9.6891   9.6976   9.7776
     9.8247

          k =-0.5000 0.3960 0.0000 ( 34176 PWs)   bands (ev):

   -35.8131 -35.5710 -23.0344 -22.5216 -22.3008 -22.2658 -17.1689 -17.0852
   -17.0092 -16.9440 -16.8163 -16.6537 -15.2347 -14.6453 -14.4599 -14.4073
   -14.1961 -14.1810 -14.1129 -14.1090 -14.0967 -14.0444 -14.0202 -13.9735
   -13.9427 -13.8311 -13.8137  -9.1344  -8.9159  -8.5815  -8.3605  -8.3437
    -8.3433  -8.3074  -8.1562  -7.9697  -7.9627  -7.8572  -7.6617  -3.8331
    -3.5322  -3.4632  -3.3370  -3.2616  -2.8970  -2.8713  -2.6642  -2.5921
    -2.5073  -2.2616  -2.2181  -2.2157  -2.1597  -1.9173  -1.8389  -1.8095
    -1.6379  -1.6173  -1.1913  -1.1680  -1.1351  -1.0631  -1.0107  -0.9885
    -0.9579  -0.8526  -0.8033  -0.7512  -0.7486  -0.7345  -0.5999  -0.5415
    -0.4551  -0.2991  -0.0820   0.1004   0.2534   0.3997   0.5795   0.7292
     0.8238   1.0347   1.0780   1.1464   1.1544   1.1959   1.3075   1.3211
     1.4065   1.4189   1.4339   1.5316   1.5955   1.5961   1.6183   1.6855
     1.7164   1.8123   1.8191   1.8720   1.9105   2.0014   2.0486   2.0853
     2.1169   2.1441   2.1817   2.2241   2.2712   2.3125   2.3913   2.4203
     2.6549   2.8181   3.9370   4.0440   4.4493   4.5426   4.6094   5.7399
     5.7555   6.2316   7.2247   7.5993   8.1933   8.8758   8.9269   9.0354
     9.0524   9.4408   9.5160   9.5893   9.5956   9.6878   9.6984   9.7550
     9.8677

          k =-0.5000-0.5279 0.0000 ( 34236 PWs)   bands (ev):

   -35.8116 -35.5692 -23.0132 -22.4997 -22.2789 -22.2446 -17.1633 -17.1173
   -17.0007 -16.9933 -16.7983 -16.6214 -15.1787 -14.5426 -14.4025 -14.2273
   -14.2242 -14.1551 -14.1353 -14.0810 -14.0693 -14.0616 -14.0221 -13.9991
   -13.9034 -13.8373 -13.7968  -9.2951  -9.0441  -8.7286  -8.4849  -8.4601
    -8.4586  -8.3679  -8.2793  -8.0645  -7.9887  -7.8808  -7.6828  -4.0415
    -3.7392  -3.6205  -3.5241  -3.3944  -3.1209  -3.0466  -2.6954  -2.6349
    -2.5339  -2.2855  -2.2529  -2.2147  -2.2062  -1.9973  -1.9074  -1.7941
    -1.6833  -1.6535  -1.3057  -1.1869  -1.1272  -1.1085  -1.0411  -0.9948
    -0.9883  -0.9468  -0.8880  -0.8532  -0.7778  -0.7594  -0.6934  -0.5496
    -0.4990  -0.2701  -0.0745   0.2797   0.3953   0.4323   0.5782   0.8103
     0.9308   1.0539   1.0926   1.1964   1.2384   1.3307   1.3851   1.3963
     1.4153   1.4460   1.4824   1.5652   1.6638   1.6797   1.6928   1.6930
     1.8692   1.9266   1.9755   2.0275   2.0855   2.1497   2.1525   2.1781
     2.2482   2.3352   2.3646   2.3740   2.4036   2.4054   2.4726   2.5579
     2.5609   2.5617   4.0346   4.1234   4.5927   4.7463   4.8107   5.4961
     5.5108   6.0051   7.1159   7.5329   8.1164   8.6431   8.8975   8.9805
     9.0417   9.1023   9.4030   9.5805   9.6672   9.7214   9.7817   9.8947
    10.0138

     the Fermi energy is     2.5952 ev

!    total energy              =   -1842.85612797 Ry
     Harris-Foulkes estimate   =   -1842.85612797 Ry
     estimated scf accuracy    <          9.9E-11 Ry

     The total energy is the sum of the following terms:

     one-electron contribution =  -30777.72601092 Ry
     hartree contribution      =   15542.05397389 Ry
     xc contribution           =    -621.65519469 Ry
     ewald contribution        =   14014.48002996 Ry
     smearing contrib. (-TS)   =      -0.00892622 Ry

     convergence has been achieved in  38 iterations

     negative rho (up, down):  1.495E-03 0.000E+00

     Forces acting on atoms (cartesian axes, Ry/au):

     atom    1 type  4   force =     0.00000000    0.00000000    0.00034203
     atom    2 type  3   force =     0.00000000    0.00000000    0.00398795
     atom    3 type  4   force =     0.00000000    0.00000000   -0.00310111
     atom    4 type  1   force =     0.00000000    0.00000000    0.00078534
     atom    5 type  3   force =     0.00000000    0.00000000   -0.00018131
     atom    6 type  4   force =     0.00000000    0.00000000    0.00038139
     atom    7 type  4   force =     0.00000000    0.00000000    0.00100163
     atom    8 type  2   force =     0.00000000    0.00000000   -0.00055016
     atom    9 type  4   force =     0.00000000    0.00000000   -0.00028923
     atom   10 type  4   force =     0.00000000    0.00000000   -0.00039762
     atom   11 type  3   force =     0.00000000    0.00000000    0.00042459
     atom   12 type  1   force =     0.00000000    0.00000000    0.00002657
     atom   13 type  4   force =     0.00000000    0.00000000    0.00348493
     atom   14 type  4   force =     0.00000000    0.00000000    0.00035180
     atom   15 type  3   force =     0.00000000    0.00000000   -0.00255729
     atom   16 type  4   force =     0.00000000    0.00000000   -0.00066747
     atom   17 type  1   force =     0.00000000    0.00000000   -0.00330864
     atom   18 type  3   force =     0.00000000    0.00000000    0.02408673
     atom   19 type  4   force =     0.00000000    0.00000000    0.01226458
     atom   20 type  4   force =     0.00000000    0.00000000   -0.01189751
     atom   21 type  2   force =     0.00000000    0.00000000    0.00697128
     atom   22 type  4   force =     0.00000000    0.00000000    0.03207791
     atom   23 type  4   force =     0.00000000    0.00000000    0.01205613
     atom   24 type  3   force =     0.00000000    0.00000000   -0.12103909
     atom   25 type  1   force =     0.00000000    0.00000000   -0.01196936
     atom   26 type  4   force =     0.00000000    0.00000000    0.07340755
     atom   27 type  3   force =     0.00000000    0.00000000   -0.00582080
     atom   28 type  4   force =     0.00000000    0.00000000   -0.00987084

     Total force =     0.149256     Total SCF correction =     0.000022


     Computing stress (Cartesian axis) and pressure


     negative rho (up, down):  1.495E-03 0.000E+00
          total   stress  (Ry/bohr**3)                   (kbar)     P=       -6.51
  -0.00000707   0.00000000   0.00000000           -1.04        0.00        0.00
   0.00000000  -0.00006202   0.00000000            0.00       -9.12        0.00
   0.00000000   0.00000000  -0.00006357            0.00        0.00       -9.35


     BFGS Geometry Optimization

     number of scf cycles    =   1
     number of bfgs steps    =   0

     energy   new            =   -1842.8561279684 Ry

     new trust radius        =       0.1210390863 bohr
     new conv_thr            =            1.0E-10 Ry


ATOMIC_POSITIONS (angstrom)
O             0.0000000000        1.8611200000       -0.1855672318    0   0   0
Cu            0.0000000000        0.0000000000        0.1045134913    0   0   0
O             0.0000000000        0.0000000000        1.9874047485    0   0   0
Ba            1.9651100000        1.8611200000        2.2478843721    0   0   0
Cu            0.0000000000        0.0000000000        4.0982294970    0   0   0
O             1.9651100000        0.0000000000        4.2538136797    0   0   0
O             0.0000000000        1.8611200000        4.3916372027    0   0   0
Ca            1.9651100000        1.8611200000        5.9161993617    0   0   0
O             0.0000000000        1.8611200000        7.3743927398    0   0   0
O             1.9651100000        0.0000000000        7.5231621363    0   0   0
Cu            0.0000000000        0.0000000000        7.7082067001    0   0   0
Ba            1.9651100000        1.8611200000        9.5977619739    0   0   0
O             0.0000000000        0.0000000000        9.9215346784    0   0   0
O             0.0000000000        1.8611200000       11.8189701770    0   0   0
Cu            0.0000000000        0.0000000000       11.8191913058    0   0   0
O             0.0000000000        0.0000000000       13.7167976766    0   0   0
Ba            1.9651100000        1.8611200000       14.0405402272    0   0   0
Cu            0.0000000000        0.0000000000       15.8506259275
O             1.9651100000        0.0000000000       16.0334096528
O             0.0000000000        1.8611200000       16.3528689124
Ca            1.9651100000        1.8611200000       17.8210344818
O             0.0000000000        1.8611200000       19.2625895247
O             1.9651100000        0.0000000000       19.6622844399
Cu            0.0000000000        0.0000000000       19.9353898368
Ba            1.9651100000        1.8611200000       21.7597511560
O             0.0000000000        0.0000000000       21.8663930206
Cu            0.0000000000        0.0000000000       23.8101135700    0   0   0
O             0.0000000000        1.8611200000       24.1001440365    0   0   0


     NEW-OLD atomic charge density approx. for the potential

     negative rho (up, down):  1.942E-03 0.000E+00

     total cpu time spent up to now is      719.4 secs

     Self-consistent Calculation

     iteration #  1     ecut=    60.00 Ry     beta= 0.70
     Davidson diagonalization with overlap
     ethr =  1.00E-06,  avg # of iterations =  5.4

     negative rho (up, down):  1.370E-03 0.000E+00

     total cpu time spent up to now is      748.3 secs

     total energy              =   -1842.87033228 Ry
     Harris-Foulkes estimate   =   -1842.87373200 Ry
     estimated scf accuracy    <       0.02476055 Ry

     iteration #  2     ecut=    60.00 Ry     beta= 0.70
     Davidson diagonalization with overlap
     ethr =  1.09E-05,  avg # of iterations =  2.1

     negative rho (up, down):  1.438E-03 0.000E+00

     total cpu time spent up to now is      763.4 secs

     total energy              =   -1842.86949386 Ry
     Harris-Foulkes estimate   =   -1842.87730424 Ry
     estimated scf accuracy    <       0.18651251 Ry

     iteration #  3     ecut=    60.00 Ry     beta= 0.70
     Davidson diagonalization with overlap
     ethr =  1.09E-05,  avg # of iterations =  2.0

     negative rho (up, down):  1.344E-03 0.000E+00

     total cpu time spent up to now is      778.2 secs

     total energy              =   -1842.87315421 Ry
     Harris-Foulkes estimate   =   -1842.87330242 Ry
     estimated scf accuracy    <       0.00102096 Ry

     iteration #  4     ecut=    60.00 Ry     beta= 0.70
     Davidson diagonalization with overlap
     ethr =  4.50E-07,  avg # of iterations =  2.4

     negative rho (up, down):  1.313E-03 0.000E+00

     total cpu time spent up to now is      794.0 secs

     total energy              =   -1842.87316108 Ry
     Harris-Foulkes estimate   =   -1842.87332085 Ry
     estimated scf accuracy    <       0.00174687 Ry

     iteration #  5     ecut=    60.00 Ry     beta= 0.70
     Davidson diagonalization with overlap
     ethr =  4.50E-07,  avg # of iterations =  1.6

     negative rho (up, down):  1.287E-03 0.000E+00

     total cpu time spent up to now is      808.3 secs

     total energy              =   -1842.87324191 Ry
     Harris-Foulkes estimate   =   -1842.87326137 Ry
     estimated scf accuracy    <       0.00147908 Ry

     iteration #  6     ecut=    60.00 Ry     beta= 0.70
     Davidson diagonalization with overlap
     ethr =  4.50E-07,  avg # of iterations =  1.0

     negative rho (up, down):  1.272E-03 0.000E+00

     total cpu time spent up to now is      821.8 secs

     total energy              =   -1842.87324670 Ry
     Harris-Foulkes estimate   =   -1842.87324902 Ry
     estimated scf accuracy    <       0.00084866 Ry

     iteration #  7     ecut=    60.00 Ry     beta= 0.70
     Davidson diagonalization with overlap
     ethr =  3.74E-07,  avg # of iterations =  1.0

     negative rho (up, down):  1.241E-03 0.000E+00

     total cpu time spent up to now is      835.6 secs

     total energy              =   -1842.87323287 Ry
     Harris-Foulkes estimate   =   -1842.87325036 Ry
     estimated scf accuracy    <       0.00076712 Ry

     iteration #  8     ecut=    60.00 Ry     beta= 0.70
     Davidson diagonalization with overlap
     ethr =  3.38E-07,  avg # of iterations =  1.0

     negative rho (up, down):  1.237E-03 0.000E+00

     total cpu time spent up to now is      849.3 secs

     total energy              =   -1842.87323546 Ry
     Harris-Foulkes estimate   =   -1842.87323971 Ry
     estimated scf accuracy    <       0.00025401 Ry

     iteration #  9     ecut=    60.00 Ry     beta= 0.70
     Davidson diagonalization with overlap
     ethr =  1.12E-07,  avg # of iterations =  1.0

     negative rho (up, down):  1.244E-03 0.000E+00

     total cpu time spent up to now is      862.8 secs

     total energy              =   -1842.87323622 Ry
     Harris-Foulkes estimate   =   -1842.87323755 Ry
     estimated scf accuracy    <       0.00003687 Ry

     iteration # 10     ecut=    60.00 Ry     beta= 0.70
     Davidson diagonalization with overlap
     ethr =  1.62E-08,  avg # of iterations =  1.2

     negative rho (up, down):  1.260E-03 0.000E+00

     total cpu time spent up to now is      877.2 secs

     total energy              =   -1842.87323671 Ry
     Harris-Foulkes estimate   =   -1842.87323700 Ry
     estimated scf accuracy    <       0.00000304 Ry

     iteration # 11     ecut=    60.00 Ry     beta= 0.70
     Davidson diagonalization with overlap
     ethr =  1.34E-09,  avg # of iterations =  3.1

     negative rho (up, down):  1.280E-03 0.000E+00

     total cpu time spent up to now is      893.7 secs

     total energy              =   -1842.87323688 Ry
     Harris-Foulkes estimate   =   -1842.87323710 Ry
     estimated scf accuracy    <       0.00001864 Ry

     iteration # 12     ecut=    60.00 Ry     beta= 0.70
     Davidson diagonalization with overlap
     ethr =  1.34E-09,  avg # of iterations =  1.3

     negative rho (up, down):  1.309E-03 0.000E+00

     total cpu time spent up to now is      907.6 secs

     total energy              =   -1842.87323679 Ry
     Harris-Foulkes estimate   =   -1842.87323695 Ry
     estimated scf accuracy    <       0.00000726 Ry

     iteration # 13     ecut=    60.00 Ry     beta= 0.70
     Davidson diagonalization with overlap
     ethr =  1.34E-09,  avg # of iterations =  1.0

     negative rho (up, down):  1.328E-03 0.000E+00

     total cpu time spent up to now is      921.2 secs

     total energy              =   -1842.87323674 Ry
     Harris-Foulkes estimate   =   -1842.87323683 Ry
     estimated scf accuracy    <       0.00000315 Ry

     iteration # 14     ecut=    60.00 Ry     beta= 0.70
     Davidson diagonalization with overlap
     ethr =  1.34E-09,  avg # of iterations =  1.0

     negative rho (up, down):  1.360E-03 0.000E+00

     total cpu time spent up to now is      934.9 secs

     total energy              =   -1842.87323665 Ry
     Harris-Foulkes estimate   =   -1842.87323677 Ry
     estimated scf accuracy    <       0.00000242 Ry

     iteration # 15     ecut=    60.00 Ry     beta= 0.70
     Davidson diagonalization with overlap
     ethr =  1.07E-09,  avg # of iterations =  1.0

     negative rho (up, down):  1.387E-03 0.000E+00

     total cpu time spent up to now is      948.4 secs

     total energy              =   -1842.87323658 Ry
     Harris-Foulkes estimate   =   -1842.87323667 Ry
     estimated scf accuracy    <       0.00000219 Ry

     iteration # 16     ecut=    60.00 Ry     beta= 0.70
     Davidson diagonalization with overlap
     ethr =  9.67E-10,  avg # of iterations =  1.0

     negative rho (up, down):  1.451E-03 0.000E+00

     total cpu time spent up to now is      963.0 secs

     total energy              =   -1842.87323642 Ry
     Harris-Foulkes estimate   =   -1842.87323659 Ry
     estimated scf accuracy    <       0.00000123 Ry

     iteration # 17     ecut=    60.00 Ry     beta= 0.70
     Davidson diagonalization with overlap
     ethr =  5.41E-10,  avg # of iterations =  1.0

     negative rho (up, down):  1.485E-03 0.000E+00

     total cpu time spent up to now is      977.3 secs

     total energy              =   -1842.87323635 Ry
     Harris-Foulkes estimate   =   -1842.87323644 Ry
     estimated scf accuracy    <       0.00000065 Ry

     iteration # 18     ecut=    60.00 Ry     beta= 0.70
     Davidson diagonalization with overlap
     ethr =  2.87E-10,  avg # of iterations =  1.0

     negative rho (up, down):  1.495E-03 0.000E+00

     total cpu time spent up to now is      991.1 secs

     total energy              =   -1842.87323633 Ry
     Harris-Foulkes estimate   =   -1842.87323636 Ry
     estimated scf accuracy    <       0.00000026 Ry

     iteration # 19     ecut=    60.00 Ry     beta= 0.70
     Davidson diagonalization with overlap
     ethr =  1.16E-10,  avg # of iterations =  1.0

     negative rho (up, down):  1.509E-03 0.000E+00

     total cpu time spent up to now is     1004.7 secs

     total energy              =   -1842.87323631 Ry
     Harris-Foulkes estimate   =   -1842.87323633 Ry
     estimated scf accuracy    <       0.00000003 Ry

     iteration # 20     ecut=    60.00 Ry     beta= 0.70
     Davidson diagonalization with overlap
     ethr =  1.20E-11,  avg # of iterations =  1.8

     negative rho (up, down):  1.506E-03 0.000E+00

     total cpu time spent up to now is     1019.5 secs

     total energy              =   -1842.87323632 Ry
     Harris-Foulkes estimate   =   -1842.87323631 Ry
     estimated scf accuracy    <       0.00000007 Ry

     iteration # 21     ecut=    60.00 Ry     beta= 0.70
     Davidson diagonalization with overlap
     ethr =  1.20E-11,  avg # of iterations =  1.0

     negative rho (up, down):  1.512E-03 0.000E+00

     total cpu time spent up to now is     1033.1 secs

     total energy              =   -1842.87323631 Ry
     Harris-Foulkes estimate   =   -1842.87323632 Ry
     estimated scf accuracy    <          7.7E-09 Ry

     iteration # 22     ecut=    60.00 Ry     beta= 0.70
     Davidson diagonalization with overlap
     ethr =  3.37E-12,  avg # of iterations =  1.4

     negative rho (up, down):  1.514E-03 0.000E+00

     total cpu time spent up to now is     1047.4 secs

     total energy              =   -1842.87323631 Ry
     Harris-Foulkes estimate   =   -1842.87323631 Ry
     estimated scf accuracy    <          3.0E-09 Ry

     iteration # 23     ecut=    60.00 Ry     beta= 0.70
     Davidson diagonalization with overlap
     ethr =  1.34E-12,  avg # of iterations =  1.3

     negative rho (up, down):  1.513E-03 0.000E+00

     total cpu time spent up to now is     1061.4 secs

     total energy              =   -1842.87323631 Ry
     Harris-Foulkes estimate   =   -1842.87323631 Ry
     estimated scf accuracy    <          1.6E-09 Ry

     iteration # 24     ecut=    60.00 Ry     beta= 0.70
     Davidson diagonalization with overlap
     ethr =  7.08E-13,  avg # of iterations =  1.4

     negative rho (up, down):  1.515E-03 0.000E+00

     total cpu time spent up to now is     1075.5 secs

     total energy              =   -1842.87323630 Ry
     Harris-Foulkes estimate   =   -1842.87323631 Ry
     estimated scf accuracy    <          2.3E-10 Ry

     iteration # 25     ecut=    60.00 Ry     beta= 0.70
     Davidson diagonalization with overlap
     ethr =  1.00E-13,  avg # of iterations =  3.2

     negative rho (up, down):  1.515E-03 0.000E+00

     total cpu time spent up to now is     1092.3 secs

     total energy              =   -1842.87323630 Ry
     Harris-Foulkes estimate   =   -1842.87323630 Ry
     estimated scf accuracy    <          1.1E-10 Ry

     iteration # 26     ecut=    60.00 Ry     beta= 0.70
     Davidson diagonalization with overlap
     ethr =  1.00E-13,  avg # of iterations =  1.0

     negative rho (up, down):  1.515E-03 0.000E+00

     total cpu time spent up to now is     1106.1 secs

     total energy              =   -1842.87323630 Ry
     Harris-Foulkes estimate   =   -1842.87323630 Ry
     estimated scf accuracy    <          1.6E-10 Ry

     iteration # 27     ecut=    60.00 Ry     beta= 0.70
     Davidson diagonalization with overlap
     ethr =  1.00E-13,  avg # of iterations =  1.0

     negative rho (up, down):  1.516E-03 0.000E+00

     total cpu time spent up to now is     1119.3 secs

     End of self-consistent calculation

          k = 0.0000 0.0000 0.0000 ( 34267 PWs)   bands (ev):

   -35.8669 -35.5834 -23.1630 -22.7654 -22.5343 -22.4989 -17.1475 -17.0667
   -16.9296 -16.8608 -16.6326 -16.6223 -15.2562 -15.0522 -14.8473 -14.7988
   -14.6122 -14.5431 -14.5078 -14.2822 -14.1324 -13.9358 -13.7862 -13.7802
   -13.7600 -13.6323 -13.5912  -8.3059  -8.2636  -8.0571  -7.9010  -7.8537
    -7.6938  -7.6725  -7.6611  -7.6034  -7.5374  -7.4197  -7.3735  -2.5806
    -2.2511  -2.2374  -1.8296  -1.7894  -1.7823  -1.7279  -1.6251  -1.5634
    -1.5598  -1.4976  -1.4426  -1.4235  -1.1781  -1.1134  -1.0894  -0.9911
    -0.7805  -0.6131  -0.5411  -0.5070  -0.3906  -0.3366  -0.3276  -0.2768
    -0.2299  -0.2074  -0.2033  -0.2032  -0.1958  -0.1676  -0.1470  -0.1455
    -0.1013  -0.0613   0.0085   0.1460   0.1477   0.1549   0.1717   0.1808
     0.2149   0.2186   0.2323   0.3111   0.3538   0.3577   0.4707   0.4711
     0.5571   0.8347   0.8944   0.8990   0.9238   1.0034   1.2220   1.2412
     1.3861   1.3990   1.4208   1.4616   1.4679   1.4922   1.5472   1.5826
     1.6089   1.6206   1.7887   1.8400   1.8619   1.9223   2.0700   2.1986
     2.2566   2.2906   2.3800   2.4274   2.4602   2.5670   2.6871   5.0815
     5.2455   5.8340   6.1872   6.2800   6.4892   6.7793   7.1821   7.2888
     8.0086   8.1248   8.1544   8.2979   8.4159   8.5873   8.6773   9.0255
     9.0885

          k = 0.0000 0.1320 0.0000 ( 34203 PWs)   bands (ev):

   -35.8653 -35.5816 -23.1369 -22.7389 -22.5082 -22.4736 -17.1256 -17.0314
   -16.9680 -16.8589 -16.6920 -16.6303 -15.1687 -15.0160 -14.8562 -14.7481
   -14.6150 -14.5142 -14.4806 -14.2636 -14.1454 -13.9423 -13.8444 -13.8254
   -13.7765 -13.6642 -13.6440  -8.3019  -8.2150  -8.0907  -7.8998  -7.8062
    -7.7043  -7.6984  -7.6693  -7.5580  -7.4924  -7.4637  -7.4201  -2.6231
    -2.3122  -2.2896  -2.1190  -2.0468  -2.0157  -1.9333  -1.6113  -1.6046
    -1.6026  -1.5537  -1.5232  -1.4798  -1.3945  -1.3756  -1.2974  -1.1090
    -0.9518  -0.6246  -0.6225  -0.5947  -0.5651  -0.4894  -0.4320  -0.4235
    -0.4172  -0.3003  -0.2828  -0.2245  -0.1901  -0.1650  -0.1133  -0.1019
    -0.0642  -0.0046   0.0306   0.0478   0.1539   0.1661   0.1737   0.1850
     0.1956   0.2183   0.2358   0.3060   0.3113   0.3515   0.4022   0.4064
     0.7885   0.9533   1.0597   1.1014   1.1212   1.1501   1.1886   1.2077
[...]
   -14.4309 -14.3780 -14.3480 -14.1262 -14.0939 -14.0867 -14.0508 -13.9732
   -13.9210 -13.8837 -13.7447  -8.2805  -8.2288  -8.0976  -8.0154  -7.9591
    -7.9264  -7.8435  -7.8403  -7.8203  -7.7231  -7.6530  -7.5784  -3.2363
    -3.1531  -2.9688  -2.8946  -2.5898  -2.4802  -2.4459  -2.3491  -2.3362
    -2.3059  -2.2989  -2.1990  -2.0779  -1.9112  -1.7583  -1.7284  -1.5914
    -1.5643  -1.4872  -1.2199  -1.1117  -0.9957  -0.9121  -0.8631  -0.8520
    -0.8172  -0.7813  -0.7122  -0.6609  -0.6245  -0.6062  -0.5627  -0.4626
    -0.4312  -0.3385  -0.3148   0.0642   0.1567   0.3141   0.4738   0.5165
     0.6972   0.7325   0.7914   0.8451   0.8651   1.0239   1.0742   1.1019
     1.2003   1.2377   1.2566   1.3096   1.4240   1.4301   1.4530   1.4946
     1.6053   1.6470   1.6702   1.7038   1.7238   1.7505   1.7649   1.7811
     1.7908   1.8043   1.8416   1.8516   1.8625   1.9235   2.1540   2.3118
     2.9809   2.9943   3.7057   3.7495   3.7992   3.8708   3.8898   6.3644
     6.7146   6.8260   7.5057   7.6335   8.4167   8.4549   8.7301   8.8326
     9.1631   9.3476   9.4133   9.4529   9.4943   9.5624   9.6057   9.7902
     9.8488

          k = 0.3750 0.3960 0.0000 ( 34177 PWs)   bands (ev):

   -35.6822 -35.5860 -22.5492 -22.5373 -22.4148 -22.2987 -17.0334 -17.0194
   -16.9786 -16.9586 -16.7586 -16.6989 -14.6888 -14.4830 -14.4419 -14.3981
   -14.3306 -14.2171 -14.2057 -14.1903 -14.1606 -14.0623 -14.0252 -13.9662
   -13.9209 -13.8483 -13.7914  -8.5477  -8.4851  -8.3835  -8.2801  -8.2119
    -8.1754  -8.0167  -7.9618  -7.9301  -7.9008  -7.8446  -7.6976  -3.7170
    -3.6456  -3.4298  -3.3580  -3.2930  -2.9200  -2.8952  -2.6056  -2.5745
    -2.4496  -2.3983  -2.2181  -2.0878  -2.0719  -2.0509  -1.9100  -1.8254
    -1.8089  -1.5934  -1.2387  -1.1814  -1.1715  -1.1517  -1.0966  -0.9377
    -0.8981  -0.8480  -0.8333  -0.8154  -0.7805  -0.7504  -0.6762  -0.6475
    -0.5517  -0.3517  -0.3031   0.1917   0.2891   0.3603   0.6109   0.6883
     0.9315   1.0588   1.0853   1.1791   1.2477   1.2738   1.3544   1.3753
     1.4305   1.4932   1.5012   1.5570   1.5937   1.5984   1.6418   1.7301
     1.7631   1.7888   1.8374   1.8561   1.9266   1.9546   1.9901   2.0248
     2.0486   2.1008   2.1105   2.1877   2.1973   2.2172   2.2318   2.4591
     2.8043   2.8157   4.1493   4.2668   4.3134   4.3505   4.3781   5.9177
     6.4118   6.5712   7.1916   7.3638   8.8896   8.9220   8.9709   9.0765
     9.3769   9.4141   9.4406   9.5089   9.5333   9.6256   9.6470   9.8048
     9.8734

          k = 0.3750-0.5279 0.0000 ( 34192 PWs)   bands (ev):

   -35.6805 -35.5842 -22.5263 -22.5150 -22.3936 -22.2766 -17.0709 -17.0200
   -17.0125 -16.9662 -16.7290 -16.6648 -14.6243 -14.3842 -14.3779 -14.3362
   -14.2540 -14.2446 -14.1761 -14.1336 -14.1144 -14.0419 -14.0363 -14.0227
   -13.9500 -13.8753 -13.7631  -8.6304  -8.5673  -8.4857  -8.3697  -8.3579
    -8.3137  -8.1717  -7.9911  -7.9857  -7.9524  -7.8715  -7.7075  -3.9239
    -3.8575  -3.6638  -3.5689  -3.5222  -3.1449  -3.1205  -2.6223  -2.5891
    -2.4617  -2.4036  -2.2123  -2.1813  -2.1620  -2.0873  -1.9126  -1.9056
    -1.8965  -1.6219  -1.3168  -1.2855  -1.2500  -1.2027  -1.1563  -0.9380
    -0.9339  -0.9298  -0.8957  -0.8679  -0.8538  -0.8502  -0.6992  -0.6732
    -0.5182  -0.3358  -0.2798   0.2237   0.3235   0.3745   0.6617   0.7623
     0.9975   1.2004   1.2460   1.2906   1.3238   1.3677   1.3764   1.3824
     1.4902   1.5643   1.6124   1.6168   1.6851   1.7470   1.7755   1.7892
     1.8508   1.8817   1.9062   1.9878   2.0451   2.0571   2.0838   2.1703
     2.1949   2.2455   2.2619   2.3142   2.3867   2.3883   2.4085   2.5260
     2.5555   2.5717   4.2422   4.4109   4.4572   4.4978   4.5285   5.7216
     6.2344   6.4113   7.0804   7.2729   8.7419   8.9745   9.0643   9.1418
     9.2380   9.3650   9.6209   9.6419   9.7471   9.7646   9.7734   9.8473
     9.9371

          k =-0.5000 0.0000 0.0000 ( 34130 PWs)   bands (ev):

   -35.6912 -35.5952 -22.6590 -22.6452 -22.5173 -22.4052 -17.1174 -17.0741
   -16.8815 -16.8364 -16.7279 -16.6322 -15.0555 -14.9961 -14.8482 -14.6483
   -14.5876 -14.3910 -14.3469 -14.2944 -14.2415 -14.1772 -14.1111 -13.9964
   -13.9143 -13.8896 -13.7140  -7.9326  -7.9152  -7.8863  -7.6819  -7.6591
    -7.6387  -7.4496  -7.4487  -7.4107  -7.3620  -7.2775  -7.1821  -3.0055
    -2.9591  -2.8312  -2.7627  -2.2930  -2.0871  -1.9369  -1.6127  -1.5949
    -1.5202  -1.4606  -1.3624  -1.3052  -1.2481  -1.2246  -1.1934  -1.1798
    -1.1787  -1.1512  -1.0952  -1.0797  -1.0133  -0.9741  -0.9251  -0.8833
    -0.8167  -0.7630  -0.6086  -0.5346  -0.4653  -0.4152  -0.2716  -0.2414
    -0.2027  -0.1867  -0.1598  -0.1075   0.0881   0.1015   0.1659   0.2133
     0.2216   0.4298   0.4522   0.4571   0.4779   0.4856   0.4973   0.5626
     0.5812   0.7885   0.8105   0.8758   0.9376   1.1456   1.1895   1.2004
     1.2880   1.3760   1.4200   1.4754   1.5150   1.6204   1.6208   1.6523
     1.6609   1.7054   1.7524   1.8943   1.9553   1.9708   2.0046   2.1543
     2.1985   2.2732   2.4187   2.5452   2.6273   2.8105   2.8457   6.9777
     7.2918   7.3420   7.3697   7.3803   8.2093   8.2736   8.4699   8.5494
     8.9411   9.0530   9.3545   9.3909   9.4435   9.4749   9.5571   9.5702
     9.7659

          k =-0.5000 0.1320 0.0000 ( 34202 PWs)   bands (ev):

   -35.6895 -35.5935 -22.6384 -22.6249 -22.4979 -22.3852 -17.1095 -17.0652
   -16.8583 -16.8097 -16.7814 -16.6936 -14.9976 -14.9225 -14.7917 -14.6072
   -14.5447 -14.3485 -14.3081 -14.2386 -14.1956 -14.1554 -14.0910 -13.9645
   -13.9503 -13.9170 -13.7153  -7.9522  -7.9363  -7.9204  -7.7761  -7.7681
    -7.7001  -7.6532  -7.6086  -7.5733  -7.4996  -7.4797  -7.3956  -3.0719
    -3.0168  -2.8820  -2.8087  -2.3008  -2.1107  -2.0096  -1.9876  -1.8872
    -1.7947  -1.7430  -1.6534  -1.5902  -1.5867  -1.4854  -1.4237  -1.3985
    -1.3982  -1.3066  -1.2792  -1.2114  -1.0624  -0.9638  -0.8403  -0.8161
    -0.6740  -0.6297  -0.6173  -0.5454  -0.5085  -0.4195  -0.3949  -0.2687
    -0.2620  -0.0509  -0.0168   0.0725   0.1015   0.1402   0.2009   0.2315
     0.2854   0.3801   0.3875   0.5402   0.5690   0.6172   0.6622   0.7879
     0.8081   0.9197   1.0023   1.0489   1.1300   1.1634   1.1867   1.2936
     1.3418   1.3472   1.4404   1.5258   1.5960   1.6246   1.6615   1.6835
     1.7323   1.7399   1.7556   1.9012   1.9356   1.9584   1.9724   2.3003
     2.7644   2.7794   2.9206   2.9803   3.0194   3.1821   3.2208   6.7723
     7.1397   7.2348   7.6453   7.6747   8.0692   8.1738   8.4135   8.4818
     9.1996   9.2948   9.2987   9.4502   9.5566   9.5765   9.6581   9.6784
     9.7467

          k =-0.5000 0.2640 0.0000 ( 34216 PWs)   bands (ev):

   -35.6853 -35.5892 -22.5877 -22.5753 -22.4506 -22.3360 -17.0904 -17.0440
   -16.9079 -16.8323 -16.7945 -16.7407 -14.8452 -14.7192 -14.6419 -14.5091
   -14.4381 -14.2410 -14.2110 -14.1443 -14.1245 -14.1056 -14.0486 -14.0146
   -13.9568 -13.8874 -13.7396  -8.2179  -8.1639  -8.0694  -8.0520  -8.0483
    -7.9559  -7.9037  -7.8721  -7.8653  -7.8496  -7.7451  -7.6606  -3.3750
    -3.3014  -3.1140  -3.0388  -2.5816  -2.5063  -2.4734  -2.3626  -2.3473
    -2.3204  -2.3019  -2.2094  -2.0830  -1.9264  -1.8847  -1.8542  -1.6688
    -1.6212  -1.5563  -1.1474  -1.0683  -0.9667  -0.9254  -0.8860  -0.8712
    -0.8166  -0.8042  -0.7359  -0.6971  -0.6508  -0.6344  -0.5702  -0.4703
    -0.4368  -0.3560  -0.3302   0.0799   0.1664   0.3698   0.5255   0.5591
     0.7412   0.7752   0.8681   0.8713   0.8826   1.1122   1.1149   1.1638
     1.1957   1.2100   1.2434   1.2707   1.4218   1.4779   1.5059   1.5771
     1.6147   1.6317   1.7164   1.7249   1.7608   1.7879   1.8009   1.8502
     1.8627   1.8708   1.9306   1.9574   1.9637   1.9910   2.0440   2.2536
     2.9787   2.9882   3.7139   3.8824   3.9406   4.0011   4.0202   6.2417
     6.7106   6.8513   7.4151   7.5653   8.4529   8.4584   8.9010   9.0559
     9.2091   9.4245   9.5512   9.5740   9.6101   9.6205   9.7937   9.8569
     9.8921

          k =-0.5000 0.3960 0.0000 ( 34176 PWs)   bands (ev):

   -35.6812 -35.5849 -22.5358 -22.5245 -22.4022 -22.2857 -17.0717 -17.0231
   -17.0213 -16.9579 -16.7307 -16.6676 -14.6596 -14.4708 -14.4509 -14.4087
   -14.3297 -14.1952 -14.1572 -14.1280 -14.1096 -14.0590 -14.0223 -13.9570
   -13.9110 -13.8539 -13.7861  -8.5957  -8.5294  -8.4392  -8.3579  -8.3300
    -8.3203  -8.1700  -7.9878  -7.9769  -7.9395  -7.9062  -7.6982  -3.8470
    -3.7766  -3.5402  -3.4718  -3.3016  -2.9115  -2.8877  -2.6783  -2.6610
    -2.5205  -2.4745  -2.2311  -2.1808  -2.1495  -2.0966  -1.9166  -1.8956
    -1.8403  -1.6399  -1.2047  -1.1884  -1.1663  -1.0759  -1.0253  -1.0250
    -0.9839  -0.8670  -0.8590  -0.7931  -0.7629  -0.7574  -0.7481  -0.7296
    -0.5349  -0.3134  -0.2704   0.2125   0.3078   0.4203   0.7084   0.7786
     1.0180   1.1554   1.1984   1.3126   1.3128   1.3825   1.3951   1.4053
     1.4745   1.5150   1.5811   1.5983   1.6380   1.6491   1.6872   1.7737
     1.7818   1.8684   1.8685   1.9221   1.9839   2.0088   2.0315   2.0801
     2.1040   2.1672   2.1714   2.1983   2.2370   2.3001   2.3596   2.4045
     2.7961   2.8057   4.1411   4.5264   4.5765   4.5950   4.6211   5.6981
     6.2167   6.4013   7.0244   7.2122   8.8490   8.9009   8.9133   9.0698
     9.2823   9.4268   9.5842   9.5999   9.7067   9.7068   9.7385   9.8133
     9.8629

          k =-0.5000-0.5279 0.0000 ( 34236 PWs)   bands (ev):

   -35.6795 -35.5831 -22.5140 -22.5031 -22.3818 -22.2645 -17.0662 -17.0640
   -17.0146 -17.0072 -16.7028 -16.6354 -14.5569 -14.4166 -14.3689 -14.2920
   -14.2448 -14.2384 -14.1897 -14.0837 -14.0689 -14.0368 -14.0182 -13.9552
   -13.9178 -13.8783 -13.7626  -8.7428  -8.6734  -8.5982  -8.4817  -8.4743
    -8.4296  -8.2931  -8.0821  -8.0030  -7.9648  -7.9125  -7.7094  -4.0555
    -3.9886  -3.7488  -3.6764  -3.5595  -3.1354  -3.1120  -2.7095  -2.6932
    -2.5469  -2.4966  -2.2783  -2.2436  -2.2207  -2.0969  -1.9715  -1.9116
    -1.9030  -1.6666  -1.3202  -1.3065  -1.2233  -1.1416  -1.1038  -1.0022
    -0.9702  -0.9612  -0.9554  -0.8712  -0.8526  -0.8176  -0.7873  -0.7576
    -0.4928  -0.2845  -0.2397   0.2470   0.3438   0.4331   0.7742   0.8794
     1.1024   1.3074   1.3745   1.3822   1.4051   1.4296   1.4346   1.4755
     1.5458   1.6451   1.6739   1.6789   1.7079   1.7611   1.8672   1.9095
     1.9384   1.9731   2.0038   2.0344   2.0657   2.0899   2.1492   2.1756
     2.2362   2.3099   2.3594   2.3763   2.4076   2.4582   2.5356   2.5382
     2.5503   2.5798   4.2295   4.7273   4.7687   4.7967   4.8283   5.4653
     5.9903   6.1937   6.9046   7.1092   8.7434   8.9446   8.9697   9.0078
     9.0650   9.0913   9.4442   9.5634   9.6929   9.7354   9.8734   9.9178
     9.9957

     the Fermi energy is     2.5810 ev

!    total energy              =   -1842.89829313 Ry
     Harris-Foulkes estimate   =   -1842.89829313 Ry
     estimated scf accuracy    <          8.7E-13 Ry

     The total energy is the sum of the following terms:

     one-electron contribution =  -30981.31653760 Ry
     hartree contribution      =   15644.05063166 Ry
     xc contribution           =    -621.66276237 Ry
     ewald contribution        =   14116.03865765 Ry
     smearing contrib. (-TS)   =      -0.00828247 Ry

     convergence has been achieved in  32 iterations

     negative rho (up, down):  1.523E-03 0.000E+00

     Forces acting on atoms (cartesian axes, Ry/au):

     atom    1 type  4   force =     0.00000000    0.00000000    0.00030294
     atom    2 type  3   force =     0.00000000    0.00000000    0.00402218
     atom    3 type  4   force =     0.00000000    0.00000000   -0.00310447
     atom    4 type  1   force =     0.00000000    0.00000000    0.00079890
     atom    5 type  3   force =     0.00000000    0.00000000   -0.00016649
     atom    6 type  4   force =     0.00000000    0.00000000    0.00037947
     atom    7 type  4   force =     0.00000000    0.00000000    0.00095563
     atom    8 type  2   force =     0.00000000    0.00000000   -0.00054834
     atom    9 type  4   force =     0.00000000    0.00000000   -0.00029732
     atom   10 type  4   force =     0.00000000    0.00000000   -0.00033461
     atom   11 type  3   force =     0.00000000    0.00000000    0.00023567
     atom   12 type  1   force =     0.00000000    0.00000000   -0.00028390
     atom   13 type  4   force =     0.00000000    0.00000000    0.00442927
     atom   14 type  4   force =     0.00000000    0.00000000    0.00131881
     atom   15 type  3   force =     0.00000000    0.00000000   -0.00068303
     atom   16 type  4   force =     0.00000000    0.00000000   -0.00097095
     atom   17 type  1   force =     0.00000000    0.00000000    0.00819674
     atom   18 type  3   force =     0.00000000    0.00000000   -0.00048053
     atom   19 type  4   force =     0.00000000    0.00000000   -0.00110864
     atom   20 type  4   force =     0.00000000    0.00000000    0.00166816
     atom   21 type  2   force =     0.00000000    0.00000000   -0.00152486
     atom   22 type  4   force =     0.00000000    0.00000000   -0.00245031
     atom   23 type  4   force =     0.00000000    0.00000000   -0.00402293
     atom   24 type  3   force =     0.00000000    0.00000000    0.00776675
     atom   25 type  1   force =     0.00000000    0.00000000   -0.00042026
     atom   26 type  4   force =     0.00000000    0.00000000   -0.00038398
     atom   27 type  3   force =     0.00000000    0.00000000   -0.01502837
     atom   28 type  4   force =     0.00000000    0.00000000    0.00173448

     Total force =     0.009455     Total SCF correction =     0.000002


     Computing stress (Cartesian axis) and pressure


     negative rho (up, down):  1.523E-03 0.000E+00
          total   stress  (Ry/bohr**3)                   (kbar)     P=       -7.42
  -0.00003446   0.00000000   0.00000000           -5.07        0.00        0.00
   0.00000000  -0.00003466   0.00000000            0.00       -5.10        0.00
   0.00000000   0.00000000  -0.00008213            0.00        0.00      -12.08


     bfgs converged in  12 scf cycles and   8 bfgs steps
     (criteria: energy <  1.0E-03 Ry, force <  1.0E-02 Ry/Bohr)

     End of BFGS Geometry Optimization

     Final energy   =   -1842.8982931331 Ry
Begin final coordinates

ATOMIC_POSITIONS (angstrom)
O             0.0000000000        1.8611200000       -0.1855672318    0   0   0
Cu            0.0000000000        0.0000000000        0.1045134913    0   0   0
O             0.0000000000        0.0000000000        1.9874047485    0   0   0
Ba            1.9651100000        1.8611200000        2.2478843721    0   0   0
Cu            0.0000000000        0.0000000000        4.0982294970    0   0   0
O             1.9651100000        0.0000000000        4.2538136797    0   0   0
O             0.0000000000        1.8611200000        4.3916372027    0   0   0
Ca            1.9651100000        1.8611200000        5.9161993617    0   0   0
O             0.0000000000        1.8611200000        7.3743927398    0   0   0
O             1.9651100000        0.0000000000        7.5231621363    0   0   0
Cu            0.0000000000        0.0000000000        7.7082067001    0   0   0
Ba            1.9651100000        1.8611200000        9.5977619739    0   0   0
O             0.0000000000        0.0000000000        9.9215346784    0   0   0
O             0.0000000000        1.8611200000       11.8189701770    0   0   0
Cu            0.0000000000        0.0000000000       11.8191913058    0   0   0
O             0.0000000000        0.0000000000       13.7167976766    0   0   0
Ba            1.9651100000        1.8611200000       14.0405402272    0   0   0
Cu            0.0000000000        0.0000000000       16.0158376350
O             1.9651100000        0.0000000000       16.2266493607
O             0.0000000000        1.8611200000       16.3412975838
Ca            1.9651100000        1.8611200000       17.8391127077
O             0.0000000000        1.8611200000       19.3753287186
O             1.9651100000        0.0000000000       19.5595805980
Cu            0.0000000000        0.0000000000       19.6572595048
Ba            1.9651100000        1.8611200000       21.5714756968
O             0.0000000000        0.0000000000       21.9195520396
Cu            0.0000000000        0.0000000000       23.8101135700    0   0   0
O             0.0000000000        1.8611200000       24.1001440365    0   0   0
End final coordinates


 
     init_run     :      8.09s CPU      8.86s WALL (       1 calls)
     electrons    :   3921.20s CPU   4274.64s WALL (       9 calls)
     update_pot   :     13.11s CPU     13.22s WALL (       8 calls)
     forces       :     32.42s CPU     36.00s WALL (       9 calls)
     stress       :    217.83s CPU    227.36s WALL (       9 calls)

     Called by init_run:
     wfcinit      :      5.73s CPU      5.93s WALL (       1 calls)
     potinit      :      0.58s CPU      0.61s WALL (       1 calls)
     hinit0       :      0.89s CPU      1.03s WALL (       1 calls)

     Called by electrons:
     c_bands      :   3003.47s CPU   3138.79s WALL (     286 calls)
     sum_band     :    609.82s CPU    730.26s WALL (     286 calls)
     v_of_rho     :     22.77s CPU     23.09s WALL (     295 calls)
     newd         :    149.66s CPU    247.36s WALL (     295 calls)
     mix_rho      :    138.52s CPU    140.08s WALL (     286 calls)

     Called by c_bands:
     init_us_2    :     34.38s CPU     34.89s WALL (   14775 calls)
     cegterg      :   2804.14s CPU   2934.78s WALL (    7150 calls)

     Called by sum_band:
     sum_band:bec :      2.16s CPU      2.18s WALL (    7150 calls)
     addusdens    :    164.10s CPU    278.10s WALL (     286 calls)

     Called by *egterg:
     h_psi        :   1574.78s CPU   1649.87s WALL (   20009 calls)
     s_psi        :    172.77s CPU    174.93s WALL (   20009 calls)
     g_psi        :      5.82s CPU      5.88s WALL (   12834 calls)
     cdiaghg      :    452.79s CPU    455.43s WALL (   19784 calls)

     Called by h_psi:
     h_psi:calbec :    185.17s CPU    194.91s WALL (   20009 calls)
     vloc_psi     :   1202.89s CPU   1226.44s WALL (   20009 calls)
     add_vuspsi   :    175.98s CPU    199.24s WALL (   20009 calls)

     General routines
     calbec       :    291.07s CPU    301.33s WALL (   28284 calls)
     fft          :     18.77s CPU     19.03s WALL (    4050 calls)
     ffts         :     70.69s CPU     71.48s WALL (  122950 calls)
     fftw         :   1364.43s CPU   1390.40s WALL ( 5061176 calls)
     interpolate  :      1.52s CPU      1.55s WALL (     295 calls)
 
     Parallel routines
     fft_scatt_xy :    190.30s CPU    193.58s WALL ( 5188176 calls)
     fft_scatt_yz :    792.34s CPU    807.20s WALL ( 5188176 calls)
 
     PWSCF        :      1h 9m CPU      1h17m WALL

 
   This run was terminated on:  20:36:23   9Jul2021            

=------------------------------------------------------------------------------=
   JOB DONE.
=------------------------------------------------------------------------------=
[1625877384.058123] [holy7c06302:236889:0]          mpool.c:43   UCX  WARN  object 0x2c6b4c0 was not returned to mpool ucp_requests
[1625877384.062252] [holy7c06302:236893:0]          mpool.c:43   UCX  WARN  object 0x2961a00 was not returned to mpool ucp_requests
[1625877384.066486] [holy7c06302:236888:0]          mpool.c:43   UCX  WARN  object 0x3cf5a40 was not returned to mpool ucp_requests
[1625877384.067894] [holy7c06302:236892:0]          mpool.c:43   UCX  WARN  object 0x2bd4380 was not returned to mpool ucp_requests
[1625877384.067917] [holy7c06302:236892:0]          mpool.c:43   UCX  WARN  object 0x2bd48c0 was not returned to mpool ucp_requests
[1625877384.068063] [holy7c06302:236894:0]          mpool.c:43   UCX  WARN  object 0x4813680 was not returned to mpool ucp_requests
[1625877384.606794] [holy7c06203:240500:0]          mpool.c:43   UCX  WARN  object 0x4585540 was not returned to mpool ucp_requests
[1625877384.618804] [holy7c06203:240501:0]          mpool.c:43   UCX  WARN  object 0x2d77900 was not returned to mpool ucp_requests
