
     Program PWSCF v.6.5 starts on 28Jun2021 at 23:25: 8 

     This program is part of the open-source Quantum ESPRESSO suite
     for quantum simulation of materials; please cite
         "P. Giannozzi et al., J. Phys.:Condens. Matter 21 395502 (2009);
         "P. Giannozzi et al., J. Phys.:Condens. Matter 29 465901 (2017);
          URL http://www.quantum-espresso.org", 
     in publications or presentations arising from this work. More details at
     http://www.quantum-espresso.org/quote

     Parallel version (MPI), running on    20 processors

     MPI processes distributed on    11 nodes
     R & G space division:  proc/nbgrp/npool/nimage =      20
     Reading input from CBCO_CuO_cleave_1.0_sep.pwi
Warning: card &CELL ignored
Warning: card     CELL_DYNAMICS = 'BFGS' ignored
Warning: card     PRESS_CONV_THR = 0.5 ignored
Warning: card / ignored

     Current dimensions of program PWSCF are:
     Max number of different atomic species (ntypx) = 10
     Max number of k-points (npk) =  40000
     Max angular momentum in pseudopotentials (lmaxx) =  3

     Subspace diagonalization in iterative solution of the eigenvalue problem:
     one sub-group per band group will be used
     scalapack distributed-memory algorithm (size of sub-group:  4*  4 procs)

     Message from routine setup:
     using ibrav=0 with symmetry is DISCOURAGED, use correct ibrav instead
 
     Parallelization info
     --------------------
     sticks:   dense  smooth     PW     G-vecs:    dense   smooth      PW
     Min         149      50     14                71773    13820    2160
     Max         150      51     15                71810    13841    2205
     Sum        2991    1007    289              1435837   276553   43473
 


     bravais-lattice index     =            0
     lattice parameter (alat)  =       7.4270  a.u.
     unit-cell volume          =    4401.0322 (a.u.)^3
     number of atoms/cell      =           28
     number of atomic types    =            4
     number of electrons       =       227.00
     number of Kohn-Sham states=          137
     kinetic-energy cutoff     =      60.0000  Ry
     charge density cutoff     =     720.0000  Ry
     convergence threshold     =      1.0E-10
     mixing beta               =       0.7000
     number of iterations used =           10  local-TF  mixing
     Exchange-correlation= SLA PW PBE PBE
                           (   1   4   3   4   0   0   0)
     nstep                     =          300


     celldm(1)=   7.427040  celldm(2)=   0.000000  celldm(3)=   0.000000
     celldm(4)=   0.000000  celldm(5)=   0.000000  celldm(6)=   0.000000

     crystal axes: (cart. coord. in units of alat)
               a(1) = (   1.000000   0.000000   0.000000 )  
               a(2) = (   0.000000   0.947081   0.000000 )  
               a(3) = (   0.000000   0.000000  11.342795 )  

     reciprocal axes: (cart. coord. in units 2 pi/alat)
               b(1) = (  1.000000  0.000000  0.000000 )  
               b(2) = (  0.000000  1.055876  0.000000 )  
               b(3) = (  0.000000  0.000000  0.088162 )  


     PseudoPot. # 1 for Ba read from file:
     ./pseudo/Ba.pbe-nsp-van.UPF
     MD5 check sum: 2b9c31dd849566dd297d80989662b7a0
     Pseudo is Ultrasoft + core correction, Zval = 10.0
     Generated by new atomic code, or converted to UPF format
     Using radial grid of  907 points,  6 beta functions with: 
                l(1) =   0
                l(2) =   0
                l(3) =   1
                l(4) =   1
                l(5) =   2
                l(6) =   2
     Q(r) pseudized with  6 coefficients,  rinner =    1.200   1.200   1.200
                                                       1.200   1.200

     PseudoPot. # 2 for Ca read from file:
     ./pseudo/Ca.pbe-nsp-van.UPF
     MD5 check sum: 6471098428ff4fa451746d08035ff179
     Pseudo is Ultrasoft + core correction, Zval = 10.0
     Generated by new atomic code, or converted to UPF format
     Using radial grid of  845 points,  6 beta functions with: 
                l(1) =   0
                l(2) =   0
                l(3) =   1
                l(4) =   1
                l(5) =   2
                l(6) =   2
     Q(r) pseudized with  6 coefficients,  rinner =    1.200   1.200   1.200
                                                       1.200   1.200

     PseudoPot. # 3 for Cu read from file:
     ./pseudo/Cu.pbe-n-van_ak.UPF
     MD5 check sum: 34e3282627ffb533726feb647e090d62
     Pseudo is Ultrasoft + core correction, Zval = 11.0
     Generated by new atomic code, or converted to UPF format
     Using radial grid of  867 points,  6 beta functions with: 
                l(1) =   0
                l(2) =   0
                l(3) =   1
                l(4) =   1
                l(5) =   2
                l(6) =   2
     Q(r) pseudized with  8 coefficients,  rinner =    1.400   1.400   1.400
                                                       1.400   1.400

     PseudoPot. # 4 for O  read from file:
     ./pseudo/O.pbe-van_ak.UPF
     MD5 check sum: 783ce7fe4c79b6a4916957118fed0856
     Pseudo is Ultrasoft, Zval =  6.0
     Generated by new atomic code, or converted to UPF format
     Using radial grid of  737 points,  4 beta functions with: 
                l(1) =   0
                l(2) =   0
                l(3) =   1
                l(4) =   1
     Q(r) pseudized with  8 coefficients,  rinner =    0.800   0.800   0.800


     atomic species   valence    mass     pseudopotential
        Ba            10.00   137.32700     Ba( 1.00)
        Ca            10.00    40.07800     Ca( 1.00)
        Cu            11.00    63.54600     Cu( 1.00)
        O              6.00    15.99900     O ( 1.00)

      4 Sym. Ops. (no inversion) found



   Cartesian axes

     site n.     atom                  positions (alat units)
         1           O   tau(   1) = (   0.0000000   0.4735409  -0.0469745  )
         2           Cu  tau(   2) = (   0.0000000   0.0000000   0.0264565  )
         3           O   tau(   3) = (   0.0000000   0.0000000   0.5030914  )
         4           Ba  tau(   4) = (   0.5000000   0.4735409   0.5690292  )
         5           Cu  tau(   5) = (   0.0000000   0.0000000   1.0374254  )
         6           O   tau(   6) = (   0.5000000   0.0000000   1.0768099  )
         7           O   tau(   7) = (   0.0000000   0.4735409   1.1116985  )
         8           Ca  tau(   8) = (   0.5000000   0.4735409   1.4976260  )
         9           O   tau(   9) = (   0.0000000   0.4735409   1.8667529  )
        10           O   tau(  10) = (   0.5000000   0.0000000   1.9044124  )
        11           Cu  tau(  11) = (   0.0000000   0.0000000   1.9512546  )
        12           Ba  tau(  12) = (   0.5000000   0.4735409   2.4295764  )
        13           O   tau(  13) = (   0.0000000   0.0000000   2.5115362  )
        14           O   tau(  14) = (   0.0000000   0.4735409   2.9918528  )
        15           Cu  tau(  15) = (   0.0000000   0.0000000   2.9919088  )
        16           O   tau(  16) = (   0.0000000   0.0000000   3.7267073  )
        17           Ba  tau(  17) = (   0.5000000   0.4735409   3.8086594  )
        18           Cu  tau(  18) = (   0.0000000   0.0000000   4.2869634  )
        19           O   tau(  19) = (   0.5000000   0.0000000   4.3338056  )
        20           O   tau(  20) = (   0.0000000   0.4735409   4.3714600  )
        21           Ca  tau(  21) = (   0.5000000   0.4735409   4.7405971  )
        22           O   tau(  22) = (   0.0000000   0.4735409   5.1265220  )
        23           O   tau(  23) = (   0.5000000   0.0000000   5.1614106  )
        24           Cu  tau(  24) = (   0.0000000   0.0000000   5.2007978  )
        25           Ba  tau(  25) = (   0.5000000   0.4735409   5.6691914  )
        26           O   tau(  26) = (   0.0000000   0.0000000   5.7351190  )
        27           Cu  tau(  27) = (   0.0000000   0.0000000   6.2117589  )
        28           O   tau(  28) = (   0.0000000   0.4735409   6.2851772  )

     number of k points=    25  Gaussian smearing, width (Ry)=  0.0100
                       cart. coord. in units 2pi/alat
        k(    1) = (   0.0000000   0.0000000   0.0000000), wk =   0.0312500
        k(    2) = (   0.0000000   0.1319845   0.0000000), wk =   0.0625000
        k(    3) = (   0.0000000   0.2639689   0.0000000), wk =   0.0625000
        k(    4) = (   0.0000000   0.3959534   0.0000000), wk =   0.0625000
        k(    5) = (   0.0000000  -0.5279378   0.0000000), wk =   0.0312500
        k(    6) = (   0.1250000   0.0000000   0.0000000), wk =   0.0625000
        k(    7) = (   0.1250000   0.1319845   0.0000000), wk =   0.1250000
        k(    8) = (   0.1250000   0.2639689   0.0000000), wk =   0.1250000
        k(    9) = (   0.1250000   0.3959534   0.0000000), wk =   0.1250000
        k(   10) = (   0.1250000  -0.5279378   0.0000000), wk =   0.0625000
        k(   11) = (   0.2500000   0.0000000   0.0000000), wk =   0.0625000
        k(   12) = (   0.2500000   0.1319845   0.0000000), wk =   0.1250000
        k(   13) = (   0.2500000   0.2639689   0.0000000), wk =   0.1250000
        k(   14) = (   0.2500000   0.3959534   0.0000000), wk =   0.1250000
        k(   15) = (   0.2500000  -0.5279378   0.0000000), wk =   0.0625000
        k(   16) = (   0.3750000   0.0000000   0.0000000), wk =   0.0625000
        k(   17) = (   0.3750000   0.1319845   0.0000000), wk =   0.1250000
        k(   18) = (   0.3750000   0.2639689   0.0000000), wk =   0.1250000
        k(   19) = (   0.3750000   0.3959534   0.0000000), wk =   0.1250000
        k(   20) = (   0.3750000  -0.5279378   0.0000000), wk =   0.0625000
        k(   21) = (  -0.5000000   0.0000000   0.0000000), wk =   0.0312500
        k(   22) = (  -0.5000000   0.1319845   0.0000000), wk =   0.0625000
        k(   23) = (  -0.5000000   0.2639689   0.0000000), wk =   0.0625000
        k(   24) = (  -0.5000000   0.3959534   0.0000000), wk =   0.0625000
        k(   25) = (  -0.5000000  -0.5279378   0.0000000), wk =   0.0312500

     Dense  grid:  1435837 G-vectors     FFT dimensions: (  64,  64, 720)

     Smooth grid:   276553 G-vectors     FFT dimensions: (  40,  36, 432)

     Estimated max dynamical RAM per process >     458.17 MB

     Estimated total dynamical RAM >       8.95 GB

     Initial potential from superposition of free atoms

     starting charge  226.84630, renormalised to  227.00000

     negative rho (up, down):  3.456E-03 0.000E+00
     Starting wfcs are  195 randomized atomic wfcs

     total cpu time spent up to now is       10.1 secs

     Self-consistent Calculation

     iteration #  1     ecut=    60.00 Ry     beta= 0.70
     Davidson diagonalization with overlap
     ethr =  1.00E-02,  avg # of iterations =  2.0

     negative rho (up, down):  2.874E-04 0.000E+00

     total cpu time spent up to now is       26.3 secs

     total energy              =   -1839.28960781 Ry
     Harris-Foulkes estimate   =   -1845.32197917 Ry
     estimated scf accuracy    <      18.67838136 Ry

     iteration #  2     ecut=    60.00 Ry     beta= 0.70
     Davidson diagonalization with overlap
     ethr =  8.23E-03,  avg # of iterations =  2.0

     negative rho (up, down):  2.598E-04 0.000E+00

     total cpu time spent up to now is       43.8 secs

     total energy              =   -1841.99724564 Ry
     Harris-Foulkes estimate   =   -1843.98353299 Ry
     estimated scf accuracy    <      10.83986943 Ry

     iteration #  3     ecut=    60.00 Ry     beta= 0.70
     Davidson diagonalization with overlap
     ethr =  4.78E-03,  avg # of iterations =  1.9

     negative rho (up, down):  2.467E-04 0.000E+00

     total cpu time spent up to now is       59.1 secs

     total energy              =   -1842.63833980 Ry
     Harris-Foulkes estimate   =   -1843.05241022 Ry
     estimated scf accuracy    <       4.84745232 Ry

     iteration #  4     ecut=    60.00 Ry     beta= 0.70
     Davidson diagonalization with overlap
     ethr =  2.14E-03,  avg # of iterations =  1.0

     negative rho (up, down):  2.396E-04 0.000E+00

     total cpu time spent up to now is       73.2 secs

     total energy              =   -1842.79981098 Ry
     Harris-Foulkes estimate   =   -1842.95270497 Ry
     estimated scf accuracy    <       5.06118613 Ry

     iteration #  5     ecut=    60.00 Ry     beta= 0.70
     Davidson diagonalization with overlap
     ethr =  2.14E-03,  avg # of iterations =  1.0

     negative rho (up, down):  2.357E-04 0.000E+00

     total cpu time spent up to now is       88.0 secs

     total energy              =   -1842.82245500 Ry
     Harris-Foulkes estimate   =   -1842.86703662 Ry
     estimated scf accuracy    <       0.66070956 Ry

     iteration #  6     ecut=    60.00 Ry     beta= 0.70
     Davidson diagonalization with overlap
     ethr =  2.91E-04,  avg # of iterations =  1.9

     negative rho (up, down):  2.337E-04 0.000E+00

     total cpu time spent up to now is      103.5 secs

     total energy              =   -1842.84302593 Ry
     Harris-Foulkes estimate   =   -1842.85733970 Ry
     estimated scf accuracy    <       1.86838191 Ry

     iteration #  7     ecut=    60.00 Ry     beta= 0.70
     Davidson diagonalization with overlap
     ethr =  2.91E-04,  avg # of iterations =  1.0

     negative rho (up, down):  2.331E-04 0.000E+00

     total cpu time spent up to now is      117.8 secs

     total energy              =   -1842.83068410 Ry
     Harris-Foulkes estimate   =   -1842.85168897 Ry
     estimated scf accuracy    <       1.54692025 Ry

     iteration #  8     ecut=    60.00 Ry     beta= 0.70
     Davidson diagonalization with overlap
     ethr =  2.91E-04,  avg # of iterations =  1.4

     negative rho (up, down):  2.329E-04 0.000E+00

     total cpu time spent up to now is      132.7 secs

     total energy              =   -1842.83405243 Ry
     Harris-Foulkes estimate   =   -1842.84065172 Ry
     estimated scf accuracy    <       0.94259054 Ry

     iteration #  9     ecut=    60.00 Ry     beta= 0.70
     Davidson diagonalization with overlap
     ethr =  2.91E-04,  avg # of iterations =  1.0

     negative rho (up, down):  2.333E-04 0.000E+00

     total cpu time spent up to now is      147.4 secs

     total energy              =   -1842.83043368 Ry
     Harris-Foulkes estimate   =   -1842.83604910 Ry
     estimated scf accuracy    <       0.44782322 Ry

     iteration # 10     ecut=    60.00 Ry     beta= 0.70
     Davidson diagonalization with overlap
     ethr =  1.97E-04,  avg # of iterations =  2.2

     negative rho (up, down):  2.343E-04 0.000E+00

     total cpu time spent up to now is      163.4 secs

     total energy              =   -1842.82824994 Ry
     Harris-Foulkes estimate   =   -1842.83213035 Ry
     estimated scf accuracy    <       0.22154184 Ry

     iteration # 11     ecut=    60.00 Ry     beta= 0.70
     Davidson diagonalization with overlap
     ethr =  9.76E-05,  avg # of iterations =  6.0

     negative rho (up, down):  2.354E-04 0.000E+00

     total cpu time spent up to now is      183.4 secs

     total energy              =   -1842.82585482 Ry
     Harris-Foulkes estimate   =   -1842.82940422 Ry
     estimated scf accuracy    <       0.11967036 Ry

     iteration # 12     ecut=    60.00 Ry     beta= 0.70
     Davidson diagonalization with overlap
     ethr =  5.27E-05,  avg # of iterations =  4.9

     negative rho (up, down):  4.278E-04 0.000E+00

     total cpu time spent up to now is      202.3 secs

     total energy              =   -1842.82410199 Ry
     Harris-Foulkes estimate   =   -1842.82651209 Ry
     estimated scf accuracy    <       0.10932078 Ry

     iteration # 13     ecut=    60.00 Ry     beta= 0.70
     Davidson diagonalization with overlap
     ethr =  4.82E-05,  avg # of iterations =  1.8

     negative rho (up, down):  2.899E-03 0.000E+00

     total cpu time spent up to now is      217.3 secs

     total energy              =   -1842.82314041 Ry
     Harris-Foulkes estimate   =   -1842.82478233 Ry
     estimated scf accuracy    <       0.04926381 Ry

     iteration # 14     ecut=    60.00 Ry     beta= 0.70
     Davidson diagonalization with overlap
     ethr =  2.17E-05,  avg # of iterations =  5.8

     negative rho (up, down):  9.597E-03 0.000E+00

     total cpu time spent up to now is      237.1 secs

     total energy              =   -1842.82241053 Ry
     Harris-Foulkes estimate   =   -1842.82365003 Ry
     estimated scf accuracy    <       0.02356784 Ry

     iteration # 15     ecut=    60.00 Ry     beta= 0.70
     Davidson diagonalization with overlap
     ethr =  1.04E-05,  avg # of iterations =  7.6

     negative rho (up, down):  8.595E-03 0.000E+00

     total cpu time spent up to now is      260.2 secs

     total energy              =   -1842.82169536 Ry
     Harris-Foulkes estimate   =   -1842.82294325 Ry
     estimated scf accuracy    <       0.01297330 Ry

     iteration # 16     ecut=    60.00 Ry     beta= 0.70
     Davidson diagonalization with overlap
     ethr =  5.72E-06,  avg # of iterations =  2.5

     negative rho (up, down):  1.852E-02 0.000E+00

     total cpu time spent up to now is      276.1 secs

     total energy              =   -1842.82084160 Ry
     Harris-Foulkes estimate   =   -1842.82227158 Ry
     estimated scf accuracy    <       0.00783168 Ry

     iteration # 17     ecut=    60.00 Ry     beta= 0.70
     Davidson diagonalization with overlap
     ethr =  3.45E-06,  avg # of iterations =  9.1

     negative rho (up, down):  1.553E-02 0.000E+00

     total cpu time spent up to now is      301.9 secs

     total energy              =   -1842.82043642 Ry
     Harris-Foulkes estimate   =   -1842.82108797 Ry
     estimated scf accuracy    <       0.00479169 Ry

     iteration # 18     ecut=    60.00 Ry     beta= 0.70
     Davidson diagonalization with overlap
     ethr =  2.11E-06,  avg # of iterations =  6.0

     negative rho (up, down):  1.977E-02 0.000E+00

     total cpu time spent up to now is      322.4 secs

     total energy              =   -1842.82000721 Ry
     Harris-Foulkes estimate   =   -1842.82053060 Ry
     estimated scf accuracy    <       0.00452194 Ry

     iteration # 19     ecut=    60.00 Ry     beta= 0.70
     Davidson diagonalization with overlap
     ethr =  1.99E-06,  avg # of iterations =  7.7

     negative rho (up, down):  1.439E-02 0.000E+00

     total cpu time spent up to now is      346.3 secs

     total energy              =   -1842.81982366 Ry
     Harris-Foulkes estimate   =   -1842.82006419 Ry
     estimated scf accuracy    <       0.00300096 Ry

     iteration # 20     ecut=    60.00 Ry     beta= 0.70
     Davidson diagonalization with overlap
     ethr =  1.32E-06,  avg # of iterations =  5.2

     negative rho (up, down):  4.945E-03 0.000E+00

     total cpu time spent up to now is      365.7 secs

     total energy              =   -1842.81962567 Ry
     Harris-Foulkes estimate   =   -1842.81987568 Ry
     estimated scf accuracy    <       0.00073394 Ry

     iteration # 21     ecut=    60.00 Ry     beta= 0.70
     Davidson diagonalization with overlap
     c_bands:  1 eigenvalues not converged
     ethr =  3.23E-07,  avg # of iterations =  8.4

     negative rho (up, down):  3.372E-03 0.000E+00

     total cpu time spent up to now is      390.2 secs

     total energy              =   -1842.81962022 Ry
     Harris-Foulkes estimate   =   -1842.81968859 Ry
     estimated scf accuracy    <       0.00069915 Ry

     iteration # 22     ecut=    60.00 Ry     beta= 0.70
     Davidson diagonalization with overlap
     c_bands:  1 eigenvalues not converged
     c_bands:  1 eigenvalues not converged
     ethr =  3.08E-07,  avg # of iterations =  5.5

     negative rho (up, down):  3.803E-03 0.000E+00

     total cpu time spent up to now is      409.7 secs

     total energy              =   -1842.81966019 Ry
     Harris-Foulkes estimate   =   -1842.81966225 Ry
     estimated scf accuracy    <       0.00043712 Ry

     iteration # 23     ecut=    60.00 Ry     beta= 0.70
     Davidson diagonalization with overlap
     ethr =  1.93E-07,  avg # of iterations =  2.1

     negative rho (up, down):  2.159E-03 0.000E+00

     total cpu time spent up to now is      425.0 secs

     total energy              =   -1842.81967474 Ry
     Harris-Foulkes estimate   =   -1842.81967457 Ry
     estimated scf accuracy    <       0.00022027 Ry

     iteration # 24     ecut=    60.00 Ry     beta= 0.70
     Davidson diagonalization with overlap
     c_bands:  1 eigenvalues not converged
     ethr =  9.70E-08,  avg # of iterations =  6.8

     negative rho (up, down):  1.569E-03 0.000E+00

     total cpu time spent up to now is      446.3 secs

     total energy              =   -1842.81968250 Ry
     Harris-Foulkes estimate   =   -1842.81967900 Ry
     estimated scf accuracy    <       0.00002761 Ry

     iteration # 25     ecut=    60.00 Ry     beta= 0.70
     Davidson diagonalization with overlap
     ethr =  1.22E-08,  avg # of iterations =  3.7

     negative rho (up, down):  1.479E-03 0.000E+00

     total cpu time spent up to now is      463.8 secs

     total energy              =   -1842.81968322 Ry
     Harris-Foulkes estimate   =   -1842.81968466 Ry
     estimated scf accuracy    <       0.00001721 Ry

     iteration # 26     ecut=    60.00 Ry     beta= 0.70
     Davidson diagonalization with overlap
     ethr =  7.58E-09,  avg # of iterations =  1.0

     negative rho (up, down):  1.444E-03 0.000E+00

     total cpu time spent up to now is      478.1 secs

     total energy              =   -1842.81968399 Ry
     Harris-Foulkes estimate   =   -1842.81968429 Ry
     estimated scf accuracy    <       0.00000491 Ry

     iteration # 27     ecut=    60.00 Ry     beta= 0.70
     Davidson diagonalization with overlap
     ethr =  2.16E-09,  avg # of iterations =  1.4

     negative rho (up, down):  1.518E-03 0.000E+00

     total cpu time spent up to now is      493.0 secs

     total energy              =   -1842.81968402 Ry
     Harris-Foulkes estimate   =   -1842.81968431 Ry
     estimated scf accuracy    <       0.00000230 Ry

     iteration # 28     ecut=    60.00 Ry     beta= 0.70
     Davidson diagonalization with overlap
     ethr =  1.01E-09,  avg # of iterations =  1.8

     negative rho (up, down):  1.551E-03 0.000E+00

     total cpu time spent up to now is      508.3 secs

     total energy              =   -1842.81968407 Ry
     Harris-Foulkes estimate   =   -1842.81968419 Ry
     estimated scf accuracy    <       0.00000122 Ry

     iteration # 29     ecut=    60.00 Ry     beta= 0.70
     Davidson diagonalization with overlap
     ethr =  5.38E-10,  avg # of iterations =  1.6

     negative rho (up, down):  1.541E-03 0.000E+00

     total cpu time spent up to now is      523.2 secs

     total energy              =   -1842.81968413 Ry
     Harris-Foulkes estimate   =   -1842.81968412 Ry
     estimated scf accuracy    <       0.00000084 Ry

     iteration # 30     ecut=    60.00 Ry     beta= 0.70
     Davidson diagonalization with overlap
     ethr =  3.70E-10,  avg # of iterations =  1.0

     negative rho (up, down):  1.543E-03 0.000E+00

     total cpu time spent up to now is      537.5 secs

     total energy              =   -1842.81968412 Ry
     Harris-Foulkes estimate   =   -1842.81968414 Ry
     estimated scf accuracy    <       0.00000028 Ry

     iteration # 31     ecut=    60.00 Ry     beta= 0.70
     Davidson diagonalization with overlap
     ethr =  1.24E-10,  avg # of iterations =  2.0

     negative rho (up, down):  1.553E-03 0.000E+00

     total cpu time spent up to now is      553.2 secs

     total energy              =   -1842.81968412 Ry
     Harris-Foulkes estimate   =   -1842.81968413 Ry
     estimated scf accuracy    <       0.00000014 Ry

     iteration # 32     ecut=    60.00 Ry     beta= 0.70
     Davidson diagonalization with overlap
     ethr =  6.36E-11,  avg # of iterations =  1.6

     negative rho (up, down):  1.556E-03 0.000E+00

     total cpu time spent up to now is      568.3 secs

     total energy              =   -1842.81968412 Ry
     Harris-Foulkes estimate   =   -1842.81968412 Ry
     estimated scf accuracy    <       0.00000004 Ry

     iteration # 33     ecut=    60.00 Ry     beta= 0.70
     Davidson diagonalization with overlap
     ethr =  1.73E-11,  avg # of iterations =  2.7

     negative rho (up, down):  1.555E-03 0.000E+00

     total cpu time spent up to now is      585.4 secs

     total energy              =   -1842.81968412 Ry
     Harris-Foulkes estimate   =   -1842.81968412 Ry
     estimated scf accuracy    <       0.00000002 Ry

     iteration # 34     ecut=    60.00 Ry     beta= 0.70
     Davidson diagonalization with overlap
     ethr =  7.39E-12,  avg # of iterations =  2.5

     negative rho (up, down):  1.548E-03 0.000E+00

     total cpu time spent up to now is      602.2 secs

     total energy              =   -1842.81968413 Ry
     Harris-Foulkes estimate   =   -1842.81968412 Ry
     estimated scf accuracy    <          3.1E-09 Ry

     iteration # 35     ecut=    60.00 Ry     beta= 0.70
     Davidson diagonalization with overlap
     ethr =  1.36E-12,  avg # of iterations =  2.8

     negative rho (up, down):  1.547E-03 0.000E+00

     total cpu time spent up to now is      620.3 secs

     total energy              =   -1842.81968413 Ry
     Harris-Foulkes estimate   =   -1842.81968413 Ry
     estimated scf accuracy    <          5.6E-09 Ry

     iteration # 36     ecut=    60.00 Ry     beta= 0.70
     Davidson diagonalization with overlap
     ethr =  1.36E-12,  avg # of iterations =  1.0

     negative rho (up, down):  1.546E-03 0.000E+00

     total cpu time spent up to now is      634.8 secs

     total energy              =   -1842.81968413 Ry
     Harris-Foulkes estimate   =   -1842.81968413 Ry
     estimated scf accuracy    <          1.6E-09 Ry

     iteration # 37     ecut=    60.00 Ry     beta= 0.70
     Davidson diagonalization with overlap
     ethr =  6.85E-13,  avg # of iterations =  1.0

     negative rho (up, down):  1.544E-03 0.000E+00

     total cpu time spent up to now is      649.1 secs

     total energy              =   -1842.81968413 Ry
     Harris-Foulkes estimate   =   -1842.81968413 Ry
     estimated scf accuracy    <          3.7E-10 Ry

     iteration # 38     ecut=    60.00 Ry     beta= 0.70
     Davidson diagonalization with overlap
     ethr =  1.63E-13,  avg # of iterations =  1.3

     negative rho (up, down):  1.544E-03 0.000E+00

     total cpu time spent up to now is      663.7 secs

     total energy              =   -1842.81968413 Ry
     Harris-Foulkes estimate   =   -1842.81968413 Ry
     estimated scf accuracy    <          1.7E-10 Ry

     iteration # 39     ecut=    60.00 Ry     beta= 0.70
     Davidson diagonalization with overlap
     ethr =  1.00E-13,  avg # of iterations =  1.0

     negative rho (up, down):  1.543E-03 0.000E+00

     total cpu time spent up to now is      677.5 secs

     End of self-consistent calculation

          k = 0.0000 0.0000 0.0000 ( 34661 PWs)   bands (ev):

   -35.6949 -35.6719 -22.8619 -22.8590 -22.6804 -22.5701 -17.1966 -17.1769
   -16.7467 -16.7355 -16.7248 -16.7113 -15.3972 -15.3840 -14.7467 -14.7408
   -14.7143 -14.6716 -14.6568 -14.2499 -14.2473 -14.0690 -14.0576 -13.9429
   -13.9162 -13.9100 -12.8766  -7.9940  -7.9906  -7.9554  -7.9528  -7.8280
    -7.7879  -7.7626  -7.7598  -7.7393  -7.5677  -7.5566  -7.3642  -2.3970
    -2.3960  -2.0199  -1.9131  -1.9087  -1.8909  -1.8840  -1.7611  -1.7450
    -1.6473  -1.6253  -1.5921  -1.5800  -1.2880  -1.2844  -0.9396  -0.5264
    -0.5244  -0.4870  -0.4459  -0.4433  -0.4095  -0.3780  -0.3688  -0.3632
    -0.3490  -0.3400  -0.3328  -0.3308  -0.3135  -0.3023  -0.2561  -0.1862
    -0.1064  -0.1042   0.0122   0.0241   0.0263   0.0285   0.0317   0.0344
     0.0658   0.0667   0.0982   0.1031   0.1532   0.1816   0.2235   0.2561
     0.4945   0.7201   0.7598   0.8133   0.8158   0.8609   0.9004   1.0969
     1.1023   1.2619   1.2785   1.2935   1.3071   1.4016   1.4203   1.4364
     1.4510   1.4597   1.4698   1.7300   1.7496   1.8217   1.9627   1.9714
     2.0406   2.1528   2.2168   2.2785   2.3324   2.4647   2.4776   5.1288
     5.1508   5.2954   6.0946   6.2197   6.6818   6.6919   6.8909   7.0245
     7.8977   8.0007   8.1508   8.1988   8.4613   8.5374   8.6118   8.8869
     9.0919

          k = 0.0000 0.1320 0.0000 ( 34589 PWs)   bands (ev):

   -35.6931 -35.6701 -22.8353 -22.8323 -22.6547 -22.5463 -17.1606 -17.1408
   -16.8078 -16.7837 -16.7443 -16.7225 -15.3082 -15.2955 -14.7522 -14.7466
   -14.6720 -14.6448 -14.6272 -14.2598 -14.2567 -14.0720 -14.0602 -14.0020
   -13.9530 -13.9416 -12.9345  -7.9935  -7.9901  -7.9076  -7.9049  -7.8270
    -7.8042  -7.8021  -7.7860  -7.6936  -7.6173  -7.5160  -7.3984  -2.4576
    -2.4555  -2.2832  -2.2638  -2.1885  -2.1696  -2.0038  -1.7393  -1.7246
    -1.7126  -1.7090  -1.6304  -1.6089  -1.5289  -1.4202  -1.4146  -0.7964
    -0.7088  -0.6873  -0.6242  -0.6220  -0.5335  -0.5306  -0.4739  -0.4689
    -0.3965  -0.3695  -0.2905  -0.2567  -0.2530  -0.2487  -0.2191  -0.2154
    -0.2127  -0.0849  -0.0826  -0.0756  -0.0696   0.0169   0.0273   0.0518
     0.0545   0.0560   0.0736   0.1376   0.1997   0.2177   0.2668   0.2890
     0.7144   0.8664   0.9274   0.9925   1.0101   1.0127   1.0646   1.0698
     1.0783   1.0882   1.1095   1.3486   1.3693   1.3903   1.3984   1.4957
     1.5187   1.5236   1.6192   1.7003   1.7342   1.7923   1.8987   1.9304
     1.9760   2.0929   2.1098   2.4720   2.5588   2.7545   2.7572   5.5173
     5.5263   5.6054   6.4021   6.4779   6.9898   6.9973   7.1978   7.3420
     8.0724   8.2023   8.3622   8.4034   8.6517   8.7401   8.8595   9.0533
     9.1520

          k = 0.0000 0.2640 0.0000 ( 34465 PWs)   bands (ev):

   -35.6887 -35.6657 -22.7694 -22.7664 -22.5913 -22.4878 -17.0690 -17.0491
   -16.9616 -16.9378 -16.7387 -16.7168 -15.1048 -15.0940 -14.8057 -14.7968
   -14.6123 -14.5571 -14.5490 -14.2485 -14.2433 -14.1261 -14.1034 -14.0986
   -14.0397 -13.9894 -13.0668  -7.9929  -7.9897  -7.8953  -7.8923  -7.8242
    -7.7872  -7.7845  -7.7831  -7.7240  -7.5789  -7.4710  -7.4147  -2.9127
    -2.9053  -2.7608  -2.7327  -2.5209  -2.4966  -2.4944  -2.3486  -2.3462
    -2.0089  -1.6816  -1.6706  -1.5990  -1.5752  -1.5683  -1.5556  -1.3281
    -1.0962  -1.0058  -0.8768  -0.8741  -0.7458  -0.7335  -0.6762  -0.6506
    -0.6382  -0.6216  -0.5945  -0.5656  -0.5627  -0.5378  -0.5054  -0.4326
    -0.3319  -0.0565  -0.0540  -0.0181   0.0109   0.0234   0.0608   0.0793
     0.1299   0.1656   0.2820   0.3062   0.5232   0.5292   0.6225   0.6375
     0.8731   0.8919   0.9049   1.0537   1.0633   1.0957   1.0978   1.1434
     1.1554   1.2240   1.2244   1.2523   1.3302   1.4205   1.4833   1.5896
     1.6936   1.7304   1.7625   1.8004   1.8557   1.8693   1.8888   1.9052
     1.9082   2.0020   2.0986   2.5919   2.9441   2.9804   3.0911   6.3612
     6.4186   6.4210   7.1902   7.2158   7.8151   7.8201   8.0265   8.2108
     8.5754   8.6888   8.7459   8.8025   8.9450   9.0822   9.1694   9.2082
     9.2273

          k = 0.0000 0.3960 0.0000 ( 34424 PWs)   bands (ev):

   -35.6843 -35.6613 -22.7012 -22.6983 -22.5259 -22.4275 -17.0982 -17.0742
   -16.9673 -16.9475 -16.7330 -16.7111 -15.0057 -15.0033 -14.7910 -14.7651
   -14.6290 -14.4926 -14.4243 -14.2039 -14.1942 -14.1860 -14.1821 -14.1580
   -14.1167 -14.0457 -13.1869  -7.9928  -7.9896  -7.9735  -7.9705  -7.8362
    -7.8035  -7.7776  -7.6588  -7.6561  -7.5321  -7.4570  -7.3082  -3.3715
    -3.3627  -3.2976  -3.1719  -3.1643  -3.0641  -3.0609  -2.4391  -2.4380
    -2.0369  -1.9119  -1.8884  -1.7043  -1.6129  -1.6055  -1.4785  -1.4631
    -1.3331  -1.2205  -1.1470  -1.1439  -0.9853  -0.9590  -0.9469  -0.9052
    -0.8899  -0.8489  -0.8245  -0.8096  -0.7952  -0.7361  -0.5488  -0.4521
    -0.3146  -0.1140  -0.0395  -0.0369   0.0205   0.0547   0.0625   0.0936
     0.0941   0.1227   0.4028   0.4323   0.6857   0.7003   0.8489   0.8523
     0.8751   0.8930   0.9630   0.9851   1.0110   1.0657   1.0674   1.0693
     1.1658   1.2843   1.4454   1.5267   1.5394   1.6104   1.6256   1.6400
     1.6417   1.6889   1.8162   1.8842   1.8899   1.9150   2.0884   2.1510
     2.2946   2.2997   2.3025   2.5126   2.8445   2.8789   3.2643   7.2032
     7.3651   7.3680   8.1341   8.1640   8.5863   8.6097   8.6320   8.8251
     8.9791   8.9955   8.9988   9.0261   9.2356   9.3626   9.3916   9.4303
     9.6191

          k = 0.0000-0.5279 0.0000 ( 34482 PWs)   bands (ev):

   -35.6824 -35.6594 -22.6723 -22.6693 -22.4982 -22.4020 -17.1503 -17.1262
   -16.9226 -16.9028 -16.7307 -16.7088 -15.0470 -15.0436 -14.6925 -14.6631
   -14.6583 -14.4738 -14.3644 -14.2424 -14.2289 -14.1888 -14.1491 -14.1405
   -14.1389 -14.1081 -13.2327  -8.0031  -8.0002  -7.9925  -7.9893  -7.8628
    -7.8109  -7.7754  -7.6029  -7.6002  -7.5548  -7.4041  -7.2624  -3.5753
    -3.5404  -3.5358  -3.3440  -3.3401  -3.2929  -3.2897  -2.4552  -2.4541
    -2.0468  -2.0363  -2.0162  -1.8386  -1.5785  -1.5727  -1.4302  -1.3963
    -1.3854  -1.3113  -1.2730  -1.2685  -1.1099  -1.0803  -1.0662  -0.9993
    -0.9960  -0.9210  -0.9050  -0.9023  -0.8715  -0.8232  -0.5414  -0.4175
    -0.2779  -0.1671  -0.0339  -0.0312  -0.0128   0.0521   0.0832   0.0971
     0.0987   0.1410   0.3259   0.3441   0.7272   0.7355   0.7694   0.7821
     0.9265   0.9436   0.9640   1.0211   1.0504   1.0524   1.1367   1.1767
     1.2152   1.2306   1.3960   1.5384   1.6217   1.6425   1.6435   1.7557
     1.9183   1.9202   1.9208   1.9228   1.9328   1.9715   1.9788   2.2806
     2.3904   2.4611   2.4641   2.4722   2.6648   2.7057   3.2769   7.6827
     7.7767   7.7810   8.4159   8.6342   8.8351   8.8674   8.8950   8.9145
     8.9149   8.9448   9.2417   9.2523   9.2629   9.3607   9.7451   9.9005
    10.0340

          k = 0.1250 0.0000 0.0000 ( 34573 PWs)   bands (ev):

   -35.6938 -35.6708 -22.8439 -22.8410 -22.6629 -22.5547 -17.1634 -17.1434
   -16.8266 -16.8056 -16.7342 -16.7099 -15.2943 -15.2807 -14.7918 -14.7867
   -14.7384 -14.6770 -14.6616 -14.2589 -14.2562 -14.0792 -14.0689 -13.9611
   -13.9457 -13.9305 -12.9443  -8.0196  -8.0162  -7.8940  -7.8910  -7.8671
    -7.7915  -7.7302  -7.7273  -7.6728  -7.5368  -7.5084  -7.3373  -2.4402
    -2.4388  -2.0998  -1.9469  -1.9445  -1.9095  -1.8951  -1.8909  -1.8794
    -1.8579  -1.8515  -1.5581  -1.5430  -1.2859  -1.2823  -0.9658  -0.7201
    -0.7156  -0.5842  -0.5812  -0.5187  -0.5131  -0.5068  -0.4659  -0.4080
    -0.4061  -0.3711  -0.3684  -0.3550  -0.3330  -0.2920  -0.2605  -0.2428
    -0.1428  -0.1318   0.0114   0.0244   0.0271   0.0455   0.0582   0.1003
     0.1227   0.1256   0.1368   0.1487   0.2275   0.2474   0.3038   0.3529
     0.5000   0.7194   0.7235   0.7322   0.8226   0.8956   0.9446   1.0849
     1.1036   1.1357   1.1441   1.2763   1.2952   1.4034   1.4115   1.4171
     1.4723   1.5212   1.7411   1.8067   1.8809   1.9114   1.9233   1.9755
     1.9850   2.1167   2.2017   2.2383   2.3391   2.5008   2.5097   5.3217
     5.3304   5.4637   6.3239   6.4075   6.8985   6.9068   7.0996   7.2583
     8.0421   8.1310   8.3005   8.3688   8.6978   8.7211   8.8435   8.9960
     9.3008

          k = 0.1250 0.1320 0.0000 ( 34564 PWs)   bands (ev):

   -35.6920 -35.6690 -22.8180 -22.8151 -22.6380 -22.5315 -17.1284 -17.1084
   -16.8296 -16.8080 -16.7972 -16.7736 -15.2123 -15.1993 -14.7874 -14.7816
   -14.6959 -14.6449 -14.6302 -14.2601 -14.2571 -14.0803 -14.0719 -14.0155
   -13.9705 -13.9646 -12.9849  -8.0384  -8.0354  -7.9565  -7.9533  -7.8663
    -7.7917  -7.7581  -7.6922  -7.6894  -7.5965  -7.5000  -7.2949  -2.4948
    -2.4921  -2.2879  -2.2558  -2.1741  -2.1476  -2.0403  -1.9254  -1.9229
    -1.8809  -1.8597  -1.7067  -1.7030  -1.5399  -1.4126  -1.4073  -0.9138
    -0.8813  -0.7845  -0.7477  -0.7385  -0.6673  -0.6658  -0.5721  -0.5696
    -0.4837  -0.3899  -0.3448  -0.3394  -0.2845  -0.2713  -0.2561  -0.2096
    -0.1565  -0.1347  -0.1061  -0.0672  -0.0655   0.0416   0.0740   0.0875
     0.1005   0.1103   0.1546   0.1758   0.2185   0.2363   0.4186   0.4483
     0.7502   0.9421   0.9617   0.9737   1.0133   1.0546   1.0663   1.1352
     1.1523   1.1733   1.1889   1.2137   1.2244   1.2408   1.2664   1.5212
     1.5255   1.5425   1.5909   1.5938   1.6764   1.7627   1.9770   2.2595
     2.2760   2.3082   2.3829   2.5250   2.5701   2.7595   2.7631   5.6646
     5.6687   5.7330   6.5830   6.6350   7.1979   7.2039   7.3972   7.5686
     8.2146   8.3186   8.4898   8.5495   8.8029   8.9101   9.0227   9.1263
     9.2047

          k = 0.1250 0.2640 0.0000 ( 34463 PWs)   bands (ev):

   -35.6876 -35.6646 -22.7542 -22.7513 -22.5765 -22.4745 -17.0398 -17.0196
   -16.9584 -16.9347 -16.8093 -16.7881 -15.0315 -15.0216 -14.7969 -14.7851
   -14.6188 -14.5539 -14.5464 -14.2435 -14.2395 -14.1369 -14.1203 -14.1062
   -14.0374 -13.9965 -13.0794  -8.1071  -8.1043  -7.9937  -7.9904  -7.9141
    -7.8264  -7.7825  -7.6964  -7.6830  -7.6801  -7.4970  -7.2925  -2.9374
    -2.9289  -2.7655  -2.7366  -2.5127  -2.4972  -2.4951  -2.3481  -2.3456
    -2.0535  -1.8761  -1.8708  -1.8298  -1.8096  -1.5943  -1.5715  -1.3385
    -1.1109  -1.0658  -1.0544  -1.0234  -0.9781  -0.9677  -0.7653  -0.7613
    -0.7148  -0.6584  -0.6387  -0.5865  -0.5736  -0.5074  -0.4883  -0.4394
    -0.3731  -0.2268  -0.1832  -0.0801  -0.0430   0.1107   0.1290   0.1624
     0.2726   0.3557   0.3995   0.4174   0.6611   0.6781   0.7073   0.7170
     0.9388   0.9543   0.9808   1.0233   1.0324   1.1365   1.2088   1.2136
     1.2465   1.2517   1.3223   1.3277   1.3687   1.4341   1.4662   1.4834
     1.5556   1.5588   1.5854   1.8353   1.8709   1.8721   1.9691   2.2986
     2.4538   2.4742   2.5678   2.7257   2.9456   2.9920   3.0958   6.3991
     6.4795   6.4820   7.2720   7.2930   7.9819   7.9849   8.1854   8.4096
     8.6927   8.7464   8.7865   8.8480   8.9869   9.0541   9.0657   9.1183
     9.1969

          k = 0.1250 0.3960 0.0000 ( 34482 PWs)   bands (ev):

   -35.6832 -35.6602 -22.6883 -22.6853 -22.5131 -22.4159 -17.0931 -17.0690
   -16.9409 -16.9210 -16.8007 -16.7795 -14.9699 -14.9676 -14.7225 -14.6895
   -14.5969 -14.4773 -14.4154 -14.2319 -14.2278 -14.1862 -14.1753 -14.1510
   -14.1008 -14.0377 -13.1667  -8.1376  -8.1347  -8.0053  -8.0019  -7.9728
    -7.8232  -7.7842  -7.7281  -7.7253  -7.7077  -7.5356  -7.3589  -3.4136
    -3.4049  -3.2938  -3.1963  -3.1856  -3.0554  -3.0522  -2.4475  -2.4463
    -2.0704  -1.8662  -1.8615  -1.7710  -1.7390  -1.7362  -1.7041  -1.5694
    -1.4071  -1.4019  -1.2874  -1.2679  -1.2630  -1.1902  -0.9951  -0.9605
    -0.9396  -0.9342  -0.8864  -0.8272  -0.8252  -0.6735  -0.5424  -0.4630
    -0.3973  -0.2637  -0.2074  -0.0525  -0.0022   0.1334   0.1365   0.1871
     0.2982   0.3779   0.5784   0.6095   0.8249   0.8331   0.8737   0.8945
     0.9705   0.9758   0.9831   1.0708   1.0867   1.1586   1.1610   1.1887
     1.3097   1.3149   1.5599   1.5631   1.5900   1.6359   1.6488   1.6873
     1.7343   1.7854   1.7917   1.9985   2.2578   2.2668   2.2696   2.3074
     2.4024   2.4218   2.5442   2.6518   2.8796   2.9385   3.2613   7.0833
     7.2293   7.2331   7.9979   8.0340   8.5244   8.5910   8.5950   8.7510
     8.8348   8.8793   9.2800   9.2921   9.3898   9.4844   9.5180   9.6178
     9.7196

          k = 0.1250-0.5279 0.0000 ( 34444 PWs)   bands (ev):

   -35.6814 -35.6584 -22.6603 -22.6574 -22.4863 -22.3911 -17.1446 -17.1206
   -16.8978 -16.8779 -16.7969 -16.7757 -15.0020 -14.9989 -14.6495 -14.5890
   -14.5839 -14.4476 -14.3489 -14.2740 -14.2642 -14.1651 -14.1487 -14.1420
   -14.1384 -14.0929 -13.2002  -8.1323  -8.1293  -8.0100  -8.0068  -7.9852
    -7.8228  -7.7847  -7.7623  -7.7594  -7.6834  -7.5595  -7.4124  -3.6036
    -3.5900  -3.5521  -3.3769  -3.3713  -3.2847  -3.2815  -2.4685  -2.4673
    -2.0744  -1.8993  -1.8919  -1.8019  -1.6859  -1.6736  -1.5976  -1.5937
    -1.5922  -1.5398  -1.4480  -1.4369  -1.3422  -1.2730  -1.0932  -1.0623
    -1.0178  -1.0154  -0.9780  -0.9199  -0.9180  -0.7414  -0.5391  -0.4381
    -0.3925  -0.2774  -0.2198  -0.0376   0.0186   0.1444   0.1475   0.1992
     0.3019   0.3717   0.5492   0.5664   0.8553   0.8591   0.8836   0.8897
     0.9258   0.9471   0.9776   1.0877   1.1881   1.1961   1.2320   1.2495
     1.2795   1.3676   1.4096   1.6844   1.6877   1.9117   1.9160   1.9235
     1.9321   1.9629   1.9670   2.0295   2.2685   2.2780   2.3715   2.4233
     2.4320   2.4349   2.4654   2.4831   2.7483   2.8176   3.2676   7.3799
     7.4503   7.4564   8.1706   8.2235   8.5043   8.6404   8.9394   9.0003
     9.2293   9.2328   9.3723   9.5022   9.5516   9.6346   9.8502   9.9810
    10.0128

          k = 0.2500 0.0000 0.0000 ( 34590 PWs)   bands (ev):

   -35.6912 -35.6682 -22.7996 -22.7966 -22.6201 -22.5171 -17.0787 -17.0582
   -16.9900 -16.9703 -16.7309 -16.7066 -15.0863 -15.0761 -14.8917 -14.8737
   -14.8110 -14.6869 -14.6866 -14.2733 -14.2702 -14.1244 -14.1130 -14.0004
   -13.9954 -13.9705 -13.0999  -8.0211  -8.0176  -7.8912  -7.8071  -7.8044
    -7.7778  -7.6495  -7.6466  -7.5947  -7.4601  -7.4090  -7.2708  -2.6375
    -2.6326  -2.4646  -2.3810  -2.2801  -2.2768  -2.0130  -1.8418  -1.8388
    -1.7616  -1.7562  -1.5746  -1.5421  -1.2825  -1.2790  -1.0423  -1.0421
    -1.0073  -0.8417  -0.8384  -0.8346  -0.7660  -0.7617  -0.7053  -0.5992
    -0.5974  -0.4983  -0.4102  -0.3797  -0.3779  -0.3283  -0.3159  -0.3019
    -0.2677  -0.2300   0.0117   0.0145   0.0435   0.0982   0.1211   0.1394
     0.2540   0.2559   0.3007   0.3068   0.3149   0.3930   0.4490   0.4706
     0.4757   0.5846   0.5911   0.7094   0.8394   0.8417   0.9739   1.1980
     1.2015   1.2305   1.2326   1.2790   1.3229   1.3393   1.3451   1.4180
     1.4660   1.5171   1.6928   1.7932   1.8190   1.8758   1.9499   1.9508
     2.0341   2.2096   2.2288   2.3697   2.4769   2.6068   2.6202   5.7856
     5.7881   5.8853   6.9206   6.9579   7.4784   7.4850   7.6766   7.9079
     8.3892   8.4015   8.6061   8.7596   8.8140   8.9878   9.2241   9.4600
     9.4889

          k = 0.2500 0.1320 0.0000 ( 34551 PWs)   bands (ev):

   -35.6894 -35.6664 -22.7758 -22.7728 -22.5970 -22.4954 -17.0469 -17.0264
   -16.9834 -16.9637 -16.7968 -16.7727 -15.0320 -15.0239 -14.8490 -14.8263
   -14.7597 -14.6514 -14.6481 -14.2590 -14.2559 -14.1194 -14.1112 -14.0394
   -14.0082 -14.0023 -13.1031  -8.0891  -8.0862  -7.9446  -7.9411  -7.9279
    -7.7870  -7.7553  -7.6159  -7.6148  -7.6128  -7.4333  -7.2240  -2.6899
    -2.6823  -2.5021  -2.4114  -2.2716  -2.2680  -2.1847  -2.1809  -2.0826
    -2.0689  -1.9817  -1.6970  -1.6933  -1.5707  -1.4682  -1.4644  -1.1167
    -1.0902  -1.0725  -1.0280  -1.0066  -0.9924  -0.8321  -0.7022  -0.7019
    -0.6589  -0.6315  -0.4410  -0.4146  -0.3886  -0.3388  -0.3065  -0.2770
    -0.2716  -0.1060  -0.0956  -0.0485  -0.0415   0.0305   0.0865   0.1134
     0.1510   0.2492   0.2681   0.2886   0.4810   0.5408   0.6738   0.7000
     0.7832   0.8341   0.8428   0.9299   0.9682   1.0321   1.0836   1.1305
     1.1424   1.2908   1.2963   1.3230   1.3341   1.3575   1.4087   1.4146
     1.4449   1.4576   1.5149   1.6598   1.6628   1.7164   2.0347   2.4331
     2.5507   2.6021   2.6356   2.7560   2.7761   2.8135   2.8214   6.0470
     6.0493   6.0637   7.0779   7.1067   7.7393   7.7436   7.9410   8.1891
     8.4974   8.5191   8.7403   8.8587   8.8875   9.0702   9.1206   9.1647
     9.3402

          k = 0.2500 0.2640 0.0000 ( 34523 PWs)   bands (ev):

   -35.6850 -35.6620 -22.7171 -22.7141 -22.5402 -22.4421 -16.9859 -16.9645
   -16.9564 -16.9363 -16.9331 -16.9101 -14.9344 -14.9310 -14.7282 -14.6892
   -14.6349 -14.5621 -14.5414 -14.2373 -14.2321 -14.1724 -14.1581 -14.0888
   -14.0392 -14.0145 -13.1107  -8.3091  -8.3063  -8.1137  -8.0063  -8.0030
    -7.9028  -7.8360  -7.7716  -7.7357  -7.7328  -7.5592  -7.3413  -3.0790
    -3.0642  -2.8480  -2.7993  -2.5122  -2.5091  -2.4899  -2.3828  -2.3786
    -2.3250  -2.2767  -2.2405  -2.2349  -1.9776  -1.5404  -1.5300  -1.4948
    -1.4909  -1.4246  -1.3796  -1.2458  -1.0831  -1.0481  -0.8209  -0.8111
    -0.8069  -0.7522  -0.6819  -0.6670  -0.6628  -0.5449  -0.5245  -0.5030
    -0.4691  -0.3965  -0.3268  -0.0766   0.0270   0.2164   0.2962   0.3258
     0.4707   0.5450   0.6869   0.7361   0.7490   0.7594   0.8855   0.8969
     1.0013   1.0634   1.0977   1.1791   1.1842   1.2191   1.2853   1.2880
     1.3629   1.3680   1.4000   1.4173   1.4399   1.5018   1.5187   1.5461
     1.5952   1.6289   1.7079   1.7881   1.7906   1.7962   2.2111   2.4143
     2.9071   2.9235   3.0387   3.1845   3.1923   3.3124   3.3216   6.4549
     6.5890   6.5914   7.4664   7.4845   8.2745   8.2770   8.4508   8.6193
     8.6710   8.8885   8.9635   8.9808   9.1622   9.2468   9.2837   9.3058
     9.3293

          k = 0.2500 0.3960 0.0000 ( 34490 PWs)   bands (ev):

   -35.6807 -35.6576 -22.6566 -22.6537 -22.4819 -22.3875 -17.0810 -17.0571
   -16.9490 -16.9289 -16.8720 -16.8516 -14.8874 -14.8856 -14.5870 -14.5179
   -14.5131 -14.4560 -14.3963 -14.3006 -14.2934 -14.1694 -14.1591 -14.1303
   -14.0646 -14.0255 -13.1168  -8.4291  -8.4263  -8.2487  -8.0564  -8.0533
    -8.0094  -7.9498  -7.9468  -7.8534  -7.7998  -7.7708  -7.5801  -3.5772
    -3.5638  -3.3489  -3.2964  -3.2205  -3.0344  -3.0312  -2.5213  -2.5187
    -2.3208  -2.2433  -2.1986  -2.1827  -1.9613  -1.8784  -1.8660  -1.7512
    -1.7138  -1.5406  -1.5123  -1.3870  -1.2678  -1.2507  -1.0763  -0.9790
    -0.9123  -0.8795  -0.8765  -0.8672  -0.8625  -0.6872  -0.6458  -0.5354
    -0.5317  -0.4532  -0.3943   0.0338   0.1497   0.2606   0.3581   0.3739
     0.6251   0.7718   0.9002   0.9140   0.9149   0.9259   1.0570   1.1610
     1.1670   1.2066   1.2247   1.2432   1.2484   1.3711   1.4338   1.4558
     1.5337   1.5834   1.6136   1.6367   1.6894   1.7006   1.7248   1.7691
     1.8172   1.8198   1.9382   2.1482   2.1882   2.1906   2.2197   2.3627
     2.7442   2.7571   3.1832   3.4081   3.4154   3.5601   3.5658   6.6719
     6.7960   6.8015   7.6124   7.6593   8.4468   8.7083   8.7224   8.7881
     8.9406   9.0230   9.5266   9.5935   9.6692   9.6969   9.7206   9.7948
     9.8548

          k = 0.2500-0.5279 0.0000 ( 34528 PWs)   bands (ev):

   -35.6788 -35.6558 -22.6311 -22.6281 -22.4573 -22.3644 -17.1311 -17.1071
   -16.9434 -16.9233 -16.8328 -16.8123 -14.8842 -14.8819 -14.5376 -14.4426
   -14.4388 -14.3898 -14.3475 -14.3393 -14.3161 -14.1468 -14.1364 -14.1325
   -14.1045 -14.0610 -13.1185  -8.4293  -8.4264  -8.2695  -8.1441  -8.1413
    -8.0164  -8.0132  -7.9858  -7.9098  -7.8489  -7.8152  -7.7259  -3.7764
    -3.7628  -3.5739  -3.4927  -3.4655  -3.2621  -3.2588  -2.5281  -2.5259
    -2.2895  -2.2054  -2.1564  -2.1299  -2.0370  -2.0217  -1.9465  -1.8974
    -1.8481  -1.5645  -1.5368  -1.4406  -1.3426  -1.3287  -1.1678  -1.0701
    -0.9977  -0.9498  -0.9444  -0.8934  -0.8867  -0.7000  -0.6506  -0.5552
    -0.5517  -0.4684  -0.4063   0.0751   0.1813   0.2711   0.3768   0.4097
     0.6563   0.8046   0.9439   0.9569   1.0066   1.0124   1.1204   1.1235
     1.1236   1.2358   1.2634   1.3245   1.3392   1.4313   1.4377   1.4469
     1.5345   1.7514   1.8100   1.8108   1.8210   1.9013   1.9107   1.9510
     1.9666   1.9785   1.9904   2.0780   2.3453   2.3641   2.3668   2.4371
     2.5212   2.5386   3.1855   3.4279   3.4354   3.5963   3.6026   6.6823
     6.7609   6.7653   7.5726   7.6314   8.4735   8.6640   9.0423   9.1690
     9.4462   9.4496   9.4957   9.7035   9.7667   9.7743   9.8710   9.9742
    10.0253

          k = 0.3750 0.0000 0.0000 ( 34518 PWs)   bands (ev):

   -35.6885 -35.6655 -22.7542 -22.7512 -22.5761 -22.4787 -17.1304 -17.1114
   -16.9832 -16.9621 -16.7275 -16.7033 -15.1155 -15.1130 -14.9359 -14.7355
   -14.7237 -14.6907 -14.6775 -14.2873 -14.2822 -14.2241 -14.2132 -14.0304
   -14.0245 -13.9978 -13.2444  -8.0036  -8.0002  -7.8809  -7.7535  -7.7421
    -7.7394  -7.5652  -7.5622  -7.5546  -7.3801  -7.3238  -7.2020  -2.9686
    -2.9609  -2.8325  -2.7701  -2.4001  -2.3985  -2.0599  -1.7655  -1.7646
    -1.6725  -1.6426  -1.6126  -1.6093  -1.2841  -1.2807  -1.2795  -1.1373
    -1.1372  -1.0965  -1.0936  -1.0028  -0.9977  -0.9965  -0.9513  -0.7992
    -0.7974  -0.5422  -0.5226  -0.4997  -0.4014  -0.3869  -0.3469  -0.3189
    -0.3040  -0.2984  -0.0011   0.0016   0.0297   0.0521   0.0999   0.1514
     0.2866   0.3333   0.3358   0.3413   0.3455   0.3575   0.3733   0.4169
     0.4225   0.5965   0.6523   0.7237   1.0105   1.1088   1.1119   1.1223
     1.1276   1.1407   1.2688   1.2809   1.3449   1.4077   1.4303   1.5247
     1.5801   1.6635   1.6808   1.7131   1.7411   1.7944   1.8543   2.0371
     2.0412   2.2475   2.2655   2.4765   2.5400   2.7212   2.7455   6.4311
     6.4371   6.4446   7.6537   7.6886   7.9294   7.9320   8.1401   8.3668
     8.4129   8.5485   8.7258   8.9869   9.2534   9.3833   9.4021   9.4047
     9.4645

          k = 0.3750 0.1320 0.0000 ( 34583 PWs)   bands (ev):

   -35.6868 -35.6637 -22.7325 -22.7295 -22.5551 -22.4585 -17.1218 -17.1028
   -16.9542 -16.9331 -16.7918 -16.7677 -15.0676 -15.0653 -14.8765 -14.6968
   -14.6801 -14.6287 -14.6176 -14.2582 -14.2539 -14.2033 -14.1931 -14.0671
   -14.0350 -14.0223 -13.2154  -8.0608  -8.0577  -7.9156  -7.9054  -7.9028
    -7.7703  -7.7182  -7.6548  -7.6519  -7.5381  -7.4808  -7.2683  -3.0330
    -3.0221  -2.8753  -2.8048  -2.3992  -2.3975  -2.1585  -2.1428  -2.0600
    -1.9780  -1.9520  -1.6854  -1.6817  -1.5876  -1.5452  -1.5299  -1.3863
    -1.3812  -1.3119  -1.2748  -1.1678  -1.0380  -0.8716  -0.8606  -0.8460
    -0.8041  -0.7614  -0.5030  -0.4887  -0.4256  -0.3917  -0.3570  -0.3348
    -0.3299  -0.1372  -0.1210  -0.0343  -0.0254   0.0111   0.0839   0.1106
     0.1270   0.3615   0.3740   0.3869   0.5742   0.5870   0.6913   0.7126
     0.7206   0.8497   0.8783   0.9596   1.0622   1.1057   1.1304   1.1429
     1.1656   1.2842   1.2893   1.2916   1.3986   1.4499   1.4571   1.5612
     1.6157   1.6178   1.6681   1.7103   1.7110   1.7154   1.8589   2.4315
     2.5842   2.6839   2.6950   2.8494   2.8560   3.0214   3.0313   6.4901
     6.5847   6.5869   7.6999   7.7215   7.9952   7.9976   8.1820   8.4003
     8.4571   8.7640   8.9145   9.0337   9.2269   9.2411   9.4236   9.5483
     9.5896

          k = 0.3750 0.2640 0.0000 ( 34595 PWs)   bands (ev):

   -35.6824 -35.6594 -22.6792 -22.6762 -22.5033 -22.4092 -17.1015 -17.0824
   -16.9363 -16.9121 -16.8789 -16.8580 -14.9450 -14.9433 -14.7195 -14.6031
   -14.5785 -14.4797 -14.4667 -14.2239 -14.2146 -14.1889 -14.1819 -14.1106
   -14.0742 -14.0229 -13.1425  -8.3618  -8.3590  -8.1687  -8.0407  -8.0377
    -7.9536  -7.9183  -7.9153  -7.8556  -7.7689  -7.7507  -7.5400  -3.3577
    -3.3376  -3.1115  -3.0423  -2.5771  -2.5728  -2.4777  -2.4740  -2.4666
    -2.4499  -2.4473  -2.3194  -2.3170  -2.0308  -1.8649  -1.8509  -1.6867
    -1.6578  -1.3363  -1.3168  -1.1553  -1.0731  -1.0363  -0.9593  -0.9553
    -0.9162  -0.8552  -0.7405  -0.7190  -0.7159  -0.6248  -0.6011  -0.4843
    -0.4568  -0.4341  -0.3436  -0.0646   0.0688   0.2850   0.4078   0.4647
     0.6078   0.6473   0.7528   0.7753   0.9323   0.9394   1.0037   1.0658
     1.0743   1.1379   1.1391   1.2022   1.2978   1.3281   1.3341   1.3418
     1.5371   1.5448   1.5564   1.5669   1.6370   1.6469   1.6659   1.6780
     1.6841   1.7067   1.7340   1.7411   1.7450   1.7956   2.1860   2.3926
     2.9019   2.9271   3.0448   3.6375   3.6408   3.7343   3.7381   6.4529
     6.6296   6.6322   7.5239   7.5384   8.3260   8.3369   8.3948   8.6815
     8.7502   9.0260   9.3337   9.3409   9.4380   9.5106   9.6014   9.7099
     9.7409

          k = 0.3750 0.3960 0.0000 ( 34549 PWs)   bands (ev):

   -35.6781 -35.6551 -22.6245 -22.6216 -22.4503 -22.3587 -17.0843 -17.0642
   -17.0626 -17.0394 -16.7997 -16.7786 -14.8090 -14.8078 -14.5450 -14.5133
   -14.4598 -14.3222 -14.3212 -14.3019 -14.3016 -14.1521 -14.1463 -14.1020
   -14.0429 -14.0352 -13.0652  -8.6277  -8.6247  -8.4451  -8.2926  -8.2899
    -8.2108  -8.0712  -8.0433  -8.0403  -7.8953  -7.8808  -7.7775  -3.8388
    -3.8192  -3.5545  -3.4996  -3.2093  -3.0137  -3.0104  -2.7043  -2.7004
    -2.5879  -2.5625  -2.3482  -2.3465  -2.1768  -2.1575  -2.0092  -1.9188
    -1.8895  -1.3626  -1.3118  -1.3041  -1.2769  -1.2736  -1.0809  -1.0405
    -1.0343  -0.9578  -0.9416  -0.9048  -0.8999  -0.8388  -0.8084  -0.4866
    -0.4654  -0.4496  -0.3218   0.0862   0.2197   0.3523   0.5797   0.6216
     0.8587   1.0335   1.0770   1.1023   1.1412   1.1910   1.2307   1.2762
     1.2874   1.3994   1.4132   1.4152   1.4459   1.4923   1.5089   1.6320
     1.6932   1.6992   1.7554   1.8003   1.8588   1.9048   1.9114   1.9470
     1.9719   1.9897   2.0002   2.1098   2.1125   2.1488   2.2793   2.4111
     2.7294   2.7520   3.1717   4.1499   4.1534   4.2233   4.2251   6.1951
     6.3267   6.3296   7.2436   7.2845   8.4715   8.7271   8.9055   8.9180
     9.2323   9.2923   9.3907   9.4175   9.4563   9.5325   9.5633   9.6712
     9.8154

          k = 0.3750-0.5279 0.0000 ( 34580 PWs)   bands (ev):

   -35.6763 -35.6533 -22.6015 -22.5985 -22.4279 -22.3374 -17.1178 -17.0938
   -17.0716 -17.0524 -16.7644 -16.7433 -14.7469 -14.7458 -14.4862 -14.4821
   -14.4109 -14.3468 -14.2924 -14.2603 -14.2510 -14.1409 -14.1284 -14.1245
   -14.0419 -14.0374 -13.0316  -8.7097  -8.7067  -8.5413  -8.4377  -8.4350
    -8.2804  -8.2014  -8.0695  -8.0666  -8.0535  -7.8938  -7.7990  -4.0447
    -4.0258  -3.7579  -3.7023  -3.4819  -3.2389  -3.2356  -2.7227  -2.7188
    -2.5970  -2.5662  -2.3425  -2.3407  -2.2831  -2.2629  -2.0040  -1.9887
    -1.9717  -1.4579  -1.4040  -1.3891  -1.3210  -1.3157  -1.1464  -1.0485
    -1.0402  -1.0358  -1.0276  -0.9972  -0.9923  -0.8653  -0.8198  -0.4775
    -0.4502  -0.4412  -0.2998   0.1324   0.2527   0.3656   0.6322   0.7128
     0.9313   1.1891   1.1944   1.2133   1.2204   1.2410   1.2625   1.2690
     1.3171   1.4557   1.4713   1.5149   1.5262   1.7014   1.7081   1.7232
     1.7989   1.8128   1.8648   1.9111   1.9669   1.9698   2.0490   2.0544
     2.1280   2.1743   2.2183   2.2865   2.2996   2.3030   2.3452   2.4381
     2.4843   2.5149   3.1563   4.2872   4.2922   4.3741   4.3763   6.0392
     6.1487   6.1510   7.1374   7.1987   8.4008   8.6903   9.0483   9.0714
     9.2536   9.2963   9.3443   9.5654   9.6250   9.6469   9.7667   9.7983
     9.9017

          k =-0.5000 0.0000 0.0000 ( 34514 PWs)   bands (ev):

   -35.6875 -35.6644 -22.7350 -22.7321 -22.5576 -22.4625 -17.1827 -17.1640
   -16.9413 -16.9198 -16.7262 -16.7019 -15.1732 -15.1695 -14.9790 -14.7620
   -14.7255 -14.4669 -14.4552 -14.4159 -14.3942 -14.2662 -14.2629 -14.0374
   -14.0349 -14.0039 -13.3011  -7.9933  -7.9899  -7.8698  -7.7414  -7.7189
    -7.7163  -7.5458  -7.5291  -7.5261  -7.3459  -7.2915  -7.1728  -3.1108
    -3.1031  -2.9776  -2.9193  -2.4247  -2.4234  -2.0696  -1.7404  -1.7213
    -1.7209  -1.7147  -1.4873  -1.4871  -1.3767  -1.2880  -1.2846  -1.2597
    -1.2524  -1.1749  -1.1730  -1.1060  -1.0965  -1.0184  -1.0109  -0.8825
    -0.8808  -0.6099  -0.5576  -0.5255  -0.4275  -0.3897  -0.3887  -0.3486
    -0.2930  -0.2874  -0.0065  -0.0037  -0.0030   0.0243   0.0501   0.1375
     0.2604   0.3344   0.3372   0.3407   0.3543   0.3604   0.3613   0.3625
     0.4703   0.5451   0.6960   0.7485   1.0593   1.0666   1.0697   1.0756
     1.2497   1.2823   1.2833   1.2998   1.3096   1.4991   1.5084   1.5266
     1.5855   1.5872   1.6648   1.7663   1.7801   1.8316   1.8794   2.0518
     2.0553   2.2501   2.2628   2.4828   2.5353   2.7535   2.7795   6.8956
     7.2075   7.2100   7.2606   7.2629   7.6306   8.1536   8.2149   8.4363
     8.4503   8.9113   9.0092   9.1974   9.3447   9.3633   9.5280   9.5467
     9.6428

          k =-0.5000 0.1320 0.0000 ( 34570 PWs)   bands (ev):

   -35.6857 -35.6627 -22.7143 -22.7113 -22.5374 -22.4431 -17.1735 -17.1547
   -16.9139 -16.8924 -16.7896 -16.7655 -15.1160 -15.1128 -14.9140 -14.7220
   -14.6850 -14.4278 -14.4167 -14.3560 -14.3358 -14.2445 -14.2412 -14.0744
   -14.0417 -14.0271 -13.2599  -8.0321  -8.0289  -7.8915  -7.8483  -7.8457
    -7.7588  -7.7322  -7.7289  -7.6656  -7.5590  -7.4219  -7.3775  -3.1816
    -3.1709  -3.0285  -2.9615  -2.4300  -2.4285  -2.1466  -2.1132  -2.0555
    -1.9209  -1.9010  -1.6800  -1.6764  -1.6083  -1.5912  -1.5398  -1.5021
    -1.4968  -1.4135  -1.3677  -1.2091  -1.0468  -0.9386  -0.9368  -0.8514
    -0.8250  -0.7824  -0.5384  -0.5256  -0.4206  -0.4195  -0.3849  -0.3592
    -0.3545  -0.1601  -0.1358  -0.0397  -0.0158   0.0066   0.0806   0.1113
     0.1186   0.4388   0.4472   0.4501   0.4808   0.4997   0.6210   0.6760
     0.7536   0.8498   0.9277   0.9694   1.0788   1.1119   1.1630   1.1964
     1.2096   1.2284   1.3145   1.3231   1.4064   1.5342   1.5438   1.5597
     1.6361   1.6583   1.6693   1.7707   1.7919   1.7958   1.8372   2.4209
     2.5894   2.6875   2.6949   2.8645   2.8706   3.0743   3.0849   6.7848
     7.0553   7.0576   7.5600   7.5637   7.7918   8.0739   8.1474   8.3496
     8.4078   9.1042   9.1992   9.3569   9.3588   9.4507   9.5808   9.6701
     9.7021

          k =-0.5000 0.2640 0.0000 ( 34584 PWs)   bands (ev):

   -35.6814 -35.6583 -22.6633 -22.6603 -22.4878 -22.3954 -17.1515 -17.1327
   -16.9329 -16.9087 -16.8428 -16.8214 -14.9644 -14.9622 -14.7409 -14.6265
   -14.5841 -14.3310 -14.3211 -14.2454 -14.2365 -14.1945 -14.1911 -14.1550
   -14.1101 -14.0180 -13.1556  -8.3008  -8.2977  -8.1495  -8.1469  -8.1127
    -7.9821  -7.9788  -7.9441  -7.8998  -7.8399  -7.7324  -7.7189  -3.4962
    -3.4757  -3.2574  -3.1884  -2.6039  -2.6004  -2.4982  -2.4970  -2.4570
    -2.4569  -2.4546  -2.3271  -2.3247  -2.0481  -1.9921  -1.9740  -1.7744
    -1.7402  -1.2548  -1.2300  -1.1175  -1.0375  -1.0351  -1.0177  -0.9916
    -0.9853  -0.9220  -0.7655  -0.7427  -0.7400  -0.6264  -0.5991  -0.4741
    -0.4655  -0.4617  -0.3467  -0.0593   0.0844   0.3070   0.4449   0.5211
     0.6560   0.6861   0.7831   0.7920   1.0078   1.0145   1.0785   1.0810
     1.0897   1.1213   1.1588   1.1633   1.3421   1.3505   1.3811   1.4092
     1.5242   1.6216   1.6257   1.6446   1.6606   1.6715   1.6805   1.7275
     1.7337   1.7942   1.7983   1.8120   1.8192   1.9493   1.9588   2.3620
     2.8939   2.9210   3.0388   3.7776   3.7798   3.8671   3.8708   6.4359
     6.6258   6.6278   7.4488   7.4758   8.3280   8.3729   8.4102   8.6639
     8.9617   9.2684   9.3090   9.5096   9.5207   9.5756   9.5842   9.7208
     9.8367

          k =-0.5000 0.3960 0.0000 ( 34556 PWs)   bands (ev):

   -35.6770 -35.6540 -22.6111 -22.6081 -22.4370 -22.3467 -17.1300 -17.1110
   -17.0618 -17.0378 -16.7675 -16.7461 -14.7802 -14.7792 -14.5640 -14.5429
   -14.4408 -14.3099 -14.2921 -14.2338 -14.2262 -14.1464 -14.1426 -14.0852
   -14.0600 -14.0481 -13.0432  -8.6759  -8.6729  -8.4990  -8.4376  -8.4350
    -8.2553  -8.2091  -8.0599  -8.0565  -8.0397  -7.8953  -7.7882  -3.9704
    -3.9492  -3.6761  -3.6194  -3.2014  -3.0051  -3.0018  -2.7739  -2.7702
    -2.6608  -2.6468  -2.3642  -2.3628  -2.2795  -2.2571  -2.0154  -1.9793
    -1.9452  -1.3701  -1.3085  -1.2895  -1.1837  -1.1774  -1.1472  -1.1240
    -1.0615  -0.9619  -0.9570  -0.9223  -0.9099  -0.9054  -0.8811  -0.4708
    -0.4261  -0.4237  -0.2890   0.1026   0.2429   0.3853   0.6800   0.7293
     0.9562   1.1151   1.1888   1.1953   1.1990   1.2998   1.3027   1.3094
     1.3768   1.4185   1.4918   1.4930   1.4969   1.4981   1.5310   1.6981
     1.7439   1.7650   1.8024   1.8251   1.9078   1.9679   1.9781   1.9818
     2.0774   2.0807   2.1121   2.1306   2.1410   2.1793   2.3267   2.3527
     2.7169   2.7422   3.1625   4.4173   4.4206   4.4682   4.4696   5.9917
     6.1310   6.1329   7.0958   7.1349   8.5516   8.5700   8.8499   8.8712
     9.2935   9.3265   9.4190   9.4725   9.5537   9.5613   9.6120   9.7448
     9.8172

          k =-0.5000-0.5279 0.0000 ( 34620 PWs)   bands (ev):

   -35.6752 -35.6522 -22.5891 -22.5861 -22.4156 -22.3262 -17.1212 -17.1123
   -17.1022 -17.0884 -16.7342 -16.7128 -14.6802 -14.6800 -14.5292 -14.5249
   -14.3578 -14.3376 -14.2807 -14.2097 -14.1970 -14.1355 -14.1235 -14.1198
   -14.0423 -14.0070 -12.9938  -8.8219  -8.8189  -8.6510  -8.5537  -8.5511
    -8.4010  -8.3153  -8.1669  -8.0879  -8.0843  -7.9114  -7.8065  -4.1785
    -4.1577  -3.8753  -3.8199  -3.4762  -3.2293  -3.2261  -2.8062  -2.8024
    -2.6862  -2.6670  -2.3707  -2.3542  -2.3529  -2.3476  -2.0469  -2.0132
    -1.9868  -1.4772  -1.4231  -1.4006  -1.2513  -1.2419  -1.1354  -1.1080
    -1.0947  -1.0505  -1.0478  -1.0227  -1.0108  -0.9426  -0.8926  -0.4637
    -0.3972  -0.3948  -0.2607   0.1493   0.2772   0.4004   0.7574   0.8548
     1.0543   1.2678   1.2746   1.2747   1.2770   1.3119   1.3208   1.3968
     1.5381   1.5408   1.5447   1.5621   1.5859   1.7266   1.7795   1.8031
     1.8235   1.8329   1.9415   1.9574   1.9949   2.0035   2.0992   2.1113
     2.2514   2.2702   2.2736   2.3090   2.3374   2.3466   2.4599   2.4615
     2.4942   2.5107   3.1424   4.6099   4.6158   4.6774   4.6787   5.7792
     5.9035   5.9055   6.9744   7.0363   8.4256   8.6283   8.9540   8.9597
     8.9727   9.0218   9.3592   9.4090   9.4500   9.5772   9.7715   9.8751
     9.9460

     the Fermi energy is     2.4993 ev

!    total energy              =   -1842.81968413 Ry
     Harris-Foulkes estimate   =   -1842.81968413 Ry
     estimated scf accuracy    <          8.2E-11 Ry

     The total energy is the sum of the following terms:

     one-electron contribution =  -28860.73839602 Ry
     hartree contribution      =   14583.06344611 Ry
     xc contribution           =    -621.63140948 Ry
     ewald contribution        =   13056.49752899 Ry
     smearing contrib. (-TS)   =      -0.01085373 Ry

     convergence has been achieved in  39 iterations

     negative rho (up, down):  1.543E-03 0.000E+00

     Forces acting on atoms (cartesian axes, Ry/au):

     atom    1 type  4   force =     0.00000000    0.00000000   -0.00026874
     atom    2 type  3   force =     0.00000000    0.00000000    0.00043962
     atom    3 type  4   force =     0.00000000    0.00000000   -0.00077729
     atom    4 type  1   force =     0.00000000    0.00000000   -0.00045899
     atom    5 type  3   force =     0.00000000    0.00000000    0.00049517
     atom    6 type  4   force =     0.00000000    0.00000000    0.00074359
     atom    7 type  4   force =     0.00000000    0.00000000    0.00102552
     atom    8 type  2   force =     0.00000000    0.00000000   -0.00237685
     atom    9 type  4   force =     0.00000000    0.00000000    0.00313116
     atom   10 type  4   force =     0.00000000    0.00000000    0.00286549
     atom   11 type  3   force =     0.00000000    0.00000000    0.00167274
     atom   12 type  1   force =     0.00000000    0.00000000    0.00843369
     atom   13 type  4   force =     0.00000000    0.00000000   -0.01437072
     atom   14 type  4   force =     0.00000000    0.00000000    0.03057030
     atom   15 type  3   force =     0.00000000    0.00000000   -0.00051438
     atom   16 type  4   force =     0.00000000    0.00000000    0.00312833
     atom   17 type  1   force =     0.00000000    0.00000000   -0.01664516
     atom   18 type  3   force =     0.00000000    0.00000000   -0.01840640
     atom   19 type  4   force =     0.00000000    0.00000000    0.00093883
     atom   20 type  4   force =     0.00000000    0.00000000   -0.00047948
     atom   21 type  2   force =     0.00000000    0.00000000    0.00195514
     atom   22 type  4   force =     0.00000000    0.00000000   -0.00126047
     atom   23 type  4   force =     0.00000000    0.00000000   -0.00017951
     atom   24 type  3   force =     0.00000000    0.00000000   -0.00038052
     atom   25 type  1   force =     0.00000000    0.00000000    0.00038829
     atom   26 type  4   force =     0.00000000    0.00000000    0.00043559
     atom   27 type  3   force =     0.00000000    0.00000000   -0.00013354
     atom   28 type  4   force =     0.00000000    0.00000000    0.00002858

     Total force =     0.042886     Total SCF correction =     0.000017


     Computing stress (Cartesian axis) and pressure


     negative rho (up, down):  1.543E-03 0.000E+00
          total   stress  (Ry/bohr**3)                   (kbar)     P=       -6.19
   0.00000563   0.00000000   0.00000000            0.83        0.00        0.00
   0.00000000  -0.00006764   0.00000000            0.00       -9.95        0.00
   0.00000000   0.00000000  -0.00006433            0.00        0.00       -9.46


     number of scf cycles    =   2
     number of bfgs steps    =   1

     energy   old            =   -1842.8524743229 Ry
     energy   new            =   -1842.8196841326 Ry

     CASE: energy  _new > energy  _old

     new trust radius        =       0.6748110508 bohr
     new conv_thr            =            1.0E-10 Ry


ATOMIC_POSITIONS (angstrom)
O             0.0000000000        1.8611200000       -0.1846200000    0   0   0
Cu            0.0000000000        0.0000000000        0.1039800000    0   0   0
O             0.0000000000        0.0000000000        1.9772600000    0   0   0
Ba            1.9651100000        1.8611200000        2.2364100000    0   0   0
Cu            0.0000000000        0.0000000000        4.0773100000    0   0   0
O             1.9651100000        0.0000000000        4.2321000000    0   0   0
O             0.0000000000        1.8611200000        4.3692200000    0   0   0
Ca            1.9651100000        1.8611200000        5.8860000000    0   0   0
O             0.0000000000        1.8611200000        7.3367500000    0   0   0
O             1.9651100000        0.0000000000        7.4847600000    0   0   0
Cu            0.0000000000        0.0000000000        7.6688600000    0   0   0
Ba            1.9651100000        1.8611200000        9.5487700000
O             0.0000000000        0.0000000000        9.8708900000
O             0.0000000000        1.8611200000       11.6966461914
Cu            0.0000000000        0.0000000000       11.7064416219
O             0.0000000000        0.0000000000       13.9099105196
Ba            1.9651100000        1.8611200000       14.2298361301
Cu            0.0000000000        0.0000000000       16.7833838248
O             1.9651100000        0.0000000000       17.0286507763
O             0.0000000000        1.8611200000       17.1117722767
Ca            1.9651100000        1.8611200000       18.5640720523    0   0   0
O             0.0000000000        1.8611200000       20.1483600000    0   0   0
O             1.9651100000        0.0000000000       20.2854800000    0   0   0
Cu            0.0000000000        0.0000000000       20.4402800000    0   0   0
Ba            1.9651100000        1.8611200000       22.2811700000    0   0   0
O             0.0000000000        0.0000000000       22.5402800000    0   0   0
Cu            0.0000000000        0.0000000000       24.4135800000    0   0   0
O             0.0000000000        1.8611200000       24.7021300000    0   0   0


     NEW-OLD atomic charge density approx. for the potential

     negative rho (up, down):  7.875E-03 0.000E+00

     total cpu time spent up to now is      708.8 secs

     Self-consistent Calculation

     iteration #  1     ecut=    60.00 Ry     beta= 0.70
     Davidson diagonalization with overlap
     c_bands:  1 eigenvalues not converged
     c_bands:  1 eigenvalues not converged
     c_bands:  1 eigenvalues not converged
     c_bands:  1 eigenvalues not converged
     c_bands:  1 eigenvalues not converged
     ethr =  1.00E-06,  avg # of iterations = 16.1

     negative rho (up, down):  2.336E-03 0.000E+00

     total cpu time spent up to now is      774.3 secs

     total energy              =   -1842.65070368 Ry
     Harris-Foulkes estimate   =   -1843.00815982 Ry
     estimated scf accuracy    <       5.56248117 Ry

     iteration #  2     ecut=    60.00 Ry     beta= 0.70
     Davidson diagonalization with overlap
     ethr =  2.45E-03,  avg # of iterations =  1.2

     negative rho (up, down):  1.955E-03 0.000E+00

     total cpu time spent up to now is      789.2 secs

     total energy              =   -1842.73147122 Ry
     Harris-Foulkes estimate   =   -1842.98535096 Ry
     estimated scf accuracy    <       4.95553831 Ry

     iteration #  3     ecut=    60.00 Ry     beta= 0.70
     Davidson diagonalization with overlap
     ethr =  2.18E-03,  avg # of iterations =  1.0

     negative rho (up, down):  2.039E-03 0.000E+00

     total cpu time spent up to now is      803.9 secs

     total energy              =   -1842.82045602 Ry
     Harris-Foulkes estimate   =   -1842.87879025 Ry
     estimated scf accuracy    <       1.14320770 Ry

     iteration #  4     ecut=    60.00 Ry     beta= 0.70
     Davidson diagonalization with overlap
     ethr =  5.04E-04,  avg # of iterations =  1.1

     negative rho (up, down):  1.816E-03 0.000E+00

     total cpu time spent up to now is      818.6 secs

     total energy              =   -1842.83588431 Ry
     Harris-Foulkes estimate   =   -1842.85424838 Ry
     estimated scf accuracy    <       0.16999368 Ry

     iteration #  5     ecut=    60.00 Ry     beta= 0.70
     Davidson diagonalization with overlap
     ethr =  7.49E-05,  avg # of iterations =  3.7

     negative rho (up, down):  1.825E-03 0.000E+00

     total cpu time spent up to now is      836.9 secs

     total energy              =   -1842.84116709 Ry
     Harris-Foulkes estimate   =   -1842.84792643 Ry
     estimated scf accuracy    <       0.08568605 Ry

     iteration #  6     ecut=    60.00 Ry     beta= 0.70
     Davidson diagonalization with overlap
     ethr =  3.77E-05,  avg # of iterations =  1.6

     negative rho (up, down):  1.729E-03 0.000E+00

     total cpu time spent up to now is      852.1 secs

     total energy              =   -1842.84456492 Ry
     Harris-Foulkes estimate   =   -1842.84582779 Ry
     estimated scf accuracy    <       0.03463896 Ry

     iteration #  7     ecut=    60.00 Ry     beta= 0.70
     Davidson diagonalization with overlap
     ethr =  1.53E-05,  avg # of iterations =  4.4

     negative rho (up, down):  1.653E-03 0.000E+00

     total cpu time spent up to now is      871.1 secs

     total energy              =   -1842.84500528 Ry
     Harris-Foulkes estimate   =   -1842.84535589 Ry
     estimated scf accuracy    <       0.00200877 Ry

     iteration #  8     ecut=    60.00 Ry     beta= 0.70
     Davidson diagonalization with overlap
     ethr =  8.85E-07,  avg # of iterations =  8.8

     negative rho (up, down):  1.613E-03 0.000E+00

     total cpu time spent up to now is      897.4 secs

     total energy              =   -1842.84530895 Ry
     Harris-Foulkes estimate   =   -1842.84540443 Ry
     estimated scf accuracy    <       0.01415148 Ry

     iteration #  9     ecut=    60.00 Ry     beta= 0.70
     Davidson diagonalization with overlap
     ethr =  8.85E-07,  avg # of iterations =  1.0

     negative rho (up, down):  1.537E-03 0.000E+00

     total cpu time spent up to now is      911.6 secs

     total energy              =   -1842.84520893 Ry
     Harris-Foulkes estimate   =   -1842.84533370 Ry
     estimated scf accuracy    <       0.00811914 Ry

     iteration # 10     ecut=    60.00 Ry     beta= 0.70
     Davidson diagonalization with overlap
     ethr =  8.85E-07,  avg # of iterations =  1.0

     negative rho (up, down):  1.481E-03 0.000E+00

     total cpu time spent up to now is      926.0 secs

     total energy              =   -1842.84518991 Ry
     Harris-Foulkes estimate   =   -1842.84525739 Ry
     estimated scf accuracy    <       0.00359098 Ry

     iteration # 11     ecut=    60.00 Ry     beta= 0.70
     Davidson diagonalization with overlap
     ethr =  8.85E-07,  avg # of iterations =  1.0

     negative rho (up, down):  1.457E-03 0.000E+00

     total cpu time spent up to now is      940.4 secs

     total energy              =   -1842.84520258 Ry
     Harris-Foulkes estimate   =   -1842.84522183 Ry
     estimated scf accuracy    <       0.00138470 Ry

     iteration # 12     ecut=    60.00 Ry     beta= 0.70
     Davidson diagonalization with overlap
     ethr =  6.10E-07,  avg # of iterations =  1.0

     negative rho (up, down):  1.437E-03 0.000E+00

     total cpu time spent up to now is      954.7 secs

     total energy              =   -1842.84520479 Ry
     Harris-Foulkes estimate   =   -1842.84521265 Ry
     estimated scf accuracy    <       0.00088813 Ry

     iteration # 13     ecut=    60.00 Ry     beta= 0.70
     Davidson diagonalization with overlap
     ethr =  3.91E-07,  avg # of iterations =  1.0

     negative rho (up, down):  1.426E-03 0.000E+00

     total cpu time spent up to now is      968.9 secs

     total energy              =   -1842.84520014 Ry
     Harris-Foulkes estimate   =   -1842.84520861 Ry
     estimated scf accuracy    <       0.00034856 Ry

     iteration # 14     ecut=    60.00 Ry     beta= 0.70
     Davidson diagonalization with overlap
     ethr =  1.54E-07,  avg # of iterations =  1.0

     negative rho (up, down):  1.426E-03 0.000E+00

     total cpu time spent up to now is      983.6 secs

     total energy              =   -1842.84520098 Ry
     Harris-Foulkes estimate   =   -1842.84520364 Ry
     estimated scf accuracy    <       0.00010361 Ry

     iteration # 15     ecut=    60.00 Ry     beta= 0.70
     Davidson diagonalization with overlap
     ethr =  4.56E-08,  avg # of iterations =  1.0

     negative rho (up, down):  1.426E-03 0.000E+00

     total cpu time spent up to now is      998.5 secs

     total energy              =   -1842.84520157 Ry
     Harris-Foulkes estimate   =   -1842.84520228 Ry
     estimated scf accuracy    <       0.00003712 Ry

     iteration # 16     ecut=    60.00 Ry     beta= 0.70
     Davidson diagonalization with overlap
     ethr =  1.64E-08,  avg # of iterations =  1.0

     negative rho (up, down):  1.432E-03 0.000E+00

     total cpu time spent up to now is     1012.8 secs

     total energy              =   -1842.84520171 Ry
     Harris-Foulkes estimate   =   -1842.84520203 Ry
     estimated scf accuracy    <       0.00001537 Ry

     iteration # 17     ecut=    60.00 Ry     beta= 0.70
     Davidson diagonalization with overlap
     ethr =  6.77E-09,  avg # of iterations =  1.2

     negative rho (up, down):  1.437E-03 0.000E+00

     total cpu time spent up to now is     1027.3 secs

     total energy              =   -1842.84520173 Ry
     Harris-Foulkes estimate   =   -1842.84520199 Ry
     estimated scf accuracy    <       0.00000433 Ry

     iteration # 18     ecut=    60.00 Ry     beta= 0.70
     Davidson diagonalization with overlap
     ethr =  1.91E-09,  avg # of iterations =  2.2

     negative rho (up, down):  1.448E-03 0.000E+00

     total cpu time spent up to now is     1043.6 secs

     total energy              =   -1842.84520183 Ry
     Harris-Foulkes estimate   =   -1842.84520190 Ry
     estimated scf accuracy    <       0.00000100 Ry

     iteration # 19     ecut=    60.00 Ry     beta= 0.70
     Davidson diagonalization with overlap
     ethr =  4.41E-10,  avg # of iterations =  2.5

     negative rho (up, down):  1.454E-03 0.000E+00

     total cpu time spent up to now is     1059.5 secs

     total energy              =   -1842.84520184 Ry
     Harris-Foulkes estimate   =   -1842.84520187 Ry
     estimated scf accuracy    <       0.00000048 Ry

     iteration # 20     ecut=    60.00 Ry     beta= 0.70
     Davidson diagonalization with overlap
     ethr =  2.10E-10,  avg # of iterations =  1.2

     negative rho (up, down):  1.462E-03 0.000E+00

     total cpu time spent up to now is     1074.2 secs

     total energy              =   -1842.84520183 Ry
     Harris-Foulkes estimate   =   -1842.84520185 Ry
     estimated scf accuracy    <       0.00000023 Ry

     iteration # 21     ecut=    60.00 Ry     beta= 0.70
     Davidson diagonalization with overlap
     ethr =  1.02E-10,  avg # of iterations =  1.9

     negative rho (up, down):  1.469E-03 0.000E+00

     total cpu time spent up to now is     1089.4 secs

     total energy              =   -1842.84520182 Ry
     Harris-Foulkes estimate   =   -1842.84520184 Ry
     estimated scf accuracy    <       0.00000018 Ry

     iteration # 22     ecut=    60.00 Ry     beta= 0.70
     Davidson diagonalization with overlap
     ethr =  7.88E-11,  avg # of iterations =  1.0

     negative rho (up, down):  1.477E-03 0.000E+00

     total cpu time spent up to now is     1103.8 secs

     total energy              =   -1842.84520181 Ry
     Harris-Foulkes estimate   =   -1842.84520182 Ry
     estimated scf accuracy    <       0.00000016 Ry

     iteration # 23     ecut=    60.00 Ry     beta= 0.70
     Davidson diagonalization with overlap
     ethr =  7.04E-11,  avg # of iterations =  1.0

     negative rho (up, down):  1.482E-03 0.000E+00

     total cpu time spent up to now is     1118.2 secs

     total energy              =   -1842.84520180 Ry
     Harris-Foulkes estimate   =   -1842.84520181 Ry
     estimated scf accuracy    <       0.00000006 Ry

     iteration # 24     ecut=    60.00 Ry     beta= 0.70
     Davidson diagonalization with overlap
     ethr =  2.43E-11,  avg # of iterations =  1.0

     negative rho (up, down):  1.499E-03 0.000E+00

     total cpu time spent up to now is     1132.4 secs

     total energy              =   -1842.84520177 Ry
     Harris-Foulkes estimate   =   -1842.84520180 Ry
     estimated scf accuracy    <       0.00000006 Ry

     iteration # 25     ecut=    60.00 Ry     beta= 0.70
     Davidson diagonalization with overlap
     ethr =  2.43E-11,  avg # of iterations =  1.0

     negative rho (up, down):  1.507E-03 0.000E+00

     total cpu time spent up to now is     1146.5 secs

     total energy              =   -1842.84520175 Ry
     Harris-Foulkes estimate   =   -1842.84520177 Ry
     estimated scf accuracy    <       0.00000004 Ry

     iteration # 26     ecut=    60.00 Ry     beta= 0.70
     Davidson diagonalization with overlap
     ethr =  1.56E-11,  avg # of iterations =  1.0

     negative rho (up, down):  1.513E-03 0.000E+00

     total cpu time spent up to now is     1160.9 secs

     total energy              =   -1842.84520174 Ry
     Harris-Foulkes estimate   =   -1842.84520175 Ry
     estimated scf accuracy    <       0.00000002 Ry

     iteration # 27     ecut=    60.00 Ry     beta= 0.70
     Davidson diagonalization with overlap
     ethr =  7.00E-12,  avg # of iterations =  1.0

     negative rho (up, down):  1.520E-03 0.000E+00

     total cpu time spent up to now is     1175.5 secs

     total energy              =   -1842.84520173 Ry
     Harris-Foulkes estimate   =   -1842.84520175 Ry
     estimated scf accuracy    <       0.00000001 Ry

     iteration # 28     ecut=    60.00 Ry     beta= 0.70
     Davidson diagonalization with overlap
     ethr =  4.44E-12,  avg # of iterations =  1.0

     negative rho (up, down):  1.521E-03 0.000E+00

     total cpu time spent up to now is     1190.0 secs

     total energy              =   -1842.84520173 Ry
     Harris-Foulkes estimate   =   -1842.84520174 Ry
     estimated scf accuracy    <          9.0E-09 Ry

     iteration # 29     ecut=    60.00 Ry     beta= 0.70
     Davidson diagonalization with overlap
     ethr =  3.95E-12,  avg # of iterations =  1.0

     negative rho (up, down):  1.523E-03 0.000E+00

     total cpu time spent up to now is     1204.5 secs

     total energy              =   -1842.84520173 Ry
     Harris-Foulkes estimate   =   -1842.84520173 Ry
     estimated scf accuracy    <          2.9E-09 Ry

     iteration # 30     ecut=    60.00 Ry     beta= 0.70
     Davidson diagonalization with overlap
     ethr =  1.26E-12,  avg # of iterations =  1.2

     negative rho (up, down):  1.523E-03 0.000E+00

     total cpu time spent up to now is     1219.2 secs

     total energy              =   -1842.84520173 Ry
     Harris-Foulkes estimate   =   -1842.84520173 Ry
     estimated scf accuracy    <          3.5E-09 Ry

     iteration # 31     ecut=    60.00 Ry     beta= 0.70
     Davidson diagonalization with overlap
     ethr =  1.26E-12,  avg # of iterations =  1.0

     negative rho (up, down):  1.525E-03 0.000E+00

     total cpu time spent up to now is     1233.7 secs

     total energy              =   -1842.84520173 Ry
[...]

   -35.9024 -35.7435 -22.6933 -22.6917 -22.6364 -22.3812 -17.2306 -17.1107
   -17.1050 -17.0154 -16.9813 -16.8961 -14.7831 -14.7801 -14.5104 -14.4939
   -14.4657 -14.4242 -14.3849 -14.2540 -14.2518 -14.1615 -14.1527 -14.0999
   -14.0516 -13.9272 -13.7233  -8.4505  -8.4505  -8.3493  -8.1102  -8.0727
    -8.0651  -7.9910  -7.9771  -7.9754  -7.9069  -7.7497  -7.6316  -3.5136
    -3.4880  -3.3658  -3.2383  -3.2252  -3.0059  -3.0046  -2.4198  -2.4099
    -2.2364  -2.1972  -2.1105  -2.1029  -1.9207  -1.8500  -1.8344  -1.7540
    -1.6822  -1.5467  -1.4557  -1.4236  -1.2406  -1.1925  -1.1390  -0.9261
    -0.8977  -0.8509  -0.8441  -0.8316  -0.8216  -0.8185  -0.5825  -0.5711
    -0.5404  -0.4435  -0.4291   0.0635   0.1450   0.1903   0.3301   0.3817
     0.5882   0.7297   0.8007   0.9079   0.9095   0.9706   0.9778   1.1865
     1.2000   1.2146   1.2360   1.2532   1.2677   1.3655   1.4372   1.4615
     1.5005   1.5208   1.5653   1.6366   1.6570   1.7398   1.7581   1.7611
     1.8040   1.8757   1.8918   2.0020   2.0550   2.1948   2.1960   2.3731
     2.7112   2.7150   3.4375   3.4414   3.5639   3.5891   3.9335   6.5302
     6.7849   6.7909   7.4654   7.5984   8.6228   8.6876   8.7151   8.7348
     8.9301   8.9778   9.4142   9.5328   9.5738   9.6389   9.6724   9.7537
     9.7932

          k = 0.2500-0.5279 0.0000 ( 34528 PWs)   bands (ev):

   -35.9007 -35.7417 -22.6684 -22.6668 -22.6133 -22.3575 -17.2729 -17.1512
   -17.1060 -16.9853 -16.9764 -16.8610 -14.7661 -14.7652 -14.4345 -14.4280
   -14.3682 -14.3437 -14.3274 -14.2863 -14.2479 -14.1785 -14.1343 -14.1325
   -14.1166 -13.9649 -13.7389  -8.4524  -8.4518  -8.3770  -8.1625  -8.1603
    -8.1163  -8.0463  -8.0384  -8.0307  -7.9783  -7.7673  -7.7389  -3.7155
    -3.6873  -3.6300  -3.4268  -3.4199  -3.2324  -3.2311  -2.4095  -2.4006
    -2.2123  -2.1456  -2.0796  -2.0694  -2.0145  -1.9958  -1.9053  -1.9005
    -1.8233  -1.5872  -1.4885  -1.4600  -1.3119  -1.2770  -1.2360  -1.0099
    -0.9810  -0.9296  -0.9199  -0.8725  -0.8420  -0.8367  -0.5953  -0.5789
    -0.5258  -0.4655  -0.4544   0.1003   0.1807   0.2020   0.3502   0.4124
     0.6184   0.7831   0.9203   0.9917   0.9987   1.0146   1.0176   1.1348
     1.1402   1.2232   1.2811   1.3116   1.3696   1.4062   1.4209   1.4251
     1.4988   1.6268   1.6555   1.8125   1.8528   1.8620   1.9331   1.9388
     1.9709   1.9773   2.0364   2.0450   2.2247   2.3714   2.3726   2.4189
     2.4823   2.4876   3.4528   3.4607   3.5942   3.6205   4.0497   6.4492
     6.7456   6.7528   7.4114   7.5604   8.6622   8.6834   8.9904   9.1050
     9.3978   9.4282   9.4499   9.5962   9.6819   9.7398   9.7989   9.8704
     9.9275

          k = 0.3750 0.0000 0.0000 ( 34518 PWs)   bands (ev):

   -35.9099 -35.7511 -22.7889 -22.7871 -22.7267 -22.4728 -17.2560 -17.1455
   -17.1065 -16.9956 -16.9418 -16.7866 -15.0256 -15.0208 -14.8979 -14.7052
   -14.6958 -14.6822 -14.6457 -14.2681 -14.2656 -14.1958 -14.1824 -14.0329
   -13.9887 -13.9598 -13.6741  -8.0480  -8.0372  -8.0292  -7.7768  -7.7615
    -7.7607  -7.6934  -7.5852  -7.5837  -7.4910  -7.3962  -7.2487  -2.9149
    -2.8987  -2.7509  -2.7326  -2.2484  -2.2457  -1.9465  -1.7143  -1.7074
    -1.5844  -1.5723  -1.5651  -1.5638  -1.2595  -1.2579  -1.2119  -1.1645
    -1.1303  -1.1110  -1.0667  -1.0502  -0.9423  -0.9349  -0.9287  -0.9041
    -0.7954  -0.6816  -0.6790  -0.5417  -0.4539  -0.4258  -0.4047  -0.3549
    -0.3013  -0.2979  -0.1397  -0.0939   0.0314   0.0330   0.1289   0.1413
     0.2418   0.3769   0.3830   0.3865   0.3918   0.4230   0.4384   0.4778
     0.5391   0.6672   0.6848   0.8399   0.8927   1.0603   1.1018   1.1033
     1.1707   1.1838   1.2522   1.2577   1.4132   1.4565   1.4784   1.5317
     1.5749   1.6804   1.6863   1.7035   1.7453   1.8446   1.8679   2.0613
     2.0900   2.1892   2.3150   2.4699   2.5042   2.6898   2.7031   6.4247
     6.4255   6.7972   7.5295   7.6536   7.9213   7.9229   8.2560   8.3719
     8.4462   8.6298   9.1663   9.2063   9.2226   9.2761   9.3391   9.3667
     9.4350

          k = 0.3750 0.1320 0.0000 ( 34583 PWs)   bands (ev):

   -35.9082 -35.7494 -22.7676 -22.7659 -22.7067 -22.4523 -17.2492 -17.1378
   -17.0837 -16.9919 -16.9691 -16.8437 -14.9762 -14.9716 -14.8312 -14.6653
   -14.6531 -14.6274 -14.5897 -14.2419 -14.2398 -14.1759 -14.1668 -14.0574
   -14.0060 -13.9582 -13.6732  -8.0838  -8.0784  -8.0628  -7.9313  -7.9284
    -7.8479  -7.7927  -7.6767  -7.6760  -7.6089  -7.5845  -7.3359  -2.9705
    -2.9525  -2.7924  -2.7704  -2.2616  -2.2577  -2.0912  -2.0834  -1.9845
    -1.9437  -1.8928  -1.6695  -1.6680  -1.6671  -1.4766  -1.4705  -1.3535
    -1.3351  -1.2942  -1.2475  -1.2200  -1.0617  -1.0259  -0.8189  -0.7651
    -0.7621  -0.7214  -0.6628  -0.5203  -0.4959  -0.4294  -0.4232  -0.3116
    -0.3092  -0.1292  -0.1048  -0.0487  -0.0237   0.0887   0.1231   0.1251
     0.2131   0.2685   0.4016   0.4023   0.5009   0.6250   0.6284   0.7192
     0.7400   0.8454   0.9047   0.9246   1.0703   1.0895   1.1219   1.1692
     1.2155   1.2380   1.2839   1.2857   1.4439   1.5052   1.5205   1.5612
     1.6091   1.6258   1.6701   1.7187   1.7280   1.7678   1.8114   2.2509
     2.6675   2.6774   2.7947   2.8674   2.8848   3.0275   3.0628   6.5787
     6.5793   6.7174   7.5819   7.6908   7.9879   7.9886   8.2725   8.3971
     8.6687   8.8175   8.9111   9.1162   9.2303   9.3347   9.4414   9.4798
     9.5459

          k = 0.3750 0.2640 0.0000 ( 34595 PWs)   bands (ev):

   -35.9042 -35.7452 -22.7154 -22.7138 -22.6574 -22.4021 -17.2332 -17.1197
   -17.1119 -17.0202 -16.9733 -16.9015 -14.8482 -14.8445 -14.6521 -14.5678
   -14.5533 -14.4887 -14.4477 -14.2004 -14.1981 -14.1668 -14.1663 -14.0895
   -14.0341 -13.9209 -13.6796  -8.3792  -8.3783  -8.2635  -8.0585  -8.0518
    -8.0483  -7.9732  -7.9474  -7.9462  -7.8925  -7.7488  -7.6122  -3.2792
    -3.2566  -3.0336  -3.0043  -2.5871  -2.5536  -2.5421  -2.4104  -2.4100
    -2.4053  -2.4045  -2.1886  -2.1864  -1.9389  -1.8296  -1.8206  -1.6587
    -1.6386  -1.4804  -1.2658  -1.2476  -1.0383  -0.9693  -0.9118  -0.9097
    -0.8974  -0.8366  -0.7537  -0.7184  -0.6922  -0.6878  -0.5671  -0.5328
    -0.4825  -0.3782  -0.3732  -0.0140   0.0558   0.2728   0.4102   0.4158
     0.5764   0.6149   0.7570   0.7651   0.7914   0.9397   0.9417   1.0090
     1.1109   1.1494   1.1642   1.1876   1.3309   1.3375   1.3564   1.3703
     1.4908   1.5714   1.5763   1.6112   1.6209   1.6583   1.6717   1.6816
     1.6852   1.7153   1.7198   1.7601   1.7857   1.8080   2.0375   2.2435
     2.8818   2.8870   3.5014   3.6623   3.6662   3.7582   3.7869   6.4022
     6.6263   6.6289   7.3768   7.4959   8.3123   8.3212   8.5471   8.7097
     9.0016   9.1913   9.2902   9.3010   9.3422   9.4578   9.4920   9.6413
     9.6958

          k = 0.3750 0.3960 0.0000 ( 34549 PWs)   bands (ev):

   -35.9001 -35.7410 -22.6620 -22.6604 -22.6071 -22.3508 -17.2248 -17.2112
   -17.1050 -17.0883 -16.9585 -16.8301 -14.6995 -14.6976 -14.4830 -14.4739
   -14.4022 -14.3348 -14.2907 -14.2641 -14.2627 -14.1442 -14.1406 -14.0751
   -14.0214 -13.9061 -13.6914  -8.6497  -8.6495  -8.5388  -8.3122  -8.3116
    -8.3081  -8.1912  -8.0615  -8.0529  -8.0150  -7.9182  -7.7662  -3.7615
    -3.7338  -3.4836  -3.4521  -3.3035  -2.9857  -2.9843  -2.6704  -2.6580
    -2.5097  -2.5024  -2.1970  -2.1939  -2.1466  -2.1390  -1.9507  -1.9143
    -1.8895  -1.5783  -1.2876  -1.2592  -1.2120  -1.2098  -1.1729  -1.0073
    -1.0026  -0.9249  -0.9178  -0.8671  -0.8440  -0.8105  -0.7707  -0.7391
    -0.4760  -0.3734  -0.3719   0.1241   0.2076   0.3270   0.5401   0.6001
     0.8161   0.9665   1.0431   1.1014   1.1053   1.1887   1.2175   1.2866
     1.2950   1.3908   1.4164   1.4184   1.4762   1.4887   1.5256   1.6335
     1.6639   1.6950   1.7007   1.7661   1.8078   1.8419   1.8744   1.9772
     2.0057   2.0138   2.0427   2.0745   2.1162   2.1178   2.1283   2.3891
     2.6994   2.7069   3.8739   4.1708   4.1811   4.2331   4.2623   5.9934
     6.3225   6.3269   7.0638   7.2159   8.7318   8.7972   8.8369   8.9185
     9.1328   9.2947   9.3058   9.3915   9.4056   9.4842   9.5215   9.6785
     9.7009

          k = 0.3750-0.5279 0.0000 ( 34580 PWs)   bands (ev):

   -35.8984 -35.7393 -22.6394 -22.6379 -22.5859 -22.3291 -17.2626 -17.2097
   -17.1394 -17.0931 -16.9314 -16.7988 -14.6233 -14.6229 -14.4576 -14.4523
   -14.3024 -14.2969 -14.2675 -14.2447 -14.2161 -14.1260 -14.1241 -14.0968
   -14.0313 -13.9354 -13.6888  -8.7342  -8.7335  -8.6365  -8.4597  -8.4595
    -8.3975  -8.3299  -8.0810  -8.0727  -8.0654  -8.0033  -7.7743  -3.9686
    -3.9386  -3.6985  -3.6507  -3.5558  -3.2098  -3.2082  -2.6838  -2.6706
    -2.5181  -2.5066  -2.2597  -2.2516  -2.1894  -2.1865  -2.0045  -1.9781
    -1.9537  -1.6110  -1.3724  -1.3543  -1.2838  -1.2575  -1.2372  -1.0126
    -1.0100  -1.0079  -1.0041  -0.9581  -0.9425  -0.8477  -0.7995  -0.7626
    -0.4469  -0.3546  -0.3533   0.1639   0.2467   0.3379   0.5911   0.6820
     0.8876   1.1303   1.1720   1.2146   1.2221   1.2461   1.2510   1.3013
     1.3120   1.4583   1.4947   1.5226   1.5497   1.6336   1.6779   1.6977
     1.7075   1.7697   1.7876   1.8588   1.9493   1.9687   1.9767   2.1258
     2.1438   2.1505   2.1763   2.2507   2.2658   2.3097   2.3104   2.4473
     2.4579   2.4706   3.9479   4.3057   4.3267   4.3785   4.4069   5.8071
     6.1453   6.1502   6.9515   7.1212   8.5810   8.8296   8.9421   8.9788
     9.0435   9.2365   9.4156   9.4369   9.6365   9.6651   9.6711   9.7218
     9.8209

          k =-0.5000 0.0000 0.0000 ( 34514 PWs)   bands (ev):

   -35.9089 -35.7501 -22.7703 -22.7685 -22.7101 -22.4553 -17.2990 -17.1936
   -17.0739 -16.9575 -16.9406 -16.7852 -15.0709 -15.0693 -14.9267 -14.7173
   -14.6938 -14.5011 -14.4492 -14.3478 -14.3476 -14.2551 -14.2509 -14.0427
   -14.0243 -13.9876 -13.7004  -8.0350  -8.0250  -8.0163  -7.7617  -7.7393
    -7.7392  -7.6955  -7.5502  -7.5486  -7.4607  -7.3804  -7.2165  -3.0625
    -3.0457  -2.8929  -2.8804  -2.2680  -2.2657  -1.9395  -1.6660  -1.6593
    -1.6379  -1.6289  -1.4733  -1.4489  -1.2595  -1.2579  -1.2290  -1.2191
    -1.2151  -1.1940  -1.1843  -1.1745  -1.0472  -1.0395  -0.9650  -0.9579
    -0.8385  -0.7657  -0.7631  -0.6045  -0.5140  -0.4641  -0.4350  -0.3763
    -0.2928  -0.2877  -0.1626  -0.1449   0.0259   0.0275   0.0892   0.1157
     0.2381   0.3681   0.3691   0.3945   0.4004   0.4103   0.4126   0.4778
     0.5441   0.7128   0.7664   0.7888   0.7954   1.0497   1.0513   1.1121
     1.2616   1.2749   1.3371   1.3523   1.3600   1.5311   1.5566   1.5569
     1.5704   1.5893   1.6174   1.8255   1.8390   1.8407   1.8941   2.0781
     2.0991   2.1809   2.3195   2.4612   2.5126   2.7138   2.7335   6.9751
     7.2028   7.2048   7.2471   7.2489   8.0214   8.1726   8.3659   8.4357
     8.7916   8.9567   9.1390   9.1609   9.2371   9.2970   9.3731   9.4080
     9.5946

          k =-0.5000 0.1320 0.0000 ( 34570 PWs)   bands (ev):

   -35.9072 -35.7483 -22.7499 -22.7482 -22.6907 -22.4357 -17.2917 -17.1854
   -17.0529 -16.9896 -16.9326 -16.8418 -15.0132 -15.0119 -14.8564 -14.6761
   -14.6536 -14.4607 -14.4100 -14.3017 -14.2978 -14.2333 -14.2294 -14.0723
   -14.0190 -13.9936 -13.6917  -8.0557  -8.0484  -8.0421  -7.8685  -7.8684
    -7.8066  -7.7760  -7.7578  -7.7568  -7.6716  -7.5035  -7.4322  -3.1241
    -3.1052  -2.9428  -2.9258  -2.2853  -2.2821  -2.0653  -2.0548  -1.9689
    -1.8947  -1.8541  -1.6646  -1.6628  -1.6582  -1.5415  -1.5336  -1.4516
    -1.4358  -1.3446  -1.3326  -1.3214  -1.0881  -1.0582  -0.8205  -0.8166
    -0.7943  -0.7453  -0.6981  -0.5421  -0.5294  -0.4677  -0.4599  -0.3366
    -0.3352  -0.1552  -0.1242  -0.0443  -0.0181   0.0937   0.1256   0.1262
     0.2126   0.3601   0.3831   0.4764   0.4775   0.5456   0.5674   0.7011
     0.7265   0.8188   0.9464   0.9650   1.0590   1.0776   1.0935   1.2022
     1.2048   1.2189   1.3667   1.3742   1.4701   1.5260   1.6020   1.6052
     1.6236   1.6247   1.6377   1.8053   1.8320   1.8468   1.8604   2.2297
     2.6723   2.6785   2.7993   2.8854   2.9032   3.0702   3.1105   6.7889
     7.0516   7.0529   7.5472   7.5536   7.9515   8.0466   8.2285   8.3762
     9.0326   9.0500   9.1984   9.3419   9.3768   9.4210   9.4677   9.5152
     9.6019

          k =-0.5000 0.2640 0.0000 ( 34584 PWs)   bands (ev):

   -35.9032 -35.7442 -22.7000 -22.6983 -22.6433 -22.3874 -17.2744 -17.1657
   -17.1091 -16.9923 -16.9704 -16.8686 -14.8599 -14.8590 -14.6679 -14.5772
   -14.5548 -14.3605 -14.3118 -14.2156 -14.2154 -14.1839 -14.1808 -14.1306
   -14.0712 -13.9249 -13.6801  -8.3137  -8.3115  -8.2057  -8.1701  -8.1701
    -8.0719  -8.0108  -8.0046  -8.0026  -7.9493  -7.7894  -7.7330  -3.4187
    -3.3952  -3.1783  -3.1514  -2.5809  -2.5782  -2.5684  -2.4308  -2.4298
    -2.4051  -2.4044  -2.2015  -2.1996  -1.9580  -1.9469  -1.9429  -1.7529
    -1.7181  -1.5119  -1.2046  -1.1854  -1.0219  -0.9565  -0.9499  -0.9387
    -0.9285  -0.8869  -0.7899  -0.7212  -0.7199  -0.7037  -0.5417  -0.5360
    -0.5098  -0.3882  -0.3869   0.0002   0.0662   0.3039   0.4402   0.4905
     0.6219   0.6503   0.7908   0.7933   0.8612   1.0282   1.0373   1.0416
     1.1198   1.1251   1.1295   1.1334   1.3424   1.3704   1.4219   1.4366
     1.5019   1.5756   1.6315   1.6317   1.6357   1.7127   1.7178   1.7303
     1.7501   1.7576   1.8335   1.8493   1.8627   1.8946   1.9362   2.1895
     2.8759   2.8815   3.4988   3.8001   3.8018   3.8855   3.9179   6.3010
     6.6237   6.6250   7.2955   7.4248   8.3439   8.3534   8.7283   8.9319
     8.9570   9.3181   9.4089   9.4198   9.4372   9.5102   9.5817   9.7419
     9.7571

          k =-0.5000 0.3960 0.0000 ( 34556 PWs)   bands (ev):

   -35.8991 -35.7400 -22.6488 -22.6473 -22.5948 -22.3381 -17.2574 -17.2158
   -17.1464 -17.0881 -16.9335 -16.8011 -14.6697 -14.6693 -14.4972 -14.4911
   -14.3945 -14.2591 -14.2557 -14.2542 -14.2102 -14.1400 -14.1382 -14.0792
   -14.0221 -13.8959 -13.6773  -8.6973  -8.6972  -8.5893  -8.4599  -8.4598
    -8.3578  -8.3362  -8.0736  -8.0647  -8.0585  -8.0227  -7.7715  -3.8903
    -3.8623  -3.6017  -3.5740  -3.3002  -2.9775  -2.9760  -2.7482  -2.7360
    -2.5855  -2.5761  -2.2593  -2.2395  -2.2030  -2.2007  -1.9851  -1.9530
    -1.9394  -1.6112  -1.2612  -1.2545  -1.1994  -1.1254  -1.1215  -1.0993
    -1.0919  -0.9430  -0.9411  -0.8675  -0.8577  -0.8443  -0.8322  -0.7590
    -0.4586  -0.3350  -0.3338   0.1420   0.2274   0.3753   0.6451   0.6921
     0.9105   1.0439   1.1656   1.2157   1.2311   1.2598   1.2601   1.3261
     1.3285   1.3994   1.4966   1.5019   1.5048   1.5220   1.5808   1.6570
     1.6850   1.7437   1.7772   1.8107   1.8668   1.8958   1.9721   1.9991
     2.0562   2.0669   2.0935   2.0989   2.1457   2.2199   2.2432   2.3443
     2.6881   2.6969   3.8563   4.4338   4.4432   4.4747   4.5071   5.7882
     6.1310   6.1342   6.9036   7.0622   8.7284   8.7524   8.7696   8.8639
     9.0756   9.2856   9.4055   9.4601   9.5082   9.6043   9.6242   9.7006
     9.7314

          k =-0.5000-0.5279 0.0000 ( 34620 PWs)   bands (ev):

   -35.8975 -35.7383 -22.6273 -22.6258 -22.5744 -22.3173 -17.2583 -17.2505
   -17.1385 -17.1346 -16.9078 -16.7716 -14.5516 -14.5513 -14.4887 -14.4865
   -14.2911 -14.2905 -14.2491 -14.2184 -14.1703 -14.1218 -14.1194 -14.0444
   -13.9866 -13.9366 -13.6700  -8.8474  -8.8466  -8.7425  -8.5771  -8.5769
    -8.5118  -8.4464  -8.1647  -8.0954  -8.0862  -8.0303  -7.7820  -4.0989
    -4.0689  -3.8037  -3.7714  -3.5641  -3.2005  -3.1989  -2.7771  -2.7642
    -2.6087  -2.5979  -2.3576  -2.3339  -2.1912  -2.1889  -2.0620  -2.0126
    -1.9532  -1.6454  -1.3785  -1.3715  -1.2591  -1.1974  -1.1910  -1.0778
    -1.0742  -1.0364  -1.0350  -0.9655  -0.9399  -0.8962  -0.8544  -0.7989
    -0.4270  -0.3063  -0.3050   0.1827   0.2677   0.3884   0.7121   0.8073
     1.0041   1.2659   1.2953   1.2977   1.3031   1.3046   1.3142   1.3537
     1.3653   1.5397   1.5659   1.5661   1.5970   1.6156   1.7663   1.7914
     1.8222   1.8308   1.9027   1.9387   1.9813   1.9928   2.0360   2.1469
     2.1972   2.2219   2.2794   2.2814   2.2969   2.4071   2.4122   2.4230
     2.4356   2.5212   3.9200   4.6222   4.6443   4.6794   4.7075   5.5656
     5.9052   5.9093   6.7792   6.9562   8.5997   8.7708   8.8071   8.8508
     8.8838   8.9658   9.2112   9.4653   9.4933   9.6512   9.7433   9.8143
     9.8428

     the Fermi energy is     2.4895 ev

!    total energy              =   -1842.89122571 Ry
     Harris-Foulkes estimate   =   -1842.89122571 Ry
     estimated scf accuracy    <          7.1E-11 Ry

     The total energy is the sum of the following terms:

     one-electron contribution =  -31026.52983657 Ry
     hartree contribution      =   15665.82342862 Ry
     xc contribution           =    -621.53702742 Ry
     ewald contribution        =   14139.36093211 Ry
     smearing contrib. (-TS)   =      -0.00872246 Ry

     convergence has been achieved in  26 iterations

     negative rho (up, down):  1.536E-03 0.000E+00

     Forces acting on atoms (cartesian axes, Ry/au):

     atom    1 type  4   force =     0.00000000    0.00000000    0.00140841
     atom    2 type  3   force =     0.00000000    0.00000000    0.01153351
     atom    3 type  4   force =     0.00000000    0.00000000   -0.00805915
     atom    4 type  1   force =     0.00000000    0.00000000    0.00312817
     atom    5 type  3   force =     0.00000000    0.00000000   -0.00155793
     atom    6 type  4   force =     0.00000000    0.00000000    0.00118966
     atom    7 type  4   force =     0.00000000    0.00000000    0.00239514
     atom    8 type  2   force =     0.00000000    0.00000000    0.00032674
     atom    9 type  4   force =     0.00000000    0.00000000   -0.00217940
     atom   10 type  4   force =     0.00000000    0.00000000   -0.00230309
     atom   11 type  3   force =     0.00000000    0.00000000    0.00281038
     atom   12 type  1   force =     0.00000000    0.00000000    0.00344472
     atom   13 type  4   force =     0.00000000    0.00000000    0.02602166
     atom   14 type  4   force =     0.00000000    0.00000000   -0.00473979
     atom   15 type  3   force =     0.00000000    0.00000000   -0.01380991
     atom   16 type  4   force =     0.00000000    0.00000000   -0.00333674
     atom   17 type  1   force =     0.00000000    0.00000000   -0.00220122
     atom   18 type  3   force =     0.00000000    0.00000000    0.00537566
     atom   19 type  4   force =     0.00000000    0.00000000   -0.00115355
     atom   20 type  4   force =     0.00000000    0.00000000   -0.00105502
     atom   21 type  2   force =     0.00000000    0.00000000    0.00506892
     atom   22 type  4   force =     0.00000000    0.00000000   -0.00656665
     atom   23 type  4   force =     0.00000000    0.00000000   -0.00521818
     atom   24 type  3   force =     0.00000000    0.00000000    0.00001851
     atom   25 type  1   force =     0.00000000    0.00000000   -0.00543790
     atom   26 type  4   force =     0.00000000    0.00000000    0.00788174
     atom   27 type  3   force =     0.00000000    0.00000000   -0.01165142
     atom   28 type  4   force =     0.00000000    0.00000000   -0.00133329

     Total force =     0.030814     Total SCF correction =     0.000013


     Computing stress (Cartesian axis) and pressure


     negative rho (up, down):  1.536E-03 0.000E+00
          total   stress  (Ry/bohr**3)                   (kbar)     P=      -12.73
  -0.00004062   0.00000000   0.00000000           -5.98        0.00        0.00
   0.00000000  -0.00006245   0.00000000            0.00       -9.19        0.00
   0.00000000   0.00000000  -0.00015659            0.00        0.00      -23.03


     number of scf cycles    =  19
     number of bfgs steps    =   7

     energy   old            =   -1842.8998259657 Ry
     energy   new            =   -1842.8912257098 Ry

     CASE: energy  _new > energy  _old


 %%%%%%%%%%%%%%%%%%%%%%%%%%%%%%%%%%%%%%%%%%%%%%%%%%%%%%%%%%%%%%%%%%%%%%%%%%%%%%
     Error in routine bfgs (1):
     dE0s is positive which should never happen
 %%%%%%%%%%%%%%%%%%%%%%%%%%%%%%%%%%%%%%%%%%%%%%%%%%%%%%%%%%%%%%%%%%%%%%%%%%%%%%

     stopping ...
