
     Program PWSCF v.6.5 starts on  9Jul2021 at 12:13:59 

     This program is part of the open-source Quantum ESPRESSO suite
     for quantum simulation of materials; please cite
         "P. Giannozzi et al., J. Phys.:Condens. Matter 21 395502 (2009);
         "P. Giannozzi et al., J. Phys.:Condens. Matter 29 465901 (2017);
          URL http://www.quantum-espresso.org", 
     in publications or presentations arising from this work. More details at
     http://www.quantum-espresso.org/quote

     Parallel version (MPI), running on    20 processors

     MPI processes distributed on     2 nodes
     R & G space division:  proc/nbgrp/npool/nimage =      20
     Reading input from CBCO_Y_cleave_0.25_sep.pwi
Warning: card &CELL ignored
Warning: card     CELL_DYNAMICS = 'BFGS' ignored
Warning: card     PRESS_CONV_THR = 0.5 ignored
Warning: card / ignored

     Current dimensions of program PWSCF are:
     Max number of different atomic species (ntypx) = 10
     Max number of k-points (npk) =  40000
     Max angular momentum in pseudopotentials (lmaxx) =  3

     Subspace diagonalization in iterative solution of the eigenvalue problem:
     one sub-group per band group will be used
     scalapack distributed-memory algorithm (size of sub-group:  4*  4 procs)

     Message from routine setup:
     using ibrav=0 with symmetry is DISCOURAGED, use correct ibrav instead
 
     Parallelization info
     --------------------
     sticks:   dense  smooth     PW     G-vecs:    dense   smooth      PW
     Min         149      50     14                70565    13584    2122
     Max         150      51     15                70602    13609    2165
     Sum        2991    1007    289              1411709   271883   42721
 


     bravais-lattice index     =            0
     lattice parameter (alat)  =       7.4270  a.u.
     unit-cell volume          =    4326.9901 (a.u.)^3
     number of atoms/cell      =           28
     number of atomic types    =            4
     number of electrons       =       227.00
     number of Kohn-Sham states=          137
     kinetic-energy cutoff     =      60.0000  Ry
     charge density cutoff     =     720.0000  Ry
     convergence threshold     =      1.0E-10
     mixing beta               =       0.7000
     number of iterations used =           10  local-TF  mixing
     Exchange-correlation= SLA PW PBE PBE
                           (   1   4   3   4   0   0   0)
     nstep                     =          300


     celldm(1)=   7.427040  celldm(2)=   0.000000  celldm(3)=   0.000000
     celldm(4)=   0.000000  celldm(5)=   0.000000  celldm(6)=   0.000000

     crystal axes: (cart. coord. in units of alat)
               a(1) = (   1.000000   0.000000   0.000000 )  
               a(2) = (   0.000000   0.947081   0.000000 )  
               a(3) = (   0.000000   0.000000  11.151966 )  

     reciprocal axes: (cart. coord. in units 2 pi/alat)
               b(1) = (  1.000000  0.000000  0.000000 )  
               b(2) = (  0.000000  1.055876  0.000000 )  
               b(3) = (  0.000000  0.000000  0.089670 )  


     PseudoPot. # 1 for Ba read from file:
     ./pseudo/Ba.pbe-nsp-van.UPF
     MD5 check sum: 2b9c31dd849566dd297d80989662b7a0
     Pseudo is Ultrasoft + core correction, Zval = 10.0
     Generated by new atomic code, or converted to UPF format
     Using radial grid of  907 points,  6 beta functions with: 
                l(1) =   0
                l(2) =   0
                l(3) =   1
                l(4) =   1
                l(5) =   2
                l(6) =   2
     Q(r) pseudized with  6 coefficients,  rinner =    1.200   1.200   1.200
                                                       1.200   1.200

     PseudoPot. # 2 for Ca read from file:
     ./pseudo/Ca.pbe-nsp-van.UPF
     MD5 check sum: 6471098428ff4fa451746d08035ff179
     Pseudo is Ultrasoft + core correction, Zval = 10.0
     Generated by new atomic code, or converted to UPF format
     Using radial grid of  845 points,  6 beta functions with: 
                l(1) =   0
                l(2) =   0
                l(3) =   1
                l(4) =   1
                l(5) =   2
                l(6) =   2
     Q(r) pseudized with  6 coefficients,  rinner =    1.200   1.200   1.200
                                                       1.200   1.200

     PseudoPot. # 3 for Cu read from file:
     ./pseudo/Cu.pbe-n-van_ak.UPF
     MD5 check sum: 34e3282627ffb533726feb647e090d62
     Pseudo is Ultrasoft + core correction, Zval = 11.0
     Generated by new atomic code, or converted to UPF format
     Using radial grid of  867 points,  6 beta functions with: 
                l(1) =   0
                l(2) =   0
                l(3) =   1
                l(4) =   1
                l(5) =   2
                l(6) =   2
     Q(r) pseudized with  8 coefficients,  rinner =    1.400   1.400   1.400
                                                       1.400   1.400

     PseudoPot. # 4 for O  read from file:
     ./pseudo/O.pbe-van_ak.UPF
     MD5 check sum: 783ce7fe4c79b6a4916957118fed0856
     Pseudo is Ultrasoft, Zval =  6.0
     Generated by new atomic code, or converted to UPF format
     Using radial grid of  737 points,  4 beta functions with: 
                l(1) =   0
                l(2) =   0
                l(3) =   1
                l(4) =   1
     Q(r) pseudized with  8 coefficients,  rinner =    0.800   0.800   0.800


     atomic species   valence    mass     pseudopotential
        Ba            10.00   137.32700     Ba( 1.00)
        Ca            10.00    40.07800     Ca( 1.00)
        Cu            11.00    63.54600     Cu( 1.00)
        O              6.00    15.99900     O ( 1.00)

      4 Sym. Ops. (no inversion) found



   Cartesian axes

     site n.     atom                  positions (alat units)
         1           O   tau(   1) = (   0.0000000   0.4735409  -0.0469745  )
         2           Cu  tau(   2) = (   0.0000000   0.0000000   0.0264565  )
         3           O   tau(   3) = (   0.0000000   0.0000000   0.5030914  )
         4           Ba  tau(   4) = (   0.5000000   0.4735409   0.5690292  )
         5           Cu  tau(   5) = (   0.0000000   0.0000000   1.0374254  )
         6           O   tau(   6) = (   0.5000000   0.0000000   1.0768099  )
         7           O   tau(   7) = (   0.0000000   0.4735409   1.1116985  )
         8           Ca  tau(   8) = (   0.5000000   0.4735409   1.4976260  )
         9           O   tau(   9) = (   0.0000000   0.4735409   1.8667529  )
        10           O   tau(  10) = (   0.5000000   0.0000000   1.9044124  )
        11           Cu  tau(  11) = (   0.0000000   0.0000000   1.9512546  )
        12           Ba  tau(  12) = (   0.5000000   0.4735409   2.4295764  )
        13           O   tau(  13) = (   0.0000000   0.0000000   2.5115362  )
        14           O   tau(  14) = (   0.0000000   0.4735409   2.9918528  )
        15           Cu  tau(  15) = (   0.0000000   0.0000000   2.9919088  )
        16           O   tau(  16) = (   0.0000000   0.0000000   3.4468248  )
        17           Ba  tau(  17) = (   0.5000000   0.4735409   3.5287769  )
        18           Cu  tau(  18) = (   0.0000000   0.0000000   4.0579686  )
        19           O   tau(  19) = (   0.5000000   0.0000000   4.1048108  )
        20           O   tau(  20) = (   0.0000000   0.4735409   4.1424652  )
        21           Ca  tau(  21) = (   0.5000000   0.4735409   4.4607145  )
        22           O   tau(  22) = (   0.0000000   0.4735409   4.9102491  )
        23           O   tau(  23) = (   0.5000000   0.0000000   4.9960255  )
        24           Cu  tau(  24) = (   0.0000000   0.0000000   5.0354126  )
        25           Ba  tau(  25) = (   0.5000000   0.4735409   5.4783624  )
        26           O   tau(  26) = (   0.0000000   0.0000000   5.5442900  )
        27           Cu  tau(  27) = (   0.0000000   0.0000000   6.0209299  )
        28           O   tau(  28) = (   0.0000000   0.4735409   6.0943482  )

     number of k points=    25  Gaussian smearing, width (Ry)=  0.0100
                       cart. coord. in units 2pi/alat
        k(    1) = (   0.0000000   0.0000000   0.0000000), wk =   0.0312500
        k(    2) = (   0.0000000   0.1319845   0.0000000), wk =   0.0625000
        k(    3) = (   0.0000000   0.2639689   0.0000000), wk =   0.0625000
        k(    4) = (   0.0000000   0.3959534   0.0000000), wk =   0.0625000
        k(    5) = (   0.0000000  -0.5279378   0.0000000), wk =   0.0312500
        k(    6) = (   0.1250000   0.0000000   0.0000000), wk =   0.0625000
        k(    7) = (   0.1250000   0.1319845   0.0000000), wk =   0.1250000
        k(    8) = (   0.1250000   0.2639689   0.0000000), wk =   0.1250000
        k(    9) = (   0.1250000   0.3959534   0.0000000), wk =   0.1250000
        k(   10) = (   0.1250000  -0.5279378   0.0000000), wk =   0.0625000
        k(   11) = (   0.2500000   0.0000000   0.0000000), wk =   0.0625000
        k(   12) = (   0.2500000   0.1319845   0.0000000), wk =   0.1250000
        k(   13) = (   0.2500000   0.2639689   0.0000000), wk =   0.1250000
        k(   14) = (   0.2500000   0.3959534   0.0000000), wk =   0.1250000
        k(   15) = (   0.2500000  -0.5279378   0.0000000), wk =   0.0625000
        k(   16) = (   0.3750000   0.0000000   0.0000000), wk =   0.0625000
        k(   17) = (   0.3750000   0.1319845   0.0000000), wk =   0.1250000
        k(   18) = (   0.3750000   0.2639689   0.0000000), wk =   0.1250000
        k(   19) = (   0.3750000   0.3959534   0.0000000), wk =   0.1250000
        k(   20) = (   0.3750000  -0.5279378   0.0000000), wk =   0.0625000
        k(   21) = (  -0.5000000   0.0000000   0.0000000), wk =   0.0312500
        k(   22) = (  -0.5000000   0.1319845   0.0000000), wk =   0.0625000
        k(   23) = (  -0.5000000   0.2639689   0.0000000), wk =   0.0625000
        k(   24) = (  -0.5000000   0.3959534   0.0000000), wk =   0.0625000
        k(   25) = (  -0.5000000  -0.5279378   0.0000000), wk =   0.0312500

     Dense  grid:  1411709 G-vectors     FFT dimensions: (  64,  64, 720)

     Smooth grid:   271883 G-vectors     FFT dimensions: (  40,  36, 432)

     Estimated max dynamical RAM per process >     450.82 MB

     Estimated total dynamical RAM >       8.81 GB

     Initial potential from superposition of free atoms

     starting charge  226.84630, renormalised to  227.00000

     negative rho (up, down):  3.541E-03 0.000E+00
     Starting wfcs are  195 randomized atomic wfcs

     total cpu time spent up to now is       10.1 secs

     Self-consistent Calculation

     iteration #  1     ecut=    60.00 Ry     beta= 0.70
     Davidson diagonalization with overlap
     ethr =  1.00E-02,  avg # of iterations =  2.0

     negative rho (up, down):  2.834E-04 0.000E+00

     total cpu time spent up to now is       25.0 secs

     total energy              =   -1839.49834018 Ry
     Harris-Foulkes estimate   =   -1845.31623752 Ry
     estimated scf accuracy    <      18.04223116 Ry

     iteration #  2     ecut=    60.00 Ry     beta= 0.70
     Davidson diagonalization with overlap
     ethr =  7.95E-03,  avg # of iterations =  2.0

     negative rho (up, down):  2.562E-04 0.000E+00

     total cpu time spent up to now is       41.3 secs

     total energy              =   -1842.08955653 Ry
     Harris-Foulkes estimate   =   -1843.92140850 Ry
     estimated scf accuracy    <      12.53964391 Ry

     iteration #  3     ecut=    60.00 Ry     beta= 0.70
     Davidson diagonalization with overlap
     ethr =  5.52E-03,  avg # of iterations =  1.6

     negative rho (up, down):  2.422E-04 0.000E+00

     total cpu time spent up to now is       55.5 secs

     total energy              =   -1842.64699076 Ry
     Harris-Foulkes estimate   =   -1843.09929273 Ry
     estimated scf accuracy    <       3.98600208 Ry

     iteration #  4     ecut=    60.00 Ry     beta= 0.70
     Davidson diagonalization with overlap
     ethr =  1.76E-03,  avg # of iterations =  1.2

     negative rho (up, down):  2.357E-04 0.000E+00

     total cpu time spent up to now is       69.2 secs

     total energy              =   -1842.83106601 Ry
     Harris-Foulkes estimate   =   -1843.03138458 Ry
     estimated scf accuracy    <       7.39994034 Ry

     iteration #  5     ecut=    60.00 Ry     beta= 0.70
     Davidson diagonalization with overlap
     ethr =  1.76E-03,  avg # of iterations =  1.0

     negative rho (up, down):  2.311E-04 0.000E+00

     total cpu time spent up to now is       82.9 secs

     total energy              =   -1842.89006401 Ry
     Harris-Foulkes estimate   =   -1842.91307701 Ry
     estimated scf accuracy    <       1.04457877 Ry

     iteration #  6     ecut=    60.00 Ry     beta= 0.70
     Davidson diagonalization with overlap
     ethr =  4.60E-04,  avg # of iterations =  1.0

     negative rho (up, down):  2.297E-04 0.000E+00

     total cpu time spent up to now is       96.6 secs

     total energy              =   -1842.89406580 Ry
     Harris-Foulkes estimate   =   -1842.91113017 Ry
     estimated scf accuracy    <       1.93721796 Ry

     iteration #  7     ecut=    60.00 Ry     beta= 0.70
     Davidson diagonalization with overlap
     ethr =  4.60E-04,  avg # of iterations =  1.0

     negative rho (up, down):  2.292E-04 0.000E+00

     total cpu time spent up to now is      110.2 secs

     total energy              =   -1842.89516457 Ry
     Harris-Foulkes estimate   =   -1842.90286647 Ry
     estimated scf accuracy    <       1.38912560 Ry

     iteration #  8     ecut=    60.00 Ry     beta= 0.70
     Davidson diagonalization with overlap
     ethr =  4.60E-04,  avg # of iterations =  1.0

     negative rho (up, down):  2.294E-04 0.000E+00

     total cpu time spent up to now is      123.8 secs

     total energy              =   -1842.88506410 Ry
     Harris-Foulkes estimate   =   -1842.89808876 Ry
     estimated scf accuracy    <       0.91934380 Ry

     iteration #  9     ecut=    60.00 Ry     beta= 0.70
     Davidson diagonalization with overlap
     ethr =  4.05E-04,  avg # of iterations =  1.0

     negative rho (up, down):  2.298E-04 0.000E+00

     total cpu time spent up to now is      137.5 secs

     total energy              =   -1842.88204641 Ry
     Harris-Foulkes estimate   =   -1842.88885712 Ry
     estimated scf accuracy    <       0.28901374 Ry

     iteration # 10     ecut=    60.00 Ry     beta= 0.70
     Davidson diagonalization with overlap
     ethr =  1.27E-04,  avg # of iterations =  5.7

     negative rho (up, down):  2.303E-04 0.000E+00

     total cpu time spent up to now is      156.3 secs

     total energy              =   -1842.88077233 Ry
     Harris-Foulkes estimate   =   -1842.88409409 Ry
     estimated scf accuracy    <       0.09170944 Ry

     iteration # 11     ecut=    60.00 Ry     beta= 0.70
     Davidson diagonalization with overlap
     ethr =  4.04E-05,  avg # of iterations =  5.9

     negative rho (up, down):  2.303E-04 0.000E+00

     total cpu time spent up to now is      175.5 secs

     total energy              =   -1842.87920865 Ry
     Harris-Foulkes estimate   =   -1842.88153094 Ry
     estimated scf accuracy    <       0.06900807 Ry

     iteration # 12     ecut=    60.00 Ry     beta= 0.70
     Davidson diagonalization with overlap
     ethr =  3.04E-05,  avg # of iterations =  2.6

     negative rho (up, down):  7.515E-04 0.000E+00

     total cpu time spent up to now is      190.6 secs

     total energy              =   -1842.87784889 Ry
     Harris-Foulkes estimate   =   -1842.87997020 Ry
     estimated scf accuracy    <       0.06263411 Ry

     iteration # 13     ecut=    60.00 Ry     beta= 0.70
     Davidson diagonalization with overlap
     ethr =  2.76E-05,  avg # of iterations =  2.1

     negative rho (up, down):  6.763E-03 0.000E+00

     total cpu time spent up to now is      205.5 secs

     total energy              =   -1842.87677246 Ry
     Harris-Foulkes estimate   =   -1842.87834998 Ry
     estimated scf accuracy    <       0.02858479 Ry

     iteration # 14     ecut=    60.00 Ry     beta= 0.70
     Davidson diagonalization with overlap
     ethr =  1.26E-05,  avg # of iterations =  7.4

     negative rho (up, down):  1.183E-02 0.000E+00

     total cpu time spent up to now is      226.4 secs

     total energy              =   -1842.87597724 Ry
     Harris-Foulkes estimate   =   -1842.87705284 Ry
     estimated scf accuracy    <       0.01678224 Ry

     iteration # 15     ecut=    60.00 Ry     beta= 0.70
     Davidson diagonalization with overlap
     ethr =  7.39E-06,  avg # of iterations =  6.6

     negative rho (up, down):  1.426E-02 0.000E+00

     total cpu time spent up to now is      245.9 secs

     total energy              =   -1842.87490559 Ry
     Harris-Foulkes estimate   =   -1842.87620840 Ry
     estimated scf accuracy    <       0.01244988 Ry

     iteration # 16     ecut=    60.00 Ry     beta= 0.70
     Davidson diagonalization with overlap
     ethr =  5.48E-06,  avg # of iterations =  6.6

     negative rho (up, down):  2.291E-02 0.000E+00

     total cpu time spent up to now is      265.4 secs

     total energy              =   -1842.87426949 Ry
     Harris-Foulkes estimate   =   -1842.87515644 Ry
     estimated scf accuracy    <       0.00682116 Ry

     iteration # 17     ecut=    60.00 Ry     beta= 0.70
     Davidson diagonalization with overlap
     ethr =  3.00E-06,  avg # of iterations =  9.3

     negative rho (up, down):  2.072E-02 0.000E+00

     total cpu time spent up to now is      288.1 secs

     total energy              =   -1842.87393655 Ry
     Harris-Foulkes estimate   =   -1842.87449651 Ry
     estimated scf accuracy    <       0.00465769 Ry

     iteration # 18     ecut=    60.00 Ry     beta= 0.70
     Davidson diagonalization with overlap
     ethr =  2.05E-06,  avg # of iterations =  8.5

     negative rho (up, down):  1.643E-02 0.000E+00

     total cpu time spent up to now is      310.0 secs

     total energy              =   -1842.87371276 Ry
     Harris-Foulkes estimate   =   -1842.87400171 Ry
     estimated scf accuracy    <       0.00190124 Ry

     iteration # 19     ecut=    60.00 Ry     beta= 0.70
     Davidson diagonalization with overlap
     ethr =  8.38E-07,  avg # of iterations =  6.6

     negative rho (up, down):  8.515E-03 0.000E+00

     total cpu time spent up to now is      329.4 secs

     total energy              =   -1842.87357092 Ry
     Harris-Foulkes estimate   =   -1842.87375686 Ry
     estimated scf accuracy    <       0.00078007 Ry

     iteration # 20     ecut=    60.00 Ry     beta= 0.70
     Davidson diagonalization with overlap
     c_bands:  1 eigenvalues not converged
     ethr =  3.44E-07,  avg # of iterations =  7.0

     negative rho (up, down):  3.208E-03 0.000E+00

     total cpu time spent up to now is      349.2 secs

     total energy              =   -1842.87349529 Ry
     Harris-Foulkes estimate   =   -1842.87360235 Ry
     estimated scf accuracy    <       0.00030290 Ry

     iteration # 21     ecut=    60.00 Ry     beta= 0.70
     Davidson diagonalization with overlap
     c_bands:  1 eigenvalues not converged
     c_bands:  1 eigenvalues not converged
     c_bands:  1 eigenvalues not converged
     c_bands:  1 eigenvalues not converged
     c_bands:  2 eigenvalues not converged
     c_bands:  1 eigenvalues not converged
     ethr =  1.33E-07,  avg # of iterations = 10.8

     negative rho (up, down):  2.158E-03 0.000E+00

     total cpu time spent up to now is      373.4 secs

     total energy              =   -1842.87353289 Ry
     Harris-Foulkes estimate   =   -1842.87351026 Ry
     estimated scf accuracy    <       0.00027080 Ry

     iteration # 22     ecut=    60.00 Ry     beta= 0.70
     Davidson diagonalization with overlap
     c_bands:  2 eigenvalues not converged
     ethr =  1.19E-07,  avg # of iterations =  5.0

     negative rho (up, down):  1.449E-03 0.000E+00

     total cpu time spent up to now is      391.0 secs

     total energy              =   -1842.87354444 Ry
     Harris-Foulkes estimate   =   -1842.87354070 Ry
     estimated scf accuracy    <       0.00005134 Ry

     iteration # 23     ecut=    60.00 Ry     beta= 0.70
     Davidson diagonalization with overlap
     ethr =  2.26E-08,  avg # of iterations =  5.7

     negative rho (up, down):  1.315E-03 0.000E+00

     total cpu time spent up to now is      409.0 secs

     total energy              =   -1842.87354552 Ry
     Harris-Foulkes estimate   =   -1842.87354564 Ry
     estimated scf accuracy    <       0.00001218 Ry

     iteration # 24     ecut=    60.00 Ry     beta= 0.70
     Davidson diagonalization with overlap
     ethr =  5.36E-09,  avg # of iterations =  2.2

     negative rho (up, down):  1.181E-03 0.000E+00

     total cpu time spent up to now is      423.5 secs

     total energy              =   -1842.87354696 Ry
     Harris-Foulkes estimate   =   -1842.87354634 Ry
     estimated scf accuracy    <       0.00001344 Ry

     iteration # 25     ecut=    60.00 Ry     beta= 0.70
     Davidson diagonalization with overlap
     ethr =  5.36E-09,  avg # of iterations =  1.0

     negative rho (up, down):  1.373E-03 0.000E+00

     total cpu time spent up to now is      436.8 secs

     total energy              =   -1842.87354678 Ry
     Harris-Foulkes estimate   =   -1842.87354740 Ry
     estimated scf accuracy    <       0.00000583 Ry

     iteration # 26     ecut=    60.00 Ry     beta= 0.70
     Davidson diagonalization with overlap
     ethr =  2.57E-09,  avg # of iterations =  1.0

     negative rho (up, down):  1.397E-03 0.000E+00

     total cpu time spent up to now is      450.2 secs

     total energy              =   -1842.87354688 Ry
     Harris-Foulkes estimate   =   -1842.87354696 Ry
     estimated scf accuracy    <       0.00000166 Ry

     iteration # 27     ecut=    60.00 Ry     beta= 0.70
     Davidson diagonalization with overlap
     ethr =  7.30E-10,  avg # of iterations =  2.8

     negative rho (up, down):  1.465E-03 0.000E+00

     total cpu time spent up to now is      465.5 secs

     total energy              =   -1842.87354677 Ry
     Harris-Foulkes estimate   =   -1842.87354694 Ry
     estimated scf accuracy    <       0.00000060 Ry

     iteration # 28     ecut=    60.00 Ry     beta= 0.70
     Davidson diagonalization with overlap
     ethr =  2.66E-10,  avg # of iterations =  2.5

     negative rho (up, down):  1.478E-03 0.000E+00

     total cpu time spent up to now is      480.6 secs

     total energy              =   -1842.87354678 Ry
     Harris-Foulkes estimate   =   -1842.87354683 Ry
     estimated scf accuracy    <       0.00000044 Ry

     iteration # 29     ecut=    60.00 Ry     beta= 0.70
     Davidson diagonalization with overlap
     ethr =  1.96E-10,  avg # of iterations =  1.0

     negative rho (up, down):  1.485E-03 0.000E+00

     total cpu time spent up to now is      493.9 secs

     total energy              =   -1842.87354678 Ry
     Harris-Foulkes estimate   =   -1842.87354680 Ry
     estimated scf accuracy    <       0.00000013 Ry

     iteration # 30     ecut=    60.00 Ry     beta= 0.70
     Davidson diagonalization with overlap
     ethr =  5.88E-11,  avg # of iterations =  1.9

     negative rho (up, down):  1.485E-03 0.000E+00

     total cpu time spent up to now is      509.3 secs

     total energy              =   -1842.87354679 Ry
     Harris-Foulkes estimate   =   -1842.87354679 Ry
     estimated scf accuracy    <       0.00000011 Ry

     iteration # 31     ecut=    60.00 Ry     beta= 0.70
     Davidson diagonalization with overlap
     ethr =  4.94E-11,  avg # of iterations =  1.0

     negative rho (up, down):  1.483E-03 0.000E+00

     total cpu time spent up to now is      522.7 secs

     total energy              =   -1842.87354679 Ry
     Harris-Foulkes estimate   =   -1842.87354679 Ry
     estimated scf accuracy    <       0.00000004 Ry

     iteration # 32     ecut=    60.00 Ry     beta= 0.70
     Davidson diagonalization with overlap
     ethr =  1.79E-11,  avg # of iterations =  1.3

     negative rho (up, down):  1.487E-03 0.000E+00

     total cpu time spent up to now is      536.8 secs

     total energy              =   -1842.87354679 Ry
     Harris-Foulkes estimate   =   -1842.87354679 Ry
     estimated scf accuracy    <          4.4E-09 Ry

     iteration # 33     ecut=    60.00 Ry     beta= 0.70
     Davidson diagonalization with overlap
     ethr =  1.95E-12,  avg # of iterations =  3.4

     negative rho (up, down):  1.488E-03 0.000E+00

     total cpu time spent up to now is      554.4 secs

     total energy              =   -1842.87354678 Ry
     Harris-Foulkes estimate   =   -1842.87354679 Ry
     estimated scf accuracy    <          1.8E-09 Ry

     iteration # 34     ecut=    60.00 Ry     beta= 0.70
     Davidson diagonalization with overlap
     ethr =  8.00E-13,  avg # of iterations =  1.6

     negative rho (up, down):  1.490E-03 0.000E+00

     total cpu time spent up to now is      568.6 secs

     total energy              =   -1842.87354678 Ry
     Harris-Foulkes estimate   =   -1842.87354678 Ry
     estimated scf accuracy    <          1.7E-09 Ry

     iteration # 35     ecut=    60.00 Ry     beta= 0.70
     Davidson diagonalization with overlap
     ethr =  7.50E-13,  avg # of iterations =  1.0

     negative rho (up, down):  1.490E-03 0.000E+00

     total cpu time spent up to now is      582.3 secs

     total energy              =   -1842.87354678 Ry
     Harris-Foulkes estimate   =   -1842.87354678 Ry
     estimated scf accuracy    <          1.0E-09 Ry

     iteration # 36     ecut=    60.00 Ry     beta= 0.70
     Davidson diagonalization with overlap
     ethr =  4.55E-13,  avg # of iterations =  1.0

     negative rho (up, down):  1.490E-03 0.000E+00

     total cpu time spent up to now is      595.8 secs

     total energy              =   -1842.87354678 Ry
     Harris-Foulkes estimate   =   -1842.87354678 Ry
     estimated scf accuracy    <          7.4E-10 Ry

     iteration # 37     ecut=    60.00 Ry     beta= 0.70
     Davidson diagonalization with overlap
     ethr =  3.24E-13,  avg # of iterations =  1.0

     negative rho (up, down):  1.490E-03 0.000E+00

     total cpu time spent up to now is      609.4 secs

     total energy              =   -1842.87354678 Ry
     Harris-Foulkes estimate   =   -1842.87354678 Ry
     estimated scf accuracy    <          4.1E-10 Ry

     iteration # 38     ecut=    60.00 Ry     beta= 0.70
     Davidson diagonalization with overlap
     ethr =  1.80E-13,  avg # of iterations =  1.0

     negative rho (up, down):  1.490E-03 0.000E+00

     total cpu time spent up to now is      623.1 secs

     total energy              =   -1842.87354678 Ry
     Harris-Foulkes estimate   =   -1842.87354678 Ry
     estimated scf accuracy    <          1.1E-10 Ry

     iteration # 39     ecut=    60.00 Ry     beta= 0.70
     Davidson diagonalization with overlap
     ethr =  1.00E-13,  avg # of iterations =  1.0

     negative rho (up, down):  1.490E-03 0.000E+00

     total cpu time spent up to now is      636.2 secs

     End of self-consistent calculation

          k = 0.0000 0.0000 0.0000 ( 34019 PWs)   bands (ev):

   -35.6428 -35.4962 -22.7905 -22.7058 -22.6702 -22.4494 -17.1225 -17.0011
   -16.7068 -16.6878 -16.5471 -16.5359 -15.2133 -15.0578 -14.8928 -14.7033
   -14.5860 -14.5318 -14.4827 -14.1492 -14.0964 -13.9538 -13.8951 -13.7556
   -13.7298 -13.6508 -13.5625  -8.0105  -7.8371  -7.8060  -7.7997  -7.7903
    -7.7292  -7.6405  -7.6388  -7.6067  -7.5958  -7.4911  -7.3251  -2.4978
    -2.2787  -2.2447  -1.7906  -1.7566  -1.7439  -1.6716  -1.6474  -1.5808
    -1.4484  -1.4320  -1.3916  -1.2937  -1.1352  -1.1311  -1.1157  -0.9134
    -0.8896  -0.7368  -0.4879  -0.4696  -0.3736  -0.2917  -0.2510  -0.2244
    -0.1892  -0.1796  -0.1781  -0.1770  -0.1503  -0.1497  -0.1308  -0.1172
    -0.1066  -0.0600   0.0478   0.0631   0.1840   0.1843   0.2007   0.2092
     0.2449   0.2599   0.2968   0.3445   0.3928   0.4005   0.4078   0.4134
     0.4605   0.8123   0.8655   0.9670   0.9854   1.0385   1.1209   1.2704
     1.3884   1.4190   1.4346   1.4687   1.5270   1.5485   1.5946   1.6124
     1.6198   1.6350   1.7471   1.7892   1.9138   2.0076   2.1198   2.1669
     2.1721   2.2808   2.3583   2.3708   2.4178   2.6208   2.7050   5.3001
     5.3093   5.8171   6.2763   6.5249   6.8488   6.8818   7.0014   7.3901
     8.0598   8.1938   8.2775   8.4131   8.5647   8.6743   8.7205   9.1545
     9.2750

          k = 0.0000 0.1320 0.0000 ( 34015 PWs)   bands (ev):

   -35.6409 -35.4943 -22.7665 -22.6792 -22.6422 -22.4240 -17.1071 -16.9649
   -16.7584 -16.6855 -16.6085 -16.5448 -15.1246 -14.9960 -14.8391 -14.7189
   -14.5910 -14.4982 -14.4554 -14.1381 -14.1058 -13.9577 -13.9009 -13.8025
   -13.7764 -13.6858 -13.6168  -8.0029  -7.8367  -7.7564  -7.7518  -7.7481
    -7.7471  -7.6989  -7.6491  -7.6326  -7.6188  -7.4461  -7.3722  -2.5308
    -2.3165  -2.2976  -2.0999  -2.0786  -1.9868  -1.9667  -1.6963  -1.6221
    -1.5607  -1.5594  -1.5401  -1.4307  -1.3104  -1.2717  -1.2339  -1.1400
    -0.8399  -0.7868  -0.5860  -0.5753  -0.5414  -0.5077  -0.4710  -0.3761
    -0.3207  -0.3086  -0.2560  -0.2451  -0.1303  -0.0848  -0.0628  -0.0563
    -0.0498  -0.0259   0.0692   0.0751   0.0925   0.1912   0.2076   0.2197
     0.2466   0.2695   0.2987   0.3293   0.3528   0.3708   0.4359   0.4594
     0.6958   0.9197   1.0073   1.1236   1.1510   1.1641   1.2006   1.2096
     1.2318   1.2779   1.4043   1.4237   1.4979   1.5528   1.5924   1.6091
     1.6749   1.7037   1.7698   1.7807   1.9041   2.0021   2.0561   2.0922
     2.1434   2.1865   2.3164   2.5406   2.8887   2.9470   2.9894   5.6781
     5.6906   6.1421   6.5897   6.7436   7.1510   7.1639   7.3085   7.6537
     8.2347   8.3759   8.4909   8.6151   8.7720   8.7911   8.9501   9.3043
     9.3624

          k = 0.0000 0.2640 0.0000 ( 33931 PWs)   bands (ev):

   -35.6363 -35.4899 -22.7075 -22.6133 -22.5728 -22.3614 -17.0906 -16.8727
   -16.8498 -16.7629 -16.6798 -16.5391 -14.9292 -14.9252 -14.7015 -14.6936
   -14.6386 -14.4086 -14.3934 -14.0928 -14.0888 -14.0157 -13.9412 -13.9046
   -13.8850 -13.7753 -13.7147  -7.9871  -7.8362  -7.8144  -7.7857  -7.7393
    -7.6743  -7.6388  -7.6314  -7.6310  -7.6296  -7.4742  -7.3331  -2.7572
    -2.7220  -2.6688  -2.5984  -2.5255  -2.3436  -2.3322  -2.2331  -2.2234
    -2.1961  -1.7193  -1.5463  -1.5071  -1.3914  -1.3745  -1.3028  -1.2093
    -0.9665  -0.9275  -0.8983  -0.8876  -0.8451  -0.8222  -0.7222  -0.5666
    -0.5308  -0.4473  -0.4453  -0.4377  -0.4121  -0.3943  -0.3272  -0.2284
    -0.1485  -0.0774   0.0780   0.0945   0.0974   0.1245   0.1803   0.2528
     0.3044   0.3388   0.4048   0.4654   0.6015   0.7056   0.7840   0.7951
     0.8961   1.0102   1.0576   1.1310   1.1998   1.2097   1.2320   1.2494
     1.2852   1.2995   1.3647   1.3848   1.4524   1.5370   1.6574   1.6736
     1.7423   1.7614   1.8876   2.0062   2.0336   2.0405   2.0589   2.0757
     2.0855   2.1958   2.3166   2.6613   3.1169   3.1275   3.8855   6.5721
     6.5956   6.8288   7.3099   7.4013   7.9191   7.9736   8.1540   8.4210
     8.6699   8.7323   8.8287   8.9852   9.0503   9.1872   9.3073   9.3836
     9.4096

          k = 0.0000 0.3960 0.0000 ( 33860 PWs)   bands (ev):

   -35.6317 -35.4855 -22.6467 -22.5451 -22.5009 -22.2969 -17.1313 -16.8992
   -16.8700 -16.7710 -16.6741 -16.5335 -15.0222 -14.8491 -14.5939 -14.5317
   -14.5118 -14.3542 -14.3004 -14.1417 -14.0606 -14.0161 -14.0108 -14.0053
   -13.9622 -13.8966 -13.7818  -7.9804  -7.9064  -7.8362  -7.8175  -7.8061
    -7.7373  -7.6238  -7.5639  -7.5244  -7.5029  -7.4967  -7.2132  -3.4298
    -3.2032  -3.0559  -2.9784  -2.9671  -2.9102  -2.7192  -2.4445  -2.2871
    -2.2656  -2.0720  -1.7258  -1.6802  -1.4447  -1.4273  -1.2901  -1.1440
    -1.1387  -1.1341  -1.1228  -1.0882  -1.0478  -0.9906  -0.8228  -0.8145
    -0.7802  -0.7418  -0.6656  -0.6561  -0.6224  -0.5940  -0.5717  -0.2578
    -0.1993  -0.0939  -0.0821   0.1088   0.1145   0.1699   0.2109   0.2296
     0.2556   0.3300   0.4660   0.5807   0.8180   0.8688   0.8706   0.9016
     1.0113   1.0279   1.0414   1.0930   1.1007   1.1813   1.2015   1.2204
     1.2785   1.4622   1.6007   1.6572   1.7067   1.7147   1.7183   1.7885
     1.8206   1.8382   1.9878   2.0296   2.0300   2.0681   2.0876   2.2669
     2.3394   2.4529   2.4645   2.5831   2.9630   3.0213   4.5135   7.3956
     7.5198   7.5519   8.1213   8.3496   8.3854   8.7660   8.7888   8.9996
     9.0953   9.1212   9.1812   9.1819   9.2685   9.4965   9.5565   9.5986
     9.7912

          k = 0.0000-0.5279 0.0000 ( 33926 PWs)   bands (ev):

   -35.6298 -35.4837 -22.6210 -22.5161 -22.4703 -22.2695 -17.1633 -16.9514
   -16.8596 -16.7260 -16.6717 -16.5311 -15.0789 -14.8915 -14.4807 -14.4519
   -14.3970 -14.3529 -14.2702 -14.1598 -14.1112 -14.0385 -14.0276 -13.9868
   -13.9838 -13.9706 -13.8147  -7.9904  -7.9279  -7.8472  -7.8358  -7.7997
    -7.7759  -7.6160  -7.6033  -7.4750  -7.4470  -7.4381  -7.1613  -3.6930
    -3.3818  -3.2206  -3.1824  -3.1496  -3.1256  -2.8288  -2.4840  -2.3032
    -2.2731  -2.2039  -1.8561  -1.8231  -1.4132  -1.3559  -1.2574  -1.2564
    -1.2353  -1.1708  -1.1468  -1.1199  -1.1147  -1.0558  -0.9873  -0.9027
    -0.8583  -0.8171  -0.7522  -0.7343  -0.7161  -0.6993  -0.6468  -0.2326
    -0.1848  -0.1693  -0.0819   0.1140   0.1202   0.1766   0.2093   0.2480
     0.2603   0.3243   0.4216   0.5089   0.7647   0.8554   0.8894   0.9015
     0.9432   1.0384   1.0846   1.1217   1.1991   1.2034   1.2108   1.2662
     1.4101   1.4697   1.5857   1.6846   1.7108   1.8127   1.8256   1.8277
     1.9575   2.0877   2.0882   2.0998   2.1075   2.1323   2.1560   2.2141
     2.2695   2.5415   2.6145   2.6258   2.7604   2.8442   4.7176   7.6696
     7.9319   7.9401   8.2693   8.6174   8.9301   9.0182   9.0479   9.0973
     9.1091   9.2173   9.3715   9.4073   9.4488   9.4944   9.7309   9.9328
    10.0442

          k = 0.1250 0.0000 0.0000 ( 34005 PWs)   bands (ev):

   -35.6417 -35.4951 -22.7740 -22.6878 -22.6518 -22.4322 -17.1060 -16.9676
   -16.7524 -16.7054 -16.6274 -16.5345 -15.1113 -14.9780 -14.9173 -14.7446
   -14.6314 -14.5161 -14.4875 -14.1508 -14.1053 -13.9500 -13.9073 -13.8030
   -13.7495 -13.6858 -13.5965  -8.0563  -7.8629  -7.8133  -7.7425  -7.7375
    -7.6842  -7.6552  -7.6110  -7.5743  -7.5625  -7.4315  -7.2947  -2.5282
    -2.3015  -2.2864  -1.8611  -1.7862  -1.7719  -1.7314  -1.7212  -1.7210
    -1.6432  -1.6069  -1.3980  -1.3624  -1.1591  -1.1332  -1.1138  -0.9556
    -0.9388  -0.7775  -0.6758  -0.5475  -0.4641  -0.4292  -0.3820  -0.3064
    -0.2874  -0.2597  -0.2539  -0.2463  -0.1839  -0.1832  -0.1681  -0.1198
    -0.1148  -0.0661  -0.0154   0.0393   0.1767   0.1941   0.2065   0.2402
     0.2798   0.2919   0.3159   0.3440   0.4686   0.4802   0.5105   0.5513
     0.5578   0.8762   0.9129   0.9238   0.9596   1.0678   1.1506   1.2125
     1.2728   1.2918   1.4206   1.4510   1.5224   1.5298   1.5709   1.6018
     1.6056   1.6324   1.9252   1.9707   2.0531   2.0682   2.1039   2.1689
     2.2576   2.2817   2.2982   2.3763   2.4084   2.6557   2.7332   5.4819
     5.4921   6.0291   6.5078   6.6883   7.0639   7.0918   7.1860   7.5853
     8.2114   8.3372   8.5001   8.5982   8.7433   8.8834   8.9944   9.2398
     9.4119

          k = 0.1250 0.1320 0.0000 ( 33966 PWs)   bands (ev):

   -35.6398 -35.4933 -22.7507 -22.6619 -22.6246 -22.4076 -17.0922 -16.9325
   -16.7645 -16.7398 -16.6305 -16.5977 -15.0300 -14.9304 -14.8617 -14.7362
   -14.6255 -14.4824 -14.4576 -14.1355 -14.1062 -13.9509 -13.9135 -13.8363
   -13.7911 -13.7187 -13.6426  -8.0374  -7.8822  -7.8742  -7.8487  -7.8000
    -7.7068  -7.6599  -7.5663  -7.5365  -7.5232  -7.5218  -7.2534  -2.5570
    -2.3465  -2.3231  -2.1029  -2.0656  -1.9667  -1.9470  -1.8184  -1.7653
    -1.7123  -1.6873  -1.5811  -1.5535  -1.5301  -1.3302  -1.2313  -1.1594
    -0.9187  -0.8412  -0.7695  -0.6876  -0.5916  -0.5466  -0.5118  -0.4932
    -0.4518  -0.4501  -0.4176  -0.2468  -0.1796  -0.1226  -0.1213  -0.0668
    -0.0526  -0.0190   0.0014   0.0640   0.0964   0.2332   0.2440   0.2524
     0.2779   0.3097   0.3200   0.3447   0.3680   0.3873   0.6024   0.6519
     0.6962   0.9966   1.0977   1.1227   1.1584   1.1954   1.2293   1.2649
     1.2863   1.3067   1.3598   1.3707   1.4087   1.4296   1.5284   1.6169
     1.6767   1.6948   1.7450   1.7579   1.8919   1.9029   2.1555   2.2588
     2.4257   2.4568   2.6327   2.6593   2.8998   2.9528   3.0027   5.8206
     5.8348   6.2949   6.7698   6.8658   7.3590   7.3696   7.4865   7.8470
     8.3816   8.5053   8.6587   8.7607   8.8975   8.9563   9.1490   9.3120
     9.3529

          k = 0.1250 0.2640 0.0000 ( 33895 PWs)   bands (ev):

   -35.6352 -35.4889 -22.6934 -22.5981 -22.5575 -22.3468 -17.0801 -16.8512
   -16.8432 -16.7599 -16.7322 -16.6100 -14.9122 -14.8566 -14.7104 -14.6393
   -14.6247 -14.3926 -14.3878 -14.0883 -14.0833 -14.0026 -13.9624 -13.9044
   -13.8827 -13.8000 -13.7269  -7.9998  -7.9928  -7.9512  -7.9446  -7.8370
    -7.7492  -7.6659  -7.6442  -7.5496  -7.5271  -7.5058  -7.2477  -2.7751
    -2.7267  -2.6844  -2.6183  -2.5377  -2.3441  -2.3181  -2.2368  -2.2196
    -2.1954  -1.7942  -1.7175  -1.7005  -1.6093  -1.5238  -1.4030  -1.3611
    -1.0378  -0.9520  -0.9027  -0.8793  -0.8581  -0.8318  -0.8145  -0.7928
    -0.7561  -0.6287  -0.6090  -0.4903  -0.4533  -0.4174  -0.2462  -0.2220
    -0.2060  -0.0856  -0.0283  -0.0159   0.0296   0.0734   0.2707   0.3034
     0.3767   0.4848   0.5243   0.5872   0.7525   0.8034   0.8299   0.8714
     0.8866   1.1028   1.1410   1.1480   1.1892   1.2547   1.3437   1.3839
     1.3953   1.4304   1.4441   1.4790   1.4958   1.5464   1.5758   1.6344
     1.6926   1.7202   1.7545   1.8331   2.0229   2.0370   2.1449   2.3242
     2.6243   2.6559   2.7585   2.8796   3.1183   3.1390   3.8898   6.6330
     6.6578   6.8089   7.3842   7.4792   8.0998   8.1382   8.3314   8.5351
     8.7100   8.8512   8.9021   8.9452   9.0276   9.1223   9.2364   9.3184
     9.4186

          k = 0.1250 0.3960 0.0000 ( 33906 PWs)   bands (ev):

   -35.6306 -35.4845 -22.6345 -22.5321 -22.4879 -22.2842 -17.1247 -16.8941
   -16.8739 -16.7445 -16.7186 -16.6015 -14.9895 -14.8143 -14.5268 -14.5142
   -14.4433 -14.3337 -14.2823 -14.1216 -14.0561 -14.0380 -14.0090 -13.9947
   -13.9652 -13.9003 -13.7764  -8.0864  -7.9817  -7.9547  -7.9389  -7.8485
    -7.7918  -7.7204  -7.6662  -7.5723  -7.5645  -7.5592  -7.2878  -3.4181
    -3.2442  -3.1032  -2.9965  -2.9796  -2.9019  -2.7391  -2.4407  -2.2953
    -2.2776  -2.0125  -1.7068  -1.6540  -1.6249  -1.5676  -1.5058  -1.3694
    -1.2632  -1.2245  -1.2001  -1.1062  -1.1034  -1.0434  -1.0085  -0.9735
    -0.8275  -0.7966  -0.7831  -0.7548  -0.7078  -0.6695  -0.5600  -0.2906
    -0.2434  -0.1334  -0.0655  -0.0229   0.0674   0.1844   0.2864   0.3052
     0.4231   0.5277   0.6429   0.6992   0.7615   0.9482   0.9862   1.0482
     1.0714   1.1205   1.1514   1.1775   1.2507   1.2669   1.2927   1.3153
     1.3745   1.5624   1.6321   1.6905   1.7394   1.7655   1.8071   1.8444
     1.8905   1.9569   1.9827   2.0383   2.0635   2.4199   2.4325   2.4450
     2.5395   2.5747   2.7282   2.8097   2.9707   3.0824   4.4998   7.1146
     7.3843   7.4176   8.0545   8.2207   8.4015   8.7477   8.7755   8.8005
     9.0144   9.1366   9.2584   9.3871   9.4598   9.6289   9.6543   9.7598
     9.9118

          k = 0.1250-0.5279 0.0000 ( 33848 PWs)   bands (ev):

   -35.6287 -35.4826 -22.6096 -22.5042 -22.4584 -22.2577 -17.1576 -16.9457
   -16.8665 -16.7119 -16.7010 -16.5977 -15.0340 -14.8469 -14.4114 -14.4086
   -14.3260 -14.3175 -14.2676 -14.1441 -14.0887 -14.0702 -14.0469 -13.9880
   -13.9735 -13.9653 -13.7985  -8.1090  -7.9763  -7.9406  -7.9065  -7.8534
    -7.8115  -7.7275  -7.6875  -7.6086  -7.6065  -7.5686  -7.3135  -3.6834
    -3.4303  -3.2737  -3.1784  -3.1739  -3.1298  -2.8680  -2.4808  -2.3164
    -2.2922  -2.1017  -1.7370  -1.6885  -1.5259  -1.4687  -1.4649  -1.4271
    -1.3729  -1.3342  -1.3161  -1.2726  -1.2142  -1.1267  -1.0578  -1.0508
    -0.9517  -0.8633  -0.8607  -0.8022  -0.7672  -0.7650  -0.6860  -0.2895
    -0.2255  -0.1454  -0.0806  -0.0237   0.0932   0.2283   0.2976   0.3121
     0.4384   0.5308   0.6450   0.7222   0.7313   0.9247   0.9724   1.0181
     1.0406   1.0775   1.1138   1.1814   1.2452   1.2921   1.3512   1.4417
     1.4584   1.5780   1.6385   1.8558   1.8668   1.8794   1.9448   2.0938
     2.1089   2.1217   2.1268   2.1293   2.2113   2.3786   2.4318   2.5279
     2.5854   2.5980   2.6181   2.6512   2.7879   2.9617   4.6953   7.1922
     7.6060   7.6299   8.2635   8.3822   8.4069   8.9266   9.1194   9.2329
     9.2501   9.3898   9.4416   9.5660   9.6366   9.8038   9.8172   9.9644
    10.1313

          k = 0.2500 0.0000 0.0000 ( 34032 PWs)   bands (ev):

   -35.6389 -35.4924 -22.7335 -22.6435 -22.6066 -22.3901 -17.0869 -16.8823
   -16.8659 -16.7917 -16.7020 -16.5312 -14.9893 -14.9412 -14.9147 -14.7116
   -14.6907 -14.5117 -14.4779 -14.1508 -14.1194 -13.9672 -13.9511 -13.9052
   -13.7915 -13.7771 -13.6584  -8.1070  -7.8643  -7.7894  -7.6917  -7.6512
    -7.6376  -7.6189  -7.5379  -7.4935  -7.4796  -7.3462  -7.2193  -2.6279
    -2.4814  -2.4119  -2.2702  -2.1245  -2.1082  -2.0915  -1.7225  -1.6592
    -1.6532  -1.5547  -1.4327  -1.3836  -1.2359  -1.1298  -1.1213  -1.1112
    -1.0066  -0.9822  -0.9089  -0.8169  -0.6842  -0.6345  -0.6194  -0.6004
    -0.5451  -0.4631  -0.4604  -0.4457  -0.2722  -0.2289  -0.1992  -0.1948
    -0.1652  -0.1397  -0.0998  -0.0301   0.1640   0.1809   0.2546   0.2740
     0.3011   0.3695   0.4087   0.5468   0.5473   0.6313   0.6364   0.7121
     0.7207   0.7461   0.9335   1.0047   1.0495   1.0802   1.0986   1.1334
     1.3576   1.3650   1.3931   1.4687   1.5003   1.5426   1.5540   1.5844
     1.6551   1.6824   1.8828   1.9429   1.9843   2.1101   2.1442   2.1877
     2.2722   2.3140   2.4494   2.5636   2.5781   2.7638   2.8266   5.9394
     5.9532   6.4799   7.1058   7.1490   7.6366   7.6610   7.7186   8.1169
     8.5796   8.6461   8.8355   9.0121   9.1257   9.2881   9.3916   9.5866
     9.6085

          k = 0.2500 0.1320 0.0000 ( 33975 PWs)   bands (ev):

   -35.6370 -35.4906 -22.7119 -22.6196 -22.5816 -22.3673 -17.0763 -16.8683
   -16.8501 -16.7853 -16.7411 -16.5974 -14.9272 -14.9250 -14.8648 -14.6623
   -14.6287 -14.4763 -14.4428 -14.1286 -14.1053 -13.9569 -13.9477 -13.9173
   -13.8240 -13.8028 -13.6868  -8.1044  -7.9330  -7.9303  -7.8567  -7.7879
    -7.6992  -7.6834  -7.5420  -7.4872  -7.4599  -7.4471  -7.1846  -2.6555
    -2.5320  -2.4553  -2.3093  -2.1184  -2.1057  -2.0906  -2.0054  -1.9966
    -1.8973  -1.8654  -1.7360  -1.5440  -1.5268  -1.3917  -1.3254  -1.2748
    -1.0872  -0.9590  -0.9253  -0.8875  -0.8740  -0.8032  -0.7922  -0.7093
    -0.5875  -0.5429  -0.5222  -0.4525  -0.3893  -0.2558  -0.2243  -0.1304
    -0.1122  -0.0539   0.0532   0.0685   0.1140   0.2296   0.2431   0.2905
     0.3274   0.3820   0.4152   0.4162   0.5492   0.6160   0.6985   0.8622
     0.9727   1.0072   1.0224   1.0716   1.1502   1.1847   1.2429   1.2837
     1.3386   1.3673   1.4618   1.4649   1.4811   1.5245   1.5627   1.5769
     1.6207   1.7319   1.7502   1.8028   1.8196   1.9475   2.1438   2.3505
     2.7522   2.8015   2.9463   2.9636   2.9701   3.0587   3.0679   6.2006
     6.2173   6.5843   7.2307   7.2864   7.8964   7.9114   7.9845   8.3567
     8.6969   8.7607   8.9293   8.9829   9.1441   9.1732   9.2882   9.3468
     9.5083

          k = 0.2500 0.2640 0.0000 ( 33963 PWs)   bands (ev):

   -35.6324 -35.4863 -22.6589 -22.5609 -22.5199 -22.3110 -17.0658 -16.9170
   -16.7850 -16.7673 -16.7620 -16.7339 -14.9072 -14.7765 -14.7503 -14.5229
   -14.4693 -14.3878 -14.3515 -14.0799 -14.0721 -14.0033 -13.9783 -13.9221
   -13.8721 -13.8548 -13.7497  -8.2001  -8.1532  -8.1512  -8.0217  -7.8523
    -7.8495  -7.7607  -7.6744  -7.5879  -7.5796  -7.5559  -7.3063  -2.9090
    -2.8540  -2.7463  -2.6685  -2.6216  -2.3575  -2.3028  -2.2472  -2.2276
    -2.2116  -2.1443  -2.0872  -2.0472  -2.0325  -1.6652  -1.3751  -1.3648
    -1.3376  -1.3068  -1.1961  -1.1395  -1.0416  -0.9625  -0.8328  -0.8036
    -0.7632  -0.6629  -0.6484  -0.5571  -0.5151  -0.5092  -0.4380  -0.3024
    -0.2856  -0.2680  -0.1644   0.0205   0.1016   0.1312   0.4047   0.4405
     0.5343   0.6556   0.6986   0.7968   0.8784   0.8896   0.9304   1.0442
     1.0722   1.1954   1.2417   1.3138   1.3496   1.3751   1.4665   1.4782
     1.5180   1.5446   1.5814   1.5954   1.6317   1.6584   1.7006   1.7158
     1.7390   1.7539   1.7784   1.8549   1.9423   1.9646   2.2447   2.4158
     3.0716   3.0852   3.3440   3.3580   3.4526   3.5151   3.9026   6.6184
     6.7432   6.7723   7.5950   7.6789   8.4294   8.4423   8.5598   8.7150
     8.7855   8.8470   9.0768   9.1372   9.2174   9.4092   9.4577   9.4884
     9.5746

          k = 0.2500 0.3960 0.0000 ( 33940 PWs)   bands (ev):

   -35.6279 -35.4819 -22.6046 -22.5005 -22.4562 -22.2533 -17.1097 -16.9502
   -16.8820 -16.7495 -16.7425 -16.6759 -14.9094 -14.7332 -14.5146 -14.3555
   -14.2888 -14.2772 -14.2423 -14.1261 -14.0744 -14.0190 -14.0107 -13.9795
   -13.9483 -13.8883 -13.7687  -8.3509  -8.2732  -8.2385  -8.0348  -7.9684
    -7.9000  -7.8638  -7.8489  -7.7936  -7.7597  -7.6383  -7.5179  -3.4195
    -3.3811  -3.2760  -3.1135  -3.0351  -2.8812  -2.8060  -2.4281  -2.3669
    -2.3194  -2.1303  -2.0530  -1.9977  -1.9807  -1.8555  -1.7024  -1.6437
    -1.5031  -1.4636  -1.3690  -1.2841  -1.2278  -1.0781  -0.9783  -0.9091
    -0.8081  -0.7745  -0.7390  -0.7306  -0.7164  -0.6896  -0.5673  -0.4873
    -0.4496  -0.3371  -0.3130   0.1058   0.2255   0.2671   0.4511   0.5044
     0.6884   0.7685   0.9243   0.9676   1.0628   1.0728   1.0940   1.2210
     1.3300   1.3562   1.3749   1.4102   1.4500   1.4942   1.5626   1.5938
     1.6100   1.6991   1.7210   1.7820   1.8129   1.8477   1.8656   1.9336
     1.9662   2.0114   2.0414   2.0839   2.1669   2.3416   2.3590   2.4876
     2.9033   2.9076   3.4663   3.5887   3.6516   3.7503   4.4620   6.4412
     6.9510   6.9936   7.7682   7.8436   8.6071   8.7618   8.8823   8.9083
     9.1306   9.1779   9.4436   9.5836   9.7680   9.8423   9.8843   9.9601
     9.9883

          k = 0.2500-0.5279 0.0000 ( 33964 PWs)   bands (ev):

   -35.6260 -35.4801 -22.5816 -22.4750 -22.4293 -22.2289 -17.1441 -16.9492
   -16.9322 -16.7440 -16.7277 -16.6362 -14.9176 -14.7300 -14.3075 -14.2789
   -14.2734 -14.2358 -14.1575 -14.1313 -14.1116 -14.1046 -14.0237 -13.9826
   -13.9701 -13.9227 -13.7652  -8.3873  -8.2734  -8.2044  -8.0164  -7.9937
    -7.9925  -7.9882  -7.9715  -7.8597  -7.8243  -7.6525  -7.6206  -3.6704
    -3.5967  -3.4621  -3.3057  -3.1937  -3.1089  -2.9895  -2.4653  -2.3744
    -2.3373  -2.0726  -2.0161  -1.9910  -1.9420  -1.9282  -1.8561  -1.7706
    -1.6030  -1.5786  -1.4074  -1.3159  -1.2462  -1.1610  -1.0400  -0.9612
    -0.8677  -0.8509  -0.7906  -0.7800  -0.7319  -0.6956  -0.6854  -0.4983
    -0.4634  -0.3635  -0.3487   0.1145   0.2821   0.3281   0.4762   0.5525
     0.7443   0.8637   1.0013   1.0079   1.1207   1.1635   1.1654   1.1763
     1.2797   1.3163   1.3748   1.4491   1.4539   1.5434   1.5530   1.5918
     1.6924   1.8082   1.8310   1.9230   1.9717   2.0000   2.0518   2.0792
     2.1233   2.1260   2.1634   2.2027   2.2380   2.5164   2.5180   2.5351
     2.6801   2.6846   3.4437   3.6094   3.6810   3.7845   4.6306   6.3322
     6.9158   6.9611   7.7369   7.8170   8.6383   8.8392   9.2020   9.2811
     9.3853   9.5575   9.6041   9.7691   9.8243   9.8963   9.9390  10.0144
    10.1659

          k = 0.3750 0.0000 0.0000 ( 33964 PWs)   bands (ev):

   -35.6361 -35.4898 -22.6922 -22.5980 -22.5602 -22.3470 -17.1347 -16.9314
   -16.8899 -16.7871 -16.6986 -16.5279 -15.0738 -15.0639 -14.9589 -14.5686
   -14.5173 -14.4642 -14.4165 -14.1478 -14.1323 -14.0821 -14.0145 -13.9679
   -13.8902 -13.8284 -13.6998  -8.1184  -7.8468  -7.7329  -7.6577  -7.6149
    -7.5886  -7.5864  -7.4619  -7.4091  -7.3929  -7.2972  -7.1408  -2.8173
    -2.8079  -2.7161  -2.6201  -2.3802  -2.2470  -2.2011  -1.6583  -1.5767
    -1.5758  -1.5327  -1.4967  -1.4110  -1.3251  -1.2803  -1.1315  -1.1244
    -1.1146  -1.0847  -1.0675  -0.9480  -0.9329  -0.8935  -0.8037  -0.8016
    -0.7898  -0.6743  -0.6459  -0.6349  -0.3580  -0.3366  -0.3224  -0.2119
    -0.1759  -0.1451  -0.1347  -0.0481   0.1512   0.1681   0.1689   0.2600
     0.3095   0.4031   0.4878   0.5124   0.5509   0.5557   0.6197   0.7002
     0.8141   0.8369   0.8698   1.0088   1.0336   1.1918   1.2687   1.2866
     1.3162   1.4025   1.4336   1.5725   1.5842   1.6172   1.6421   1.7143
     1.7827   1.8246   1.8315   1.8843   1.9065   2.0123   2.1359   2.1888
     2.2579   2.3856   2.5246   2.6558   2.6865   2.8891   2.9329   6.5891
     6.6021   6.8230   7.7771   7.8612   8.0842   8.1041   8.3394   8.5662
     8.7096   8.7902   9.1906   9.3571   9.4217   9.5390   9.5813   9.5848
     9.6084

          k = 0.3750 0.1320 0.0000 ( 33991 PWs)   bands (ev):

   -35.6342 -35.4880 -22.6724 -22.5763 -22.5374 -22.3260 -17.1254 -16.9228
   -16.8995 -16.7579 -16.7285 -16.5924 -15.0249 -14.9999 -14.9113 -14.5280
   -14.4570 -14.4228 -14.3688 -14.1202 -14.1033 -14.0538 -13.9929 -13.9576
   -13.9111 -13.8626 -13.7117  -8.1184  -7.9044  -7.8762  -7.8071  -7.7496
    -7.6808  -7.6774  -7.5629  -7.4989  -7.4755  -7.4734  -7.2325  -2.8719
    -2.8687  -2.7727  -2.6644  -2.3760  -2.2458  -2.2073  -1.9662  -1.9576
    -1.8216  -1.7834  -1.7404  -1.5324  -1.5161  -1.4490  -1.4339  -1.3766
    -1.2313  -1.2218  -1.1431  -1.1030  -1.0591  -0.9754  -0.8707  -0.8169
    -0.7212  -0.6601  -0.6150  -0.5713  -0.5091  -0.3348  -0.2992  -0.1843
    -0.1666  -0.0563   0.0273   0.1196   0.1601   0.2050   0.2516   0.2845
     0.3540   0.3837   0.5012   0.5263   0.5447   0.6474   0.7530   0.8552
     0.8789   0.9297   1.0474   1.1690   1.1962   1.2415   1.3169   1.3581
     1.3766   1.4438   1.4534   1.4685   1.6239   1.6319   1.6752   1.7080
     1.7562   1.7962   1.8679   1.8806   1.9030   1.9985   2.0022   2.3338
     2.8300   2.9079   3.0051   3.0358   3.0986   3.2366   3.2783   6.7144
     6.7387   6.7558   7.8050   7.9081   8.1497   8.1714   8.4191   8.5851
     8.8504   8.9660   9.0502   9.3082   9.3306   9.4905   9.5908   9.6682
     9.7302

          k = 0.3750 0.2640 0.0000 ( 33991 PWs)   bands (ev):

   -35.6297 -35.4837 -22.6238 -22.5230 -22.4815 -22.2746 -17.1043 -16.9728
   -16.9025 -16.7402 -16.7368 -16.6828 -14.9269 -14.7990 -14.7882 -14.4321
   -14.3286 -14.3057 -14.2446 -14.0623 -14.0587 -14.0294 -13.9825 -13.9442
   -13.9198 -13.8983 -13.7539  -8.2543  -8.2059  -8.2038  -8.0513  -7.9108
    -7.8844  -7.8531  -7.8303  -7.7621  -7.6822  -7.6337  -7.5037  -3.1841
    -3.1350  -2.9879  -2.9032  -2.6348  -2.4170  -2.3972  -2.3241  -2.2973
    -2.2624  -2.2049  -2.1991  -2.1849  -2.1664  -1.7000  -1.6934  -1.6307
    -1.4866  -1.4089  -1.1987  -1.1702  -1.0320  -0.9258  -0.8472  -0.8340
    -0.7974  -0.7378  -0.7059  -0.6163  -0.6056  -0.5638  -0.5533  -0.3950
    -0.3218  -0.2900  -0.1883   0.0237   0.1528   0.2758   0.5117   0.5427
     0.6196   0.7412   0.7893   0.9010   0.9145   1.0865   1.0929   1.0995
     1.1950   1.2509   1.3074   1.3191   1.4604   1.4854   1.5045   1.5576
     1.6291   1.6605   1.7195   1.7284   1.7565   1.7700   1.8080   1.8266
     1.8343   1.8592   1.8951   1.9175   1.9391   2.0904   2.2268   2.3461
     3.0691   3.0742   3.7932   3.8072   3.8740   3.9064   3.9759   6.3195
     6.7837   6.8204   7.6673   7.7323   8.4889   8.4982   8.5949   8.9172
     9.0319   9.2143   9.4208   9.4952   9.5518   9.6340   9.6581   9.8763
     9.9014

          k = 0.3750 0.3960 0.0000 ( 33993 PWs)   bands (ev):

   -35.6252 -35.4794 -22.5742 -22.4684 -22.4241 -22.2219 -17.0995 -17.0597
   -16.8852 -16.8636 -16.7108 -16.6029 -14.8269 -14.6555 -14.5163 -14.3411
   -14.2253 -14.1479 -14.1399 -14.1067 -14.0648 -13.9959 -13.9905 -13.9722
   -13.8941 -13.8858 -13.7753  -8.5471  -8.4717  -8.4334  -8.2164  -8.1498
    -8.1371  -8.1315  -8.0274  -7.8868  -7.8096  -7.7976  -7.6573  -3.6632
    -3.5747  -3.3797  -3.3063  -3.2580  -2.8606  -2.8372  -2.5472  -2.4394
    -2.4127  -2.3831  -2.2787  -2.2069  -2.1944  -2.0088  -1.9879  -1.7930
    -1.6756  -1.6222  -1.2270  -1.1332  -1.1257  -1.1192  -0.9510  -0.8756
    -0.8509  -0.8133  -0.7818  -0.7612  -0.7224  -0.6930  -0.6754  -0.5979
    -0.5899  -0.3116  -0.3053   0.2182   0.3221   0.3494   0.6311   0.7106
     0.8879   1.0122   1.1474   1.1679   1.2276   1.2425   1.3349   1.4369
     1.4393   1.4881   1.5673   1.5685   1.5921   1.6298   1.6680   1.7616
     1.7975   1.8456   1.8654   1.9020   1.9201   1.9747   2.0048   2.0217
     2.0472   2.0910   2.1740   2.2501   2.2546   2.2634   2.3907   2.5292
     2.8749   2.8953   4.1650   4.3046   4.3359   4.4001   4.4669   5.8586
     6.4805   6.5265   7.4193   7.4738   8.8197   8.8956   8.9798   9.0689
     9.2428   9.3951   9.5075   9.5621   9.6014   9.6843   9.7211   9.7900
     9.8851

          k = 0.3750-0.5279 0.0000 ( 34004 PWs)   bands (ev):

   -35.6233 -35.4776 -22.5533 -22.4453 -22.3998 -22.1996 -17.1307 -17.0638
   -16.9188 -16.8726 -16.6946 -16.5675 -14.7856 -14.5943 -14.3112 -14.2763
   -14.2028 -14.1699 -14.1603 -14.0921 -14.0541 -14.0097 -13.9745 -13.9619
   -13.9245 -13.8849 -13.7520  -8.6571  -8.5537  -8.4821  -8.3137  -8.2933
    -8.2820  -8.2761  -8.0444  -7.9133  -7.9016  -7.8543  -7.6705  -3.8703
    -3.7736  -3.6288  -3.5155  -3.3866  -3.0858  -3.0568  -2.5658  -2.4601
    -2.4433  -2.3939  -2.2774  -2.2055  -2.1884  -2.1167  -2.0920  -1.8632
    -1.7312  -1.6851  -1.2935  -1.2290  -1.1822  -1.1535  -0.9929  -0.8793
    -0.8737  -0.8677  -0.8654  -0.8252  -0.7886  -0.7064  -0.7050  -0.6615
    -0.5966  -0.3140  -0.2974   0.2541   0.3769   0.3960   0.6936   0.8210
     1.0167   1.1306   1.1597   1.3067   1.3317   1.3537   1.3892   1.4149
     1.4394   1.5666   1.6302   1.6324   1.6738   1.7589   1.7645   1.8465
     1.8889   1.9092   1.9457   2.0066   2.0459   2.0999   2.1300   2.1354
     2.1671   2.2319   2.3513   2.3733   2.4348   2.4539   2.5485   2.5817
     2.6224   2.6534   4.2454   4.4185   4.4747   4.5480   4.6200   5.6628
     6.3028   6.3487   7.3192   7.3984   8.7663   8.8817   9.0397   9.2197
     9.3050   9.4583   9.5001   9.5126   9.6520   9.6938   9.8708   9.9617
    10.1243

          k =-0.5000 0.0000 0.0000 ( 33930 PWs)   bands (ev):

   -35.6349 -35.4887 -22.6748 -22.5789 -22.5406 -22.3288 -17.1713 -16.9839
   -16.8778 -16.7449 -16.6972 -16.5265 -15.1226 -15.1111 -15.0144 -14.5903
   -14.4404 -14.3153 -14.2340 -14.2199 -14.1572 -14.1248 -14.1122 -14.0205
   -13.9318 -13.8402 -13.7130  -8.1151  -7.8365  -7.6952  -7.6405  -7.6123
    -7.5910  -7.5632  -7.4295  -7.3730  -7.3557  -7.2837  -7.1073  -2.9499
    -2.9297  -2.8546  -2.7631  -2.4457  -2.2720  -2.1969  -1.6635  -1.6237
    -1.5684  -1.5274  -1.4481  -1.3649  -1.3238  -1.2848  -1.2115  -1.1354
    -1.1255  -1.1196  -1.1188  -1.0898  -1.0378  -0.9641  -0.9036  -0.8854
    -0.8117  -0.7592  -0.7294  -0.7144  -0.4215  -0.3837  -0.3401  -0.2162
    -0.1880  -0.1306  -0.1281  -0.1101   0.1459   0.1628   0.1644   0.2192
     0.2875   0.4099   0.4874   0.5073   0.5124   0.5411   0.6057   0.7131
     0.7912   0.8459   0.9152   0.9746   1.0236   1.2184   1.2416   1.2607
     1.4493   1.4874   1.5668   1.5916   1.6052   1.6752   1.6784   1.6905
     1.7381   1.8452   1.9084   1.9587   1.9876   2.0237   2.0500   2.2064
     2.2637   2.3915   2.5324   2.6609   2.7041   2.9250   2.9541   6.9411
     7.3616   7.3768   7.4139   7.4219   8.2650   8.3603   8.4464   8.6379
     9.0171   9.1356   9.1721   9.4119   9.5121   9.5464   9.5875   9.7451
     9.8546

          k =-0.5000 0.1320 0.0000 ( 33986 PWs)   bands (ev):

   -35.6330 -35.4869 -22.6558 -22.5581 -22.5188 -22.3087 -17.1623 -16.9746
   -16.8922 -16.7219 -16.7173 -16.5903 -15.0710 -15.0345 -14.9576 -14.5492
   -14.4034 -14.2734 -14.1828 -14.1763 -14.1133 -14.1012 -14.0904 -13.9928
   -13.9500 -13.8775 -13.7183  -8.1107  -7.8755  -7.7824  -7.7285  -7.7225
    -7.6927  -7.6685  -7.6483  -7.5760  -7.5140  -7.4038  -7.3205  -3.0178
    -2.9971  -2.9162  -2.8153  -2.4412  -2.2770  -2.2208  -1.9382  -1.9247
    -1.7806  -1.7476  -1.7132  -1.5271  -1.5086  -1.4888  -1.4520  -1.4272
    -1.3428  -1.3226  -1.2274  -1.1885  -1.1241  -1.0021  -0.8900  -0.8873
    -0.7852  -0.6685  -0.6570  -0.6085  -0.5257  -0.3717  -0.3332  -0.2083
    -0.1872  -0.0609   0.0140   0.1320   0.1796   0.1942   0.2653   0.3434
     0.3452   0.3644   0.4268   0.5988   0.6293   0.6328   0.6813   0.7761
     0.8535   0.9502   1.0301   1.1469   1.1920   1.2515   1.3641   1.3643
     1.3692   1.4314   1.5078   1.6050   1.6604   1.6770   1.7175   1.7490
     1.8015   1.8476   1.8703   1.9622   1.9671   2.0143   2.0557   2.3130
     2.8359   2.9112   3.0182   3.0601   3.1270   3.2872   3.3284   6.7296
     7.2093   7.2342   7.7167   7.7173   8.1595   8.2686   8.4109   8.5684
     9.0948   9.2356   9.3781   9.4722   9.5507   9.5770   9.6524   9.8194
     9.8259

          k =-0.5000 0.2640 0.0000 ( 33976 PWs)   bands (ev):

   -35.6285 -35.4826 -22.6091 -22.5071 -22.4654 -22.2593 -17.1408 -16.9750
   -16.9526 -16.7335 -16.7245 -16.6463 -14.9395 -14.8224 -14.8044 -14.4514
   -14.3143 -14.1664 -14.0904 -14.0803 -14.0454 -14.0401 -14.0372 -13.9777
   -13.9430 -13.9335 -13.7488  -8.2025  -8.1447  -8.1195  -8.0483  -8.0284
    -8.0047  -7.9938  -7.8613  -7.8254  -7.7030  -7.6781  -7.6122  -3.3223
    -3.2748  -3.1255  -3.0478  -2.6292  -2.4482  -2.4422  -2.3515  -2.3092
    -2.2795  -2.2049  -2.2022  -2.1789  -2.1740  -1.8231  -1.7926  -1.6518
    -1.5878  -1.5054  -1.1161  -1.0811  -0.9955  -0.9253  -0.8844  -0.8629
    -0.8262  -0.7456  -0.7333  -0.6562  -0.6237  -0.5897  -0.5792  -0.3954
    -0.3104  -0.2707  -0.2541   0.0257   0.1695   0.3399   0.5580   0.5820
     0.6434   0.8142   0.8226   0.9376   0.9473   1.1301   1.1413   1.1752
     1.2025   1.2622   1.2735   1.3088   1.4533   1.4939   1.5597   1.6169
     1.6383   1.6425   1.7571   1.7697   1.7842   1.8222   1.8486   1.8904
     1.9158   1.9283   1.9588   2.0017   2.0554   2.0859   2.2223   2.2753
     3.0590   3.0673   3.8780   3.9480   3.9597   4.0360   4.0923   6.1821
     6.7794   6.8207   7.5989   7.6668   8.4980   8.5276   8.7609   9.1070
     9.1103   9.3978   9.4174   9.6449   9.6766   9.6881   9.8881   9.9208
     9.9523

          k =-0.5000 0.3960 0.0000 ( 33992 PWs)   bands (ev):

   -35.6240 -35.4783 -22.5615 -22.4549 -22.4106 -22.2087 -17.1196 -17.0809
   -16.9310 -16.8627 -16.6933 -16.5706 -14.7921 -14.6264 -14.5199 -14.3661
   -14.2290 -14.1340 -14.0721 -14.0507 -14.0022 -13.9927 -13.9875 -13.9479
   -13.9128 -13.8838 -13.7809  -8.6045  -8.5198  -8.4630  -8.3199  -8.2819
    -8.2790  -8.2561  -8.0525  -7.9289  -7.9031  -7.8194  -7.6631  -3.7932
    -3.7115  -3.4736  -3.3975  -3.3270  -2.8521  -2.8376  -2.6170  -2.4997
    -2.4506  -2.4096  -2.3406  -2.2283  -2.2115  -2.1186  -2.0693  -1.7967
    -1.7433  -1.6987  -1.1809  -1.1491  -1.0980  -1.0211  -0.9623  -0.9308
    -0.8590  -0.8130  -0.8015  -0.7669  -0.7442  -0.7118  -0.6868  -0.6619
    -0.5999  -0.2773  -0.2737   0.2471   0.3436   0.4087   0.7059   0.8002
     0.9516   1.1631   1.2129   1.2398   1.3178   1.3700   1.3886   1.4715
     1.4843   1.5376   1.6083   1.6403   1.6456   1.6809   1.7107   1.8040
     1.8160   1.8971   1.9339   1.9465   1.9724   1.9809   2.0310   2.0750
     2.1011   2.1560   2.2318   2.2331   2.3059   2.3898   2.4706   2.5214
     2.8590   2.8844   4.3563   4.4279   4.5926   4.6105   4.6781   5.6379
     6.2844   6.3286   7.2736   7.3252   8.8286   8.8956   8.9883   9.0424
     9.2151   9.3503   9.5234   9.5544   9.6734   9.7578   9.8163   9.8386
     9.9767

          k =-0.5000-0.5279 0.0000 ( 34028 PWs)   bands (ev):

   -35.6222 -35.4765 -22.5414 -22.4329 -22.3875 -22.1874 -17.1252 -17.1109
   -16.9222 -16.9134 -16.6771 -16.5371 -14.7243 -14.5289 -14.3511 -14.2789
   -14.1969 -14.1790 -14.1069 -14.0969 -14.0042 -13.9685 -13.9656 -13.9446
   -13.8809 -13.8437 -13.7722  -8.7670  -8.6658  -8.5922  -8.4373  -8.4052
    -8.3980  -8.3931  -8.0520  -8.0253  -7.9307  -7.8661  -7.6776  -4.0017
    -3.9084  -3.6850  -3.5797  -3.5242  -3.0763  -3.0576  -2.6495  -2.5299
    -2.4780  -2.4328  -2.3529  -2.2308  -2.2150  -2.2016  -2.1587  -1.8653
    -1.7705  -1.7577  -1.2641  -1.2371  -1.1871  -1.0850  -0.9489  -0.9371
    -0.8975  -0.8951  -0.8760  -0.8231  -0.7884  -0.7620  -0.7234  -0.7114
    -0.6170  -0.2613  -0.2449   0.2980   0.4046   0.4407   0.7891   0.9480
     1.1423   1.1598   1.2874   1.3894   1.4322   1.4450   1.4503   1.4606
     1.4920   1.6733   1.7058   1.7245   1.7403   1.7630   1.8426   1.9212
     1.9594   2.0089   2.0568   2.0593   2.0710   2.1327   2.1456   2.1600
     2.1768   2.2859   2.4254   2.4273   2.4968   2.5188   2.5918   2.6311
     2.6462   2.6693   4.4550   4.5640   4.7862   4.8140   4.8788   5.4099
     6.0573   6.0985   7.1575   7.2445   8.7697   8.8904   8.9908   9.0584
     9.1256   9.1840   9.4192   9.4963   9.5545   9.6563   9.7459   9.9378
    10.0939

     the Fermi energy is     2.6522 ev

!    total energy              =   -1842.87354678 Ry
     Harris-Foulkes estimate   =   -1842.87354678 Ry
     estimated scf accuracy    <          1.3E-11 Ry

     The total energy is the sum of the following terms:

     one-electron contribution =  -30648.45982398 Ry
     hartree contribution      =   15477.92952170 Ry
     xc contribution           =    -621.81201285 Ry
     ewald contribution        =   13949.47680902 Ry
     smearing contrib. (-TS)   =      -0.00804067 Ry

     convergence has been achieved in  39 iterations

     negative rho (up, down):  1.490E-03 0.000E+00

     Forces acting on atoms (cartesian axes, Ry/au):

     atom    1 type  4   force =     0.00000000    0.00000000   -0.00014465
     atom    2 type  3   force =     0.00000000    0.00000000    0.00038342
     atom    3 type  4   force =     0.00000000    0.00000000   -0.00075577
     atom    4 type  1   force =     0.00000000    0.00000000   -0.00026884
     atom    5 type  3   force =     0.00000000    0.00000000    0.00056960
     atom    6 type  4   force =     0.00000000    0.00000000   -0.00012659
     atom    7 type  4   force =     0.00000000    0.00000000    0.00022704
     atom    8 type  2   force =     0.00000000    0.00000000   -0.00036807
     atom    9 type  4   force =     0.00000000    0.00000000   -0.00005411
     atom   10 type  4   force =     0.00000000    0.00000000   -0.00001490
     atom   11 type  3   force =     0.00000000    0.00000000    0.00004182
     atom   12 type  1   force =     0.00000000    0.00000000   -0.00238570
     atom   13 type  4   force =     0.00000000    0.00000000    0.00327688
     atom   14 type  4   force =     0.00000000    0.00000000   -0.00016905
     atom   15 type  3   force =     0.00000000    0.00000000   -0.05467289
     atom   16 type  4   force =     0.00000000    0.00000000    0.05667915
     atom   17 type  1   force =     0.00000000    0.00000000    0.00891298
     atom   18 type  3   force =     0.00000000    0.00000000   -0.00533455
     atom   19 type  4   force =     0.00000000    0.00000000   -0.01320000
     atom   20 type  4   force =     0.00000000    0.00000000   -0.01114119
     atom   21 type  2   force =     0.00000000    0.00000000    0.05426530
     atom   22 type  4   force =     0.00000000    0.00000000    0.00991843
     atom   23 type  4   force =     0.00000000    0.00000000   -0.00887562
     atom   24 type  3   force =     0.00000000    0.00000000   -0.04084076
     atom   25 type  1   force =     0.00000000    0.00000000   -0.00394134
     atom   26 type  4   force =     0.00000000    0.00000000    0.00488098
     atom   27 type  3   force =     0.00000000    0.00000000    0.00388973
     atom   28 type  4   force =     0.00000000    0.00000000   -0.00075130

     Total force =     0.091699     Total SCF correction =     0.000009


     Computing stress (Cartesian axis) and pressure


     negative rho (up, down):  1.490E-03 0.000E+00
          total   stress  (Ry/bohr**3)                   (kbar)     P=        0.46
  -0.00000323   0.00000000   0.00000000           -0.48        0.00        0.00
   0.00000000  -0.00000004   0.00000000            0.00       -0.01        0.00
   0.00000000   0.00000000   0.00001266            0.00        0.00        1.86


     BFGS Geometry Optimization

     number of scf cycles    =   1
     number of bfgs steps    =   0

     energy   new            =   -1842.8735467811 Ry

     new trust radius        =       0.0566791451 bohr
     new conv_thr            =            1.0E-10 Ry


ATOMIC_POSITIONS (angstrom)
O             0.0000000000        1.8611200000       -0.1846200000    0   0   0
Cu            0.0000000000        0.0000000000        0.1039800000    0   0   0
O             0.0000000000        0.0000000000        1.9772600000    0   0   0
Ba            1.9651100000        1.8611200000        2.2364100000    0   0   0
Cu            0.0000000000        0.0000000000        4.0773100000    0   0   0
O             1.9651100000        0.0000000000        4.2321000000    0   0   0
O             0.0000000000        1.8611200000        4.3692200000    0   0   0
Ca            1.9651100000        1.8611200000        5.8860000000    0   0   0
O             0.0000000000        1.8611200000        7.3367500000    0   0   0
O             1.9651100000        0.0000000000        7.4847600000    0   0   0
Cu            0.0000000000        0.0000000000        7.6688600000    0   0   0
Ba            1.9651100000        1.8611200000        9.5487700000    0   0   0
O             0.0000000000        0.0000000000        9.8708900000    0   0   0
O             0.0000000000        1.8611200000       11.7586400000    0   0   0
Cu            0.0000000000        0.0000000000       11.7588600000    0   0   0
O             0.0000000000        0.0000000000       13.5767733118
Ba            1.9651100000        1.8611200000       13.8735865471
Cu            0.0000000000        0.0000000000       15.9458870793
O             1.9651100000        0.0000000000       16.1258248609
O             0.0000000000        1.8611200000       16.2749043382
Ca            1.9651100000        1.8611200000       17.5603059593
O             0.0000000000        1.8611200000       19.3036086058
O             1.9651100000        0.0000000000       19.6307832245
Cu            0.0000000000        0.0000000000       19.7686680005
Ba            1.9651100000        1.8611200000       21.5311700000    0   0   0
O             0.0000000000        0.0000000000       21.7902800000    0   0   0
Cu            0.0000000000        0.0000000000       23.6635800000    0   0   0
O             0.0000000000        1.8611200000       23.9521300000    0   0   0


     NEW-OLD atomic charge density approx. for the potential

     negative rho (up, down):  1.907E-03 0.000E+00

     total cpu time spent up to now is      669.0 secs

     Self-consistent Calculation

     iteration #  1     ecut=    60.00 Ry     beta= 0.70
     Davidson diagonalization with overlap
     ethr =  1.00E-06,  avg # of iterations =  5.8

     negative rho (up, down):  1.501E-03 0.000E+00

     total cpu time spent up to now is      701.1 secs

     total energy              =   -1842.88041434 Ry
     Harris-Foulkes estimate   =   -1842.88094635 Ry
     estimated scf accuracy    <       0.00587218 Ry

     iteration #  2     ecut=    60.00 Ry     beta= 0.70
     Davidson diagonalization with overlap
     ethr =  2.59E-06,  avg # of iterations =  1.8

     negative rho (up, down):  1.489E-03 0.000E+00

     total cpu time spent up to now is      715.8 secs

     total energy              =   -1842.88021564 Ry
     Harris-Foulkes estimate   =   -1842.88140900 Ry
     estimated scf accuracy    <       0.01929432 Ry

     iteration #  3     ecut=    60.00 Ry     beta= 0.70
     Davidson diagonalization with overlap
     ethr =  2.59E-06,  avg # of iterations =  1.2

     negative rho (up, down):  1.466E-03 0.000E+00

     total cpu time spent up to now is      729.7 secs

     total energy              =   -1842.88085656 Ry
     Harris-Foulkes estimate   =   -1842.88097627 Ry
     estimated scf accuracy    <       0.00195967 Ry

     iteration #  4     ecut=    60.00 Ry     beta= 0.70
     Davidson diagonalization with overlap
     ethr =  8.63E-07,  avg # of iterations =  1.0

     negative rho (up, down):  1.445E-03 0.000E+00

     total cpu time spent up to now is      743.2 secs

     total energy              =   -1842.88087618 Ry
     Harris-Foulkes estimate   =   -1842.88091817 Ry
     estimated scf accuracy    <       0.00068935 Ry

     iteration #  5     ecut=    60.00 Ry     beta= 0.70
     Davidson diagonalization with overlap
     ethr =  3.04E-07,  avg # of iterations =  1.1

     negative rho (up, down):  1.433E-03 0.000E+00

     total cpu time spent up to now is      756.7 secs

     total energy              =   -1842.88087793 Ry
     Harris-Foulkes estimate   =   -1842.88090109 Ry
     estimated scf accuracy    <       0.00023332 Ry

     iteration #  6     ecut=    60.00 Ry     beta= 0.70
     Davidson diagonalization with overlap
     ethr =  1.03E-07,  avg # of iterations =  1.8

     negative rho (up, down):  1.422E-03 0.000E+00

     total cpu time spent up to now is      772.0 secs

     total energy              =   -1842.88088780 Ry
     Harris-Foulkes estimate   =   -1842.88089278 Ry
     estimated scf accuracy    <       0.00013143 Ry

     iteration #  7     ecut=    60.00 Ry     beta= 0.70
     Davidson diagonalization with overlap
     ethr =  5.79E-08,  avg # of iterations =  1.0

     negative rho (up, down):  1.422E-03 0.000E+00

     total cpu time spent up to now is      785.8 secs

     total energy              =   -1842.88088685 Ry
     Harris-Foulkes estimate   =   -1842.88089146 Ry
     estimated scf accuracy    <       0.00004216 Ry

     iteration #  8     ecut=    60.00 Ry     beta= 0.70
     Davidson diagonalization with overlap
     ethr =  1.86E-08,  avg # of iterations =  1.5

     negative rho (up, down):  1.421E-03 0.000E+00

     total cpu time spent up to now is      800.0 secs

     total energy              =   -1842.88088850 Ry
     Harris-Foulkes estimate   =   -1842.88089034 Ry
     estimated scf accuracy    <       0.00006686 Ry

     iteration #  9     ecut=    60.00 Ry     beta= 0.70
     Davidson diagonalization with overlap
     ethr =  1.86E-08,  avg # of iterations =  1.0

     negative rho (up, down):  1.422E-03 0.000E+00

     total cpu time spent up to now is      813.7 secs

     total energy              =   -1842.88088868 Ry
     Harris-Foulkes estimate   =   -1842.88088935 Ry
     estimated scf accuracy    <       0.00001682 Ry

     iteration # 10     ecut=    60.00 Ry     beta= 0.70
     Davidson diagonalization with overlap
     ethr =  7.41E-09,  avg # of iterations =  1.0

     negative rho (up, down):  1.427E-03 0.000E+00

     total cpu time spent up to now is      827.4 secs

     total energy              =   -1842.88088894 Ry
     Harris-Foulkes estimate   =   -1842.88088914 Ry
     estimated scf accuracy    <       0.00000646 Ry

     iteration # 11     ecut=    60.00 Ry     beta= 0.70
     Davidson diagonalization with overlap
     ethr =  2.85E-09,  avg # of iterations =  1.0

     negative rho (up, down):  1.432E-03 0.000E+00

     total cpu time spent up to now is      841.3 secs

     total energy              =   -1842.88088902 Ry
     Harris-Foulkes estimate   =   -1842.88088912 Ry
     estimated scf accuracy    <       0.00000810 Ry

     iteration # 12     ecut=    60.00 Ry     beta= 0.70
     Davidson diagonalization with overlap
     ethr =  2.85E-09,  avg # of iterations =  1.0

     negative rho (up, down):  1.439E-03 0.000E+00

     total cpu time spent up to now is      854.9 secs

     total energy              =   -1842.88088901 Ry
     Harris-Foulkes estimate   =   -1842.88088908 Ry
     estimated scf accuracy    <       0.00000279 Ry

     iteration # 13     ecut=    60.00 Ry     beta= 0.70
     Davidson diagonalization with overlap
     ethr =  1.23E-09,  avg # of iterations =  1.0

     negative rho (up, down):  1.446E-03 0.000E+00

     total cpu time spent up to now is      868.9 secs

     total energy              =   -1842.88088902 Ry
     Harris-Foulkes estimate   =   -1842.88088904 Ry
     estimated scf accuracy    <       0.00000115 Ry

     iteration # 14     ecut=    60.00 Ry     beta= 0.70
     Davidson diagonalization with overlap
     ethr =  5.07E-10,  avg # of iterations =  1.1

     negative rho (up, down):  1.450E-03 0.000E+00

     total cpu time spent up to now is      882.8 secs

     total energy              =   -1842.88088901 Ry
     Harris-Foulkes estimate   =   -1842.88088903 Ry
     estimated scf accuracy    <       0.00000073 Ry

     iteration # 15     ecut=    60.00 Ry     beta= 0.70
     Davidson diagonalization with overlap
     ethr =  3.22E-10,  avg # of iterations =  1.0

     negative rho (up, down):  1.458E-03 0.000E+00

     total cpu time spent up to now is      896.7 secs

     total energy              =   -1842.88088900 Ry
     Harris-Foulkes estimate   =   -1842.88088902 Ry
     estimated scf accuracy    <       0.00000052 Ry

     iteration # 16     ecut=    60.00 Ry     beta= 0.70
     Davidson diagonalization with overlap
     ethr =  2.29E-10,  avg # of iterations =  1.0

     negative rho (up, down):  1.463E-03 0.000E+00

     total cpu time spent up to now is      910.3 secs

     total energy              =   -1842.88088899 Ry
     Harris-Foulkes estimate   =   -1842.88088901 Ry
     estimated scf accuracy    <       0.00000005 Ry

     iteration # 17     ecut=    60.00 Ry     beta= 0.70
     Davidson diagonalization with overlap
     ethr =  2.36E-11,  avg # of iterations =  3.2

     negative rho (up, down):  1.467E-03 0.000E+00

     total cpu time spent up to now is      926.7 secs

     total energy              =   -1842.88088899 Ry
     Harris-Foulkes estimate   =   -1842.88088900 Ry
     estimated scf accuracy    <       0.00000007 Ry

     iteration # 18     ecut=    60.00 Ry     beta= 0.70
     Davidson diagonalization with overlap
     ethr =  2.36E-11,  avg # of iterations =  1.0

     negative rho (up, down):  1.469E-03 0.000E+00

     total cpu time spent up to now is      940.4 secs

     total energy              =   -1842.88088899 Ry
     Harris-Foulkes estimate   =   -1842.88088899 Ry
     estimated scf accuracy    <       0.00000005 Ry

     iteration # 19     ecut=    60.00 Ry     beta= 0.70
     Davidson diagonalization with overlap
     ethr =  2.11E-11,  avg # of iterations =  1.0

     negative rho (up, down):  1.475E-03 0.000E+00

     total cpu time spent up to now is      954.4 secs

     total energy              =   -1842.88088898 Ry
     Harris-Foulkes estimate   =   -1842.88088899 Ry
     estimated scf accuracy    <       0.00000004 Ry

     iteration # 20     ecut=    60.00 Ry     beta= 0.70
     Davidson diagonalization with overlap
     ethr =  1.80E-11,  avg # of iterations =  1.0

     negative rho (up, down):  1.484E-03 0.000E+00

     total cpu time spent up to now is      968.4 secs

     total energy              =   -1842.88088896 Ry
     Harris-Foulkes estimate   =   -1842.88088898 Ry
     estimated scf accuracy    <       0.00000004 Ry

     iteration # 21     ecut=    60.00 Ry     beta= 0.70
     Davidson diagonalization with overlap
     ethr =  1.72E-11,  avg # of iterations =  1.0

     negative rho (up, down):  1.490E-03 0.000E+00

     total cpu time spent up to now is      982.2 secs

     total energy              =   -1842.88088895 Ry
     Harris-Foulkes estimate   =   -1842.88088896 Ry
     estimated scf accuracy    <       0.00000005 Ry

     iteration # 22     ecut=    60.00 Ry     beta= 0.70
     Davidson diagonalization with overlap
     ethr =  1.72E-11,  avg # of iterations =  1.0

     negative rho (up, down):  1.490E-03 0.000E+00

     total cpu time spent up to now is      996.0 secs

     total energy              =   -1842.88088895 Ry
     Harris-Foulkes estimate   =   -1842.88088895 Ry
     estimated scf accuracy    <       0.00000002 Ry

     iteration # 23     ecut=    60.00 Ry     beta= 0.70
     Davidson diagonalization with overlap
     ethr =  7.15E-12,  avg # of iterations =  1.0

     negative rho (up, down):  1.494E-03 0.000E+00

     total cpu time spent up to now is     1009.6 secs

     total energy              =   -1842.88088895 Ry
     Harris-Foulkes estimate   =   -1842.88088895 Ry
     estimated scf accuracy    <          4.0E-09 Ry

     iteration # 24     ecut=    60.00 Ry     beta= 0.70
     Davidson diagonalization with overlap
     ethr =  1.75E-12,  avg # of iterations =  1.1

     negative rho (up, down):  1.494E-03 0.000E+00

     total cpu time spent up to now is     1023.1 secs

     total energy              =   -1842.88088895 Ry
     Harris-Foulkes estimate   =   -1842.88088895 Ry
     estimated scf accuracy    <          1.6E-09 Ry

     iteration # 25     ecut=    60.00 Ry     beta= 0.70
     Davidson diagonalization with overlap
     ethr =  6.86E-13,  avg # of iterations =  1.4

     negative rho (up, down):  1.495E-03 0.000E+00

     total cpu time spent up to now is     1037.6 secs

     total energy              =   -1842.88088895 Ry
     Harris-Foulkes estimate   =   -1842.88088895 Ry
     estimated scf accuracy    <          4.1E-10 Ry

     iteration # 26     ecut=    60.00 Ry     beta= 0.70
     Davidson diagonalization with overlap
     ethr =  1.79E-13,  avg # of iterations =  2.1

     negative rho (up, down):  1.495E-03 0.000E+00

     total cpu time spent up to now is     1052.7 secs

     total energy              =   -1842.88088895 Ry
     Harris-Foulkes estimate   =   -1842.88088895 Ry
     estimated scf accuracy    <          4.2E-10 Ry

     iteration # 27     ecut=    60.00 Ry     beta= 0.70
     Davidson diagonalization with overlap
     ethr =  1.79E-13,  avg # of iterations =  1.0

     negative rho (up, down):  1.495E-03 0.000E+00

     total cpu time spent up to now is     1066.3 secs

     total energy              =   -1842.88088895 Ry
     Harris-Foulkes estimate   =   -1842.88088895 Ry
     estimated scf accuracy    <          1.3E-10 Ry

     iteration # 28     ecut=    60.00 Ry     beta= 0.70
     Davidson diagonalization with overlap
     ethr =  1.00E-13,  avg # of iterations =  1.0

     negative rho (up, down):  1.496E-03 0.000E+00

     total cpu time spent up to now is     1079.5 secs

     End of self-consistent calculation

          k = 0.0000 0.0000 0.0000 ( 34019 PWs)   bands (ev):

   -35.6897 -35.5016 -22.7284 -22.7096 -22.6552 -22.4543 -17.1307 -17.0064
   -16.7488 -16.7289 -16.5526 -16.5414 -15.2181 -15.0725 -14.8614 -14.6714
   -14.5899 -14.5408 -14.4878 -14.1403 -14.1001 -13.9143 -13.8994 -13.7392
   -13.6946 -13.6726 -13.5650  -7.9538  -7.8409  -7.8034  -7.7853  -7.7325
    -7.7219  -7.6430  -7.6105  -7.5810  -7.5765  -7.4960  -7.3305  -2.4368
    -2.2490  -2.2212  -1.7695  -1.7479  -1.7457  -1.6783  -1.6146  -1.5853
    -1.4541  -1.4194  -1.3972  -1.2941  -1.1389  -1.1225  -1.0755  -0.8885
    -0.8800  -0.6669  -0.4547  -0.4511  -0.3773  -0.2954  -0.2508  -0.2264
    -0.1833  -0.1751  -0.1744  -0.1586  -0.1562  -0.1398  -0.1323  -0.1156
    -0.0937  -0.0552   0.0441   0.0504   0.1803   0.1804   0.1942   0.2256
     0.2385   0.2557   0.2949   0.3500   0.4000   0.4073   0.4092   0.4148
     0.4374   0.8194   0.8664   0.9633   0.9845   1.0352   1.0847   1.2659
     1.4022   1.4127   1.4306   1.4726   1.5418   1.5578   1.5973   1.6079
     1.6233   1.6378   1.7212   1.7974   1.9108   1.9915   2.1168   2.1747
     2.1888   2.2704   2.3553   2.3624   2.3828   2.6171   2.6882   5.2964
     5.3071   5.8083   6.2621   6.5099   6.8452   6.8972   7.0321   7.3801
     8.0567   8.1974   8.3048   8.4171   8.5693   8.6737   8.7223   9.1584
     9.2715

          k = 0.0000 0.1320 0.0000 ( 34015 PWs)   bands (ev):

[...]
    -2.2854  -2.2328  -2.1700  -2.1535  -2.0635  -1.7090  -1.6578  -1.5491
    -1.5059  -1.4396  -1.1811  -1.1429  -0.9750  -0.8876  -0.8331  -0.8100
    -0.7899  -0.7259  -0.6530  -0.6210  -0.5778  -0.5730  -0.5366  -0.4146
    -0.3467  -0.2987  -0.2371   0.0875   0.1595   0.3392   0.5094   0.5324
     0.6790   0.7645   0.8329   0.8794   0.8977   1.0753   1.0854   1.1412
     1.2417   1.2775   1.2933   1.3156   1.4731   1.4820   1.5067   1.5464
     1.6552   1.6878   1.7132   1.7557   1.7783   1.7967   1.8162   1.8249
     1.8409   1.8636   1.8744   1.9006   1.9139   1.9656   2.2126   2.3626
     3.0443   3.0534   3.7579   3.7976   3.8337   3.9225   3.9572   6.3893
     6.7669   6.7858   7.6768   7.7018   8.4644   8.4715   8.7907   8.8963
     9.2020   9.3861   9.4758   9.4914   9.5648   9.6306   9.7195   9.8649
     9.9158

          k = 0.3750 0.3960 0.0000 ( 33993 PWs)   bands (ev):

   -35.5926 -35.5127 -22.4895 -22.4774 -22.3570 -22.2394 -16.9738 -16.9333
   -16.9137 -16.8926 -16.6763 -16.6322 -14.6586 -14.6461 -14.4120 -14.3527
   -14.2949 -14.1647 -14.1581 -14.1357 -14.0968 -14.0116 -14.0097 -13.9167
   -13.8832 -13.8084 -13.7636  -8.4910  -8.4650  -8.3274  -8.2238  -8.1585
    -8.1558  -7.9669  -7.9058  -7.8824  -7.8540  -7.7873  -7.6399  -3.6749
    -3.5426  -3.3823  -3.2893  -3.2342  -2.8736  -2.8685  -2.5598  -2.4842
    -2.4013  -2.3435  -2.1946  -2.1708  -2.0718  -2.0213  -1.9621  -1.7725
    -1.7324  -1.5545  -1.1926  -1.1335  -1.1325  -1.1135  -1.0163  -0.8895
    -0.8571  -0.7986  -0.7872  -0.7853  -0.7264  -0.6501  -0.6240  -0.6081
    -0.5253  -0.3174  -0.3103   0.2308   0.3214   0.3890   0.6433   0.7107
     0.9635   1.0962   1.1340   1.2143   1.2292   1.2829   1.3265   1.4226
     1.4437   1.5236   1.5522   1.5639   1.6259   1.6476   1.6896   1.7886
     1.8079   1.8400   1.8517   1.9095   1.9730   1.9963   2.0367   2.0673
     2.0866   2.1204   2.1561   2.2110   2.2477   2.2550   2.2663   2.5073
     2.8593   2.8747   4.1877   4.2640   4.3207   4.3900   4.4149   5.9394
     6.4639   6.4921   7.4187   7.4489   8.9331   8.9841   9.0322   9.1055
     9.4550   9.4950   9.5441   9.5704   9.6136   9.6894   9.7020   9.8559
     9.9593

          k = 0.3750-0.5279 0.0000 ( 34004 PWs)   bands (ev):

   -35.5909 -35.5109 -22.4665 -22.4541 -22.3356 -22.2172 -16.9775 -16.9649
   -16.9473 -16.9012 -16.6488 -16.5972 -14.5962 -14.5940 -14.3279 -14.2559
   -14.2117 -14.2102 -14.1631 -14.0784 -14.0161 -14.0051 -13.9919 -13.9906
   -13.9215 -13.8364 -13.7314  -8.5733  -8.5313  -8.4262  -8.3137  -8.3123
    -8.3012  -8.1253  -7.9366  -7.9309  -7.9148  -7.8239  -7.6511  -3.8817
    -3.7253  -3.6139  -3.5135  -3.4222  -3.0987  -3.0941  -2.5776  -2.5050
    -2.4146  -2.3524  -2.1889  -2.1661  -2.1289  -2.0714  -2.0684  -1.8558
    -1.8157  -1.5828  -1.2692  -1.2173  -1.2065  -1.1586  -1.0658  -0.8889
    -0.8846  -0.8792  -0.8696  -0.8260  -0.8130  -0.7250  -0.6506  -0.6478
    -0.4962  -0.3025  -0.2970   0.2701   0.3666   0.4067   0.7038   0.8071
     1.0487   1.2409   1.3028   1.3088   1.3414   1.3588   1.3741   1.4251
     1.4315   1.6006   1.6379   1.6645   1.6793   1.7921   1.8078   1.8460
     1.8886   1.9174   1.9396   2.0091   2.0951   2.1036   2.1286   2.2110
     2.2276   2.2527   2.3218   2.3591   2.3873   2.4384   2.4473   2.5687
     2.6099   2.6320   4.2730   4.3764   4.4649   4.5298   4.5611   5.7422
     6.2863   6.3164   7.3168   7.3767   8.8400   8.9911   9.0879   9.2024
     9.3893   9.4330   9.6681   9.7262   9.7938   9.8413   9.8659   9.9099
     9.9927

          k =-0.5000 0.0000 0.0000 ( 33930 PWs)   bands (ev):

   -35.6013 -35.5220 -22.5998 -22.5896 -22.4601 -22.3463 -17.0689 -17.0112
   -16.7903 -16.7724 -16.6512 -16.5596 -15.0234 -14.9827 -14.9678 -14.6019
   -14.5321 -14.3284 -14.2488 -14.2429 -14.1880 -14.1290 -14.1222 -13.9589
   -13.8611 -13.8590 -13.6770  -7.8842  -7.8566  -7.8045  -7.6193  -7.5980
    -7.5824  -7.3930  -7.3922  -7.3786  -7.3040  -7.2198  -7.1252  -2.9616
    -2.9511  -2.7841  -2.7464  -2.2706  -2.2421  -2.0736  -1.6120  -1.5762
    -1.5732  -1.5459  -1.3525  -1.3087  -1.2201  -1.2016  -1.1550  -1.1477
    -1.1433  -1.1043  -1.0887  -1.0326  -0.9977  -0.9328  -0.9245  -0.8829
    -0.8325  -0.7328  -0.6854  -0.5912  -0.4405  -0.3858  -0.2950  -0.2122
    -0.1582  -0.1496  -0.1274  -0.0666   0.1336   0.1353   0.2120   0.2513
     0.2532   0.4752   0.4815   0.5010   0.5267   0.5423   0.6289   0.6995
     0.7179   0.8327   0.8844   0.9555   1.0012   1.2003   1.2088   1.2695
     1.4315   1.4683   1.4781   1.5349   1.5818   1.6644   1.6925   1.7185
     1.7652   1.7728   1.8202   1.9413   1.9988   2.0234   2.0443   2.2083
     2.2877   2.3735   2.5133   2.6440   2.6929   2.9024   2.9252   7.0026
     7.3446   7.3490   7.3960   7.3993   8.2365   8.3348   8.5807   8.6108
     9.0616   9.1215   9.4629   9.5096   9.5141   9.5153   9.6077   9.7670
     9.7854

          k =-0.5000 0.1320 0.0000 ( 33986 PWs)   bands (ev):

   -35.5996 -35.5203 -22.5790 -22.5686 -22.4407 -22.3262 -17.0607 -17.0021
   -16.7709 -16.7451 -16.6988 -16.6224 -14.9654 -14.9252 -14.8964 -14.5610
   -14.4936 -14.2867 -14.2048 -14.1917 -14.1498 -14.1068 -14.1005 -13.9277
   -13.8979 -13.8829 -13.6795  -7.8956  -7.8893  -7.8571  -7.7274  -7.7118
    -7.6392  -7.5958  -7.5672  -7.5191  -7.4413  -7.4212  -7.3381  -3.0291
    -3.0171  -2.8363  -2.7968  -2.2766  -2.2467  -2.0936  -1.9540  -1.9396
    -1.7517  -1.7290  -1.6251  -1.5415  -1.5411  -1.4414  -1.4408  -1.3706
    -1.3546  -1.2825  -1.2344  -1.1868  -1.0309  -0.9715  -0.8204  -0.7874
    -0.7620  -0.6723  -0.6260  -0.5191  -0.4710  -0.3795  -0.3728  -0.2216
    -0.2202  -0.0024   0.0440   0.1248   0.1281   0.1881   0.2506   0.2934
     0.3588   0.4199   0.4500   0.5861   0.5963   0.6625   0.6906   0.8372
     0.8596   0.9817   1.0509   1.1154   1.1856   1.2354   1.2835   1.3468
     1.3540   1.4011   1.4890   1.5935   1.6524   1.6846   1.7084   1.7757
     1.8081   1.8088   1.8156   1.9485   1.9886   2.0074   2.0097   2.3589
     2.8179   2.8637   2.9872   3.0474   3.1191   3.2567   3.3238   6.7960
     7.1923   7.2031   7.6979   7.6990   8.2007   8.2402   8.4346   8.5432
     9.3102   9.3593   9.3758   9.5793   9.6104   9.6340   9.6915   9.7783
     9.8173

          k =-0.5000 0.2640 0.0000 ( 33976 PWs)   bands (ev):

   -35.5956 -35.5160 -22.5282 -22.5170 -22.3930 -22.2768 -17.0412 -16.9804
   -16.8245 -16.7639 -16.7043 -16.6749 -14.8133 -14.7798 -14.6921 -14.4634
   -14.4011 -14.1815 -14.1088 -14.0967 -14.0956 -14.0561 -14.0509 -13.9638
   -13.9143 -13.8519 -13.7076  -8.1629  -8.1440  -8.0288  -8.0130  -7.9981
    -7.9011  -7.8456  -7.8225  -7.7983  -7.7959  -7.6856  -7.5997  -3.3334
    -3.2823  -3.0695  -3.0203  -2.5479  -2.4572  -2.3800  -2.3192  -2.3025
    -2.3002  -2.2479  -2.1789  -2.1647  -2.0689  -1.8346  -1.7853  -1.6134
    -1.5538  -1.5236  -1.1062  -1.0731  -0.9428  -0.8904  -0.8865  -0.8399
    -0.7780  -0.7414  -0.6721  -0.6636  -0.6034  -0.6014  -0.5450  -0.4196
    -0.3183  -0.3099  -0.2898   0.0999   0.1689   0.3940   0.5612   0.5724
     0.7087   0.8022   0.9087   0.9168   0.9221   1.1591   1.1597   1.1631
     1.2443   1.2574   1.2673   1.2797   1.4685   1.5280   1.5556   1.6351
     1.6557   1.6731   1.7669   1.7732   1.7734   1.8335   1.8688   1.9050
     1.9215   1.9266   1.9798   2.0149   2.0212   2.0405   2.0839   2.3054
     3.0377   3.0471   3.7741   3.9333   3.9750   4.0535   4.0898   6.2631
     6.7627   6.7857   7.6009   7.6360   8.4842   8.5086   8.9376   9.1056
     9.2455   9.5273   9.5867   9.6456   9.6782   9.6998   9.8808   9.8918
     9.9574

          k =-0.5000 0.3960 0.0000 ( 33992 PWs)   bands (ev):

   -35.5915 -35.5117 -22.4761 -22.4642 -22.3443 -22.2263 -17.0220 -16.9590
   -16.9304 -16.8918 -16.6460 -16.6002 -14.6294 -14.6090 -14.4224 -14.3712
   -14.3152 -14.1487 -14.1294 -14.0715 -14.0102 -14.0084 -14.0022 -13.9047
   -13.8777 -13.8181 -13.7623  -8.5391  -8.5032  -8.3816  -8.3180  -8.3012
    -8.2732  -8.1236  -7.9275  -7.9218  -7.8919  -7.8629  -7.6399  -3.8051
    -3.6838  -3.4929  -3.3978  -3.2636  -2.8651  -2.8611  -2.6307  -2.5402
    -2.4708  -2.4127  -2.2097  -2.1873  -2.1259  -2.0833  -2.0674  -1.8301
    -1.7667  -1.6038  -1.1609  -1.1242  -1.1210  -1.0330  -0.9769  -0.9631
    -0.9253  -0.8176  -0.8115  -0.7592  -0.7155  -0.7105  -0.6979  -0.6153
    -0.5132  -0.2792  -0.2739   0.2515   0.3399   0.4499   0.7345   0.8004
     1.0459   1.2010   1.2421   1.2875   1.3584   1.3761   1.3798   1.4561
     1.4839   1.5462   1.6209   1.6310   1.6487   1.6838   1.7526   1.7972
     1.8426   1.9052   1.9116   1.9666   2.0109   2.0625   2.0715   2.1291
     2.1453   2.1772   2.2174   2.2440   2.2867   2.3480   2.3861   2.4501
     2.8474   2.8640   4.2046   4.5100   4.5779   4.6315   4.6549   5.7165
     6.2682   6.2959   7.2687   7.2979   8.8728   8.9795   8.9960   9.0990
     9.4224   9.4964   9.6060   9.6714   9.7504   9.7696   9.8091   9.9036
     9.9300

          k =-0.5000-0.5279 0.0000 ( 34028 PWs)   bands (ev):

   -35.5898 -35.5099 -22.4542 -22.4419 -22.3238 -22.2050 -17.0142 -16.9729
   -16.9503 -16.9419 -16.6201 -16.5672 -14.5300 -14.5231 -14.3676 -14.2938
   -14.2121 -14.1932 -14.1595 -14.0278 -13.9913 -13.9851 -13.9581 -13.9299
   -13.8648 -13.8512 -13.7365  -8.6855  -8.6423  -8.5394  -8.4348  -8.4243
    -8.4174  -8.2478  -8.0216  -7.9492  -7.9267  -7.8710  -7.6523  -4.0135
    -3.8664  -3.6996  -3.5870  -3.5100  -3.0893  -3.0858  -2.6627  -2.5744
    -2.4979  -2.4385  -2.2200  -2.1996  -2.1783  -2.1580  -2.0835  -1.9015
    -1.8359  -1.6293  -1.2757  -1.2262  -1.1790  -1.0972  -1.0015  -0.9524
    -0.9372  -0.9122  -0.9103  -0.8139  -0.7872  -0.7467  -0.7268  -0.7239
    -0.4688  -0.2503  -0.2452   0.2955   0.3872   0.4651   0.8147   0.9287
     1.1591   1.3548   1.3589   1.4218   1.4335   1.4557   1.4610   1.4633
     1.4779   1.6953   1.7111   1.7236   1.7528   1.7803   1.8733   1.9264
     1.9633   2.0105   2.0545   2.0748   2.1144   2.1336   2.1941   2.2108
     2.2759   2.3136   2.4098   2.4170   2.4680   2.5030   2.5498   2.5850
     2.6098   2.6244   4.2930   4.6650   4.7783   4.8201   4.8540   5.4821
     6.0413   6.0690   7.1525   7.2223   8.8399   8.9341   9.0535   9.1062
     9.1155   9.1625   9.5227   9.6315   9.7485   9.7704   9.9693   9.9768
    10.0712

     the Fermi energy is     2.6348 ev

!    total energy              =   -1842.89978311 Ry
     Harris-Foulkes estimate   =   -1842.89978311 Ry
     estimated scf accuracy    <          7.3E-13 Ry

     The total energy is the sum of the following terms:

     one-electron contribution =  -30792.94928596 Ry
     hartree contribution      =   15550.25756230 Ry
     xc contribution           =    -621.74360945 Ry
     ewald contribution        =   14021.54354372 Ry
     smearing contrib. (-TS)   =      -0.00799372 Ry

     convergence has been achieved in  30 iterations

     negative rho (up, down):  1.508E-03 0.000E+00

     Forces acting on atoms (cartesian axes, Ry/au):

     atom    1 type  4   force =     0.00000000    0.00000000   -0.00000403
     atom    2 type  3   force =     0.00000000    0.00000000    0.00177786
     atom    3 type  4   force =     0.00000000    0.00000000   -0.00168019
     atom    4 type  1   force =     0.00000000    0.00000000    0.00012869
     atom    5 type  3   force =     0.00000000    0.00000000    0.00027741
     atom    6 type  4   force =     0.00000000    0.00000000    0.00011813
     atom    7 type  4   force =     0.00000000    0.00000000    0.00056418
     atom    8 type  2   force =     0.00000000    0.00000000   -0.00056758
     atom    9 type  4   force =     0.00000000    0.00000000    0.00003688
     atom   10 type  4   force =     0.00000000    0.00000000   -0.00002211
     atom   11 type  3   force =     0.00000000    0.00000000    0.00022682
     atom   12 type  1   force =     0.00000000    0.00000000   -0.00043761
     atom   13 type  4   force =     0.00000000    0.00000000    0.00276476
     atom   14 type  4   force =     0.00000000    0.00000000    0.00156966
     atom   15 type  3   force =     0.00000000    0.00000000   -0.00374906
     atom   16 type  4   force =     0.00000000    0.00000000    0.00273873
     atom   17 type  1   force =     0.00000000    0.00000000    0.00925509
     atom   18 type  3   force =     0.00000000    0.00000000   -0.00040661
     atom   19 type  4   force =     0.00000000    0.00000000    0.00086168
     atom   20 type  4   force =     0.00000000    0.00000000   -0.00541619
     atom   21 type  2   force =     0.00000000    0.00000000    0.00426240
     atom   22 type  4   force =     0.00000000    0.00000000    0.00725018
     atom   23 type  4   force =     0.00000000    0.00000000   -0.00879937
     atom   24 type  3   force =     0.00000000    0.00000000   -0.00696129
     atom   25 type  1   force =     0.00000000    0.00000000   -0.00175731
     atom   26 type  4   force =     0.00000000    0.00000000   -0.00037760
     atom   27 type  3   force =     0.00000000    0.00000000   -0.00180406
     atom   28 type  4   force =     0.00000000    0.00000000    0.00015054

     Total force =     0.017889     Total SCF correction =     0.000002


     Computing stress (Cartesian axis) and pressure


     negative rho (up, down):  1.508E-03 0.000E+00
          total   stress  (Ry/bohr**3)                   (kbar)     P=       -4.03
  -0.00000964   0.00000000   0.00000000           -1.42        0.00        0.00
   0.00000000  -0.00002967   0.00000000            0.00       -4.37        0.00
   0.00000000   0.00000000  -0.00004285            0.00        0.00       -6.30


     bfgs converged in   9 scf cycles and   6 bfgs steps
     (criteria: energy <  1.0E-03 Ry, force <  1.0E-02 Ry/Bohr)

     End of BFGS Geometry Optimization

     Final energy   =   -1842.8997831071 Ry
Begin final coordinates

ATOMIC_POSITIONS (angstrom)
O             0.0000000000        1.8611200000       -0.1849734231    0   0   0
Cu            0.0000000000        0.0000000000        0.1041790518    0   0   0
O             0.0000000000        0.0000000000        1.9810451230    0   0   0
Ba            1.9651100000        1.8611200000        2.2406912210    0   0   0
Cu            0.0000000000        0.0000000000        4.0851153064    0   0   0
O             1.9651100000        0.0000000000        4.2402016251    0   0   0
O             0.0000000000        1.8611200000        4.3775841177    0   0   0
Ca            1.9651100000        1.8611200000        5.8972677312    0   0   0
O             0.0000000000        1.8611200000        7.3507949417    0   0   0
O             1.9651100000        0.0000000000        7.4990882813    0   0   0
Cu            0.0000000000        0.0000000000        7.6835407090    0   0   0
Ba            1.9651100000        1.8611200000        9.5670494723    0   0   0
O             0.0000000000        0.0000000000        9.8897861154    0   0   0
O             0.0000000000        1.8611200000       11.7811498870    0   0   0
Cu            0.0000000000        0.0000000000       11.7813703082    0   0   0
O             0.0000000000        0.0000000000       13.6677118122
Ba            1.9651100000        1.8611200000       13.9723567805
Cu            0.0000000000        0.0000000000       15.9574694627
O             1.9651100000        0.0000000000       16.1343092788
O             0.0000000000        1.8611200000       16.3224371008
Ca            1.9651100000        1.8611200000       17.7482808697
O             0.0000000000        1.8611200000       19.2545875712
O             1.9651100000        0.0000000000       19.5359277394
Cu            0.0000000000        0.0000000000       19.6405557111
Ba            1.9651100000        1.8611200000       21.4884833470    0   0   0
O             0.0000000000        0.0000000000       21.7480893684    0   0   0
Cu            0.0000000000        0.0000000000       23.6249754779    0   0   0
O             0.0000000000        1.8611200000       23.9140778571    0   0   0
End final coordinates


 
     init_run     :      8.09s CPU      8.81s WALL (       1 calls)
     electrons    :   4251.45s CPU   4608.54s WALL (      10 calls)
     update_pot   :     14.16s CPU     14.29s WALL (       9 calls)
     forces       :     34.58s CPU     38.71s WALL (      10 calls)
     stress       :    218.85s CPU    228.32s WALL (      10 calls)

     Called by init_run:
     wfcinit      :      5.72s CPU      5.89s WALL (       1 calls)
     potinit      :      0.59s CPU      0.62s WALL (       1 calls)
     hinit0       :      0.92s CPU      1.08s WALL (       1 calls)

     Called by electrons:
     c_bands      :   3272.18s CPU   3411.22s WALL (     312 calls)
     sum_band     :    663.40s CPU    784.61s WALL (     312 calls)
     v_of_rho     :     23.21s CPU     23.50s WALL (     322 calls)
     newd         :    155.29s CPU    252.95s WALL (     322 calls)
     mix_rho      :    138.66s CPU    140.04s WALL (     312 calls)

     Called by c_bands:
     init_us_2    :     31.76s CPU     32.34s WALL (   16125 calls)
     cegterg      :   3060.57s CPU   3194.27s WALL (    7800 calls)

     Called by sum_band:
     sum_band:bec :      2.12s CPU      2.14s WALL (    7800 calls)
     addusdens    :    164.33s CPU    278.60s WALL (     312 calls)

     Called by *egterg:
     h_psi        :   1745.20s CPU   1826.64s WALL (   21511 calls)
     s_psi        :    178.58s CPU    180.88s WALL (   21511 calls)
     g_psi        :      5.80s CPU      5.87s WALL (   13686 calls)
     cdiaghg      :    508.77s CPU    511.41s WALL (   21261 calls)

     Called by h_psi:
     h_psi:calbec :    197.68s CPU    207.93s WALL (   21511 calls)
     vloc_psi     :   1354.58s CPU   1379.56s WALL (   21511 calls)
     add_vuspsi   :    183.19s CPU    208.78s WALL (   21511 calls)

     General routines
     calbec       :    324.34s CPU    335.16s WALL (   30561 calls)
     fft          :     20.09s CPU     20.32s WALL (    4425 calls)
     ffts         :     76.05s CPU     76.78s WALL (  126762 calls)
     fftw         :   1529.10s CPU   1556.24s WALL ( 5522468 calls)
     interpolate  :      1.76s CPU      1.79s WALL (     322 calls)
 
     Parallel routines
     fft_scatt_xy :    203.50s CPU    206.94s WALL ( 5653655 calls)
     fft_scatt_yz :    906.05s CPU    921.90s WALL ( 5653655 calls)
 
     PWSCF        :      1h15m CPU      1h21m WALL

 
   This run was terminated on:  13:35:50   9Jul2021            

=------------------------------------------------------------------------------=
   JOB DONE.
=------------------------------------------------------------------------------=
[1625852151.141146] [holy7c04208:26295:0]          mpool.c:43   UCX  WARN  object 0x3d2fd00 was not returned to mpool ucp_requests
[1625852151.152135] [holy7c04208:26296:0]          mpool.c:43   UCX  WARN  object 0x2e72700 was not returned to mpool ucp_requests
[1625852151.156660] [holy7c04208:26300:0]          mpool.c:43   UCX  WARN  object 0x410b300 was not returned to mpool ucp_requests
[1625852151.156683] [holy7c04208:26300:0]          mpool.c:43   UCX  WARN  object 0x410b840 was not returned to mpool ucp_requests
[1625852151.170299] [holy7c04303:202083:0]          mpool.c:43   UCX  WARN  object 0x359b740 was not returned to mpool ucp_requests
[1625852151.181111] [holy7c04303:202080:0]          mpool.c:43   UCX  WARN  object 0x35b5580 was not returned to mpool ucp_requests
[1625852151.181240] [holy7c04303:202084:0]          mpool.c:43   UCX  WARN  object 0x3d90180 was not returned to mpool ucp_requests
[1625852151.181263] [holy7c04303:202084:0]          mpool.c:43   UCX  WARN  object 0x3d90340 was not returned to mpool ucp_requests
[1625852151.180834] [holy7c04303:202082:0]          mpool.c:43   UCX  WARN  object 0x3037a40 was not returned to mpool ucp_requests
[1625852151.180859] [holy7c04303:202082:0]          mpool.c:43   UCX  WARN  object 0x3037f80 was not returned to mpool ucp_requests
