
     Program PWSCF v.6.5 starts on 28Jun2021 at 23:37:25 

     This program is part of the open-source Quantum ESPRESSO suite
     for quantum simulation of materials; please cite
         "P. Giannozzi et al., J. Phys.:Condens. Matter 21 395502 (2009);
         "P. Giannozzi et al., J. Phys.:Condens. Matter 29 465901 (2017);
          URL http://www.quantum-espresso.org", 
     in publications or presentations arising from this work. More details at
     http://www.quantum-espresso.org/quote

     Parallel version (MPI), running on    20 processors

     MPI processes distributed on     6 nodes
     R & G space division:  proc/nbgrp/npool/nimage =      20
     Reading input from CBCO_Y_cleave_1.25_sep.pwi
Warning: card &CELL ignored
Warning: card     CELL_DYNAMICS = 'BFGS' ignored
Warning: card     PRESS_CONV_THR = 0.5 ignored
Warning: card / ignored

     Current dimensions of program PWSCF are:
     Max number of different atomic species (ntypx) = 10
     Max number of k-points (npk) =  40000
     Max angular momentum in pseudopotentials (lmaxx) =  3

     Subspace diagonalization in iterative solution of the eigenvalue problem:
     one sub-group per band group will be used
     scalapack distributed-memory algorithm (size of sub-group:  4*  4 procs)

     Message from routine setup:
     using ibrav=0 with symmetry is DISCOURAGED, use correct ibrav instead
 
     Parallelization info
     --------------------
     sticks:   dense  smooth     PW     G-vecs:    dense   smooth      PW
     Min         149      50     14                72165    13894    2172
     Max         150      51     15                72202    13919    2217
     Sum        2991    1007    289              1443693   278079   43709
 


     bravais-lattice index     =            0
     lattice parameter (alat)  =       7.4270  a.u.
     unit-cell volume          =    4425.7129 (a.u.)^3
     number of atoms/cell      =           28
     number of atomic types    =            4
     number of electrons       =       227.00
     number of Kohn-Sham states=          137
     kinetic-energy cutoff     =      60.0000  Ry
     charge density cutoff     =     720.0000  Ry
     convergence threshold     =      1.0E-10
     mixing beta               =       0.7000
     number of iterations used =           10  local-TF  mixing
     Exchange-correlation= SLA PW PBE PBE
                           (   1   4   3   4   0   0   0)
     nstep                     =          300


     celldm(1)=   7.427040  celldm(2)=   0.000000  celldm(3)=   0.000000
     celldm(4)=   0.000000  celldm(5)=   0.000000  celldm(6)=   0.000000

     crystal axes: (cart. coord. in units of alat)
               a(1) = (   1.000000   0.000000   0.000000 )  
               a(2) = (   0.000000   0.947081   0.000000 )  
               a(3) = (   0.000000   0.000000  11.406405 )  

     reciprocal axes: (cart. coord. in units 2 pi/alat)
               b(1) = (  1.000000  0.000000  0.000000 )  
               b(2) = (  0.000000  1.055876  0.000000 )  
               b(3) = (  0.000000  0.000000  0.087670 )  


     PseudoPot. # 1 for Ba read from file:
     ./pseudo/Ba.pbe-nsp-van.UPF
     MD5 check sum: 2b9c31dd849566dd297d80989662b7a0
     Pseudo is Ultrasoft + core correction, Zval = 10.0
     Generated by new atomic code, or converted to UPF format
     Using radial grid of  907 points,  6 beta functions with: 
                l(1) =   0
                l(2) =   0
                l(3) =   1
                l(4) =   1
                l(5) =   2
                l(6) =   2
     Q(r) pseudized with  6 coefficients,  rinner =    1.200   1.200   1.200
                                                       1.200   1.200

     PseudoPot. # 2 for Ca read from file:
     ./pseudo/Ca.pbe-nsp-van.UPF
     MD5 check sum: 6471098428ff4fa451746d08035ff179
     Pseudo is Ultrasoft + core correction, Zval = 10.0
     Generated by new atomic code, or converted to UPF format
     Using radial grid of  845 points,  6 beta functions with: 
                l(1) =   0
                l(2) =   0
                l(3) =   1
                l(4) =   1
                l(5) =   2
                l(6) =   2
     Q(r) pseudized with  6 coefficients,  rinner =    1.200   1.200   1.200
                                                       1.200   1.200

     PseudoPot. # 3 for Cu read from file:
     ./pseudo/Cu.pbe-n-van_ak.UPF
     MD5 check sum: 34e3282627ffb533726feb647e090d62
     Pseudo is Ultrasoft + core correction, Zval = 11.0
     Generated by new atomic code, or converted to UPF format
     Using radial grid of  867 points,  6 beta functions with: 
                l(1) =   0
                l(2) =   0
                l(3) =   1
                l(4) =   1
                l(5) =   2
                l(6) =   2
     Q(r) pseudized with  8 coefficients,  rinner =    1.400   1.400   1.400
                                                       1.400   1.400

     PseudoPot. # 4 for O  read from file:
     ./pseudo/O.pbe-van_ak.UPF
     MD5 check sum: 783ce7fe4c79b6a4916957118fed0856
     Pseudo is Ultrasoft, Zval =  6.0
     Generated by new atomic code, or converted to UPF format
     Using radial grid of  737 points,  4 beta functions with: 
                l(1) =   0
                l(2) =   0
                l(3) =   1
                l(4) =   1
     Q(r) pseudized with  8 coefficients,  rinner =    0.800   0.800   0.800


     atomic species   valence    mass     pseudopotential
        Ba            10.00   137.32700     Ba( 1.00)
        Ca            10.00    40.07800     Ca( 1.00)
        Cu            11.00    63.54600     Cu( 1.00)
        O              6.00    15.99900     O ( 1.00)

      4 Sym. Ops. (no inversion) found



   Cartesian axes

     site n.     atom                  positions (alat units)
         1           O   tau(   1) = (   0.0000000   0.4735409  -0.0469745  )
         2           Cu  tau(   2) = (   0.0000000   0.0000000   0.0264565  )
         3           O   tau(   3) = (   0.0000000   0.0000000   0.5030914  )
         4           Ba  tau(   4) = (   0.5000000   0.4735409   0.5690292  )
         5           Cu  tau(   5) = (   0.0000000   0.0000000   1.0374254  )
         6           O   tau(   6) = (   0.5000000   0.0000000   1.0768099  )
         7           O   tau(   7) = (   0.0000000   0.4735409   1.1116985  )
         8           Ca  tau(   8) = (   0.5000000   0.4735409   1.4976260  )
         9           O   tau(   9) = (   0.0000000   0.4735409   1.8667529  )
        10           O   tau(  10) = (   0.5000000   0.0000000   1.9044124  )
        11           Cu  tau(  11) = (   0.0000000   0.0000000   1.9512546  )
        12           Ba  tau(  12) = (   0.5000000   0.4735409   2.4295764  )
        13           O   tau(  13) = (   0.0000000   0.0000000   2.5115362  )
        14           O   tau(  14) = (   0.0000000   0.4735409   2.9918528  )
        15           Cu  tau(  15) = (   0.0000000   0.0000000   2.9919088  )
        16           O   tau(  16) = (   0.0000000   0.0000000   3.4722686  )
        17           Ba  tau(  17) = (   0.5000000   0.4735409   3.5542208  )
        18           Cu  tau(  18) = (   0.0000000   0.0000000   4.0325248  )
        19           O   tau(  19) = (   0.5000000   0.0000000   4.0793669  )
        20           O   tau(  20) = (   0.0000000   0.4735409   4.1170213  )
        21           Ca  tau(  21) = (   0.5000000   0.4735409   4.4861584  )
        22           O   tau(  22) = (   0.0000000   0.4735409   5.1901317  )
        23           O   tau(  23) = (   0.5000000   0.0000000   5.2250203  )
        24           Cu  tau(  24) = (   0.0000000   0.0000000   5.2644074  )
        25           Ba  tau(  25) = (   0.5000000   0.4735409   5.7328010  )
        26           O   tau(  26) = (   0.0000000   0.0000000   5.7987286  )
        27           Cu  tau(  27) = (   0.0000000   0.0000000   6.2753686  )
        28           O   tau(  28) = (   0.0000000   0.4735409   6.3487869  )

     number of k points=    25  Gaussian smearing, width (Ry)=  0.0100
                       cart. coord. in units 2pi/alat
        k(    1) = (   0.0000000   0.0000000   0.0000000), wk =   0.0312500
        k(    2) = (   0.0000000   0.1319845   0.0000000), wk =   0.0625000
        k(    3) = (   0.0000000   0.2639689   0.0000000), wk =   0.0625000
        k(    4) = (   0.0000000   0.3959534   0.0000000), wk =   0.0625000
        k(    5) = (   0.0000000  -0.5279378   0.0000000), wk =   0.0312500
        k(    6) = (   0.1250000   0.0000000   0.0000000), wk =   0.0625000
        k(    7) = (   0.1250000   0.1319845   0.0000000), wk =   0.1250000
        k(    8) = (   0.1250000   0.2639689   0.0000000), wk =   0.1250000
        k(    9) = (   0.1250000   0.3959534   0.0000000), wk =   0.1250000
        k(   10) = (   0.1250000  -0.5279378   0.0000000), wk =   0.0625000
        k(   11) = (   0.2500000   0.0000000   0.0000000), wk =   0.0625000
        k(   12) = (   0.2500000   0.1319845   0.0000000), wk =   0.1250000
        k(   13) = (   0.2500000   0.2639689   0.0000000), wk =   0.1250000
        k(   14) = (   0.2500000   0.3959534   0.0000000), wk =   0.1250000
        k(   15) = (   0.2500000  -0.5279378   0.0000000), wk =   0.0625000
        k(   16) = (   0.3750000   0.0000000   0.0000000), wk =   0.0625000
        k(   17) = (   0.3750000   0.1319845   0.0000000), wk =   0.1250000
        k(   18) = (   0.3750000   0.2639689   0.0000000), wk =   0.1250000
        k(   19) = (   0.3750000   0.3959534   0.0000000), wk =   0.1250000
        k(   20) = (   0.3750000  -0.5279378   0.0000000), wk =   0.0625000
        k(   21) = (  -0.5000000   0.0000000   0.0000000), wk =   0.0312500
        k(   22) = (  -0.5000000   0.1319845   0.0000000), wk =   0.0625000
        k(   23) = (  -0.5000000   0.2639689   0.0000000), wk =   0.0625000
        k(   24) = (  -0.5000000   0.3959534   0.0000000), wk =   0.0625000
        k(   25) = (  -0.5000000  -0.5279378   0.0000000), wk =   0.0312500

     Dense  grid:  1443693 G-vectors     FFT dimensions: (  64,  64, 729)

     Smooth grid:   278079 G-vectors     FFT dimensions: (  40,  36, 432)

     Estimated max dynamical RAM per process >     460.71 MB

     Estimated total dynamical RAM >       9.00 GB

     Initial potential from superposition of free atoms

     starting charge  226.84630, renormalised to  227.00000

     negative rho (up, down):  3.477E-03 0.000E+00
     Starting wfcs are  195 randomized atomic wfcs

     total cpu time spent up to now is       10.9 secs

     Self-consistent Calculation

     iteration #  1     ecut=    60.00 Ry     beta= 0.70
     Davidson diagonalization with overlap
     ethr =  1.00E-02,  avg # of iterations =  2.0

     negative rho (up, down):  2.884E-04 0.000E+00

     total cpu time spent up to now is       26.7 secs

     total energy              =   -1839.51807420 Ry
     Harris-Foulkes estimate   =   -1845.29699441 Ry
     estimated scf accuracy    <      17.67093548 Ry

     iteration #  2     ecut=    60.00 Ry     beta= 0.70
     Davidson diagonalization with overlap
     ethr =  7.78E-03,  avg # of iterations =  2.0

     negative rho (up, down):  2.672E-04 0.000E+00

     total cpu time spent up to now is       44.5 secs

     total energy              =   -1842.15756185 Ry
     Harris-Foulkes estimate   =   -1843.89237557 Ry
     estimated scf accuracy    <      14.78383711 Ry

     iteration #  3     ecut=    60.00 Ry     beta= 0.70
     Davidson diagonalization with overlap
     ethr =  6.51E-03,  avg # of iterations =  1.0

     negative rho (up, down):  2.485E-04 0.000E+00

     total cpu time spent up to now is       59.6 secs

     total energy              =   -1842.62587049 Ry
     Harris-Foulkes estimate   =   -1842.98867393 Ry
     estimated scf accuracy    <       3.08576768 Ry

     iteration #  4     ecut=    60.00 Ry     beta= 0.70
     Davidson diagonalization with overlap
     ethr =  1.36E-03,  avg # of iterations =  1.4

     negative rho (up, down):  2.433E-04 0.000E+00

     total cpu time spent up to now is       74.6 secs

     total energy              =   -1842.78380383 Ry
     Harris-Foulkes estimate   =   -1842.95436505 Ry
     estimated scf accuracy    <       7.89303036 Ry

     iteration #  5     ecut=    60.00 Ry     beta= 0.70
     Davidson diagonalization with overlap
     ethr =  1.36E-03,  avg # of iterations =  1.0

     negative rho (up, down):  2.408E-04 0.000E+00

     total cpu time spent up to now is       89.3 secs

     total energy              =   -1842.80828365 Ry
     Harris-Foulkes estimate   =   -1842.84816746 Ry
     estimated scf accuracy    <       3.06672902 Ry

     iteration #  6     ecut=    60.00 Ry     beta= 0.70
     Davidson diagonalization with overlap
     ethr =  1.35E-03,  avg # of iterations =  1.0

     negative rho (up, down):  2.365E-04 0.000E+00

     total cpu time spent up to now is      103.8 secs

     total energy              =   -1842.78710545 Ry
     Harris-Foulkes estimate   =   -1842.82234899 Ry
     estimated scf accuracy    <       1.99403870 Ry

     iteration #  7     ecut=    60.00 Ry     beta= 0.70
     Davidson diagonalization with overlap
     ethr =  8.78E-04,  avg # of iterations =  2.2

     negative rho (up, down):  2.359E-04 0.000E+00

     total cpu time spent up to now is      119.9 secs

     total energy              =   -1842.78287673 Ry
     Harris-Foulkes estimate   =   -1842.80921713 Ry
     estimated scf accuracy    <       1.61432917 Ry

     iteration #  8     ecut=    60.00 Ry     beta= 0.70
     Davidson diagonalization with overlap
     ethr =  7.11E-04,  avg # of iterations =  2.9

     negative rho (up, down):  2.336E-04 0.000E+00

     total cpu time spent up to now is      136.7 secs

     total energy              =   -1842.77667973 Ry
     Harris-Foulkes estimate   =   -1842.79477977 Ry
     estimated scf accuracy    <       0.94324017 Ry

     iteration #  9     ecut=    60.00 Ry     beta= 0.70
     Davidson diagonalization with overlap
     ethr =  4.16E-04,  avg # of iterations =  4.2

     negative rho (up, down):  2.328E-04 0.000E+00

     total cpu time spent up to now is      155.1 secs

     total energy              =   -1842.77669460 Ry
     Harris-Foulkes estimate   =   -1842.78303631 Ry
     estimated scf accuracy    <       0.14806602 Ry

     iteration # 10     ecut=    60.00 Ry     beta= 0.70
     Davidson diagonalization with overlap
     ethr =  6.52E-05,  avg # of iterations =  8.2

     negative rho (up, down):  2.325E-04 0.000E+00

     total cpu time spent up to now is      179.7 secs

     total energy              =   -1842.77786257 Ry
     Harris-Foulkes estimate   =   -1842.77969641 Ry
     estimated scf accuracy    <       0.08645019 Ry

     iteration # 11     ecut=    60.00 Ry     beta= 0.70
     Davidson diagonalization with overlap
     ethr =  3.81E-05,  avg # of iterations =  1.2

     negative rho (up, down):  2.322E-04 0.000E+00

     total cpu time spent up to now is      194.1 secs

     total energy              =   -1842.77726591 Ry
     Harris-Foulkes estimate   =   -1842.77913566 Ry
     estimated scf accuracy    <       0.12360890 Ry

     iteration # 12     ecut=    60.00 Ry     beta= 0.70
     Davidson diagonalization with overlap
     ethr =  3.81E-05,  avg # of iterations =  1.3

     negative rho (up, down):  2.326E-04 0.000E+00

     total cpu time spent up to now is      208.8 secs

     total energy              =   -1842.77648238 Ry
     Harris-Foulkes estimate   =   -1842.77795846 Ry
     estimated scf accuracy    <       0.12663094 Ry

     iteration # 13     ecut=    60.00 Ry     beta= 0.70
     Davidson diagonalization with overlap
     ethr =  3.81E-05,  avg # of iterations =  1.0

     negative rho (up, down):  2.341E-04 0.000E+00

     total cpu time spent up to now is      223.2 secs

     total energy              =   -1842.77544997 Ry
     Harris-Foulkes estimate   =   -1842.77691774 Ry
     estimated scf accuracy    <       0.08755368 Ry

     iteration # 14     ecut=    60.00 Ry     beta= 0.70
     Davidson diagonalization with overlap
     ethr =  3.81E-05,  avg # of iterations =  1.3

     negative rho (up, down):  5.424E-04 0.000E+00

     total cpu time spent up to now is      238.0 secs

     total energy              =   -1842.77412572 Ry
     Harris-Foulkes estimate   =   -1842.77572390 Ry
     estimated scf accuracy    <       0.07148811 Ry

     iteration # 15     ecut=    60.00 Ry     beta= 0.70
     Davidson diagonalization with overlap
     ethr =  3.15E-05,  avg # of iterations =  1.6

     negative rho (up, down):  5.149E-03 0.000E+00

     total cpu time spent up to now is      253.2 secs

     total energy              =   -1842.77253165 Ry
     Harris-Foulkes estimate   =   -1842.77436496 Ry
     estimated scf accuracy    <       0.05209169 Ry

     iteration # 16     ecut=    60.00 Ry     beta= 0.70
     Davidson diagonalization with overlap
     ethr =  2.29E-05,  avg # of iterations =  5.8

     negative rho (up, down):  1.511E-02 0.000E+00

     total cpu time spent up to now is      274.1 secs

     total energy              =   -1842.77174996 Ry
     Harris-Foulkes estimate   =   -1842.77285370 Ry
     estimated scf accuracy    <       0.02291163 Ry

     iteration # 17     ecut=    60.00 Ry     beta= 0.70
     Davidson diagonalization with overlap
     ethr =  1.01E-05,  avg # of iterations =  9.5

     negative rho (up, down):  1.006E-02 0.000E+00

     total cpu time spent up to now is      299.4 secs

     total energy              =   -1842.77149705 Ry
     Harris-Foulkes estimate   =   -1842.77216595 Ry
     estimated scf accuracy    <       0.01251873 Ry

     iteration # 18     ecut=    60.00 Ry     beta= 0.70
     Davidson diagonalization with overlap
     c_bands:  1 eigenvalues not converged
     ethr =  5.51E-06,  avg # of iterations =  6.6

     negative rho (up, down):  5.947E-03 0.000E+00

     total cpu time spent up to now is      320.5 secs

     total energy              =   -1842.77133418 Ry
     Harris-Foulkes estimate   =   -1842.77163474 Ry
     estimated scf accuracy    <       0.00892512 Ry

     iteration # 19     ecut=    60.00 Ry     beta= 0.70
     Davidson diagonalization with overlap
     c_bands:  1 eigenvalues not converged
     ethr =  3.93E-06,  avg # of iterations =  4.9

     negative rho (up, down):  4.497E-03 0.000E+00

     total cpu time spent up to now is      339.3 secs

     total energy              =   -1842.77130656 Ry
     Harris-Foulkes estimate   =   -1842.77139884 Ry
     estimated scf accuracy    <       0.00255483 Ry

     iteration # 20     ecut=    60.00 Ry     beta= 0.70
     Davidson diagonalization with overlap
     ethr =  1.13E-06,  avg # of iterations =  3.7

     negative rho (up, down):  1.018E-03 0.000E+00

     total cpu time spent up to now is      356.7 secs

     total energy              =   -1842.77130830 Ry
     Harris-Foulkes estimate   =   -1842.77135621 Ry
     estimated scf accuracy    <       0.00124937 Ry

     iteration # 21     ecut=    60.00 Ry     beta= 0.70
     Davidson diagonalization with overlap
     c_bands:  1 eigenvalues not converged
     ethr =  5.50E-07,  avg # of iterations =  7.8

     negative rho (up, down):  5.300E-04 0.000E+00

     total cpu time spent up to now is      379.3 secs

     total energy              =   -1842.77133484 Ry
     Harris-Foulkes estimate   =   -1842.77135149 Ry
     estimated scf accuracy    <       0.00075635 Ry

     iteration # 22     ecut=    60.00 Ry     beta= 0.70
     Davidson diagonalization with overlap
     ethr =  3.33E-07,  avg # of iterations =  3.0

     negative rho (up, down):  5.185E-04 0.000E+00

     total cpu time spent up to now is      396.1 secs

     total energy              =   -1842.77134512 Ry
     Harris-Foulkes estimate   =   -1842.77134588 Ry
     estimated scf accuracy    <       0.00017122 Ry

     iteration # 23     ecut=    60.00 Ry     beta= 0.70
     Davidson diagonalization with overlap
     ethr =  7.54E-08,  avg # of iterations =  5.0

     negative rho (up, down):  9.852E-04 0.000E+00

     total cpu time spent up to now is      415.5 secs

     total energy              =   -1842.77134756 Ry
     Harris-Foulkes estimate   =   -1842.77135428 Ry
     estimated scf accuracy    <       0.00016929 Ry

     iteration # 24     ecut=    60.00 Ry     beta= 0.70
     Davidson diagonalization with overlap
     ethr =  7.46E-08,  avg # of iterations =  1.0

     negative rho (up, down):  1.296E-03 0.000E+00

     total cpu time spent up to now is      430.0 secs

     total energy              =   -1842.77135363 Ry
     Harris-Foulkes estimate   =   -1842.77135412 Ry
     estimated scf accuracy    <       0.00004390 Ry

     iteration # 25     ecut=    60.00 Ry     beta= 0.70
     Davidson diagonalization with overlap
     ethr =  1.93E-08,  avg # of iterations =  1.4

     negative rho (up, down):  1.451E-03 0.000E+00

     total cpu time spent up to now is      444.7 secs

     total energy              =   -1842.77135513 Ry
     Harris-Foulkes estimate   =   -1842.77135552 Ry
     estimated scf accuracy    <       0.00000482 Ry

     iteration # 26     ecut=    60.00 Ry     beta= 0.70
     Davidson diagonalization with overlap
     ethr =  2.12E-09,  avg # of iterations =  3.6

     negative rho (up, down):  1.486E-03 0.000E+00

     total cpu time spent up to now is      462.6 secs

     total energy              =   -1842.77135555 Ry
     Harris-Foulkes estimate   =   -1842.77135572 Ry
     estimated scf accuracy    <       0.00000505 Ry

     iteration # 27     ecut=    60.00 Ry     beta= 0.70
     Davidson diagonalization with overlap
     ethr =  2.12E-09,  avg # of iterations =  1.0

     negative rho (up, down):  1.458E-03 0.000E+00

     total cpu time spent up to now is      477.3 secs

     total energy              =   -1842.77135566 Ry
     Harris-Foulkes estimate   =   -1842.77135567 Ry
     estimated scf accuracy    <       0.00000115 Ry

     iteration # 28     ecut=    60.00 Ry     beta= 0.70
     Davidson diagonalization with overlap
     ethr =  5.06E-10,  avg # of iterations =  1.5

     negative rho (up, down):  1.506E-03 0.000E+00

     total cpu time spent up to now is      492.4 secs

     total energy              =   -1842.77135559 Ry
     Harris-Foulkes estimate   =   -1842.77135570 Ry
     estimated scf accuracy    <       0.00000048 Ry

     iteration # 29     ecut=    60.00 Ry     beta= 0.70
     Davidson diagonalization with overlap
     ethr =  2.13E-10,  avg # of iterations =  1.9

     negative rho (up, down):  1.476E-03 0.000E+00

     total cpu time spent up to now is      508.1 secs

     total energy              =   -1842.77135565 Ry
     Harris-Foulkes estimate   =   -1842.77135564 Ry
     estimated scf accuracy    <       0.00000055 Ry

     iteration # 30     ecut=    60.00 Ry     beta= 0.70
     Davidson diagonalization with overlap
     ethr =  2.13E-10,  avg # of iterations =  1.0

     negative rho (up, down):  1.484E-03 0.000E+00

     total cpu time spent up to now is      522.7 secs

     total energy              =   -1842.77135565 Ry
     Harris-Foulkes estimate   =   -1842.77135567 Ry
     estimated scf accuracy    <       0.00000006 Ry

     iteration # 31     ecut=    60.00 Ry     beta= 0.70
     Davidson diagonalization with overlap
     ethr =  2.86E-11,  avg # of iterations =  3.1

     negative rho (up, down):  1.483E-03 0.000E+00

     total cpu time spent up to now is      540.4 secs

     total energy              =   -1842.77135565 Ry
     Harris-Foulkes estimate   =   -1842.77135565 Ry
     estimated scf accuracy    <       0.00000009 Ry

     iteration # 32     ecut=    60.00 Ry     beta= 0.70
     Davidson diagonalization with overlap
     ethr =  2.86E-11,  avg # of iterations =  1.0

     negative rho (up, down):  1.485E-03 0.000E+00

     total cpu time spent up to now is      554.7 secs

     total energy              =   -1842.77135565 Ry
     Harris-Foulkes estimate   =   -1842.77135565 Ry
     estimated scf accuracy    <       0.00000007 Ry

     iteration # 33     ecut=    60.00 Ry     beta= 0.70
     Davidson diagonalization with overlap
     ethr =  2.86E-11,  avg # of iterations =  1.0

     negative rho (up, down):  1.492E-03 0.000E+00

     total cpu time spent up to now is      569.2 secs

     total energy              =   -1842.77135564 Ry
     Harris-Foulkes estimate   =   -1842.77135565 Ry
     estimated scf accuracy    <       0.00000001 Ry

     iteration # 34     ecut=    60.00 Ry     beta= 0.70
     Davidson diagonalization with overlap
     ethr =  6.05E-12,  avg # of iterations =  1.6

     negative rho (up, down):  1.493E-03 0.000E+00

     total cpu time spent up to now is      584.4 secs

     total energy              =   -1842.77135564 Ry
     Harris-Foulkes estimate   =   -1842.77135564 Ry
     estimated scf accuracy    <       0.00000001 Ry

     iteration # 35     ecut=    60.00 Ry     beta= 0.70
     Davidson diagonalization with overlap
     ethr =  5.88E-12,  avg # of iterations =  1.0

     negative rho (up, down):  1.494E-03 0.000E+00

     total cpu time spent up to now is      598.8 secs

     total energy              =   -1842.77135563 Ry
     Harris-Foulkes estimate   =   -1842.77135564 Ry
     estimated scf accuracy    <          5.9E-09 Ry

     iteration # 36     ecut=    60.00 Ry     beta= 0.70
     Davidson diagonalization with overlap
     ethr =  2.59E-12,  avg # of iterations =  1.0

     negative rho (up, down):  1.495E-03 0.000E+00

     total cpu time spent up to now is      613.3 secs

     total energy              =   -1842.77135563 Ry
     Harris-Foulkes estimate   =   -1842.77135563 Ry
     estimated scf accuracy    <          3.6E-09 Ry

     iteration # 37     ecut=    60.00 Ry     beta= 0.70
     Davidson diagonalization with overlap
     ethr =  1.57E-12,  avg # of iterations =  1.0

     negative rho (up, down):  1.493E-03 0.000E+00

     total cpu time spent up to now is      627.7 secs

     total energy              =   -1842.77135564 Ry
     Harris-Foulkes estimate   =   -1842.77135563 Ry
     estimated scf accuracy    <          1.2E-09 Ry

     iteration # 38     ecut=    60.00 Ry     beta= 0.70
     Davidson diagonalization with overlap
     ethr =  5.46E-13,  avg # of iterations =  1.4

     negative rho (up, down):  1.494E-03 0.000E+00

     total cpu time spent up to now is      642.7 secs

     total energy              =   -1842.77135563 Ry
     Harris-Foulkes estimate   =   -1842.77135564 Ry
     estimated scf accuracy    <          1.2E-09 Ry

     iteration # 39     ecut=    60.00 Ry     beta= 0.70
     Davidson diagonalization with overlap
     ethr =  5.40E-13,  avg # of iterations =  1.2

     negative rho (up, down):  1.494E-03 0.000E+00

     total cpu time spent up to now is      657.2 secs

     total energy              =   -1842.77135564 Ry
     Harris-Foulkes estimate   =   -1842.77135563 Ry
     estimated scf accuracy    <          1.3E-10 Ry

     iteration # 40     ecut=    60.00 Ry     beta= 0.70
     Davidson diagonalization with overlap
     ethr =  1.00E-13,  avg # of iterations =  2.8

     negative rho (up, down):  1.494E-03 0.000E+00

     total cpu time spent up to now is      674.0 secs

     total energy              =   -1842.77135563 Ry
     Harris-Foulkes estimate   =   -1842.77135563 Ry
     estimated scf accuracy    <          2.2E-10 Ry

     iteration # 41     ecut=    60.00 Ry     beta= 0.70
     Davidson diagonalization with overlap
     ethr =  1.00E-13,  avg # of iterations =  1.0

     negative rho (up, down):  1.495E-03 0.000E+00

     total cpu time spent up to now is      687.9 secs

     End of self-consistent calculation

          k = 0.0000 0.0000 0.0000 ( 34843 PWs)   bands (ev):

   -37.9768 -35.5751 -22.7799 -22.7411 -22.6758 -22.5199 -19.0280 -18.9828
   -18.9662 -17.0796 -16.6264 -16.6149 -15.4936 -15.2902 -15.0102 -14.8436
   -14.6602 -14.6374 -14.5608 -14.3687 -14.1702 -14.1644 -13.9707 -13.8120
   -13.7521 -13.6786 -13.6322  -7.9483  -7.9112  -7.8737  -7.7842  -7.7710
    -7.7563  -7.7009  -7.6808  -7.6140  -7.5877  -7.5647  -7.3987  -2.3187
    -2.3056  -2.2680  -2.1615  -2.0514  -1.8187  -1.7550  -1.6569  -1.5593
    -1.5423  -1.5272  -1.4722  -1.2224  -1.2090  -1.2030  -1.0808  -1.0402
    -0.8445  -0.7302  -0.6038  -0.4473  -0.4349  -0.4320  -0.3654  -0.3191
    -0.2974  -0.2534  -0.2383  -0.2333  -0.2300  -0.1978  -0.1955  -0.1726
    -0.1528  -0.0932  -0.0260   0.0016   0.1100   0.1103   0.1141   0.1359
     0.1418   0.1807   0.1847   0.1868   0.2284   0.3203   0.3224   0.3352
     0.4118   0.7663   0.8108   0.8931   0.9165   0.9725   1.0256   1.0274
     1.1114   1.1830   1.1981   1.3606   1.3802   1.4394   1.4853   1.5344
     1.5445   1.5701   1.6505   1.7323   1.8403   2.0466   2.0650   2.0975
     2.1539   2.1624   2.2150   2.2703   2.2860   2.5304   2.5472   4.2505
     5.2275   5.2783   5.8908   6.3129   6.5922   6.7746   6.7789   6.9779
     7.2220   7.5432   7.7438   7.9903   8.1602   8.2135   8.2409   8.2511
     8.4599

          k = 0.0000 0.1320 0.0000 ( 34781 PWs)   bands (ev):

   -37.9753 -35.5733 -22.7533 -22.7157 -22.6490 -22.4945 -19.0422 -18.9872
   -18.9644 -17.0434 -16.6875 -16.6240 -15.4391 -15.2015 -14.9585 -14.7899
   -14.6653 -14.6310 -14.5335 -14.3983 -14.1797 -14.1714 -13.9762 -13.8576
   -13.7988 -13.7114 -13.6897  -7.9466  -7.9108  -7.8259  -7.7551  -7.7359
    -7.7267  -7.7231  -7.7019  -7.6583  -7.6292  -7.5195  -7.4463  -2.4762
    -2.3773  -2.3408  -2.2710  -2.1540  -2.0440  -2.0154  -1.9288  -1.6649
    -1.6366  -1.6332  -1.6245  -1.5095  -1.4566  -1.3316  -1.2180  -1.1211
    -0.9836  -0.7527  -0.6579  -0.6170  -0.5447  -0.5222  -0.4851  -0.4497
    -0.4327  -0.3759  -0.3649  -0.3453  -0.3266  -0.1968  -0.1507  -0.1366
    -0.1306  -0.0553  -0.0150  -0.0045   0.0181   0.0200   0.1244   0.1336
     0.1412   0.1624   0.1940   0.1964   0.2522   0.2890   0.3808   0.4677
     0.6533   0.7197   0.8822   0.9585   1.0685   1.0903   1.1266   1.1333
     1.1514   1.1593   1.1997   1.4065   1.4427   1.4477   1.4806   1.5031
     1.5401   1.6230   1.6356   1.7096   1.8284   1.9626   1.9963   2.0675
     2.0699   2.0745   2.1529   2.4816   2.8069   2.8366   2.8759   4.4776
     5.6041   5.6354   6.1599   6.5816   6.7217   6.9890   7.0793   7.2091
     7.4884   7.5866   7.6886   8.1628   8.2266   8.2578   8.3404   8.5062
     8.7159

          k = 0.0000 0.2640 0.0000 ( 34663 PWs)   bands (ev):

   -37.9718 -35.5689 -22.6874 -22.6533 -22.5827 -22.4318 -19.0990 -18.9742
   -18.9601 -16.9513 -16.8418 -16.6184 -15.2913 -15.0019 -14.8646 -14.7141
   -14.6519 -14.6059 -14.4922 -14.4716 -14.1670 -14.1522 -14.0160 -13.9866
   -13.8973 -13.8025 -13.8018  -7.9434  -7.9104  -7.8134  -7.7696  -7.7528
    -7.7186  -7.7054  -7.6894  -7.6155  -7.6141  -7.5492  -7.4061  -2.9636
    -2.8225  -2.7094  -2.6498  -2.5894  -2.4173  -2.3901  -2.2699  -2.2564
    -2.2340  -1.9080  -1.6993  -1.5828  -1.4700  -1.4531  -1.3497  -1.2179
    -1.2082  -1.0286  -0.9571  -0.8821  -0.8244  -0.7958  -0.7583  -0.6886
    -0.6401  -0.6282  -0.5240  -0.5094  -0.5062  -0.4860  -0.4655  -0.4454
    -0.3046  -0.0976  -0.0533  -0.0114   0.0238   0.0474   0.1052   0.1749
     0.1914   0.2041   0.2327   0.3836   0.5740   0.6293   0.7092   0.7239
     0.8594   0.9157   0.9777   1.0063   1.1419   1.1715   1.1757   1.2053
     1.2083   1.2182   1.3219   1.3387   1.3769   1.3826   1.3956   1.6450
     1.6789   1.6921   1.7949   1.9152   1.9467   1.9848   1.9902   1.9913
     2.1194   2.1513   2.1867   2.5994   3.0515   3.0788   3.7143   4.9634
     6.4980   6.5211   6.7406   6.9605   7.2875   7.2886   7.3204   7.8996
     7.9695   8.1511   8.3257   8.3455   8.4254   8.6679   8.8047   8.8334
     9.0088

          k = 0.0000 0.3960 0.0000 ( 34610 PWs)   bands (ev):

   -37.9682 -35.5645 -22.6192 -22.5888 -22.5141 -22.3670 -19.1604 -18.9558
   -18.9552 -16.9781 -16.8497 -16.6127 -15.0907 -14.9232 -14.8930 -14.6789
   -14.6715 -14.4811 -14.4442 -14.4047 -14.1371 -14.0950 -14.0897 -14.0809
   -14.0374 -13.9460 -13.8742  -7.9380  -7.9103  -7.8916  -7.8601  -7.7978
    -7.7485  -7.6854  -7.6388  -7.5770  -7.4978  -7.4842  -7.2858  -3.4586
    -3.3277  -3.2774  -3.1328  -3.0479  -2.9842  -2.9663  -2.3607  -2.3488
    -2.2746  -2.0284  -1.7981  -1.7370  -1.7140  -1.5175  -1.3812  -1.3623
    -1.2005  -1.1600  -1.1447  -1.0939  -1.0639  -1.0340  -1.0161  -0.9419
    -0.9274  -0.8508  -0.8078  -0.7393  -0.7327  -0.6967  -0.5810  -0.5174
    -0.3242  -0.2176  -0.1053  -0.0008   0.0407   0.0652   0.1102   0.1367
     0.1649   0.1766   0.1781   0.5037   0.7931   0.8211   0.8899   0.9348
     0.9534   0.9598   0.9955   1.0364   1.0906   1.1150   1.1467   1.1490
     1.1688   1.3806   1.4621   1.5174   1.5309   1.6306   1.6378   1.7108
     1.7382   1.7592   1.9378   1.9949   2.0145   2.0758   2.1200   2.1820
     2.2647   2.3790   2.3879   2.5239   2.9458   2.9757   4.2720   5.5052
     6.9145   7.0476   7.3822   7.4459   7.4707   7.6085   8.2686   8.3485
     8.3804   8.6465   8.6959   8.7828   9.1017   9.1042   9.1699   9.2972
     9.4161

          k = 0.0000-0.5279 0.0000 ( 34682 PWs)   bands (ev):

   -37.9667 -35.5627 -22.5902 -22.5615 -22.4850 -22.3395 -19.1858 -18.9540
   -18.9470 -17.0302 -16.8047 -16.6104 -14.9654 -14.9337 -14.9038 -14.8510
   -14.5577 -14.4815 -14.2812 -14.2639 -14.2333 -14.1281 -14.1161 -14.0820
   -14.0612 -14.0531 -13.9098  -7.9301  -7.9213  -7.9099  -7.9002  -7.8269
    -7.7473  -7.6798  -7.6764  -7.5211  -7.4469  -7.4276  -7.2337  -3.7143
    -3.4922  -3.4562  -3.3254  -3.2265  -3.2042  -3.1925  -2.3768  -2.3658
    -2.2873  -2.1546  -1.9282  -1.8506  -1.5882  -1.4841  -1.4612  -1.3243
    -1.3038  -1.2453  -1.1971  -1.1896  -1.1789  -1.1294  -1.0436  -1.0366
    -1.0327  -0.9652  -0.9227  -0.8260  -0.8168  -0.7727  -0.6185  -0.5244
    -0.3181  -0.2897  -0.0853   0.0368   0.0381   0.0464   0.0712   0.1307
     0.1669   0.1702   0.1817   0.4333   0.7252   0.8258   0.8604   0.8685
     0.8715   1.0131   1.0671   1.0860   1.1297   1.1345   1.1505   1.2725
     1.3334   1.3864   1.4940   1.5846   1.6001   1.7393   1.7485   1.7816
     1.8351   1.9378   2.0241   2.0312   2.0564   2.0760   2.1864   2.2098
     2.2418   2.4948   2.5406   2.5490   2.7683   2.8027   4.4433   5.8058
     6.8301   6.9584   7.6799   7.6844   7.8580   7.9267   8.4022   8.4042
     8.7068   8.9464   8.9793   9.0178   9.1530   9.2551   9.2709   9.3239
     9.3583

          k = 0.1250 0.0000 0.0000 ( 34755 PWs)   bands (ev):

   -37.9760 -35.5741 -22.7619 -22.7240 -22.6576 -22.5027 -19.0358 -18.9818
   -18.9736 -17.0461 -16.7066 -16.6136 -15.4472 -15.1879 -14.9755 -14.8664
   -14.7058 -14.6707 -14.5661 -14.3934 -14.1792 -14.1728 -13.9827 -13.8354
   -13.8067 -13.7102 -13.6606  -7.9830  -7.9370  -7.8119  -7.8040  -7.7518
    -7.6996  -7.6941  -7.6483  -7.5842  -7.5548  -7.5039  -7.3682  -2.3618
    -2.3413  -2.3378  -2.1869  -2.1288  -1.8610  -1.8010  -1.7963  -1.7263
    -1.5589  -1.5193  -1.5169  -1.4423  -1.2070  -1.2009  -1.1193  -1.0613
    -0.8751  -0.8316  -0.6699  -0.6107  -0.5030  -0.4897  -0.4532  -0.4233
    -0.4205  -0.3697  -0.3279  -0.3039  -0.3014  -0.2567  -0.2041  -0.1861
    -0.1606  -0.1005  -0.0790  -0.0366   0.1030   0.1076   0.1139   0.1464
     0.2047   0.2058   0.2329   0.2851   0.2914   0.3618   0.3906   0.4330
     0.5563   0.6538   0.8023   0.8288   0.8819   0.9113   1.0278   1.1263
     1.1364   1.1989   1.2234   1.3582   1.3778   1.3781   1.4963   1.5302
     1.5462   1.6564   1.6960   1.8778   1.9577   1.9957   2.0311   2.1133
     2.1304   2.1867   2.2002   2.2257   2.3360   2.5819   2.5943   4.4372
     5.4080   5.4437   6.0648   6.4921   6.6974   6.9124   6.9890   7.1647
     7.4292   7.5593   7.6691   8.1116   8.1622   8.2598   8.2995   8.4869
     8.7392

          k = 0.1250 0.1320 0.0000 ( 34736 PWs)   bands (ev):

   -37.9745 -35.5722 -22.7360 -22.6994 -22.6316 -22.4780 -19.0442 -19.0000
   -18.9637 -17.0110 -16.7097 -16.6767 -15.3943 -15.1067 -14.9291 -14.8101
   -14.7001 -14.6536 -14.5362 -14.4184 -14.1802 -14.1715 -13.9885 -13.8719
   -13.8441 -13.7401 -13.7086  -7.9767  -7.9562  -7.8742  -7.8471  -7.8218
    -7.7360  -7.7218  -7.6106  -7.5977  -7.5387  -7.5176  -7.3274  -2.5009
    -2.4138  -2.3668  -2.2833  -2.1738  -2.1350  -2.0218  -1.9095  -1.8401
    -1.7711  -1.6754  -1.6273  -1.6249  -1.5284  -1.4419  -1.3338  -1.1578
    -1.0052  -0.9257  -0.7920  -0.6754  -0.6561  -0.6324  -0.5557  -0.5342
    -0.5016  -0.4901  -0.4743  -0.4040  -0.3549  -0.2550  -0.1947  -0.1528
    -0.1262  -0.1212  -0.0327  -0.0088   0.0231   0.0241   0.1086   0.1649
     0.1721   0.2003   0.2313   0.2393   0.2711   0.3013   0.5301   0.6977
     0.7281   0.7563   0.8859   0.9875   1.0451   1.0734   1.0799   1.1473
     1.1905   1.2333   1.2813   1.2961   1.3342   1.4437   1.4797   1.5193
     1.6035   1.6233   1.6676   1.6747   1.7812   1.8445   1.9729   2.1880
     2.3354   2.3624   2.5406   2.5676   2.8206   2.8436   2.8891   4.6073
     5.7465   5.7723   6.2802   6.7307   6.8047   7.0747   7.2847   7.4007
     7.4930   7.6568   7.7701   8.1340   8.3113   8.3742   8.4697   8.6592
     8.8760

          k = 0.1250 0.2640 0.0000 ( 34685 PWs)   bands (ev):

   -37.9710 -35.5678 -22.6722 -22.6387 -22.5674 -22.4171 -19.0972 -19.0006
   -18.9495 -16.9218 -16.8387 -16.6893 -15.2510 -14.9327 -14.8505 -14.7004
   -14.6623 -14.5906 -14.5013 -14.4662 -14.1624 -14.1459 -14.0378 -13.9792
   -13.9060 -13.8222 -13.8092  -8.0253  -7.9684  -7.9426  -7.9314  -7.9112
    -7.7535  -7.7386  -7.6972  -7.6012  -7.5298  -7.5086  -7.3217  -2.9902
    -2.8456  -2.6998  -2.6591  -2.5982  -2.4178  -2.3864  -2.2693  -2.2580
    -2.2547  -2.0925  -1.7908  -1.7453  -1.6460  -1.5014  -1.4785  -1.3747
    -1.2452  -1.0707  -1.0098  -0.9939  -0.9679  -0.8748  -0.8491  -0.8225
    -0.7543  -0.6825  -0.6643  -0.6193  -0.5558  -0.4908  -0.4880  -0.4755
    -0.3114  -0.1748  -0.1265  -0.0451  -0.0328   0.0675   0.1359   0.2100
     0.2666   0.3144   0.4047   0.5087   0.7133   0.7415   0.7763   0.7785
     0.8147   1.0299   1.0372   1.0975   1.1006   1.1158   1.2563   1.3163
     1.3355   1.3637   1.3905   1.4075   1.4308   1.4391   1.4945   1.5406
     1.6124   1.6562   1.7009   1.8535   1.9487   1.9649   2.0283   2.2232
     2.5340   2.5684   2.7029   2.7947   3.0624   3.0906   3.7151   5.0232
     6.5590   6.5829   6.7371   6.9933   7.1711   7.3478   7.3989   8.0639
     8.0887   8.1331   8.2445   8.5576   8.5997   8.7895   8.8650   8.9292
     9.0428

          k = 0.1250 0.3960 0.0000 ( 34670 PWs)   bands (ev):

   -37.9674 -35.5635 -22.6062 -22.5762 -22.5011 -22.3543 -19.1583 -18.9925
   -18.9344 -16.9729 -16.8231 -16.6807 -15.0568 -14.8883 -14.8632 -14.6655
   -14.5977 -14.4709 -14.4217 -14.3944 -14.1329 -14.1165 -14.0878 -14.0709
   -14.0212 -13.9483 -13.8688  -8.0557  -8.0138  -7.9620  -7.9491  -7.9227
    -7.7922  -7.7617  -7.7062  -7.6462  -7.5607  -7.5533  -7.3613  -3.4629
    -3.3626  -3.3177  -3.1528  -3.0766  -2.9758  -2.9594  -2.3689  -2.3537
    -2.2940  -2.0333  -1.8739  -1.7810  -1.6540  -1.6436  -1.5841  -1.4653
    -1.4052  -1.3681  -1.3123  -1.1813  -1.1391  -1.1046  -1.1004  -1.0083
    -0.9349  -0.8768  -0.8609  -0.8146  -0.8105  -0.7443  -0.7411  -0.5595
    -0.3614  -0.1965  -0.1652  -0.0572  -0.0187   0.1298   0.1954   0.2157
     0.2831   0.3388   0.4452   0.6782   0.7048   0.9122   0.9292   0.9701
     0.9955   1.0676   1.0940   1.1461   1.2003   1.2401   1.2507   1.2879
     1.3421   1.4574   1.5011   1.5675   1.5787   1.6628   1.7310   1.7681
     1.7741   1.8787   1.9670   2.0635   2.0824   2.3461   2.3555   2.3625
     2.4933   2.5345   2.6160   2.7262   3.0041   3.0237   4.2530   5.5089
     6.9174   6.9958   7.1288   7.3106   7.3455   7.6363   8.1397   8.2840
     8.3838   8.6663   8.6936   8.7653   8.9278   9.2303   9.3945   9.4277
     9.5668

          k = 0.1250-0.5279 0.0000 ( 34632 PWs)   bands (ev):

   -37.9659 -35.5616 -22.5783 -22.5497 -22.4730 -22.3277 -19.1836 -18.9892
   -18.9276 -17.0246 -16.7797 -16.6770 -14.9207 -14.8906 -14.8661 -14.8392
   -14.4853 -14.4427 -14.2768 -14.2633 -14.2131 -14.1488 -14.1029 -14.0646
   -14.0621 -14.0515 -13.8938  -8.0504  -8.0232  -7.9562  -7.9459  -7.9275
    -7.8037  -7.7665  -7.7149  -7.6804  -7.5867  -7.5785  -7.3866  -3.7103
    -3.5461  -3.5047  -3.3492  -3.2548  -3.2041  -3.1875  -2.3899  -2.3761
    -2.3079  -2.0655  -1.8114  -1.7504  -1.7341  -1.7079  -1.6009  -1.5067
    -1.4728  -1.4321  -1.3514  -1.3461  -1.2466  -1.2215  -1.1865  -1.0361
    -1.0314  -0.9366  -0.9318  -0.8887  -0.8787  -0.8389  -0.8382  -0.5763
    -0.3496  -0.2115  -0.1702  -0.0632   0.0037   0.1449   0.2147   0.2247
     0.3028   0.3152   0.4459   0.6551   0.7185   0.8795   0.9436   0.9666
     0.9668   1.0083   1.0385   1.2253   1.2454   1.2850   1.3160   1.3645
     1.3729   1.4892   1.5198   1.6037   1.7848   1.7897   1.8128   2.0190
     2.0430   2.0495   2.0518   2.2320   2.2527   2.3566   2.3946   2.4463
     2.4802   2.5115   2.5215   2.5686   2.8767   2.8858   4.4140   5.7590
     6.8704   6.9187   7.2204   7.5320   7.6161   7.7214   8.3253   8.3313
     8.5573   8.7324   9.0606   9.1927   9.2763   9.3252   9.3857   9.4011
     9.5508

          k = 0.2500 0.0000 0.0000 ( 34786 PWs)   bands (ev):

   -37.9741 -35.5714 -22.7176 -22.6823 -22.6129 -22.4605 -19.0722 -18.9795
   -18.9731 -16.9608 -16.8708 -16.6103 -15.3251 -14.9902 -14.9422 -14.9299
   -14.7873 -14.6967 -14.5900 -14.4687 -14.1933 -14.1834 -14.0315 -13.9440
   -13.8677 -13.7975 -13.7171  -8.0233  -7.9384  -7.7945  -7.7453  -7.7253
    -7.6254  -7.6224  -7.5676  -7.5104  -7.4730  -7.4197  -7.2926  -2.6655
    -2.5545  -2.4561  -2.3666  -2.1983  -2.1609  -2.0542  -2.0335  -1.7356
    -1.6368  -1.5105  -1.4601  -1.4534  -1.2302  -1.2036  -1.1974  -1.1223
    -1.1048  -0.9587  -0.9489  -0.8313  -0.7692  -0.7583  -0.7145  -0.6266
    -0.6225  -0.5195  -0.4942  -0.4916  -0.4612  -0.2956  -0.2607  -0.2395
    -0.2198  -0.1832  -0.1767  -0.0777   0.0782   0.0903   0.0944   0.1959
     0.2399   0.2785   0.3349   0.3863   0.3945   0.4623   0.4701   0.5583
     0.6510   0.6710   0.7580   0.9207   0.9550   0.9924   1.0516   1.1044
     1.2253   1.2574   1.2914   1.3191   1.3486   1.4016   1.4299   1.4635
     1.5885   1.6681   1.7507   1.8670   1.9047   2.0118   2.0522   2.0526
     2.1405   2.2286   2.2841   2.4005   2.5027   2.6899   2.7359   4.8687
     5.8654   5.8844   6.4096   6.7524   7.0563   7.1743   7.5141   7.5657
     7.6869   7.8099   8.0064   8.2906   8.3298   8.5129   8.6362   8.8197
     9.0400

          k = 0.2500 0.1320 0.0000 ( 34751 PWs)   bands (ev):

   -37.9726 -35.5696 -22.6937 -22.6594 -22.5889 -22.4376 -19.0703 -19.0159
   -18.9552 -16.9287 -16.8644 -16.6764 -15.2764 -14.9399 -14.9083 -14.8665
   -14.7382 -14.6517 -14.5546 -14.4815 -14.1792 -14.1687 -14.0297 -13.9473
   -13.9025 -13.8185 -13.7445  -8.0393  -8.0070  -7.8995  -7.8620  -7.8251
    -7.7652  -7.7199  -7.6014  -7.5340  -7.4683  -7.4411  -7.2590  -2.7372
    -2.6044  -2.4800  -2.3986  -2.2916  -2.1900  -2.1499  -2.0817  -2.0451
    -1.9452  -1.8575  -1.6981  -1.6178  -1.6097  -1.4443  -1.3869  -1.2957
    -1.1793  -1.1185  -1.0393  -0.9991  -0.9318  -0.8705  -0.8193  -0.6685
    -0.6214  -0.6047  -0.6024  -0.5226  -0.4427  -0.3430  -0.3249  -0.2322
    -0.2045  -0.1741  -0.0206   0.0116   0.0355   0.0621   0.1410   0.1978
     0.2033   0.2540   0.2783   0.3413   0.3447   0.5875   0.6363   0.7817
     0.8574   0.9063   0.9352   0.9510   1.0769   1.0997   1.1341   1.1874
     1.2292   1.2908   1.3170   1.3444   1.3906   1.4455   1.4889   1.5119
     1.5455   1.6224   1.6804   1.7379   1.7573   1.9083   2.0057   2.3275
     2.6167   2.6785   2.7902   2.8688   2.8831   2.9495   2.9635   4.9546
     6.1266   6.1465   6.5133   6.7860   7.2058   7.2621   7.3668   7.8228
     7.8912   7.9861   8.1266   8.3269   8.5055   8.6327   8.7792   8.9323
     9.1171

          k = 0.2500 0.2640 0.0000 ( 34733 PWs)   bands (ev):

   -37.9691 -35.5653 -22.6350 -22.6032 -22.5300 -22.3812 -19.0939 -19.0508
   -18.9357 -16.8643 -16.8404 -16.8130 -15.1454 -14.8507 -14.8378 -14.6956
   -14.5981 -14.5332 -14.5275 -14.4655 -14.1541 -14.1301 -14.0785 -13.9654
   -13.9336 -13.8754 -13.8175  -8.2272  -8.1638  -8.1341  -8.0002  -7.9238
    -7.9030  -7.7651  -7.7161  -7.6538  -7.5811  -7.5607  -7.3812  -3.1399
    -2.9828  -2.7403  -2.7314  -2.6307  -2.4465  -2.4309  -2.3774  -2.3020
    -2.2674  -2.2485  -2.1608  -2.1124  -2.0172  -1.6518  -1.5640  -1.4405
    -1.4114  -1.3474  -1.2915  -1.2259  -1.1744  -1.0268  -0.9616  -0.8552
    -0.7489  -0.7331  -0.7223  -0.6894  -0.6187  -0.5963  -0.5803  -0.5508
    -0.3882  -0.3391  -0.3243   0.0006   0.1181   0.1463   0.2390   0.3609
     0.4510   0.5668   0.5961   0.7048   0.7990   0.8125   0.8545   0.9705
     0.9814   1.0361   1.1409   1.1471   1.2661   1.2807   1.3288   1.3936
     1.4678   1.4759   1.5097   1.5494   1.5670   1.5734   1.6310   1.6458
     1.7054   1.7178   1.7371   1.8603   1.8688   1.9023   2.1432   2.3455
     2.9975   3.0277   3.1823   3.2822   3.4173   3.4335   3.7180   5.2000
     6.6010   6.6694   6.7006   6.8338   7.1209   7.5122   7.5987   8.1215
     8.2001   8.3552   8.4085   8.7439   8.9473   8.9968   9.0717   9.2467
     9.2712

          k = 0.2500 0.3960 0.0000 ( 34712 PWs)   bands (ev):

   -37.9655 -35.5609 -22.5746 -22.5454 -22.4693 -22.3233 -19.1533 -19.0465
   -18.9180 -16.9609 -16.8288 -16.7545 -14.9708 -14.8071 -14.7904 -14.6396
   -14.4686 -14.4296 -14.3655 -14.3602 -14.2033 -14.0862 -14.0823 -14.0325
   -13.9802 -13.9560 -13.8614  -8.3473  -8.2925  -8.2540  -8.0892  -7.9744
    -7.9730  -7.8677  -7.8430  -7.8392  -7.7454  -7.6964  -7.5935  -3.6027
    -3.4824  -3.3785  -3.2398  -3.1903  -2.9551  -2.9418  -2.4434  -2.4400
    -2.3944  -2.2743  -2.1271  -2.0620  -1.9886  -1.9688  -1.7946  -1.7275
    -1.5640  -1.5294  -1.4436  -1.3637  -1.3221  -1.1784  -1.0988  -1.0263
    -0.9950  -0.8577  -0.8079  -0.7922  -0.7886  -0.7859  -0.6996  -0.6935
    -0.5312  -0.4122  -0.3949   0.0943   0.1712   0.2629   0.3260   0.4387
     0.5887   0.7446   0.7872   0.8148   0.9892   1.0133   1.0192   1.1302
     1.2595   1.2992   1.3240   1.3349   1.4111   1.4597   1.4850   1.5294
     1.5342   1.5485   1.6162   1.6867   1.7064   1.7414   1.7882   1.8416
     1.8964   1.9292   2.0338   2.0800   2.2206   2.2677   2.2889   2.4151
     2.8296   2.8659   3.3997   3.5122   3.6500   3.6698   4.2013   5.5102
     6.4712   6.7694   6.8772   6.9435   7.0879   7.7518   7.7614   8.2322
     8.4226   8.7973   8.8658   8.9034   9.0479   9.2915   9.6872   9.7741
     9.7974

          k = 0.2500-0.5279 0.0000 ( 34740 PWs)   bands (ev):

   -37.9641 -35.5591 -22.5491 -22.5210 -22.4437 -22.2989 -19.1786 -19.0436
   -18.9108 -17.0110 -16.8233 -16.7149 -14.8127 -14.8038 -14.7797 -14.7710
   -14.3527 -14.3496 -14.2684 -14.2607 -14.2134 -14.1607 -14.0566 -14.0461
   -14.0397 -14.0261 -13.8605  -8.3474  -8.3108  -8.2531  -8.0920  -8.0622
    -8.0048  -7.9654  -7.9555  -7.9337  -7.7775  -7.7194  -7.6941  -3.7971
    -3.6846  -3.6340  -3.4454  -3.3841  -3.1827  -3.1701  -2.4481  -2.4180
    -2.4096  -2.2399  -2.1654  -2.0913  -2.0036  -1.9490  -1.9269  -1.8431
    -1.6769  -1.6186  -1.4787  -1.4024  -1.3501  -1.2519  -1.1836  -1.1251
    -1.0353  -0.9312  -0.8671  -0.8570  -0.8324  -0.8043  -0.7170  -0.6948
    -0.5445  -0.4400  -0.4187   0.1094   0.2096   0.2896   0.3569   0.4771
     0.6425   0.8021   0.8185   0.8973   1.0456   1.0914   1.1391   1.1972
     1.2165   1.2408   1.3569   1.4120   1.4702   1.4717   1.4928   1.5175
     1.6168   1.6270   1.7018   1.7623   1.8030   1.9222   1.9486   2.0039
     2.0431   2.0514   2.0882   2.2082   2.4030   2.4434   2.4612   2.4680
     2.6083   2.6534   3.4212   3.5325   3.6676   3.7047   4.3336   5.6485
     6.3666   6.7603   6.8418   6.9824   7.0411   7.7299   7.8324   8.2507
     8.7061   8.8237   9.1959   9.2983   9.4400   9.5295   9.6227   9.6688
     9.8547

          k = 0.3750 0.0000 0.0000 ( 34726 PWs)   bands (ev):

   -37.9721 -35.5688 -22.6721 -22.6395 -22.5670 -22.4172 -19.1171 -18.9772
   -18.9631 -17.0107 -16.8656 -16.6069 -15.1884 -15.0344 -15.0210 -14.9883
   -14.6430 -14.5998 -14.5866 -14.5717 -14.2056 -14.1834 -14.1455 -14.0406
   -13.9183 -13.9057 -13.7589  -8.0356  -7.9209  -7.7645  -7.7182  -7.6604
    -7.5757  -7.5683  -7.4832  -7.4336  -7.3873  -7.3728  -7.2138  -2.9900
    -2.8822  -2.7227  -2.6994  -2.3207  -2.2805  -2.2203  -1.8941  -1.6536
    -1.5736  -1.5544  -1.4921  -1.3686  -1.3590  -1.3254  -1.2053  -1.1997
    -1.1983  -1.1538  -1.0978  -1.0351  -1.0076  -0.9726  -0.8799  -0.8699
    -0.8140  -0.7197  -0.6965  -0.6378  -0.4954  -0.4226  -0.3925  -0.2665
    -0.2263  -0.2167  -0.1897  -0.1879   0.0775   0.0816   0.1204   0.1779
     0.2339   0.2690   0.3980   0.4140   0.4388   0.4510   0.4763   0.4871
     0.5445   0.7568   0.8360   0.9232   0.9777   1.1061   1.1762   1.1948
     1.2123   1.2417   1.3538   1.3608   1.3937   1.5173   1.5297   1.6384
     1.6760   1.6906   1.7311   1.7964   1.8206   1.9291   2.0967   2.1193
     2.1489   2.2584   2.3318   2.4938   2.6109   2.8142   2.8267   5.3793
     6.4090   6.5151   6.5457   6.7995   7.3803   7.4185   7.7813   8.0101
     8.0666   8.2934   8.3132   8.4874   8.6387   8.7272   8.8108   9.2123
     9.5053

          k = 0.3750 0.1320 0.0000 ( 34759 PWs)   bands (ev):

   -37.9707 -35.5670 -22.6504 -22.6185 -22.5452 -22.3962 -19.1138 -19.0153
   -18.9446 -17.0021 -16.8365 -16.6714 -15.1413 -14.9864 -14.9734 -14.9204
   -14.6035 -14.5833 -14.5372 -14.5296 -14.1771 -14.1618 -14.1204 -14.0239
   -13.9403 -13.9251 -13.7684  -8.0545  -7.9785  -7.8525  -7.8237  -7.7747
    -7.7405  -7.6996  -7.5729  -7.5584  -7.5127  -7.4785  -7.3071  -3.0663
    -2.9438  -2.7595  -2.7435  -2.3195  -2.2754  -2.2620  -2.1836  -2.0351
    -1.8583  -1.7913  -1.7017  -1.6063  -1.5987  -1.4971  -1.4741  -1.4447
    -1.4061  -1.3023  -1.2705  -1.1863  -1.0749  -1.0697  -0.9265  -0.7886
    -0.7815  -0.7656  -0.6796  -0.5957  -0.5257  -0.4059  -0.3898  -0.2670
    -0.2581  -0.2111  -0.0477   0.0042   0.0431   0.0958   0.1873   0.2012
     0.2183   0.2456   0.3331   0.4499   0.4621   0.5036   0.6766   0.7809
     0.7987   0.8700   0.9696   1.0801   1.1596   1.1684   1.2168   1.2203
     1.2616   1.3036   1.3390   1.3701   1.3807   1.5485   1.5646   1.6528
     1.6876   1.7239   1.7839   1.7933   1.8050   1.8845   2.0572   2.3022
     2.7497   2.7774   2.8119   2.9374   2.9926   3.0953   3.1534   5.4054
     6.4554   6.6637   6.6903   6.6980   7.2490   7.4994   7.8284   8.0756
     8.1149   8.2618   8.3547   8.5091   8.8445   8.9390   9.0032   9.2906
     9.4523

          k = 0.3750 0.2640 0.0000 ( 34779 PWs)   bands (ev):

   -37.9672 -35.5627 -22.5971 -22.5669 -22.4918 -22.3447 -19.1071 -19.0818
   -18.9234 -16.9818 -16.8157 -16.7613 -15.0204 -14.8642 -14.8518 -14.7307
   -14.5914 -14.5058 -14.4240 -14.3819 -14.1368 -14.1137 -14.1040 -13.9830
   -13.9694 -13.9451 -13.8115  -8.2800  -8.2235  -8.1853  -8.0426  -7.9585
    -7.9421  -7.8362  -7.8298  -7.8103  -7.7142  -7.6939  -7.5790  -3.4141
    -3.2589  -2.9834  -2.9704  -2.6161  -2.5656  -2.4912  -2.3776  -2.3712
    -2.3443  -2.3419  -2.2404  -2.2168  -2.2087  -1.9644  -1.7681  -1.6277
    -1.5484  -1.4686  -1.2686  -1.2248  -1.1359  -0.9987  -0.9299  -0.8846
    -0.8615  -0.8460  -0.8349  -0.7406  -0.6886  -0.6390  -0.6253  -0.6187
    -0.4763  -0.3637  -0.3458   0.0509   0.1886   0.2480   0.3556   0.4668
     0.6061   0.7017   0.7324   0.8330   0.8492   0.8806   1.0173   1.0348
     1.0631   1.1747   1.2272   1.2704   1.3071   1.3298   1.4209   1.4338
     1.5106   1.5500   1.6233   1.6500   1.6922   1.7095   1.7322   1.7566
     1.7801   1.8066   1.8361   1.8445   1.8810   2.1171   2.1715   2.2820
     2.9988   3.0254   3.6068   3.7137   3.7467   3.8258   3.8689   5.4488
     6.3181   6.5803   6.7099   6.7589   7.1199   7.6527   7.6755   8.2102
     8.4155   8.4239   8.4645   8.8437   9.2860   9.4230   9.4685   9.5480
     9.6103

          k = 0.3750 0.3960 0.0000 ( 34747 PWs)   bands (ev):

   -37.9637 -35.5583 -22.5425 -22.5141 -22.4371 -22.2919 -19.1482 -19.0961
   -18.9052 -16.9644 -16.9425 -16.6816 -14.8762 -14.7293 -14.7169 -14.6272
   -14.4710 -14.4118 -14.3071 -14.2237 -14.2172 -14.0699 -14.0696 -13.9770
   -13.9716 -13.9376 -13.8716  -8.5457  -8.4932  -8.4515  -8.2816  -8.2108
    -8.1213  -8.1164  -8.0304  -7.9610  -7.8727  -7.7979  -7.7268  -3.8775
    -3.7380  -3.4391  -3.4168  -3.3292  -2.9344  -2.9236  -2.6462  -2.6213
    -2.5330  -2.4617  -2.2691  -2.2688  -2.2293  -2.2130  -2.0787  -1.8326
    -1.7408  -1.6466  -1.2957  -1.2119  -1.1974  -1.1780  -1.1029  -1.0574
    -1.0307  -0.9502  -0.9344  -0.8577  -0.8567  -0.7844  -0.7715  -0.6847
    -0.6174  -0.3855  -0.3665   0.1851   0.3038   0.3410   0.5616   0.6718
     0.8335   0.9659   1.0194   1.1502   1.1818   1.2012   1.2558   1.2742
     1.3665   1.4437   1.4667   1.4944   1.5148   1.5272   1.5937   1.6250
     1.6419   1.7324   1.7758   1.8247   1.8792   1.9119   1.9198   1.9699
     2.0055   2.0209   2.0936   2.1790   2.1897   2.1988   2.4283   2.4980
     2.8202   2.8510   4.0500   4.1760   4.2622   4.3415   4.3462   5.5034
     5.8915   6.3995   6.4066   6.7928   7.0986   7.3867   7.8346   8.3041
     8.5759   8.9872   9.1013   9.1566   9.2370   9.4489   9.4883   9.5246
     9.5811

          k = 0.3750-0.5279 0.0000 ( 34780 PWs)   bands (ev):

   -37.9622 -35.5565 -22.5194 -22.4918 -22.4140 -22.2696 -19.1735 -19.0931
   -18.8978 -16.9977 -16.9519 -16.6462 -14.7894 -14.6702 -14.6679 -14.6550
   -14.3870 -14.2730 -14.2632 -14.2590 -14.1350 -14.0883 -14.0485 -14.0382
   -13.9954 -13.9667 -13.8452  -8.6278  -8.5882  -8.5325  -8.3681  -8.3559
    -8.2691  -8.2672  -8.0614  -7.9875  -7.9754  -7.8211  -7.7417  -4.0737
    -3.9442  -3.6686  -3.6245  -3.5683  -3.1597  -3.1496  -2.6518  -2.6398
    -2.5524  -2.4737  -2.3719  -2.2634  -2.2229  -2.2124  -2.1854  -1.9140
    -1.8359  -1.6699  -1.3530  -1.3034  -1.2573  -1.2335  -1.1743  -1.1265
    -1.0660  -0.9731  -0.9482  -0.9438  -0.9210  -0.8715  -0.7922  -0.7103
    -0.5846  -0.3712  -0.3563   0.2162   0.3269   0.3656   0.6311   0.7815
     0.9201   1.0913   1.1639   1.1934   1.2756   1.3142   1.3364   1.3525
     1.3721   1.4795   1.5648   1.5861   1.6050   1.6133   1.6926   1.7494
     1.7716   1.8321   1.8383   1.9015   1.9184   2.0337   2.0579   2.0624
     2.1502   2.1739   2.2304   2.2988   2.3800   2.3839   2.4987   2.5777
     2.6137   2.6656   4.1248   4.3081   4.4118   4.4832   4.4943   5.5479
     5.6920   6.2288   6.2332   6.9110   7.0626   7.2947   7.8924   8.3712
     8.6777   9.0418   9.1560   9.1773   9.3702   9.3798   9.4600   9.6597
     9.7867

          k =-0.5000 0.0000 0.0000 ( 34714 PWs)   bands (ev):

   -37.9713 -35.5677 -22.6530 -22.6215 -22.5476 -22.3990 -19.1362 -18.9762
   -18.9581 -17.0632 -16.8234 -16.6056 -15.1472 -15.0899 -15.0694 -14.9767
   -14.6598 -14.6586 -14.4998 -14.3835 -14.3100 -14.1882 -14.1785 -14.0865
   -13.9933 -13.9174 -13.7729  -8.0353  -7.9106  -7.7478  -7.7018  -7.6373
    -7.5608  -7.5509  -7.4471  -7.4009  -7.3604  -7.3506  -7.1802  -3.1183
    -3.0242  -2.8644  -2.8428  -2.3456  -2.3187  -2.2171  -1.8029  -1.6430
    -1.6060  -1.5904  -1.4622  -1.3910  -1.3662  -1.2985  -1.2532  -1.2372
    -1.2239  -1.2092  -1.2017  -1.1650  -1.0843  -0.9954  -0.9834  -0.9059
    -0.8921  -0.8032  -0.7824  -0.7064  -0.4959  -0.4883  -0.4511  -0.2852
    -0.2677  -0.2106  -0.2066  -0.1939   0.0721   0.0763   0.1099   0.1856
     0.2137   0.2676   0.3859   0.4137   0.4214   0.4390   0.4725   0.4833
     0.5374   0.7484   0.8424   0.8794   0.9618   1.1445   1.1613   1.1875
     1.3101   1.3777   1.4079   1.4126   1.4303   1.4650   1.6022   1.6193
     1.6644   1.6783   1.7528   1.8810   1.8961   1.9677   2.1151   2.1164
     2.1617   2.2394   2.3346   2.5006   2.6260   2.8379   2.8501   5.8092
     6.0632   6.9119   7.2875   7.3288   7.3291   7.3398   7.3551   7.5234
     8.2818   8.3217   8.5562   8.6084   8.7209   9.0218   9.0870   9.2335
     9.4668

          k =-0.5000 0.1320 0.0000 ( 34798 PWs)   bands (ev):

   -37.9699 -35.5659 -22.6322 -22.6013 -22.5268 -22.3788 -19.1328 -19.0141
   -18.9400 -17.0539 -16.7959 -16.6693 -15.0907 -15.0333 -15.0127 -14.9160
   -14.6518 -14.6194 -14.4595 -14.3422 -14.2522 -14.1660 -14.1569 -14.0547
   -13.9903 -13.9548 -13.7756  -8.0501  -7.9497  -7.7954  -7.7667  -7.7262
    -7.6833  -7.6808  -7.6501  -7.6153  -7.5451  -7.4799  -7.3933  -3.2018
    -3.0923  -2.9073  -2.8948  -2.3507  -2.3196  -2.2551  -2.1546  -2.0033
    -1.8033  -1.7545  -1.6892  -1.6370  -1.6009  -1.5936  -1.5035  -1.4946
    -1.4300  -1.4170  -1.2932  -1.2835  -1.1793  -1.0815  -0.9391  -0.8589
    -0.8428  -0.8153  -0.6873  -0.6331  -0.5464  -0.4422  -0.4213  -0.2818
    -0.2650  -0.2441  -0.0620   0.0055   0.0547   0.0972   0.1910   0.2035
     0.2377   0.2524   0.3476   0.4400   0.5250   0.5332   0.6087   0.7035
     0.7806   0.8664   0.9760   1.0800   1.1531   1.1771   1.2149   1.2896
     1.3009   1.3023   1.3429   1.4248   1.4300   1.5869   1.6189   1.6453
     1.7205   1.7519   1.7797   1.8869   1.8883   1.9319   2.1474   2.2776
     2.7590   2.7771   2.8315   2.9542   3.0134   3.1188   3.2066   5.7497
     6.1464   6.7360   7.1353   7.1804   7.2262   7.5622   7.6425   7.6755
     8.1869   8.2833   8.4907   8.7290   8.8432   9.2923   9.3277   9.4272
     9.5337

          k =-0.5000 0.2640 0.0000 ( 34772 PWs)   bands (ev):

   -37.9664 -35.5616 -22.5812 -22.5517 -22.4758 -22.3293 -19.1245 -19.0822
   -18.9185 -17.0319 -16.8124 -16.7249 -14.9587 -14.8829 -14.8633 -14.7363
   -14.6381 -14.5229 -14.3643 -14.2381 -14.1553 -14.1149 -14.1065 -14.0214
   -13.9857 -13.9765 -13.8052  -8.2188  -8.1845  -8.1156  -8.0679  -8.0010
    -7.9826  -7.9754  -7.9218  -7.8995  -7.7528  -7.7425  -7.6800  -3.5468
    -3.3972  -3.1281  -3.1064  -2.6069  -2.5855  -2.5166  -2.4037  -2.3841
    -2.3602  -2.3524  -2.2483  -2.2315  -2.2139  -2.0868  -1.8909  -1.6634
    -1.6273  -1.5731  -1.2366  -1.1524  -0.9922  -0.9583  -0.9509  -0.9435
    -0.9274  -0.8970  -0.8431  -0.7732  -0.7099  -0.6638  -0.6534  -0.6292
    -0.4798  -0.3842  -0.3548   0.0701   0.2090   0.2752   0.4286   0.5116
     0.6638   0.7428   0.7962   0.8628   0.8763   0.9516   1.0347   1.1008
     1.1368   1.1849   1.2002   1.2255   1.3480   1.3971   1.4508   1.4903
     1.5067   1.5565   1.6013   1.6997   1.7095   1.7143   1.7720   1.8486
     1.8586   1.8744   1.9012   1.9214   1.9393   1.9804   2.2239   2.3096
     2.9922   3.0170   3.6680   3.7993   3.8754   3.9489   4.0003   5.6025
     6.1398   6.4858   6.7055   6.7626   7.0956   7.5853   7.7261   8.2206
     8.4532   8.4620   8.8919   9.0191   9.1133   9.4833   9.5994   9.6000
     9.7720

          k =-0.5000 0.3960 0.0000 ( 34764 PWs)   bands (ev):

   -37.9629 -35.5573 -22.5290 -22.5010 -22.4235 -22.2787 -19.1458 -19.1163
   -18.9002 -17.0103 -16.9416 -16.6492 -14.8324 -14.7001 -14.6866 -14.6286
   -14.4800 -14.4287 -14.2827 -14.2096 -14.1280 -14.0666 -14.0568 -13.9851
   -13.9616 -13.9216 -13.8822  -8.5939  -8.5495  -8.4977  -8.3559  -8.3293
    -8.2707  -8.2651  -8.0521  -8.0036  -7.9772  -7.8116  -7.7351  -4.0120
    -3.8684  -3.5516  -3.5240  -3.3302  -2.9259  -2.9159  -2.7033  -2.6911
    -2.6073  -2.5305  -2.3637  -2.2853  -2.2609  -2.2251  -2.1746  -1.8708
    -1.8180  -1.6975  -1.2241  -1.2205  -1.1745  -1.1237  -1.0965  -1.0862
    -1.0341  -0.9873  -0.9279  -0.9231  -0.8766  -0.8135  -0.7716  -0.7600
    -0.5959  -0.3474  -0.3326   0.2119   0.3452   0.3747   0.6754   0.7664
     0.9385   1.0672   1.0985   1.2632   1.2886   1.3103   1.3763   1.3810
     1.3835   1.3977   1.4750   1.5720   1.5798   1.5827   1.6013   1.6458
     1.6911   1.7428   1.8458   1.8686   1.9395   1.9669   1.9954   1.9993
     2.0595   2.0827   2.1590   2.1670   2.2134   2.2820   2.3758   2.6231
     2.8090   2.8346   4.0787   4.3848   4.5207   4.5900   4.5958   5.5109
     5.6583   6.1989   6.2105   6.7951   7.0537   7.2364   7.8642   8.3548
     8.8906   8.9436   8.9931   9.0396   9.3569   9.4458   9.5030   9.6178
     9.6317

          k =-0.5000-0.5279 0.0000 ( 34796 PWs)   bands (ev):

   -37.9614 -35.5555 -22.5070 -22.4796 -22.4015 -22.2574 -19.1714 -19.1130
   -18.8928 -17.0015 -16.9922 -16.6158 -14.7807 -14.6260 -14.6024 -14.5983
   -14.4274 -14.2621 -14.2586 -14.2548 -14.0839 -14.0457 -14.0428 -14.0341
   -13.9862 -13.9213 -13.8584  -8.7399  -8.7009  -8.6440  -8.4797  -8.4720
    -8.3866  -8.3850  -8.1009  -8.0701  -8.0048  -7.8379  -7.7521  -4.2112
    -4.0764  -3.7569  -3.7290  -3.5929  -3.1502  -3.1409  -2.7236  -2.7230
    -2.6407  -2.5575  -2.4520  -2.2754  -2.2642  -2.2514  -2.2247  -1.9390
    -1.8960  -1.7210  -1.3384  -1.2843  -1.2463  -1.2061  -1.1582  -1.1312
    -1.0601  -1.0114  -0.9714  -0.9624  -0.9599  -0.8723  -0.8532  -0.7899
    -0.5532  -0.3186  -0.3074   0.2475   0.3711   0.3972   0.7625   0.9292
     1.0494   1.1471   1.3237   1.3521   1.3532   1.3551   1.3765   1.4211
     1.4550   1.5210   1.5447   1.6325   1.6458   1.6707   1.7684   1.8506
     1.8770   1.8830   1.9351   1.9702   2.0272   2.0657   2.0825   2.1285
     2.1546   2.2135   2.3514   2.3579   2.3742   2.4411   2.5490   2.5548
     2.5806   2.7810   4.1415   4.5724   4.7238   4.7911   4.8015   5.4283
     5.5174   5.9818   5.9834   6.8940   7.0543   7.1308   7.9126   8.6348
     8.7029   8.9016   8.9534   9.0518   9.1008   9.2039   9.3628   9.5788
     9.6893

     the Fermi energy is     2.5785 ev

!    total energy              =   -1842.77135563 Ry
     Harris-Foulkes estimate   =   -1842.77135563 Ry
     estimated scf accuracy    <          7.3E-11 Ry

     The total energy is the sum of the following terms:

     one-electron contribution =  -29780.92025761 Ry
     hartree contribution      =   15042.72190348 Ry
     xc contribution           =    -621.58746122 Ry
     ewald contribution        =   13517.02280928 Ry
     smearing contrib. (-TS)   =      -0.00834956 Ry

     convergence has been achieved in  41 iterations

     negative rho (up, down):  1.495E-03 0.000E+00

     Forces acting on atoms (cartesian axes, Ry/au):

     atom    1 type  4   force =     0.00000000    0.00000000   -0.00017126
     atom    2 type  3   force =     0.00000000    0.00000000    0.00039377
     atom    3 type  4   force =     0.00000000    0.00000000   -0.00076469
     atom    4 type  1   force =     0.00000000    0.00000000   -0.00028836
     atom    5 type  3   force =     0.00000000    0.00000000    0.00053909
     atom    6 type  4   force =     0.00000000    0.00000000   -0.00001744
     atom    7 type  4   force =     0.00000000    0.00000000    0.00032722
     atom    8 type  2   force =     0.00000000    0.00000000   -0.00058355
     atom    9 type  4   force =     0.00000000    0.00000000    0.00024925
     atom   10 type  4   force =     0.00000000    0.00000000    0.00030040
     atom   11 type  3   force =     0.00000000    0.00000000    0.00017340
     atom   12 type  1   force =     0.00000000    0.00000000    0.00011085
     atom   13 type  4   force =     0.00000000    0.00000000    0.00257020
     atom   14 type  4   force =     0.00000000    0.00000000    0.00257024
     atom   15 type  3   force =     0.00000000    0.00000000   -0.00428499
     atom   16 type  4   force =     0.00000000    0.00000000    0.00243128
     atom   17 type  1   force =     0.00000000    0.00000000   -0.01328642
     atom   18 type  3   force =     0.00000000    0.00000000    0.00258391
     atom   19 type  4   force =     0.00000000    0.00000000    0.04539000
     atom   20 type  4   force =     0.00000000    0.00000000    0.05141821
     atom   21 type  2   force =     0.00000000    0.00000000   -0.02865656
     atom   22 type  4   force =     0.00000000    0.00000000   -0.01602883
     atom   23 type  4   force =     0.00000000    0.00000000   -0.00950471
     atom   24 type  3   force =     0.00000000    0.00000000   -0.01830801
     atom   25 type  1   force =     0.00000000    0.00000000   -0.01644739
     atom   26 type  4   force =     0.00000000    0.00000000   -0.00057311
     atom   27 type  3   force =     0.00000000    0.00000000    0.00053438
     atom   28 type  4   force =     0.00000000    0.00000000   -0.00067689

     Total force =     0.079980     Total SCF correction =     0.000030


     Computing stress (Cartesian axis) and pressure


     negative rho (up, down):  1.495E-03 0.000E+00
          total   stress  (Ry/bohr**3)                   (kbar)     P=       -6.88
  -0.00000759   0.00000000   0.00000000           -1.12        0.00        0.00
   0.00000000   0.00001138   0.00000000            0.00        1.67        0.00
   0.00000000   0.00000000  -0.00014417            0.00        0.00      -21.21


     number of scf cycles    =   8
     number of bfgs steps    =   3

     energy   old            =   -1842.8919424760 Ry
     energy   new            =   -1842.7713556327 Ry

     CASE: energy  _new > energy  _old


 %%%%%%%%%%%%%%%%%%%%%%%%%%%%%%%%%%%%%%%%%%%%%%%%%%%%%%%%%%%%%%%%%%%%%%%%%%%%%%
     Error in routine bfgs (1):
     dE0s is positive which should never happen
 %%%%%%%%%%%%%%%%%%%%%%%%%%%%%%%%%%%%%%%%%%%%%%%%%%%%%%%%%%%%%%%%%%%%%%%%%%%%%%

     stopping ...
