
     Program PWSCF v.6.5 starts on 28Jun2021 at 23:28:54 

     This program is part of the open-source Quantum ESPRESSO suite
     for quantum simulation of materials; please cite
         "P. Giannozzi et al., J. Phys.:Condens. Matter 21 395502 (2009);
         "P. Giannozzi et al., J. Phys.:Condens. Matter 29 465901 (2017);
          URL http://www.quantum-espresso.org", 
     in publications or presentations arising from this work. More details at
     http://www.quantum-espresso.org/quote

     Parallel version (MPI), running on    20 processors

     MPI processes distributed on     3 nodes
     R & G space division:  proc/nbgrp/npool/nimage =      20
     Reading input from CBCO_CuO_cleave_0.75_sep.pwi
Warning: card &CELL ignored
Warning: card     CELL_DYNAMICS = 'BFGS' ignored
Warning: card     PRESS_CONV_THR = 0.5 ignored
Warning: card / ignored

     Current dimensions of program PWSCF are:
     Max number of different atomic species (ntypx) = 10
     Max number of k-points (npk) =  40000
     Max angular momentum in pseudopotentials (lmaxx) =  3

     Subspace diagonalization in iterative solution of the eigenvalue problem:
     one sub-group per band group will be used
     scalapack distributed-memory algorithm (size of sub-group:  4*  4 procs)

     Message from routine setup:
     using ibrav=0 with symmetry is DISCOURAGED, use correct ibrav instead
 
     Parallelization info
     --------------------
     sticks:   dense  smooth     PW     G-vecs:    dense   smooth      PW
     Min         149      50     14                71365    13742    2148
     Max         150      51     15                71404    13765    2191
     Sum        2991    1007    289              1427725   274999   43215
 


     bravais-lattice index     =            0
     lattice parameter (alat)  =       7.4270  a.u.
     unit-cell volume          =    4376.3515 (a.u.)^3
     number of atoms/cell      =           28
     number of atomic types    =            4
     number of electrons       =       227.00
     number of Kohn-Sham states=          137
     kinetic-energy cutoff     =      60.0000  Ry
     charge density cutoff     =     720.0000  Ry
     convergence threshold     =      1.0E-10
     mixing beta               =       0.7000
     number of iterations used =           10  local-TF  mixing
     Exchange-correlation= SLA PW PBE PBE
                           (   1   4   3   4   0   0   0)
     nstep                     =          300


     celldm(1)=   7.427040  celldm(2)=   0.000000  celldm(3)=   0.000000
     celldm(4)=   0.000000  celldm(5)=   0.000000  celldm(6)=   0.000000

     crystal axes: (cart. coord. in units of alat)
               a(1) = (   1.000000   0.000000   0.000000 )  
               a(2) = (   0.000000   0.947081   0.000000 )  
               a(3) = (   0.000000   0.000000  11.279186 )  

     reciprocal axes: (cart. coord. in units 2 pi/alat)
               b(1) = (  1.000000  0.000000  0.000000 )  
               b(2) = (  0.000000  1.055876  0.000000 )  
               b(3) = (  0.000000  0.000000  0.088659 )  


     PseudoPot. # 1 for Ba read from file:
     ./pseudo/Ba.pbe-nsp-van.UPF
     MD5 check sum: 2b9c31dd849566dd297d80989662b7a0
     Pseudo is Ultrasoft + core correction, Zval = 10.0
     Generated by new atomic code, or converted to UPF format
     Using radial grid of  907 points,  6 beta functions with: 
                l(1) =   0
                l(2) =   0
                l(3) =   1
                l(4) =   1
                l(5) =   2
                l(6) =   2
     Q(r) pseudized with  6 coefficients,  rinner =    1.200   1.200   1.200
                                                       1.200   1.200

     PseudoPot. # 2 for Ca read from file:
     ./pseudo/Ca.pbe-nsp-van.UPF
     MD5 check sum: 6471098428ff4fa451746d08035ff179
     Pseudo is Ultrasoft + core correction, Zval = 10.0
     Generated by new atomic code, or converted to UPF format
     Using radial grid of  845 points,  6 beta functions with: 
                l(1) =   0
                l(2) =   0
                l(3) =   1
                l(4) =   1
                l(5) =   2
                l(6) =   2
     Q(r) pseudized with  6 coefficients,  rinner =    1.200   1.200   1.200
                                                       1.200   1.200

     PseudoPot. # 3 for Cu read from file:
     ./pseudo/Cu.pbe-n-van_ak.UPF
     MD5 check sum: 34e3282627ffb533726feb647e090d62
     Pseudo is Ultrasoft + core correction, Zval = 11.0
     Generated by new atomic code, or converted to UPF format
     Using radial grid of  867 points,  6 beta functions with: 
                l(1) =   0
                l(2) =   0
                l(3) =   1
                l(4) =   1
                l(5) =   2
                l(6) =   2
     Q(r) pseudized with  8 coefficients,  rinner =    1.400   1.400   1.400
                                                       1.400   1.400

     PseudoPot. # 4 for O  read from file:
     ./pseudo/O.pbe-van_ak.UPF
     MD5 check sum: 783ce7fe4c79b6a4916957118fed0856
     Pseudo is Ultrasoft, Zval =  6.0
     Generated by new atomic code, or converted to UPF format
     Using radial grid of  737 points,  4 beta functions with: 
                l(1) =   0
                l(2) =   0
                l(3) =   1
                l(4) =   1
     Q(r) pseudized with  8 coefficients,  rinner =    0.800   0.800   0.800


     atomic species   valence    mass     pseudopotential
        Ba            10.00   137.32700     Ba( 1.00)
        Ca            10.00    40.07800     Ca( 1.00)
        Cu            11.00    63.54600     Cu( 1.00)
        O              6.00    15.99900     O ( 1.00)

      4 Sym. Ops. (no inversion) found



   Cartesian axes

     site n.     atom                  positions (alat units)
         1           O   tau(   1) = (   0.0000000   0.4735409  -0.0469745  )
         2           Cu  tau(   2) = (   0.0000000   0.0000000   0.0264565  )
         3           O   tau(   3) = (   0.0000000   0.0000000   0.5030914  )
         4           Ba  tau(   4) = (   0.5000000   0.4735409   0.5690292  )
         5           Cu  tau(   5) = (   0.0000000   0.0000000   1.0374254  )
         6           O   tau(   6) = (   0.5000000   0.0000000   1.0768099  )
         7           O   tau(   7) = (   0.0000000   0.4735409   1.1116985  )
         8           Ca  tau(   8) = (   0.5000000   0.4735409   1.4976260  )
         9           O   tau(   9) = (   0.0000000   0.4735409   1.8667529  )
        10           O   tau(  10) = (   0.5000000   0.0000000   1.9044124  )
        11           Cu  tau(  11) = (   0.0000000   0.0000000   1.9512546  )
        12           Ba  tau(  12) = (   0.5000000   0.4735409   2.4295764  )
        13           O   tau(  13) = (   0.0000000   0.0000000   2.5115362  )
        14           O   tau(  14) = (   0.0000000   0.4735409   2.9918528  )
        15           Cu  tau(  15) = (   0.0000000   0.0000000   2.9919088  )
        16           O   tau(  16) = (   0.0000000   0.0000000   3.6630976  )
        17           Ba  tau(  17) = (   0.5000000   0.4735409   3.7450498  )
        18           Cu  tau(  18) = (   0.0000000   0.0000000   4.2233538  )
        19           O   tau(  19) = (   0.5000000   0.0000000   4.2701959  )
        20           O   tau(  20) = (   0.0000000   0.4735409   4.3078503  )
        21           Ca  tau(  21) = (   0.5000000   0.4735409   4.6769874  )
        22           O   tau(  22) = (   0.0000000   0.4735409   5.0629123  )
        23           O   tau(  23) = (   0.5000000   0.0000000   5.0978010  )
        24           Cu  tau(  24) = (   0.0000000   0.0000000   5.1371881  )
        25           Ba  tau(  25) = (   0.5000000   0.4735409   5.6055817  )
        26           O   tau(  26) = (   0.0000000   0.0000000   5.6715093  )
        27           Cu  tau(  27) = (   0.0000000   0.0000000   6.1481493  )
        28           O   tau(  28) = (   0.0000000   0.4735409   6.2215676  )

     number of k points=    25  Gaussian smearing, width (Ry)=  0.0100
                       cart. coord. in units 2pi/alat
        k(    1) = (   0.0000000   0.0000000   0.0000000), wk =   0.0312500
        k(    2) = (   0.0000000   0.1319845   0.0000000), wk =   0.0625000
        k(    3) = (   0.0000000   0.2639689   0.0000000), wk =   0.0625000
        k(    4) = (   0.0000000   0.3959534   0.0000000), wk =   0.0625000
        k(    5) = (   0.0000000  -0.5279378   0.0000000), wk =   0.0312500
        k(    6) = (   0.1250000   0.0000000   0.0000000), wk =   0.0625000
        k(    7) = (   0.1250000   0.1319845   0.0000000), wk =   0.1250000
        k(    8) = (   0.1250000   0.2639689   0.0000000), wk =   0.1250000
        k(    9) = (   0.1250000   0.3959534   0.0000000), wk =   0.1250000
        k(   10) = (   0.1250000  -0.5279378   0.0000000), wk =   0.0625000
        k(   11) = (   0.2500000   0.0000000   0.0000000), wk =   0.0625000
        k(   12) = (   0.2500000   0.1319845   0.0000000), wk =   0.1250000
        k(   13) = (   0.2500000   0.2639689   0.0000000), wk =   0.1250000
        k(   14) = (   0.2500000   0.3959534   0.0000000), wk =   0.1250000
        k(   15) = (   0.2500000  -0.5279378   0.0000000), wk =   0.0625000
        k(   16) = (   0.3750000   0.0000000   0.0000000), wk =   0.0625000
        k(   17) = (   0.3750000   0.1319845   0.0000000), wk =   0.1250000
        k(   18) = (   0.3750000   0.2639689   0.0000000), wk =   0.1250000
        k(   19) = (   0.3750000   0.3959534   0.0000000), wk =   0.1250000
        k(   20) = (   0.3750000  -0.5279378   0.0000000), wk =   0.0625000
        k(   21) = (  -0.5000000   0.0000000   0.0000000), wk =   0.0312500
        k(   22) = (  -0.5000000   0.1319845   0.0000000), wk =   0.0625000
        k(   23) = (  -0.5000000   0.2639689   0.0000000), wk =   0.0625000
        k(   24) = (  -0.5000000   0.3959534   0.0000000), wk =   0.0625000
        k(   25) = (  -0.5000000  -0.5279378   0.0000000), wk =   0.0312500

     Dense  grid:  1427725 G-vectors     FFT dimensions: (  64,  64, 720)

     Smooth grid:   274999 G-vectors     FFT dimensions: (  40,  36, 432)

     Estimated max dynamical RAM per process >     455.52 MB

     Estimated total dynamical RAM >       8.90 GB

     Initial potential from superposition of free atoms

     starting charge  226.84630, renormalised to  227.00000

     negative rho (up, down):  3.451E-03 0.000E+00
     Starting wfcs are  195 randomized atomic wfcs

     total cpu time spent up to now is        9.8 secs

     Self-consistent Calculation

     iteration #  1     ecut=    60.00 Ry     beta= 0.70
     Davidson diagonalization with overlap
     ethr =  1.00E-02,  avg # of iterations =  2.0

     negative rho (up, down):  2.659E-04 0.000E+00

     total cpu time spent up to now is       24.8 secs

     total energy              =   -1839.33219121 Ry
     Harris-Foulkes estimate   =   -1845.32113890 Ry
     estimated scf accuracy    <      18.86405335 Ry

     iteration #  2     ecut=    60.00 Ry     beta= 0.70
     Davidson diagonalization with overlap
     ethr =  8.31E-03,  avg # of iterations =  2.0

     negative rho (up, down):  2.427E-04 0.000E+00

     total cpu time spent up to now is       41.6 secs

     total energy              =   -1841.98407013 Ry
     Harris-Foulkes estimate   =   -1843.96528547 Ry
     estimated scf accuracy    <       9.99643927 Ry

     iteration #  3     ecut=    60.00 Ry     beta= 0.70
     Davidson diagonalization with overlap
     ethr =  4.40E-03,  avg # of iterations =  2.0

     negative rho (up, down):  2.315E-04 0.000E+00

     total cpu time spent up to now is       56.6 secs

     total energy              =   -1842.65541754 Ry
     Harris-Foulkes estimate   =   -1843.05984156 Ry
     estimated scf accuracy    <       3.98246867 Ry

     iteration #  4     ecut=    60.00 Ry     beta= 0.70
     Davidson diagonalization with overlap
     ethr =  1.75E-03,  avg # of iterations =  1.1

     negative rho (up, down):  2.273E-04 0.000E+00

     total cpu time spent up to now is       70.1 secs

     total energy              =   -1842.81830584 Ry
     Harris-Foulkes estimate   =   -1842.97074592 Ry
     estimated scf accuracy    <       5.77566503 Ry

     iteration #  5     ecut=    60.00 Ry     beta= 0.70
     Davidson diagonalization with overlap
     ethr =  1.75E-03,  avg # of iterations =  1.0

     negative rho (up, down):  2.256E-04 0.000E+00

     total cpu time spent up to now is       83.9 secs

     total energy              =   -1842.84406768 Ry
     Harris-Foulkes estimate   =   -1842.88087739 Ry
     estimated scf accuracy    <       0.93184317 Ry

     iteration #  6     ecut=    60.00 Ry     beta= 0.70
     Davidson diagonalization with overlap
     ethr =  4.11E-04,  avg # of iterations =  1.0

     negative rho (up, down):  2.249E-04 0.000E+00

     total cpu time spent up to now is       97.6 secs

     total energy              =   -1842.85788764 Ry
     Harris-Foulkes estimate   =   -1842.87389803 Ry
     estimated scf accuracy    <       1.63193357 Ry

     iteration #  7     ecut=    60.00 Ry     beta= 0.70
     Davidson diagonalization with overlap
     ethr =  4.11E-04,  avg # of iterations =  1.0

     negative rho (up, down):  2.246E-04 0.000E+00

     total cpu time spent up to now is      111.1 secs

     total energy              =   -1842.84523138 Ry
     Harris-Foulkes estimate   =   -1842.86659678 Ry
     estimated scf accuracy    <       1.37167082 Ry

     iteration #  8     ecut=    60.00 Ry     beta= 0.70
     Davidson diagonalization with overlap
     ethr =  4.11E-04,  avg # of iterations =  1.0

     negative rho (up, down):  2.247E-04 0.000E+00

     total cpu time spent up to now is      124.7 secs

     total energy              =   -1842.85037467 Ry
     Harris-Foulkes estimate   =   -1842.85373176 Ry
     estimated scf accuracy    <       0.44822438 Ry

     iteration #  9     ecut=    60.00 Ry     beta= 0.70
     Davidson diagonalization with overlap
     ethr =  1.97E-04,  avg # of iterations =  3.3

     negative rho (up, down):  2.249E-04 0.000E+00

     total cpu time spent up to now is      140.6 secs

     total energy              =   -1842.84551442 Ry
     Harris-Foulkes estimate   =   -1842.85147806 Ry
     estimated scf accuracy    <       0.23624829 Ry

     iteration # 10     ecut=    60.00 Ry     beta= 0.70
     Davidson diagonalization with overlap
     ethr =  1.04E-04,  avg # of iterations =  5.0

     negative rho (up, down):  2.252E-04 0.000E+00

     total cpu time spent up to now is      158.6 secs

     total energy              =   -1842.84463944 Ry
     Harris-Foulkes estimate   =   -1842.84712742 Ry
     estimated scf accuracy    <       0.09689174 Ry

     iteration # 11     ecut=    60.00 Ry     beta= 0.70
     Davidson diagonalization with overlap
     ethr =  4.27E-05,  avg # of iterations =  6.5

     negative rho (up, down):  2.260E-04 0.000E+00

     total cpu time spent up to now is      177.8 secs

     total energy              =   -1842.84259703 Ry
     Harris-Foulkes estimate   =   -1842.84551624 Ry
     estimated scf accuracy    <       0.10746689 Ry

     iteration # 12     ecut=    60.00 Ry     beta= 0.70
     Davidson diagonalization with overlap
     ethr =  4.27E-05,  avg # of iterations =  2.7

     negative rho (up, down):  4.943E-04 0.000E+00

     total cpu time spent up to now is      193.0 secs

     total energy              =   -1842.84178695 Ry
     Harris-Foulkes estimate   =   -1842.84318312 Ry
     estimated scf accuracy    <       0.08641916 Ry

     iteration # 13     ecut=    60.00 Ry     beta= 0.70
     Davidson diagonalization with overlap
     ethr =  3.81E-05,  avg # of iterations =  1.0

     negative rho (up, down):  4.464E-03 0.000E+00

     total cpu time spent up to now is      206.6 secs

     total energy              =   -1842.84035026 Ry
     Harris-Foulkes estimate   =   -1842.84214939 Ry
     estimated scf accuracy    <       0.05036217 Ry

     iteration # 14     ecut=    60.00 Ry     beta= 0.70
     Davidson diagonalization with overlap
     ethr =  2.22E-05,  avg # of iterations =  5.8

     negative rho (up, down):  1.141E-02 0.000E+00

     total cpu time spent up to now is      225.1 secs

     total energy              =   -1842.83944489 Ry
     Harris-Foulkes estimate   =   -1842.84080581 Ry
     estimated scf accuracy    <       0.01678847 Ry

     iteration # 15     ecut=    60.00 Ry     beta= 0.70
     Davidson diagonalization with overlap
     ethr =  7.40E-06,  avg # of iterations =  8.9

     negative rho (up, down):  1.530E-02 0.000E+00

     total cpu time spent up to now is      247.8 secs

     total energy              =   -1842.83844800 Ry
     Harris-Foulkes estimate   =   -1842.83970062 Ry
     estimated scf accuracy    <       0.00748166 Ry

     iteration # 16     ecut=    60.00 Ry     beta= 0.70
     Davidson diagonalization with overlap
     ethr =  3.30E-06,  avg # of iterations =  8.4

     negative rho (up, down):  1.975E-02 0.000E+00

     total cpu time spent up to now is      269.8 secs

     total energy              =   -1842.83799496 Ry
     Harris-Foulkes estimate   =   -1842.83867819 Ry
     estimated scf accuracy    <       0.00461514 Ry

     iteration # 17     ecut=    60.00 Ry     beta= 0.70
     Davidson diagonalization with overlap
     ethr =  2.03E-06,  avg # of iterations =  8.8

     negative rho (up, down):  1.335E-02 0.000E+00

     total cpu time spent up to now is      292.8 secs

     total energy              =   -1842.83769559 Ry
     Harris-Foulkes estimate   =   -1842.83818184 Ry
     estimated scf accuracy    <       0.00451071 Ry

     iteration # 18     ecut=    60.00 Ry     beta= 0.70
     Davidson diagonalization with overlap
     ethr =  1.99E-06,  avg # of iterations =  4.9

     negative rho (up, down):  1.527E-02 0.000E+00

     total cpu time spent up to now is      310.8 secs

     total energy              =   -1842.83724057 Ry
     Harris-Foulkes estimate   =   -1842.83781007 Ry
     estimated scf accuracy    <       0.00470078 Ry

     iteration # 19     ecut=    60.00 Ry     beta= 0.70
     Davidson diagonalization with overlap
     ethr =  1.99E-06,  avg # of iterations =  7.4

     negative rho (up, down):  1.892E-02 0.000E+00

     total cpu time spent up to now is      332.8 secs

     total energy              =   -1842.83719132 Ry
     Harris-Foulkes estimate   =   -1842.83732471 Ry
     estimated scf accuracy    <       0.00287440 Ry

     iteration # 20     ecut=    60.00 Ry     beta= 0.70
     Davidson diagonalization with overlap
     ethr =  1.27E-06,  avg # of iterations =  8.5

     negative rho (up, down):  8.192E-03 0.000E+00

     total cpu time spent up to now is      355.6 secs

     total energy              =   -1842.83695913 Ry
     Harris-Foulkes estimate   =   -1842.83734093 Ry
     estimated scf accuracy    <       0.00193855 Ry

     iteration # 21     ecut=    60.00 Ry     beta= 0.70
     Davidson diagonalization with overlap
     c_bands:  1 eigenvalues not converged
     ethr =  8.54E-07,  avg # of iterations =  9.0

     negative rho (up, down):  4.038E-03 0.000E+00

     total cpu time spent up to now is      379.1 secs

     total energy              =   -1842.83694397 Ry
     Harris-Foulkes estimate   =   -1842.83703178 Ry
     estimated scf accuracy    <       0.00064579 Ry

     iteration # 22     ecut=    60.00 Ry     beta= 0.70
     Davidson diagonalization with overlap
     c_bands:  1 eigenvalues not converged
     ethr =  2.84E-07,  avg # of iterations =  6.7

     negative rho (up, down):  3.048E-03 0.000E+00

     total cpu time spent up to now is      399.4 secs

     total energy              =   -1842.83697017 Ry
     Harris-Foulkes estimate   =   -1842.83698225 Ry
     estimated scf accuracy    <       0.00022831 Ry

     iteration # 23     ecut=    60.00 Ry     beta= 0.70
     Davidson diagonalization with overlap
     c_bands:  1 eigenvalues not converged
     ethr =  1.01E-07,  avg # of iterations =  4.1

     negative rho (up, down):  1.671E-03 0.000E+00

     total cpu time spent up to now is      416.2 secs

     total energy              =   -1842.83698460 Ry
     Harris-Foulkes estimate   =   -1842.83698260 Ry
     estimated scf accuracy    <       0.00007227 Ry

     iteration # 24     ecut=    60.00 Ry     beta= 0.70
     Davidson diagonalization with overlap
     c_bands:  1 eigenvalues not converged
     ethr =  3.18E-08,  avg # of iterations =  6.8

     negative rho (up, down):  1.609E-03 0.000E+00

     total cpu time spent up to now is      436.5 secs

     total energy              =   -1842.83698867 Ry
     Harris-Foulkes estimate   =   -1842.83698755 Ry
     estimated scf accuracy    <       0.00002112 Ry

     iteration # 25     ecut=    60.00 Ry     beta= 0.70
     Davidson diagonalization with overlap
     ethr =  9.30E-09,  avg # of iterations =  1.6

     negative rho (up, down):  1.516E-03 0.000E+00

     total cpu time spent up to now is      450.9 secs

     total energy              =   -1842.83698915 Ry
     Harris-Foulkes estimate   =   -1842.83698957 Ry
     estimated scf accuracy    <       0.00000647 Ry

     iteration # 26     ecut=    60.00 Ry     beta= 0.70
     Davidson diagonalization with overlap
     ethr =  2.85E-09,  avg # of iterations =  1.7

     negative rho (up, down):  1.553E-03 0.000E+00

     total cpu time spent up to now is      465.3 secs

     total energy              =   -1842.83698941 Ry
     Harris-Foulkes estimate   =   -1842.83698957 Ry
     estimated scf accuracy    <       0.00000427 Ry

     iteration # 27     ecut=    60.00 Ry     beta= 0.70
     Davidson diagonalization with overlap
     ethr =  1.88E-09,  avg # of iterations =  1.0

     negative rho (up, down):  1.590E-03 0.000E+00

     total cpu time spent up to now is      478.9 secs

     total energy              =   -1842.83698942 Ry
     Harris-Foulkes estimate   =   -1842.83698951 Ry
     estimated scf accuracy    <       0.00000208 Ry

     iteration # 28     ecut=    60.00 Ry     beta= 0.70
     Davidson diagonalization with overlap
     ethr =  9.16E-10,  avg # of iterations =  1.2

     negative rho (up, down):  1.573E-03 0.000E+00

     total cpu time spent up to now is      492.7 secs

     total energy              =   -1842.83698945 Ry
     Harris-Foulkes estimate   =   -1842.83698946 Ry
     estimated scf accuracy    <       0.00000108 Ry

     iteration # 29     ecut=    60.00 Ry     beta= 0.70
     Davidson diagonalization with overlap
     ethr =  4.77E-10,  avg # of iterations =  1.5

     negative rho (up, down):  1.566E-03 0.000E+00

     total cpu time spent up to now is      506.8 secs

     total energy              =   -1842.83698946 Ry
     Harris-Foulkes estimate   =   -1842.83698948 Ry
     estimated scf accuracy    <       0.00000085 Ry

     iteration # 30     ecut=    60.00 Ry     beta= 0.70
     Davidson diagonalization with overlap
     ethr =  3.76E-10,  avg # of iterations =  1.0

     negative rho (up, down):  1.566E-03 0.000E+00

     total cpu time spent up to now is      520.6 secs

     total energy              =   -1842.83698946 Ry
     Harris-Foulkes estimate   =   -1842.83698948 Ry
     estimated scf accuracy    <       0.00000016 Ry

     iteration # 31     ecut=    60.00 Ry     beta= 0.70
     Davidson diagonalization with overlap
     ethr =  6.88E-11,  avg # of iterations =  2.8

     negative rho (up, down):  1.558E-03 0.000E+00

     total cpu time spent up to now is      536.1 secs

     total energy              =   -1842.83698948 Ry
     Harris-Foulkes estimate   =   -1842.83698948 Ry
     estimated scf accuracy    <       0.00000009 Ry

     iteration # 32     ecut=    60.00 Ry     beta= 0.70
     Davidson diagonalization with overlap
     ethr =  3.77E-11,  avg # of iterations =  1.2

     negative rho (up, down):  1.559E-03 0.000E+00

     total cpu time spent up to now is      550.1 secs

     total energy              =   -1842.83698948 Ry
     Harris-Foulkes estimate   =   -1842.83698949 Ry
     estimated scf accuracy    <       0.00000005 Ry

     iteration # 33     ecut=    60.00 Ry     beta= 0.70
     Davidson diagonalization with overlap
     ethr =  2.05E-11,  avg # of iterations =  1.4

     negative rho (up, down):  1.557E-03 0.000E+00

     total cpu time spent up to now is      564.3 secs

     total energy              =   -1842.83698949 Ry
     Harris-Foulkes estimate   =   -1842.83698948 Ry
     estimated scf accuracy    <          5.4E-09 Ry

     iteration # 34     ecut=    60.00 Ry     beta= 0.70
     Davidson diagonalization with overlap
     ethr =  2.37E-12,  avg # of iterations =  3.4

     negative rho (up, down):  1.557E-03 0.000E+00

     total cpu time spent up to now is      581.9 secs

     total energy              =   -1842.83698949 Ry
     Harris-Foulkes estimate   =   -1842.83698949 Ry
     estimated scf accuracy    <          4.1E-09 Ry

     iteration # 35     ecut=    60.00 Ry     beta= 0.70
     Davidson diagonalization with overlap
     ethr =  1.81E-12,  avg # of iterations =  1.0

     negative rho (up, down):  1.556E-03 0.000E+00

     total cpu time spent up to now is      595.7 secs

     total energy              =   -1842.83698949 Ry
     Harris-Foulkes estimate   =   -1842.83698949 Ry
     estimated scf accuracy    <          7.5E-10 Ry

     iteration # 36     ecut=    60.00 Ry     beta= 0.70
     Davidson diagonalization with overlap
     ethr =  3.28E-13,  avg # of iterations =  1.2

     negative rho (up, down):  1.554E-03 0.000E+00

     total cpu time spent up to now is      609.6 secs

     total energy              =   -1842.83698949 Ry
     Harris-Foulkes estimate   =   -1842.83698949 Ry
     estimated scf accuracy    <          4.1E-10 Ry

     iteration # 37     ecut=    60.00 Ry     beta= 0.70
     Davidson diagonalization with overlap
     ethr =  1.80E-13,  avg # of iterations =  1.1

     negative rho (up, down):  1.554E-03 0.000E+00

     total cpu time spent up to now is      623.2 secs

     total energy              =   -1842.83698949 Ry
     Harris-Foulkes estimate   =   -1842.83698949 Ry
     estimated scf accuracy    <          4.6E-10 Ry

     iteration # 38     ecut=    60.00 Ry     beta= 0.70
     Davidson diagonalization with overlap
     ethr =  1.80E-13,  avg # of iterations =  1.0

     negative rho (up, down):  1.553E-03 0.000E+00

     total cpu time spent up to now is      637.2 secs

     total energy              =   -1842.83698949 Ry
     Harris-Foulkes estimate   =   -1842.83698949 Ry
     estimated scf accuracy    <          3.2E-10 Ry

     iteration # 39     ecut=    60.00 Ry     beta= 0.70
     Davidson diagonalization with overlap
     ethr =  1.40E-13,  avg # of iterations =  1.0

     negative rho (up, down):  1.552E-03 0.000E+00

     total cpu time spent up to now is      650.4 secs

     End of self-consistent calculation

          k = 0.0000 0.0000 0.0000 ( 34429 PWs)   bands (ev):

   -35.6473 -35.6268 -22.8200 -22.8175 -22.6211 -22.5108 -17.1495 -17.1315
   -16.6991 -16.6877 -16.6795 -16.6662 -15.3517 -15.3389 -14.7044 -14.6989
   -14.6705 -14.6257 -14.6112 -14.2084 -14.2061 -14.0242 -14.0144 -13.8914
   -13.8649 -13.8509 -12.9208  -7.9519  -7.9490  -7.9135  -7.9113  -7.7743
    -7.7255  -7.7207  -7.7183  -7.6785  -7.5077  -7.5035  -7.3152  -2.3558
    -2.3547  -1.9588  -1.8674  -1.8634  -1.8437  -1.8346  -1.7154  -1.7012
    -1.6006  -1.5793  -1.5443  -1.5328  -1.2467  -1.2437  -0.9035  -0.5155
    -0.4850  -0.4832  -0.4038  -0.4022  -0.3631  -0.3464  -0.3264  -0.3213
    -0.3094  -0.3023  -0.2913  -0.2896  -0.2744  -0.2730  -0.2131  -0.1718
    -0.0645  -0.0629   0.0647   0.0671   0.0705   0.0729   0.0752   0.0800
     0.0840   0.0933   0.1402   0.1428   0.2069   0.2335   0.2701   0.2949
     0.5824   0.7688   0.7698   0.8548   0.8569   0.9054   0.9444   1.1411
     1.1463   1.3072   1.3199   1.3377   1.3493   1.4516   1.4674   1.4810
     1.4979   1.4987   1.5127   1.7746   1.7908   1.8762   2.0060   2.0125
     2.1004   2.2032   2.2158   2.3076   2.3368   2.5063   2.5179   5.1792
     5.1923   5.4527   6.1465   6.2938   6.7256   6.7350   6.9834   7.0887
     7.9373   8.0509   8.2007   8.2560   8.5012   8.5847   8.6515   9.0011
     9.1639

          k = 0.0000 0.1320 0.0000 ( 34389 PWs)   bands (ev):

   -35.6455 -35.6250 -22.7933 -22.7908 -22.5955 -22.4869 -17.1135 -17.0954
   -16.7600 -16.7387 -16.6967 -16.6772 -15.2628 -15.2504 -14.7097 -14.7044
   -14.6259 -14.5992 -14.5818 -14.2183 -14.2156 -14.0272 -14.0176 -13.9487
   -13.9062 -13.8814 -12.9778  -7.9514  -7.9486  -7.8657  -7.8634  -7.7740
    -7.7619  -7.7602  -7.7233  -7.6328  -7.5570  -7.4625  -7.3509  -2.4158
    -2.4140  -2.2355  -2.2169  -2.1428  -2.1226  -1.9443  -1.6938  -1.6808
    -1.6713  -1.6682  -1.5836  -1.5626  -1.4965  -1.3769  -1.3681  -0.7799
    -0.6672  -0.6466  -0.5827  -0.5808  -0.4910  -0.4888  -0.4267  -0.4262
    -0.4182  -0.3257  -0.2468  -0.2343  -0.2160  -0.2088  -0.1823  -0.1741
    -0.1718  -0.0430  -0.0413  -0.0323  -0.0266   0.0700   0.0778   0.0957
     0.0977   0.1024   0.1149   0.1621   0.2394   0.2557   0.3130   0.3303
     0.7793   0.9089   0.9768   1.0384   1.0515   1.0538   1.0927   1.1077
     1.1173   1.1326   1.1541   1.3923   1.4108   1.4335   1.4412   1.5398
     1.5650   1.5690   1.6653   1.7459   1.7749   1.8425   1.9440   1.9719
     2.0162   2.0979   2.1215   2.5136   2.6306   2.7960   2.8000   5.5633
     5.5677   5.7665   6.4532   6.5398   7.0332   7.0398   7.2938   7.4044
     8.1118   8.2485   8.4117   8.4617   8.6941   8.7793   8.9007   9.1766
     9.2266

          k = 0.0000 0.2640 0.0000 ( 34275 PWs)   bands (ev):

   -35.6411 -35.6206 -22.7274 -22.7249 -22.5321 -22.4278 -17.0218 -17.0036
   -16.9139 -16.8928 -16.6911 -16.6715 -15.0599 -15.0495 -14.7624 -14.7540
   -14.5587 -14.5129 -14.5019 -14.2067 -14.2023 -14.0755 -14.0602 -14.0565
   -13.9930 -13.9334 -13.1078  -7.9509  -7.9481  -7.8534  -7.8508  -7.7714
    -7.7453  -7.7430  -7.7185  -7.6634  -7.5183  -7.4271  -7.3599  -2.8691
    -2.8623  -2.7137  -2.6826  -2.4915  -2.4552  -2.4533  -2.3073  -2.3053
    -1.9519  -1.6368  -1.6269  -1.5565  -1.5282  -1.5251  -1.5087  -1.2952
    -1.0523  -0.9629  -0.8350  -0.8329  -0.7019  -0.6894  -0.6401  -0.6114
    -0.6011  -0.5798  -0.5503  -0.5242  -0.5218  -0.5154  -0.4883  -0.3843
    -0.3210  -0.0147  -0.0129   0.0263   0.0553   0.0649   0.1022   0.1276
     0.1620   0.2004   0.3253   0.3447   0.5679   0.5751   0.6651   0.6777
     0.9197   0.9371   0.9589   1.0979   1.1066   1.1372   1.1390   1.1833
     1.1989   1.2558   1.2683   1.2940   1.3576   1.4465   1.5216   1.6339
     1.7246   1.7568   1.8188   1.8442   1.8840   1.9174   1.9199   1.9466
     1.9491   2.0470   2.1519   2.6290   2.9956   3.0213   3.2082   6.4599
     6.4620   6.5146   7.2393   7.2629   7.8577   7.8620   8.1333   8.2714
     8.6155   8.7314   8.7836   8.8515   8.9843   9.1231   9.2563   9.2733
     9.2773

          k = 0.0000 0.3960 0.0000 ( 34242 PWs)   bands (ev):

   -35.6367 -35.6162 -22.6593 -22.6568 -22.4668 -22.3671 -17.0504 -17.0291
   -16.9201 -16.9021 -16.6854 -16.6658 -14.9638 -14.9614 -14.7425 -14.7194
   -14.5689 -14.4496 -14.3724 -14.1620 -14.1506 -14.1437 -14.1389 -14.1170
   -14.0739 -13.9928 -13.2250  -7.9508  -7.9481  -7.9315  -7.9290  -7.7789
    -7.7473  -7.7118  -7.6169  -7.6145  -7.4918  -7.3967  -7.2520  -3.3293
    -3.3203  -3.2684  -3.1239  -3.1170  -3.0227  -3.0200  -2.3979  -2.3968
    -1.9800  -1.8696  -1.8465  -1.6686  -1.5687  -1.5618  -1.4319  -1.4154
    -1.2883  -1.1770  -1.1051  -1.1025  -0.9405  -0.9141  -0.9039  -0.8844
    -0.8423  -0.8034  -0.7818  -0.7672  -0.7520  -0.6830  -0.5590  -0.4031
    -0.3124  -0.0777   0.0023   0.0043   0.0685   0.0947   0.1033   0.1281
     0.1404   0.1510   0.4480   0.4730   0.7317   0.7454   0.8909   0.8941
     0.9190   0.9343   1.0086   1.0311   1.0633   1.1085   1.1089   1.1105
     1.1935   1.3061   1.4726   1.5603   1.5821   1.6350   1.6706   1.6843
     1.6863   1.7213   1.8650   1.9295   1.9363   1.9437   2.1477   2.2028
     2.3137   2.3410   2.3434   2.5420   2.8903   2.9186   3.4481   7.3226
     7.4068   7.4099   8.1858   8.2133   8.6351   8.6518   8.6898   8.9468
     9.0273   9.0449   9.0449   9.0713   9.3033   9.4107   9.4412   9.4760
     9.6625

          k = 0.0000-0.5279 0.0000 ( 34286 PWs)   bands (ev):

   -35.6348 -35.6143 -22.6303 -22.6278 -22.4390 -22.3414 -17.1025 -17.0812
   -16.8754 -16.8574 -16.6831 -16.6635 -15.0051 -15.0020 -14.6254 -14.6183
   -14.6121 -14.4322 -14.3118 -14.1979 -14.1818 -14.1482 -14.1133 -14.1000
   -14.0979 -14.0537 -13.2695  -7.9612  -7.9587  -7.9504  -7.9477  -7.8013
    -7.7590  -7.7088  -7.5610  -7.5586  -7.5160  -7.3439  -7.2056  -3.5467
    -3.4982  -3.4954  -3.2976  -3.2902  -3.2512  -3.2483  -2.4140  -2.4129
    -1.9941  -1.9902  -1.9744  -1.8024  -1.5346  -1.5287  -1.3853  -1.3509
    -1.3370  -1.2678  -1.2307  -1.2270  -1.0622  -1.0352  -1.0233  -0.9774
    -0.9507  -0.8730  -0.8637  -0.8615  -0.8275  -0.7698  -0.5579  -0.3685
    -0.2739  -0.1348   0.0079   0.0099   0.0333   0.0882   0.1234   0.1371
     0.1444   0.1689   0.3722   0.3889   0.7717   0.7780   0.8128   0.8254
     0.9705   0.9847   0.9960   1.0759   1.0919   1.0936   1.1615   1.2099
     1.2639   1.2768   1.4251   1.5662   1.6676   1.6883   1.6891   1.7775
     1.9658   1.9675   1.9683   1.9697   1.9773   2.0149   2.0221   2.2736
     2.4445   2.4904   2.5026   2.5050   2.7104   2.7437   3.4931   7.7671
     7.8185   7.8236   8.4901   8.7331   8.8863   8.9145   8.9432   8.9607
     8.9610   9.0319   9.2846   9.2979   9.3229   9.4066   9.8176   9.9518
    10.0678

          k = 0.1250 0.0000 0.0000 ( 34399 PWs)   bands (ev):

   -35.6462 -35.6257 -22.8020 -22.7995 -22.6037 -22.4953 -17.1162 -17.0980
   -16.7791 -16.7602 -16.6863 -16.6649 -15.2488 -15.2359 -14.7493 -14.7446
   -14.6921 -14.6318 -14.6161 -14.2174 -14.2151 -14.0347 -14.0258 -13.9105
   -13.8875 -13.8792 -12.9866  -7.9775  -7.9746  -7.8520  -7.8495  -7.8114
    -7.7323  -7.6883  -7.6858  -7.6121  -7.4768  -7.4557  -7.2879  -2.3988
    -2.3976  -2.0414  -1.9038  -1.9020  -1.8635  -1.8490  -1.8447  -1.8269
    -1.8111  -1.8029  -1.5106  -1.4966  -1.2446  -1.2416  -0.9287  -0.6781
    -0.6747  -0.5420  -0.5401  -0.5125  -0.4695  -0.4623  -0.4586  -0.3665
    -0.3648  -0.3514  -0.3421  -0.3108  -0.2970  -0.2505  -0.2218  -0.1986
    -0.0977  -0.0951   0.0573   0.0656   0.0679   0.0765   0.0812   0.1275
     0.1651   0.1673   0.1793   0.1872   0.2803   0.2990   0.3538   0.3924
     0.5736   0.7543   0.7646   0.7748   0.8674   0.9397   0.9898   1.1322
     1.1492   1.1789   1.1873   1.3222   1.3363   1.4459   1.4528   1.4666
     1.5098   1.5741   1.7774   1.8517   1.9130   1.9554   1.9643   2.0236
     2.0428   2.1364   2.2462   2.2524   2.3671   2.5425   2.5499   5.3666
     5.3718   5.6372   6.3755   6.4711   6.9425   6.9492   7.1951   7.3203
     8.0823   8.1807   8.3517   8.4295   8.7435   8.7609   8.9015   9.0941
     9.3816

          k = 0.1250 0.1320 0.0000 ( 34364 PWs)   bands (ev):

   -35.6444 -35.6239 -22.7761 -22.7736 -22.5787 -22.4719 -17.0812 -17.0630
   -16.7820 -16.7626 -16.7494 -16.7285 -15.1670 -15.1546 -14.7447 -14.7393
   -14.6472 -14.6003 -14.5848 -14.2186 -14.2160 -14.0364 -14.0296 -13.9627
   -13.9235 -13.9048 -13.0269  -7.9964  -7.9939  -7.9145  -7.9118  -7.8099
    -7.7339  -7.6967  -7.6502  -7.6478  -7.5446  -7.4395  -7.2459  -2.4530
    -2.4506  -2.2388  -2.2087  -2.1283  -2.1011  -1.9845  -1.8822  -1.8805
    -1.8346  -1.8079  -1.6653  -1.6622  -1.5069  -1.3693  -1.3621  -0.8793
    -0.8401  -0.7555  -0.7065  -0.6981  -0.6198  -0.6167  -0.5305  -0.5286
    -0.4732  -0.3894  -0.3034  -0.3017  -0.2559  -0.2362  -0.2142  -0.1679
    -0.1133  -0.0887  -0.0634  -0.0254  -0.0228   0.0894   0.1193   0.1298
     0.1449   0.1565   0.1900   0.2056   0.2553   0.2697   0.4642   0.4894
     0.8196   0.9862   1.0037   1.0165   1.0508   1.0853   1.1124   1.1784
     1.1966   1.2187   1.2360   1.2581   1.2697   1.2846   1.3092   1.5634
     1.5666   1.5925   1.6329   1.6352   1.7331   1.7695   1.9989   2.3020
     2.3162   2.3333   2.4278   2.5653   2.6419   2.8013   2.8053   5.7077
     5.7102   5.9024   6.6340   6.6896   7.2412   7.2459   7.4976   7.6293
     8.2546   8.3658   8.5397   8.6103   8.8454   8.9502   9.0879   9.2201
     9.2797

          k = 0.1250 0.2640 0.0000 ( 34297 PWs)   bands (ev):

   -35.6400 -35.6195 -22.7123 -22.7098 -22.5173 -22.4145 -16.9925 -16.9741
   -16.9107 -16.8897 -16.7618 -16.7427 -14.9870 -14.9778 -14.7527 -14.7418
   -14.5646 -14.5092 -14.5001 -14.2018 -14.1984 -14.0907 -14.0779 -14.0583
   -13.9911 -13.9411 -13.1203  -8.0652  -8.0628  -7.9517  -7.9489  -7.8542
    -7.7726  -7.7194  -7.6473  -7.6411  -7.6385  -7.4361  -7.2432  -2.8936
    -2.8858  -2.7180  -2.6869  -2.4838  -2.4558  -2.4539  -2.3068  -2.3046
    -1.9970  -1.8333  -1.8291  -1.7841  -1.7587  -1.5515  -1.5290  -1.3044
    -1.0694  -1.0232  -1.0130  -0.9803  -0.9303  -0.9170  -0.7246  -0.7200
    -0.6852  -0.6147  -0.6073  -0.5461  -0.5320  -0.5105  -0.4463  -0.3898
    -0.3486  -0.1831  -0.1389  -0.0494  -0.0002   0.1535   0.1690   0.1917
     0.3147   0.3902   0.4455   0.4575   0.7039   0.7187   0.7522   0.7609
     0.9821   0.9954   1.0257   1.0662   1.0803   1.1777   1.2529   1.2598
     1.2868   1.2946   1.3620   1.3704   1.4005   1.4607   1.5162   1.5334
     1.5979   1.6037   1.6101   1.8629   1.9122   1.9129   2.0017   2.3195
     2.4987   2.5157   2.6237   2.7709   2.9993   3.0331   3.2081   6.5209
     6.5230   6.5414   7.3208   7.3399   8.0239   8.0265   8.3085   8.4693
     8.7350   8.7921   8.8247   8.8957   9.0304   9.0940   9.1236   9.1774
     9.2645

          k = 0.1250 0.3960 0.0000 ( 34292 PWs)   bands (ev):

   -35.6356 -35.6151 -22.6463 -22.6438 -22.4540 -22.3554 -17.0453 -17.0240
   -16.8937 -16.8756 -16.7532 -16.7341 -14.9281 -14.9260 -14.6721 -14.6440
   -14.5392 -14.4338 -14.3634 -14.1874 -14.1830 -14.1453 -14.1337 -14.1096
   -14.0579 -13.9851 -13.2057  -8.0957  -8.0932  -7.9632  -7.9604  -7.9121
    -7.7701  -7.7204  -7.6862  -7.6838  -7.6634  -7.4745  -7.3066  -3.3705
    -3.3622  -3.2634  -3.1490  -3.1397  -3.0140  -3.0113  -2.4062  -2.4051
    -2.0134  -1.8238  -1.8198  -1.7329  -1.6943  -1.6896  -1.6576  -1.5291
    -1.3639  -1.3590  -1.2409  -1.2238  -1.2164  -1.1447  -0.9659  -0.9134
    -0.8984  -0.8920  -0.8529  -0.7859  -0.7836  -0.6218  -0.5499  -0.4176
    -0.3786  -0.2228  -0.1624  -0.0198   0.0371   0.1749   0.1774   0.2109
     0.3451   0.4174   0.6243   0.6507   0.8668   0.8744   0.9194   0.9393
     1.0003   1.0187   1.0257   1.1161   1.1319   1.2003   1.2022   1.2384
     1.3345   1.3648   1.5889   1.6062   1.6087   1.6794   1.6870   1.7191
     1.7791   1.8294   1.8382   2.0121   2.2814   2.3081   2.3105   2.3544
     2.4468   2.4635   2.5967   2.6931   2.9302   2.9787   3.4388   7.1637
     7.2711   7.2753   8.0506   8.0839   8.6169   8.6341   8.6498   8.8207
     8.8872   8.9579   9.3239   9.3385   9.4647   9.5331   9.5739   9.6627
     9.7700

          k = 0.1250-0.5279 0.0000 ( 34244 PWs)   bands (ev):

   -35.6338 -35.6133 -22.6184 -22.6159 -22.4272 -22.3304 -17.0968 -17.0755
   -16.8506 -16.8324 -16.7494 -16.7303 -14.9602 -14.9573 -14.5827 -14.5442
   -14.5381 -14.4057 -14.2957 -14.2285 -14.2165 -14.1242 -14.1145 -14.1006
   -14.0975 -14.0386 -13.2383  -8.0903  -8.0878  -7.9680  -7.9653  -7.9238
    -7.7700  -7.7220  -7.7201  -7.7166  -7.6442  -7.4985  -7.3564  -3.5638
    -3.5476  -3.5219  -3.3309  -3.3214  -3.2432  -3.2405  -2.4272  -2.4261
    -2.0175  -1.8570  -1.8501  -1.7657  -1.6439  -1.6311  -1.5537  -1.5498
    -1.5427  -1.4925  -1.4015  -1.3913  -1.2997  -1.2285  -1.0634  -1.0129
    -0.9761  -0.9741  -0.9451  -0.8787  -0.8766  -0.6894  -0.5522  -0.3947
    -0.3676  -0.2376  -0.1742  -0.0032   0.0557   0.1859   0.1882   0.2214
     0.3493   0.4134   0.5952   0.6111   0.8978   0.9011   0.9250   0.9307
     0.9715   0.9917   1.0066   1.1266   1.2301   1.2370   1.2767   1.2983
     1.3326   1.3913   1.4225   1.7294   1.7334   1.9578   1.9629   1.9693
     1.9787   1.9959   2.0050   2.0086   2.3116   2.3188   2.4189   2.4730
     2.4734   2.4758   2.4898   2.5227   2.8003   2.8567   3.4777   7.4146
     7.4921   7.4976   8.2266   8.2725   8.5871   8.7860   8.9879   9.0479
     9.2717   9.2754   9.4346   9.5529   9.6169   9.6926   9.9151  10.0330
    10.0734

          k = 0.2500 0.0000 0.0000 ( 34384 PWs)   bands (ev):

   -35.6436 -35.6231 -22.7577 -22.7551 -22.5608 -22.4573 -17.0314 -17.0128
   -16.9427 -16.9248 -16.6830 -16.6615 -15.0420 -15.0329 -14.8461 -14.8302
   -14.7616 -14.6424 -14.6411 -14.2318 -14.2291 -14.0799 -14.0698 -13.9521
   -13.9373 -13.9227 -13.1377  -7.9790  -7.9761  -7.8367  -7.7652  -7.7628
    -7.7188  -7.6076  -7.6051  -7.5339  -7.4002  -7.3589  -7.2207  -2.5953
    -2.5912  -2.4132  -2.3353  -2.2381  -2.2354  -1.9527  -1.7954  -1.7915
    -1.7151  -1.7085  -1.5273  -1.4975  -1.2413  -1.2383  -1.0025  -0.9960
    -0.9633  -0.7992  -0.7969  -0.7827  -0.7157  -0.7132  -0.6667  -0.5684
    -0.5577  -0.5561  -0.3683  -0.3654  -0.3367  -0.2841  -0.2759  -0.2563
    -0.2299  -0.2070   0.0529   0.0553   0.0613   0.1307   0.1610   0.1687
     0.2960   0.2973   0.3549   0.3624   0.3682   0.4323   0.4936   0.5081
     0.5185   0.6275   0.6331   0.7797   0.8862   0.8902   1.0211   1.2415
     1.2453   1.2725   1.2754   1.3218   1.3698   1.3817   1.3856   1.4659
     1.5148   1.5530   1.7043   1.8395   1.8588   1.9283   1.9939   1.9955
     2.0520   2.2574   2.2706   2.4198   2.5084   2.6489   2.6596   5.8272
     5.8293   6.0723   6.9717   7.0050   7.5220   7.5268   7.7801   7.9633
     8.4391   8.4505   8.6576   8.8348   8.9280   9.0784   9.2666   9.5298
     9.5314

          k = 0.2500 0.1320 0.0000 ( 34351 PWs)   bands (ev):

   -35.6418 -35.6213 -22.7338 -22.7313 -22.5378 -22.4355 -16.9996 -16.9810
   -16.9361 -16.9182 -16.7490 -16.7276 -14.9884 -14.9812 -14.8023 -14.7823
   -14.7096 -14.6057 -14.6036 -14.2175 -14.2149 -14.0758 -14.0688 -13.9896
   -13.9600 -13.9452 -13.1418  -8.0472  -8.0447  -7.9024  -7.8996  -7.8717
    -7.7284  -7.6976  -7.5739  -7.5715  -7.5624  -7.3724  -7.1754  -2.6471
    -2.6407  -2.4507  -2.3660  -2.2295  -2.2266  -2.1394  -2.1349  -2.0349
    -2.0207  -1.9228  -1.6557  -1.6526  -1.5345  -1.4262  -1.4214  -1.0719
    -1.0488  -1.0291  -0.9871  -0.9591  -0.9457  -0.8099  -0.6634  -0.6597
    -0.6361  -0.5898  -0.4243  -0.3866  -0.3681  -0.3141  -0.2681  -0.2386
    -0.2343  -0.0633  -0.0554  -0.0056   0.0040   0.0762   0.1323   0.1556
     0.1871   0.2867   0.3072   0.3189   0.5266   0.5789   0.7205   0.7436
     0.8377   0.8735   0.8837   0.9695   1.0123   1.0774   1.1319   1.1738
     1.1889   1.3336   1.3410   1.3705   1.3790   1.4017   1.4502   1.4566
     1.4896   1.5009   1.5360   1.7022   1.7044   1.7755   2.0358   2.4596
     2.6043   2.6425   2.6991   2.8033   2.8206   2.8564   2.8652   6.0886
     6.0905   6.2305   7.1273   7.1529   7.7818   7.7852   8.0541   8.2445
     8.5511   8.5676   8.7962   8.9481   8.9670   9.1479   9.1895   9.2260
     9.3851

          k = 0.2500 0.2640 0.0000 ( 34331 PWs)   bands (ev):

   -35.6374 -35.6169 -22.6751 -22.6726 -22.4811 -22.3818 -16.9381 -16.9187
   -16.9094 -16.8914 -16.8854 -16.8649 -14.8921 -14.8892 -14.6774 -14.6446
   -14.5847 -14.5160 -14.4949 -14.1951 -14.1908 -14.1282 -14.1161 -14.0395
   -13.9930 -13.9598 -13.1511  -8.2672  -8.2648  -8.0540  -7.9642  -7.9615
    -7.8549  -7.7802  -7.7107  -7.6938  -7.6913  -7.4977  -7.2934  -3.0345
    -3.0213  -2.7994  -2.7516  -2.4707  -2.4679  -2.4617  -2.3411  -2.3377
    -2.2756  -2.2297  -2.1983  -2.1932  -1.9194  -1.4957  -1.4863  -1.4525
    -1.4495  -1.3815  -1.3352  -1.2098  -1.0482  -1.0022  -0.7849  -0.7684
    -0.7647  -0.7078  -0.6541  -0.6252  -0.6215  -0.5165  -0.4935  -0.4667
    -0.4287  -0.3704  -0.2860  -0.0339   0.0557   0.2584   0.3318   0.3562
     0.5128   0.5775   0.7319   0.7757   0.7923   0.8007   0.9269   0.9372
     1.0328   1.1055   1.1420   1.2230   1.2298   1.2716   1.3302   1.3348
     1.4042   1.4089   1.4309   1.4517   1.4876   1.5492   1.5654   1.5848
     1.6374   1.6697   1.7491   1.8302   1.8320   1.8387   2.2114   2.4384
     2.9530   2.9641   3.1641   3.2293   3.2364   3.3594   3.3691   6.5507
     6.6307   6.6328   7.5164   7.5338   8.3160   8.3182   8.6500   8.6717
     8.7153   8.9465   9.0173   9.0230   9.2186   9.2946   9.3431   9.3745
     9.3902

          k = 0.2500 0.3960 0.0000 ( 34334 PWs)   bands (ev):

   -35.6331 -35.6126 -22.6147 -22.6122 -22.4228 -22.3268 -17.0332 -17.0120
   -16.9015 -16.8832 -16.8248 -16.8064 -14.8458 -14.8441 -14.5262 -14.4744
   -14.4685 -14.4090 -14.3434 -14.2560 -14.2495 -14.1275 -14.1179 -14.0870
   -14.0208 -13.9734 -13.1583  -8.3872  -8.3848  -8.1882  -8.0144  -8.0118
    -7.9641  -7.9078  -7.9053  -7.7985  -7.7439  -7.7041  -7.5298  -3.5330
    -3.5209  -3.3050  -3.2493  -3.1894  -2.9931  -2.9904  -2.4795  -2.4775
    -2.2703  -2.1985  -2.1560  -2.1403  -1.9051  -1.8347  -1.8232  -1.7075
    -1.6680  -1.4980  -1.4707  -1.3526  -1.2275  -1.2064  -1.0435  -0.9311
    -0.8756  -0.8364  -0.8341  -0.8257  -0.8208  -0.6343  -0.5972  -0.5331
    -0.4892  -0.4436  -0.3537   0.0789   0.1819   0.2997   0.3864   0.4087
     0.6690   0.8051   0.9423   0.9549   0.9588   0.9703   1.0912   1.2061
     1.2120   1.2517   1.2696   1.2864   1.2917   1.4218   1.4753   1.5008
     1.5451   1.6312   1.6553   1.6856   1.7328   1.7419   1.7587   1.8153
     1.8629   1.8669   1.9342   2.1577   2.2280   2.2304   2.2355   2.4108
     2.7869   2.7972   3.3643   3.4535   3.4608   3.6066   3.6150   6.6853
     6.8376   6.8425   7.6648   7.7082   8.6332   8.7577   8.7652   8.8478
     8.9995   9.0941   9.5983   9.6385   9.7318   9.7502   9.7731   9.8438
     9.9318

          k = 0.2500-0.5279 0.0000 ( 34344 PWs)   bands (ev):

   -35.6312 -35.6107 -22.5892 -22.5866 -22.3982 -22.3036 -17.0833 -17.0621
   -16.8959 -16.8777 -16.7855 -16.7670 -14.8425 -14.8404 -14.4722 -14.3993
   -14.3959 -14.3473 -14.3001 -14.2886 -14.2600 -14.1130 -14.0949 -14.0918
   -14.0626 -14.0075 -13.1603  -8.3874  -8.3849  -8.2085  -8.1022  -8.0998
    -7.9743  -7.9717  -7.9452  -7.8538  -7.7945  -7.7514  -7.6684  -3.7325
    -3.7199  -3.5380  -3.4467  -3.4255  -3.2207  -3.2180  -2.4865  -2.4846
    -2.2388  -2.1610  -2.1132  -2.0869  -1.9936  -1.9790  -1.8913  -1.8543
    -1.8018  -1.5214  -1.4951  -1.4049  -1.3011  -1.2858  -1.1350  -1.0210
    -0.9609  -0.9078  -0.9022  -0.8500  -0.8448  -0.6470  -0.6029  -0.5494
    -0.5082  -0.4661  -0.3657   0.1203   0.2157   0.3095   0.4054   0.4437
     0.6995   0.8417   0.9894   1.0016   1.0482   1.0534   1.1608   1.1635
     1.1667   1.2827   1.3093   1.3698   1.3852   1.4739   1.4787   1.4998
     1.5898   1.7570   1.7914   1.8570   1.8653   1.9461   1.9544   1.9958
     2.0085   2.0224   2.0334   2.0518   2.3836   2.4056   2.4078   2.4716
     2.5639   2.5777   3.3913   3.4753   3.4831   3.6426   3.6515   6.6692
     6.8024   6.8059   7.6248   7.6804   8.6182   8.7702   9.0955   9.2234
     9.4882   9.4913   9.5798   9.7648   9.8196   9.9185   9.9254  10.0255
    10.0694

          k = 0.3750 0.0000 0.0000 ( 34362 PWs)   bands (ev):

   -35.6409 -35.6204 -22.7122 -22.7097 -22.5170 -22.4185 -17.0830 -17.0657
   -16.9359 -16.9169 -16.6797 -16.6582 -15.0736 -15.0712 -14.8797 -14.6909
   -14.6806 -14.6453 -14.6313 -14.2451 -14.2409 -14.1802 -14.1699 -13.9819
   -13.9705 -13.9522 -13.2773  -7.9615  -7.9587  -7.8286  -7.7002  -7.6980
    -7.6928  -7.5232  -7.5207  -7.4929  -7.3203  -7.2773  -7.1510  -2.9257
    -2.9195  -2.7829  -2.7248  -2.3585  -2.3572  -1.9972  -1.7189  -1.7165
    -1.6267  -1.6003  -1.5662  -1.5618  -1.2429  -1.2399  -1.2272  -1.0944
    -1.0935  -1.0531  -1.0508  -0.9537  -0.9503  -0.9476  -0.9065  -0.7577
    -0.7562  -0.6169  -0.4994  -0.4608  -0.3768  -0.3558  -0.3025  -0.2944
    -0.2622  -0.2587   0.0401   0.0424   0.0473   0.0757   0.1410   0.1806
     0.3327   0.3754   0.3771   0.3880   0.3928   0.3966   0.4161   0.4636
     0.4801   0.6620   0.6976   0.7838   1.0602   1.1518   1.1551   1.1658
     1.1673   1.1779   1.3115   1.3236   1.3757   1.4555   1.4713   1.5746
     1.6148   1.7102   1.7302   1.7458   1.7804   1.8424   1.8876   2.0821
     2.0863   2.2940   2.3059   2.5263   2.5735   2.7646   2.7840   6.4770
     6.4789   6.5958   7.7030   7.7349   7.9712   7.9734   8.3964   8.4259
     8.4764   8.6227   8.7681   9.1211   9.2931   9.4313   9.4483   9.4517
     9.5213

          k = 0.3750 0.1320 0.0000 ( 34383 PWs)   bands (ev):

   -35.6392 -35.6187 -22.6905 -22.6880 -22.4959 -22.3983 -17.0744 -17.0571
   -16.9069 -16.8879 -16.7440 -16.7226 -15.0258 -15.0236 -14.8196 -14.6520
   -14.6368 -14.5834 -14.5715 -14.2163 -14.2128 -14.1592 -14.1500 -14.0190
   -13.9902 -13.9661 -13.2501  -8.0188  -8.0162  -7.8646  -7.8614  -7.8604
    -7.7110  -7.6587  -7.6129  -7.6104  -7.4883  -7.4200  -7.2202  -2.9895
    -2.9806  -2.8257  -2.7600  -2.3576  -2.3562  -2.1102  -2.0959  -2.0051
    -1.9305  -1.9011  -1.6441  -1.6410  -1.5461  -1.5023  -1.4921  -1.3437
    -1.3398  -1.2639  -1.2268  -1.1179  -0.9975  -0.8473  -0.8251  -0.8149
    -0.7657  -0.7315  -0.4706  -0.4503  -0.4399  -0.3712  -0.3209  -0.2938
    -0.2921  -0.0937  -0.0826   0.0105   0.0192   0.0574   0.1301   0.1525
     0.1660   0.3991   0.4145   0.4236   0.6151   0.6293   0.7215   0.7560
     0.7644   0.8956   0.9231   1.0036   1.1096   1.1486   1.1760   1.1861
     1.2233   1.3220   1.3309   1.3331   1.4254   1.4951   1.4989   1.6131
     1.6600   1.6635   1.7063   1.7534   1.7554   1.7671   1.8709   2.4542
     2.6502   2.7245   2.7439   2.8944   2.9024   3.0659   3.0781   6.6060
     6.6265   6.6288   7.7495   7.7696   8.0368   8.0390   8.3861   8.4612
     8.5743   8.8404   8.9665   9.1361   9.2840   9.3212   9.4629   9.5968
     9.6461

          k = 0.3750 0.2640 0.0000 ( 34389 PWs)   bands (ev):

   -35.6348 -35.6143 -22.6372 -22.6347 -22.4442 -22.3486 -17.0541 -17.0366
   -16.8884 -16.8670 -16.8317 -16.8128 -14.9033 -14.9017 -14.6614 -14.5581
   -14.5335 -14.4339 -14.4208 -14.1807 -14.1730 -14.1465 -14.1404 -14.0616
   -14.0282 -13.9678 -13.1818  -8.3199  -8.3175  -8.1091  -7.9987  -7.9962
    -7.9066  -7.8763  -7.8738  -7.7999  -7.7133  -7.6851  -7.4921  -3.3128
    -3.2951  -3.0626  -2.9974  -2.5342  -2.5308  -2.4394  -2.4301  -2.4241
    -2.4083  -2.4061  -2.2780  -2.2760  -1.9696  -1.8204  -1.8075  -1.6414
    -1.6121  -1.2927  -1.2752  -1.1404  -1.0340  -0.9927  -0.9160  -0.9122
    -0.8766  -0.8095  -0.7100  -0.6775  -0.6749  -0.5764  -0.5564  -0.4899
    -0.4151  -0.4010  -0.3046  -0.0177   0.0964   0.3295   0.4418   0.4999
     0.6494   0.6822   0.7945   0.8128   0.9735   0.9803   1.0486   1.0938
     1.1163   1.1813   1.1848   1.2437   1.3429   1.3725   1.3794   1.3900
     1.5666   1.5861   1.5968   1.6010   1.6778   1.6911   1.7017   1.7199
     1.7259   1.7527   1.7764   1.7867   1.7908   1.8506   2.1810   2.4151
     2.9500   2.9674   3.1663   3.6820   3.6853   3.7808   3.7862   6.4847
     6.6710   6.6736   7.5738   7.5875   8.3739   8.3786   8.6403   8.7566
     8.8097   9.1677   9.3788   9.3849   9.4888   9.5691   9.6849   9.7672
     9.7993

          k = 0.3750 0.3960 0.0000 ( 34365 PWs)   bands (ev):

   -35.6305 -35.6100 -22.5826 -22.5801 -22.3912 -22.2979 -17.0368 -17.0186
   -17.0149 -16.9943 -16.7524 -16.7334 -14.7675 -14.7663 -14.4935 -14.4683
   -14.4027 -14.2762 -14.2752 -14.2591 -14.2548 -14.1101 -14.1054 -14.0549
   -13.9984 -13.9837 -13.1092  -8.5857  -8.5832  -8.3849  -8.2507  -8.2484
    -8.1655  -8.0118  -8.0010  -7.9987  -7.8434  -7.8279  -7.7155  -3.7938
    -3.7763  -3.5068  -3.4538  -3.1822  -2.9723  -2.9696  -2.6619  -2.6591
    -2.5398  -2.5142  -2.3067  -2.3052  -2.1322  -2.1139  -1.9505  -1.8739
    -1.8441  -1.3349  -1.2728  -1.2616  -1.2356  -1.2327  -1.0523  -0.9971
    -0.9914  -0.9128  -0.8991  -0.8603  -0.8519  -0.7870  -0.7588  -0.5039
    -0.4240  -0.4180  -0.2854   0.1326   0.2524   0.3940   0.6145   0.6513
     0.9011   1.0655   1.1188   1.1399   1.1856   1.2300   1.2722   1.3195
     1.3315   1.4444   1.4551   1.4576   1.4907   1.5391   1.5531   1.6811
     1.7346   1.7444   1.7793   1.8481   1.9059   1.9325   1.9522   1.9637
     1.9957   2.0236   2.0502   2.1512   2.1534   2.1708   2.2880   2.4471
     2.7731   2.7915   3.3496   4.1952   4.1996   4.2686   4.2716   6.1794
     6.3679   6.3705   7.2934   7.3324   8.6438   8.8466   8.9488   8.9665
     9.3107   9.3630   9.4574   9.4753   9.5011   9.5843   9.6207   9.7386
     9.8712

          k = 0.3750-0.5279 0.0000 ( 34392 PWs)   bands (ev):

   -35.6287 -35.6082 -22.5595 -22.5570 -22.3688 -22.2765 -17.0700 -17.0488
   -17.0242 -17.0067 -16.7171 -16.6981 -14.7055 -14.7044 -14.4420 -14.4372
   -14.3534 -14.3041 -14.2250 -14.2139 -14.2025 -14.1068 -14.0869 -14.0837
   -13.9940 -13.9909 -13.0777  -8.6678  -8.6652  -8.4808  -8.3958  -8.3935
    -8.2378  -8.1435  -8.0274  -8.0248  -7.9985  -7.8409  -7.7357  -3.9999
    -3.9828  -3.7110  -3.6564  -3.4542  -3.1975  -3.1948  -2.6803  -2.6775
    -2.5488  -2.5184  -2.3009  -2.2994  -2.2386  -2.2192  -1.9594  -1.9307
    -1.9267  -1.4250  -1.3624  -1.3498  -1.2800  -1.2734  -1.1208  -1.0012
    -0.9952  -0.9931  -0.9850  -0.9519  -0.9461  -0.8122  -0.7712  -0.5035
    -0.4089  -0.4049  -0.2635   0.1782   0.2873   0.4066   0.6670   0.7426
     0.9736   1.2310   1.2358   1.2584   1.2644   1.2656   1.3078   1.3144
     1.3599   1.5018   1.5182   1.5599   1.5710   1.7439   1.7478   1.7744
     1.8408   1.8425   1.8930   1.9187   2.0086   2.0105   2.0941   2.0980
     2.1325   2.2196   2.2471   2.2870   2.3406   2.3438   2.3665   2.4942
     2.5279   2.5526   3.3594   4.3330   4.3393   4.4191   4.4220   6.0121
     6.1901   6.1922   7.1867   7.2469   8.5246   8.8263   9.0928   9.1177
     9.3083   9.3414   9.4331   9.6529   9.7004   9.7063   9.8101   9.8203
     9.8482

          k =-0.5000 0.0000 0.0000 ( 34370 PWs)   bands (ev):

   -35.6399 -35.6193 -22.6931 -22.6906 -22.4985 -22.4022 -17.1353 -17.1182
   -16.8940 -16.8747 -16.6783 -16.6568 -15.1311 -15.1277 -14.9219 -14.7169
   -14.6813 -14.4228 -14.4102 -14.3699 -14.3510 -14.2246 -14.2217 -13.9876
   -13.9832 -13.9597 -13.3318  -7.9513  -7.9484  -7.8187  -7.6799  -7.6771
    -7.6748  -7.4871  -7.4846  -7.4836  -7.2862  -7.2466  -7.1215  -3.0678
    -3.0617  -2.9282  -2.8740  -2.3832  -2.3821  -2.0061  -1.6952  -1.6741
    -1.6729  -1.6727  -1.4405  -1.4393  -1.3222  -1.2468  -1.2439  -1.2155
    -1.2091  -1.1314  -1.1311  -1.0593  -1.0490  -0.9706  -0.9629  -0.8411
    -0.8396  -0.6336  -0.5670  -0.5169  -0.3837  -0.3810  -0.3426  -0.3208
    -0.2511  -0.2468   0.0163   0.0347   0.0371   0.0419   0.0942   0.1655
     0.3057   0.3758   0.3781   0.3907   0.3995   0.4024   0.4034   0.4039
     0.5134   0.6469   0.7415   0.7950   1.0877   1.1074   1.1099   1.1215
     1.2899   1.3247   1.3319   1.3427   1.3513   1.5443   1.5528   1.5851
     1.6269   1.6283   1.6788   1.8126   1.8259   1.8812   1.9221   2.0971
     2.1004   2.2945   2.3052   2.5326   2.5681   2.7974   2.8176   6.9586
     7.2490   7.2512   7.3020   7.3040   8.0241   8.2033   8.2608   8.4859
     8.5073   8.9794   9.0713   9.3154   9.3927   9.4095   9.5958   9.6036
     9.7439

          k =-0.5000 0.1320 0.0000 ( 34378 PWs)   bands (ev):

   -35.6381 -35.6176 -22.6723 -22.6698 -22.4783 -22.3826 -17.1261 -17.1089
   -16.8666 -16.8472 -16.7418 -16.7204 -15.0740 -15.0710 -14.8566 -14.6768
   -14.6405 -14.3834 -14.3716 -14.3103 -14.2929 -14.2029 -14.2001 -14.0268
   -13.9973 -13.9725 -13.2928  -7.9901  -7.9874  -7.8397  -7.8065  -7.8042
    -7.6985  -7.6902  -7.6870  -7.6036  -7.4994  -7.3762  -7.3270  -3.1382
    -3.1293  -2.9791  -2.9169  -2.3885  -2.3872  -2.0948  -2.0660  -2.0012
    -1.8733  -1.8523  -1.6387  -1.6356  -1.5625  -1.5474  -1.5062  -1.4594
    -1.4552  -1.3661  -1.3211  -1.1561  -1.0041  -0.8972  -0.8956  -0.8624
    -0.7790  -0.7504  -0.4968  -0.4846  -0.4555  -0.3954  -0.3488  -0.3181
    -0.3131  -0.1157  -0.0982   0.0069   0.0285   0.0526   0.1277   0.1529
     0.1590   0.4806   0.4883   0.4911   0.5171   0.5440   0.6482   0.7205
     0.7864   0.9005   0.9734   1.0152   1.1250   1.1546   1.2218   1.2348
     1.2509   1.2651   1.3604   1.3692   1.4365   1.5797   1.5975   1.5997
     1.6581   1.6894   1.7117   1.8174   1.8369   1.8453   1.8803   2.4412
     2.6575   2.7285   2.7418   2.9095   2.9177   3.1184   3.1320   6.8274
     7.0968   7.0988   7.6027   7.6054   8.0249   8.1239   8.3408   8.4028
     8.4586   9.2228   9.2733   9.4239   9.4581   9.5056   9.6397   9.7269
     9.7480

          k =-0.5000 0.2640 0.0000 ( 34396 PWs)   bands (ev):

   -35.6338 -35.6132 -22.6213 -22.6188 -22.4287 -22.3347 -17.1041 -17.0869
   -16.8851 -16.8637 -16.7954 -16.7763 -14.9226 -14.9204 -14.6837 -14.5811
   -14.5375 -14.2856 -14.2760 -14.2019 -14.1947 -14.1530 -14.1501 -14.1052
   -14.0647 -13.9631 -13.1942  -8.2588  -8.2562  -8.1077  -8.1054  -8.0539
    -7.9400  -7.9373  -7.8831  -7.8525  -7.7850  -7.6840  -7.6591  -3.4514
    -3.4333  -3.2087  -3.1440  -2.5608  -2.5580  -2.4511  -2.4474  -2.4299
    -2.4151  -2.4130  -2.2858  -2.2837  -1.9861  -1.9476  -1.9304  -1.7295
    -1.6941  -1.2102  -1.1875  -1.1160  -0.9962  -0.9940  -0.9717  -0.9478
    -0.9433  -0.8753  -0.7355  -0.7014  -0.6991  -0.5762  -0.5522  -0.4878
    -0.4240  -0.4206  -0.3093  -0.0110   0.1118   0.3525   0.4779   0.5599
     0.6980   0.7210   0.8245   0.8316   1.0485   1.0570   1.1213   1.1214
     1.1349   1.1614   1.1886   1.2025   1.3890   1.3959   1.4253   1.4542
     1.5641   1.6634   1.6676   1.6842   1.7087   1.7151   1.7247   1.7656
     1.7747   1.8420   1.8454   1.8582   1.8676   1.9459   1.9781   2.3818
     2.9423   2.9613   3.1589   3.8220   3.8246   3.9134   3.9190   6.4389
     6.6671   6.6690   7.4995   7.5254   8.4091   8.4152   8.6459   8.7850
     9.0141   9.3822   9.4478   9.5541   9.5647   9.6402   9.6446   9.7856
     9.8788

          k =-0.5000 0.3960 0.0000 ( 34384 PWs)   bands (ev):

   -35.6294 -35.6089 -22.5691 -22.5666 -22.3779 -22.2858 -17.0826 -17.0653
   -17.0140 -16.9927 -16.7202 -16.7009 -14.7386 -14.7375 -14.5163 -14.4976
   -14.3804 -14.2648 -14.2496 -14.1868 -14.1801 -14.1049 -14.1018 -14.0371
   -14.0076 -14.0036 -13.0883  -8.6340  -8.6314  -8.4389  -8.3957  -8.3935
    -8.2111  -8.1500  -8.0179  -8.0150  -7.9870  -7.8434  -7.7248  -3.9253
    -3.9063  -3.6282  -3.5741  -3.1745  -2.9638  -2.9610  -2.7315  -2.7289
    -2.6130  -2.5978  -2.3228  -2.3215  -2.2353  -2.2127  -1.9557  -1.9355
    -1.8986  -1.3463  -1.2663  -1.2525  -1.1412  -1.1350  -1.1060  -1.0817
    -1.0343  -0.9195  -0.9150  -0.8720  -0.8568  -0.8562  -0.8314  -0.4958
    -0.3849  -0.3827  -0.2543   0.1493   0.2754   0.4286   0.7171   0.7579
     0.9986   1.1479   1.2311   1.2391   1.2419   1.3365   1.3433   1.3475
     1.4165   1.4668   1.5349   1.5372   1.5377   1.5447   1.5770   1.7412
     1.7764   1.7855   1.8519   1.8764   1.9574   1.9971   2.0129   2.0262
     2.1191   2.1219   2.1405   2.1670   2.1714   2.1851   2.3310   2.4029
     2.7608   2.7815   3.3373   4.4629   4.4674   4.5132   4.5157   5.9700
     6.1723   6.1740   7.1453   7.1812   8.6815   8.7287   8.8932   8.9184
     9.3776   9.3786   9.4991   9.5385   9.6178   9.6329   9.6653   9.8143
     9.8607

          k =-0.5000-0.5279 0.0000 ( 34420 PWs)   bands (ev):

   -35.6276 -35.6071 -22.5471 -22.5446 -22.3565 -22.2652 -17.0738 -17.0645
   -17.0564 -17.0433 -16.6868 -16.6676 -14.6390 -14.6386 -14.4847 -14.4795
   -14.3123 -14.2949 -14.1978 -14.1644 -14.1492 -14.1004 -14.0820 -14.0789
   -13.9945 -13.9628 -13.0420  -8.7800  -8.7774  -8.5908  -8.5118  -8.5096
    -8.3574  -8.2575  -8.1115  -8.0458  -8.0428  -7.8596  -7.7429  -4.1334
    -4.1147  -3.8278  -3.7745  -3.4490  -3.1880  -3.1853  -2.7638  -2.7612
    -2.6384  -2.6185  -2.3268  -2.3128  -2.3116  -2.3028  -2.0034  -1.9663
    -1.9284  -1.4476  -1.3811  -1.3630  -1.2084  -1.1987  -1.1139  -1.0629
    -1.0521  -1.0092  -1.0069  -0.9731  -0.9569  -0.8896  -0.8435  -0.4926
    -0.3559  -0.3538  -0.2266   0.1953   0.3115   0.4431   0.7941   0.8841
     1.0964   1.3102   1.3161   1.3193   1.3226   1.3577   1.3664   1.4396
     1.5830   1.5878   1.5916   1.6094   1.6319   1.6554   1.8244   1.8450
     1.8661   1.8743   1.9996   2.0109   2.0353   2.0527   2.1443   2.1562
     2.2414   2.3118   2.3148   2.3345   2.3800   2.3880   2.4569   2.5037
     2.5316   2.5586   3.3409   4.6560   4.6638   4.7219   4.7239   5.7503
     5.9449   5.9467   7.0228   7.0834   8.5382   8.7683   9.0029   9.0112
     9.0166   9.0683   9.4348   9.4965   9.5094   9.6655   9.8214   9.9310
     9.9905

     the Fermi energy is     2.5408 ev

!    total energy              =   -1842.83698949 Ry
     Harris-Foulkes estimate   =   -1842.83698949 Ry
     estimated scf accuracy    <          9.6E-11 Ry

     The total energy is the sum of the following terms:

     one-electron contribution =  -29363.82848962 Ry
     hartree contribution      =   14834.97225739 Ry
     xc contribution           =    -621.64927018 Ry
     ewald contribution        =   13307.67876796 Ry
     smearing contrib. (-TS)   =      -0.01025504 Ry

     convergence has been achieved in  39 iterations

     negative rho (up, down):  1.552E-03 0.000E+00

     Forces acting on atoms (cartesian axes, Ry/au):

     atom    1 type  4   force =     0.00000000    0.00000000   -0.00024057
     atom    2 type  3   force =     0.00000000    0.00000000    0.00042187
     atom    3 type  4   force =     0.00000000    0.00000000   -0.00078967
     atom    4 type  1   force =     0.00000000    0.00000000   -0.00042326
     atom    5 type  3   force =     0.00000000    0.00000000    0.00049980
     atom    6 type  4   force =     0.00000000    0.00000000    0.00063107
     atom    7 type  4   force =     0.00000000    0.00000000    0.00092057
     atom    8 type  2   force =     0.00000000    0.00000000   -0.00212540
     atom    9 type  4   force =     0.00000000    0.00000000    0.00248042
     atom   10 type  4   force =     0.00000000    0.00000000    0.00230099
     atom   11 type  3   force =     0.00000000    0.00000000    0.00158859
     atom   12 type  1   force =     0.00000000    0.00000000    0.00767927
     atom   13 type  4   force =     0.00000000    0.00000000   -0.01132864
     atom   14 type  4   force =     0.00000000    0.00000000    0.02550787
     atom   15 type  3   force =     0.00000000    0.00000000    0.01587966
     atom   16 type  4   force =     0.00000000    0.00000000   -0.01210944
     atom   17 type  1   force =     0.00000000    0.00000000   -0.01703114
     atom   18 type  3   force =     0.00000000    0.00000000   -0.01571276
     atom   19 type  4   force =     0.00000000    0.00000000    0.00126705
     atom   20 type  4   force =     0.00000000    0.00000000   -0.00024908
     atom   21 type  2   force =     0.00000000    0.00000000    0.00169123
     atom   22 type  4   force =     0.00000000    0.00000000   -0.00105506
     atom   23 type  4   force =     0.00000000    0.00000000   -0.00016613
     atom   24 type  3   force =     0.00000000    0.00000000   -0.00040682
     atom   25 type  1   force =     0.00000000    0.00000000    0.00037225
     atom   26 type  4   force =     0.00000000    0.00000000    0.00052181
     atom   27 type  3   force =     0.00000000    0.00000000   -0.00017753
     atom   28 type  4   force =     0.00000000    0.00000000    0.00005302

     Total force =     0.042135     Total SCF correction =     0.000028


     Computing stress (Cartesian axis) and pressure


     negative rho (up, down):  1.552E-03 0.000E+00
          total   stress  (Ry/bohr**3)                   (kbar)     P=       -6.10
   0.00000502   0.00000000   0.00000000            0.74        0.00        0.00
   0.00000000  -0.00005779   0.00000000            0.00       -8.50        0.00
   0.00000000   0.00000000  -0.00007164            0.00        0.00      -10.54


     number of scf cycles    =   2
     number of bfgs steps    =   1

     energy   old            =   -1842.8869342713 Ry
     energy   new            =   -1842.8369894931 Ry

     CASE: energy  _new > energy  _old


 %%%%%%%%%%%%%%%%%%%%%%%%%%%%%%%%%%%%%%%%%%%%%%%%%%%%%%%%%%%%%%%%%%%%%%%%%%%%%%
     Error in routine bfgs (1):
     dE0s is positive which should never happen
 %%%%%%%%%%%%%%%%%%%%%%%%%%%%%%%%%%%%%%%%%%%%%%%%%%%%%%%%%%%%%%%%%%%%%%%%%%%%%%

     stopping ...
