
     Program PWSCF v.6.5 starts on 28Jun2021 at 19:55:39 

     This program is part of the open-source Quantum ESPRESSO suite
     for quantum simulation of materials; please cite
         "P. Giannozzi et al., J. Phys.:Condens. Matter 21 395502 (2009);
         "P. Giannozzi et al., J. Phys.:Condens. Matter 29 465901 (2017);
          URL http://www.quantum-espresso.org", 
     in publications or presentations arising from this work. More details at
     http://www.quantum-espresso.org/quote

     Parallel version (MPI), running on    20 processors

     MPI processes distributed on    10 nodes
     R & G space division:  proc/nbgrp/npool/nimage =      20
     Reading input from CBCO_BaO_cleave_1.0_sep.pwi
Warning: card &CELL ignored
Warning: card     CELL_DYNAMICS = 'BFGS' ignored
Warning: card     PRESS_CONV_THR = 5 ignored
Warning: card / ignored

     Current dimensions of program PWSCF are:
     Max number of different atomic species (ntypx) = 10
     Max number of k-points (npk) =  40000
     Max angular momentum in pseudopotentials (lmaxx) =  3

     Subspace diagonalization in iterative solution of the eigenvalue problem:
     one sub-group per band group will be used
     scalapack distributed-memory algorithm (size of sub-group:  4*  4 procs)

     Message from routine setup:
     using ibrav=0 with symmetry is DISCOURAGED, use correct ibrav instead
 
     Parallelization info
     --------------------
     sticks:   dense  smooth     PW     G-vecs:    dense   smooth      PW
     Min         149      50     14                71773    13820    2160
     Max         150      51     15                71810    13841    2205
     Sum        2991    1007    289              1435837   276553   43473
 


     bravais-lattice index     =            0
     lattice parameter (alat)  =       7.4270  a.u.
     unit-cell volume          =    4401.0322 (a.u.)^3
     number of atoms/cell      =           28
     number of atomic types    =            4
     number of electrons       =       227.00
     number of Kohn-Sham states=          137
     kinetic-energy cutoff     =      60.0000  Ry
     charge density cutoff     =     720.0000  Ry
     convergence threshold     =      1.0E-10
     mixing beta               =       0.7000
     number of iterations used =           10  local-TF  mixing
     Exchange-correlation= SLA PW PBE PBE
                           (   1   4   3   4   0   0   0)
     nstep                     =          300


     celldm(1)=   7.427040  celldm(2)=   0.000000  celldm(3)=   0.000000
     celldm(4)=   0.000000  celldm(5)=   0.000000  celldm(6)=   0.000000

     crystal axes: (cart. coord. in units of alat)
               a(1) = (   1.000000   0.000000   0.000000 )  
               a(2) = (   0.000000   0.947081   0.000000 )  
               a(3) = (   0.000000   0.000000  11.342795 )  

     reciprocal axes: (cart. coord. in units 2 pi/alat)
               b(1) = (  1.000000  0.000000  0.000000 )  
               b(2) = (  0.000000  1.055876  0.000000 )  
               b(3) = (  0.000000  0.000000  0.088162 )  


     PseudoPot. # 1 for Ba read from file:
     ./pseudo/Ba.pbe-nsp-van.UPF
     MD5 check sum: 2b9c31dd849566dd297d80989662b7a0
     Pseudo is Ultrasoft + core correction, Zval = 10.0
     Generated by new atomic code, or converted to UPF format
     Using radial grid of  907 points,  6 beta functions with: 
                l(1) =   0
                l(2) =   0
                l(3) =   1
                l(4) =   1
                l(5) =   2
                l(6) =   2
     Q(r) pseudized with  6 coefficients,  rinner =    1.200   1.200   1.200
                                                       1.200   1.200

     PseudoPot. # 2 for Ca read from file:
     ./pseudo/Ca.pbe-nsp-van.UPF
     MD5 check sum: 6471098428ff4fa451746d08035ff179
     Pseudo is Ultrasoft + core correction, Zval = 10.0
     Generated by new atomic code, or converted to UPF format
     Using radial grid of  845 points,  6 beta functions with: 
                l(1) =   0
                l(2) =   0
                l(3) =   1
                l(4) =   1
                l(5) =   2
                l(6) =   2
     Q(r) pseudized with  6 coefficients,  rinner =    1.200   1.200   1.200
                                                       1.200   1.200

     PseudoPot. # 3 for Cu read from file:
     ./pseudo/Cu.pbe-n-van_ak.UPF
     MD5 check sum: 34e3282627ffb533726feb647e090d62
     Pseudo is Ultrasoft + core correction, Zval = 11.0
     Generated by new atomic code, or converted to UPF format
     Using radial grid of  867 points,  6 beta functions with: 
                l(1) =   0
                l(2) =   0
                l(3) =   1
                l(4) =   1
                l(5) =   2
                l(6) =   2
     Q(r) pseudized with  8 coefficients,  rinner =    1.400   1.400   1.400
                                                       1.400   1.400

     PseudoPot. # 4 for O  read from file:
     ./pseudo/O.pbe-van_ak.UPF
     MD5 check sum: 783ce7fe4c79b6a4916957118fed0856
     Pseudo is Ultrasoft, Zval =  6.0
     Generated by new atomic code, or converted to UPF format
     Using radial grid of  737 points,  4 beta functions with: 
                l(1) =   0
                l(2) =   0
                l(3) =   1
                l(4) =   1
     Q(r) pseudized with  8 coefficients,  rinner =    0.800   0.800   0.800


     atomic species   valence    mass     pseudopotential
        Ba            10.00   137.32700     Ba( 1.00)
        Ca            10.00    40.07800     Ca( 1.00)
        Cu            11.00    63.54600     Cu( 1.00)
        O              6.00    15.99900     O ( 1.00)

      4 Sym. Ops. (no inversion) found



   Cartesian axes

     site n.     atom                  positions (alat units)
         1           O   tau(   1) = (   0.0000000   0.4735409  -0.0469745  )
         2           Cu  tau(   2) = (   0.0000000   0.0000000   0.0264565  )
         3           O   tau(   3) = (   0.0000000   0.0000000   0.5030914  )
         4           Ba  tau(   4) = (   0.5000000   0.4735409   0.5690292  )
         5           Cu  tau(   5) = (   0.0000000   0.0000000   1.0374254  )
         6           O   tau(   6) = (   0.5000000   0.0000000   1.0768099  )
         7           O   tau(   7) = (   0.0000000   0.4735409   1.1116985  )
         8           Ca  tau(   8) = (   0.5000000   0.4735409   1.4976260  )
         9           O   tau(   9) = (   0.0000000   0.4735409   1.8667529  )
        10           O   tau(  10) = (   0.5000000   0.0000000   1.9044124  )
        11           Cu  tau(  11) = (   0.0000000   0.0000000   1.9512546  )
        12           Ba  tau(  12) = (   0.5000000   0.4735409   2.4295764  )
        13           O   tau(  13) = (   0.0000000   0.0000000   2.5115362  )
        14           O   tau(  14) = (   0.0000000   0.4735409   2.9664089  )
        15           Cu  tau(  15) = (   0.0000000   0.0000000   2.9664649  )
        16           O   tau(  16) = (   0.0000000   0.0000000   3.4722686  )
        17           Ba  tau(  17) = (   0.5000000   0.4735409   3.5542208  )
        18           Cu  tau(  18) = (   0.0000000   0.0000000   4.2869634  )
        19           O   tau(  19) = (   0.5000000   0.0000000   4.3338056  )
        20           O   tau(  20) = (   0.0000000   0.4735409   4.3714600  )
        21           Ca  tau(  21) = (   0.5000000   0.4735409   4.7405971  )
        22           O   tau(  22) = (   0.0000000   0.4735409   5.1265220  )
        23           O   tau(  23) = (   0.5000000   0.0000000   5.1614106  )
        24           Cu  tau(  24) = (   0.0000000   0.0000000   5.2007978  )
        25           Ba  tau(  25) = (   0.5000000   0.4735409   5.6691914  )
        26           O   tau(  26) = (   0.0000000   0.0000000   5.7351190  )
        27           Cu  tau(  27) = (   0.0000000   0.0000000   6.2117589  )
        28           O   tau(  28) = (   0.0000000   0.4735409   6.2851772  )

     number of k points=    25  Gaussian smearing, width (Ry)=  0.0100
                       cart. coord. in units 2pi/alat
        k(    1) = (   0.0000000   0.0000000   0.0000000), wk =   0.0312500
        k(    2) = (   0.0000000   0.1319845   0.0000000), wk =   0.0625000
        k(    3) = (   0.0000000   0.2639689   0.0000000), wk =   0.0625000
        k(    4) = (   0.0000000   0.3959534   0.0000000), wk =   0.0625000
        k(    5) = (   0.0000000  -0.5279378   0.0000000), wk =   0.0312500
        k(    6) = (   0.1250000   0.0000000   0.0000000), wk =   0.0625000
        k(    7) = (   0.1250000   0.1319845   0.0000000), wk =   0.1250000
        k(    8) = (   0.1250000   0.2639689   0.0000000), wk =   0.1250000
        k(    9) = (   0.1250000   0.3959534   0.0000000), wk =   0.1250000
        k(   10) = (   0.1250000  -0.5279378   0.0000000), wk =   0.0625000
        k(   11) = (   0.2500000   0.0000000   0.0000000), wk =   0.0625000
        k(   12) = (   0.2500000   0.1319845   0.0000000), wk =   0.1250000
        k(   13) = (   0.2500000   0.2639689   0.0000000), wk =   0.1250000
        k(   14) = (   0.2500000   0.3959534   0.0000000), wk =   0.1250000
        k(   15) = (   0.2500000  -0.5279378   0.0000000), wk =   0.0625000
        k(   16) = (   0.3750000   0.0000000   0.0000000), wk =   0.0625000
        k(   17) = (   0.3750000   0.1319845   0.0000000), wk =   0.1250000
        k(   18) = (   0.3750000   0.2639689   0.0000000), wk =   0.1250000
        k(   19) = (   0.3750000   0.3959534   0.0000000), wk =   0.1250000
        k(   20) = (   0.3750000  -0.5279378   0.0000000), wk =   0.0625000
        k(   21) = (  -0.5000000   0.0000000   0.0000000), wk =   0.0312500
        k(   22) = (  -0.5000000   0.1319845   0.0000000), wk =   0.0625000
        k(   23) = (  -0.5000000   0.2639689   0.0000000), wk =   0.0625000
        k(   24) = (  -0.5000000   0.3959534   0.0000000), wk =   0.0625000
        k(   25) = (  -0.5000000  -0.5279378   0.0000000), wk =   0.0312500

     Dense  grid:  1435837 G-vectors     FFT dimensions: (  64,  64, 720)

     Smooth grid:   276553 G-vectors     FFT dimensions: (  40,  36, 432)

     Estimated max dynamical RAM per process >     458.17 MB

     Estimated total dynamical RAM >       8.95 GB

     Initial potential from superposition of free atoms

     starting charge  226.84630, renormalised to  227.00000

     negative rho (up, down):  3.523E-03 0.000E+00
     Starting wfcs are  195 randomized atomic wfcs

     total cpu time spent up to now is       10.1 secs

     Self-consistent Calculation

     iteration #  1     ecut=    60.00 Ry     beta= 0.70
     Davidson diagonalization with overlap
     ethr =  1.00E-02,  avg # of iterations =  2.0

     negative rho (up, down):  2.907E-04 0.000E+00

     total cpu time spent up to now is       25.3 secs

     total energy              =   -1839.40372757 Ry
     Harris-Foulkes estimate   =   -1845.35008706 Ry
     estimated scf accuracy    <      17.69950048 Ry

     iteration #  2     ecut=    60.00 Ry     beta= 0.70
     Davidson diagonalization with overlap
     ethr =  7.80E-03,  avg # of iterations =  2.0

     negative rho (up, down):  2.611E-04 0.000E+00

     total cpu time spent up to now is       42.0 secs

     total energy              =   -1842.05950867 Ry
     Harris-Foulkes estimate   =   -1843.97386691 Ry
     estimated scf accuracy    <      11.52012824 Ry

     iteration #  3     ecut=    60.00 Ry     beta= 0.70
     Davidson diagonalization with overlap
     ethr =  5.07E-03,  avg # of iterations =  1.6

     negative rho (up, down):  2.457E-04 0.000E+00

     total cpu time spent up to now is       56.6 secs

     total energy              =   -1842.68237657 Ry
     Harris-Foulkes estimate   =   -1843.03684608 Ry
     estimated scf accuracy    <       2.47224469 Ry

     iteration #  4     ecut=    60.00 Ry     beta= 0.70
     Davidson diagonalization with overlap
     ethr =  1.09E-03,  avg # of iterations =  2.0

     negative rho (up, down):  2.392E-04 0.000E+00

     total cpu time spent up to now is       71.5 secs

     total energy              =   -1842.83893626 Ry
     Harris-Foulkes estimate   =   -1843.00106373 Ry
     estimated scf accuracy    <       6.13447694 Ry

     iteration #  5     ecut=    60.00 Ry     beta= 0.70
     Davidson diagonalization with overlap
     ethr =  1.09E-03,  avg # of iterations =  1.0

     negative rho (up, down):  2.361E-04 0.000E+00

     total cpu time spent up to now is       85.4 secs

     total energy              =   -1842.86056693 Ry
     Harris-Foulkes estimate   =   -1842.89862384 Ry
     estimated scf accuracy    <       1.23375698 Ry

     iteration #  6     ecut=    60.00 Ry     beta= 0.70
     Davidson diagonalization with overlap
     ethr =  5.44E-04,  avg # of iterations =  1.0

     negative rho (up, down):  2.334E-04 0.000E+00

     total cpu time spent up to now is       99.2 secs

     total energy              =   -1842.86095164 Ry
     Harris-Foulkes estimate   =   -1842.88409464 Ry
     estimated scf accuracy    <       1.22821276 Ry

     iteration #  7     ecut=    60.00 Ry     beta= 0.70
     Davidson diagonalization with overlap
     ethr =  5.41E-04,  avg # of iterations =  1.0

     negative rho (up, down):  2.338E-04 0.000E+00

     total cpu time spent up to now is      113.2 secs

     total energy              =   -1842.86367948 Ry
     Harris-Foulkes estimate   =   -1842.87282339 Ry
     estimated scf accuracy    <       0.63318176 Ry

     iteration #  8     ecut=    60.00 Ry     beta= 0.70
     Davidson diagonalization with overlap
     ethr =  2.79E-04,  avg # of iterations =  2.6

     negative rho (up, down):  2.337E-04 0.000E+00

     total cpu time spent up to now is      128.7 secs

     total energy              =   -1842.86591750 Ry
     Harris-Foulkes estimate   =   -1842.86724586 Ry
     estimated scf accuracy    <       0.41832296 Ry

     iteration #  9     ecut=    60.00 Ry     beta= 0.70
     Davidson diagonalization with overlap
     ethr =  1.84E-04,  avg # of iterations =  2.0

     negative rho (up, down):  2.351E-04 0.000E+00

     total cpu time spent up to now is      143.4 secs

     total energy              =   -1842.85470259 Ry
     Harris-Foulkes estimate   =   -1842.86644782 Ry
     estimated scf accuracy    <       0.33097508 Ry

     iteration # 10     ecut=    60.00 Ry     beta= 0.70
     Davidson diagonalization with overlap
     ethr =  1.46E-04,  avg # of iterations =  4.4

     negative rho (up, down):  2.356E-04 0.000E+00

     total cpu time spent up to now is      161.1 secs

     total energy              =   -1842.85524087 Ry
     Harris-Foulkes estimate   =   -1842.85871527 Ry
     estimated scf accuracy    <       0.09947905 Ry

     iteration # 11     ecut=    60.00 Ry     beta= 0.70
     Davidson diagonalization with overlap
     ethr =  4.38E-05,  avg # of iterations =  7.3

     negative rho (up, down):  2.356E-04 0.000E+00

     total cpu time spent up to now is      182.3 secs

     total energy              =   -1842.85460821 Ry
     Harris-Foulkes estimate   =   -1842.85619229 Ry
     estimated scf accuracy    <       0.08317897 Ry

     iteration # 12     ecut=    60.00 Ry     beta= 0.70
     Davidson diagonalization with overlap
     ethr =  3.66E-05,  avg # of iterations =  1.1

     negative rho (up, down):  3.062E-04 0.000E+00

     total cpu time spent up to now is      196.0 secs

     total energy              =   -1842.85326042 Ry
     Harris-Foulkes estimate   =   -1842.85509329 Ry
     estimated scf accuracy    <       0.07628584 Ry

     iteration # 13     ecut=    60.00 Ry     beta= 0.70
     Davidson diagonalization with overlap
     ethr =  3.36E-05,  avg # of iterations =  2.3

     negative rho (up, down):  6.686E-04 0.000E+00

     total cpu time spent up to now is      211.1 secs

     total energy              =   -1842.85259714 Ry
     Harris-Foulkes estimate   =   -1842.85388163 Ry
     estimated scf accuracy    <       0.08768891 Ry

     iteration # 14     ecut=    60.00 Ry     beta= 0.70
     Davidson diagonalization with overlap
     ethr =  3.36E-05,  avg # of iterations =  1.5

     negative rho (up, down):  5.424E-03 0.000E+00

     total cpu time spent up to now is      225.5 secs

     total energy              =   -1842.85119219 Ry
     Harris-Foulkes estimate   =   -1842.85292438 Ry
     estimated scf accuracy    <       0.05371674 Ry

     iteration # 15     ecut=    60.00 Ry     beta= 0.70
     Davidson diagonalization with overlap
     ethr =  2.37E-05,  avg # of iterations =  5.7

     negative rho (up, down):  8.639E-03 0.000E+00

     total cpu time spent up to now is      244.4 secs

     total energy              =   -1842.85032103 Ry
     Harris-Foulkes estimate   =   -1842.85167450 Ry
     estimated scf accuracy    <       0.02136225 Ry

     iteration # 16     ecut=    60.00 Ry     beta= 0.70
     Davidson diagonalization with overlap
     ethr =  9.41E-06,  avg # of iterations =  5.8

     negative rho (up, down):  1.058E-02 0.000E+00

     total cpu time spent up to now is      263.8 secs

     total energy              =   -1842.84990720 Ry
     Harris-Foulkes estimate   =   -1842.85063864 Ry
     estimated scf accuracy    <       0.01511439 Ry

     iteration # 17     ecut=    60.00 Ry     beta= 0.70
     Davidson diagonalization with overlap
     ethr =  6.66E-06,  avg # of iterations =  7.0

     negative rho (up, down):  1.692E-02 0.000E+00

     total cpu time spent up to now is      284.6 secs

     total energy              =   -1842.84900603 Ry
     Harris-Foulkes estimate   =   -1842.85004899 Ry
     estimated scf accuracy    <       0.01737705 Ry

     iteration # 18     ecut=    60.00 Ry     beta= 0.70
     Davidson diagonalization with overlap
     ethr =  6.66E-06,  avg # of iterations =  7.6

     negative rho (up, down):  7.049E-03 0.000E+00

     total cpu time spent up to now is      306.4 secs

     total energy              =   -1842.84851129 Ry
     Harris-Foulkes estimate   =   -1842.84931067 Ry
     estimated scf accuracy    <       0.02962965 Ry

     iteration # 19     ecut=    60.00 Ry     beta= 0.70
     Davidson diagonalization with overlap
     c_bands:  1 eigenvalues not converged
     ethr =  6.66E-06,  avg # of iterations =  5.5

     negative rho (up, down):  1.152E-02 0.000E+00

     total cpu time spent up to now is      325.3 secs

     total energy              =   -1842.84866506 Ry
     Harris-Foulkes estimate   =   -1842.84884294 Ry
     estimated scf accuracy    <       0.00339996 Ry

     iteration # 20     ecut=    60.00 Ry     beta= 0.70
     Davidson diagonalization with overlap
     c_bands:  1 eigenvalues not converged
     ethr =  1.50E-06,  avg # of iterations =  8.4

     negative rho (up, down):  9.946E-03 0.000E+00

     total cpu time spent up to now is      348.6 secs

     total energy              =   -1842.84876203 Ry
     Harris-Foulkes estimate   =   -1842.84878947 Ry
     estimated scf accuracy    <       0.00137522 Ry

     iteration # 21     ecut=    60.00 Ry     beta= 0.70
     Davidson diagonalization with overlap
     ethr =  6.06E-07,  avg # of iterations =  4.1

     negative rho (up, down):  7.241E-03 0.000E+00

     total cpu time spent up to now is      365.7 secs

     total energy              =   -1842.84872635 Ry
     Harris-Foulkes estimate   =   -1842.84878996 Ry
     estimated scf accuracy    <       0.00037395 Ry

     iteration # 22     ecut=    60.00 Ry     beta= 0.70
     Davidson diagonalization with overlap
     ethr =  1.65E-07,  avg # of iterations =  3.5

     negative rho (up, down):  2.287E-03 0.000E+00

     total cpu time spent up to now is      382.2 secs

     total energy              =   -1842.84867959 Ry
     Harris-Foulkes estimate   =   -1842.84874202 Ry
     estimated scf accuracy    <       0.00015724 Ry

     iteration # 23     ecut=    60.00 Ry     beta= 0.70
     Davidson diagonalization with overlap
     c_bands:  1 eigenvalues not converged
     c_bands:  1 eigenvalues not converged
     ethr =  6.93E-08,  avg # of iterations =  9.1

     negative rho (up, down):  1.734E-03 0.000E+00

     total cpu time spent up to now is      406.0 secs

     total energy              =   -1842.84868228 Ry
     Harris-Foulkes estimate   =   -1842.84868674 Ry
     estimated scf accuracy    <       0.00002203 Ry

     iteration # 24     ecut=    60.00 Ry     beta= 0.70
     Davidson diagonalization with overlap
     ethr =  9.70E-09,  avg # of iterations =  3.8

     negative rho (up, down):  1.675E-03 0.000E+00

     total cpu time spent up to now is      423.0 secs

     total energy              =   -1842.84868402 Ry
     Harris-Foulkes estimate   =   -1842.84868482 Ry
     estimated scf accuracy    <       0.00003772 Ry

     iteration # 25     ecut=    60.00 Ry     beta= 0.70
     Davidson diagonalization with overlap
     ethr =  9.70E-09,  avg # of iterations =  1.0

     negative rho (up, down):  1.557E-03 0.000E+00

     total cpu time spent up to now is      436.9 secs

     total energy              =   -1842.84868407 Ry
     Harris-Foulkes estimate   =   -1842.84868462 Ry
     estimated scf accuracy    <       0.00002930 Ry

     iteration # 26     ecut=    60.00 Ry     beta= 0.70
     Davidson diagonalization with overlap
     ethr =  9.70E-09,  avg # of iterations =  1.0

     negative rho (up, down):  1.603E-03 0.000E+00

     total cpu time spent up to now is      450.8 secs

     total energy              =   -1842.84868371 Ry
     Harris-Foulkes estimate   =   -1842.84868428 Ry
     estimated scf accuracy    <       0.00001100 Ry

     iteration # 27     ecut=    60.00 Ry     beta= 0.70
     Davidson diagonalization with overlap
     ethr =  4.85E-09,  avg # of iterations =  1.0

     negative rho (up, down):  1.522E-03 0.000E+00

     total cpu time spent up to now is      464.7 secs

     total energy              =   -1842.84868391 Ry
     Harris-Foulkes estimate   =   -1842.84868407 Ry
     estimated scf accuracy    <       0.00000390 Ry

     iteration # 28     ecut=    60.00 Ry     beta= 0.70
     Davidson diagonalization with overlap
     ethr =  1.72E-09,  avg # of iterations =  1.1

     negative rho (up, down):  1.501E-03 0.000E+00

     total cpu time spent up to now is      478.5 secs

     total energy              =   -1842.84868400 Ry
     Harris-Foulkes estimate   =   -1842.84868403 Ry
     estimated scf accuracy    <       0.00000101 Ry

     iteration # 29     ecut=    60.00 Ry     beta= 0.70
     Davidson diagonalization with overlap
     ethr =  4.45E-10,  avg # of iterations =  1.8

     negative rho (up, down):  1.528E-03 0.000E+00

     total cpu time spent up to now is      493.3 secs

     total energy              =   -1842.84868396 Ry
     Harris-Foulkes estimate   =   -1842.84868404 Ry
     estimated scf accuracy    <       0.00000053 Ry

     iteration # 30     ecut=    60.00 Ry     beta= 0.70
     Davidson diagonalization with overlap
     ethr =  2.35E-10,  avg # of iterations =  1.4

     negative rho (up, down):  1.516E-03 0.000E+00

     total cpu time spent up to now is      507.7 secs

     total energy              =   -1842.84868400 Ry
     Harris-Foulkes estimate   =   -1842.84868399 Ry
     estimated scf accuracy    <       0.00000019 Ry

     iteration # 31     ecut=    60.00 Ry     beta= 0.70
     Davidson diagonalization with overlap
     ethr =  8.26E-11,  avg # of iterations =  2.0

     negative rho (up, down):  1.527E-03 0.000E+00

     total cpu time spent up to now is      522.9 secs

     total energy              =   -1842.84868399 Ry
     Harris-Foulkes estimate   =   -1842.84868401 Ry
     estimated scf accuracy    <       0.00000010 Ry

     iteration # 32     ecut=    60.00 Ry     beta= 0.70
     Davidson diagonalization with overlap
     ethr =  4.44E-11,  avg # of iterations =  1.4

     negative rho (up, down):  1.533E-03 0.000E+00

     total cpu time spent up to now is      537.0 secs

     total energy              =   -1842.84868398 Ry
     Harris-Foulkes estimate   =   -1842.84868399 Ry
     estimated scf accuracy    <       0.00000003 Ry

     iteration # 33     ecut=    60.00 Ry     beta= 0.70
     Davidson diagonalization with overlap
     ethr =  1.19E-11,  avg # of iterations =  2.9

     negative rho (up, down):  1.533E-03 0.000E+00

     total cpu time spent up to now is      553.3 secs

     total energy              =   -1842.84868398 Ry
     Harris-Foulkes estimate   =   -1842.84868398 Ry
     estimated scf accuracy    <          5.5E-09 Ry

     iteration # 34     ecut=    60.00 Ry     beta= 0.70
     Davidson diagonalization with overlap
     ethr =  2.44E-12,  avg # of iterations =  2.8

     negative rho (up, down):  1.533E-03 0.000E+00

     total cpu time spent up to now is      569.9 secs

     total energy              =   -1842.84868398 Ry
     Harris-Foulkes estimate   =   -1842.84868399 Ry
     estimated scf accuracy    <          3.5E-09 Ry

     iteration # 35     ecut=    60.00 Ry     beta= 0.70
     Davidson diagonalization with overlap
     ethr =  1.53E-12,  avg # of iterations =  1.0

     negative rho (up, down):  1.530E-03 0.000E+00

     total cpu time spent up to now is      583.8 secs

     total energy              =   -1842.84868399 Ry
     Harris-Foulkes estimate   =   -1842.84868399 Ry
     estimated scf accuracy    <          2.7E-09 Ry

     iteration # 36     ecut=    60.00 Ry     beta= 0.70
     Davidson diagonalization with overlap
     ethr =  1.19E-12,  avg # of iterations =  1.0

     negative rho (up, down):  1.529E-03 0.000E+00

     total cpu time spent up to now is      597.6 secs

     total energy              =   -1842.84868399 Ry
     Harris-Foulkes estimate   =   -1842.84868399 Ry
     estimated scf accuracy    <          1.3E-09 Ry

     iteration # 37     ecut=    60.00 Ry     beta= 0.70
     Davidson diagonalization with overlap
     ethr =  5.92E-13,  avg # of iterations =  1.0

     negative rho (up, down):  1.529E-03 0.000E+00

     total cpu time spent up to now is      611.4 secs

     total energy              =   -1842.84868399 Ry
     Harris-Foulkes estimate   =   -1842.84868399 Ry
     estimated scf accuracy    <          5.6E-10 Ry

     iteration # 38     ecut=    60.00 Ry     beta= 0.70
     Davidson diagonalization with overlap
     ethr =  2.47E-13,  avg # of iterations =  1.0

     negative rho (up, down):  1.529E-03 0.000E+00

     total cpu time spent up to now is      625.3 secs

     total energy              =   -1842.84868399 Ry
     Harris-Foulkes estimate   =   -1842.84868399 Ry
     estimated scf accuracy    <          1.6E-10 Ry

     iteration # 39     ecut=    60.00 Ry     beta= 0.70
     Davidson diagonalization with overlap
     ethr =  1.00E-13,  avg # of iterations =  1.4

     negative rho (up, down):  1.529E-03 0.000E+00

     total cpu time spent up to now is      639.1 secs

     End of self-consistent calculation

          k = 0.0000 0.0000 0.0000 ( 34661 PWs)   bands (ev):

   -35.6193 -35.4844 -23.4380 -22.8177 -22.8170 -22.6040 -17.1233 -16.9645
   -16.6702 -16.6593 -16.5469 -16.5315 -15.3328 -15.2241 -14.9625 -14.6991
   -14.6906 -14.6062 -14.4216 -14.2083 -14.2049 -14.0107 -13.9869 -13.9709
   -13.8577 -13.5860 -13.3084  -8.6871  -8.3053  -8.1963  -7.9491  -7.9469
    -7.9114  -7.9111  -7.7629  -7.7185  -7.7178  -7.6709  -7.5034  -2.3572
    -2.3571  -2.3385  -1.8563  -1.8529  -1.8013  -1.6992  -1.6642  -1.6030
    -1.5764  -1.5131  -1.4812  -1.3277  -1.2484  -1.2470  -1.2233  -0.8930
    -0.7691  -0.5083  -0.4862  -0.4850  -0.4070  -0.4021  -0.3443  -0.3192
    -0.2924  -0.2911  -0.2876  -0.2753  -0.2584  -0.2376  -0.1913  -0.1643
    -0.1556  -0.1488  -0.0651  -0.0632   0.0711   0.0724   0.0724   0.0755
     0.1137   0.1454   0.1742   0.2723   0.2949   0.3124   0.3461   0.3539
     0.5560   0.5668   0.7815   0.8548   0.8553   0.9206   0.9486   1.1540
     1.1978   1.3228   1.3312   1.3483   1.3749   1.4194   1.4780   1.4977
     1.6559   1.7547   1.7854   1.7988   1.9121   1.9261   1.9418   1.9875
     2.0125   2.0820   2.0867   2.2091   2.2236   2.4998   2.5081   5.1630
     5.1901   5.3661   5.9970   6.1120   6.5726   6.7380   6.7486   7.0671
     7.7637   7.9475   8.1000   8.2531   8.3228   8.5160   8.5764   8.7570
     9.0528

          k = 0.0000 0.1320 0.0000 ( 34589 PWs)   bands (ev):

   -35.6174 -35.4826 -23.4169 -22.7910 -22.7903 -22.5781 -17.0871 -16.9281
   -16.7318 -16.6678 -16.6034 -16.5445 -15.2437 -15.1425 -14.9114 -14.7049
   -14.6902 -14.5800 -14.3914 -14.2179 -14.2124 -14.0307 -14.0091 -14.0017
   -13.8917 -13.6104 -13.3749  -8.6764  -8.2684  -8.2375  -7.9487  -7.9468
    -7.8636  -7.8633  -7.7635  -7.7596  -7.7572  -7.6245  -7.5557  -2.4178
    -2.4140  -2.3685  -2.1911  -2.1809  -2.0813  -1.9292  -1.7743  -1.6784
    -1.6721  -1.6712  -1.6468  -1.5588  -1.3779  -1.3157  -1.3116  -1.2072
    -0.8209  -0.6597  -0.6528  -0.5887  -0.5837  -0.5823  -0.4892  -0.4869
    -0.4009  -0.3691  -0.2528  -0.2378  -0.2077  -0.1984  -0.1757  -0.1745
    -0.1264  -0.0860  -0.0439  -0.0417  -0.0211   0.0218   0.0951   0.0958
     0.1301   0.1483   0.2254   0.2503   0.2909   0.3378   0.3722   0.4500
     0.6368   0.7054   0.8963   1.0104   1.0257   1.0525   1.0526   1.1165
     1.1281   1.1549   1.3640   1.3728   1.3910   1.4829   1.4879   1.4931
     1.6394   1.6697   1.7309   1.7393   1.7840   1.8743   1.9437   1.9574
     1.9784   1.9897   2.2143   2.3367   2.7521   2.7879   2.8233   5.5518
     5.5662   5.6785   6.3135   6.4534   6.7886   7.0415   7.0472   7.3528
     7.9233   8.1186   8.2741   8.4041   8.5398   8.6093   8.7386   8.9263
     9.1505

          k = 0.0000 0.2640 0.0000 ( 34465 PWs)   bands (ev):

   -35.6130 -35.4781 -23.3651 -22.7251 -22.7244 -22.5140 -16.9951 -16.8861
   -16.8357 -16.7565 -16.6622 -16.5389 -15.0431 -14.9748 -14.7857 -14.7537
   -14.7134 -14.5223 -14.3197 -14.2093 -14.1900 -14.1510 -14.0540 -14.0438
   -13.9454 -13.6708 -13.5405  -8.6450  -8.3284  -8.1764  -7.9482  -7.9468
    -7.8512  -7.8502  -7.7561  -7.7432  -7.7428  -7.6680  -7.5076  -2.8666
    -2.8485  -2.7894  -2.6463  -2.4776  -2.4551  -2.4519  -2.3090  -2.3078
    -2.2996  -1.7510  -1.6236  -1.5983  -1.5031  -1.5002  -1.4884  -1.2627
    -1.0045  -0.9841  -0.9784  -0.9665  -0.8341  -0.8336  -0.6784  -0.6707
    -0.5662  -0.5472  -0.5259  -0.5239  -0.5177  -0.4227  -0.3782  -0.3239
    -0.2265  -0.1634  -0.0156  -0.0136   0.0664   0.0773   0.0811   0.1820
     0.2213   0.3483   0.3999   0.4295   0.5867   0.6607   0.6733   0.6994
     0.7793   0.8501   0.9390   1.0117   1.0697   1.1179   1.1374   1.1381
     1.1478   1.1689   1.2432   1.2750   1.3207   1.5472   1.5676   1.5951
     1.5996   1.6866   1.7227   1.8907   1.9150   1.9454   1.9469   1.9583
     2.0348   2.0785   2.3278   2.4568   3.0103   3.0141   3.6565   6.3976
     6.4594   6.4600   7.0529   7.2754   7.4526   7.7845   7.8620   7.8731
     8.2590   8.6085   8.6192   8.7320   8.8948   8.9358   9.0461   9.1550
     9.3551

          k = 0.0000 0.3960 0.0000 ( 34424 PWs)   bands (ev):

   -35.6086 -35.4737 -23.3121 -22.6569 -22.6562 -22.4478 -17.0225 -16.8933
   -16.8919 -16.7338 -16.6565 -16.5332 -14.9612 -14.9538 -14.7394 -14.6620
   -14.6291 -14.4562 -14.2763 -14.2585 -14.1405 -14.1302 -14.1275 -14.0507
   -14.0050 -13.7665 -13.7072  -8.5950  -8.4214  -8.0804  -7.9481  -7.9468
    -7.9294  -7.9283  -7.7817  -7.7367  -7.6147  -7.6143  -7.3833  -3.5092
    -3.3156  -3.3103  -3.0958  -3.0254  -3.0222  -2.9160  -2.3994  -2.3983
    -2.3297  -2.1011  -1.8357  -1.8301  -1.5586  -1.5335  -1.4187  -1.2256
    -1.2142  -1.1859  -1.1672  -1.1471  -1.1014  -1.0979  -0.8927  -0.8608
    -0.8484  -0.7777  -0.7730  -0.7549  -0.7371  -0.5968  -0.4029  -0.3127
    -0.2815  -0.1803  -0.0341   0.0014   0.0034   0.0977   0.1003   0.1369
     0.1943   0.4544   0.4614   0.5318   0.6487   0.7323   0.7574   0.8706
     0.8875   0.8976   0.9058   0.9366   1.0000   1.0582   1.1080   1.1091
     1.1514   1.3045   1.3966   1.5005   1.5898   1.5962   1.6942   1.7191
     1.7381   1.8315   1.9087   1.9227   1.9394   1.9828   2.1225   2.2117
     2.2882   2.3403   2.3411   2.4129   2.9030   2.9078   4.2341   7.0762
     7.2408   7.4072   7.4085   8.2054   8.2703   8.4239   8.4767   8.6528
     8.6656   9.0578   9.0582   9.0979   9.1693   9.2119   9.4101   9.4679
     9.4889

          k = 0.0000-0.5279 0.0000 ( 34482 PWs)   bands (ev):

   -35.6068 -35.4719 -23.2897 -22.6280 -22.6273 -22.4198 -17.0747 -16.9436
   -16.8483 -16.6890 -16.6542 -16.5309 -15.0042 -14.9975 -14.6976 -14.5983
   -14.5295 -14.3500 -14.3352 -14.3023 -14.1569 -14.1066 -14.0994 -14.0627
   -13.9889 -13.8457 -13.7771  -8.5509  -8.4792  -8.0394  -7.9590  -7.9580
    -7.9477  -7.9464  -7.8152  -7.7390  -7.5588  -7.5584  -7.3293  -3.7749
    -3.4940  -3.4898  -3.2697  -3.2559  -3.2459  -3.0857  -2.4155  -2.4144
    -2.3372  -2.2312  -1.9662  -1.9617  -1.5275  -1.4969  -1.3912  -1.3043
    -1.2510  -1.2500  -1.2389  -1.2241  -1.2187  -1.1140  -1.0146  -0.9631
    -0.9620  -0.8650  -0.8639  -0.8473  -0.8129  -0.6726  -0.3826  -0.2919
    -0.2634  -0.1852  -0.0984   0.0071   0.0090   0.0951   0.1079   0.1446
     0.1920   0.3878   0.4507   0.4864   0.6031   0.6048   0.7815   0.8026
     0.8266   0.9041   0.9804   0.9837   1.0068   1.0909   1.0921   1.2588
     1.3158   1.3684   1.3922   1.4547   1.7039   1.7091   1.7113   1.7604
     1.9852   1.9878   1.9946   2.0354   2.0654   2.1067   2.1361   2.1482
     2.1592   2.4107   2.5018   2.5027   2.7236   2.7299   4.4197   7.0225
     7.8091   7.8189   7.8203   7.9584   8.7651   8.8880   8.9322   8.9475
     8.9742   8.9944   9.0850   9.2683   9.2940   9.3374   9.4347   9.6312
     9.7983

          k = 0.1250 0.0000 0.0000 ( 34573 PWs)   bands (ev):

   -35.6182 -35.4833 -23.4243 -22.7996 -22.7989 -22.5861 -17.0899 -16.9305
   -16.7503 -16.6579 -16.6279 -16.5301 -15.2302 -15.1299 -14.9878 -14.7449
   -14.7306 -14.6113 -14.4238 -14.2172 -14.2144 -14.0232 -14.0003 -13.9986
   -13.8800 -13.5971 -13.3658  -8.7055  -8.2532  -8.1721  -7.9749  -7.9730
    -7.8498  -7.8490  -7.8153  -7.6861  -7.6853  -7.5973  -7.4716  -2.3999
    -2.3995  -2.3652  -1.8990  -1.8921  -1.8386  -1.8342  -1.8285  -1.7722
    -1.6055  -1.5802  -1.4856  -1.4338  -1.2548  -1.2463  -1.2450  -0.9079
    -0.8431  -0.6648  -0.6489  -0.5434  -0.5399  -0.5371  -0.4129  -0.3684
    -0.3657  -0.3579  -0.3084  -0.2978  -0.2659  -0.2617  -0.2522  -0.2324
    -0.2074  -0.1621  -0.0848   0.0412   0.0638   0.0651   0.0896   0.1406
     0.1684   0.1686   0.1901   0.2410   0.2611   0.3451   0.3933   0.4471
     0.6342   0.7118   0.7653   0.7735   0.8759   0.9680   0.9995   1.1528
     1.1771   1.1868   1.3269   1.3403   1.3712   1.4150   1.4585   1.5103
     1.5932   1.7850   1.8244   1.8519   1.8828   1.9420   1.9449   1.9635
     2.0849   2.0862   2.1437   2.2462   2.2726   2.5395   2.5435   5.3596
     5.3701   5.5668   6.2390   6.3537   6.7114   6.9494   6.9574   7.2749
     7.8650   8.0906   8.2293   8.4104   8.5466   8.6990   8.7846   8.9762
     9.1977

          k = 0.1250 0.1320 0.0000 ( 34564 PWs)   bands (ev):

   -35.6164 -35.4815 -23.4037 -22.7738 -22.7730 -22.5609 -17.0548 -16.8951
   -16.7535 -16.7209 -16.6297 -16.5939 -15.1486 -15.0579 -14.9345 -14.7397
   -14.7194 -14.5822 -14.3876 -14.2183 -14.2148 -14.0402 -14.0269 -14.0166
   -13.9137 -13.6185 -13.4154  -8.6830  -8.3889  -8.0990  -7.9940  -7.9931
    -7.9120  -7.9108  -7.8132  -7.6882  -7.6480  -7.6475  -7.4338  -2.4550
    -2.4500  -2.3887  -2.1769  -2.1652  -2.0593  -1.9164  -1.8781  -1.8694
    -1.8108  -1.7889  -1.6662  -1.6653  -1.5777  -1.3874  -1.3077  -1.2338
    -0.8863  -0.8141  -0.7988  -0.7034  -0.6999  -0.6044  -0.5802  -0.5294
    -0.5291  -0.4418  -0.4054  -0.2950  -0.2586  -0.2312  -0.2149  -0.1666
    -0.1125  -0.0886  -0.0550  -0.0223  -0.0181   0.1005   0.1246   0.1358
     0.1659   0.1913   0.2417   0.2614   0.2751   0.3119   0.4870   0.5868
     0.6136   0.8626   0.9633   1.0089   1.0102   1.0863   1.1098   1.1879
     1.2007   1.2117   1.2464   1.2706   1.2859   1.3839   1.5454   1.5639
     1.6225   1.6319   1.6366   1.6529   1.6846   1.7353   1.9930   2.0747
     2.3156   2.3222   2.4902   2.5960   2.7679   2.7964   2.8316   5.7026
     5.7086   5.8319   6.5142   6.6473   6.9090   7.2454   7.2493   7.5254
     7.9517   8.2604   8.3949   8.5502   8.6630   8.7217   8.9045   9.0264
     9.1471

          k = 0.1250 0.2640 0.0000 ( 34463 PWs)   bands (ev):

   -35.6120 -35.4771 -23.3532 -22.7099 -22.7092 -22.4988 -16.9656 -16.8830
   -16.8057 -16.7535 -16.7329 -16.6105 -14.9734 -14.9246 -14.8005 -14.7397
   -14.6900 -14.5153 -14.3006 -14.2021 -14.1907 -14.1466 -14.0737 -14.0637
   -13.9545 -13.6693 -13.5437  -8.6394  -8.5198  -8.0933  -8.0630  -8.0623
    -7.9490  -7.9477  -7.8524  -7.7624  -7.6389  -7.6384  -7.4291  -2.8883
    -2.8691  -2.7774  -2.6631  -2.4824  -2.4557  -2.4522  -2.3086  -2.3083
    -2.3048  -1.8299  -1.8238  -1.7985  -1.7003  -1.5351  -1.5048  -1.4944
    -1.0890  -1.0173  -1.0128  -0.9920  -0.9694  -0.9311  -0.8662  -0.7447
    -0.7202  -0.7202  -0.5901  -0.5680  -0.5236  -0.4934  -0.3817  -0.3228
    -0.2494  -0.1538  -0.1061  -0.0576  -0.0290   0.0994   0.1649   0.1871
     0.3288   0.3760   0.4705   0.5464   0.6274   0.7153   0.7194   0.7675
     0.9019   0.9777   0.9937   1.0430   1.0718   1.1617   1.2208   1.2765
     1.3002   1.3139   1.3463   1.3558   1.3763   1.4667   1.5374   1.5593
     1.5752   1.6160   1.6281   1.8470   1.9041   1.9135   1.9285   2.2070
     2.5129   2.5192   2.7222   2.8093   3.0210   3.0287   3.6588   6.4384
     6.5205   6.5210   7.1059   7.3549   7.5654   7.7555   8.0258   8.0302
     8.4141   8.4820   8.7430   8.7918   8.9027   8.9719   9.0786   9.1162
     9.1544

          k = 0.1250 0.3960 0.0000 ( 34482 PWs)   bands (ev):

   -35.6076 -35.4727 -23.3015 -22.6440 -22.6433 -22.4347 -17.0174 -16.8868
   -16.8668 -16.7244 -16.7068 -16.6020 -14.9262 -14.9206 -14.6960 -14.6147
   -14.5656 -14.4432 -14.2535 -14.2453 -14.1713 -14.1264 -14.1257 -14.0766
   -13.9973 -13.7479 -13.6805  -8.6237  -8.5415  -8.1499  -8.0935  -8.0926
    -7.9605  -7.9592  -7.9173  -7.7582  -7.6839  -7.6835  -7.4621  -3.4974
    -3.3570  -3.3486  -3.1273  -3.0169  -3.0138  -2.9361  -2.4076  -2.4065
    -2.3438  -2.0403  -1.8188  -1.8147  -1.6827  -1.6626  -1.6109  -1.4425
    -1.3650  -1.3254  -1.2948  -1.2209  -1.1458  -1.1447  -1.0362  -1.0209
    -0.8996  -0.8973  -0.8577  -0.8150  -0.7787  -0.7194  -0.4170  -0.3483
    -0.3171  -0.1972  -0.1105  -0.0622   0.0086   0.1411   0.1758   0.1837
     0.3815   0.4198   0.5541   0.6419   0.7126   0.8729   0.8767   0.9269
     1.0071   1.0335   1.0362   1.1009   1.1249   1.1573   1.2017   1.2117
     1.2633   1.3743   1.4680   1.6192   1.6531   1.6556   1.6912   1.7260
     1.8128   1.8875   1.9121   1.9609   2.0689   2.3076   2.3082   2.3283
     2.4606   2.4694   2.6694   2.7379   2.9617   2.9763   4.2242   6.8092
     7.2698   7.2725   7.3034   8.0885   8.1505   8.2581   8.3830   8.6344
     8.6436   8.8682   9.0670   9.2363   9.3505   9.4436   9.4781   9.5673
     9.6012

          k = 0.1250-0.5279 0.0000 ( 34444 PWs)   bands (ev):

   -35.6057 -35.4708 -23.2798 -22.6160 -22.6153 -22.4075 -17.0690 -16.9381
   -16.8234 -16.7206 -16.6633 -16.5984 -14.9593 -14.9533 -14.6558 -14.5254
   -14.4688 -14.3486 -14.3203 -14.2859 -14.1903 -14.1031 -14.1001 -14.0458
   -14.0117 -13.8126 -13.7393  -8.6027  -8.5487  -8.1841  -8.0882  -8.0871
    -7.9653  -7.9640  -7.9363  -7.7553  -7.7181  -7.7179  -7.4820  -3.7650
    -3.5431  -3.5356  -3.3038  -3.2467  -3.2425  -3.1124  -2.4286  -2.4276
    -2.3578  -2.1313  -1.8487  -1.8437  -1.6359  -1.6239  -1.5445  -1.5184
    -1.4993  -1.3905  -1.3801  -1.3228  -1.2300  -1.2212  -1.1838  -1.0843
    -0.9738  -0.9720  -0.9680  -0.9030  -0.8764  -0.8245  -0.3991  -0.3444
    -0.3225  -0.2126  -0.1119  -0.0469   0.0329   0.1538   0.1857   0.1883
     0.3878   0.4338   0.5864   0.6095   0.6965   0.7950   0.9026   0.9169
     0.9272   0.9291   0.9949   1.1166   1.1559   1.2345   1.2469   1.3138
     1.3970   1.4085   1.4412   1.6344   1.7501   1.7978   1.9765   1.9951
     2.0009   2.0102   2.1188   2.1348   2.1847   2.3189   2.3230   2.3997
     2.4728   2.4736   2.5209   2.5872   2.8402   2.8601   4.4055   6.7458
     7.4918   7.4936   7.6971   7.9463   8.2759   8.3647   8.5664   9.0040
     9.0849   9.2172   9.2787   9.3012   9.4460   9.7216   9.7853   9.7989
     9.8984

          k = 0.2500 0.0000 0.0000 ( 34590 PWs)   bands (ev):

   -35.6155 -35.4806 -23.3909 -22.7553 -22.7546 -22.5419 -17.0047 -16.9142
   -16.8437 -16.7930 -16.6546 -16.5268 -15.0616 -15.0297 -14.9895 -14.8278
   -14.7741 -14.6325 -14.4339 -14.2314 -14.2295 -14.0906 -14.0413 -14.0319
   -13.9229 -13.6253 -13.4953  -8.7189  -8.1604  -8.1125  -7.9764  -7.9748
    -7.8485  -7.7630  -7.7626  -7.6054  -7.6046  -7.5181  -7.3926  -2.5944
    -2.5897  -2.4875  -2.2361  -2.2359  -2.1924  -2.0878  -1.7743  -1.7593
    -1.6819  -1.5156  -1.5119  -1.4424  -1.3412  -1.2430  -1.2416  -1.0711
    -0.9465  -0.9163  -0.8895  -0.7962  -0.7954  -0.6723  -0.6722  -0.5604
    -0.5572  -0.5438  -0.4886  -0.4716  -0.3408  -0.3113  -0.2813  -0.2779
    -0.2754  -0.2322  -0.1437  -0.1077   0.0511   0.0524   0.1512   0.1565
     0.1668   0.2958   0.2978   0.4253   0.4293   0.4717   0.5226   0.5751
     0.6342   0.6544   0.7684   0.8534   0.9080   0.9826   1.0058   1.0391
     1.2534   1.2659   1.2811   1.2969   1.3925   1.4133   1.4347   1.5412
     1.6350   1.6473   1.6804   1.8390   1.8572   1.9186   2.0058   2.0239
     2.0544   2.1082   2.2921   2.4443   2.5072   2.6466   2.6509   5.8259
     5.8274   6.0498   6.8627   6.9777   7.1073   7.5218   7.5305   7.7482
     8.0228   8.4565   8.4935   8.6831   8.8931   9.0770   9.2501   9.3305
     9.4043

          k = 0.2500 0.1320 0.0000 ( 34551 PWs)   bands (ev):

   -35.6137 -35.4788 -23.3716 -22.7315 -22.7307 -22.5187 -16.9726 -16.9078
   -16.8116 -16.7863 -16.7207 -16.5926 -15.0024 -14.9777 -14.9509 -14.7790
   -14.7225 -14.5974 -14.3873 -14.2172 -14.2168 -14.0900 -14.0537 -14.0451
   -13.9564 -13.6405 -13.5095  -8.6960  -8.4176  -8.0448  -8.0440  -8.0320
    -7.9000  -7.8987  -7.8802  -7.6831  -7.5717  -7.5711  -7.3659  -2.6468
    -2.6355  -2.5148  -2.2290  -2.2279  -2.1878  -2.1399  -2.1210  -2.0690
    -1.9860  -1.8442  -1.8190  -1.6569  -1.6558  -1.4477  -1.3833  -1.3200
    -1.0784  -1.0446  -1.0343  -0.9290  -0.9021  -0.8395  -0.7429  -0.6616
    -0.6408  -0.6320  -0.4923  -0.4568  -0.4097  -0.3618  -0.3274  -0.2425
    -0.2240  -0.0605  -0.0537  -0.0233   0.0086   0.0760   0.1316   0.1709
     0.1846   0.2982   0.3033   0.3462   0.4807   0.5749   0.6242   0.7483
     0.8340   0.8782   0.8865   0.9382   1.0215   1.0379   1.1359   1.1595
     1.1932   1.2435   1.3515   1.3796   1.3982   1.4502   1.4538   1.4987
     1.5201   1.6471   1.6584   1.7054   1.7115   1.8980   1.9664   2.1007
     2.6354   2.6526   2.8163   2.8320   2.8416   2.9002   2.9840   6.0877
     6.0886   6.1950   7.0385   7.1598   7.2614   7.7367   7.7852   7.8004
     8.1875   8.5737   8.5889   8.6651   8.8216   9.0246   9.1406   9.2247
     9.3556

          k = 0.2500 0.2640 0.0000 ( 34523 PWs)   bands (ev):

   -35.6094 -35.4745 -23.3242 -22.6728 -22.6720 -22.4614 -16.9084 -16.8838
   -16.8571 -16.7803 -16.7316 -16.7256 -14.8892 -14.8798 -14.8418 -14.6387
   -14.5925 -14.5098 -14.2643 -14.1927 -14.1896 -14.1415 -14.0997 -14.0922
   -13.9787 -13.6682 -13.5532  -8.7238  -8.6263  -8.2650  -8.2643  -8.1487
    -8.0466  -7.9616  -7.9604  -7.7807  -7.6916  -7.6908  -7.4907  -3.0269
    -2.9968  -2.7990  -2.7244  -2.5298  -2.4692  -2.4649  -2.3419  -2.3404
    -2.3309  -2.1984  -2.1972  -2.1411  -2.0033  -1.6899  -1.4806  -1.4514
    -1.4488  -1.4391  -1.3186  -1.1708  -1.1266  -0.9757  -0.9464  -0.8889
    -0.7619  -0.7512  -0.6390  -0.6278  -0.6193  -0.5976  -0.4390  -0.3964
    -0.3497  -0.3128  -0.2626  -0.0081   0.0425   0.0677   0.2939   0.3218
     0.4906   0.5379   0.5803   0.7512   0.7654   0.8140   0.8825   0.9316
     0.9340   1.1093   1.1864   1.2239   1.2593   1.3067   1.3218   1.3603
     1.4201   1.4512   1.4555   1.4960   1.5029   1.5738   1.5916   1.6299
     1.6370   1.6649   1.6912   1.8286   1.8307   1.9401   2.0301   2.2564
     2.9578   2.9595   3.2432   3.2559   3.3891   3.5040   3.6673   6.3731
     6.6307   6.6309   7.2300   7.5535   7.6732   7.8315   8.3168   8.3182
     8.5313   8.7015   8.7880   8.9619   9.0213   9.1637   9.2497   9.2992
     9.3694

          k = 0.2500 0.3960 0.0000 ( 34490 PWs)   bands (ev):

   -35.6050 -35.4701 -23.2759 -22.6124 -22.6116 -22.4026 -17.0053 -16.8750
   -16.8723 -16.7982 -16.7503 -16.6378 -14.8449 -14.8418 -14.6489 -14.4686
   -14.4512 -14.4092 -14.2491 -14.2090 -14.2047 -14.1158 -14.1155 -14.1075
   -13.9832 -13.7041 -13.6101  -8.8761  -8.5713  -8.3850  -8.3841  -8.3746
    -8.1845  -8.0119  -8.0109  -7.9055  -7.9047  -7.7978  -7.7001  -3.5285
    -3.4957  -3.4612  -3.2493  -3.0246  -2.9931  -2.9916  -2.4786  -2.4784
    -2.4004  -2.1642  -2.1606  -2.0908  -1.9502  -1.9023  -1.8042  -1.7990
    -1.6171  -1.5225  -1.4812  -1.4432  -1.3259  -1.1857  -1.1749  -0.9533
    -0.8606  -0.8576  -0.8285  -0.8208  -0.7979  -0.7350  -0.5802  -0.5043
    -0.4624  -0.3540  -0.2837   0.0303   0.1123   0.1721   0.3318   0.3884
     0.6326   0.6648   0.8108   0.9501   0.9508   0.9762   1.0476   1.2194
     1.2525   1.2572   1.2893   1.2930   1.4032   1.4386   1.4701   1.4774
     1.5368   1.5785   1.6060   1.6926   1.7192   1.7451   1.7782   1.8427
     1.8668   1.9119   1.9325   1.9834   2.1732   2.2292   2.2298   2.3606
     2.7893   2.7916   3.4721   3.4961   3.6269   3.7255   4.1964   6.1743
     6.8383   6.8389   7.3165   7.7015   7.8359   8.0915   8.4493   8.7678
     8.7800   8.9792   9.1532   9.3535   9.6537   9.7133   9.7532   9.8382
     9.8739

          k = 0.2500-0.5279 0.0000 ( 34528 PWs)   bands (ev):

   -35.6032 -35.4683 -23.2555 -22.5868 -22.5861 -22.3777 -17.0555 -16.9248
   -16.8668 -16.7586 -16.7450 -16.5983 -14.8420 -14.8379 -14.5467 -14.3907
   -14.3784 -14.3459 -14.2906 -14.2569 -14.2514 -14.0958 -14.0946 -14.0292
   -14.0084 -13.7352 -13.6369  -8.8975  -8.5457  -8.5019  -8.3852  -8.3841
    -8.2175  -8.0999  -8.0994  -7.9717  -7.9704  -7.8117  -7.7995  -3.7566
    -3.7037  -3.6956  -3.4394  -3.2296  -3.2207  -3.2076  -2.4861  -2.4857
    -2.4084  -2.1281  -2.1225  -2.0391  -2.0291  -1.9571  -1.9409  -1.8947
    -1.7070  -1.6510  -1.5181  -1.4762  -1.3921  -1.2729  -1.2648  -0.9723
    -0.9391  -0.9204  -0.8964  -0.8430  -0.8353  -0.8176  -0.5948  -0.5331
    -0.4909  -0.3628  -0.2708   0.0365   0.1429   0.2061   0.3453   0.4223
     0.6677   0.7560   0.9319   1.0025   1.0542   1.0544   1.0635   1.1693
     1.1946   1.2136   1.3362   1.4201   1.4297   1.4529   1.4748   1.5206
     1.5208   1.6391   1.6881   1.8345   1.8822   1.9255   1.9607   1.9939
     2.0064   2.0436   2.0890   2.1090   2.2994   2.3923   2.4049   2.4056
     2.5669   2.5702   3.4918   3.5216   3.6623   3.7569   4.3608   6.0265
     6.8019   6.8037   7.3350   7.6761   7.9247   8.1992   8.3037   8.9434
     9.1342   9.2240   9.4907   9.5027   9.7044   9.8402   9.9182  10.0461
    10.0746

          k = 0.3750 0.0000 0.0000 ( 34518 PWs)   bands (ev):

   -35.6129 -35.4780 -23.3569 -22.7099 -22.7091 -22.4967 -17.0540 -16.9335
   -16.9096 -16.7466 -16.6513 -16.5235 -15.1523 -15.0696 -15.0659 -14.6791
   -14.6554 -14.6318 -14.3973 -14.2445 -14.2361 -14.1921 -14.0979 -14.0871
   -13.9561 -13.6605 -13.6090  -8.7063  -8.0973  -8.0511  -7.9589  -7.9574
    -7.8410  -7.6981  -7.6977  -7.5210  -7.5202  -7.4844  -7.3099  -2.9215
    -2.9157  -2.7760  -2.4973  -2.3593  -2.3582  -2.2870  -1.6925  -1.6635
    -1.6265  -1.5673  -1.5379  -1.4406  -1.4053  -1.3183  -1.2446  -1.2432
    -1.0456  -1.0384  -0.9906  -0.9670  -0.9468  -0.9169  -0.8015  -0.7603
    -0.7574  -0.7275  -0.7042  -0.6705  -0.4639  -0.4323  -0.3023  -0.2950
    -0.2715  -0.2614  -0.1844  -0.1748   0.0383   0.0396   0.0855   0.1460
     0.1530   0.3743   0.3768   0.3986   0.4007   0.4518   0.4970   0.5399
     0.7033   0.7558   0.7794   0.8630   0.8770   1.0626   1.1568   1.1569
     1.2014   1.2586   1.3239   1.3342   1.4054   1.4270   1.4873   1.5243
     1.6353   1.7272   1.7512   1.7694   1.8877   1.9343   1.9653   2.1108
     2.1383   2.1425   2.3381   2.5506   2.5540   2.7617   2.7730   6.4756
     6.4770   6.5087   7.3603   7.6915   7.7333   7.9712   7.9728   8.0064
     8.4398   8.5170   8.6193   9.0099   9.2944   9.4136   9.4620   9.5165
     9.5691

          k = 0.3750 0.1320 0.0000 ( 34583 PWs)   bands (ev):

   -35.6111 -35.4762 -23.3389 -22.6882 -22.6874 -22.4755 -17.0454 -16.9249
   -16.8804 -16.7173 -16.7158 -16.5876 -15.0826 -15.0218 -15.0189 -14.6382
   -14.6113 -14.5713 -14.3441 -14.2154 -14.2127 -14.1698 -14.0910 -14.0811
   -13.9929 -13.6733 -13.5959  -8.6867  -8.3515  -8.0858  -8.0163  -8.0154
    -7.8725  -7.8612  -7.8606  -7.6475  -7.6107  -7.6099  -7.4139  -2.9849
    -2.9726  -2.8241  -2.5224  -2.3580  -2.3570  -2.2916  -2.0718  -2.0482
    -1.8927  -1.8231  -1.7775  -1.6455  -1.6443  -1.5110  -1.4619  -1.3789
    -1.3394  -1.3354  -1.2646  -1.1449  -1.0038  -0.8880  -0.8475  -0.8067
    -0.7581  -0.7045  -0.6069  -0.5831  -0.5202  -0.4437  -0.4357  -0.2961
    -0.2922  -0.0872  -0.0750   0.0182   0.0873   0.1020   0.1412   0.1614
     0.1735   0.3348   0.4017   0.4130   0.4217   0.6380   0.6568   0.7629
     0.7981   0.8576   0.9283   1.0050   1.0905   1.1035   1.1595   1.1868
     1.2268   1.2866   1.3318   1.3397   1.4414   1.5107   1.5421   1.5541
     1.6724   1.7156   1.7224   1.7645   1.8347   1.9389   2.0764   2.0921
     2.7132   2.7226   2.8511   2.9298   2.9446   3.1068   3.1608   6.4657
     6.6260   6.6263   7.3736   7.7457   7.7870   7.9654   8.0375   8.0384
     8.4572   8.6176   8.7454   8.8457   9.1820   9.3305   9.4447   9.4771
     9.6076

          k = 0.3750 0.2640 0.0000 ( 34595 PWs)   bands (ev):

   -35.6068 -35.4719 -23.2948 -22.6349 -22.6341 -22.4234 -17.0251 -16.9045
   -16.8602 -16.8052 -16.7304 -16.6431 -14.9053 -14.8985 -14.8859 -14.5427
   -14.5092 -14.4231 -14.2312 -14.1799 -14.1562 -14.1465 -14.0978 -14.0848
   -14.0294 -13.6816 -13.5649  -8.7795  -8.6150  -8.3425  -8.3177  -8.3169
    -8.1027  -7.9963  -7.9953  -7.8739  -7.8730  -7.8029  -7.6910  -3.3045
    -3.2670  -3.0573  -2.7429  -2.7105  -2.5292  -2.5244  -2.4094  -2.4092
    -2.3875  -2.2799  -2.2790  -2.2701  -2.2462  -1.8114  -1.7687  -1.6683
    -1.5856  -1.4542  -1.2951  -1.2614  -1.1158  -0.9760  -0.9584  -0.9130
    -0.8903  -0.8803  -0.6981  -0.6822  -0.6756  -0.6515  -0.5250  -0.4229
    -0.4107  -0.3573  -0.3352   0.0217   0.0912   0.2245   0.3779   0.4293
     0.6074   0.6573   0.6706   0.7894   0.8014   0.9779   0.9796   1.0778
     1.1452   1.1708   1.2116   1.2152   1.3742   1.3761   1.4156   1.4352
     1.5008   1.5321   1.5963   1.6165   1.6441   1.6920   1.7132   1.7245
     1.7340   1.7798   1.7908   1.8139   1.9158   2.0410   2.1459   2.1601
     2.9579   2.9608   3.6567   3.7024   3.7066   3.8263   3.9212   6.1078
     6.6714   6.6719   7.2688   7.6025   7.7618   7.9824   8.3765   8.3849
     8.7790   8.8807   9.1156   9.1500   9.3521   9.3923   9.4663   9.6621
     9.7530

          k = 0.3750 0.3960 0.0000 ( 34549 PWs)   bands (ev):

   -35.6025 -35.4675 -23.2499 -22.5802 -22.5795 -22.3700 -17.0079 -16.9867
   -16.8859 -16.8582 -16.7254 -16.5631 -14.7671 -14.7652 -14.6303 -14.4518
   -14.4173 -14.2834 -14.2579 -14.2104 -14.1598 -14.1074 -14.1049 -14.0260
   -13.9899 -13.6665 -13.5335  -9.0857  -8.6525  -8.5835  -8.5825  -8.5673
    -8.3800  -8.2485  -8.2480  -7.9990  -7.9974  -7.9805  -7.8347  -3.7827
    -3.7395  -3.5038  -3.4104  -3.2006  -2.9735  -2.9724  -2.6600  -2.6586
    -2.5257  -2.3252  -2.3070  -2.3062  -2.2714  -2.1260  -2.0742  -1.8915
    -1.7592  -1.7277  -1.3380  -1.2387  -1.2367  -1.2356  -1.2220  -0.9890
    -0.9771  -0.8983  -0.8880  -0.8528  -0.7819  -0.7306  -0.7136  -0.5919
    -0.4248  -0.4234  -0.2899   0.1123   0.2324   0.2731   0.4572   0.6059
     0.8223   0.9627   1.0221   1.1283   1.1305   1.2185   1.2528   1.3240
     1.3565   1.4438   1.4540   1.4569   1.5516   1.6052   1.6559   1.6915
     1.7180   1.7312   1.7615   1.8495   1.8587   1.8922   1.9135   1.9366
     1.9740   2.0101   2.0358   2.1007   2.1511   2.1516   2.3830   2.3948
     2.7773   2.7822   4.1345   4.2192   4.2324   4.3051   4.3988   5.6094
     6.3680   6.3687   7.0521   7.3382   7.8221   7.9353   8.6598   8.8658
     8.9553   8.9931   9.3424   9.4711   9.4989   9.5466   9.5959   9.7246
     9.8933

          k = 0.3750-0.5279 0.0000 ( 34580 PWs)   bands (ev):

   -35.6007 -35.4657 -23.2310 -22.5572 -22.5564 -22.3475 -17.0421 -16.9952
   -16.9117 -16.8747 -16.6900 -16.5279 -14.7058 -14.7046 -14.4263 -14.4178
   -14.3883 -14.3454 -14.2798 -14.2290 -14.1770 -14.0879 -14.0865 -13.9790
   -13.9697 -13.6590 -13.5194  -9.1911  -8.7911  -8.6656  -8.6644  -8.5444
    -8.4861  -8.3936  -8.3933  -8.0969  -8.0247  -8.0229  -7.8474  -3.9890
    -3.9457  -3.7435  -3.6363  -3.4029  -3.1988  -3.1976  -2.6784  -2.6771
    -2.5435  -2.3267  -2.3015  -2.2999  -2.2650  -2.2339  -2.1856  -1.9747
    -1.8557  -1.7891  -1.4047  -1.3469  -1.3363  -1.2664  -1.2626  -0.9873
    -0.9846  -0.9818  -0.9690  -0.9168  -0.8230  -0.8144  -0.7264  -0.5974
    -0.4102  -0.4095  -0.2732   0.1434   0.2695   0.2882   0.4815   0.6861
     0.8915   1.0805   1.1995   1.2402   1.2485   1.2738   1.3206   1.3263
     1.3638   1.5113   1.5664   1.6306   1.6669   1.6859   1.7219   1.7365
     1.7765   1.8471   1.8501   1.9715   1.9828   2.0162   2.0306   2.0544
     2.1153   2.1520   2.1622   2.2547   2.3397   2.3420   2.4558   2.5323
     2.5383   2.5398   4.2471   4.3630   4.3885   4.4532   4.5412   5.3971
     6.1905   6.1910   6.9550   7.2488   7.7840   7.9449   8.6193   8.7267
     9.1035   9.1249   9.3345   9.4690   9.5957   9.7275   9.8140   9.8795
     9.9665

          k =-0.5000 0.0000 0.0000 ( 34514 PWs)   bands (ev):

   -35.6118 -35.4769 -23.3427 -22.6907 -22.6900 -22.4776 -17.1064 -16.9861
   -16.8674 -16.7034 -16.6499 -16.5221 -15.1963 -15.1227 -15.1217 -14.6932
   -14.6307 -14.4180 -14.3540 -14.2643 -14.2533 -14.2268 -14.1726 -14.1312
   -13.9659 -13.6776 -13.6508  -8.6955  -8.0782  -8.0251  -7.9486  -7.9471
    -7.8296  -7.6750  -7.6746  -7.4848  -7.4840  -7.4796  -7.2746  -3.0631
    -3.0581  -2.9126  -2.6511  -2.3843  -2.3832  -2.2915  -1.6962  -1.6476
    -1.6446  -1.6068  -1.4927  -1.4170  -1.4044  -1.3122  -1.2484  -1.2471
    -1.2042  -1.1817  -1.0285  -1.0109  -0.9415  -0.8840  -0.8761  -0.8421
    -0.8409  -0.8032  -0.8008  -0.7784  -0.5237  -0.4858  -0.3076  -0.2999
    -0.2717  -0.2450  -0.2423  -0.1937   0.0330   0.0342   0.0829   0.1091
     0.1205   0.3743   0.3759   0.3994   0.4017   0.4507   0.4654   0.5038
     0.6354   0.8022   0.8443   0.8467   0.8936   1.1064   1.1066   1.1097
     1.3356   1.3360   1.3456   1.3602   1.3646   1.4413   1.5613   1.6207
     1.6252   1.6267   1.7154   1.8364   1.9178   1.9792   2.0820   2.1233
     2.1479   2.1522   2.3456   2.5323   2.5628   2.7881   2.8085   6.7128
     7.2496   7.2501   7.2997   7.3019   7.3354   8.0459   8.2257   8.5140
     8.5149   8.5984   8.9514   9.0541   9.4184   9.4237   9.5328   9.5489
     9.5690

          k =-0.5000 0.1320 0.0000 ( 34570 PWs)   bands (ev):

   -35.6100 -35.4751 -23.3252 -22.6700 -22.6692 -22.4573 -17.0971 -16.9769
   -16.8399 -16.7136 -16.6758 -16.5855 -15.1225 -15.0654 -15.0650 -14.6532
   -14.5927 -14.3781 -14.2953 -14.2256 -14.2243 -14.2048 -14.1427 -14.1130
   -14.0041 -13.6920 -13.6286  -8.6750  -8.2420  -8.1997  -7.9875  -7.9863
    -7.8504  -7.8044  -7.8041  -7.6879  -7.6869  -7.5961  -7.4911  -3.1329
    -3.1216  -2.9697  -2.6821  -2.3892  -2.3882  -2.3150  -2.0387  -2.0133
    -1.8331  -1.8087  -1.7336  -1.6402  -1.6389  -1.5482  -1.4932  -1.4555
    -1.4496  -1.3862  -1.3745  -1.2080  -1.0997  -0.8977  -0.8966  -0.8541
    -0.7338  -0.7301  -0.6700  -0.6271  -0.5566  -0.4804  -0.4746  -0.3196
    -0.3191  -0.1018  -0.0839   0.0306   0.1061   0.1135   0.1541   0.1565
     0.2223   0.2609   0.4094   0.4861   0.4872   0.5631   0.5788   0.7320
     0.7815   0.8955   0.9022   1.0369   1.0927   1.0962   1.1539   1.1976
     1.2516   1.2535   1.3839   1.4432   1.4573   1.4932   1.5992   1.6485
     1.6699   1.6937   1.7290   1.8424   1.8826   2.0634   2.0784   2.1628
     2.7207   2.7257   2.8574   2.9493   2.9653   3.1607   3.1956   6.5356
     7.0974   7.0979   7.3340   7.6044   7.6087   8.0667   8.1439   8.2435
     8.4330   8.7340   8.8871   9.2240   9.4182   9.4730   9.5397   9.5964
     9.7783

          k =-0.5000 0.2640 0.0000 ( 34584 PWs)   bands (ev):

   -35.6057 -35.4708 -23.2825 -22.6190 -22.6182 -22.4074 -17.0751 -16.9549
   -16.8569 -16.7688 -16.7272 -16.6056 -14.9299 -14.9159 -14.9015 -14.5582
   -14.5037 -14.2797 -14.1939 -14.1787 -14.1607 -14.1542 -14.0930 -14.0752
   -14.0601 -13.6970 -13.5703  -8.7321  -8.6098  -8.4911  -8.2565  -8.2555
    -8.1056  -8.1052  -8.0562  -7.9374  -7.9360  -7.8640  -7.7920  -3.4427
    -3.4055  -3.2001  -2.8855  -2.7039  -2.5543  -2.5499  -2.4229  -2.4190
    -2.4027  -2.2904  -2.2881  -2.2805  -2.2720  -1.9366  -1.8871  -1.7214
    -1.6118  -1.5442  -1.2233  -1.1734  -1.0837  -0.9971  -0.9961  -0.9318
    -0.9154  -0.9025  -0.7320  -0.7107  -0.7011  -0.6981  -0.5323  -0.4220
    -0.4206  -0.3799  -0.3485   0.0304   0.1025   0.3024   0.4120   0.4683
     0.6495   0.7053   0.7397   0.8212   0.8255   1.0631   1.0675   1.1079
     1.1433   1.1527   1.1820   1.1945   1.3582   1.4100   1.4464   1.4952
     1.5136   1.5278   1.6638   1.6705   1.6815   1.7305   1.7746   1.7879
     1.7955   1.8131   1.8744   1.8990   1.9166   2.0394   2.0842   2.2556
     2.9509   2.9542   3.6694   3.8376   3.8436   3.9584   4.0461   5.9695
     6.6673   6.6677   7.1987   7.5399   7.8398   8.0739   8.4140   8.4187
     8.8962   9.0637   9.0878   9.3368   9.4967   9.5616   9.5876   9.7182
     9.7843

          k =-0.5000 0.3960 0.0000 ( 34556 PWs)   bands (ev):

   -35.6014 -35.4664 -23.2390 -22.5668 -22.5660 -22.3563 -17.0536 -16.9860
   -16.9334 -16.8560 -16.6932 -16.5301 -14.7382 -14.7355 -14.6286 -14.4746
   -14.4295 -14.2516 -14.2010 -14.1972 -14.1306 -14.1059 -14.1046 -14.0123
   -13.9695 -13.6548 -13.5002  -9.1494  -8.7826  -8.6317  -8.6306  -8.5652
    -8.4403  -8.3936  -8.3933  -8.1127  -8.0152  -8.0136  -7.8490  -3.9134
    -3.8664  -3.6137  -3.4148  -3.3123  -2.9651  -2.9639  -2.7303  -2.7282
    -2.5825  -2.4177  -2.3240  -2.3230  -2.2958  -2.2258  -2.1754  -1.9306
    -1.8206  -1.7609  -1.2999  -1.2613  -1.2562  -1.1340  -1.1238  -1.0755
    -1.0678  -0.9156  -0.9123  -0.8202  -0.8201  -0.7590  -0.6942  -0.6820
    -0.3862  -0.3852  -0.2878   0.1286   0.2523   0.3586   0.5108   0.6964
     0.9113   1.0761   1.1227   1.2597   1.2618   1.2639   1.2729   1.3581
     1.3913   1.4841   1.5282   1.5353   1.5486   1.6723   1.6841   1.7194
     1.7426   1.7859   1.8170   1.8965   1.9347   1.9466   1.9761   2.0114
     2.0387   2.0861   2.1208   2.1282   2.1567   2.2230   2.3268   2.5218
     2.7650   2.7711   4.1374   4.4823   4.4853   4.5488   4.6360   5.3932
     6.1725   6.1729   6.9087   7.1918   7.8263   7.8957   8.6306   8.8990
     8.9096   8.9588   9.3966   9.5039   9.5695   9.6186   9.7067   9.8410
     9.8698

          k =-0.5000-0.5279 0.0000 ( 34620 PWs)   bands (ev):

   -35.5996 -35.4647 -23.2207 -22.5448 -22.5440 -22.3348 -17.0447 -17.0366
   -16.9246 -16.9063 -16.6597 -16.4969 -14.6409 -14.6400 -14.4673 -14.4143
   -14.3458 -14.3433 -14.2979 -14.2265 -14.1252 -14.0845 -14.0810 -13.9710
   -13.9290 -13.6271 -13.4663  -9.3134  -8.9043  -8.7777  -8.7766  -8.5944
    -8.5420  -8.5097  -8.5094  -8.2098  -8.0431  -8.0409  -7.8647  -4.1214
    -4.0736  -3.8201  -3.6727  -3.5129  -3.1894  -3.1881  -2.7629  -2.7607
    -2.6136  -2.4350  -2.3180  -2.3141  -2.3131  -2.2881  -2.2755  -2.0002
    -1.9129  -1.8178  -1.3762  -1.3729  -1.3618  -1.1984  -1.1887  -1.0522
    -1.0368  -1.0103  -1.0092  -0.9191  -0.8672  -0.8114  -0.7194  -0.6665
    -0.3576  -0.3564  -0.2723   0.1633   0.2912   0.3745   0.5406   0.8070
     1.0052   1.2485   1.2513   1.3217   1.3244   1.3352   1.3786   1.3813
     1.4126   1.5972   1.6254   1.7335   1.7421   1.7887   1.7930   1.8603
     1.8638   1.8822   1.9646   1.9847   2.0213   2.0419   2.0556   2.0818
     2.1689   2.2253   2.3012   2.3133   2.3158   2.3979   2.5077   2.5173
     2.5204   2.6731   4.2467   4.6829   4.6906   4.7512   4.8294   5.1584
     5.9455   5.9458   6.7896   7.0891   7.7716   7.8552   8.4642   8.9734
     9.0084   9.0261   9.0622   9.2494   9.5192   9.5381   9.8468   9.9273
    10.0780

     the Fermi energy is     2.5410 ev

!    total energy              =   -1842.84868399 Ry
     Harris-Foulkes estimate   =   -1842.84868399 Ry
     estimated scf accuracy    <          5.6E-11 Ry

     The total energy is the sum of the following terms:

     one-electron contribution =  -29033.41768609 Ry
     hartree contribution      =   14669.45868180 Ry
     xc contribution           =    -621.60387160 Ry
     ewald contribution        =   13142.72189037 Ry
     smearing contrib. (-TS)   =      -0.00769847 Ry

     convergence has been achieved in  39 iterations

     negative rho (up, down):  1.529E-03 0.000E+00

     Forces acting on atoms (cartesian axes, Ry/au):

     atom    1 type  4   force =     0.00000000    0.00000000   -0.00021114
     atom    2 type  3   force =     0.00000000    0.00000000    0.00046350
     atom    3 type  4   force =     0.00000000    0.00000000   -0.00080719
     atom    4 type  1   force =     0.00000000    0.00000000   -0.00027646
     atom    5 type  3   force =     0.00000000    0.00000000    0.00058270
     atom    6 type  4   force =     0.00000000    0.00000000    0.00011421
     atom    7 type  4   force =     0.00000000    0.00000000    0.00029288
     atom    8 type  2   force =     0.00000000    0.00000000   -0.00082534
     atom    9 type  4   force =     0.00000000    0.00000000    0.00067666
     atom   10 type  4   force =     0.00000000    0.00000000    0.00115617
     atom   11 type  3   force =     0.00000000    0.00000000   -0.00230137
     atom   12 type  1   force =     0.00000000    0.00000000   -0.00512378
     atom   13 type  4   force =     0.00000000    0.00000000   -0.04491403
     atom   14 type  4   force =     0.00000000    0.00000000    0.01732620
     atom   15 type  3   force =     0.00000000    0.00000000    0.07144280
     atom   16 type  4   force =     0.00000000    0.00000000   -0.01888991
     atom   17 type  1   force =     0.00000000    0.00000000    0.00661519
     atom   18 type  3   force =     0.00000000    0.00000000   -0.00464077
     atom   19 type  4   force =     0.00000000    0.00000000   -0.00331709
     atom   20 type  4   force =     0.00000000    0.00000000   -0.00418618
     atom   21 type  2   force =     0.00000000    0.00000000   -0.01588551
     atom   22 type  4   force =     0.00000000    0.00000000    0.00033663
     atom   23 type  4   force =     0.00000000    0.00000000    0.00153657
     atom   24 type  3   force =     0.00000000    0.00000000   -0.00017593
     atom   25 type  1   force =     0.00000000    0.00000000    0.00027892
     atom   26 type  4   force =     0.00000000    0.00000000    0.00106495
     atom   27 type  3   force =     0.00000000    0.00000000   -0.00061932
     atom   28 type  4   force =     0.00000000    0.00000000    0.00028663

     Total force =     0.078149     Total SCF correction =     0.000013


     Computing stress (Cartesian axis) and pressure


     negative rho (up, down):  1.529E-03 0.000E+00
          total   stress  (Ry/bohr**3)                   (kbar)     P=       -6.94
  -0.00006989   0.00000000   0.00000000          -10.28        0.00        0.00
   0.00000000  -0.00003840   0.00000000            0.00       -5.65        0.00
   0.00000000   0.00000000  -0.00003330            0.00        0.00       -4.90


     BFGS Geometry Optimization

     number of scf cycles    =   1
     number of bfgs steps    =   0

     energy   new            =   -1842.8486839903 Ry

     new trust radius        =       0.0714427989 bohr
     new conv_thr            =            1.0E-10 Ry


ATOMIC_POSITIONS (angstrom)
O             0.0000000000        1.8611200000       -0.1846200000    0   0   0
Cu            0.0000000000        0.0000000000        0.1039800000    0   0   0
O             0.0000000000        0.0000000000        1.9772600000    0   0   0
Ba            1.9651100000        1.8611200000        2.2364100000    0   0   0
Cu            0.0000000000        0.0000000000        4.0773100000    0   0   0
O             1.9651100000        0.0000000000        4.2321000000    0   0   0
O             0.0000000000        1.8611200000        4.3692200000    0   0   0
Ca            1.9651100000        1.8611200000        5.8860000000    0   0   0
O             0.0000000000        1.8611200000        7.3367500000    0   0   0
O             1.9651100000        0.0000000000        7.4847600000    0   0   0
Cu            0.0000000000        0.0000000000        7.6688600000    0   0   0
Ba            1.9651100000        1.8611200000        9.5487700000    0   0   0
O             0.0000000000        0.0000000000        9.8708900000    0   0   0
O             0.0000000000        1.8611200000       11.6678086293
Cu            0.0000000000        0.0000000000       11.6966659009
O             0.0000000000        0.0000000000       13.6367838891
Ba            1.9651100000        1.8611200000       13.9723706069
Cu            0.0000000000        0.0000000000       16.8462542099
O             1.9651100000        0.0000000000       17.0310546722
O             0.0000000000        1.8611200000       17.1785847672
Ca            1.9651100000        1.8611200000       18.6231837524
O             0.0000000000        1.8611200000       20.1483600000    0   0   0
O             1.9651100000        0.0000000000       20.2854800000    0   0   0
Cu            0.0000000000        0.0000000000       20.4402800000    0   0   0
Ba            1.9651100000        1.8611200000       22.2811700000    0   0   0
O             0.0000000000        0.0000000000       22.5402800000    0   0   0
Cu            0.0000000000        0.0000000000       24.4135800000    0   0   0
O             0.0000000000        1.8611200000       24.7021300000    0   0   0


     NEW-OLD atomic charge density approx. for the potential

     negative rho (up, down):  1.703E-03 0.000E+00

     total cpu time spent up to now is      667.1 secs

     Self-consistent Calculation

     iteration #  1     ecut=    60.00 Ry     beta= 0.70
     Davidson diagonalization with overlap
     ethr =  1.00E-06,  avg # of iterations =  5.5

     negative rho (up, down):  1.556E-03 0.000E+00

     total cpu time spent up to now is      698.4 secs

     total energy              =   -1842.85342928 Ry
     Harris-Foulkes estimate   =   -1842.85336567 Ry
     estimated scf accuracy    <       0.00108749 Ry

     iteration #  2     ecut=    60.00 Ry     beta= 0.70
     Davidson diagonalization with overlap
     ethr =  4.79E-07,  avg # of iterations =  2.0

     negative rho (up, down):  1.544E-03 0.000E+00

     total cpu time spent up to now is      713.4 secs

     total energy              =   -1842.85350857 Ry
     Harris-Foulkes estimate   =   -1842.85358121 Ry
     estimated scf accuracy    <       0.00397085 Ry

     iteration #  3     ecut=    60.00 Ry     beta= 0.70
     Davidson diagonalization with overlap
     ethr =  4.79E-07,  avg # of iterations =  1.0

     negative rho (up, down):  1.544E-03 0.000E+00

     total cpu time spent up to now is      727.4 secs

     total energy              =   -1842.85351763 Ry
     Harris-Foulkes estimate   =   -1842.85354348 Ry
     estimated scf accuracy    <       0.00059638 Ry

     iteration #  4     ecut=    60.00 Ry     beta= 0.70
     Davidson diagonalization with overlap
     ethr =  2.63E-07,  avg # of iterations =  1.3

     negative rho (up, down):  1.546E-03 0.000E+00

     total cpu time spent up to now is      741.4 secs

     total energy              =   -1842.85351170 Ry
     Harris-Foulkes estimate   =   -1842.85354266 Ry
     estimated scf accuracy    <       0.00111679 Ry

     iteration #  5     ecut=    60.00 Ry     beta= 0.70
     Davidson diagonalization with overlap
     ethr =  2.63E-07,  avg # of iterations =  1.0

     negative rho (up, down):  1.548E-03 0.000E+00

     total cpu time spent up to now is      755.2 secs

     total energy              =   -1842.85351855 Ry
     Harris-Foulkes estimate   =   -1842.85352541 Ry
     estimated scf accuracy    <       0.00036868 Ry

     iteration #  6     ecut=    60.00 Ry     beta= 0.70
     Davidson diagonalization with overlap
     ethr =  1.62E-07,  avg # of iterations =  1.0

     negative rho (up, down):  1.556E-03 0.000E+00

     total cpu time spent up to now is      769.1 secs

     total energy              =   -1842.85351564 Ry
     Harris-Foulkes estimate   =   -1842.85352076 Ry
     estimated scf accuracy    <       0.00018901 Ry

     iteration #  7     ecut=    60.00 Ry     beta= 0.70
     Davidson diagonalization with overlap
     ethr =  8.33E-08,  avg # of iterations =  1.4

     negative rho (up, down):  1.560E-03 0.000E+00

     total cpu time spent up to now is      783.2 secs

     total energy              =   -1842.85351189 Ry
     Harris-Foulkes estimate   =   -1842.85351770 Ry
     estimated scf accuracy    <       0.00013512 Ry

     iteration #  8     ecut=    60.00 Ry     beta= 0.70
     Davidson diagonalization with overlap
     ethr =  5.95E-08,  avg # of iterations =  1.4

     negative rho (up, down):  1.563E-03 0.000E+00

     total cpu time spent up to now is      797.5 secs

     total energy              =   -1842.85351350 Ry
     Harris-Foulkes estimate   =   -1842.85351452 Ry
     estimated scf accuracy    <       0.00005315 Ry

     iteration #  9     ecut=    60.00 Ry     beta= 0.70
     Davidson diagonalization with overlap
     ethr =  2.34E-08,  avg # of iterations =  1.0

     negative rho (up, down):  1.563E-03 0.000E+00

     total cpu time spent up to now is      811.3 secs

     total energy              =   -1842.85351374 Ry
     Harris-Foulkes estimate   =   -1842.85351402 Ry
     estimated scf accuracy    <       0.00000883 Ry

     iteration # 10     ecut=    60.00 Ry     beta= 0.70
     Davidson diagonalization with overlap
     ethr =  3.89E-09,  avg # of iterations =  2.1

     negative rho (up, down):  1.562E-03 0.000E+00

     total cpu time spent up to now is      826.4 secs

     total energy              =   -1842.85351383 Ry
     Harris-Foulkes estimate   =   -1842.85351395 Ry
     estimated scf accuracy    <       0.00000574 Ry

     iteration # 11     ecut=    60.00 Ry     beta= 0.70
     Davidson diagonalization with overlap
     ethr =  2.53E-09,  avg # of iterations =  1.0

     negative rho (up, down):  1.560E-03 0.000E+00

     total cpu time spent up to now is      840.1 secs

     total energy              =   -1842.85351388 Ry
     Harris-Foulkes estimate   =   -1842.85351390 Ry
     estimated scf accuracy    <       0.00000105 Ry

     iteration # 12     ecut=    60.00 Ry     beta= 0.70
     Davidson diagonalization with overlap
     ethr =  4.65E-10,  avg # of iterations =  2.2

     negative rho (up, down):  1.558E-03 0.000E+00

     total cpu time spent up to now is      855.4 secs

     total energy              =   -1842.85351390 Ry
     Harris-Foulkes estimate   =   -1842.85351391 Ry
     estimated scf accuracy    <       0.00000057 Ry

     iteration # 13     ecut=    60.00 Ry     beta= 0.70
     Davidson diagonalization with overlap
     ethr =  2.51E-10,  avg # of iterations =  1.0

     negative rho (up, down):  1.557E-03 0.000E+00

     total cpu time spent up to now is      869.2 secs

     total energy              =   -1842.85351391 Ry
     Harris-Foulkes estimate   =   -1842.85351391 Ry
     estimated scf accuracy    <       0.00000043 Ry

     iteration # 14     ecut=    60.00 Ry     beta= 0.70
     Davidson diagonalization with overlap
     ethr =  1.91E-10,  avg # of iterations =  1.0

     negative rho (up, down):  1.553E-03 0.000E+00

     total cpu time spent up to now is      883.0 secs

     total energy              =   -1842.85351391 Ry
     Harris-Foulkes estimate   =   -1842.85351391 Ry
     estimated scf accuracy    <       0.00000030 Ry

     iteration # 15     ecut=    60.00 Ry     beta= 0.70
     Davidson diagonalization with overlap
     ethr =  1.32E-10,  avg # of iterations =  1.0

     negative rho (up, down):  1.550E-03 0.000E+00

     total cpu time spent up to now is      896.9 secs

     total energy              =   -1842.85351392 Ry
     Harris-Foulkes estimate   =   -1842.85351391 Ry
     estimated scf accuracy    <       0.00000008 Ry

     iteration # 16     ecut=    60.00 Ry     beta= 0.70
     Davidson diagonalization with overlap
     ethr =  3.54E-11,  avg # of iterations =  1.5

     negative rho (up, down):  1.549E-03 0.000E+00

     total cpu time spent up to now is      911.2 secs

     total energy              =   -1842.85351392 Ry
     Harris-Foulkes estimate   =   -1842.85351392 Ry
     estimated scf accuracy    <       0.00000004 Ry

     iteration # 17     ecut=    60.00 Ry     beta= 0.70
     Davidson diagonalization with overlap
     ethr =  1.74E-11,  avg # of iterations =  1.1

     negative rho (up, down):  1.547E-03 0.000E+00

     total cpu time spent up to now is      925.3 secs

     total energy              =   -1842.85351392 Ry
     Harris-Foulkes estimate   =   -1842.85351392 Ry
     estimated scf accuracy    <       0.00000003 Ry

     iteration # 18     ecut=    60.00 Ry     beta= 0.70
     Davidson diagonalization with overlap
     ethr =  1.21E-11,  avg # of iterations =  1.0

     negative rho (up, down):  1.546E-03 0.000E+00

     total cpu time spent up to now is      939.1 secs

     total energy              =   -1842.85351392 Ry
     Harris-Foulkes estimate   =   -1842.85351392 Ry
     estimated scf accuracy    <       0.00000001 Ry

     iteration # 19     ecut=    60.00 Ry     beta= 0.70
     Davidson diagonalization with overlap
     ethr =  6.47E-12,  avg # of iterations =  1.0

     negative rho (up, down):  1.545E-03 0.000E+00

     total cpu time spent up to now is      953.1 secs

     total energy              =   -1842.85351392 Ry
     Harris-Foulkes estimate   =   -1842.85351392 Ry
     estimated scf accuracy    <          6.6E-09 Ry

     iteration # 20     ecut=    60.00 Ry     beta= 0.70
     Davidson diagonalization with overlap
     ethr =  2.90E-12,  avg # of iterations =  1.4

     negative rho (up, down):  1.544E-03 0.000E+00

     total cpu time spent up to now is      967.5 secs

     total energy              =   -1842.85351393 Ry
     Harris-Foulkes estimate   =   -1842.85351392 Ry
     estimated scf accuracy    <          2.9E-09 Ry

     iteration # 21     ecut=    60.00 Ry     beta= 0.70
     Davidson diagonalization with overlap
     ethr =  1.28E-12,  avg # of iterations =  1.4

     negative rho (up, down):  1.542E-03 0.000E+00

     total cpu time spent up to now is      981.8 secs

     total energy              =   -1842.85351393 Ry
     Harris-Foulkes estimate   =   -1842.85351393 Ry
     estimated scf accuracy    <          2.9E-09 Ry

     iteration # 22     ecut=    60.00 Ry     beta= 0.70
     Davidson diagonalization with overlap
     ethr =  1.28E-12,  avg # of iterations =  1.0

     negative rho (up, down):  1.540E-03 0.000E+00

     total cpu time spent up to now is      995.6 secs

     total energy              =   -1842.85351393 Ry
     Harris-Foulkes estimate   =   -1842.85351393 Ry
     estimated scf accuracy    <          1.3E-09 Ry

     iteration # 23     ecut=    60.00 Ry     beta= 0.70
     Davidson diagonalization with overlap
     ethr =  5.88E-13,  avg # of iterations =  1.2

     negative rho (up, down):  1.538E-03 0.000E+00

     total cpu time spent up to now is     1009.6 secs

     total energy              =   -1842.85351393 Ry
     Harris-Foulkes estimate   =   -1842.85351393 Ry
     estimated scf accuracy    <          3.4E-10 Ry

     iteration # 24     ecut=    60.00 Ry     beta= 0.70
     Davidson diagonalization with overlap
     ethr =  1.48E-13,  avg # of iterations =  3.0

     negative rho (up, down):  1.537E-03 0.000E+00

     total cpu time spent up to now is     1025.8 secs

     total energy              =   -1842.85351394 Ry
     Harris-Foulkes estimate   =   -1842.85351393 Ry
     estimated scf accuracy    <          3.0E-10 Ry

     iteration # 25     ecut=    60.00 Ry     beta= 0.70
     Davidson diagonalization with overlap
     ethr =  1.31E-13,  avg # of iterations =  1.6

     negative rho (up, down):  1.536E-03 0.000E+00

     total cpu time spent up to now is     1040.1 secs

     total energy              =   -1842.85351394 Ry
     Harris-Foulkes estimate   =   -1842.85351394 Ry
     estimated scf accuracy    <          1.6E-10 Ry

     iteration # 26     ecut=    60.00 Ry     beta= 0.70
     Davidson diagonalization with overlap
     ethr =  1.00E-13,  avg # of iterations =  1.0

     negative rho (up, down):  1.536E-03 0.000E+00

     total cpu time spent up to now is     1053.7 secs

     total energy              =   -1842.85351394 Ry
     Harris-Foulkes estimate   =   -1842.85351394 Ry
     estimated scf accuracy    <          1.3E-10 Ry

     iteration # 27     ecut=    60.00 Ry     beta= 0.70
     Davidson diagonalization with overlap
     ethr =  1.00E-13,  avg # of iterations =  1.0

     negative rho (up, down):  1.535E-03 0.000E+00

     total cpu time spent up to now is     1067.1 secs

     End of self-consistent calculation

          k = 0.0000 0.0000 0.0000 ( 34661 PWs)   bands (ev):

   -35.6120 -35.4844 -23.5141 -22.8149 -22.8109 -22.5575 -17.1162 -16.9616
   -16.6631 -16.6520 -16.5468 -16.5317 -15.3268 -15.2218 -14.9373 -14.6956
   -14.6875 -14.5982 -14.4216 -14.2054 -14.2020 -14.0063 -13.9775 -13.8610
   -13.8416 -13.5917 -13.4536  -8.7516  -8.3851  -8.2762  -7.9462  -7.9398
    -7.9086  -7.9054  -7.7248  -7.7157  -7.7120  -7.6174  -7.4512  -2.3540
    -2.3537  -2.2373  -1.8534  -1.8449  -1.7932  -1.6937  -1.6549  -1.6075
    -1.5675  -1.5065  -1.4805  -1.3340  -1.2458  -1.2443  -1.2252  -0.8446
    -0.7169  -0.5800  -0.4831  -0.4823  -0.4039  -0.3999  -0.3353  -0.3196
    -0.2889  -0.2884  -0.2821  -0.2702  -0.2447  -0.2316  -0.1902  -0.1618
    -0.1560  -0.1510  -0.0622  -0.0607   0.0736   0.0751   0.0752   0.0805
     0.1227   0.1490   0.1758   0.2818   0.2995   0.3052   0.3396   0.3510
     0.5489   0.5621   0.7528   0.8580   0.8581   0.9208   0.9424   1.1577
     1.2018   1.3256   1.3290   1.3575   1.3823   1.4107   1.4803   1.4993
     1.6411   1.7588   1.8000   1.8113   1.9073   1.9107   1.9285   1.9857
     2.0145   2.0827   2.0847   2.2107   2.2192   2.5028   2.5106   5.1617
     5.1930   5.3438   5.9627   6.1111   6.5655   6.7421   6.7536   7.0965
     7.7513   7.9499   8.1016   8.2510   8.3056   8.5160   8.5835   8.7490
     9.0560

          k = 0.0000 0.1320 0.0000 ( 34589 PWs)   bands (ev):

   -35.6102 -35.4826 -23.4929 -22.7882 -22.7842 -22.5317 -17.0801 -16.9253
   -16.7245 -16.6607 -16.6035 -16.5445 -15.2379 -15.1401 -14.8833 -14.7010
   -14.6870 -14.5715 -14.3914 -14.2150 -14.2094 -14.0120 -13.9927 -13.9269
   -13.8659 -13.6161 -13.5192  -8.7421  -8.3480  -8.3194  -7.9457  -7.9398
    -7.8608  -7.8575  -7.7579  -7.7538  -7.7218  -7.5714  -7.5019  -2.4126
    -2.4101  -2.2835  -2.1818  -2.1746  -2.0681  -1.9325  -1.7767  -1.6732
    -1.6695  -1.6685  -1.6376  -1.5499  -1.3628  -1.3178  -1.3143  -1.1687
[...]

   -35.5978 -35.4701 -23.3517 -22.6095 -22.6055 -22.3573 -16.9980 -16.8742
   -16.8653 -16.7911 -16.7495 -16.6363 -14.8421 -14.8385 -14.5780 -14.4651
   -14.4477 -14.4016 -14.2400 -14.2042 -14.1516 -14.1148 -14.1071 -14.1051
   -13.9577 -13.7644 -13.6986  -8.9610  -8.6387  -8.4562  -8.3822  -8.3785
    -8.1300  -8.0090  -8.0041  -7.9026  -7.8986  -7.7582  -7.6474  -3.5229
    -3.4888  -3.4539  -3.2350  -3.0281  -2.9903  -2.9893  -2.4756  -2.4746
    -2.3301  -2.1583  -2.1554  -2.0634  -1.9535  -1.8793  -1.7978  -1.7927
    -1.6088  -1.5237  -1.4762  -1.4415  -1.3176  -1.1828  -1.1714  -0.9191
    -0.8559  -0.8476  -0.8250  -0.8173  -0.7884  -0.7396  -0.5711  -0.5028
    -0.4687  -0.3912  -0.3281   0.0406   0.1141   0.1678   0.3317   0.3855
     0.6293   0.6318   0.8146   0.9532   0.9536   0.9809   1.0542   1.2214
     1.2567   1.2619   1.2909   1.2972   1.3964   1.4294   1.4601   1.4801
     1.5352   1.5765   1.6058   1.6957   1.7225   1.7490   1.7872   1.8469
     1.8708   1.9143   1.9337   1.9907   2.1685   2.2320   2.2325   2.3632
     2.7924   2.7945   3.4763   3.5004   3.6327   3.7232   4.2030   6.1604
     6.8413   6.8420   7.2767   7.7055   7.8279   8.0361   8.4461   8.7708
     8.7842   8.9743   9.1256   9.3521   9.6600   9.7208   9.7494   9.8207
     9.8694

          k = 0.2500-0.5279 0.0000 ( 34528 PWs)   bands (ev):

   -35.5960 -35.4683 -23.3313 -22.5840 -22.5800 -22.3325 -17.0481 -16.9240
   -16.8598 -16.7515 -16.7442 -16.5968 -14.8390 -14.8345 -14.4481 -14.3875
   -14.3739 -14.3429 -14.2520 -14.2489 -14.2471 -14.0930 -14.0918 -14.0292
   -13.9860 -13.7959 -13.7232  -8.9877  -8.6131  -8.5794  -8.3824  -8.3785
    -8.1580  -8.0971  -8.0935  -7.9688  -7.9635  -7.7676  -7.7549  -3.7487
    -3.6983  -3.6887  -3.4262  -3.2296  -3.2180  -3.2088  -2.4829  -2.4823
    -2.3292  -2.1220  -2.1170  -2.0196  -2.0108  -1.9513  -1.9309  -1.8989
    -1.6999  -1.6515  -1.5120  -1.4728  -1.3855  -1.2700  -1.2617  -0.9671
    -0.9375  -0.8921  -0.8775  -0.8397  -0.8318  -0.8228  -0.5855  -0.5304
    -0.4903  -0.3930  -0.3270   0.0479   0.1434   0.2041   0.3447   0.4204
     0.6652   0.7312   0.9227   1.0080   1.0567   1.0579   1.0699   1.1701
     1.1976   1.2000   1.3377   1.4229   1.4286   1.4497   1.4776   1.5168
     1.5206   1.6351   1.6831   1.8449   1.8869   1.9353   1.9652   1.9966
     2.0107   2.0494   2.0894   2.1122   2.2946   2.4014   2.4077   2.4083
     2.5701   2.5731   3.4963   3.5255   3.6677   3.7548   4.3690   6.0075
     6.8051   6.8065   7.3086   7.6833   7.9215   8.1342   8.2814   8.9062
     9.1379   9.2315   9.4937   9.5049   9.7141   9.8477   9.9272  10.0559
    10.0772

          k = 0.3750 0.0000 0.0000 ( 34518 PWs)   bands (ev):

   -35.6057 -35.4780 -23.4328 -22.7071 -22.7030 -22.4513 -17.0471 -16.9319
   -16.9024 -16.7447 -16.6440 -16.5237 -15.1065 -15.0657 -15.0630 -14.6759
   -14.6529 -14.6247 -14.3942 -14.2404 -14.2332 -14.1764 -14.0846 -14.0490
   -13.9457 -13.7086 -13.6646  -8.7757  -8.1918  -8.1307  -7.9560  -7.9503
    -7.7977  -7.6953  -7.6920  -7.5182  -7.5143  -7.4261  -7.2603  -2.9178
    -2.9096  -2.7530  -2.5022  -2.3558  -2.3556  -2.2032  -1.6883  -1.6570
    -1.6140  -1.5632  -1.5304  -1.4121  -1.4083  -1.2678  -1.2419  -1.2405
    -1.0426  -1.0324  -0.9733  -0.9685  -0.9382  -0.9096  -0.8526  -0.7570
    -0.7561  -0.7547  -0.7082  -0.6695  -0.4651  -0.4305  -0.2983  -0.2821
    -0.2689  -0.2587  -0.1876  -0.1774   0.0408   0.0422   0.0966   0.1509
     0.1560   0.3779   0.3793   0.4017   0.4041   0.4441   0.5022   0.5417
     0.6977   0.7447   0.7790   0.8578   0.8735   1.0300   1.1596   1.1600
     1.2002   1.2630   1.3241   1.3373   1.3923   1.4295   1.4899   1.5313
     1.6352   1.7328   1.7505   1.7784   1.8928   1.9302   1.9883   2.1161
     2.1321   2.1455   2.3365   2.5486   2.5517   2.7641   2.7755   6.4780
     6.4799   6.5023   7.2938   7.6319   7.7436   7.9716   7.9753   7.9919
     8.4515   8.5214   8.6439   8.9947   9.2967   9.4154   9.4688   9.5216
     9.5682

          k = 0.3750 0.1320 0.0000 ( 34583 PWs)   bands (ev):

   -35.6039 -35.4762 -23.4148 -22.6854 -22.6813 -22.4301 -17.0385 -16.9234
   -16.8733 -16.7155 -16.7085 -16.5877 -15.0374 -15.0162 -15.0157 -14.6348
   -14.6087 -14.5644 -14.3411 -14.2123 -14.2099 -14.1531 -14.0780 -14.0365
   -13.9816 -13.7044 -13.6775  -8.7563  -8.4336  -8.1755  -8.0135  -8.0088
    -7.8587  -7.8544  -7.8264  -7.6079  -7.6041  -7.5966  -7.3594  -2.9802
    -2.9662  -2.7994  -2.5279  -2.3545  -2.3544  -2.2131  -2.0667  -2.0425
    -1.8865  -1.8137  -1.7802  -1.6428  -1.6415  -1.5018  -1.4579  -1.3483
    -1.3354  -1.3287  -1.2413  -1.1207  -1.0089  -0.8918  -0.8429  -0.8076
    -0.7549  -0.7013  -0.6039  -0.5863  -0.5653  -0.4417  -0.4336  -0.2934
    -0.2897  -0.0840  -0.0726   0.0191   0.0945   0.1036   0.1399   0.1628
     0.1716   0.3278   0.3994   0.4156   0.4209   0.6416   0.6624   0.7665
     0.7994   0.8494   0.9310   1.0030   1.0850   1.0987   1.1601   1.1873
     1.2277   1.2905   1.3346   1.3431   1.4326   1.5111   1.5161   1.5621
     1.6753   1.7198   1.7264   1.7674   1.8348   1.9336   2.0700   2.1159
     2.7160   2.7260   2.8516   2.9321   2.9477   3.1104   3.1588   6.4645
     6.6290   6.6293   7.3122   7.6815   7.7928   7.9448   8.0403   8.0420
     8.4708   8.6157   8.7123   8.8723   9.1883   9.3296   9.4411   9.4770
     9.6095

          k = 0.3750 0.2640 0.0000 ( 34595 PWs)   bands (ev):

   -35.5996 -35.4719 -23.3706 -22.6321 -22.6280 -22.3781 -17.0182 -16.9031
   -16.8528 -16.7981 -16.7300 -16.6416 -14.8996 -14.8953 -14.8364 -14.5391
   -14.5062 -14.4159 -14.2275 -14.1732 -14.1534 -14.1400 -14.0822 -14.0235
   -14.0151 -13.6969 -13.6847  -8.8596  -8.6827  -8.4299  -8.3149  -8.3112
    -8.0511  -7.9934  -7.9887  -7.8711  -7.8669  -7.7615  -7.6355  -3.2973
    -3.2594  -3.0358  -2.7490  -2.7033  -2.5261  -2.5196  -2.4064  -2.4062
    -2.3808  -2.2769  -2.2755  -2.2488  -2.1869  -1.8056  -1.7628  -1.6522
    -1.5729  -1.4573  -1.2887  -1.2581  -1.1059  -0.9683  -0.9535  -0.9025
    -0.8781  -0.8615  -0.6893  -0.6812  -0.6724  -0.6560  -0.5157  -0.4417
    -0.4211  -0.3899  -0.3440   0.0228   0.0843   0.2375   0.3762   0.4287
     0.6061   0.6293   0.6731   0.7921   0.8044   0.9810   0.9823   1.0816
     1.1469   1.1756   1.2135   1.2193   1.3770   1.3777   1.4169   1.4375
     1.4989   1.5328   1.5919   1.6167   1.6554   1.6778   1.7154   1.7277
     1.7362   1.7831   1.7929   1.8053   1.9108   2.0404   2.1387   2.1714
     2.9609   2.9637   3.6597   3.7063   3.7103   3.8325   3.9185   6.1048
     6.6743   6.6754   7.2197   7.6082   7.7465   7.9313   8.3794   8.3880
     8.7870   8.8412   9.1061   9.1480   9.3331   9.3968   9.4711   9.6640
     9.7640

          k = 0.3750 0.3960 0.0000 ( 34549 PWs)   bands (ev):

   -35.5952 -35.4676 -23.3256 -22.5774 -22.5734 -22.3249 -17.0010 -16.9795
   -16.8847 -16.8575 -16.7183 -16.5618 -14.7643 -14.7619 -14.5711 -14.4477
   -14.4139 -14.2668 -14.2525 -14.2057 -14.1066 -14.1020 -14.0836 -14.0252
   -13.9713 -13.6877 -13.6641  -9.1673  -8.7333  -8.6329  -8.5807  -8.5769
    -8.3272  -8.2457  -8.2424  -7.9960  -7.9903  -7.9295  -7.7939  -3.7763
    -3.7319  -3.4918  -3.3983  -3.2061  -2.9708  -2.9697  -2.6560  -2.6552
    -2.5061  -2.3274  -2.3039  -2.3031  -2.1924  -2.1190  -2.0696  -1.8804
    -1.7567  -1.7166  -1.3307  -1.2355  -1.2338  -1.2326  -1.2185  -0.9851
    -0.9735  -0.8933  -0.8854  -0.8325  -0.7569  -0.7200  -0.7140  -0.5983
    -0.4246  -0.4205  -0.3766   0.1134   0.2303   0.2844   0.4535   0.6057
     0.8214   0.9379   1.0216   1.1317   1.1327   1.2235   1.2571   1.3279
     1.3602   1.4462   1.4572   1.4601   1.5522   1.6023   1.6543   1.6924
     1.7181   1.7249   1.7610   1.8464   1.8565   1.8945   1.9144   1.9342
     1.9783   2.0189   2.0428   2.1066   2.1541   2.1543   2.3787   2.3876
     2.7803   2.7852   4.1401   4.2235   4.2364   4.3114   4.3963   5.6029
     6.3711   6.3719   7.0253   7.3463   7.7952   7.9011   8.6428   8.8212
     8.9584   8.9908   9.3496   9.4798   9.5029   9.5489   9.6078   9.7451
     9.8799

          k = 0.3750-0.5279 0.0000 ( 34580 PWs)   bands (ev):

   -35.5934 -35.4658 -23.3067 -22.5544 -22.5503 -22.3024 -17.0348 -16.9883
   -16.9110 -16.8735 -16.6829 -16.5267 -14.7030 -14.7012 -14.4220 -14.3846
   -14.3419 -14.3314 -14.2246 -14.2174 -14.1700 -14.0852 -14.0838 -13.9688
   -13.9622 -13.6810 -13.6517  -9.2750  -8.8674  -8.6627  -8.6588  -8.6110
    -8.4295  -8.3908  -8.3877  -8.0492  -8.0217  -8.0158  -7.8070  -3.9830
    -3.9380  -3.7345  -3.6220  -3.4082  -3.1961  -3.1949  -2.6745  -2.6736
    -2.5201  -2.3290  -2.2982  -2.2968  -2.2267  -2.1882  -2.1815  -1.9638
    -1.8566  -1.7718  -1.3984  -1.3436  -1.3332  -1.2633  -1.2595  -0.9837
    -0.9801  -0.9793  -0.9653  -0.9085  -0.8204  -0.7942  -0.7071  -0.6019
    -0.4086  -0.4069  -0.3664   0.1453   0.2684   0.2983   0.4765   0.6863
     0.8911   1.0681   1.1931   1.2442   1.2482   1.2784   1.3251   1.3295
     1.3670   1.5143   1.5669   1.6316   1.6609   1.6847   1.7185   1.7388
     1.7739   1.8428   1.8467   1.9713   1.9827   2.0188   2.0329   2.0590
     2.1201   2.1535   2.1734   2.2609   2.3426   2.3448   2.4549   2.5315
     2.5354   2.5428   4.2533   4.3671   4.3928   4.4594   4.5391   5.3903
     6.1936   6.1941   6.9327   7.2580   7.7797   7.8924   8.5682   8.7032
     9.1064   9.1297   9.3463   9.4677   9.6082   9.7615   9.8170   9.8901
     9.9780

          k =-0.5000 0.0000 0.0000 ( 34514 PWs)   bands (ev):

   -35.6046 -35.4769 -23.4185 -22.6879 -22.6839 -22.4324 -17.0995 -16.9844
   -16.8602 -16.7016 -16.6426 -16.5223 -15.1509 -15.1187 -15.1149 -14.6903
   -14.6276 -14.4114 -14.3475 -14.2590 -14.2508 -14.2227 -14.1709 -14.0869
   -13.9568 -13.7390 -13.6815  -8.7640  -8.1770  -8.1047  -7.9457  -7.9399
    -7.7876  -7.6722  -7.6691  -7.4820  -7.4781  -7.4180  -7.2254  -3.0597
    -3.0520  -2.8938  -2.6560  -2.3810  -2.3806  -2.2046  -1.6848  -1.6432
    -1.6404  -1.6013  -1.4566  -1.3992  -1.3591  -1.3150  -1.2457  -1.2444
    -1.2004  -1.1749  -1.0213  -0.9944  -0.9424  -0.9053  -0.8909  -0.8487
    -0.8387  -0.8382  -0.8075  -0.7750  -0.5265  -0.4841  -0.3033  -0.2871
    -0.2697  -0.2499  -0.2418  -0.1961   0.0355   0.0369   0.0983   0.1143
     0.1235   0.3770   0.3785   0.4030   0.4040   0.4389   0.4699   0.5053
     0.6201   0.8038   0.8410   0.8447   0.8889   1.0758   1.1093   1.1096
     1.3283   1.3378   1.3453   1.3625   1.3705   1.4454   1.5662   1.6284
     1.6294   1.6300   1.7066   1.8436   1.9272   2.0027   2.0759   2.1282
     2.1460   2.1506   2.3454   2.5313   2.5590   2.7904   2.8107   6.7093
     7.2523   7.2541   7.2641   7.3045   7.3049   7.9575   8.2409   8.5116
     8.5212   8.5960   8.9616   9.0532   9.4187   9.4305   9.5328   9.5639
     9.5983

          k =-0.5000 0.1320 0.0000 ( 34570 PWs)   bands (ev):

   -35.6028 -35.4751 -23.4010 -22.6671 -22.6631 -22.4121 -17.0903 -16.9753
   -16.8327 -16.7063 -16.6741 -16.5856 -15.0817 -15.0622 -15.0520 -14.6502
   -14.5896 -14.3709 -14.2893 -14.2217 -14.2202 -14.2007 -14.1407 -14.0601
   -13.9946 -13.7279 -13.6960  -8.7435  -8.3217  -8.2954  -7.9847  -7.9793
    -7.8076  -7.8016  -7.7985  -7.6850  -7.6809  -7.5362  -7.4415  -3.1285
    -3.1152  -2.9486  -2.6875  -2.3858  -2.3856  -2.2329  -2.0336  -2.0078
    -1.8275  -1.7995  -1.7364  -1.6376  -1.6362  -1.5411  -1.4887  -1.4522
    -1.4432  -1.3571  -1.3562  -1.1732  -1.1042  -0.8945  -0.8940  -0.8639
    -0.7293  -0.7288  -0.6678  -0.6208  -0.6050  -0.4783  -0.4721  -0.3171
    -0.3163  -0.0983  -0.0818   0.0340   0.1064   0.1158   0.1569   0.1585
     0.2070   0.2649   0.4042   0.4888   0.4899   0.5661   0.5840   0.7344
     0.7850   0.8856   0.8895   1.0385   1.0905   1.0951   1.1555   1.1969
     1.2545   1.2566   1.3892   1.4096   1.4619   1.4943   1.6044   1.6580
     1.6698   1.6975   1.7178   1.8502   1.8917   2.0569   2.1006   2.1563
     2.7235   2.7289   2.8583   2.9516   2.9678   3.1638   3.1944   6.5345
     7.1001   7.1019   7.2688   7.6072   7.6108   7.9851   8.1504   8.2390
     8.4463   8.7161   8.8591   9.2522   9.4283   9.4697   9.5438   9.5962
     9.6417

          k =-0.5000 0.2640 0.0000 ( 34584 PWs)   bands (ev):

   -35.5985 -35.4708 -23.3583 -22.6162 -22.6121 -22.3623 -17.0683 -16.9534
   -16.8495 -16.7616 -16.7269 -16.6042 -14.9195 -14.9127 -14.8553 -14.5548
   -14.5004 -14.2699 -14.1905 -14.1734 -14.1580 -14.1502 -14.0631 -14.0602
   -14.0163 -13.7009 -13.6984  -8.8124  -8.6777  -8.5791  -8.2537  -8.2495
    -8.1028  -8.0997  -8.0045  -7.9345  -7.9291  -7.8086  -7.7495  -3.4357
    -3.3979  -3.1802  -2.8919  -2.6959  -2.5514  -2.5450  -2.4194  -2.4158
    -2.3962  -2.2886  -2.2833  -2.2736  -2.1957  -1.9306  -1.8816  -1.7119
    -1.6002  -1.5473  -1.2150  -1.1697  -1.0779  -0.9941  -0.9933  -0.9276
    -0.8992  -0.8782  -0.7182  -0.7141  -0.6983  -0.6976  -0.5220  -0.4307
    -0.4193  -0.4176  -0.3694   0.0314   0.0971   0.3144   0.4111   0.4700
     0.6497   0.7083   0.7125   0.8239   0.8284   1.0658   1.0707   1.1058
     1.1470   1.1560   1.1812   1.1999   1.3563   1.4101   1.4499   1.4937
     1.5170   1.5269   1.6357   1.6733   1.6852   1.7355   1.7866   1.7911
     1.7918   1.8028   1.8820   1.8901   1.9271   2.0332   2.1035   2.2477
     2.9539   2.9572   3.6727   3.8407   3.8479   3.9644   4.0436   5.9654
     6.6702   6.6714   7.1575   7.5474   7.8111   8.0306   8.4165   8.4208
     8.8895   9.0320   9.0748   9.3448   9.4521   9.5654   9.5905   9.7289
     9.7882

          k =-0.5000 0.3960 0.0000 ( 34556 PWs)   bands (ev):

   -35.5942 -35.4665 -23.3147 -22.5640 -22.5599 -22.3113 -17.0467 -16.9787
   -16.9320 -16.8554 -16.6860 -16.5290 -14.7352 -14.7322 -14.5747 -14.4692
   -14.4261 -14.2462 -14.1961 -14.1679 -14.1031 -14.1019 -14.0559 -14.0021
   -13.9685 -13.6581 -13.6501  -9.2303  -8.8621  -8.6319  -8.6288  -8.6248
    -8.3908  -8.3877  -8.3863  -8.0623  -8.0123  -8.0065  -7.8085  -3.9068
    -3.8585  -3.5995  -3.4048  -3.3182  -2.9624  -2.9611  -2.7257  -2.7256
    -2.5709  -2.4203  -2.3208  -2.3203  -2.2192  -2.2068  -2.1713  -1.9225
    -1.8224  -1.7440  -1.2945  -1.2581  -1.2530  -1.1305  -1.1207  -1.0720
    -1.0641  -0.9123  -0.9095  -0.8102  -0.8055  -0.7255  -0.7001  -0.6819
    -0.3832  -0.3825  -0.3806   0.1285   0.2504   0.3702   0.5071   0.6977
     0.9113   1.0803   1.0980   1.2629   1.2636   1.2668   1.2776   1.3617
     1.3953   1.4860   1.5313   1.5375   1.5540   1.6722   1.6830   1.7170
     1.7445   1.7802   1.8176   1.8951   1.9371   1.9466   1.9733   1.9990
     2.0439   2.0941   2.1237   2.1340   2.1549   2.2311   2.3247   2.5141
     2.7679   2.7741   4.1434   4.4858   4.4896   4.5549   4.6334   5.3895
     6.1752   6.1764   6.8853   7.2009   7.7805   7.8855   8.5815   8.8848
     8.9030   8.9575   9.4099   9.5077   9.5853   9.6258   9.7355   9.8494
     9.8745

          k =-0.5000-0.5279 0.0000 ( 34620 PWs)   bands (ev):

   -35.5924 -35.4647 -23.2965 -22.5420 -22.5379 -22.2898 -17.0379 -17.0293
   -16.9232 -16.9056 -16.6525 -16.4959 -14.6375 -14.6373 -14.4627 -14.4108
   -14.3421 -14.2919 -14.2218 -14.1912 -14.1188 -14.0818 -14.0781 -13.9614
   -13.9280 -13.6301 -13.6206  -9.3945  -8.9800  -8.7749  -8.7709  -8.6091
    -8.5390  -8.5069  -8.5038  -8.1617  -8.0402  -8.0338  -7.8245  -4.1151
    -4.0657  -3.8083  -3.6610  -3.5185  -3.1867  -3.1854  -2.7581  -2.7581
    -2.5997  -2.4378  -2.3113  -2.3108  -2.3103  -2.2720  -2.2005  -1.9924
    -1.9141  -1.7966  -1.3731  -1.3697  -1.3578  -1.1948  -1.1858  -1.0477
    -1.0330  -1.0076  -1.0065  -0.9097  -0.8460  -0.8174  -0.7102  -0.6493
    -0.3750  -0.3546  -0.3537   0.1634   0.2901   0.3852   0.5350   0.8083
     1.0056   1.2298   1.2559   1.3250   1.3263   1.3394   1.3820   1.3846
     1.4161   1.6029   1.6255   1.7354   1.7409   1.7806   1.7878   1.8632
     1.8674   1.8833   1.9637   1.9781   2.0204   2.0469   2.0564   2.0766
     2.1743   2.2388   2.2994   2.3161   2.3191   2.4048   2.5106   2.5127
     2.5203   2.6664   4.2531   4.6868   4.6947   4.7568   4.8271   5.1559
     5.9483   5.9493   6.7684   7.0989   7.7707   7.8086   8.4114   8.9404
     9.0118   9.0300   9.0757   9.2436   9.5527   9.5613   9.8532   9.9282
    10.0899

     the Fermi energy is     2.5434 ev

!    total energy              =   -1842.85351394 Ry
     Harris-Foulkes estimate   =   -1842.85351394 Ry
     estimated scf accuracy    <          2.2E-11 Ry

     The total energy is the sum of the following terms:

     one-electron contribution =  -29035.81897645 Ry
     hartree contribution      =   14670.67175156 Ry
     xc contribution           =    -621.59747559 Ry
     ewald contribution        =   13143.89891313 Ry
     smearing contrib. (-TS)   =      -0.00772659 Ry

     convergence has been achieved in  27 iterations

     negative rho (up, down):  1.535E-03 0.000E+00

     Forces acting on atoms (cartesian axes, Ry/au):

     atom    1 type  4   force =     0.00000000    0.00000000   -0.00018959
     atom    2 type  3   force =     0.00000000    0.00000000    0.00043159
     atom    3 type  4   force =     0.00000000    0.00000000   -0.00079699
     atom    4 type  1   force =     0.00000000    0.00000000   -0.00027147
     atom    5 type  3   force =     0.00000000    0.00000000    0.00057553
     atom    6 type  4   force =     0.00000000    0.00000000    0.00003106
     atom    7 type  4   force =     0.00000000    0.00000000    0.00026750
     atom    8 type  2   force =     0.00000000    0.00000000   -0.00060581
     atom    9 type  4   force =     0.00000000    0.00000000    0.00009412
     atom   10 type  4   force =     0.00000000    0.00000000    0.00037489
     atom   11 type  3   force =     0.00000000    0.00000000   -0.00105817
     atom   12 type  1   force =     0.00000000    0.00000000   -0.00299333
     atom   13 type  4   force =     0.00000000    0.00000000   -0.02348732
     atom   14 type  4   force =     0.00000000    0.00000000    0.01426534
     atom   15 type  3   force =     0.00000000    0.00000000    0.03975747
     atom   16 type  4   force =     0.00000000    0.00000000   -0.00757825
     atom   17 type  1   force =     0.00000000    0.00000000    0.00706697
     atom   18 type  3   force =     0.00000000    0.00000000   -0.00361767
     atom   19 type  4   force =     0.00000000    0.00000000   -0.00449416
     atom   20 type  4   force =     0.00000000    0.00000000   -0.00498788
     atom   21 type  2   force =     0.00000000    0.00000000   -0.01414625
     atom   22 type  4   force =     0.00000000    0.00000000   -0.00003338
     atom   23 type  4   force =     0.00000000    0.00000000    0.00112804
     atom   24 type  3   force =     0.00000000    0.00000000   -0.00030685
     atom   25 type  1   force =     0.00000000    0.00000000   -0.00015074
     atom   26 type  4   force =     0.00000000    0.00000000    0.00106613
     atom   27 type  3   force =     0.00000000    0.00000000   -0.00062955
     atom   28 type  4   force =     0.00000000    0.00000000    0.00028877

     Total force =     0.046366     Total SCF correction =     0.000012


     Computing stress (Cartesian axis) and pressure


     negative rho (up, down):  1.535E-03 0.000E+00
          total   stress  (Ry/bohr**3)                   (kbar)     P=       -7.42
  -0.00007019   0.00000000   0.00000000          -10.33        0.00        0.00
   0.00000000  -0.00003803   0.00000000            0.00       -5.59        0.00
   0.00000000   0.00000000  -0.00004312            0.00        0.00       -6.34


     number of scf cycles    =   3
     number of bfgs steps    =   2

     energy   old            =   -1842.8646085796 Ry
     energy   new            =   -1842.8535139380 Ry

     CASE: energy  _new > energy  _old


 %%%%%%%%%%%%%%%%%%%%%%%%%%%%%%%%%%%%%%%%%%%%%%%%%%%%%%%%%%%%%%%%%%%%%%%%%%%%%%
     Error in routine bfgs (1):
     dE0s is positive which should never happen
 %%%%%%%%%%%%%%%%%%%%%%%%%%%%%%%%%%%%%%%%%%%%%%%%%%%%%%%%%%%%%%%%%%%%%%%%%%%%%%

     stopping ...
