
     Program PWSCF v.6.5 starts on  9Jul2021 at 18:56:26 

     This program is part of the open-source Quantum ESPRESSO suite
     for quantum simulation of materials; please cite
         "P. Giannozzi et al., J. Phys.:Condens. Matter 21 395502 (2009);
         "P. Giannozzi et al., J. Phys.:Condens. Matter 29 465901 (2017);
          URL http://www.quantum-espresso.org", 
     in publications or presentations arising from this work. More details at
     http://www.quantum-espresso.org/quote

     Parallel version (MPI), running on    20 processors

     MPI processes distributed on     2 nodes
     R & G space division:  proc/nbgrp/npool/nimage =      20
     Reading input from CBCO_Y_cleave_0.75_sep.pwi
Warning: card &CELL ignored
Warning: card     CELL_DYNAMICS = 'BFGS' ignored
Warning: card     PRESS_CONV_THR = 0.5 ignored
Warning: card / ignored

     Current dimensions of program PWSCF are:
     Max number of different atomic species (ntypx) = 10
     Max number of k-points (npk) =  40000
     Max angular momentum in pseudopotentials (lmaxx) =  3

     Subspace diagonalization in iterative solution of the eigenvalue problem:
     one sub-group per band group will be used
     scalapack distributed-memory algorithm (size of sub-group:  4*  4 procs)

     Message from routine setup:
     using ibrav=0 with symmetry is DISCOURAGED, use correct ibrav instead
 
     Parallelization info
     --------------------
     sticks:   dense  smooth     PW     G-vecs:    dense   smooth      PW
     Min         149      50     14                71365    13742    2148
     Max         150      51     15                71404    13765    2191
     Sum        2991    1007    289              1427725   274999   43215
 


     bravais-lattice index     =            0
     lattice parameter (alat)  =       7.4270  a.u.
     unit-cell volume          =    4376.3515 (a.u.)^3
     number of atoms/cell      =           28
     number of atomic types    =            4
     number of electrons       =       227.00
     number of Kohn-Sham states=          137
     kinetic-energy cutoff     =      60.0000  Ry
     charge density cutoff     =     720.0000  Ry
     convergence threshold     =      1.0E-10
     mixing beta               =       0.7000
     number of iterations used =           10  local-TF  mixing
     Exchange-correlation= SLA PW PBE PBE
                           (   1   4   3   4   0   0   0)
     nstep                     =          300


     celldm(1)=   7.427040  celldm(2)=   0.000000  celldm(3)=   0.000000
     celldm(4)=   0.000000  celldm(5)=   0.000000  celldm(6)=   0.000000

     crystal axes: (cart. coord. in units of alat)
               a(1) = (   1.000000   0.000000   0.000000 )  
               a(2) = (   0.000000   0.947081   0.000000 )  
               a(3) = (   0.000000   0.000000  11.279186 )  

     reciprocal axes: (cart. coord. in units 2 pi/alat)
               b(1) = (  1.000000  0.000000  0.000000 )  
               b(2) = (  0.000000  1.055876  0.000000 )  
               b(3) = (  0.000000  0.000000  0.088659 )  


     PseudoPot. # 1 for Ba read from file:
     ./pseudo/Ba.pbe-nsp-van.UPF
     MD5 check sum: 2b9c31dd849566dd297d80989662b7a0
     Pseudo is Ultrasoft + core correction, Zval = 10.0
     Generated by new atomic code, or converted to UPF format
     Using radial grid of  907 points,  6 beta functions with: 
                l(1) =   0
                l(2) =   0
                l(3) =   1
                l(4) =   1
                l(5) =   2
                l(6) =   2
     Q(r) pseudized with  6 coefficients,  rinner =    1.200   1.200   1.200
                                                       1.200   1.200

     PseudoPot. # 2 for Ca read from file:
     ./pseudo/Ca.pbe-nsp-van.UPF
     MD5 check sum: 6471098428ff4fa451746d08035ff179
     Pseudo is Ultrasoft + core correction, Zval = 10.0
     Generated by new atomic code, or converted to UPF format
     Using radial grid of  845 points,  6 beta functions with: 
                l(1) =   0
                l(2) =   0
                l(3) =   1
                l(4) =   1
                l(5) =   2
                l(6) =   2
     Q(r) pseudized with  6 coefficients,  rinner =    1.200   1.200   1.200
                                                       1.200   1.200

     PseudoPot. # 3 for Cu read from file:
     ./pseudo/Cu.pbe-n-van_ak.UPF
     MD5 check sum: 34e3282627ffb533726feb647e090d62
     Pseudo is Ultrasoft + core correction, Zval = 11.0
     Generated by new atomic code, or converted to UPF format
     Using radial grid of  867 points,  6 beta functions with: 
                l(1) =   0
                l(2) =   0
                l(3) =   1
                l(4) =   1
                l(5) =   2
                l(6) =   2
     Q(r) pseudized with  8 coefficients,  rinner =    1.400   1.400   1.400
                                                       1.400   1.400

     PseudoPot. # 4 for O  read from file:
     ./pseudo/O.pbe-van_ak.UPF
     MD5 check sum: 783ce7fe4c79b6a4916957118fed0856
     Pseudo is Ultrasoft, Zval =  6.0
     Generated by new atomic code, or converted to UPF format
     Using radial grid of  737 points,  4 beta functions with: 
                l(1) =   0
                l(2) =   0
                l(3) =   1
                l(4) =   1
     Q(r) pseudized with  8 coefficients,  rinner =    0.800   0.800   0.800


     atomic species   valence    mass     pseudopotential
        Ba            10.00   137.32700     Ba( 1.00)
        Ca            10.00    40.07800     Ca( 1.00)
        Cu            11.00    63.54600     Cu( 1.00)
        O              6.00    15.99900     O ( 1.00)

      4 Sym. Ops. (no inversion) found



   Cartesian axes

     site n.     atom                  positions (alat units)
         1           O   tau(   1) = (   0.0000000   0.4735409  -0.0469745  )
         2           Cu  tau(   2) = (   0.0000000   0.0000000   0.0264565  )
         3           O   tau(   3) = (   0.0000000   0.0000000   0.5030914  )
         4           Ba  tau(   4) = (   0.5000000   0.4735409   0.5690292  )
         5           Cu  tau(   5) = (   0.0000000   0.0000000   1.0374254  )
         6           O   tau(   6) = (   0.5000000   0.0000000   1.0768099  )
         7           O   tau(   7) = (   0.0000000   0.4735409   1.1116985  )
         8           Ca  tau(   8) = (   0.5000000   0.4735409   1.4976260  )
         9           O   tau(   9) = (   0.0000000   0.4735409   1.8667529  )
        10           O   tau(  10) = (   0.5000000   0.0000000   1.9044124  )
        11           Cu  tau(  11) = (   0.0000000   0.0000000   1.9512546  )
        12           Ba  tau(  12) = (   0.5000000   0.4735409   2.4295764  )
        13           O   tau(  13) = (   0.0000000   0.0000000   2.5115362  )
        14           O   tau(  14) = (   0.0000000   0.4735409   2.9918528  )
        15           Cu  tau(  15) = (   0.0000000   0.0000000   2.9919088  )
        16           O   tau(  16) = (   0.0000000   0.0000000   3.4722686  )
        17           Ba  tau(  17) = (   0.5000000   0.4735409   3.5542208  )
        18           Cu  tau(  18) = (   0.0000000   0.0000000   4.1239934  )
        19           O   tau(  19) = (   0.5000000   0.0000000   4.1756535  )
        20           O   tau(  20) = (   0.0000000   0.4735409   4.2130956  )
        21           Ca  tau(  21) = (   0.5000000   0.4735409   4.5876750  )
        22           O   tau(  22) = (   0.0000000   0.4735409   4.9909677  )
        23           O   tau(  23) = (   0.5000000   0.0000000   5.0263616  )
        24           Cu  tau(  24) = (   0.0000000   0.0000000   5.0668083  )
        25           Ba  tau(  25) = (   0.5000000   0.4735409   5.5409211  )
        26           O   tau(  26) = (   0.0000000   0.0000000   5.6076001  )
        27           Cu  tau(  27) = (   0.0000000   0.0000000   6.1481493  )
        28           O   tau(  28) = (   0.0000000   0.4735409   6.2215676  )

     number of k points=    25  Gaussian smearing, width (Ry)=  0.0100
                       cart. coord. in units 2pi/alat
        k(    1) = (   0.0000000   0.0000000   0.0000000), wk =   0.0312500
        k(    2) = (   0.0000000   0.1319845   0.0000000), wk =   0.0625000
        k(    3) = (   0.0000000   0.2639689   0.0000000), wk =   0.0625000
        k(    4) = (   0.0000000   0.3959534   0.0000000), wk =   0.0625000
        k(    5) = (   0.0000000  -0.5279378   0.0000000), wk =   0.0312500
        k(    6) = (   0.1250000   0.0000000   0.0000000), wk =   0.0625000
        k(    7) = (   0.1250000   0.1319845   0.0000000), wk =   0.1250000
        k(    8) = (   0.1250000   0.2639689   0.0000000), wk =   0.1250000
        k(    9) = (   0.1250000   0.3959534   0.0000000), wk =   0.1250000
        k(   10) = (   0.1250000  -0.5279378   0.0000000), wk =   0.0625000
        k(   11) = (   0.2500000   0.0000000   0.0000000), wk =   0.0625000
        k(   12) = (   0.2500000   0.1319845   0.0000000), wk =   0.1250000
        k(   13) = (   0.2500000   0.2639689   0.0000000), wk =   0.1250000
        k(   14) = (   0.2500000   0.3959534   0.0000000), wk =   0.1250000
        k(   15) = (   0.2500000  -0.5279378   0.0000000), wk =   0.0625000
        k(   16) = (   0.3750000   0.0000000   0.0000000), wk =   0.0625000
        k(   17) = (   0.3750000   0.1319845   0.0000000), wk =   0.1250000
        k(   18) = (   0.3750000   0.2639689   0.0000000), wk =   0.1250000
        k(   19) = (   0.3750000   0.3959534   0.0000000), wk =   0.1250000
        k(   20) = (   0.3750000  -0.5279378   0.0000000), wk =   0.0625000
        k(   21) = (  -0.5000000   0.0000000   0.0000000), wk =   0.0312500
        k(   22) = (  -0.5000000   0.1319845   0.0000000), wk =   0.0625000
        k(   23) = (  -0.5000000   0.2639689   0.0000000), wk =   0.0625000
        k(   24) = (  -0.5000000   0.3959534   0.0000000), wk =   0.0625000
        k(   25) = (  -0.5000000  -0.5279378   0.0000000), wk =   0.0312500

     Dense  grid:  1427725 G-vectors     FFT dimensions: (  64,  64, 720)

     Smooth grid:   274999 G-vectors     FFT dimensions: (  40,  36, 432)

     Estimated max dynamical RAM per process >     455.52 MB

     Estimated total dynamical RAM >       8.90 GB

     Initial potential from superposition of free atoms

     starting charge  226.84630, renormalised to  227.00000

     negative rho (up, down):  3.397E-03 0.000E+00
     Starting wfcs are  195 randomized atomic wfcs

     total cpu time spent up to now is       14.6 secs

     Self-consistent Calculation

     iteration #  1     ecut=    60.00 Ry     beta= 0.70
     Davidson diagonalization with overlap
     ethr =  1.00E-02,  avg # of iterations =  2.0

     negative rho (up, down):  2.831E-04 0.000E+00

     total cpu time spent up to now is       30.3 secs

     total energy              =   -1839.20883699 Ry
     Harris-Foulkes estimate   =   -1845.32934975 Ry
     estimated scf accuracy    <      22.08437878 Ry

     iteration #  2     ecut=    60.00 Ry     beta= 0.70
     Davidson diagonalization with overlap
     ethr =  9.73E-03,  avg # of iterations =  2.0

     negative rho (up, down):  2.556E-04 0.000E+00

     total cpu time spent up to now is       45.6 secs

     total energy              =   -1842.11786530 Ry
     Harris-Foulkes estimate   =   -1844.02693285 Ry
     estimated scf accuracy    <      12.97383193 Ry

     iteration #  3     ecut=    60.00 Ry     beta= 0.70
     Davidson diagonalization with overlap
     ethr =  5.72E-03,  avg # of iterations =  2.0

     negative rho (up, down):  2.471E-04 0.000E+00

     total cpu time spent up to now is       60.1 secs

     total energy              =   -1842.71101309 Ry
     Harris-Foulkes estimate   =   -1843.10500147 Ry
     estimated scf accuracy    <       4.62863320 Ry

     iteration #  4     ecut=    60.00 Ry     beta= 0.70
     Davidson diagonalization with overlap
     ethr =  2.04E-03,  avg # of iterations =  1.0

     negative rho (up, down):  2.421E-04 0.000E+00

     total cpu time spent up to now is       73.6 secs

     total energy              =   -1842.87265609 Ry
     Harris-Foulkes estimate   =   -1842.97554662 Ry
     estimated scf accuracy    <       6.30828026 Ry

     iteration #  5     ecut=    60.00 Ry     beta= 0.70
     Davidson diagonalization with overlap
     ethr =  2.04E-03,  avg # of iterations =  1.0

     negative rho (up, down):  2.379E-04 0.000E+00

     total cpu time spent up to now is       86.8 secs

     total energy              =   -1842.88325941 Ry
     Harris-Foulkes estimate   =   -1842.92221093 Ry
     estimated scf accuracy    <       1.76383904 Ry

     iteration #  6     ecut=    60.00 Ry     beta= 0.70
     Davidson diagonalization with overlap
     ethr =  7.77E-04,  avg # of iterations =  1.0

     negative rho (up, down):  2.357E-04 0.000E+00

     total cpu time spent up to now is      100.3 secs

     total energy              =   -1842.88061895 Ry
     Harris-Foulkes estimate   =   -1842.90718303 Ry
     estimated scf accuracy    <       2.02515459 Ry

     iteration #  7     ecut=    60.00 Ry     beta= 0.70
     Davidson diagonalization with overlap
     ethr =  7.77E-04,  avg # of iterations =  1.0

     negative rho (up, down):  2.344E-04 0.000E+00

     total cpu time spent up to now is      113.8 secs

     total energy              =   -1842.88180020 Ry
     Harris-Foulkes estimate   =   -1842.90104628 Ry
     estimated scf accuracy    <       1.05355701 Ry

     iteration #  8     ecut=    60.00 Ry     beta= 0.70
     Davidson diagonalization with overlap
     ethr =  4.64E-04,  avg # of iterations =  1.0

     negative rho (up, down):  2.338E-04 0.000E+00

     total cpu time spent up to now is      127.3 secs

     total energy              =   -1842.88171515 Ry
     Harris-Foulkes estimate   =   -1842.89035250 Ry
     estimated scf accuracy    <       0.47137525 Ry

     iteration #  9     ecut=    60.00 Ry     beta= 0.70
     Davidson diagonalization with overlap
     ethr =  2.08E-04,  avg # of iterations =  2.9

     negative rho (up, down):  2.342E-04 0.000E+00

     total cpu time spent up to now is      142.5 secs

     total energy              =   -1842.88155629 Ry
     Harris-Foulkes estimate   =   -1842.88580340 Ry
     estimated scf accuracy    <       0.12530288 Ry

     iteration # 10     ecut=    60.00 Ry     beta= 0.70
     Davidson diagonalization with overlap
     ethr =  5.52E-05,  avg # of iterations =  8.9

     negative rho (up, down):  2.347E-04 0.000E+00

     total cpu time spent up to now is      164.2 secs

     total energy              =   -1842.88027373 Ry
     Harris-Foulkes estimate   =   -1842.88325212 Ry
     estimated scf accuracy    <       0.14376387 Ry

     iteration # 11     ecut=    60.00 Ry     beta= 0.70
     Davidson diagonalization with overlap
     ethr =  5.52E-05,  avg # of iterations =  1.5

     negative rho (up, down):  2.353E-04 0.000E+00

     total cpu time spent up to now is      178.2 secs

     total energy              =   -1842.87850299 Ry
     Harris-Foulkes estimate   =   -1842.88134206 Ry
     estimated scf accuracy    <       0.13101477 Ry

     iteration # 12     ecut=    60.00 Ry     beta= 0.70
     Davidson diagonalization with overlap
     ethr =  5.52E-05,  avg # of iterations =  1.4

     negative rho (up, down):  2.564E-03 0.000E+00

     total cpu time spent up to now is      191.9 secs

     total energy              =   -1842.87691162 Ry
     Harris-Foulkes estimate   =   -1842.87918938 Ry
     estimated scf accuracy    <       0.04961563 Ry

     iteration # 13     ecut=    60.00 Ry     beta= 0.70
     Davidson diagonalization with overlap
     ethr =  2.19E-05,  avg # of iterations =  5.2

     negative rho (up, down):  3.317E-03 0.000E+00

     total cpu time spent up to now is      209.6 secs

     total energy              =   -1842.87679044 Ry
     Harris-Foulkes estimate   =   -1842.87741416 Ry
     estimated scf accuracy    <       0.02154908 Ry

     iteration # 14     ecut=    60.00 Ry     beta= 0.70
     Davidson diagonalization with overlap
     ethr =  9.49E-06,  avg # of iterations =  6.8

     negative rho (up, down):  8.453E-03 0.000E+00

     total cpu time spent up to now is      228.7 secs

     total energy              =   -1842.87577562 Ry
     Harris-Foulkes estimate   =   -1842.87691105 Ry
     estimated scf accuracy    <       0.01223051 Ry

     iteration # 15     ecut=    60.00 Ry     beta= 0.70
     Davidson diagonalization with overlap
     ethr =  5.39E-06,  avg # of iterations =  6.6

     negative rho (up, down):  1.483E-02 0.000E+00

     total cpu time spent up to now is      248.2 secs

     total energy              =   -1842.87487159 Ry
     Harris-Foulkes estimate   =   -1842.87598051 Ry
     estimated scf accuracy    <       0.01936901 Ry

     iteration # 16     ecut=    60.00 Ry     beta= 0.70
     Davidson diagonalization with overlap
     ethr =  5.39E-06,  avg # of iterations =  6.4

     negative rho (up, down):  1.285E-02 0.000E+00

     total cpu time spent up to now is      267.3 secs

     total energy              =   -1842.87437356 Ry
     Harris-Foulkes estimate   =   -1842.87508829 Ry
     estimated scf accuracy    <       0.01547362 Ry

     iteration # 17     ecut=    60.00 Ry     beta= 0.70
     Davidson diagonalization with overlap
     ethr =  5.39E-06,  avg # of iterations =  2.6

     negative rho (up, down):  2.062E-03 0.000E+00

     total cpu time spent up to now is      282.4 secs

     total energy              =   -1842.87430929 Ry
     Harris-Foulkes estimate   =   -1842.87462301 Ry
     estimated scf accuracy    <       0.01731629 Ry

     iteration # 18     ecut=    60.00 Ry     beta= 0.70
     Davidson diagonalization with overlap
     c_bands:  1 eigenvalues not converged
     c_bands:  1 eigenvalues not converged
     ethr =  5.39E-06,  avg # of iterations =  7.0

     negative rho (up, down):  1.661E-02 0.000E+00

     total cpu time spent up to now is      302.1 secs

     total energy              =   -1842.87342095 Ry
     Harris-Foulkes estimate   =   -1842.87452729 Ry
     estimated scf accuracy    <       0.00672585 Ry

     iteration # 19     ecut=    60.00 Ry     beta= 0.70
     Davidson diagonalization with overlap
     c_bands:  1 eigenvalues not converged
     ethr =  2.96E-06,  avg # of iterations =  9.3

     negative rho (up, down):  8.653E-03 0.000E+00

     total cpu time spent up to now is      325.7 secs

     total energy              =   -1842.87343458 Ry
     Harris-Foulkes estimate   =   -1842.87371439 Ry
     estimated scf accuracy    <       0.00152181 Ry

     iteration # 20     ecut=    60.00 Ry     beta= 0.70
     Davidson diagonalization with overlap
     c_bands:  1 eigenvalues not converged
     ethr =  6.70E-07,  avg # of iterations =  6.6

     negative rho (up, down):  7.637E-03 0.000E+00

     total cpu time spent up to now is      345.3 secs

     total energy              =   -1842.87345470 Ry
     Harris-Foulkes estimate   =   -1842.87348362 Ry
     estimated scf accuracy    <       0.00074721 Ry

     iteration # 21     ecut=    60.00 Ry     beta= 0.70
     Davidson diagonalization with overlap
     ethr =  3.29E-07,  avg # of iterations =  1.4

     negative rho (up, down):  1.888E-03 0.000E+00

     total cpu time spent up to now is      359.1 secs

     total energy              =   -1842.87342318 Ry
     Harris-Foulkes estimate   =   -1842.87347844 Ry
     estimated scf accuracy    <       0.00015914 Ry

     iteration # 22     ecut=    60.00 Ry     beta= 0.70
     Davidson diagonalization with overlap
     c_bands:  1 eigenvalues not converged
     c_bands:  1 eigenvalues not converged
     ethr =  7.01E-08,  avg # of iterations =  9.6

     negative rho (up, down):  1.285E-03 0.000E+00

     total cpu time spent up to now is      382.1 secs

     total energy              =   -1842.87344972 Ry
     Harris-Foulkes estimate   =   -1842.87342910 Ry
     estimated scf accuracy    <       0.00005034 Ry

     iteration # 23     ecut=    60.00 Ry     beta= 0.70
     Davidson diagonalization with overlap
     ethr =  2.22E-08,  avg # of iterations =  4.7

     negative rho (up, down):  1.294E-03 0.000E+00

     total cpu time spent up to now is      399.4 secs

     total energy              =   -1842.87345277 Ry
     Harris-Foulkes estimate   =   -1842.87345155 Ry
     estimated scf accuracy    <       0.00003367 Ry

     iteration # 24     ecut=    60.00 Ry     beta= 0.70
     Davidson diagonalization with overlap
     ethr =  1.48E-08,  avg # of iterations =  1.5

     negative rho (up, down):  1.277E-03 0.000E+00

     total cpu time spent up to now is      413.2 secs

     total energy              =   -1842.87345334 Ry
     Harris-Foulkes estimate   =   -1842.87345370 Ry
     estimated scf accuracy    <       0.00002108 Ry

     iteration # 25     ecut=    60.00 Ry     beta= 0.70
     Davidson diagonalization with overlap
     ethr =  9.29E-09,  avg # of iterations =  1.0

     negative rho (up, down):  1.312E-03 0.000E+00

     total cpu time spent up to now is      426.8 secs

     total energy              =   -1842.87345322 Ry
     Harris-Foulkes estimate   =   -1842.87345356 Ry
     estimated scf accuracy    <       0.00001154 Ry

     iteration # 26     ecut=    60.00 Ry     beta= 0.70
     Davidson diagonalization with overlap
     ethr =  5.08E-09,  avg # of iterations =  1.2

     negative rho (up, down):  1.460E-03 0.000E+00

     total cpu time spent up to now is      440.4 secs

     total energy              =   -1842.87345303 Ry
     Harris-Foulkes estimate   =   -1842.87345354 Ry
     estimated scf accuracy    <       0.00000219 Ry

     iteration # 27     ecut=    60.00 Ry     beta= 0.70
     Davidson diagonalization with overlap
     ethr =  9.63E-10,  avg # of iterations =  2.6

     negative rho (up, down):  1.467E-03 0.000E+00

     total cpu time spent up to now is      455.5 secs

     total energy              =   -1842.87345317 Ry
     Harris-Foulkes estimate   =   -1842.87345321 Ry
     estimated scf accuracy    <       0.00000045 Ry

     iteration # 28     ecut=    60.00 Ry     beta= 0.70
     Davidson diagonalization with overlap
     ethr =  1.97E-10,  avg # of iterations =  3.6

     negative rho (up, down):  1.424E-03 0.000E+00

     total cpu time spent up to now is      471.9 secs

     total energy              =   -1842.87345326 Ry
     Harris-Foulkes estimate   =   -1842.87345322 Ry
     estimated scf accuracy    <       0.00000044 Ry

     iteration # 29     ecut=    60.00 Ry     beta= 0.70
     Davidson diagonalization with overlap
     ethr =  1.93E-10,  avg # of iterations =  1.0

     negative rho (up, down):  1.485E-03 0.000E+00

     total cpu time spent up to now is      485.4 secs

     total energy              =   -1842.87345317 Ry
     Harris-Foulkes estimate   =   -1842.87345328 Ry
     estimated scf accuracy    <       0.00000023 Ry

     iteration # 30     ecut=    60.00 Ry     beta= 0.70
     Davidson diagonalization with overlap
     ethr =  9.95E-11,  avg # of iterations =  1.1

     negative rho (up, down):  1.471E-03 0.000E+00

     total cpu time spent up to now is      498.8 secs

     total energy              =   -1842.87345320 Ry
     Harris-Foulkes estimate   =   -1842.87345319 Ry
     estimated scf accuracy    <       0.00000006 Ry

     iteration # 31     ecut=    60.00 Ry     beta= 0.70
     Davidson diagonalization with overlap
     ethr =  2.64E-11,  avg # of iterations =  1.7

     negative rho (up, down):  1.475E-03 0.000E+00

     total cpu time spent up to now is      513.0 secs

     total energy              =   -1842.87345320 Ry
     Harris-Foulkes estimate   =   -1842.87345320 Ry
     estimated scf accuracy    <       0.00000001 Ry

     iteration # 32     ecut=    60.00 Ry     beta= 0.70
     Davidson diagonalization with overlap
     ethr =  5.13E-12,  avg # of iterations =  3.0

     negative rho (up, down):  1.472E-03 0.000E+00

     total cpu time spent up to now is      529.5 secs

     total energy              =   -1842.87345320 Ry
     Harris-Foulkes estimate   =   -1842.87345320 Ry
     estimated scf accuracy    <          3.2E-09 Ry

     iteration # 33     ecut=    60.00 Ry     beta= 0.70
     Davidson diagonalization with overlap
     ethr =  1.41E-12,  avg # of iterations =  2.5

     negative rho (up, down):  1.471E-03 0.000E+00

     total cpu time spent up to now is      545.4 secs

     total energy              =   -1842.87345320 Ry
     Harris-Foulkes estimate   =   -1842.87345320 Ry
     estimated scf accuracy    <          2.7E-09 Ry

     iteration # 34     ecut=    60.00 Ry     beta= 0.70
     Davidson diagonalization with overlap
     ethr =  1.19E-12,  avg # of iterations =  1.0

     negative rho (up, down):  1.473E-03 0.000E+00

     total cpu time spent up to now is      558.8 secs

     total energy              =   -1842.87345320 Ry
     Harris-Foulkes estimate   =   -1842.87345320 Ry
     estimated scf accuracy    <          1.9E-09 Ry

     iteration # 35     ecut=    60.00 Ry     beta= 0.70
     Davidson diagonalization with overlap
     ethr =  8.50E-13,  avg # of iterations =  1.0

     negative rho (up, down):  1.473E-03 0.000E+00

     total cpu time spent up to now is      572.4 secs

     total energy              =   -1842.87345320 Ry
     Harris-Foulkes estimate   =   -1842.87345320 Ry
     estimated scf accuracy    <          1.9E-09 Ry

     iteration # 36     ecut=    60.00 Ry     beta= 0.70
     Davidson diagonalization with overlap
     ethr =  8.37E-13,  avg # of iterations =  1.0

     negative rho (up, down):  1.473E-03 0.000E+00

     total cpu time spent up to now is      586.3 secs

     total energy              =   -1842.87345320 Ry
     Harris-Foulkes estimate   =   -1842.87345320 Ry
     estimated scf accuracy    <          2.6E-09 Ry

     iteration # 37     ecut=    60.00 Ry     beta= 0.70
     Davidson diagonalization with overlap
     ethr =  8.37E-13,  avg # of iterations =  1.0

     negative rho (up, down):  1.475E-03 0.000E+00

     total cpu time spent up to now is      599.9 secs

     total energy              =   -1842.87345320 Ry
     Harris-Foulkes estimate   =   -1842.87345320 Ry
     estimated scf accuracy    <          1.0E-09 Ry

     iteration # 38     ecut=    60.00 Ry     beta= 0.70
     Davidson diagonalization with overlap
     ethr =  4.39E-13,  avg # of iterations =  1.2

     negative rho (up, down):  1.476E-03 0.000E+00

     total cpu time spent up to now is      613.6 secs

     total energy              =   -1842.87345320 Ry
     Harris-Foulkes estimate   =   -1842.87345320 Ry
     estimated scf accuracy    <          6.8E-10 Ry

     iteration # 39     ecut=    60.00 Ry     beta= 0.70
     Davidson diagonalization with overlap
     ethr =  2.97E-13,  avg # of iterations =  1.0

     negative rho (up, down):  1.478E-03 0.000E+00

     total cpu time spent up to now is      627.2 secs

     total energy              =   -1842.87345319 Ry
     Harris-Foulkes estimate   =   -1842.87345320 Ry
     estimated scf accuracy    <          1.3E-10 Ry

     iteration # 40     ecut=    60.00 Ry     beta= 0.70
     Davidson diagonalization with overlap
     ethr =  1.00E-13,  avg # of iterations =  1.2

     negative rho (up, down):  1.479E-03 0.000E+00

     total cpu time spent up to now is      640.8 secs

     total energy              =   -1842.87345319 Ry
     Harris-Foulkes estimate   =   -1842.87345319 Ry
     estimated scf accuracy    <          1.9E-10 Ry

     iteration # 41     ecut=    60.00 Ry     beta= 0.70
     Davidson diagonalization with overlap
     ethr =  1.00E-13,  avg # of iterations =  1.0

     negative rho (up, down):  1.479E-03 0.000E+00

     total cpu time spent up to now is      654.4 secs

     total energy              =   -1842.87345319 Ry
     Harris-Foulkes estimate   =   -1842.87345319 Ry
     estimated scf accuracy    <          1.1E-10 Ry

     iteration # 42     ecut=    60.00 Ry     beta= 0.70
     Davidson diagonalization with overlap
     ethr =  1.00E-13,  avg # of iterations =  1.0

     negative rho (up, down):  1.480E-03 0.000E+00

     total cpu time spent up to now is      667.4 secs

     End of self-consistent calculation

          k = 0.0000 0.0000 0.0000 ( 34429 PWs)   bands (ev):

   -35.7666 -35.6481 -22.9915 -22.8528 -22.7507 -22.5981 -17.1526 -17.1471
   -16.8126 -16.8042 -16.6992 -16.6880 -15.3632 -15.2595 -14.9184 -14.7332
   -14.6336 -14.6014 -14.4045 -14.2430 -14.0436 -13.9639 -13.8858 -13.8332
   -13.7642 -13.7338 -13.5729  -8.2141  -7.9841  -7.9472  -7.9466  -7.9227
    -7.8061  -7.8015  -7.7797  -7.7537  -7.6429  -7.6082  -7.4762  -2.3918
    -2.1709  -1.8913  -1.8631  -1.8271  -1.7300  -1.7246  -1.6520  -1.6028
    -1.6013  -1.5431  -1.4823  -1.4570  -1.2818  -1.1221  -1.0563  -0.9071
    -0.8473  -0.6612  -0.5205  -0.4380  -0.4378  -0.3852  -0.3609  -0.3264
    -0.3113  -0.3068  -0.2444  -0.2292  -0.2065  -0.2052  -0.1915  -0.1672
    -0.0988  -0.0970  -0.0260   0.0369   0.0372   0.0980   0.1116   0.2276
     0.2392   0.2481   0.2533   0.2631   0.3133   0.3421   0.3790   0.4301
     0.4667   0.6722   0.7375   0.8207   0.8923   0.9279   0.9866   1.1215
     1.1834   1.2870   1.3003   1.3621   1.3819   1.3997   1.4569   1.4620
     1.6167   1.6678   1.7410   1.7757   1.7777   1.8722   1.9744   2.0146
     2.0181   2.0718   2.1031   2.2006   2.2091   2.4489   2.4742   5.0882
     5.1571   5.5929   6.0925   6.2657   6.6944   6.7136   6.8110   7.1794
     7.9754   8.0909   8.1486   8.3354   8.3395   8.5639   8.6128   9.0041
     9.0517

          k = 0.0000 0.1320 0.0000 ( 34389 PWs)   bands (ev):

   -35.7649 -35.6463 -22.9688 -22.8261 -22.7253 -22.5727 -17.1165 -17.1159
   -16.8626 -16.8104 -16.7605 -16.6969 -15.2744 -15.1789 -14.8631 -14.7384
   -14.6064 -14.5705 -14.3640 -14.2524 -14.0490 -13.9964 -13.9313 -13.8723
   -13.8089 -13.7645 -13.6348  -8.2049  -7.9837  -7.9209  -7.9064  -7.8988
    -7.8574  -7.7960  -7.7752  -7.7565  -7.6456  -7.5978  -7.5239  -2.4502
    -2.2616  -2.2369  -2.1971  -2.0943  -2.0258  -1.7415  -1.7097  -1.7059
    -1.6342  -1.6250  -1.5836  -1.4802  -1.4624  -1.4029  -1.3112  -1.1635
    -0.7842  -0.7076  -0.6854  -0.6178  -0.5647  -0.5234  -0.5224  -0.4020
    -0.3999  -0.3035  -0.2655  -0.2304  -0.2227  -0.2097  -0.1489  -0.1043
    -0.0774  -0.0579  -0.0546   0.0182   0.0611   0.0740   0.0991   0.1160
     0.2157   0.2555   0.2559   0.2807   0.2990   0.3077   0.3505   0.3942
     0.6484   0.7966   0.8684   0.9915   1.0175   1.0191   1.0861   1.1264
     1.1497   1.1909   1.3447   1.3485   1.3607   1.4540   1.4640   1.5138
     1.5302   1.6130   1.7260   1.7329   1.7642   1.8639   1.8939   1.9296
     1.9519   2.0104   2.1132   2.3867   2.6897   2.7367   2.8041   5.5094
     5.5341   5.9136   6.4029   6.5317   6.9933   7.0143   7.1131   7.4624
     8.1522   8.2669   8.3717   8.5367   8.5722   8.6642   8.8363   9.1147
     9.1458

          k = 0.0000 0.2640 0.0000 ( 34275 PWs)   bands (ev):

   -35.7607 -35.6419 -22.9129 -22.7602 -22.6625 -22.5099 -17.0388 -17.0244
   -16.9897 -16.9149 -16.8051 -16.6913 -15.0747 -14.9806 -14.7874 -14.7160
   -14.5450 -14.4987 -14.2744 -14.2396 -14.1176 -14.0886 -14.0570 -13.9282
   -13.8849 -13.8616 -13.7664  -8.1828  -7.9832  -7.9633  -7.9166  -7.8863
    -7.8046  -7.7783  -7.7709  -7.7261  -7.6436  -7.6270  -7.4846  -2.8953
    -2.8223  -2.7805  -2.6641  -2.5588  -2.4901  -2.3429  -2.2589  -2.1589
    -1.7004  -1.6558  -1.6249  -1.5864  -1.5273  -1.5213  -1.4006  -1.3427
    -1.0390  -0.9618  -0.8694  -0.8398  -0.7747  -0.7322  -0.7128  -0.7104
    -0.5965  -0.5811  -0.5589  -0.5087  -0.4263  -0.3967  -0.3792  -0.3336
    -0.2700  -0.1443  -0.0492   0.0176   0.0326   0.1228   0.1568   0.2557
     0.2976   0.3178   0.3221   0.4327   0.5554   0.6227   0.6378   0.7442
     0.8146   0.9054   0.9322   0.9915   1.0704   1.1003   1.1027   1.1428
     1.1688   1.2029   1.2438   1.2815   1.3026   1.4211   1.5636   1.5870
     1.6212   1.6825   1.7179   1.8683   1.8835   1.9121   1.9224   1.9410
     2.0221   2.0464   2.2292   2.5051   2.8864   2.9786   3.6472   6.4283
     6.4627   6.6253   7.1552   7.2480   7.8252   7.8489   7.9370   8.2590
     8.5010   8.6131   8.6866   8.8266   8.9399   9.0466   9.0840   9.1796
     9.3221

          k = 0.0000 0.3960 0.0000 ( 34242 PWs)   bands (ev):

   -35.7566 -35.6375 -22.8556 -22.6921 -22.5976 -22.4452 -17.1090 -17.0512
   -16.9515 -16.9227 -16.7998 -16.6856 -14.9963 -14.7590 -14.7447 -14.5592
   -14.4863 -14.4816 -14.2512 -14.2112 -14.1668 -14.1539 -14.1122 -14.0416
   -13.9915 -13.9480 -13.8648  -8.1568  -8.0573  -7.9832  -7.9645  -7.9121
    -7.7946  -7.7653  -7.7171  -7.6975  -7.6499  -7.5239  -7.3645  -3.5049
    -3.3502  -3.2895  -3.1199  -3.0569  -2.9829  -2.8648  -2.4339  -2.1868
    -2.0391  -1.8642  -1.6732  -1.5906  -1.5841  -1.5260  -1.4375  -1.3049
    -1.2570  -1.2059  -1.1376  -1.0083  -0.9748  -0.9205  -0.9101  -0.8817
    -0.8119  -0.7682  -0.7679  -0.7348  -0.7124  -0.6126  -0.5645  -0.3969
    -0.3329  -0.1669  -0.1436  -0.0322   0.0635   0.0824   0.1046   0.2632
     0.3110   0.3551   0.4315   0.5383   0.7191   0.7521   0.7771   0.7894
     0.8649   0.8958   0.9060   0.9579   1.0063   1.0301   1.0736   1.0839
     1.1320   1.3082   1.4447   1.5267   1.5593   1.6284   1.6635   1.6865
     1.6958   1.7291   1.8788   1.9206   1.9486   1.9819   2.0230   2.1891
     2.2084   2.3064   2.4367   2.4386   2.7878   2.8734   4.2188   7.2554
     7.3751   7.4098   8.0311   8.1982   8.2688   8.5883   8.6236   8.7887
     8.8529   8.9389   9.0288   9.0325   9.1857   9.3384   9.3622   9.4464
     9.6874

          k = 0.0000-0.5279 0.0000 ( 34286 PWs)   bands (ev):

   -35.7548 -35.6357 -22.8314 -22.6631 -22.5701 -22.4177 -17.1541 -17.1033
   -16.9149 -16.8777 -16.7975 -16.6833 -15.0386 -14.6362 -14.6302 -14.5557
   -14.5493 -14.3575 -14.3002 -14.2068 -14.1890 -14.1336 -14.1279 -14.0688
   -14.0576 -13.9902 -13.9124  -8.1374  -8.1009  -7.9942  -7.9828  -7.9101
    -7.8201  -7.7579  -7.7563  -7.6514  -7.5939  -7.4721  -7.3125  -3.7727
    -3.5289  -3.4676  -3.2988  -3.2765  -3.1440  -3.0962  -2.4500  -2.1967
    -2.1660  -1.9959  -1.6925  -1.6905  -1.5578  -1.4939  -1.3892  -1.3500
    -1.2758  -1.2626  -1.2016  -1.1000  -1.0728  -1.0307  -1.0204  -0.9908
    -0.8989  -0.8547  -0.8433  -0.8087  -0.7574  -0.6909  -0.6611  -0.3629
    -0.3128  -0.2311  -0.1763  -0.0266   0.0595   0.0657   0.1105   0.2670
     0.3016   0.3593   0.3814   0.4606   0.6528   0.7294   0.7521   0.7947
     0.8066   0.8347   0.9426   0.9903   1.0307   1.0566   1.1033   1.2485
     1.2968   1.3090   1.4395   1.4828   1.6554   1.6757   1.6832   1.7467
     1.9519   1.9581   1.9830   1.9948   2.0042   2.0530   2.1057   2.1523
     2.1577   2.4196   2.4679   2.6014   2.6014   2.6961   4.4012   7.5009
     7.7764   7.7857   8.1747   8.5802   8.8129   8.8503   8.9015   8.9039
     8.9270   8.9449   9.1123   9.2313   9.2617   9.3417   9.6713   9.8453
     9.8678

          k = 0.1250 0.0000 0.0000 ( 34399 PWs)   bands (ev):

   -35.7656 -35.6471 -22.9762 -22.8348 -22.7339 -22.5809 -17.1192 -17.1179
   -16.8757 -16.8029 -16.7795 -16.6866 -15.2609 -15.1726 -14.9368 -14.7788
   -14.6389 -14.6000 -14.4085 -14.2519 -14.0554 -13.9818 -13.9065 -13.8844
   -13.8146 -13.7513 -13.6126  -8.2443  -8.0099  -7.9272  -7.9008  -7.8847
    -7.8042  -7.7787  -7.7525  -7.7212  -7.5823  -7.5779  -7.4457  -2.4345
    -2.2022  -1.9334  -1.9290  -1.8689  -1.8632  -1.8389  -1.7984  -1.7490
    -1.6992  -1.5905  -1.5129  -1.4239  -1.2797  -1.1403  -1.0524  -0.9345
    -0.9097  -0.7300  -0.6717  -0.5756  -0.5637  -0.5058  -0.4431  -0.4010
    -0.3896  -0.3376  -0.3336  -0.3291  -0.2570  -0.2367  -0.1626  -0.1172
    -0.1077  -0.0270  -0.0145   0.0297   0.0573   0.1329   0.1497   0.1625
     0.2194   0.2659   0.3074   0.3180   0.3273   0.3618   0.4227   0.4561
     0.5371   0.7303   0.7831   0.8277   0.8657   0.9435   1.0131   1.1254
     1.1492   1.1614   1.3018   1.3037   1.3597   1.3763   1.4275   1.4678
     1.5039   1.7478   1.7940   1.8687   1.8762   1.9253   1.9525   2.0235
     2.0280   2.0924   2.1304   2.1417   2.2583   2.4878   2.5090   5.2733
     5.3378   5.8071   6.3265   6.4591   6.8974   6.9172   7.0171   7.3909
     8.1215   8.2117   8.3488   8.4648   8.5653   8.7652   8.8679   9.0996
     9.2314

          k = 0.1250 0.1320 0.0000 ( 34364 PWs)   bands (ev):

   -35.7639 -35.6452 -22.9541 -22.8089 -22.7091 -22.5562 -17.0877 -17.0841
   -16.8772 -16.8550 -16.7826 -16.7497 -15.1796 -15.0971 -14.8795 -14.7732
   -14.6090 -14.5656 -14.3674 -14.2528 -14.0612 -14.0068 -13.9459 -13.9142
   -13.8483 -13.7777 -13.6625  -8.2222  -8.0292  -8.0164  -7.9470  -7.9291
    -7.8341  -7.8060  -7.7260  -7.6836  -7.6740  -7.5360  -7.4052  -2.4870
    -2.2760  -2.2312  -2.1887  -2.0781  -2.0133  -1.9123  -1.9067  -1.8354
    -1.7498  -1.7196  -1.6999  -1.6073  -1.4756  -1.4064  -1.2887  -1.1943
    -0.8652  -0.8499  -0.7407  -0.7183  -0.6731  -0.6077  -0.5955  -0.5647
    -0.5558  -0.4573  -0.3287  -0.3123  -0.2661  -0.1939  -0.1188  -0.0952
    -0.0773  -0.0486  -0.0219   0.0286   0.0825   0.0899   0.1276   0.1594
     0.2102   0.2269   0.2657   0.2923   0.3044   0.4338   0.4575   0.5156
     0.6229   0.8912   0.9567   0.9790   1.0631   1.0767   1.1297   1.1592
     1.1913   1.2201   1.2405   1.2560   1.2887   1.3652   1.4658   1.5177
     1.5337   1.5995   1.6006   1.6318   1.6566   1.7145   2.0128   2.1216
     2.2820   2.3236   2.4626   2.5296   2.6942   2.7482   2.8150   5.6555
     5.6766   6.0703   6.5852   6.6815   7.1910   7.2133   7.3139   7.6659
     8.2911   8.3782   8.5120   8.6355   8.7231   8.8065   8.9922   9.1910
     9.2077

          k = 0.1250 0.2640 0.0000 ( 34297 PWs)   bands (ev):

   -35.7597 -35.6408 -22.8998 -22.7451 -22.6481 -22.4953 -17.0155 -16.9949
   -16.9848 -16.9118 -16.8619 -16.7621 -15.0055 -14.9117 -14.7736 -14.7265
   -14.5394 -14.4803 -14.2738 -14.2350 -14.1188 -14.1104 -14.0482 -13.9489
   -13.9000 -13.8582 -13.7725  -8.1848  -8.1502  -8.0982  -7.9840  -7.9511
    -7.9109  -7.8184  -7.7857  -7.7123  -7.6741  -7.5280  -7.3999  -2.9183
    -2.8339  -2.7702  -2.6734  -2.5673  -2.4906  -2.3423  -2.2558  -2.1711
    -1.8631  -1.8598  -1.7992  -1.6914  -1.6438  -1.5870  -1.5317  -1.3210
    -1.0897  -1.0462  -1.0074  -0.9698  -0.9241  -0.8524  -0.8257  -0.7554
    -0.7458  -0.6825  -0.6240  -0.5604  -0.5330  -0.4002  -0.3864  -0.3786
    -0.1913  -0.1698  -0.0973  -0.0786   0.0527   0.1311   0.1994   0.2801
     0.3497   0.4151   0.4374   0.5429   0.6558   0.6866   0.7383   0.8034
     0.8279   0.9577   1.0286   1.0387   1.0701   1.1283   1.2398   1.2485
     1.2963   1.3187   1.3247   1.3468   1.3862   1.4467   1.4588   1.5360
     1.5818   1.5940   1.6220   1.7158   1.8762   1.9655   1.9848   2.2088
     2.4788   2.4871   2.6849   2.7466   2.9153   2.9899   3.6489   6.4890
     6.5264   6.6266   7.2334   7.3263   7.9942   8.0303   8.0954   8.3737
     8.5211   8.6940   8.7424   8.7672   8.8957   9.0185   9.0817   9.1556
     9.2399

          k = 0.1250 0.3960 0.0000 ( 34292 PWs)   bands (ev):

   -35.7556 -35.6365 -22.8441 -22.6791 -22.5853 -22.4325 -17.1048 -17.0460
   -16.9291 -16.8962 -16.8540 -16.7536 -14.9614 -14.7056 -14.6706 -14.5470
   -14.4694 -14.4375 -14.2486 -14.2053 -14.1902 -14.1444 -14.1162 -14.0317
   -13.9813 -13.9408 -13.8539  -8.2456  -8.1286  -8.1185  -7.9955  -7.9670
    -7.9194  -7.8729  -7.8116  -7.7324  -7.7191  -7.5842  -7.4397  -3.4938
    -3.3908  -3.3211  -3.1487  -3.0485  -3.0083  -2.8564  -2.4421  -2.2022
    -1.9797  -1.8536  -1.8014  -1.7151  -1.6407  -1.6100  -1.5631  -1.5010
    -1.3921  -1.3024  -1.2941  -1.2322  -1.1751  -1.1229  -0.9444  -0.9362
    -0.9254  -0.8805  -0.8161  -0.7617  -0.7190  -0.6363  -0.5990  -0.4337
    -0.2527  -0.2328  -0.0995  -0.0669   0.0590   0.1403   0.1843   0.3262
     0.3939   0.4283   0.5827   0.6124   0.7177   0.8390   0.9039   0.9082
     0.9808   0.9926   1.0334   1.0637   1.1303   1.1479   1.1688   1.2003
     1.2550   1.3845   1.4859   1.5898   1.6505   1.6586   1.6678   1.7376
     1.7979   1.8504   1.8902   1.9537   1.9763   2.2734   2.3263   2.3997
     2.4263   2.4290   2.6326   2.6665   2.8771   2.9334   4.2054   6.9809
     7.2389   7.2895   7.9795   8.0644   8.1958   8.5481   8.6059   8.6193
     8.8456   8.8637   9.1377   9.3029   9.3826   9.4625   9.4914   9.6017
     9.6963

          k = 0.1250-0.5279 0.0000 ( 34244 PWs)   bands (ev):

   -35.7538 -35.6346 -22.8206 -22.6511 -22.5586 -22.4059 -17.1496 -17.0977
   -16.8944 -16.8527 -16.8502 -16.7498 -14.9940 -14.5881 -14.5577 -14.5164
   -14.4988 -14.3559 -14.2779 -14.2216 -14.1704 -14.1489 -14.1345 -14.0546
   -14.0488 -13.9731 -13.8902  -8.2583  -8.1233  -8.1048  -8.0004  -7.9511
    -7.9217  -7.8816  -7.8365  -7.7536  -7.7363  -7.6288  -7.4650  -3.7628
    -3.5774  -3.5073  -3.3269  -3.2768  -3.1765  -3.0867  -2.4632  -2.2143
    -2.0691  -1.8834  -1.7272  -1.6707  -1.6517  -1.5871  -1.5773  -1.5234
    -1.4658  -1.4165  -1.4140  -1.3720  -1.3048  -1.2618  -1.0168  -1.0127
    -0.9939  -0.9771  -0.9120  -0.8624  -0.7211  -0.7140  -0.6485  -0.4228
    -0.2700  -0.2211  -0.1054  -0.0516   0.0546   0.1504   0.1827   0.3319
     0.4012   0.4365   0.5813   0.6056   0.6845   0.8240   0.8713   0.8938
     0.9428   0.9624   0.9654   1.0194   1.1664   1.2067   1.2616   1.2871
     1.3324   1.4089   1.4613   1.7016   1.7169   1.7905   1.9462   1.9697
     1.9749   1.9795   2.0728   2.1431   2.1584   2.2458   2.2845   2.4061
     2.4388   2.4890   2.5080   2.5702   2.7622   2.8121   4.3810   7.0479
     7.4596   7.5012   8.1193   8.2483   8.3028   8.5567   8.9497   8.9919
     9.1478   9.2439   9.2497   9.4716   9.5377   9.6303   9.7375   9.8336
     9.9205

          k = 0.2500 0.0000 0.0000 ( 34384 PWs)   bands (ev):

   -35.7632 -35.6444 -22.9388 -22.7904 -22.6924 -22.5386 -17.0461 -17.0339
   -17.0082 -16.9437 -16.7998 -16.6833 -15.0632 -14.9923 -14.9776 -14.8603
   -14.6623 -14.5971 -14.4231 -14.2660 -14.1020 -14.0519 -13.9757 -13.9629
   -13.9186 -13.7963 -13.6928  -8.2737  -8.0113  -7.9174  -7.8431  -7.7982
    -7.7964  -7.7109  -7.6571  -7.6405  -7.5030  -7.4982  -7.3701  -2.6275
    -2.4342  -2.4177  -2.2711  -2.2412  -2.0971  -1.8080  -1.7716  -1.7089
    -1.6230  -1.6224  -1.5328  -1.4144  -1.2764  -1.1928  -1.0610  -1.0430
    -1.0071  -1.0064  -0.8490  -0.8309  -0.8123  -0.8062  -0.7002  -0.6387
    -0.5925  -0.5805  -0.4814  -0.3657  -0.3118  -0.2528  -0.2521  -0.2305
    -0.1173  -0.1135  -0.1075   0.0170   0.1229   0.1406   0.1825   0.2621
     0.2925   0.3113   0.3925   0.3927   0.4637   0.4905   0.5103   0.5697
     0.5996   0.6649   0.7271   0.8596   0.9350   0.9473   0.9870   1.0253
     1.2182   1.2332   1.2460   1.2840   1.3544   1.3888   1.4179   1.4945
     1.5047   1.6545   1.7019   1.8151   1.8279   1.9603   1.9629   2.0001
     2.0089   2.1061   2.2737   2.4177   2.4255   2.5967   2.6168   5.7411
     5.7954   6.2784   6.9355   6.9887   7.4233   7.4966   7.6090   7.9537
     8.4326   8.4465   8.7121   8.7159   8.9395   9.2284   9.2665   9.3682
     9.4479

          k = 0.2500 0.1320 0.0000 ( 34351 PWs)   bands (ev):

   -35.7615 -35.6426 -22.9183 -22.7666 -22.6695 -22.5157 -17.0226 -17.0018
   -16.9989 -16.9372 -16.8541 -16.7494 -15.0129 -14.9290 -14.9159 -14.8112
   -14.6269 -14.5520 -14.3799 -14.2518 -14.1014 -14.0489 -13.9944 -13.9824
   -13.9365 -13.8139 -13.7184  -8.2618  -8.0800  -8.0334  -7.9511  -7.9349
    -7.8511  -7.8360  -7.6915  -7.6482  -7.6069  -7.4602  -7.3367  -2.6773
    -2.4734  -2.4537  -2.2711  -2.2621  -2.1548  -2.1295  -2.0916  -2.0103
    -1.9385  -1.7658  -1.6905  -1.6377  -1.4684  -1.4661  -1.3297  -1.2718
    -1.0861  -1.0449  -1.0326  -0.9742  -0.9286  -0.8626  -0.7315  -0.6968
    -0.6638  -0.6181  -0.5211  -0.4506  -0.3970  -0.3102  -0.2768  -0.1011
    -0.0929  -0.0337  -0.0048   0.0196   0.0781   0.0951   0.1486   0.1874
     0.2680   0.3080   0.3216   0.5077   0.5175   0.5579   0.6193   0.7144
     0.7818   0.8446   0.9004   0.9975   1.0050   1.0636   1.1097   1.1387
     1.1772   1.2423   1.3171   1.3711   1.3952   1.4160   1.4666   1.4753
     1.4805   1.5469   1.6378   1.6702   1.7032   1.7350   1.9765   2.1935
     2.6029   2.6246   2.7514   2.7947   2.8042   2.8756   2.9085   6.0439
     6.0566   6.3950   7.0753   7.1335   7.7044   7.7531   7.8698   8.2021
     8.5395   8.5506   8.5972   8.8625   9.0076   9.0526   9.1284   9.2127
     9.3454

          k = 0.2500 0.2640 0.0000 ( 34331 PWs)   bands (ev):

   -35.7573 -35.6383 -22.8678 -22.7079 -22.6131 -22.4594 -17.0055 -16.9692
   -16.9413 -16.9373 -16.9134 -16.8860 -14.9237 -14.7642 -14.7591 -14.6708
   -14.5380 -14.4330 -14.2741 -14.2267 -14.1514 -14.1259 -14.0296 -13.9883
   -13.9392 -13.8561 -13.7841  -8.3568  -8.3001  -8.1880  -8.1516  -8.0091
    -7.9966  -7.9139  -7.8187  -7.7494  -7.7267  -7.5784  -7.4591  -3.0556
    -2.9262  -2.8003  -2.7101  -2.6336  -2.5038  -2.3747  -2.3398  -2.2810
    -2.2317  -2.2258  -2.1381  -2.0625  -1.6452  -1.6065  -1.5132  -1.4838
    -1.4485  -1.3449  -1.2830  -1.2393  -1.1057  -0.9669  -0.8546  -0.7964
    -0.7583  -0.7212  -0.6880  -0.6594  -0.6395  -0.4790  -0.4609  -0.4327
    -0.4019  -0.3455  -0.0521   0.0376   0.0707   0.1687   0.2774   0.4096
     0.5203   0.5768   0.6030   0.7289   0.7822   0.8279   0.8977   0.9025
     0.9836   1.0734   1.1743   1.1986   1.2339   1.2622   1.3197   1.3848
     1.3964   1.4048   1.4692   1.4708   1.4838   1.5565   1.5657   1.6035
     1.6341   1.6596   1.6820   1.7644   1.7960   1.8930   2.0801   2.2722
     2.8177   2.9247   3.2093   3.2371   3.3600   3.4211   3.6552   6.4818
     6.5984   6.6524   7.4481   7.5253   8.2256   8.2877   8.3776   8.4489
     8.6655   8.7369   8.9413   8.9951   9.0317   9.2111   9.2916   9.3419
     9.4014

          k = 0.2500 0.3960 0.0000 ( 34334 PWs)   bands (ev):

   -35.7532 -35.6339 -22.8161 -22.6475 -22.5551 -22.4015 -17.0951 -17.0340
   -16.9777 -16.9016 -16.8693 -16.8275 -14.8802 -14.5914 -14.5390 -14.5022
   -14.4334 -14.3151 -14.2760 -14.2590 -14.1591 -14.1239 -14.1070 -14.0038
   -13.9507 -13.9216 -13.8287  -8.5125  -8.4202  -8.2661  -8.1804  -8.1201
    -8.0470  -8.0121  -7.9479  -7.9406  -7.8089  -7.7907  -7.6724  -3.5564
    -3.4656  -3.4451  -3.2631  -3.1114  -3.0278  -2.8367  -2.5136  -2.3055
    -2.2921  -2.1934  -2.1154  -2.0193  -1.8822  -1.8229  -1.7919  -1.6520
    -1.6121  -1.5844  -1.4976  -1.3618  -1.2974  -1.2053  -0.9367  -0.8825
    -0.8679  -0.8602  -0.8239  -0.8118  -0.7488  -0.6981  -0.6677  -0.6045
    -0.4833  -0.4592   0.0187   0.0789   0.1115   0.2415   0.3391   0.5154
     0.6375   0.6820   0.7981   0.9159   0.9459   1.0072   1.0503   1.1860
     1.2236   1.2390   1.2617   1.3194   1.3450   1.3818   1.4508   1.4831
     1.5436   1.5779   1.6020   1.6625   1.7160   1.7244   1.7973   1.8243
     1.8560   1.8879   1.9458   1.9926   2.0445   2.1951   2.3173   2.3564
     2.6671   2.7571   3.4391   3.4666   3.5963   3.6361   4.1687   6.3183
     6.8051   6.9148   7.5399   7.6868   8.4054   8.5339   8.7371   8.7668
     8.8682   9.0019   9.2990   9.5413   9.6043   9.6206   9.7006   9.7575
     9.8381

          k = 0.2500-0.5279 0.0000 ( 34344 PWs)   bands (ev):

   -35.7515 -35.6321 -22.7943 -22.6219 -22.5306 -22.3770 -17.1388 -17.0842
   -16.9730 -16.8961 -16.8374 -16.7879 -14.8770 -14.4611 -14.4253 -14.4227
   -14.4196 -14.3518 -14.2857 -14.2186 -14.1700 -14.1290 -14.0816 -14.0459
   -14.0049 -13.9330 -13.8372  -8.5437  -8.4204  -8.2544  -8.1695  -8.1475
    -8.1350  -8.1243  -8.0136  -8.0067  -7.9071  -7.8071  -7.7747  -3.7673
    -3.7238  -3.6501  -3.4567  -3.2971  -3.2555  -3.0640  -2.5210  -2.2988
    -2.2458  -2.1573  -2.0612  -2.0360  -1.9697  -1.9642  -1.9332  -1.7804
    -1.6711  -1.6183  -1.5338  -1.4232  -1.3678  -1.2963  -1.0064  -0.9419
    -0.9294  -0.8922  -0.8901  -0.8754  -0.8003  -0.7858  -0.6455  -0.6169
    -0.5100  -0.4709   0.0305   0.0810   0.1485   0.2768   0.3718   0.5364
     0.6724   0.7575   0.9020   0.9725   1.0192   1.0654   1.1164   1.1356
     1.2097   1.2521   1.3115   1.3441   1.3958   1.4354   1.4410   1.4641
     1.5199   1.6503   1.6903   1.8497   1.8696   1.8954   1.9313   1.9779
     1.9940   2.0152   2.1124   2.1601   2.1737   2.3707   2.3931   2.4242
     2.4997   2.5359   3.4592   3.4875   3.6313   3.6627   4.3220   6.2041
     6.7696   6.9006   7.4739   7.6571   8.4646   8.5510   8.9533   9.1250
     9.2320   9.3551   9.4623   9.4757   9.7371   9.7895   9.8027   9.9193
     9.9255

          k = 0.3750 0.0000 0.0000 ( 34362 PWs)   bands (ev):

   -35.7607 -35.6418 -22.9007 -22.7450 -22.6501 -22.4953 -17.1301 -17.0835
   -16.9620 -16.9387 -16.7968 -16.6800 -15.1076 -15.0626 -14.8520 -14.7147
   -14.6636 -14.5187 -14.4431 -14.2776 -14.2099 -14.1559 -14.0504 -14.0363
   -13.9770 -13.8495 -13.7533  -8.2697  -7.9938  -7.8960  -7.8116  -7.7671
    -7.7333  -7.6406  -7.5760  -7.5561  -7.4505  -7.4250  -7.2913  -2.9550
    -2.8456  -2.7725  -2.6145  -2.3938  -2.1404  -1.7259  -1.6815  -1.6786
    -1.6436  -1.5642  -1.5012  -1.4516  -1.2781  -1.2581  -1.2498  -1.1351
    -1.0893  -1.0801  -1.0445  -1.0333  -1.0025  -0.9487  -0.9436  -0.8587
    -0.8134  -0.7927  -0.6392  -0.4889  -0.3322  -0.3253  -0.2923  -0.2675
    -0.2665  -0.1520  -0.1058   0.0041   0.0294   0.1034   0.1291   0.2468
     0.2777   0.3412   0.3643   0.4011   0.4674   0.5033   0.5665   0.6093
     0.6874   0.7159   0.7341   0.7672   0.9013   1.0433   1.1218   1.1252
     1.1662   1.2346   1.2870   1.2959   1.4384   1.4493   1.4788   1.5126
     1.6048   1.7009   1.7151   1.7451   1.8032   1.8534   1.9789   2.0448
     2.0892   2.1343   2.3269   2.4785   2.5279   2.7015   2.7406   6.4015
     6.4450   6.6805   7.6718   7.7085   7.9396   7.9727   8.1229   8.4184
     8.5005   8.6411   8.6696   9.2803   9.3285   9.3337   9.4105   9.4325
     9.4768

          k = 0.3750 0.1320 0.0000 ( 34383 PWs)   bands (ev):

   -35.7590 -35.6400 -22.8817 -22.7233 -22.6291 -22.4743 -17.1231 -17.0749
   -16.9377 -16.9096 -16.8494 -16.7445 -15.0595 -14.9921 -14.8017 -14.6738
   -14.6030 -14.4677 -14.3958 -14.2496 -14.1867 -14.1335 -14.0412 -14.0302
   -14.0017 -13.8647 -13.7593  -8.2615  -8.0514  -7.9764  -7.9307  -7.8966
    -7.8355  -7.7712  -7.7252  -7.6458  -7.6261  -7.5021  -7.3846  -3.0167
    -2.8889  -2.8165  -2.6484  -2.3926  -2.1588  -2.0998  -2.0889  -1.9244
    -1.8721  -1.7664  -1.6790  -1.6767  -1.5378  -1.4571  -1.4078  -1.3894
    -1.3747  -1.2769  -1.2579  -1.1370  -1.1178  -0.9560  -0.8617  -0.8225
    -0.7318  -0.6956  -0.6123  -0.5900  -0.4788  -0.4035  -0.3310  -0.1708
    -0.1201  -0.0340  -0.0129   0.0684   0.0851   0.1165   0.1211   0.1662
     0.3070   0.3322   0.3771   0.4311   0.6063   0.6133   0.7045   0.7326
     0.8201   0.8704   0.9031   0.9627   1.0786   1.0949   1.1277   1.1742
     1.2199   1.2691   1.2971   1.3368   1.4709   1.4827   1.5419   1.5682
     1.6445   1.6809   1.7043   1.7310   1.7891   1.8250   1.9127   2.1808
     2.6428   2.6817   2.8380   2.8845   2.9016   3.0686   3.0963   6.5864
     6.5951   6.5966   7.7005   7.7553   8.0056   8.0290   8.2732   8.4122
     8.4646   8.7188   8.8619   9.1556   9.2192   9.2619   9.4893   9.5144
     9.5724

          k = 0.3750 0.2640 0.0000 ( 34389 PWs)   bands (ev):

   -35.7549 -35.6357 -22.8352 -22.6700 -22.5774 -22.4228 -17.1064 -17.0546
   -16.9718 -16.8888 -16.8736 -16.8344 -14.9373 -14.7980 -14.6725 -14.5779
   -14.4536 -14.3435 -14.2728 -14.2094 -14.1764 -14.1374 -14.0541 -14.0110
   -13.9683 -13.8795 -13.7860  -8.4100  -8.3529  -8.2028  -8.1988  -8.0667
    -8.0314  -7.9893  -7.9223  -7.9091  -7.7865  -7.7738  -7.6575  -3.3318
    -3.1827  -3.0560  -2.8740  -2.6956  -2.5638  -2.5411  -2.4439  -2.4171
    -2.3134  -2.3123  -2.2259  -2.1280  -1.8410  -1.7830  -1.6753  -1.6229
    -1.6055  -1.5498  -1.3173  -1.1744  -1.0944  -0.9885  -0.9383  -0.8865
    -0.8631  -0.7340  -0.7116  -0.6907  -0.6815  -0.5482  -0.5416  -0.5146
    -0.4359  -0.4168  -0.0047   0.0912   0.1519   0.2323   0.3893   0.4707
     0.6326   0.6715   0.6961   0.7677   0.9354   0.9448   1.0310   1.0605
     1.1198   1.1628   1.1793   1.2435   1.3419   1.3581   1.4052   1.4714
     1.4783   1.5463   1.5745   1.6105   1.6595   1.6786   1.6842   1.7107
     1.7540   1.7622   1.7708   1.7929   1.7943   1.9661   2.0707   2.1956
     2.8153   2.9261   3.6334   3.6700   3.6803   3.7948   3.8400   6.2078
     6.6381   6.7349   7.4526   7.5788   8.3457   8.3562   8.4014   8.6824
     8.7759   9.0797   9.3022   9.3449   9.3571   9.3885   9.4713   9.7294
     9.7435

          k = 0.3750 0.3960 0.0000 ( 34365 PWs)   bands (ev):

   -35.7508 -35.6313 -22.7877 -22.6154 -22.5245 -22.3700 -17.0935 -17.0793
   -17.0373 -17.0156 -16.8082 -16.7546 -14.8025 -14.5409 -14.5199 -14.4835
   -14.2974 -14.2894 -14.2501 -14.1801 -14.1425 -14.1259 -14.0511 -13.9848
   -13.9513 -13.8816 -13.8047  -8.7135  -8.6186  -8.4672  -8.3653  -8.2971
    -8.2836  -8.1553  -8.1427  -8.0339  -7.9562  -7.9320  -7.8096  -3.8112
    -3.6782  -3.5134  -3.4110  -3.3113  -3.0072  -2.8174  -2.6940  -2.6370
    -2.5318  -2.3986  -2.3420  -2.1528  -2.1390  -2.1002  -1.9046  -1.8590
    -1.7039  -1.6045  -1.3352  -1.2712  -1.2551  -1.2161  -1.0223  -0.9963
    -0.9303  -0.8598  -0.8000  -0.7984  -0.7818  -0.7640  -0.7422  -0.6762
    -0.6417  -0.4583   0.1231   0.1700   0.2268   0.3376   0.5393   0.6428
     0.8855   0.9486   1.0251   1.0962   1.1887   1.2120   1.2615   1.2923
     1.3340   1.4185   1.4222   1.5168   1.5202   1.5558   1.6094   1.6736
     1.7043   1.7094   1.7636   1.8378   1.8535   1.8901   1.9075   1.9245
     1.9459   2.0200   2.0543   2.1045   2.1170   2.2357   2.2399   2.3815
     2.6535   2.7479   4.0924   4.1841   4.2013   4.2727   4.3103   5.7397
     6.3346   6.5041   7.1133   7.3141   8.5241   8.5976   8.8183   8.9185
     9.0320   9.2664   9.3520   9.4078   9.4410   9.4872   9.5649   9.6963
     9.7579

          k = 0.3750-0.5279 0.0000 ( 34392 PWs)   bands (ev):

   -35.7491 -35.6295 -22.7678 -22.5923 -22.5022 -22.3478 -17.1281 -17.0820
   -17.0708 -17.0246 -16.7797 -16.7192 -14.7412 -14.4595 -14.4289 -14.3503
   -14.3464 -14.3073 -14.2072 -14.1268 -14.1209 -14.1177 -14.0366 -14.0177
   -13.9761 -13.8796 -13.7887  -8.8225  -8.7007  -8.5434  -8.4455  -8.4454
    -8.4288  -8.2977  -8.1638  -8.0637  -8.0575  -7.9549  -7.8222  -4.0178
    -3.8890  -3.7482  -3.6465  -3.5067  -3.2324  -3.0420  -2.7126  -2.6436
    -2.5433  -2.4024  -2.3362  -2.2598  -2.2158  -2.1390  -1.9879  -1.9548
    -1.7421  -1.5965  -1.4093  -1.3601  -1.3096  -1.2916  -1.0211  -1.0167
    -0.9807  -0.9445  -0.9146  -0.8881  -0.8559  -0.8279  -0.7607  -0.6900
    -0.6069  -0.4442   0.1545   0.1878   0.2518   0.3821   0.5909   0.7114
     0.9627   1.0810   1.1866   1.2237   1.2419   1.2900   1.2925   1.3154
     1.3761   1.4855   1.5366   1.5542   1.6587   1.6811   1.7120   1.7150
     1.7749   1.8257   1.8324   1.8925   1.9625   1.9892   2.0670   2.0865
     2.1620   2.1747   2.2036   2.2244   2.3073   2.3824   2.3981   2.4365
     2.4482   2.5058   4.1912   4.3254   4.3557   4.4190   4.4528   5.5376
     6.1569   6.3506   6.9944   7.2249   8.4008   8.6159   8.8803   8.9519
     9.0635   9.3045   9.3078   9.4185   9.6151   9.6749   9.7162   9.8423
     9.8715

          k =-0.5000 0.0000 0.0000 ( 34370 PWs)   bands (ev):

   -35.7597 -35.6407 -22.8847 -22.7259 -22.6323 -22.4771 -17.1752 -17.1359
   -16.9269 -16.8965 -16.7955 -16.6786 -15.1649 -15.0956 -14.8487 -14.7317
   -14.4674 -14.4482 -14.3838 -14.3533 -14.2704 -14.2594 -14.0853 -14.0715
   -13.9920 -13.8731 -13.7737  -8.2607  -7.9835  -7.8850  -7.7957  -7.7604
    -7.7102  -7.6107  -7.5452  -7.5200  -7.4376  -7.3917  -7.2577  -3.0970
    -3.0005  -2.9170  -2.7600  -2.4188  -2.1375  -1.7157  -1.6990  -1.6781
    -1.6298  -1.4986  -1.4381  -1.4062  -1.3237  -1.2884  -1.2820  -1.2380
    -1.1792  -1.1776  -1.1239  -1.0573  -1.0543  -1.0296  -0.9632  -0.9208
    -0.9104  -0.8761  -0.7142  -0.5444  -0.3553  -0.3431  -0.3388  -0.2787
    -0.2713  -0.2171  -0.0948  -0.0355  -0.0012   0.0868   0.1120   0.1986
     0.2717   0.3405   0.3657   0.3936   0.4338   0.4912   0.5875   0.6049
     0.6698   0.7456   0.7486   0.7918   0.8450   1.0681   1.0715   1.1049
     1.3007   1.3101   1.3347   1.3802   1.4131   1.4755   1.5266   1.5289
     1.5912   1.6430   1.6626   1.8069   1.8936   1.9512   1.9821   2.0629
     2.0993   2.1292   2.3366   2.4626   2.5365   2.7220   2.7762   6.8353
     7.1815   7.2161   7.2358   7.2705   8.1898   8.2081   8.4377   8.4845
     8.5625   8.7190   8.9895   9.2894   9.3160   9.3941   9.4359   9.6236
     9.6458

          k =-0.5000 0.1320 0.0000 ( 34378 PWs)   bands (ev):

   -35.7580 -35.6389 -22.8664 -22.7051 -22.6120 -22.4569 -17.1676 -17.1267
   -16.9044 -16.8690 -16.8472 -16.7423 -15.1075 -15.0213 -14.7963 -14.6912
   -14.4221 -14.4063 -14.3258 -14.3142 -14.2375 -14.2326 -14.0598 -14.0415
   -14.0296 -13.8912 -13.7725  -8.2489  -8.0225  -7.9134  -7.8796  -7.8396
    -7.8370  -7.8136  -7.7230  -7.6779  -7.5973  -7.5578  -7.4711  -3.1652
    -3.0499  -2.9688  -2.8003  -2.4238  -2.1682  -2.0694  -2.0574  -1.8690
    -1.8298  -1.7583  -1.6923  -1.6736  -1.5765  -1.4903  -1.4898  -1.4533
    -1.4346  -1.3683  -1.3434  -1.2181  -1.1586  -0.9756  -0.9321  -0.8366
    -0.7533  -0.7017  -0.6733  -0.6126  -0.5153  -0.4199  -0.3548  -0.1998
    -0.1346  -0.0484  -0.0008   0.0654   0.0736   0.0997   0.1195   0.2464
     0.2587   0.3370   0.3799   0.4519   0.5319   0.6336   0.7038   0.7076
     0.8332   0.8362   0.9091   0.9869   1.0428   1.1020   1.1311   1.2171
     1.2260   1.2386   1.3555   1.4263   1.4942   1.5065   1.5716   1.6420
     1.6600   1.6750   1.6800   1.8141   1.8581   1.9218   1.9903   2.1625
     2.6380   2.6880   2.8464   2.9049   2.9206   3.1127   3.1411   6.6284
     7.0637   7.1145   7.5164   7.5731   8.0265   8.1155   8.3618   8.4156
     8.5399   8.9553   9.2303   9.4103   9.4207   9.4880   9.5231   9.5606
     9.6219

          k =-0.5000 0.2640 0.0000 ( 34396 PWs)   bands (ev):

   -35.7539 -35.6346 -22.8216 -22.6541 -22.5625 -22.4074 -17.1496 -17.1047
   -16.9691 -16.8855 -16.8434 -16.7980 -14.9561 -14.8166 -14.6625 -14.5945
   -14.3099 -14.2957 -14.2280 -14.2160 -14.1871 -14.1813 -14.0969 -14.0087
   -13.9706 -13.9067 -13.7833  -8.3517  -8.2917  -8.1952  -8.1638  -8.1408
    -8.1404  -8.0151  -7.9893  -7.9724  -7.8744  -7.8343  -7.7652  -3.4702
    -3.3248  -3.2015  -3.0175  -2.6881  -2.5892  -2.5688  -2.4569  -2.4326
    -2.3366  -2.3212  -2.2215  -2.1326  -1.9656  -1.9017  -1.7422  -1.6586
    -1.6327  -1.6303  -1.2390  -1.1486  -1.0736  -1.0312  -0.9670  -0.9117
    -0.8823  -0.7677  -0.7366  -0.6967  -0.6885  -0.5665  -0.5518  -0.5167
    -0.4573  -0.4296   0.0124   0.1133   0.1474   0.2951   0.4388   0.4935
     0.6728   0.7177   0.7573   0.7913   0.9910   1.0286   1.0545   1.1121
     1.1179   1.1334   1.2332   1.2802   1.3423   1.4050   1.4268   1.4797
     1.4965   1.5223   1.6326   1.6365   1.6988   1.7216   1.7657   1.7886
     1.7896   1.8017   1.8471   1.8862   1.9057   1.9143   2.0808   2.1321
     2.8074   2.9196   3.6473   3.8026   3.8121   3.9255   3.9648   6.0763
     6.6336   6.7612   7.3504   7.5127   8.3321   8.3833   8.6018   8.7233
     8.9923   9.2663   9.2864   9.4064   9.4820   9.5287   9.7078   9.7167
     9.7498

          k =-0.5000 0.3960 0.0000 ( 34384 PWs)   bands (ev):

   -35.7498 -35.6303 -22.7759 -22.6019 -22.5117 -22.3568 -17.1319 -17.0831
   -17.0798 -17.0147 -16.7815 -16.7223 -14.7733 -14.5523 -14.5167 -14.4990
   -14.2830 -14.2016 -14.1999 -14.1551 -14.1391 -14.1095 -14.0366 -13.9822
   -13.9625 -13.8663 -13.7924  -8.7717  -8.6668  -8.5131  -8.4458  -8.4288
    -8.4071  -8.2910  -8.1678  -8.0908  -8.0501  -7.9444  -7.8161  -3.9416
    -3.8028  -3.6251  -3.4463  -3.3971  -2.9986  -2.8098  -2.7637  -2.7268
    -2.6029  -2.4776  -2.3585  -2.2544  -2.2061  -2.1464  -1.9605  -1.9101
    -1.7398  -1.6024  -1.2960  -1.2823  -1.1933  -1.1683  -1.1091  -1.0612
    -0.9496  -0.8448  -0.8355  -0.8083  -0.7933  -0.7905  -0.7696  -0.6916
    -0.6538  -0.4206   0.1520   0.1955   0.2602   0.3933   0.6205   0.7092
     0.9844   1.0752   1.1184   1.2311   1.2410   1.2917   1.3159   1.3253
     1.3963   1.4569   1.5004   1.5213   1.5714   1.6459   1.6843   1.7287
     1.7438   1.7838   1.7953   1.8618   1.9196   1.9275   1.9359   1.9827
     2.0084   2.0863   2.1456   2.1495   2.2043   2.2193   2.3231   2.3744
     2.6415   2.7369   4.0907   4.4468   4.4521   4.5159   4.5481   5.5197
     6.1386   6.3309   6.9433   7.1644   8.5518   8.5857   8.6740   8.8667
     8.9935   9.3716   9.4190   9.4287   9.5571   9.6162   9.6773   9.6844
     9.7487

          k =-0.5000-0.5279 0.0000 ( 34420 PWs)   bands (ev):

   -35.7481 -35.6285 -22.7567 -22.5799 -22.4904 -22.3355 -17.1246 -17.1237
   -17.0743 -17.0653 -16.7545 -16.6888 -14.6757 -14.4998 -14.4516 -14.3505
   -14.3284 -14.2256 -14.1563 -14.1153 -14.0813 -14.0489 -14.0325 -14.0165
   -13.9961 -13.8385 -13.7747  -8.9370  -8.8129  -8.6598  -8.5629  -8.5570
    -8.5449  -8.4138  -8.1908  -8.1580  -8.0777  -7.9677  -7.8300  -4.1498
    -4.0145  -3.8318  -3.6835  -3.6166  -3.2229  -3.0330  -2.7962  -2.7511
    -2.6297  -2.4974  -2.3486  -2.3481  -2.3092  -2.1461  -2.0363  -1.9894
    -1.7752  -1.5825  -1.4107  -1.3443  -1.2971  -1.2322  -1.0843  -1.0499
    -1.0442  -0.9454  -0.9104  -0.8898  -0.8713  -0.8665  -0.8158  -0.7066
    -0.6101  -0.3918   0.1892   0.2117   0.2920   0.4306   0.6764   0.8185
     1.1099   1.2390   1.2881   1.2920   1.3026   1.3338   1.3447   1.3823
     1.4179   1.5689   1.5940   1.6200   1.7058   1.7356   1.7899   1.8315
     1.8883   1.9076   1.9560   1.9688   1.9949   2.0511   2.0577   2.1381
     2.1661   2.2787   2.2838   2.3231   2.3546   2.3676   2.4109   2.4833
     2.5068   2.5428   4.1849   4.6457   4.6577   4.7171   4.7429   5.2858
     5.9115   6.1271   6.8135   7.0625   8.3962   8.5896   8.7366   8.7512
     8.9750   9.0342   9.2349   9.5029   9.5243   9.5287   9.7202   9.8413
     9.9354

     the Fermi energy is     2.5054 ev

!    total energy              =   -1842.87345319 Ry
     Harris-Foulkes estimate   =   -1842.87345319 Ry
     estimated scf accuracy    <          6.0E-11 Ry

     The total energy is the sum of the following terms:

     one-electron contribution =  -30430.34138331 Ry
     hartree contribution      =   15368.01076775 Ry
     xc contribution           =    -621.53681332 Ry
     ewald contribution        =   13841.00287268 Ry
     smearing contrib. (-TS)   =      -0.00889700 Ry

     convergence has been achieved in  42 iterations

     negative rho (up, down):  1.480E-03 0.000E+00

     Forces acting on atoms (cartesian axes, Ry/au):

     atom    1 type  4   force =     0.00000000    0.00000000   -0.00008730
     atom    2 type  3   force =     0.00000000    0.00000000    0.00036688
     atom    3 type  4   force =     0.00000000    0.00000000   -0.00079890
     atom    4 type  1   force =     0.00000000    0.00000000   -0.00028336
     atom    5 type  3   force =     0.00000000    0.00000000    0.00056565
     atom    6 type  4   force =     0.00000000    0.00000000   -0.00001536
     atom    7 type  4   force =     0.00000000    0.00000000    0.00028588
     atom    8 type  2   force =     0.00000000    0.00000000   -0.00060329
     atom    9 type  4   force =     0.00000000    0.00000000    0.00026635
     atom   10 type  4   force =     0.00000000    0.00000000    0.00020940
     atom   11 type  3   force =     0.00000000    0.00000000    0.00006125
     atom   12 type  1   force =     0.00000000    0.00000000   -0.00028919
     atom   13 type  4   force =     0.00000000    0.00000000    0.00327086
     atom   14 type  4   force =     0.00000000    0.00000000    0.00498666
     atom   15 type  3   force =     0.00000000    0.00000000   -0.00278505
     atom   16 type  4   force =     0.00000000    0.00000000    0.00527075
     atom   17 type  1   force =     0.00000000    0.00000000    0.01770549
     atom   18 type  3   force =     0.00000000    0.00000000    0.00122589
     atom   19 type  4   force =     0.00000000    0.00000000   -0.00516531
     atom   20 type  4   force =     0.00000000    0.00000000   -0.00288111
     atom   21 type  2   force =     0.00000000    0.00000000   -0.00445872
     atom   22 type  4   force =     0.00000000    0.00000000   -0.00684226
     atom   23 type  4   force =     0.00000000    0.00000000   -0.00557891
     atom   24 type  3   force =     0.00000000    0.00000000    0.00735760
     atom   25 type  1   force =     0.00000000    0.00000000    0.00220726
     atom   26 type  4   force =     0.00000000    0.00000000    0.03532902
     atom   27 type  3   force =     0.00000000    0.00000000   -0.04144250
     atom   28 type  4   force =     0.00000000    0.00000000   -0.00787768

     Total force =     0.037966     Total SCF correction =     0.000025


     Computing stress (Cartesian axis) and pressure


     negative rho (up, down):  1.480E-03 0.000E+00
          total   stress  (Ry/bohr**3)                   (kbar)     P=      -11.52
  -0.00005470   0.00000000   0.00000000           -8.05        0.00        0.00
   0.00000000  -0.00005775   0.00000000            0.00       -8.50        0.00
   0.00000000   0.00000000  -0.00012243            0.00        0.00      -18.01


     number of scf cycles    =   2
     number of bfgs steps    =   1

     energy   old            =   -1842.8992065785 Ry
     energy   new            =   -1842.8734531911 Ry

     CASE: energy  _new > energy  _old

     new trust radius        =       0.0207489411 bohr
     new conv_thr            =            1.0E-10 Ry


ATOMIC_POSITIONS (angstrom)
O             0.0000000000        1.8611200000       -0.1866255867    0   0   0
Cu            0.0000000000        0.0000000000        0.1051095683    0   0   0
O             0.0000000000        0.0000000000        1.9987396139    0   0   0
Ba            1.9651100000        1.8611200000        2.2607048441    0   0   0
Cu            0.0000000000        0.0000000000        4.1216031353    0   0   0
O             1.9651100000        0.0000000000        4.2780746690    0   0   0
O             0.0000000000        1.8611200000        4.4166842479    0   0   0
Ca            1.9651100000        1.8611200000        5.9499415188    0   0   0
O             0.0000000000        1.8611200000        7.4164514846    0   0   0
O             1.9651100000        0.0000000000        7.5660693650    0   0   0
Cu            0.0000000000        0.0000000000        7.7521693028    0   0   0
Ba            1.9651100000        1.8611200000        9.6525013722    0   0   0
O             0.0000000000        0.0000000000        9.9781206658    0   0   0
O             0.0000000000        1.8611200000       11.8863779037    0   0   0
Cu            0.0000000000        0.0000000000       11.8866002936    0   0   0
O             0.0000000000        0.0000000000       13.7950293782    0   0   0
Ba            1.9651100000        1.8611200000       14.1206183459    0   0   0
Cu            0.0000000000        0.0000000000       16.0624374313
O             1.9651100000        0.0000000000       16.3036767565
O             0.0000000000        1.8611200000       16.4211195961
Ca            1.9651100000        1.8611200000       17.9547277351
O             0.0000000000        1.8611200000       19.4903211146
O             1.9651100000        0.0000000000       19.7419636708
Cu            0.0000000000        0.0000000000       19.8089737017
Ba            1.9651100000        1.8611200000       21.7543834057
O             0.0000000000        0.0000000000       22.0314860666
Cu            0.0000000000        0.0000000000       23.9445091219    0   0   0
O             0.0000000000        1.8611200000       24.2361937337    0   0   0


     NEW-OLD atomic charge density approx. for the potential

     negative rho (up, down):  1.097E-02 0.000E+00

     total cpu time spent up to now is      719.1 secs

     Self-consistent Calculation

     iteration #  1     ecut=    60.00 Ry     beta= 0.70
     Davidson diagonalization with overlap
     c_bands:  1 eigenvalues not converged
     c_bands:  2 eigenvalues not converged
     c_bands:  2 eigenvalues not converged
     c_bands:  1 eigenvalues not converged
     c_bands:  1 eigenvalues not converged
     c_bands:  1 eigenvalues not converged
     c_bands:  1 eigenvalues not converged
     c_bands:  2 eigenvalues not converged
     c_bands:  2 eigenvalues not converged
     c_bands:  2 eigenvalues not converged
     c_bands:  2 eigenvalues not converged
     c_bands:  2 eigenvalues not converged
     c_bands:  1 eigenvalues not converged
     ethr =  1.00E-06,  avg # of iterations = 17.3

     negative rho (up, down):  3.140E-03 0.000E+00

     total cpu time spent up to now is      774.7 secs

     total energy              =   -1842.86712161 Ry
     Harris-Foulkes estimate   =   -1842.90567505 Ry
     estimated scf accuracy    <       0.56496584 Ry

     iteration #  2     ecut=    60.00 Ry     beta= 0.70
     Davidson diagonalization with overlap
     ethr =  2.49E-04,  avg # of iterations =  2.0

     negative rho (up, down):  2.940E-03 0.000E+00

     total cpu time spent up to now is      789.4 secs

     total energy              =   -1842.86086880 Ry
     Harris-Foulkes estimate   =   -1842.92266032 Ry
     estimated scf accuracy    <       0.91377941 Ry

     iteration #  3     ecut=    60.00 Ry     beta= 0.70
     Davidson diagonalization with overlap
     ethr =  2.49E-04,  avg # of iterations =  1.2

     negative rho (up, down):  2.052E-03 0.000E+00

     total cpu time spent up to now is      803.0 secs

     total energy              =   -1842.89469424 Ry
     Harris-Foulkes estimate   =   -1842.90331052 Ry
     estimated scf accuracy    <       0.57851329 Ry

     iteration #  4     ecut=    60.00 Ry     beta= 0.70
     Davidson diagonalization with overlap
     ethr =  2.49E-04,  avg # of iterations =  1.0

     negative rho (up, down):  1.399E-03 0.000E+00

     total cpu time spent up to now is      816.7 secs

     total energy              =   -1842.89497210 Ry
     Harris-Foulkes estimate   =   -1842.89915824 Ry
     estimated scf accuracy    <       0.23012497 Ry

     iteration #  5     ecut=    60.00 Ry     beta= 0.70
     Davidson diagonalization with overlap
     ethr =  1.01E-04,  avg # of iterations =  1.0

     negative rho (up, down):  1.300E-03 0.000E+00

     total cpu time spent up to now is      830.1 secs

     total energy              =   -1842.89311967 Ry
     Harris-Foulkes estimate   =   -1842.89682695 Ry
     estimated scf accuracy    <       0.10561923 Ry

     iteration #  6     ecut=    60.00 Ry     beta= 0.70
     Davidson diagonalization with overlap
     ethr =  4.65E-05,  avg # of iterations =  1.5

     negative rho (up, down):  1.096E-03 0.000E+00

     total cpu time spent up to now is      844.2 secs

     total energy              =   -1842.89447186 Ry
     Harris-Foulkes estimate   =   -1842.89509302 Ry
     estimated scf accuracy    <       0.04347019 Ry

     iteration #  7     ecut=    60.00 Ry     beta= 0.70
     Davidson diagonalization with overlap
     ethr =  1.91E-05,  avg # of iterations =  6.4

     negative rho (up, down):  1.008E-03 0.000E+00

     total cpu time spent up to now is      863.1 secs

     total energy              =   -1842.89453808 Ry
     Harris-Foulkes estimate   =   -1842.89489189 Ry
     estimated scf accuracy    <       0.02171645 Ry

     iteration #  8     ecut=    60.00 Ry     beta= 0.70
     Davidson diagonalization with overlap
     ethr =  9.57E-06,  avg # of iterations =  4.6

     negative rho (up, down):  8.535E-04 0.000E+00

     total cpu time spent up to now is      880.1 secs

     total energy              =   -1842.89438254 Ry
     Harris-Foulkes estimate   =   -1842.89469365 Ry
     estimated scf accuracy    <       0.01272517 Ry

     iteration #  9     ecut=    60.00 Ry     beta= 0.70
     Davidson diagonalization with overlap
     ethr =  5.61E-06,  avg # of iterations =  5.0

     negative rho (up, down):  8.259E-04 0.000E+00

     total cpu time spent up to now is      897.2 secs

     total energy              =   -1842.89443605 Ry
     Harris-Foulkes estimate   =   -1842.89450715 Ry
     estimated scf accuracy    <       0.00216947 Ry

     iteration # 10     ecut=    60.00 Ry     beta= 0.70
     Davidson diagonalization with overlap
     ethr =  9.56E-07,  avg # of iterations =  5.9

     negative rho (up, down):  8.111E-04 0.000E+00

     total cpu time spent up to now is      915.7 secs

     total energy              =   -1842.89447106 Ry
     Harris-Foulkes estimate   =   -1842.89448421 Ry
     estimated scf accuracy    <       0.00170650 Ry

     iteration # 11     ecut=    60.00 Ry     beta= 0.70
     Davidson diagonalization with overlap
     ethr =  7.52E-07,  avg # of iterations =  1.2

     negative rho (up, down):  8.364E-04 0.000E+00

     total cpu time spent up to now is      929.5 secs

     total energy              =   -1842.89447010 Ry
     Harris-Foulkes estimate   =   -1842.89448163 Ry
     estimated scf accuracy    <       0.00074010 Ry

     iteration # 12     ecut=    60.00 Ry     beta= 0.70
     Davidson diagonalization with overlap
     ethr =  3.26E-07,  avg # of iterations =  1.3

     negative rho (up, down):  8.737E-04 0.000E+00

     total cpu time spent up to now is      943.4 secs

     total energy              =   -1842.89447486 Ry
     Harris-Foulkes estimate   =   -1842.89447812 Ry
     estimated scf accuracy    <       0.00025679 Ry

     iteration # 13     ecut=    60.00 Ry     beta= 0.70
     Davidson diagonalization with overlap
     ethr =  1.13E-07,  avg # of iterations =  1.0

     negative rho (up, down):  9.279E-04 0.000E+00

     total cpu time spent up to now is      956.9 secs

     total energy              =   -1842.89447607 Ry
     Harris-Foulkes estimate   =   -1842.89447753 Ry
     estimated scf accuracy    <       0.00010096 Ry

     iteration # 14     ecut=    60.00 Ry     beta= 0.70
     Davidson diagonalization with overlap
     ethr =  4.45E-08,  avg # of iterations =  1.2

     negative rho (up, down):  9.915E-04 0.000E+00

     total cpu time spent up to now is      970.7 secs

     total energy              =   -1842.89447686 Ry
     Harris-Foulkes estimate   =   -1842.89447789 Ry
     estimated scf accuracy    <       0.00005011 Ry

     iteration # 15     ecut=    60.00 Ry     beta= 0.70
     Davidson diagonalization with overlap
     ethr =  2.21E-08,  avg # of iterations =  1.3

     negative rho (up, down):  1.087E-03 0.000E+00

     total cpu time spent up to now is      984.6 secs

     total energy              =   -1842.89447674 Ry
     Harris-Foulkes estimate   =   -1842.89447775 Ry
     estimated scf accuracy    <       0.00004847 Ry

     iteration # 16     ecut=    60.00 Ry     beta= 0.70
     Davidson diagonalization with overlap
     ethr =  2.14E-08,  avg # of iterations =  1.2

     negative rho (up, down):  1.127E-03 0.000E+00

     total cpu time spent up to now is      998.3 secs

     total energy              =   -1842.89447685 Ry
     Harris-Foulkes estimate   =   -1842.89447720 Ry
     estimated scf accuracy    <       0.00001363 Ry

     iteration # 17     ecut=    60.00 Ry     beta= 0.70
     Davidson diagonalization with overlap
     ethr =  6.00E-09,  avg # of iterations =  1.0

     negative rho (up, down):  1.270E-03 0.000E+00

     total cpu time spent up to now is     1011.8 secs

     total energy              =   -1842.89447612 Ry
     Harris-Foulkes estimate   =   -1842.89447717 Ry
     estimated scf accuracy    <       0.00001089 Ry

     iteration # 18     ecut=    60.00 Ry     beta= 0.70
     Davidson diagonalization with overlap
     ethr =  4.80E-09,  avg # of iterations =  1.0

     negative rho (up, down):  1.336E-03 0.000E+00

     total cpu time spent up to now is     1025.5 secs

     total energy              =   -1842.89447603 Ry
     Harris-Foulkes estimate   =   -1842.89447638 Ry
     estimated scf accuracy    <       0.00000300 Ry

     iteration # 19     ecut=    60.00 Ry     beta= 0.70
     Davidson diagonalization with overlap
     ethr =  1.32E-09,  avg # of iterations =  1.3

     negative rho (up, down):  1.385E-03 0.000E+00

     total cpu time spent up to now is     1039.2 secs

     total energy              =   -1842.89447590 Ry
     Harris-Foulkes estimate   =   -1842.89447612 Ry
     estimated scf accuracy    <       0.00000318 Ry

     iteration # 20     ecut=    60.00 Ry     beta= 0.70
     Davidson diagonalization with overlap
     ethr =  1.32E-09,  avg # of iterations =  1.0

     negative rho (up, down):  1.453E-03 0.000E+00

     total cpu time spent up to now is     1052.7 secs

     total energy              =   -1842.89447570 Ry
     Harris-Foulkes estimate   =   -1842.89447594 Ry
     estimated scf accuracy    <       0.00000140 Ry

     iteration # 21     ecut=    60.00 Ry     beta= 0.70
     Davidson diagonalization with overlap
     ethr =  6.15E-10,  avg # of iterations =  1.0

     negative rho (up, down):  1.446E-03 0.000E+00

     total cpu time spent up to now is     1066.2 secs

     total energy              =   -1842.89447572 Ry
     Harris-Foulkes estimate   =   -1842.89447575 Ry
     estimated scf accuracy    <       0.00000185 Ry

     iteration # 22     ecut=    60.00 Ry     beta= 0.70
     Davidson diagonalization with overlap
     ethr =  6.15E-10,  avg # of iterations =  1.0

     negative rho (up, down):  1.483E-03 0.000E+00

     total cpu time spent up to now is     1079.6 secs

     total energy              =   -1842.89447564 Ry
     Harris-Foulkes estimate   =   -1842.89447574 Ry
     estimated scf accuracy    <       0.00000041 Ry

     iteration # 23     ecut=    60.00 Ry     beta= 0.70
     Davidson diagonalization with overlap
     ethr =  1.81E-10,  avg # of iterations =  1.2

     negative rho (up, down):  1.521E-03 0.000E+00

     total cpu time spent up to now is     1093.5 secs

     total energy              =   -1842.89447559 Ry
     Harris-Foulkes estimate   =   -1842.89447566 Ry
     estimated scf accuracy    <       0.00000041 Ry

     iteration # 24     ecut=    60.00 Ry     beta= 0.70
     Davidson diagonalization with overlap
     ethr =  1.80E-10,  avg # of iterations =  1.0

     negative rho (up, down):  1.516E-03 0.000E+00

     total cpu time spent up to now is     1107.0 secs

     total energy              =   -1842.89447560 Ry
     Harris-Foulkes estimate   =   -1842.89447560 Ry
     estimated scf accuracy    <       0.00000022 Ry

     iteration # 25     ecut=    60.00 Ry     beta= 0.70
     Davidson diagonalization with overlap
     ethr =  9.73E-11,  avg # of iterations =  1.0

     negative rho (up, down):  1.514E-03 0.000E+00

     total cpu time spent up to now is     1120.6 secs

     total energy              =   -1842.89447560 Ry
     Harris-Foulkes estimate   =   -1842.89447560 Ry
     estimated scf accuracy    <       0.00000014 Ry

     iteration # 26     ecut=    60.00 Ry     beta= 0.70
     Davidson diagonalization with overlap
     ethr =  6.36E-11,  avg # of iterations =  1.0

     negative rho (up, down):  1.522E-03 0.000E+00

     total cpu time spent up to now is     1134.0 secs

     total energy              =   -1842.89447559 Ry
     Harris-Foulkes estimate   =   -1842.89447561 Ry
     estimated scf accuracy    <       0.00000004 Ry

     iteration # 27     ecut=    60.00 Ry     beta= 0.70
     Davidson diagonalization with overlap
     ethr =  1.63E-11,  avg # of iterations =  1.4

     negative rho (up, down):  1.522E-03 0.000E+00

     total cpu time spent up to now is     1147.7 secs

     total energy              =   -1842.89447559 Ry
[...]
    -7.9696  -7.9020  -7.8915  -7.8678  -7.7830  -7.7175  -7.6301  -3.2582
    -3.1657  -2.9986  -2.9264  -2.6186  -2.5148  -2.4637  -2.3767  -2.3717
    -2.3432  -2.3178  -2.1948  -2.0950  -1.9638  -1.7939  -1.7497  -1.6245
    -1.5935  -1.5169  -1.2415  -1.1481  -1.0282  -0.9325  -0.8849  -0.8748
    -0.8485  -0.7976  -0.7382  -0.6969  -0.6560  -0.6387  -0.5838  -0.4957
    -0.4333  -0.3565  -0.3092   0.0251   0.1053   0.2723   0.4327   0.4581
     0.6196   0.6646   0.7585   0.8060   0.8137   0.9846   1.0187   1.0577
     1.1633   1.1979   1.2149   1.2578   1.3792   1.3879   1.4036   1.4487
     1.5602   1.6078   1.6397   1.6542   1.6801   1.7057   1.7253   1.7403
     1.7507   1.7569   1.7893   1.8069   1.8232   1.8940   2.0976   2.2680
     2.9265   2.9424   3.6387   3.7075   3.7519   3.8247   3.8333   6.3230
     6.6736   6.7187   7.4065   7.5644   8.3650   8.3717   8.5949   8.7695
     9.0861   9.2633   9.3521   9.3559   9.4147   9.4903   9.5488   9.7025
     9.7262

          k = 0.3750 0.3960 0.0000 ( 34365 PWs)   bands (ev):

   -35.8856 -35.6643 -22.6029 -22.5913 -22.4837 -22.3532 -17.1935 -17.1823
   -17.0425 -17.0243 -16.9274 -16.7659 -14.6915 -14.5303 -14.4687 -14.4311
   -14.3723 -14.2628 -14.2514 -14.2358 -14.1845 -14.0999 -14.0779 -14.0033
   -13.9907 -13.8722 -13.8455  -8.5961  -8.5496  -8.4542  -8.3295  -8.2596
    -8.2335  -8.0827  -8.0092  -7.9764  -7.9554  -7.9012  -7.7525  -3.7399
    -3.6209  -3.4580  -3.3748  -3.3152  -2.9503  -2.9321  -2.6355  -2.5878
    -2.4834  -2.4053  -2.2071  -2.1105  -2.1028  -2.0684  -1.9592  -1.8644
    -1.8411  -1.6195  -1.2677  -1.1990  -1.1862  -1.1591  -1.1093  -0.9711
    -0.9344  -0.8834  -0.8675  -0.8611  -0.8171  -0.7697  -0.7179  -0.6832
    -0.5672  -0.3607  -0.2950   0.1599   0.2556   0.3238   0.5709   0.6467
     0.8653   1.0139   1.0276   1.1424   1.1947   1.2345   1.2868   1.3338
     1.3694   1.4394   1.4613   1.4996   1.5336   1.5529   1.5751   1.6817
     1.7162   1.7456   1.7856   1.8036   1.8641   1.8892   1.9374   1.9940
     2.0152   2.0751   2.0767   2.1480   2.1595   2.1727   2.1968   2.4082
     2.7475   2.7628   4.0663   4.2176   4.2347   4.2854   4.3063   5.8777
     6.3713   6.4360   7.1242   7.2893   8.7878   8.8084   8.9046   9.0011
     9.2788   9.3561   9.3749   9.4500   9.4630   9.5498   9.5868   9.7239
     9.7702

          k = 0.3750-0.5279 0.0000 ( 34392 PWs)   bands (ev):

   -35.8839 -35.6625 -22.5802 -22.5690 -22.4625 -22.3312 -17.2277 -17.1815
   -17.0770 -17.0303 -16.9029 -16.7332 -14.6228 -14.4442 -14.4145 -14.3608
   -14.2796 -14.2728 -14.2003 -14.1805 -14.1784 -14.0809 -14.0755 -14.0662
   -14.0132 -13.9219 -13.8095  -8.6795  -8.6263  -8.5560  -8.4200  -8.4063
    -8.3845  -8.2363  -8.0494  -8.0310  -7.9971  -7.9265  -7.7617  -3.9468
    -3.8196  -3.6897  -3.5934  -3.5263  -3.1748  -3.1573  -2.6505  -2.6022
    -2.4938  -2.4092  -2.2193  -2.2009  -2.1786  -2.1038  -1.9549  -1.9518
    -1.9317  -1.6466  -1.3453  -1.2918  -1.2633  -1.2265  -1.1594  -0.9728
    -0.9695  -0.9610  -0.9418  -0.9071  -0.9019  -0.8673  -0.7415  -0.7118
    -0.5356  -0.3433  -0.2725   0.1950   0.2937   0.3401   0.6249   0.7301
     0.9398   1.1642   1.1758   1.2547   1.2869   1.3319   1.3382   1.3429
     1.3836   1.5165   1.5469   1.5756   1.6177   1.6873   1.7159   1.7450
     1.8054   1.8234   1.8251   1.9073   2.0048   2.0155   2.0297   2.1431
     2.1629   2.2022   2.2191   2.2842   2.3479   2.3509   2.3733   2.4796
     2.4953   2.5160   4.1549   4.3435   4.3800   4.4228   4.4522   5.6812
     6.1943   6.2659   7.0261   7.1969   8.6567   8.8475   8.9619   9.0592
     9.2096   9.2991   9.5317   9.5364   9.6804   9.6907   9.7037   9.7872
     9.8749

          k =-0.5000 0.0000 0.0000 ( 34370 PWs)   bands (ev):

   -35.8941 -35.6734 -22.7120 -22.6993 -22.5863 -22.4591 -17.2685 -17.1346
   -17.0302 -16.9315 -16.8986 -16.7095 -15.0629 -15.0155 -14.8886 -14.6807
   -14.6242 -14.4394 -14.4007 -14.3233 -14.2534 -14.2128 -14.1715 -14.0372
   -13.9649 -13.9566 -13.7573  -7.9855  -7.9674  -7.9313  -7.7393  -7.6866
    -7.6838  -7.5200  -7.4969  -7.4626  -7.4120  -7.3485  -7.2321  -3.0321
    -2.9967  -2.8643  -2.7762  -2.2803  -2.1045  -2.0127  -1.6295  -1.6269
    -1.6066  -1.5179  -1.4110  -1.4052  -1.2979  -1.2463  -1.2233  -1.2049
    -1.1975  -1.1822  -1.1341  -1.1054  -1.0224  -1.0096  -0.9545  -0.9230
    -0.9164  -0.7638  -0.6250  -0.5811  -0.4852  -0.4400  -0.3875  -0.3218
    -0.2437  -0.2383  -0.1877  -0.1429   0.0596   0.0768   0.1327   0.1779
     0.1937   0.4013   0.4249   0.4315   0.4516   0.4526   0.5339   0.5578
     0.5712   0.7520   0.7718   0.8352   0.9000   1.1006   1.1199   1.1682
     1.2828   1.3265   1.3863   1.4195   1.4688   1.5866   1.5944   1.6076
     1.6113   1.7029   1.7050   1.8632   1.9186   1.9244   1.9325   2.1209
     2.1811   2.2575   2.3923   2.4952   2.5769   2.7773   2.7933   6.9371
     7.2498   7.2792   7.2979   7.3090   8.0556   8.2160   8.3823   8.4930
     8.9024   8.9938   9.1998   9.2714   9.3684   9.3700   9.4564   9.5337
     9.6169

          k =-0.5000 0.1320 0.0000 ( 34378 PWs)   bands (ev):

   -35.8925 -35.6717 -22.6915 -22.6791 -22.5670 -22.4392 -17.2615 -17.1260
   -17.0126 -16.9746 -16.8727 -16.7685 -15.0045 -14.9426 -14.8319 -14.6393
   -14.5825 -14.3974 -14.3622 -14.2698 -14.2157 -14.1910 -14.1507 -14.0046
   -13.9910 -13.9879 -13.7578  -8.0014  -7.9890  -7.9642  -7.8159  -7.8094
    -7.7562  -7.7031  -7.6639  -7.6433  -7.5704  -7.5305  -7.4464  -3.0965
    -3.0521  -2.9139  -2.8257  -2.2921  -2.1291  -2.0724  -2.0202  -1.9486
    -1.8393  -1.8112  -1.6782  -1.6246  -1.6159  -1.5134  -1.4656  -1.4338
    -1.4241  -1.3254  -1.3096  -1.2440  -1.0881  -1.0203  -0.8713  -0.8159
    -0.7082  -0.6882  -0.6544  -0.5639  -0.5408  -0.4413  -0.4109  -0.3003
    -0.2893  -0.0869  -0.0680   0.0282   0.0323   0.1015   0.1654   0.2069
     0.2565   0.3472   0.3600   0.5107   0.5360   0.5848   0.6311   0.7507
     0.7783   0.8840   0.9644   1.0099   1.0869   1.1293   1.1448   1.2511
     1.2771   1.2967   1.4060   1.4839   1.5417   1.5801   1.6321   1.6446
     1.6792   1.7032   1.7355   1.8697   1.8882   1.8951   1.9308   2.2637
     2.7220   2.7434   2.8732   2.9403   2.9854   3.1487   3.1778   6.7324
     7.0980   7.1357   7.6018   7.6041   7.9702   8.1104   8.2516   8.4231
     9.1558   9.2013   9.2359   9.3750   9.4403   9.4735   9.5617   9.5856
     9.6733

          k =-0.5000 0.2640 0.0000 ( 34396 PWs)   bands (ev):

   -35.8885 -35.6675 -22.6412 -22.6294 -22.5195 -22.3903 -17.2450 -17.1055
   -17.0856 -16.9559 -16.9023 -16.8062 -14.8509 -14.7411 -14.6809 -14.5404
   -14.4794 -14.2915 -14.2663 -14.1785 -14.1545 -14.1416 -14.1063 -14.0525
   -14.0239 -13.9241 -13.7809  -8.2633  -8.2176  -8.1173  -8.1137  -8.1039
    -8.0061  -7.9547  -7.9397  -7.9140  -7.9070  -7.7998  -7.7167  -3.3974
    -3.3154  -3.1440  -3.0663  -2.6101  -2.5415  -2.4895  -2.3961  -2.3739
    -2.3416  -2.3360  -2.2069  -2.1002  -1.9777  -1.9205  -1.8767  -1.7047
    -1.6525  -1.5836  -1.1760  -1.1100  -1.0103  -0.9371  -0.9154  -0.8716
    -0.8438  -0.8232  -0.7617  -0.7377  -0.6833  -0.6690  -0.5856  -0.5066
    -0.4390  -0.3705  -0.3227   0.0406   0.1135   0.3212   0.4876   0.4967
     0.6613   0.7008   0.8336   0.8341   0.8440   1.0670   1.0776   1.1221
     1.1603   1.1696   1.2012   1.2091   1.3759   1.4264   1.4666   1.5316
     1.5666   1.5937   1.6767   1.6773   1.6959   1.7498   1.7580   1.7997
     1.8082   1.8288   1.8940   1.9067   1.9349   1.9551   2.0088   2.2109
     2.9232   2.9366   3.6416   3.8436   3.8854   3.9571   3.9652   6.2024
     6.6699   6.7271   7.3295   7.4949   8.3813   8.4058   8.7570   8.9772
     9.1178   9.3446   9.4697   9.4983   9.5069   9.5538   9.7037   9.7489
     9.8260

          k =-0.5000 0.3960 0.0000 ( 34384 PWs)   bands (ev):

   -35.8846 -35.6632 -22.5897 -22.5786 -22.4711 -22.3403 -17.2287 -17.1842
   -17.0854 -17.0240 -16.9027 -16.7358 -14.6626 -14.5035 -14.4794 -14.4395
   -14.3766 -14.2255 -14.1802 -14.1799 -14.1682 -14.0966 -14.0771 -13.9974
   -13.9868 -13.8710 -13.8401  -8.6440  -8.5910  -8.5099  -8.4064  -8.3888
    -8.3797  -8.2350  -8.0470  -8.0229  -7.9822  -7.9588  -7.7530  -3.8695
    -3.7545  -3.5693  -3.4834  -3.3313  -2.9419  -2.9244  -2.7109  -2.6694
    -2.5559  -2.4733  -2.2169  -2.2163  -2.1723  -2.1122  -1.9638  -1.9344
    -1.8801  -1.6632  -1.2312  -1.2021  -1.1740  -1.0997  -1.0602  -1.0312
    -1.0225  -0.9024  -0.8918  -0.8428  -0.8025  -0.8000  -0.7696  -0.7595
    -0.5493  -0.3223  -0.2600   0.1810   0.2735   0.3810   0.6694   0.7357
     0.9543   1.0937   1.1589   1.2645   1.2780   1.3213   1.3415   1.3672
     1.4344   1.4495   1.5448   1.5529   1.5796   1.5822   1.6234   1.7123
     1.7345   1.8164   1.8266   1.8634   1.9064   1.9525   1.9939   2.0351
     2.0790   2.1231   2.1307   2.1857   2.1936   2.2609   2.3321   2.3553
     2.7387   2.7524   4.0555   4.4809   4.4896   4.5238   4.5505   5.6584
     6.1775   6.2502   6.9701   7.1368   8.7242   8.8128   8.8436   8.9813
     9.2245   9.3541   9.4988   9.5013   9.6142   9.6287   9.6654   9.7248
     9.7894

          k =-0.5000-0.5279 0.0000 ( 34420 PWs)   bands (ev):

   -35.8830 -35.6615 -22.5680 -22.5572 -22.4507 -22.3192 -17.2237 -17.2220
   -17.0772 -17.0719 -16.8796 -16.7049 -14.5532 -14.4515 -14.3917 -14.3549
   -14.2728 -14.2664 -14.2071 -14.1365 -14.1297 -14.0761 -14.0713 -13.9764
   -13.9594 -13.9593 -13.8061  -8.7923  -8.7372  -8.6690  -8.5322  -8.5232
    -8.5045  -8.3573  -8.1433  -8.0469  -8.0057  -7.9642  -7.7638  -4.0780
    -3.9530  -3.7761  -3.6825  -3.5854  -3.1654  -3.1485  -2.7409  -2.7015
    -2.5814  -2.4923  -2.3128  -2.2682  -2.2058  -2.1123  -2.0117  -1.9540
    -1.9499  -1.6887  -1.3471  -1.2921  -1.2604  -1.1677  -1.1009  -1.0386
    -1.0153  -0.9962  -0.9892  -0.9097  -0.8707  -0.8698  -0.8283  -0.7958
    -0.5092  -0.2933  -0.2302   0.2191   0.3139   0.3954   0.7404   0.8474
     1.0501   1.2616   1.3419   1.3430   1.3484   1.3820   1.3953   1.4300
     1.4567   1.5992   1.6168   1.6271   1.6327   1.6773   1.8200   1.8458
     1.8673   1.9244   1.9497   1.9793   2.0260   2.0370   2.0985   2.1415
     2.2141   2.2864   2.3222   2.3447   2.3478   2.4306   2.4733   2.4938
     2.5093   2.5303   4.1398   4.6553   4.6892   4.7152   4.7519   5.4249
     5.9518   6.0303   6.8654   7.0330   8.6565   8.7757   8.9272   8.9378
     8.9739   9.0271   9.3328   9.4943   9.5953   9.6978   9.7494   9.8641
     9.9203

     the Fermi energy is     2.5377 ev

!    total energy              =   -1842.89481610 Ry
     Harris-Foulkes estimate   =   -1842.89481610 Ry
     estimated scf accuracy    <          6.7E-11 Ry

     The total energy is the sum of the following terms:

     one-electron contribution =  -31086.05613382 Ry
     hartree contribution      =   15695.99728134 Ry
     xc contribution           =    -621.58813420 Ry
     ewald contribution        =   14168.76054566 Ry
     smearing contrib. (-TS)   =      -0.00837508 Ry

     convergence has been achieved in  23 iterations

     negative rho (up, down):  1.519E-03 0.000E+00

     Forces acting on atoms (cartesian axes, Ry/au):

     atom    1 type  4   force =     0.00000000    0.00000000    0.00081036
     atom    2 type  3   force =     0.00000000    0.00000000    0.00780459
     atom    3 type  4   force =     0.00000000    0.00000000   -0.00558495
     atom    4 type  1   force =     0.00000000    0.00000000    0.00195330
     atom    5 type  3   force =     0.00000000    0.00000000   -0.00088094
     atom    6 type  4   force =     0.00000000    0.00000000    0.00083387
     atom    7 type  4   force =     0.00000000    0.00000000    0.00166556
     atom    8 type  2   force =     0.00000000    0.00000000   -0.00049564
     atom    9 type  4   force =     0.00000000    0.00000000   -0.00094494
     atom   10 type  4   force =     0.00000000    0.00000000   -0.00091159
     atom   11 type  3   force =     0.00000000    0.00000000    0.00033100
     atom   12 type  1   force =     0.00000000    0.00000000   -0.00063242
     atom   13 type  4   force =     0.00000000    0.00000000    0.00718704
     atom   14 type  4   force =     0.00000000    0.00000000    0.00137782
     atom   15 type  3   force =     0.00000000    0.00000000   -0.00158054
     atom   16 type  4   force =     0.00000000    0.00000000   -0.00282729
     atom   17 type  1   force =     0.00000000    0.00000000    0.00666723
     atom   18 type  3   force =     0.00000000    0.00000000    0.00578695
     atom   19 type  4   force =     0.00000000    0.00000000    0.00229316
     atom   20 type  4   force =     0.00000000    0.00000000    0.00223451
     atom   21 type  2   force =     0.00000000    0.00000000   -0.00178442
     atom   22 type  4   force =     0.00000000    0.00000000   -0.00379065
     atom   23 type  4   force =     0.00000000    0.00000000   -0.00935323
     atom   24 type  3   force =     0.00000000    0.00000000    0.00604418
     atom   25 type  1   force =     0.00000000    0.00000000   -0.00606142
     atom   26 type  4   force =     0.00000000    0.00000000    0.00652359
     atom   27 type  3   force =     0.00000000    0.00000000   -0.01624759
     atom   28 type  4   force =     0.00000000    0.00000000   -0.00041755

     Total force =     0.016267     Total SCF correction =     0.000022


     Computing stress (Cartesian axis) and pressure


     negative rho (up, down):  1.519E-03 0.000E+00
          total   stress  (Ry/bohr**3)                   (kbar)     P=      -10.58
  -0.00004062   0.00000000   0.00000000           -5.98        0.00        0.00
   0.00000000  -0.00005077   0.00000000            0.00       -7.47        0.00
   0.00000000   0.00000000  -0.00012435            0.00        0.00      -18.29


     BFGS Geometry Optimization

     bfgs converged in   1 scf cycles and   0 bfgs steps
     (criteria: energy <  1.0E-03 Ry, force <  1.0E-02 Ry/Bohr)

     End of BFGS Geometry Optimization

     Final energy   =   -1842.8948161009 Ry
Begin final coordinates

ATOMIC_POSITIONS (angstrom)
O             0.0000000000        1.8611200000       -0.1866255867    0   0   0
Cu            0.0000000000        0.0000000000        0.1051095683    0   0   0
O             0.0000000000        0.0000000000        1.9987396139    0   0   0
Ba            1.9651100000        1.8611200000        2.2607048441    0   0   0
Cu            0.0000000000        0.0000000000        4.1216031353    0   0   0
O             1.9651100000        0.0000000000        4.2780746690    0   0   0
O             0.0000000000        1.8611200000        4.4166842479    0   0   0
Ca            1.9651100000        1.8611200000        5.9499415188    0   0   0
O             0.0000000000        1.8611200000        7.4164514846    0   0   0
O             1.9651100000        0.0000000000        7.5660693650    0   0   0
Cu            0.0000000000        0.0000000000        7.7521693028    0   0   0
Ba            1.9651100000        1.8611200000        9.6525013722    0   0   0
O             0.0000000000        0.0000000000        9.9781206658    0   0   0
O             0.0000000000        1.8611200000       11.8863779037    0   0   0
Cu            0.0000000000        0.0000000000       11.8866002936    0   0   0
O             0.0000000000        0.0000000000       13.7950293782    0   0   0
Ba            1.9651100000        1.8611200000       14.1206183459    0   0   0
Cu            0.0000000000        0.0000000000       16.0657783680
O             1.9651100000        0.0000000000       16.3050379035
O             0.0000000000        1.8611200000       16.4223384298
Ca            1.9651100000        1.8611200000       17.9536824985
O             0.0000000000        1.8611200000       19.4876110866
O             1.9651100000        0.0000000000       19.7364019620
Cu            0.0000000000        0.0000000000       19.8130748866
Ba            1.9651100000        1.8611200000       21.7508960059
O             0.0000000000        0.0000000000       22.0360229330
Cu            0.0000000000        0.0000000000       23.9445091219    0   0   0
O             0.0000000000        1.8611200000       24.2361937337    0   0   0
End final coordinates


 
     init_run     :     13.09s CPU     13.38s WALL (       1 calls)
     electrons    :   1428.37s CPU   1480.09s WALL (       3 calls)
     update_pot   :      3.33s CPU      3.35s WALL (       2 calls)
     forces       :     12.90s CPU     13.41s WALL (       3 calls)
     stress       :     74.62s CPU     75.93s WALL (       3 calls)

     Called by init_run:
     wfcinit      :      5.65s CPU      5.75s WALL (       1 calls)
     potinit      :      3.57s CPU      3.59s WALL (       1 calls)
     hinit0       :      2.79s CPU      2.80s WALL (       1 calls)

     Called by electrons:
     c_bands      :   1067.42s CPU   1093.00s WALL (      97 calls)
     sum_band     :    231.11s CPU    244.89s WALL (      97 calls)
     v_of_rho     :     11.34s CPU     11.42s WALL (     100 calls)
     newd         :     70.40s CPU     82.55s WALL (     100 calls)
     mix_rho      :     50.27s CPU     50.65s WALL (      97 calls)

     Called by c_bands:
     init_us_2    :     11.18s CPU     11.24s WALL (    5025 calls)
     cegterg      :    992.09s CPU   1015.82s WALL (    2425 calls)

     Called by sum_band:
     sum_band:bec :      0.51s CPU      0.51s WALL (    2425 calls)
     addusdens    :     56.11s CPU     68.38s WALL (      97 calls)

     Called by *egterg:
     h_psi        :    524.73s CPU    541.27s WALL (    8103 calls)
     s_psi        :     37.34s CPU     37.74s WALL (    8103 calls)
     g_psi        :      1.25s CPU      1.26s WALL (    5653 calls)
     cdiaghg      :    184.29s CPU    185.04s WALL (    8028 calls)

     Called by h_psi:
     h_psi:calbec :     63.44s CPU     66.23s WALL (    8103 calls)
     vloc_psi     :    419.08s CPU    424.53s WALL (    8103 calls)
     add_vuspsi   :     39.47s CPU     43.62s WALL (    8103 calls)

     General routines
     calbec       :    123.42s CPU    126.41s WALL (   10903 calls)
     fft          :     18.09s CPU     18.16s WALL (    1371 calls)
     ffts         :     27.97s CPU     28.17s WALL (   43159 calls)
     fftw         :    493.94s CPU    500.17s WALL ( 1734699 calls)
     interpolate  :      0.77s CPU      0.78s WALL (     100 calls)
 
     Parallel routines
     fft_scatt_xy :     48.81s CPU     49.30s WALL ( 1779229 calls)
     fft_scatt_yz :    374.06s CPU    378.64s WALL ( 1779229 calls)
 
     PWSCF        :  25m35.49s CPU  26m41.83s WALL

 
   This run was terminated on:  19:23: 8   9Jul2021            

=------------------------------------------------------------------------------=
   JOB DONE.
=------------------------------------------------------------------------------=
[1625872988.506148] [holy7c04207:152189:0]          mpool.c:43   UCX  WARN  object 0x371d1c0 was not returned to mpool ucp_requests
[1625872988.506166] [holy7c04207:152189:0]          mpool.c:43   UCX  WARN  object 0x371d380 was not returned to mpool ucp_requests
[1625872988.513654] [holy7c04207:152190:0]          mpool.c:43   UCX  WARN  object 0x30dc340 was not returned to mpool ucp_requests
[1625872988.514395] [holy7c04207:152194:0]          mpool.c:43   UCX  WARN  object 0x4648f00 was not returned to mpool ucp_requests
[1625872988.514413] [holy7c04207:152194:0]          mpool.c:43   UCX  WARN  object 0x4649280 was not returned to mpool ucp_requests
[1625872988.515901] [holy7c06605:239226:0]          mpool.c:43   UCX  WARN  object 0x3421880 was not returned to mpool ucp_requests
[1625872988.516914] [holy7c06605:239225:0]          mpool.c:43   UCX  WARN  object 0x3d9f740 was not returned to mpool ucp_requests
[1625872988.516933] [holy7c06605:239225:0]          mpool.c:43   UCX  WARN  object 0x3d9f900 was not returned to mpool ucp_requests
[1625872988.519185] [holy7c06605:239227:0]          mpool.c:43   UCX  WARN  object 0x3985740 was not returned to mpool ucp_requests
