
     Program PWSCF v.6.5 starts on 28Jun2021 at 23:19:30 

     This program is part of the open-source Quantum ESPRESSO suite
     for quantum simulation of materials; please cite
         "P. Giannozzi et al., J. Phys.:Condens. Matter 21 395502 (2009);
         "P. Giannozzi et al., J. Phys.:Condens. Matter 29 465901 (2017);
          URL http://www.quantum-espresso.org", 
     in publications or presentations arising from this work. More details at
     http://www.quantum-espresso.org/quote

     Parallel version (MPI), running on    20 processors

     MPI processes distributed on     9 nodes
     R & G space division:  proc/nbgrp/npool/nimage =      20
     Reading input from CBCO_BaO_cleave_1.0_sep.pwi
Warning: card &CELL ignored
Warning: card     CELL_DYNAMICS = 'BFGS' ignored
Warning: card     PRESS_CONV_THR = 5 ignored
Warning: card / ignored

     Current dimensions of program PWSCF are:
     Max number of different atomic species (ntypx) = 10
     Max number of k-points (npk) =  40000
     Max angular momentum in pseudopotentials (lmaxx) =  3

     Subspace diagonalization in iterative solution of the eigenvalue problem:
     one sub-group per band group will be used
     scalapack distributed-memory algorithm (size of sub-group:  4*  4 procs)

     Message from routine setup:
     using ibrav=0 with symmetry is DISCOURAGED, use correct ibrav instead
 
     Parallelization info
     --------------------
     sticks:   dense  smooth     PW     G-vecs:    dense   smooth      PW
     Min         149      50     14                71773    13820    2160
     Max         150      51     15                71810    13841    2205
     Sum        2991    1007    289              1435837   276553   43473
 


     bravais-lattice index     =            0
     lattice parameter (alat)  =       7.4270  a.u.
     unit-cell volume          =    4401.0322 (a.u.)^3
     number of atoms/cell      =           28
     number of atomic types    =            4
     number of electrons       =       227.00
     number of Kohn-Sham states=          137
     kinetic-energy cutoff     =      60.0000  Ry
     charge density cutoff     =     720.0000  Ry
     convergence threshold     =      1.0E-10
     mixing beta               =       0.7000
     number of iterations used =           10  local-TF  mixing
     Exchange-correlation= SLA PW PBE PBE
                           (   1   4   3   4   0   0   0)
     nstep                     =          300


     celldm(1)=   7.427040  celldm(2)=   0.000000  celldm(3)=   0.000000
     celldm(4)=   0.000000  celldm(5)=   0.000000  celldm(6)=   0.000000

     crystal axes: (cart. coord. in units of alat)
               a(1) = (   1.000000   0.000000   0.000000 )  
               a(2) = (   0.000000   0.947081   0.000000 )  
               a(3) = (   0.000000   0.000000  11.342795 )  

     reciprocal axes: (cart. coord. in units 2 pi/alat)
               b(1) = (  1.000000  0.000000  0.000000 )  
               b(2) = (  0.000000  1.055876  0.000000 )  
               b(3) = (  0.000000  0.000000  0.088162 )  


     PseudoPot. # 1 for Ba read from file:
     ./pseudo/Ba.pbe-nsp-van.UPF
     MD5 check sum: 2b9c31dd849566dd297d80989662b7a0
     Pseudo is Ultrasoft + core correction, Zval = 10.0
     Generated by new atomic code, or converted to UPF format
     Using radial grid of  907 points,  6 beta functions with: 
                l(1) =   0
                l(2) =   0
                l(3) =   1
                l(4) =   1
                l(5) =   2
                l(6) =   2
     Q(r) pseudized with  6 coefficients,  rinner =    1.200   1.200   1.200
                                                       1.200   1.200

     PseudoPot. # 2 for Ca read from file:
     ./pseudo/Ca.pbe-nsp-van.UPF
     MD5 check sum: 6471098428ff4fa451746d08035ff179
     Pseudo is Ultrasoft + core correction, Zval = 10.0
     Generated by new atomic code, or converted to UPF format
     Using radial grid of  845 points,  6 beta functions with: 
                l(1) =   0
                l(2) =   0
                l(3) =   1
                l(4) =   1
                l(5) =   2
                l(6) =   2
     Q(r) pseudized with  6 coefficients,  rinner =    1.200   1.200   1.200
                                                       1.200   1.200

     PseudoPot. # 3 for Cu read from file:
     ./pseudo/Cu.pbe-n-van_ak.UPF
     MD5 check sum: 34e3282627ffb533726feb647e090d62
     Pseudo is Ultrasoft + core correction, Zval = 11.0
     Generated by new atomic code, or converted to UPF format
     Using radial grid of  867 points,  6 beta functions with: 
                l(1) =   0
                l(2) =   0
                l(3) =   1
                l(4) =   1
                l(5) =   2
                l(6) =   2
     Q(r) pseudized with  8 coefficients,  rinner =    1.400   1.400   1.400
                                                       1.400   1.400

     PseudoPot. # 4 for O  read from file:
     ./pseudo/O.pbe-van_ak.UPF
     MD5 check sum: 783ce7fe4c79b6a4916957118fed0856
     Pseudo is Ultrasoft, Zval =  6.0
     Generated by new atomic code, or converted to UPF format
     Using radial grid of  737 points,  4 beta functions with: 
                l(1) =   0
                l(2) =   0
                l(3) =   1
                l(4) =   1
     Q(r) pseudized with  8 coefficients,  rinner =    0.800   0.800   0.800


     atomic species   valence    mass     pseudopotential
        Ba            10.00   137.32700     Ba( 1.00)
        Ca            10.00    40.07800     Ca( 1.00)
        Cu            11.00    63.54600     Cu( 1.00)
        O              6.00    15.99900     O ( 1.00)

      4 Sym. Ops. (no inversion) found



   Cartesian axes

     site n.     atom                  positions (alat units)
         1           O   tau(   1) = (   0.0000000   0.4735409  -0.0469745  )
         2           Cu  tau(   2) = (   0.0000000   0.0000000   0.0264565  )
         3           O   tau(   3) = (   0.0000000   0.0000000   0.5030914  )
         4           Ba  tau(   4) = (   0.5000000   0.4735409   0.5690292  )
         5           Cu  tau(   5) = (   0.0000000   0.0000000   1.0374254  )
         6           O   tau(   6) = (   0.5000000   0.0000000   1.0768099  )
         7           O   tau(   7) = (   0.0000000   0.4735409   1.1116985  )
         8           Ca  tau(   8) = (   0.5000000   0.4735409   1.4976260  )
         9           O   tau(   9) = (   0.0000000   0.4735409   1.8667529  )
        10           O   tau(  10) = (   0.5000000   0.0000000   1.9044124  )
        11           Cu  tau(  11) = (   0.0000000   0.0000000   1.9512546  )
        12           Ba  tau(  12) = (   0.5000000   0.4735409   2.4295764  )
        13           O   tau(  13) = (   0.0000000   0.0000000   2.5115362  )
        14           O   tau(  14) = (   0.0000000   0.4735409   2.9664089  )
        15           Cu  tau(  15) = (   0.0000000   0.0000000   2.9664649  )
        16           O   tau(  16) = (   0.0000000   0.0000000   3.4468248  )
        17           Ba  tau(  17) = (   0.5000000   0.4735409   3.5287769  )
        18           Cu  tau(  18) = (   0.0000000   0.0000000   4.2615196  )
        19           O   tau(  19) = (   0.5000000   0.0000000   4.3338056  )
        20           O   tau(  20) = (   0.0000000   0.4735409   4.3460161  )
        21           Ca  tau(  21) = (   0.5000000   0.4735409   4.7151532  )
        22           O   tau(  22) = (   0.0000000   0.4735409   5.1265220  )
        23           O   tau(  23) = (   0.5000000   0.0000000   5.1614106  )
        24           Cu  tau(  24) = (   0.0000000   0.0000000   5.2007978  )
        25           Ba  tau(  25) = (   0.5000000   0.4735409   5.6691914  )
        26           O   tau(  26) = (   0.0000000   0.0000000   5.7351190  )
        27           Cu  tau(  27) = (   0.0000000   0.0000000   6.2117589  )
        28           O   tau(  28) = (   0.0000000   0.4735409   6.2851772  )

     number of k points=    25  Gaussian smearing, width (Ry)=  0.0100
                       cart. coord. in units 2pi/alat
        k(    1) = (   0.0000000   0.0000000   0.0000000), wk =   0.0312500
        k(    2) = (   0.0000000   0.1319845   0.0000000), wk =   0.0625000
        k(    3) = (   0.0000000   0.2639689   0.0000000), wk =   0.0625000
        k(    4) = (   0.0000000   0.3959534   0.0000000), wk =   0.0625000
        k(    5) = (   0.0000000  -0.5279378   0.0000000), wk =   0.0312500
        k(    6) = (   0.1250000   0.0000000   0.0000000), wk =   0.0625000
        k(    7) = (   0.1250000   0.1319845   0.0000000), wk =   0.1250000
        k(    8) = (   0.1250000   0.2639689   0.0000000), wk =   0.1250000
        k(    9) = (   0.1250000   0.3959534   0.0000000), wk =   0.1250000
        k(   10) = (   0.1250000  -0.5279378   0.0000000), wk =   0.0625000
        k(   11) = (   0.2500000   0.0000000   0.0000000), wk =   0.0625000
        k(   12) = (   0.2500000   0.1319845   0.0000000), wk =   0.1250000
        k(   13) = (   0.2500000   0.2639689   0.0000000), wk =   0.1250000
        k(   14) = (   0.2500000   0.3959534   0.0000000), wk =   0.1250000
        k(   15) = (   0.2500000  -0.5279378   0.0000000), wk =   0.0625000
        k(   16) = (   0.3750000   0.0000000   0.0000000), wk =   0.0625000
        k(   17) = (   0.3750000   0.1319845   0.0000000), wk =   0.1250000
        k(   18) = (   0.3750000   0.2639689   0.0000000), wk =   0.1250000
        k(   19) = (   0.3750000   0.3959534   0.0000000), wk =   0.1250000
        k(   20) = (   0.3750000  -0.5279378   0.0000000), wk =   0.0625000
        k(   21) = (  -0.5000000   0.0000000   0.0000000), wk =   0.0312500
        k(   22) = (  -0.5000000   0.1319845   0.0000000), wk =   0.0625000
        k(   23) = (  -0.5000000   0.2639689   0.0000000), wk =   0.0625000
        k(   24) = (  -0.5000000   0.3959534   0.0000000), wk =   0.0625000
        k(   25) = (  -0.5000000  -0.5279378   0.0000000), wk =   0.0312500

     Dense  grid:  1435837 G-vectors     FFT dimensions: (  64,  64, 720)

     Smooth grid:   276553 G-vectors     FFT dimensions: (  40,  36, 432)

     Estimated max dynamical RAM per process >     458.17 MB

     Estimated total dynamical RAM >       8.95 GB

     Initial potential from superposition of free atoms

     starting charge  226.84630, renormalised to  227.00000

     negative rho (up, down):  3.449E-03 0.000E+00
     Starting wfcs are  195 randomized atomic wfcs

     total cpu time spent up to now is       10.7 secs

     Self-consistent Calculation

     iteration #  1     ecut=    60.00 Ry     beta= 0.70
     Davidson diagonalization with overlap
     ethr =  1.00E-02,  avg # of iterations =  2.0

     negative rho (up, down):  2.875E-04 0.000E+00

     total cpu time spent up to now is       26.6 secs

     total energy              =   -1839.43738830 Ry
     Harris-Foulkes estimate   =   -1845.35443458 Ry
     estimated scf accuracy    <      17.69331433 Ry

     iteration #  2     ecut=    60.00 Ry     beta= 0.70
     Davidson diagonalization with overlap
     ethr =  7.79E-03,  avg # of iterations =  2.0

     negative rho (up, down):  2.591E-04 0.000E+00

     total cpu time spent up to now is       44.3 secs

     total energy              =   -1842.06155897 Ry
     Harris-Foulkes estimate   =   -1843.95474781 Ry
     estimated scf accuracy    <      11.93279826 Ry

     iteration #  3     ecut=    60.00 Ry     beta= 0.70
     Davidson diagonalization with overlap
     ethr =  5.26E-03,  avg # of iterations =  1.5

     negative rho (up, down):  2.440E-04 0.000E+00

     total cpu time spent up to now is       59.3 secs

     total energy              =   -1842.67796579 Ry
     Harris-Foulkes estimate   =   -1843.04685387 Ry
     estimated scf accuracy    <       2.68210162 Ry

     iteration #  4     ecut=    60.00 Ry     beta= 0.70
     Davidson diagonalization with overlap
     ethr =  1.18E-03,  avg # of iterations =  2.0

     negative rho (up, down):  2.387E-04 0.000E+00

     total cpu time spent up to now is       74.8 secs

     total energy              =   -1842.82960359 Ry
     Harris-Foulkes estimate   =   -1843.00774880 Ry
     estimated scf accuracy    <       5.89209445 Ry

     iteration #  5     ecut=    60.00 Ry     beta= 0.70
     Davidson diagonalization with overlap
     ethr =  1.18E-03,  avg # of iterations =  1.0

     negative rho (up, down):  2.360E-04 0.000E+00

     total cpu time spent up to now is       89.1 secs

     total energy              =   -1842.85647194 Ry
     Harris-Foulkes estimate   =   -1842.89943857 Ry
     estimated scf accuracy    <       0.89688757 Ry

     iteration #  6     ecut=    60.00 Ry     beta= 0.70
     Davidson diagonalization with overlap
     ethr =  3.95E-04,  avg # of iterations =  1.0

     negative rho (up, down):  2.340E-04 0.000E+00

     total cpu time spent up to now is      103.5 secs

     total energy              =   -1842.85975665 Ry
     Harris-Foulkes estimate   =   -1842.88733613 Ry
     estimated scf accuracy    <       1.12292237 Ry

     iteration #  7     ecut=    60.00 Ry     beta= 0.70
     Davidson diagonalization with overlap
     ethr =  3.95E-04,  avg # of iterations =  1.1

     negative rho (up, down):  2.338E-04 0.000E+00

     total cpu time spent up to now is      118.2 secs

     total energy              =   -1842.86890310 Ry
     Harris-Foulkes estimate   =   -1842.87591822 Ry
     estimated scf accuracy    <       0.94607487 Ry

     iteration #  8     ecut=    60.00 Ry     beta= 0.70
     Davidson diagonalization with overlap
     ethr =  3.95E-04,  avg # of iterations =  1.0

     negative rho (up, down):  2.341E-04 0.000E+00

     total cpu time spent up to now is      132.5 secs

     total energy              =   -1842.86426365 Ry
     Harris-Foulkes estimate   =   -1842.87167317 Ry
     estimated scf accuracy    <       0.49088802 Ry

     iteration #  9     ecut=    60.00 Ry     beta= 0.70
     Davidson diagonalization with overlap
     ethr =  2.16E-04,  avg # of iterations =  4.2

     negative rho (up, down):  2.350E-04 0.000E+00

     total cpu time spent up to now is      150.4 secs

     total energy              =   -1842.85806018 Ry
     Harris-Foulkes estimate   =   -1842.86653801 Ry
     estimated scf accuracy    <       0.32932437 Ry

     iteration # 10     ecut=    60.00 Ry     beta= 0.70
     Davidson diagonalization with overlap
     ethr =  1.45E-04,  avg # of iterations =  4.3

     negative rho (up, down):  2.353E-04 0.000E+00

     total cpu time spent up to now is      168.3 secs

     total energy              =   -1842.85752358 Ry
     Harris-Foulkes estimate   =   -1842.86059777 Ry
     estimated scf accuracy    <       0.09613237 Ry

     iteration # 11     ecut=    60.00 Ry     beta= 0.70
     Davidson diagonalization with overlap
     c_bands:  1 eigenvalues not converged
     ethr =  4.23E-05,  avg # of iterations =  7.3

     negative rho (up, down):  2.356E-04 0.000E+00

     total cpu time spent up to now is      190.4 secs

     total energy              =   -1842.85575980 Ry
     Harris-Foulkes estimate   =   -1842.85883264 Ry
     estimated scf accuracy    <       0.08034378 Ry

     iteration # 12     ecut=    60.00 Ry     beta= 0.70
     Davidson diagonalization with overlap
     ethr =  3.54E-05,  avg # of iterations =  3.3

     negative rho (up, down):  2.721E-04 0.000E+00

     total cpu time spent up to now is      207.3 secs

     total energy              =   -1842.85504668 Ry
     Harris-Foulkes estimate   =   -1842.85649010 Ry
     estimated scf accuracy    <       0.06752511 Ry

     iteration # 13     ecut=    60.00 Ry     beta= 0.70
     Davidson diagonalization with overlap
     ethr =  2.97E-05,  avg # of iterations =  1.3

     negative rho (up, down):  3.557E-04 0.000E+00

     total cpu time spent up to now is      221.8 secs

     total energy              =   -1842.85414294 Ry
     Harris-Foulkes estimate   =   -1842.85533559 Ry
     estimated scf accuracy    <       0.04899368 Ry

     iteration # 14     ecut=    60.00 Ry     beta= 0.70
     Davidson diagonalization with overlap
     ethr =  2.16E-05,  avg # of iterations =  2.5

     negative rho (up, down):  5.264E-03 0.000E+00

     total cpu time spent up to now is      238.0 secs

     total energy              =   -1842.85289165 Ry
     Harris-Foulkes estimate   =   -1842.85457907 Ry
     estimated scf accuracy    <       0.03359719 Ry

     iteration # 15     ecut=    60.00 Ry     beta= 0.70
     Davidson diagonalization with overlap
     ethr =  1.48E-05,  avg # of iterations =  7.8

     negative rho (up, down):  4.400E-03 0.000E+00

     total cpu time spent up to now is      260.6 secs

     total energy              =   -1842.85217695 Ry
     Harris-Foulkes estimate   =   -1842.85342307 Ry
     estimated scf accuracy    <       0.03459083 Ry

     iteration # 16     ecut=    60.00 Ry     beta= 0.70
     Davidson diagonalization with overlap
     ethr =  1.48E-05,  avg # of iterations =  2.2

     negative rho (up, down):  1.971E-02 0.000E+00

     total cpu time spent up to now is      276.1 secs

     total energy              =   -1842.85098166 Ry
     Harris-Foulkes estimate   =   -1842.85260129 Ry
     estimated scf accuracy    <       0.02904398 Ry

     iteration # 17     ecut=    60.00 Ry     beta= 0.70
     Davidson diagonalization with overlap
     ethr =  1.28E-05,  avg # of iterations =  6.6

     negative rho (up, down):  2.328E-02 0.000E+00

     total cpu time spent up to now is      297.5 secs

     total energy              =   -1842.85070809 Ry
     Harris-Foulkes estimate   =   -1842.85128683 Ry
     estimated scf accuracy    <       0.01224271 Ry

     iteration # 18     ecut=    60.00 Ry     beta= 0.70
     Davidson diagonalization with overlap
     ethr =  5.39E-06,  avg # of iterations =  8.2

     negative rho (up, down):  1.728E-02 0.000E+00

     total cpu time spent up to now is      321.8 secs

     total energy              =   -1842.85062835 Ry
     Harris-Foulkes estimate   =   -1842.85086652 Ry
     estimated scf accuracy    <       0.00638600 Ry

     iteration # 19     ecut=    60.00 Ry     beta= 0.70
     Davidson diagonalization with overlap
     c_bands:  1 eigenvalues not converged
     c_bands:  2 eigenvalues not converged
     ethr =  2.81E-06,  avg # of iterations =  8.8

     negative rho (up, down):  2.564E-03 0.000E+00

     total cpu time spent up to now is      345.7 secs

     total energy              =   -1842.85039249 Ry
     Harris-Foulkes estimate   =   -1842.85073398 Ry
     estimated scf accuracy    <       0.00155452 Ry

     iteration # 20     ecut=    60.00 Ry     beta= 0.70
     Davidson diagonalization with overlap
     c_bands:  1 eigenvalues not converged
     c_bands:  1 eigenvalues not converged
     c_bands:  1 eigenvalues not converged
     c_bands:  1 eigenvalues not converged
     c_bands:  1 eigenvalues not converged
     ethr =  6.85E-07,  avg # of iterations = 11.5

     negative rho (up, down):  2.526E-03 0.000E+00

     total cpu time spent up to now is      373.8 secs

     total energy              =   -1842.85041221 Ry
     Harris-Foulkes estimate   =   -1842.85045601 Ry
     estimated scf accuracy    <       0.00044933 Ry

     iteration # 21     ecut=    60.00 Ry     beta= 0.70
     Davidson diagonalization with overlap
     c_bands:  1 eigenvalues not converged
     ethr =  1.98E-07,  avg # of iterations =  3.0

     negative rho (up, down):  2.094E-03 0.000E+00

     total cpu time spent up to now is      390.4 secs

     total energy              =   -1842.85044832 Ry
     Harris-Foulkes estimate   =   -1842.85043696 Ry
     estimated scf accuracy    <       0.00024975 Ry

     iteration # 22     ecut=    60.00 Ry     beta= 0.70
     Davidson diagonalization with overlap
     ethr =  1.10E-07,  avg # of iterations =  3.9

     negative rho (up, down):  1.663E-03 0.000E+00

     total cpu time spent up to now is      408.1 secs

     total energy              =   -1842.85044955 Ry
     Harris-Foulkes estimate   =   -1842.85045233 Ry
     estimated scf accuracy    <       0.00009828 Ry

     iteration # 23     ecut=    60.00 Ry     beta= 0.70
     Davidson diagonalization with overlap
     ethr =  4.33E-08,  avg # of iterations =  2.3

     negative rho (up, down):  1.141E-03 0.000E+00

     total cpu time spent up to now is      424.2 secs

     total energy              =   -1842.85045057 Ry
     Harris-Foulkes estimate   =   -1842.85045200 Ry
     estimated scf accuracy    <       0.00007471 Ry

     iteration # 24     ecut=    60.00 Ry     beta= 0.70
     Davidson diagonalization with overlap
     ethr =  3.29E-08,  avg # of iterations =  2.1

     negative rho (up, down):  1.403E-03 0.000E+00

     total cpu time spent up to now is      439.8 secs

     total energy              =   -1842.85045001 Ry
     Harris-Foulkes estimate   =   -1842.85045152 Ry
     estimated scf accuracy    <       0.00002424 Ry

     iteration # 25     ecut=    60.00 Ry     beta= 0.70
     Davidson diagonalization with overlap
     ethr =  1.07E-08,  avg # of iterations =  1.1

     negative rho (up, down):  1.310E-03 0.000E+00

     total cpu time spent up to now is      454.1 secs

     total energy              =   -1842.85045041 Ry
     Harris-Foulkes estimate   =   -1842.85045097 Ry
     estimated scf accuracy    <       0.00001205 Ry

     iteration # 26     ecut=    60.00 Ry     beta= 0.70
     Davidson diagonalization with overlap
     ethr =  5.31E-09,  avg # of iterations =  1.0

     negative rho (up, down):  1.384E-03 0.000E+00

     total cpu time spent up to now is      469.0 secs

     total energy              =   -1842.85045041 Ry
     Harris-Foulkes estimate   =   -1842.85045085 Ry
     estimated scf accuracy    <       0.00000492 Ry

     iteration # 27     ecut=    60.00 Ry     beta= 0.70
     Davidson diagonalization with overlap
     ethr =  2.17E-09,  avg # of iterations =  1.7

     negative rho (up, down):  1.479E-03 0.000E+00

     total cpu time spent up to now is      484.4 secs

     total energy              =   -1842.85045037 Ry
     Harris-Foulkes estimate   =   -1842.85045059 Ry
     estimated scf accuracy    <       0.00000058 Ry

     iteration # 28     ecut=    60.00 Ry     beta= 0.70
     Davidson diagonalization with overlap
     ethr =  2.54E-10,  avg # of iterations =  3.6

     negative rho (up, down):  1.495E-03 0.000E+00

     total cpu time spent up to now is      504.0 secs

     total energy              =   -1842.85045044 Ry
     Harris-Foulkes estimate   =   -1842.85045048 Ry
     estimated scf accuracy    <       0.00000023 Ry

     iteration # 29     ecut=    60.00 Ry     beta= 0.70
     Davidson diagonalization with overlap
     ethr =  9.99E-11,  avg # of iterations =  1.0

     negative rho (up, down):  1.496E-03 0.000E+00

     total cpu time spent up to now is      518.8 secs

     total energy              =   -1842.85045045 Ry
     Harris-Foulkes estimate   =   -1842.85045045 Ry
     estimated scf accuracy    <       0.00000017 Ry

     iteration # 30     ecut=    60.00 Ry     beta= 0.70
     Davidson diagonalization with overlap
     ethr =  7.28E-11,  avg # of iterations =  1.0

     negative rho (up, down):  1.515E-03 0.000E+00

     total cpu time spent up to now is      533.5 secs

     total energy              =   -1842.85045043 Ry
     Harris-Foulkes estimate   =   -1842.85045045 Ry
     estimated scf accuracy    <       0.00000003 Ry

     iteration # 31     ecut=    60.00 Ry     beta= 0.70
     Davidson diagonalization with overlap
     ethr =  1.23E-11,  avg # of iterations =  2.3

     negative rho (up, down):  1.513E-03 0.000E+00

     total cpu time spent up to now is      550.1 secs

     total energy              =   -1842.85045043 Ry
     Harris-Foulkes estimate   =   -1842.85045043 Ry
     estimated scf accuracy    <       0.00000002 Ry

     iteration # 32     ecut=    60.00 Ry     beta= 0.70
     Davidson diagonalization with overlap
     ethr =  7.49E-12,  avg # of iterations =  1.5

     negative rho (up, down):  1.517E-03 0.000E+00

     total cpu time spent up to now is      565.5 secs

     total energy              =   -1842.85045042 Ry
     Harris-Foulkes estimate   =   -1842.85045043 Ry
     estimated scf accuracy    <          5.5E-09 Ry

     iteration # 33     ecut=    60.00 Ry     beta= 0.70
     Davidson diagonalization with overlap
     ethr =  2.42E-12,  avg # of iterations =  2.2

     negative rho (up, down):  1.518E-03 0.000E+00

     total cpu time spent up to now is      581.6 secs

     total energy              =   -1842.85045042 Ry
     Harris-Foulkes estimate   =   -1842.85045042 Ry
     estimated scf accuracy    <          3.3E-09 Ry

     iteration # 34     ecut=    60.00 Ry     beta= 0.70
     Davidson diagonalization with overlap
     ethr =  1.44E-12,  avg # of iterations =  1.2

     negative rho (up, down):  1.520E-03 0.000E+00

     total cpu time spent up to now is      596.7 secs

     total energy              =   -1842.85045042 Ry
     Harris-Foulkes estimate   =   -1842.85045042 Ry
     estimated scf accuracy    <          2.2E-09 Ry

     iteration # 35     ecut=    60.00 Ry     beta= 0.70
     Davidson diagonalization with overlap
     ethr =  9.83E-13,  avg # of iterations =  1.1

     negative rho (up, down):  1.522E-03 0.000E+00

     total cpu time spent up to now is      611.7 secs

     total energy              =   -1842.85045041 Ry
     Harris-Foulkes estimate   =   -1842.85045042 Ry
     estimated scf accuracy    <          8.4E-10 Ry

     iteration # 36     ecut=    60.00 Ry     beta= 0.70
     Davidson diagonalization with overlap
     ethr =  3.69E-13,  avg # of iterations =  1.5

     negative rho (up, down):  1.522E-03 0.000E+00

     total cpu time spent up to now is      626.8 secs

     total energy              =   -1842.85045041 Ry
     Harris-Foulkes estimate   =   -1842.85045041 Ry
     estimated scf accuracy    <          3.5E-10 Ry

     iteration # 37     ecut=    60.00 Ry     beta= 0.70
     Davidson diagonalization with overlap
     ethr =  1.53E-13,  avg # of iterations =  2.0

     negative rho (up, down):  1.523E-03 0.000E+00

     total cpu time spent up to now is      642.9 secs

     total energy              =   -1842.85045041 Ry
     Harris-Foulkes estimate   =   -1842.85045041 Ry
     estimated scf accuracy    <          1.2E-10 Ry

     iteration # 38     ecut=    60.00 Ry     beta= 0.70
     Davidson diagonalization with overlap
     ethr =  1.00E-13,  avg # of iterations =  1.1

     negative rho (up, down):  1.523E-03 0.000E+00

     total cpu time spent up to now is      656.9 secs

     End of self-consistent calculation

          k = 0.0000 0.0000 0.0000 ( 34661 PWs)   bands (ev):

   -35.6033 -35.5271 -23.5486 -22.8053 -22.7690 -22.5969 -17.1077 -16.9588
   -16.6540 -16.6433 -16.5910 -16.5673 -15.3187 -15.1878 -15.0464 -14.6864
   -14.6719 -14.5905 -14.4295 -14.1960 -14.1894 -13.9970 -13.9533 -13.8999
   -13.8419 -13.5960 -13.5575  -8.7893  -8.4216  -8.3238  -7.9368  -7.8990
    -7.8881  -7.8671  -7.7652  -7.7061  -7.6723  -7.6605  -7.4933  -2.4073
    -2.3438  -2.3387  -1.8435  -1.7834  -1.7826  -1.6851  -1.6194  -1.5787
    -1.5605  -1.4969  -1.4399  -1.4356  -1.2683  -1.2348  -1.2348  -1.0805
    -0.8929  -0.6575  -0.4728  -0.4680  -0.3901  -0.3876  -0.3774  -0.3455
    -0.3348  -0.2902  -0.2789  -0.2710  -0.2552  -0.2463  -0.2069  -0.1662
    -0.1618  -0.1359  -0.0510  -0.0478   0.0839   0.0846   0.0849   0.1160
     0.1196   0.1573   0.1587   0.2129   0.2820   0.2946   0.3096   0.4341
     0.5714   0.6009   0.7744   0.8676   0.8757   0.9360   0.9640   1.1677
     1.2437   1.2936   1.3356   1.3934   1.4300   1.4400   1.4811   1.5094
     1.6313   1.7748   1.8089   1.8163   1.8907   1.9503   1.9510   1.9692
     2.0244   2.0801   2.1081   2.2261   2.2376   2.5149   2.5202   5.1537
     5.2032   5.3026   5.9411   6.1188   6.6044   6.7506   6.7833   7.0823
     7.7245   7.9639   8.1154   8.2693   8.3107   8.5207   8.6039   8.7524
     9.0612

          k = 0.0000 0.1320 0.0000 ( 34589 PWs)   bands (ev):

   -35.6015 -35.5253 -23.5272 -22.7786 -22.7422 -22.5710 -17.0715 -16.9255
   -16.7158 -16.6517 -16.6369 -16.5887 -15.2296 -15.1077 -14.9925 -14.6920
   -14.6704 -14.5643 -14.3961 -14.2056 -14.1970 -14.0147 -13.9959 -13.9187
   -13.8757 -13.6264 -13.6157  -8.7783  -8.3838  -8.3686  -7.9363  -7.8879
    -7.8512  -7.8191  -7.7633  -7.7474  -7.7142  -7.6142  -7.5452  -2.4333
    -2.3973  -2.3885  -2.1808  -2.1271  -2.0710  -1.9384  -1.8410  -1.6645
    -1.6590  -1.6577  -1.5615  -1.5429  -1.4232  -1.4196  -1.2924  -1.2632
    -0.9427  -0.6717  -0.6555  -0.6458  -0.5701  -0.5655  -0.5625  -0.4748
    -0.4637  -0.3506  -0.2903  -0.2555  -0.2339  -0.1948  -0.1623  -0.1620
    -0.1440  -0.0696  -0.0296  -0.0267  -0.0085   0.0187   0.1080   0.1092
     0.1420   0.1673   0.2312   0.2642   0.2923   0.3537   0.3855   0.4992
     0.5156   0.7503   0.8967   1.0201   1.0562   1.0647   1.0776   1.1293
     1.1689   1.1869   1.2815   1.3861   1.4004   1.4740   1.4858   1.5402
     1.6064   1.6405   1.6945   1.7950   1.8014   1.8804   1.9892   1.9911
     1.9965   2.0211   2.2472   2.3516   2.7712   2.8055   2.8407   5.5371
     5.5791   5.6228   6.2535   6.4584   6.8065   7.0541   7.0823   7.3541
     7.8678   8.1341   8.2877   8.3413   8.5234   8.6378   8.7693   8.9307
     9.1662

          k = 0.0000 0.2640 0.0000 ( 34465 PWs)   bands (ev):

   -35.5971 -35.5208 -23.4748 -22.7127 -22.6763 -22.5071 -16.9794 -16.8702
   -16.8552 -16.7721 -16.6461 -16.5831 -15.0288 -14.9456 -14.8518 -14.7418
   -14.6846 -14.5089 -14.3112 -14.1975 -14.1768 -14.1427 -14.0411 -13.9791
   -13.9278 -13.7960 -13.6650  -8.7482  -8.4666  -8.2900  -7.9358  -7.8874
    -7.8388  -7.8051  -7.7582  -7.7308  -7.6983  -7.6572  -7.4978  -2.8715
    -2.8276  -2.7984  -2.6466  -2.4751  -2.4431  -2.4355  -2.3563  -2.2954
    -2.2927  -1.8575  -1.6102  -1.5166  -1.4882  -1.4874  -1.4541  -1.3534
    -1.0870  -1.0593  -0.9963  -0.9637  -0.8214  -0.8063  -0.6660  -0.6340
    -0.5523  -0.5509  -0.5305  -0.5118  -0.5116  -0.5058  -0.4926  -0.3490
    -0.2272  -0.2119  -0.0015   0.0024   0.0518   0.0793   0.0803   0.1532
     0.2033   0.3608   0.4198   0.5923   0.6008   0.6701   0.6743   0.6845
     0.7051   0.8853   0.9526   1.0085   1.0627   1.1252   1.1502   1.1549
     1.1607   1.1917   1.2545   1.2754   1.3293   1.4722   1.5190   1.5912
     1.6048   1.7417   1.7743   1.9112   1.9247   1.9592   1.9610   2.0041
     2.0679   2.0814   2.3779   2.4728   3.0247   3.0323   3.7282   6.3104
     6.4723   6.4786   6.9560   7.2915   7.3712   7.6965   7.8745   7.8996
     8.2636   8.5270   8.6329   8.7482   8.9003   8.9731   9.0816   9.1414
     9.3517

          k = 0.0000 0.3960 0.0000 ( 34424 PWs)   bands (ev):

   -35.5927 -35.5164 -23.4211 -22.6445 -22.6080 -22.4411 -17.0066 -16.9350
   -16.8775 -16.7323 -16.6404 -16.5774 -14.9488 -14.9330 -14.7261 -14.6752
   -14.5803 -14.4777 -14.2626 -14.2391 -14.1277 -14.1144 -14.1139 -14.0338
   -14.0064 -13.9600 -13.7371  -8.7025  -8.5635  -8.1919  -7.9357  -7.9170
    -7.8879  -7.8825  -7.7723  -7.7367  -7.6023  -7.5694  -7.3740  -3.5716
    -3.3032  -3.2627  -3.0795  -3.0099  -3.0091  -2.9055  -2.3895  -2.3861
    -2.3818  -2.2090  -1.8230  -1.7995  -1.5470  -1.4619  -1.4234  -1.2879
    -1.2442  -1.2348  -1.2080  -1.1324  -1.0899  -1.0680  -0.8815  -0.8415
    -0.8316  -0.7696  -0.7655  -0.7614  -0.7249  -0.7019  -0.5014  -0.3672
    -0.3084  -0.2411  -0.1189   0.0155   0.0202   0.0815   0.1116   0.1199
     0.1531   0.4731   0.5328   0.6005   0.6686   0.7034   0.7631   0.8817
     0.9098   0.9168   0.9218   0.9507   0.9902   1.0741   1.1213   1.1285
     1.1825   1.3105   1.4190   1.5368   1.6032   1.6182   1.7099   1.7341
     1.8054   1.8183   1.8687   1.9238   1.9660   1.9789   2.1427   2.2177
     2.3278   2.3534   2.3549   2.4124   2.9187   2.9252   4.3582   6.9386
     7.0718   7.4194   7.4303   8.1391   8.2411   8.3534   8.4148   8.6651
     8.6986   9.0703   9.0746   9.1185   9.1945   9.2050   9.4225   9.4839
     9.4989

          k = 0.0000-0.5279 0.0000 ( 34482 PWs)   bands (ev):

   -35.5908 -35.5145 -23.3984 -22.6156 -22.5790 -22.4131 -17.0588 -16.9846
   -16.8325 -16.6927 -16.6381 -16.5751 -14.9917 -14.9759 -14.6687 -14.5848
   -14.4663 -14.4254 -14.3235 -14.2627 -14.1423 -14.1017 -14.0909 -14.0868
   -14.0067 -13.9939 -13.7980  -8.6495  -8.6337  -8.1499  -7.9466  -7.9353
    -7.9137  -7.8858  -7.8023  -7.7422  -7.5464  -7.5133  -7.3202  -3.8360
    -3.4814  -3.4434  -3.2543  -3.2390  -3.2316  -3.0718  -2.4023  -2.3980
    -2.3967  -2.3389  -1.9536  -1.9320  -1.5226  -1.4422  -1.4332  -1.3218
    -1.2990  -1.2592  -1.2146  -1.2140  -1.1879  -1.1034  -1.0054  -0.9911
    -0.9578  -0.8591  -0.8517  -0.8506  -0.8016  -0.7828  -0.4921  -0.3469
    -0.2980  -0.2355  -0.2098   0.0212   0.0261   0.0624   0.1083   0.1376
     0.1583   0.4011   0.4934   0.5303   0.5571   0.7248   0.7942   0.8222
     0.8392   0.9216   0.9697   0.9970   1.0324   1.1043   1.1114   1.2774
     1.3333   1.4080   1.4125   1.4941   1.7224   1.7237   1.7481   1.8367
     1.9904   1.9989   2.0089   2.0519   2.0567   2.1084   2.1135   2.1417
     2.1747   2.3919   2.5149   2.5163   2.7414   2.7469   4.5642   6.8221
     7.6748   7.8285   7.8375   7.8671   8.6440   8.8782   8.9269   8.9418
     8.9906   9.0599   9.1143   9.2808   9.3162   9.3482   9.4342   9.5802
     9.7844

          k = 0.1250 0.0000 0.0000 ( 34573 PWs)   bands (ev):

   -35.6022 -35.5261 -23.5346 -22.7872 -22.7509 -22.5790 -17.0743 -16.9285
   -16.7342 -16.6576 -16.6419 -16.5660 -15.2165 -15.1070 -15.0714 -14.7321
   -14.7110 -14.5956 -14.4253 -14.2050 -14.1989 -14.0106 -13.9875 -13.9196
   -13.8640 -13.6081 -13.6049  -8.8154  -8.3681  -8.2991  -7.9625  -7.9179
    -7.8375  -7.8144  -7.8013  -7.6737  -7.6398  -7.5890  -7.4616  -2.4284
    -2.3859  -2.3781  -1.8863  -1.8260  -1.8210  -1.8173  -1.7587  -1.7539
    -1.6827  -1.5945  -1.4704  -1.3852  -1.2970  -1.2327  -1.2327  -1.1029
    -0.9636  -0.7027  -0.6363  -0.6325  -0.5278  -0.5140  -0.3938  -0.3888
    -0.3534  -0.3467  -0.3414  -0.3290  -0.2852  -0.2464  -0.2459  -0.2281
    -0.1954  -0.1897  -0.0709   0.0491   0.0769   0.0773   0.1040   0.1386
     0.1807   0.1865   0.2008   0.2123   0.2502   0.3668   0.4074   0.4170
     0.6448   0.7308   0.7772   0.7894   0.8723   0.9757   1.0275   1.1503
     1.1858   1.2151   1.2440   1.3529   1.4449   1.4490   1.4684   1.5201
     1.6103   1.7761   1.8121   1.8297   1.9292   1.9316   1.9526   1.9760
     2.0516   2.1071   2.1707   2.2711   2.2834   2.5556   2.5573   5.3645
     5.3832   5.4871   6.1756   6.3607   6.7348   6.9632   6.9912   7.2848
     7.8117   8.1073   8.2456   8.4489   8.5370   8.6906   8.8134   8.9727
     9.1860

          k = 0.1250 0.1320 0.0000 ( 34564 PWs)   bands (ev):

   -35.6004 -35.5243 -23.5138 -22.7614 -22.7250 -22.5538 -17.0391 -16.8967
   -16.7374 -16.7049 -16.6578 -16.6296 -15.1346 -15.0358 -15.0152 -14.7268
   -14.6989 -14.5668 -14.3876 -14.2060 -14.1989 -14.0296 -14.0139 -13.9386
   -13.8981 -13.6576 -13.6260  -8.7916  -8.5099  -8.2229  -7.9816  -7.9428
    -7.8996  -7.8575  -7.8112  -7.6812  -7.6357  -7.6025  -7.4234  -2.4575
    -2.4261  -2.4215  -2.1673  -2.1109  -2.0494  -1.9254  -1.8657  -1.8530
    -1.7977  -1.7969  -1.6544  -1.6531  -1.6497  -1.4509  -1.3000  -1.2533
    -0.9876  -0.8221  -0.7974  -0.7001  -0.6730  -0.6655  -0.5898  -0.5467
    -0.5169  -0.5100  -0.4461  -0.2839  -0.2376  -0.2253  -0.2024  -0.1960
    -0.1311  -0.0961  -0.0418  -0.0118  -0.0073   0.1351   0.1389   0.1721
     0.1943   0.2067   0.2558   0.2752   0.2786   0.3132   0.4673   0.5283
     0.5672   0.8895   0.9521   1.0194   1.0288   1.0778   1.1273   1.1751
     1.2043   1.2607   1.2706   1.2886   1.3102   1.3599   1.5676   1.5688
     1.5894   1.6468   1.6519   1.6619   1.6818   1.7052   1.9982   2.0695
     2.3290   2.3754   2.5126   2.6210   2.7865   2.8126   2.8510   5.7029
     5.7214   5.7622   6.4483   6.6524   6.9118   7.2588   7.2828   7.5100
     7.8920   8.2765   8.4107   8.4786   8.6380   8.7534   8.9352   9.0162
     9.1386

          k = 0.1250 0.2640 0.0000 ( 34463 PWs)   bands (ev):

   -35.5960 -35.5198 -23.4627 -22.6975 -22.6611 -22.4919 -16.9499 -16.8671
   -16.8371 -16.7606 -16.7168 -16.6428 -14.9594 -14.9048 -14.8661 -14.7284
   -14.6638 -14.5024 -14.2921 -14.1901 -14.1750 -14.1396 -14.0608 -14.0004
   -13.9379 -13.7956 -13.6646  -8.7461  -8.6491  -8.2153  -8.0506  -8.0172
    -7.9365  -7.8887  -7.8423  -7.7636  -7.6266  -7.5937  -7.4185  -2.8811
    -2.8285  -2.8157  -2.6649  -2.4825  -2.4436  -2.4349  -2.3582  -2.2948
    -2.2919  -1.8763  -1.8136  -1.7518  -1.7178  -1.5960  -1.4991  -1.4654
    -1.1333  -1.0813  -1.0028  -0.9701  -0.9578  -0.9521  -0.8642  -0.7686
    -0.7082  -0.6994  -0.5842  -0.5587  -0.5220  -0.5144  -0.4840  -0.3392
    -0.2369  -0.1872  -0.1394  -0.0543  -0.0311   0.1564   0.1745   0.2714
     0.2884   0.3736   0.4834   0.5335   0.5691   0.7279   0.7337   0.7798
     0.8989   1.0019   1.0091   1.0448   1.0823   1.1729   1.1993   1.2910
     1.3020   1.3343   1.3441   1.3641   1.3859   1.4685   1.4895   1.5321
     1.5811   1.6258   1.6413   1.8706   1.9190   1.9278   1.9466   2.1925
     2.5261   2.5659   2.7444   2.8513   3.0351   3.0469   3.7325   6.3692
     6.5333   6.5403   6.9707   7.3709   7.4540   7.6955   8.0382   8.0591
     8.3699   8.4295   8.7577   8.8079   8.9157   9.0124   9.0991   9.1217
     9.1805

          k = 0.1250 0.3960 0.0000 ( 34482 PWs)   bands (ev):

   -35.5916 -35.5154 -23.4103 -22.6316 -22.5950 -22.4280 -17.0015 -16.9301
   -16.8511 -16.7101 -16.7083 -16.6335 -14.9139 -14.9005 -14.6999 -14.6180
   -14.5286 -14.4594 -14.2475 -14.2155 -14.1572 -14.1138 -14.1103 -14.0562
   -13.9898 -13.9408 -13.7229  -8.7546  -8.6583  -8.2647  -8.0811  -8.0481
    -7.9481  -7.9054  -7.8993  -7.7604  -7.6716  -7.6388  -7.4521  -3.5595
    -3.3448  -3.2969  -3.1115  -3.0015  -3.0009  -2.9301  -2.4020  -2.3942
    -2.3891  -2.1458  -1.8065  -1.7675  -1.6698  -1.6116  -1.6033  -1.4874
    -1.3892  -1.3286  -1.2754  -1.2399  -1.1423  -1.1096  -1.1085  -1.0730
    -0.8877  -0.8768  -0.8543  -0.8063  -0.7686  -0.7317  -0.4948  -0.3932
    -0.3152  -0.2211  -0.1693  -0.0647  -0.0036   0.1864   0.1877   0.2842
     0.3313   0.3744   0.5037   0.6527   0.7766   0.8853   0.8980   0.8988
     0.9756   1.0429   1.0497   1.0839   1.1047   1.1716   1.2142   1.2283
     1.2877   1.3986   1.4706   1.6340   1.6762   1.6945   1.7043   1.7689
     1.8099   1.8829   1.8949   1.9178   2.0831   2.3087   2.3206   2.3224
     2.4736   2.5065   2.6887   2.7915   2.9771   2.9975   4.3494   6.6977
     7.1074   7.2843   7.2952   8.0807   8.1184   8.1547   8.3075   8.6470
     8.6755   8.8790   9.0657   9.2481   9.3622   9.4277   9.4829   9.5673
     9.6265

          k = 0.1250-0.5279 0.0000 ( 34444 PWs)   bands (ev):

   -35.5898 -35.5135 -23.3883 -22.6036 -22.5670 -22.4009 -17.0531 -16.9796
   -16.8076 -16.7045 -16.6736 -16.6281 -14.9469 -14.9317 -14.6268 -14.5128
   -14.4249 -14.4189 -14.3077 -14.2460 -14.1751 -14.0878 -14.0874 -14.0691
   -14.0106 -13.9814 -13.7728  -8.7550  -8.6516  -8.2934  -8.0758  -8.0429
    -7.9529  -7.9236  -7.9041  -7.7575  -7.7058  -7.6730  -7.4724  -3.8258
    -3.5306  -3.4846  -3.2872  -3.2305  -3.2300  -3.1036  -2.4163  -2.4148
    -2.4103  -2.2388  -1.8367  -1.8087  -1.6253  -1.5672  -1.5327  -1.5005
    -1.4648  -1.4383  -1.3878  -1.3081  -1.2925  -1.2262  -1.1867  -1.1845
    -0.9622  -0.9592  -0.9518  -0.8950  -0.8645  -0.8353  -0.4858  -0.3876
    -0.3096  -0.2367  -0.1771  -0.0532   0.0232   0.1977   0.1978   0.2863
     0.3452   0.3754   0.5305   0.6199   0.7195   0.7662   0.9150   0.9360
     0.9411   0.9490   1.0073   1.0723   1.1420   1.2470   1.2751   1.3305
     1.4230   1.4379   1.4651   1.6598   1.7648   1.8781   1.9778   2.0093
     2.0109   2.0216   2.0603   2.0914   2.1999   2.3318   2.3505   2.3781
     2.4858   2.4875   2.5392   2.6505   2.8562   2.8858   4.5511   6.5816
     7.5002   7.5078   7.5706   7.8175   8.2894   8.3571   8.4549   9.0151
     9.1525   9.1963   9.2901   9.3126   9.4519   9.7313   9.7342   9.7693
     9.8758

          k = 0.2500 0.0000 0.0000 ( 34590 PWs)   bands (ev):

   -35.5996 -35.5236 -23.5004 -22.7429 -22.7064 -22.5350 -16.9890 -16.8981
   -16.8559 -16.7939 -16.6386 -16.5628 -15.1426 -15.0169 -14.9828 -14.8148
   -14.7572 -14.6189 -14.4150 -14.2193 -14.2135 -14.0970 -14.0348 -13.9716
   -13.9064 -13.7051 -13.6392  -8.8411  -8.2783  -8.2381  -7.9641  -7.9178
    -7.8470  -7.7506  -7.7164  -7.5930  -7.5587  -7.5084  -7.3828  -2.5834
    -2.5487  -2.5092  -2.2239  -2.2113  -2.1965  -2.0885  -1.7601  -1.6894
    -1.6647  -1.5198  -1.5034  -1.3902  -1.3769  -1.2294  -1.2293  -1.1601
    -1.1387  -0.9293  -0.8736  -0.8014  -0.7831  -0.7544  -0.6534  -0.6004
    -0.5450  -0.5385  -0.4709  -0.4404  -0.3572  -0.3389  -0.3035  -0.2653
    -0.2593  -0.2288  -0.1835  -0.0679   0.0640   0.0646   0.0704   0.1713
     0.1825   0.3099   0.3214   0.4277   0.4474   0.4484   0.5359   0.5766
     0.6465   0.6810   0.7723   0.8549   0.8828   0.9260   1.0110   1.0490
     1.2643   1.2824   1.2931   1.3143   1.4036   1.4277   1.5019   1.5344
     1.6011   1.6449   1.6852   1.8636   1.8708   1.8914   2.0275   2.0356
     2.0386   2.0895   2.3055   2.4528   2.4828   2.6630   2.6723   5.8394
     5.8432   5.9620   6.7595   6.9815   7.1053   7.5398   7.5557   7.7201
     7.9948   8.4727   8.5306   8.7092   8.8927   8.9997   9.2706   9.3819
     9.4073

          k = 0.2500 0.1320 0.0000 ( 34551 PWs)   bands (ev):

   -35.5978 -35.5218 -23.4808 -22.7191 -22.6826 -22.5118 -16.9569 -16.8917
   -16.8320 -16.7835 -16.7048 -16.6263 -15.0789 -14.9660 -14.9418 -14.7662
   -14.7074 -14.5842 -14.3688 -14.2049 -14.2003 -14.0953 -14.0444 -13.9853
   -13.9402 -13.7276 -13.6513  -8.8182  -8.5364  -8.1569  -8.0324  -7.9950
    -7.8879  -7.8756  -7.8438  -7.6773  -7.5594  -7.5261  -7.3550  -2.6361
    -2.5888  -2.5306  -2.2205  -2.2085  -2.1895  -2.1207  -2.1069  -2.0362
    -1.9725  -1.8787  -1.8447  -1.6436  -1.6427  -1.5124  -1.3879  -1.3363
    -1.1263  -1.0293  -0.9951  -0.9517  -0.8987  -0.8628  -0.7272  -0.7019
    -0.6409  -0.6157  -0.6095  -0.4956  -0.3674  -0.3547  -0.2875  -0.2305
    -0.1845  -0.0920  -0.0459  -0.0355   0.0043   0.0688   0.1302   0.1734
     0.1930   0.3101   0.3156   0.3318   0.4173   0.5869   0.6151   0.7629
     0.8497   0.8663   0.8992   0.9072   1.0260   1.0506   1.1511   1.1680
     1.2068   1.2213   1.3638   1.4144   1.4463   1.4603   1.4749   1.4987
     1.5484   1.5991   1.6080   1.7172   1.7379   1.8259   1.9729   2.0986
     2.6498   2.6919   2.8388   2.8475   2.8626   2.9222   2.9638   6.1007
     6.1043   6.1228   6.9330   7.1734   7.1923   7.6850   7.7975   7.8221
     8.1819   8.5329   8.5903   8.6397   8.8427   9.0428   9.1632   9.2198
     9.3677

          k = 0.2500 0.2640 0.0000 ( 34523 PWs)   bands (ev):

   -35.5934 -35.5174 -23.4330 -22.6604 -22.6238 -22.4546 -16.8922 -16.8683
   -16.8411 -16.8166 -16.7636 -16.7153 -14.9067 -14.8759 -14.8654 -14.6274
   -14.5790 -14.4990 -14.2476 -14.1803 -14.1687 -14.1362 -14.0907 -14.0403
   -13.9642 -13.7944 -13.6680  -8.8506  -8.7419  -8.2714  -8.2526  -8.2196
    -8.0372  -7.9491  -7.9013  -7.7809  -7.6792  -7.6464  -7.4794  -3.0140
    -2.9328  -2.8127  -2.7719  -2.5374  -2.4574  -2.4412  -2.3602  -2.3269
    -2.3187  -2.1871  -2.1574  -2.1497  -1.9986  -1.8021  -1.4674  -1.4367
    -1.4069  -1.3929  -1.3192  -1.1800  -1.1439  -1.0560  -0.9212  -0.9181
    -0.7490  -0.7189  -0.6479  -0.6136  -0.6094  -0.5769  -0.5239  -0.4176
    -0.3589  -0.3207  -0.1907  -0.0399   0.0118   0.0686   0.2861   0.3199
     0.4495   0.4699   0.5776   0.7686   0.7782   0.8261   0.9048   0.9446
     0.9529   1.0976   1.2034   1.2363   1.2630   1.2844   1.3389   1.3723
     1.4380   1.4409   1.4765   1.5041   1.5356   1.5424   1.5943   1.6031
     1.6070   1.6743   1.6808   1.8422   1.8470   1.9200   2.0298   2.2494
     2.9717   2.9785   3.2570   3.2988   3.4074   3.4917   3.7464   6.3213
     6.6432   6.6529   7.0051   7.5697   7.6658   7.6941   8.3291   8.3450
     8.4310   8.7162   8.7863   9.0127   9.0383   9.1797   9.2600   9.3157
     9.3764

          k = 0.2500 0.3960 0.0000 ( 34490 PWs)   bands (ev):

   -35.5891 -35.5129 -23.3841 -22.6000 -22.5634 -22.3959 -16.9894 -16.9186
   -16.8561 -16.7825 -16.7651 -16.6453 -14.8327 -14.8226 -14.6798 -14.4582
   -14.4323 -14.4176 -14.2367 -14.1994 -14.1674 -14.1033 -14.1011 -14.0855
   -13.9684 -13.8761 -13.6888  -9.0115  -8.6875  -8.4882  -8.3726  -8.3399
    -8.1738  -7.9995  -7.9560  -7.8931  -7.8561  -7.7984  -7.6889  -3.5425
    -3.4958  -3.4315  -3.2358  -3.0289  -2.9808  -2.9775  -2.4666  -2.4514
    -2.4388  -2.1567  -2.1170  -2.1080  -1.9810  -1.9456  -1.7985  -1.7461
    -1.6181  -1.5119  -1.4844  -1.4144  -1.3623  -1.1748  -1.1512  -1.0490
    -0.8657  -0.8433  -0.8165  -0.7981  -0.7919  -0.7465  -0.5631  -0.4960
    -0.4778  -0.4174  -0.2429  -0.0298   0.1182   0.1728   0.3251   0.3846
     0.5553   0.6064   0.8108   0.9626   0.9703   0.9860   1.1002   1.2197
     1.2556   1.2969   1.3055   1.3123   1.3426   1.3982   1.4220   1.4863
     1.5542   1.5683   1.6063   1.7030   1.7367   1.7567   1.8163   1.8667
     1.8708   1.9017   1.9075   1.9885   2.1765   2.2421   2.2447   2.3417
     2.8037   2.8101   3.4867   3.5374   3.6442   3.7245   4.3241   6.0640
     6.8508   6.8609   7.1465   7.7078   7.7970   8.0093   8.3778   8.7800
     8.8078   8.9614   9.1058   9.3691   9.6663   9.7452   9.7745   9.8338
     9.8568

          k = 0.2500-0.5279 0.0000 ( 34528 PWs)   bands (ev):

   -35.5873 -35.5111 -23.3635 -22.5744 -22.5378 -22.3711 -17.0396 -16.9676
   -16.8506 -16.7601 -16.7429 -16.6100 -14.8297 -14.8164 -14.5174 -14.4266
   -14.3774 -14.3525 -14.2762 -14.2388 -14.2104 -14.0823 -14.0802 -14.0176
   -14.0054 -13.9020 -13.7107  -9.0440  -8.6611  -8.6059  -8.3728  -8.3400
    -8.2055  -8.0876  -8.0537  -7.9593  -7.9128  -7.8061  -7.7947  -3.8063
    -3.7003  -3.6320  -3.4248  -3.2248  -3.2085  -3.2016  -2.4741  -2.4605
    -2.4531  -2.1186  -2.1051  -2.0760  -2.0273  -1.9454  -1.9064  -1.8983
    -1.7221  -1.6359  -1.5357  -1.4420  -1.4188  -1.2593  -1.2422  -1.0539
    -0.9589  -0.9256  -0.8827  -0.8343  -0.8304  -0.8070  -0.5789  -0.5059
    -0.4972  -0.4276  -0.2427  -0.0272   0.1499   0.2103   0.3366   0.4225
     0.6440   0.6653   0.8978   1.0119   1.0658   1.0766   1.1195   1.1399
     1.1872   1.2155   1.3416   1.3733   1.4324   1.4377   1.4871   1.5232
     1.5277   1.6416   1.6870   1.8643   1.8973   1.9596   1.9965   1.9998
     2.0087   2.0461   2.0704   2.0988   2.3043   2.3681   2.4178   2.4203
     2.5823   2.5890   3.5067   3.5621   3.6791   3.7602   4.5082   5.8965
     6.8161   6.8219   7.2102   7.6916   7.8811   8.1264   8.1863   8.8729
     9.1426   9.2749   9.5034   9.5113   9.6981   9.8518   9.9854  10.0601
    10.0639

          k = 0.3750 0.0000 0.0000 ( 34518 PWs)   bands (ev):

   -35.5970 -35.5211 -23.4655 -22.6975 -22.6609 -22.4899 -17.0379 -16.9249
   -16.8939 -16.7626 -16.6353 -16.5596 -15.2277 -15.0581 -15.0506 -14.6681
   -14.6442 -14.6233 -14.3637 -14.2373 -14.2195 -14.2042 -14.1070 -14.0565
   -13.9404 -13.7822 -13.6767  -8.8365  -8.2228  -8.1752  -7.9465  -7.8979
    -7.8396  -7.6858  -7.6539  -7.5086  -7.4739  -7.4725  -7.3005  -2.9089
    -2.8637  -2.7636  -2.4351  -2.3461  -2.3369  -2.3304  -1.6774  -1.6161
    -1.5951  -1.5260  -1.5223  -1.4660  -1.4039  -1.3503  -1.2310  -1.2306
    -1.2235  -1.0326  -1.0009  -0.9874  -0.9486  -0.8990  -0.8860  -0.8079
    -0.7452  -0.7387  -0.6894  -0.6257  -0.4636  -0.4151  -0.3706  -0.2983
    -0.2562  -0.2524  -0.2089  -0.1977   0.0088   0.0511   0.0518   0.1623
     0.1840   0.3889   0.3975   0.4105   0.4230   0.4667   0.5027   0.5414
     0.6423   0.7404   0.7791   0.8630   0.8759   1.0563   1.1692   1.1752
     1.2137   1.2777   1.3346   1.3414   1.3943   1.4587   1.5014   1.5785
     1.6522   1.7669   1.7694   1.7882   1.8509   1.9067   1.9339   2.0484
     2.1259   2.1594   2.3541   2.4860   2.5652   2.7744   2.7856   6.4306
     6.4899   6.4960   7.1801   7.5912   7.7499   7.9846   7.9950   8.0450
     8.4517   8.5618   8.6163   8.9079   9.3091   9.4209   9.4779   9.5077
     9.5274

          k = 0.3750 0.1320 0.0000 ( 34583 PWs)   bands (ev):

   -35.5952 -35.5193 -23.4474 -22.6758 -22.6392 -22.4687 -17.0293 -16.9173
   -16.8648 -16.7394 -16.6998 -16.6191 -15.1548 -15.0106 -15.0030 -14.6277
   -14.5985 -14.5628 -14.3121 -14.2042 -14.1964 -14.1818 -14.0957 -14.0497
   -13.9768 -13.7837 -13.6870  -8.8168  -8.4735  -8.2125  -8.0039  -7.9618
    -7.8692  -7.8489  -7.8104  -7.6387  -7.5983  -7.5647  -7.4030  -2.9722
    -2.9154  -2.8122  -2.4646  -2.3449  -2.3351  -2.3347  -2.0585  -1.9901
    -1.8934  -1.8702  -1.7770  -1.6320  -1.6314  -1.5461  -1.4800  -1.4185
    -1.3308  -1.2855  -1.2779  -1.1586  -1.0082  -0.9305  -0.8407  -0.8122
    -0.7313  -0.7070  -0.6818  -0.6360  -0.5144  -0.4339  -0.4127  -0.2840
    -0.2742  -0.0757  -0.0608   0.0084   0.0270   0.0763   0.1242   0.1675
     0.1739   0.2916   0.3940   0.4254   0.4280   0.6485   0.7007   0.7658
     0.7962   0.8236   0.9386   0.9960   1.0597   1.1035   1.1693   1.1922
     1.2351   1.3132   1.3442   1.3602   1.4452   1.5201   1.5271   1.6244
     1.6851   1.7344   1.7411   1.7763   1.8514   1.8626   1.9939   2.0791
     2.7277   2.7446   2.8810   2.9484   2.9505   3.1099   3.1258   6.4045
     6.6385   6.6470   7.1801   7.6057   7.8011   7.9682   8.0499   8.0632
     8.4716   8.5922   8.7149   8.8536   9.1903   9.3340   9.4451   9.4868
     9.6230

          k = 0.3750 0.2640 0.0000 ( 34595 PWs)   bands (ev):

   -35.5908 -35.5149 -23.4029 -22.6225 -22.5859 -22.4167 -17.0090 -16.8995
   -16.8442 -16.7895 -16.7800 -16.6509 -14.9539 -14.8888 -14.8812 -14.5324
   -14.4920 -14.4159 -14.1963 -14.1703 -14.1409 -14.1368 -14.0988 -14.0606
   -14.0136 -13.7930 -13.6862  -8.9076  -8.7398  -8.4639  -8.3053  -8.2720
    -8.0931  -7.9838  -7.9414  -7.8615  -7.8241  -7.8013  -7.6794  -3.2909
    -3.1935  -3.0435  -2.7846  -2.7250  -2.5168  -2.4862  -2.3970  -2.3898
    -2.3695  -2.3198  -2.2657  -2.2614  -2.2050  -1.8094  -1.7569  -1.7117
    -1.6062  -1.4408  -1.2912  -1.2305  -1.1460  -1.0368  -0.9359  -0.9343
    -0.8875  -0.8383  -0.7169  -0.6651  -0.6638  -0.6050  -0.5261  -0.5017
    -0.3909  -0.3868  -0.3405   0.0308   0.0907   0.1595   0.3587   0.4321
     0.5401   0.5992   0.6816   0.8060   0.8137   0.9914   0.9968   1.0697
     1.1454   1.1879   1.2169   1.2504   1.3696   1.3770   1.4046   1.4210
     1.4875   1.5129   1.6040   1.6261   1.6776   1.7224   1.7345   1.7439
     1.7513   1.7924   1.8066   1.8105   1.8419   2.0357   2.0922   2.1602
     2.9728   2.9770   3.7001   3.7349   3.7506   3.8536   3.8613   6.0215
     6.6838   6.6969   7.1048   7.6125   7.7129   7.8614   8.3889   8.4080
     8.7892   8.7933   9.0974   9.2024   9.3398   9.4053   9.4827   9.6587
     9.7603

          k = 0.3750 0.3960 0.0000 ( 34549 PWs)   bands (ev):

   -35.5865 -35.5105 -23.3576 -22.5678 -22.5312 -22.3633 -16.9919 -16.9708
   -16.9081 -16.8773 -16.7097 -16.5819 -14.7550 -14.7461 -14.6760 -14.4416
   -14.3945 -14.2840 -14.2444 -14.1667 -14.1489 -14.0950 -14.0865 -14.0209
   -13.9742 -13.8006 -13.6596  -9.2193  -8.7656  -8.6880  -8.5711  -8.5382
    -8.3701  -8.2361  -8.2048  -7.9866  -7.9687  -7.9381  -7.8336  -3.7688
    -3.6631  -3.5217  -3.4413  -3.2050  -2.9601  -2.9585  -2.6463  -2.6235
    -2.5200  -2.3247  -2.2938  -2.2860  -2.2564  -2.1178  -2.0235  -1.9260
    -1.8110  -1.7266  -1.3818  -1.2272  -1.2210  -1.2189  -1.1964  -0.9784
    -0.9465  -0.9400  -0.8820  -0.8682  -0.7997  -0.7254  -0.7124  -0.5206
    -0.4605  -0.4090  -0.4032   0.1141   0.2235   0.2380   0.4351   0.6105
     0.8139   0.8564   1.0195   1.1414   1.1504   1.2274   1.2918   1.3365
     1.3866   1.4256   1.4682   1.4737   1.5483   1.5725   1.6334   1.6563
     1.7219   1.7274   1.7658   1.8155   1.8318   1.8550   1.9139   1.9365
     1.9871   2.0438   2.0990   2.1130   2.1638   2.1724   2.3674   2.3776
     2.7939   2.7972   4.2047   4.2557   4.2823   4.3425   4.3543   5.4948
     6.3808   6.3916   6.9587   7.3542   7.7332   7.8746   8.6065   8.7610
     8.9674   9.0095   9.3511   9.4842   9.5064   9.5761   9.6061   9.7294
     9.9082

          k = 0.3750-0.5279 0.0000 ( 34580 PWs)   bands (ev):

   -35.5847 -35.5087 -23.3385 -22.5448 -22.5081 -22.3409 -17.0262 -16.9790
   -16.9556 -16.8724 -16.6743 -16.5499 -14.6936 -14.6842 -14.4313 -14.4083
   -14.3883 -14.3625 -14.2635 -14.1859 -14.1601 -14.0742 -14.0723 -13.9654
   -13.9650 -13.7965 -13.6467  -9.3308  -8.8936  -8.6675  -8.6532  -8.6201
    -8.4748  -8.3812  -8.3507  -8.0850  -8.0123  -7.9633  -7.8464  -3.9757
    -3.8696  -3.7847  -3.6403  -3.4100  -3.1854  -3.1840  -2.6648  -2.6413
    -2.5418  -2.3220  -2.2877  -2.2809  -2.2517  -2.2254  -2.1369  -1.9952
    -1.8752  -1.8237  -1.4489  -1.3332  -1.3190  -1.2542  -1.2377  -0.9764
    -0.9742  -0.9661  -0.9353  -0.9269  -0.8984  -0.8315  -0.7238  -0.5183
    -0.4455  -0.3957  -0.3918   0.1365   0.2481   0.2759   0.4556   0.6907
     0.8882   1.0079   1.1722   1.2535   1.2681   1.2865   1.3376   1.3547
     1.3917   1.4992   1.5607   1.6363   1.6464   1.6703   1.6772   1.7220
     1.7808   1.7999   1.8406   1.9605   1.9797   1.9913   2.0278   2.0369
     2.1287   2.1733   2.2676   2.2780   2.3543   2.3580   2.4376   2.5242
     2.5505   2.5541   4.3273   4.4008   4.4365   4.4983   4.5070   5.2774
     6.2033   6.2126   6.8726   7.2671   7.7126   7.9030   8.5137   8.6210
     9.1153   9.1509   9.3485   9.4773   9.5936   9.7428   9.8201   9.8264
     9.8877

          k =-0.5000 0.0000 0.0000 ( 34514 PWs)   bands (ev):

   -35.5959 -35.5201 -23.4509 -22.6783 -22.6417 -22.4709 -17.0902 -16.9708
   -16.8518 -16.7259 -16.6339 -16.5583 -15.2673 -15.1132 -15.1035 -14.6869
   -14.6033 -14.4231 -14.3399 -14.2404 -14.2202 -14.2149 -14.1793 -14.1609
   -13.9507 -13.8073 -13.6941  -8.8281  -8.2078  -8.1485  -7.9362  -7.8862
    -7.8285  -7.6626  -7.6322  -7.4724  -7.4664  -7.4376  -7.2652  -3.0504
    -3.0056  -2.8970  -2.5638  -2.3710  -2.3640  -2.3357  -1.6852  -1.6289
    -1.6047  -1.5402  -1.5214  -1.4398  -1.3870  -1.3114  -1.2520  -1.2349
    -1.2342  -1.1908  -1.1203  -1.0115  -1.0012  -0.9730  -0.9082  -0.8287
    -0.8205  -0.8029  -0.7916  -0.7559  -0.5273  -0.4694  -0.3753  -0.2919
    -0.2889  -0.2637  -0.2317  -0.2146   0.0080   0.0458   0.0464   0.1286
     0.1564   0.3881   0.3882   0.4138   0.4222   0.4602   0.4636   0.5182
     0.5758   0.8098   0.8380   0.8415   0.8928   1.1038   1.1189   1.1245
     1.3335   1.3504   1.3575   1.3811   1.3940   1.4435   1.5756   1.6389
     1.6439   1.6967   1.7384   1.8520   1.9361   1.9486   2.0005   2.0583
     2.1381   2.1546   2.3638   2.4482   2.5750   2.7936   2.8214   6.6406
     7.1521   7.2619   7.2772   7.3141   7.3162   7.9039   8.2413   8.5326
     8.5875   8.6177   8.8968   9.0269   9.4322   9.4401   9.4726   9.5498
     9.6935

          k =-0.5000 0.1320 0.0000 ( 34570 PWs)   bands (ev):

   -35.5941 -35.5183 -23.4333 -22.6575 -22.6209 -22.4506 -17.0810 -16.9626
   -16.8243 -16.7065 -16.6976 -16.6147 -15.1902 -15.0565 -15.0469 -14.6463
   -14.5649 -14.3820 -14.2813 -14.2098 -14.1966 -14.1764 -14.1513 -14.1344
   -13.9887 -13.8023 -13.7060  -8.8072  -8.3679  -8.3259  -7.9751  -7.9273
    -7.8488  -7.7920  -7.7617  -7.6755  -7.6392  -7.5833  -7.4819  -3.1200
    -3.0637  -2.9549  -2.5992  -2.3760  -2.3680  -2.3587  -2.0255  -1.9549
    -1.8766  -1.8181  -1.7333  -1.6267  -1.6263  -1.5378  -1.5348  -1.4443
    -1.4434  -1.3930  -1.3907  -1.2195  -1.0946  -0.9455  -0.8844  -0.8780
    -0.7330  -0.7108  -0.7081  -0.6627  -0.6005  -0.4708  -0.4537  -0.3077
    -0.3026  -0.0887  -0.0721   0.0245   0.0797   0.0800   0.1247   0.1658
     0.1666   0.2418   0.3999   0.4994   0.4999   0.5727   0.6212   0.7279
     0.8091   0.8453   0.8850   1.0396   1.0722   1.1009   1.1654   1.1984
     1.2641   1.2698   1.4003   1.4147   1.4723   1.5235   1.6146   1.6880
     1.7152   1.7314   1.7353   1.8582   1.9009   1.9778   2.0601   2.0732
     2.7346   2.7439   2.8905   2.9547   2.9689   3.1355   3.1803   6.4652
     7.1097   7.1254   7.1638   7.6169   7.6225   7.8614   8.1616   8.2548
     8.4485   8.7000   8.8936   9.2342   9.4602   9.4652   9.5595   9.6099
     9.6404

          k =-0.5000 0.2640 0.0000 ( 34584 PWs)   bands (ev):

   -35.5898 -35.5139 -23.3903 -22.6066 -22.5699 -22.4007 -17.0590 -16.9432
   -16.8409 -16.7761 -16.7531 -16.6205 -14.9766 -14.9057 -14.8967 -14.5497
   -14.4747 -14.2806 -14.1809 -14.1447 -14.1434 -14.1317 -14.0960 -14.0643
   -14.0587 -13.7923 -13.7027  -8.8646  -8.7388  -8.6080  -8.2442  -8.2084
    -8.0932  -8.0632  -8.0476  -7.9249  -7.8777  -7.8516  -7.7890  -3.4289
    -3.3305  -3.1850  -2.8446  -2.7790  -2.5417  -2.5103  -2.4093  -2.3993
    -2.3875  -2.3275  -2.2735  -2.2716  -2.2345  -1.9236  -1.8307  -1.7489
    -1.7105  -1.5314  -1.2299  -1.1375  -1.1104  -1.0026  -0.9838  -0.9797
    -0.9181  -0.8587  -0.7609  -0.6891  -0.6889  -0.6457  -0.5386  -0.4922
    -0.4099  -0.4002  -0.3710   0.0434   0.1031   0.2419   0.3841   0.4782
     0.6150   0.6439   0.7182   0.8363   0.8380   1.0750   1.0854   1.0874
     1.1509   1.1730   1.1838   1.2383   1.3191   1.4072   1.4445   1.4611
     1.5010   1.5357   1.6346   1.6831   1.7023   1.7448   1.8005   1.8114
     1.8130   1.8804   1.8913   1.9056   1.9388   1.9664   2.0691   2.1841
     2.9662   2.9695   3.7511   3.8522   3.8681   3.9683   3.9811   5.8686
     6.6797   6.6940   7.0861   7.5570   7.8109   7.8900   8.4269   8.4368
     8.8802   9.0160   9.0588   9.4208   9.4260   9.5747   9.5958   9.7190
     9.7951

          k =-0.5000 0.3960 0.0000 ( 34556 PWs)   bands (ev):

   -35.5854 -35.5095 -23.3465 -22.5544 -22.5177 -22.3497 -17.0374 -16.9701
   -16.9240 -16.9009 -16.6774 -16.5538 -14.7264 -14.7159 -14.6774 -14.4655
   -14.3994 -14.2378 -14.1998 -14.1564 -14.1141 -14.0923 -14.0902 -13.9965
   -13.9724 -13.7675 -13.6508  -9.2846  -8.8884  -8.6932  -8.6193  -8.5859
    -8.4303  -8.3812  -8.3513  -8.1003  -8.0028  -7.9538  -7.8474  -3.8992
    -3.7862  -3.6009  -3.4765  -3.3076  -2.9516  -2.9502  -2.7160  -2.6948
    -2.5681  -2.3578  -2.3367  -2.3106  -2.3041  -2.2135  -2.1247  -1.9212
    -1.8756  -1.8049  -1.3542  -1.2488  -1.2316  -1.1211  -1.0951  -1.0632
    -1.0333  -0.9073  -0.8950  -0.8916  -0.7996  -0.7838  -0.7088  -0.6150
    -0.4576  -0.3730  -0.3689   0.1422   0.2564   0.3100   0.4779   0.7040
     0.9079   1.0085   1.0878   1.2688   1.2770   1.2863   1.2949   1.3702
     1.4231   1.4553   1.5454   1.5463   1.5532   1.6469   1.6806   1.7150
     1.7270   1.7706   1.8228   1.8415   1.9001   1.9326   1.9393   1.9849
     2.0512   2.1265   2.1332   2.1721   2.2294   2.2420   2.3177   2.4871
     2.7820   2.7849   4.2613   4.4981   4.5175   4.5703   4.5732   5.2775
     6.1848   6.1967   6.8349   7.2097   7.7833   7.8004   8.5341   8.8249
     8.9119   8.9754   9.4109   9.5142   9.5748   9.6291   9.7216   9.8473
     9.8855

          k =-0.5000-0.5279 0.0000 ( 34620 PWs)   bands (ev):

   -35.5837 -35.5077 -23.3281 -22.5324 -22.4957 -22.3282 -17.0286 -17.0207
   -16.9507 -16.9162 -16.6439 -16.5235 -14.6279 -14.6217 -14.4579 -14.4233
   -14.3835 -14.3105 -14.2839 -14.1818 -14.1091 -14.0689 -14.0685 -13.9554
   -13.9310 -13.7467 -13.6198  -9.4499  -9.0048  -8.7653  -8.7322  -8.6700
    -8.5835  -8.4973  -8.4673  -8.1972  -8.0308  -7.9812  -7.8631  -4.1073
    -3.9936  -3.8202  -3.7184  -3.5141  -3.1759  -3.1747  -2.7484  -2.7268
    -2.6013  -2.3630  -2.3402  -2.3059  -2.3007  -2.2942  -2.2265  -1.9915
    -1.9194  -1.8959  -1.4163  -1.3639  -1.3484  -1.1854  -1.1614  -1.0403
    -1.0007  -0.9970  -0.9953  -0.9113  -0.8992  -0.8275  -0.7653  -0.6049
    -0.4503  -0.3442  -0.3411   0.1733   0.2967   0.3305   0.5033   0.8132
     1.0053   1.1479   1.2594   1.3324   1.3487   1.3536   1.3908   1.4023
     1.4456   1.6068   1.6147   1.7187   1.7457   1.7629   1.7674   1.8092
     1.8571   1.8926   1.9233   1.9551   1.9761   2.0183   2.0576   2.0720
     2.1818   2.3184   2.3186   2.3257   2.3754   2.4130   2.5045   2.5255
     2.5307   2.6543   4.3842   4.7033   4.7226   4.7718   4.7806   5.0422
     5.9578   5.9682   6.7152   7.1085   7.7032   7.8251   8.3509   8.8623
     9.0212   9.0479   9.0765   9.2470   9.5340   9.5494   9.8569   9.9319
     9.9823

     the Fermi energy is     2.5531 ev

!    total energy              =   -1842.85045041 Ry
     Harris-Foulkes estimate   =   -1842.85045041 Ry
     estimated scf accuracy    <          5.9E-11 Ry

     The total energy is the sum of the following terms:

     one-electron contribution =  -29129.38635340 Ry
     hartree contribution      =   14717.43052862 Ry
     xc contribution           =    -621.62309887 Ry
     ewald contribution        =   13190.73570967 Ry
     smearing contrib. (-TS)   =      -0.00723644 Ry

     convergence has been achieved in  38 iterations

     negative rho (up, down):  1.523E-03 0.000E+00

     Forces acting on atoms (cartesian axes, Ry/au):

     atom    1 type  4   force =     0.00000000    0.00000000   -0.00019089
     atom    2 type  3   force =     0.00000000    0.00000000    0.00043665
     atom    3 type  4   force =     0.00000000    0.00000000   -0.00080112
     atom    4 type  1   force =     0.00000000    0.00000000   -0.00026507
     atom    5 type  3   force =     0.00000000    0.00000000    0.00059738
     atom    6 type  4   force =     0.00000000    0.00000000    0.00003672
     atom    7 type  4   force =     0.00000000    0.00000000    0.00023259
     atom    8 type  2   force =     0.00000000    0.00000000   -0.00065719
     atom    9 type  4   force =     0.00000000    0.00000000    0.00046752
     atom   10 type  4   force =     0.00000000    0.00000000    0.00101670
     atom   11 type  3   force =     0.00000000    0.00000000   -0.00234006
     atom   12 type  1   force =     0.00000000    0.00000000   -0.00781300
     atom   13 type  4   force =     0.00000000    0.00000000   -0.04470600
     atom   14 type  4   force =     0.00000000    0.00000000    0.01521481
     atom   15 type  3   force =     0.00000000    0.00000000    0.04205307
     atom   16 type  4   force =     0.00000000    0.00000000    0.01338248
     atom   17 type  1   force =     0.00000000    0.00000000    0.00731608
     atom   18 type  3   force =     0.00000000    0.00000000    0.00587477
     atom   19 type  4   force =     0.00000000    0.00000000   -0.01165758
     atom   20 type  4   force =     0.00000000    0.00000000   -0.00450002
     atom   21 type  2   force =     0.00000000    0.00000000   -0.00026838
     atom   22 type  4   force =     0.00000000    0.00000000   -0.00577009
     atom   23 type  4   force =     0.00000000    0.00000000   -0.00193715
     atom   24 type  3   force =     0.00000000    0.00000000   -0.00205786
     atom   25 type  1   force =     0.00000000    0.00000000   -0.00427977
     atom   26 type  4   force =     0.00000000    0.00000000    0.00101918
     atom   27 type  3   force =     0.00000000    0.00000000   -0.00057714
     atom   28 type  4   force =     0.00000000    0.00000000    0.00017337

     Total force =     0.049227     Total SCF correction =     0.000008


     Computing stress (Cartesian axis) and pressure


     negative rho (up, down):  1.523E-03 0.000E+00
          total   stress  (Ry/bohr**3)                   (kbar)     P=       -5.85
  -0.00008101   0.00000000   0.00000000          -11.92        0.00        0.00
   0.00000000  -0.00002179   0.00000000            0.00       -3.20        0.00
   0.00000000   0.00000000  -0.00001652            0.00        0.00       -2.43


     BFGS Geometry Optimization

     number of scf cycles    =   1
     number of bfgs steps    =   0

     energy   new            =   -1842.8504504131 Ry

     new trust radius        =       0.0420530684 bohr
     new conv_thr            =            1.0E-10 Ry


ATOMIC_POSITIONS (angstrom)
O             0.0000000000        1.8611200000       -0.1846200000    0   0   0
Cu            0.0000000000        0.0000000000        0.1039800000    0   0   0
O             0.0000000000        0.0000000000        1.9772600000    0   0   0
Ba            1.9651100000        1.8611200000        2.2364100000    0   0   0
Cu            0.0000000000        0.0000000000        4.0773100000    0   0   0
O             1.9651100000        0.0000000000        4.2321000000    0   0   0
O             0.0000000000        1.8611200000        4.3692200000    0   0   0
Ca            1.9651100000        1.8611200000        5.8860000000    0   0   0
O             0.0000000000        1.8611200000        7.3367500000    0   0   0
O             1.9651100000        0.0000000000        7.4847600000    0   0   0
Cu            0.0000000000        0.0000000000        7.6688600000    0   0   0
Ba            1.9651100000        1.8611200000        9.5487700000    0   0   0
O             0.0000000000        0.0000000000        9.8708900000    0   0   0
O             0.0000000000        1.8611200000       11.6666913315
Cu            0.0000000000        0.0000000000       11.6811135253
O             0.0000000000        0.0000000000       13.5538617053
Ba            1.9651100000        1.8611200000       13.8727415020
Cu            0.0000000000        0.0000000000       16.7518187948
O             1.9651100000        0.0000000000       17.0266410762
O             0.0000000000        1.8611200000       17.0784186914
Ca            1.9651100000        1.8611200000       18.5314479773
O             0.0000000000        1.8611200000       20.1483600000    0   0   0
O             1.9651100000        0.0000000000       20.2854800000    0   0   0
Cu            0.0000000000        0.0000000000       20.4402800000    0   0   0
Ba            1.9651100000        1.8611200000       22.2811700000    0   0   0
O             0.0000000000        0.0000000000       22.5402800000    0   0   0
Cu            0.0000000000        0.0000000000       24.4135800000    0   0   0
O             0.0000000000        1.8611200000       24.7021300000    0   0   0


     NEW-OLD atomic charge density approx. for the potential

     negative rho (up, down):  1.592E-03 0.000E+00

     total cpu time spent up to now is      690.7 secs

     Self-consistent Calculation

     iteration #  1     ecut=    60.00 Ry     beta= 0.70
     Davidson diagonalization with overlap
     ethr =  1.00E-06,  avg # of iterations =  4.5

     negative rho (up, down):  1.533E-03 0.000E+00

     total cpu time spent up to now is      718.5 secs

     total energy              =   -1842.85245136 Ry
     Harris-Foulkes estimate   =   -1842.85238869 Ry
     estimated scf accuracy    <       0.00039311 Ry

     iteration #  2     ecut=    60.00 Ry     beta= 0.70
     Davidson diagonalization with overlap
     ethr =  1.73E-07,  avg # of iterations =  2.0

     negative rho (up, down):  1.528E-03 0.000E+00

     total cpu time spent up to now is      734.3 secs

     total energy              =   -1842.85246825 Ry
     Harris-Foulkes estimate   =   -1842.85247598 Ry
     estimated scf accuracy    <       0.00077013 Ry

     iteration #  3     ecut=    60.00 Ry     beta= 0.70
     Davidson diagonalization with overlap
     ethr =  1.73E-07,  avg # of iterations =  1.0

     negative rho (up, down):  1.525E-03 0.000E+00

     total cpu time spent up to now is      748.5 secs

     total energy              =   -1842.85247099 Ry
     Harris-Foulkes estimate   =   -1842.85247627 Ry
     estimated scf accuracy    <       0.00004682 Ry

     iteration #  4     ecut=    60.00 Ry     beta= 0.70
     Davidson diagonalization with overlap
     ethr =  2.06E-08,  avg # of iterations =  2.8

     negative rho (up, down):  1.524E-03 0.000E+00

     total cpu time spent up to now is      765.6 secs

     total energy              =   -1842.85247301 Ry
     Harris-Foulkes estimate   =   -1842.85247601 Ry
     estimated scf accuracy    <       0.00007651 Ry

     iteration #  5     ecut=    60.00 Ry     beta= 0.70
     Davidson diagonalization with overlap
     ethr =  2.06E-08,  avg # of iterations =  1.0

     negative rho (up, down):  1.524E-03 0.000E+00

     total cpu time spent up to now is      780.2 secs

     total energy              =   -1842.85247397 Ry
     Harris-Foulkes estimate   =   -1842.85247487 Ry
     estimated scf accuracy    <       0.00002186 Ry

     iteration #  6     ecut=    60.00 Ry     beta= 0.70
     Davidson diagonalization with overlap
     ethr =  9.63E-09,  avg # of iterations =  1.0

     negative rho (up, down):  1.523E-03 0.000E+00

     total cpu time spent up to now is      794.7 secs

     total energy              =   -1842.85247428 Ry
     Harris-Foulkes estimate   =   -1842.85247452 Ry
     estimated scf accuracy    <       0.00000475 Ry

     iteration #  7     ecut=    60.00 Ry     beta= 0.70
     Davidson diagonalization with overlap
     ethr =  2.09E-09,  avg # of iterations =  1.1

     negative rho (up, down):  1.523E-03 0.000E+00

     total cpu time spent up to now is      809.4 secs

     total energy              =   -1842.85247429 Ry
     Harris-Foulkes estimate   =   -1842.85247448 Ry
     estimated scf accuracy    <       0.00000726 Ry

     iteration #  8     ecut=    60.00 Ry     beta= 0.70
     Davidson diagonalization with overlap
     ethr =  2.09E-09,  avg # of iterations =  1.0

     negative rho (up, down):  1.523E-03 0.000E+00

     total cpu time spent up to now is      824.0 secs

     total energy              =   -1842.85247431 Ry
     Harris-Foulkes estimate   =   -1842.85247437 Ry
     estimated scf accuracy    <       0.00000321 Ry

     iteration #  9     ecut=    60.00 Ry     beta= 0.70
     Davidson diagonalization with overlap
     ethr =  1.41E-09,  avg # of iterations =  1.0

     negative rho (up, down):  1.523E-03 0.000E+00

     total cpu time spent up to now is      838.5 secs

     total energy              =   -1842.85247430 Ry
     Harris-Foulkes estimate   =   -1842.85247434 Ry
     estimated scf accuracy    <       0.00000133 Ry

     iteration # 10     ecut=    60.00 Ry     beta= 0.70
     Davidson diagonalization with overlap
     ethr =  5.85E-10,  avg # of iterations =  1.0

     negative rho (up, down):  1.524E-03 0.000E+00

     total cpu time spent up to now is      853.0 secs

     total energy              =   -1842.85247432 Ry
     Harris-Foulkes estimate   =   -1842.85247433 Ry
     estimated scf accuracy    <       0.00000024 Ry

     iteration # 11     ecut=    60.00 Ry     beta= 0.70
     Davidson diagonalization with overlap
     ethr =  1.06E-10,  avg # of iterations =  2.8

     negative rho (up, down):  1.524E-03 0.000E+00

     total cpu time spent up to now is      869.6 secs

     total energy              =   -1842.85247432 Ry
     Harris-Foulkes estimate   =   -1842.85247433 Ry
     estimated scf accuracy    <       0.00000008 Ry

     iteration # 12     ecut=    60.00 Ry     beta= 0.70
     Davidson diagonalization with overlap
     ethr =  3.67E-11,  avg # of iterations =  2.4

     negative rho (up, down):  1.524E-03 0.000E+00

     total cpu time spent up to now is      886.0 secs

     total energy              =   -1842.85247432 Ry
     Harris-Foulkes estimate   =   -1842.85247432 Ry
     estimated scf accuracy    <       0.00000002 Ry

     iteration # 13     ecut=    60.00 Ry     beta= 0.70
     Davidson diagonalization with overlap
     ethr =  7.87E-12,  avg # of iterations =  3.0

     negative rho (up, down):  1.524E-03 0.000E+00

     total cpu time spent up to now is      904.6 secs

     total energy              =   -1842.85247432 Ry
     Harris-Foulkes estimate   =   -1842.85247432 Ry
     estimated scf accuracy    <       0.00000001 Ry

     iteration # 14     ecut=    60.00 Ry     beta= 0.70
     Davidson diagonalization with overlap
     ethr =  5.84E-12,  avg # of iterations =  1.0

     negative rho (up, down):  1.524E-03 0.000E+00

     total cpu time spent up to now is      919.2 secs

     total energy              =   -1842.85247432 Ry
     Harris-Foulkes estimate   =   -1842.85247432 Ry
     estimated scf accuracy    <          6.7E-09 Ry

     iteration # 15     ecut=    60.00 Ry     beta= 0.70
     Davidson diagonalization with overlap
     ethr =  2.94E-12,  avg # of iterations =  1.0

     negative rho (up, down):  1.524E-03 0.000E+00

     total cpu time spent up to now is      933.5 secs

     total energy              =   -1842.85247432 Ry
     Harris-Foulkes estimate   =   -1842.85247432 Ry
     estimated scf accuracy    <          2.1E-09 Ry

     iteration # 16     ecut=    60.00 Ry     beta= 0.70
     Davidson diagonalization with overlap
     ethr =  9.04E-13,  avg # of iterations =  1.8

     negative rho (up, down):  1.524E-03 0.000E+00

     total cpu time spent up to now is      949.0 secs

     total energy              =   -1842.85247432 Ry
     Harris-Foulkes estimate   =   -1842.85247432 Ry
     estimated scf accuracy    <          8.7E-10 Ry

     iteration # 17     ecut=    60.00 Ry     beta= 0.70
     Davidson diagonalization with overlap
     ethr =  3.81E-13,  avg # of iterations =  2.0

     negative rho (up, down):  1.525E-03 0.000E+00

     total cpu time spent up to now is      964.7 secs

     total energy              =   -1842.85247432 Ry
     Harris-Foulkes estimate   =   -1842.85247432 Ry
     estimated scf accuracy    <          4.4E-10 Ry

     iteration # 18     ecut=    60.00 Ry     beta= 0.70
     Davidson diagonalization with overlap
     ethr =  1.95E-13,  avg # of iterations =  1.2

     negative rho (up, down):  1.525E-03 0.000E+00

     total cpu time spent up to now is      979.4 secs

     total energy              =   -1842.85247432 Ry
     Harris-Foulkes estimate   =   -1842.85247432 Ry
     estimated scf accuracy    <          2.6E-10 Ry

     iteration # 19     ecut=    60.00 Ry     beta= 0.70
     Davidson diagonalization with overlap
     ethr =  1.14E-13,  avg # of iterations =  1.2

     negative rho (up, down):  1.525E-03 0.000E+00

     total cpu time spent up to now is      993.5 secs

     End of self-consistent calculation

          k = 0.0000 0.0000 0.0000 ( 34661 PWs)   bands (ev):

   -35.6016 -35.5412 -23.5632 -22.8055 -22.7701 -22.5749 -17.1061 -16.9676
   -16.6525 -16.6415 -16.6043 -16.5811 -15.3175 -15.1895 -15.0326 -14.6863
   -14.6725 -14.5884 -14.4368 -14.1961 -14.1902 -13.9965 -13.9016 -13.8883
   -13.8390 -13.6126 -13.5990  -8.8005  -8.4397  -8.3413  -7.9369  -7.8993
    -7.8893  -7.8681  -7.7481  -7.7064  -7.6734  -7.6342  -7.4677  -2.3525
    -2.3426  -2.3392  -1.8437  -1.7849  -1.7807  -1.6841  -1.6132  -1.5798
    -1.5578  -1.4957  -1.4339  -1.4329  -1.2640  -1.2352  -1.2350  -1.0520
    -0.8643  -0.6812  -0.4731  -0.4685  -0.3906  -0.3880  -0.3713  -0.3409
    -0.3272  -0.2897  -0.2791  -0.2716  -0.2551  -0.2451  -0.2051  -0.1665
    -0.1539  -0.1374  -0.0514  -0.0482   0.0835   0.0843   0.0847   0.1153
     0.1226   0.1588   0.1605   0.2152   0.2853   0.2969   0.3101   0.4228
     0.5610   0.5969   0.7568   0.8673   0.8751   0.9322   0.9612   1.1679
     1.2418   1.2925   1.3353   1.3927   1.4284   1.4387   1.4831   1.5080
     1.6293   1.7943   1.8082   1.8141   1.8829   1.9411   1.9470   1.9638
     2.0241   2.0788   2.1081   2.2171   2.2396   2.5142   2.5198   5.1522
     5.2030   5.2992   5.9360   6.1191   6.5976   6.7510   6.7822   7.0958
     7.7310   7.9632   8.1148   8.2631   8.3101   8.5201   8.6056   8.7536
     9.0598

          k = 0.0000 0.1320 0.0000 ( 34589 PWs)   bands (ev):

   -35.5998 -35.5394 -23.5418 -22.7788 -22.7434 -22.5491 -17.0699 -16.9346
   -16.7141 -16.6501 -16.6498 -16.6020 -15.2285 -15.1097 -14.9777 -14.6917
   -14.6711 -14.5618 -14.4031 -14.2057 -14.1979 -14.0028 -13.9483 -13.9205
   -13.8681 -13.6803 -13.6202  -8.7894  -8.4018  -8.3867  -7.9364  -7.8891
    -7.8514  -7.8202  -7.7503  -7.7434  -7.7153  -7.5882  -7.5187  -2.4066
    -2.3892  -2.3715  -2.1796  -2.1281  -2.0683  -1.9359  -1.8377  -1.6636
    -1.6592  -1.6582  -1.5628  -1.5403  -1.4129  -1.4046  -1.2873  -1.2586
    -0.9127  -0.6656  -0.6602  -0.6455  -0.5886  -0.5704  -0.5630  -0.4752
    -0.4642  -0.3502  -0.2822  -0.2556  -0.2310  -0.1940  -0.1625  -0.1624
    -0.1433  -0.0697  -0.0300  -0.0272  -0.0084   0.0251   0.1078   0.1088
     0.1427   0.1673   0.2300   0.2640   0.2891   0.3547   0.3894   0.4870
     0.5187   0.7458   0.8903   1.0161   1.0545   1.0645   1.0770   1.1273
     1.1708   1.1852   1.2796   1.3853   1.3991   1.4737   1.4854   1.5391
     1.6051   1.6391   1.7012   1.7941   1.7996   1.8764   1.9877   1.9883
     1.9952   2.0205   2.2396   2.3571   2.7676   2.8048   2.8359   5.5358
     5.5789   5.6209   6.2486   6.4582   6.7985   7.0544   7.0812   7.3677
     7.8768   8.1334   8.2870   8.3345   8.5217   8.6363   8.7683   8.9357
     9.1661

          k = 0.0000 0.2640 0.0000 ( 34465 PWs)   bands (ev):

   -35.5954 -35.5349 -23.4892 -22.7129 -22.6774 -22.4854 -16.9777 -16.8685
   -16.8642 -16.7839 -16.6445 -16.5964 -15.0280 -14.9477 -14.8329 -14.7410
   -14.6856 -14.5045 -14.3169 -14.1948 -14.1781 -14.0985 -14.0412 -13.9812
   -13.9135 -13.8515 -13.6693  -8.7594  -8.4856  -8.3074  -7.9359  -7.8886
    -7.8390  -7.8062  -7.7404  -7.7310  -7.6994  -7.6288  -7.4725  -2.8672
    -2.8260  -2.7996  -2.6391  -2.4791  -2.4432  -2.4362  -2.3120  -2.2956
    -2.2932  -1.8327  -1.6096  -1.5180  -1.4875  -1.4855  -1.4553  -1.3479
    -1.0656  -1.0418  -0.9971  -0.9647  -0.8217  -0.8070  -0.6662  -0.6349
    -0.5707  -0.5503  -0.5323  -0.5188  -0.5121  -0.5118  -0.4900  -0.3463
    -0.2211  -0.2170  -0.0018   0.0019   0.0473   0.0795   0.0825   0.1549
     0.2051   0.3610   0.4256   0.5783   0.6019   0.6728   0.6730   0.6846
     0.7064   0.8797   0.9538   1.0136   1.0610   1.1249   1.1500   1.1519
     1.1601   1.1906   1.2548   1.2711   1.3296   1.4756   1.5219   1.5948
     1.6027   1.7397   1.7727   1.9128   1.9207   1.9589   1.9605   2.0028
     2.0663   2.0788   2.3734   2.4780   3.0245   3.0316   3.7181   6.3134
     6.4721   6.4781   6.9561   7.2929   7.3623   7.6893   7.8744   7.8985
     8.2805   8.5286   8.6323   8.7475   8.8994   8.9711   9.0804   9.1461
     9.3535

          k = 0.0000 0.3960 0.0000 ( 34424 PWs)   bands (ev):

   -35.5910 -35.5305 -23.4353 -22.6448 -22.6091 -22.4197 -17.0048 -16.9441
   -16.8759 -16.7434 -16.6388 -16.5908 -14.9489 -14.9341 -14.7074 -14.6567
   -14.5820 -14.4727 -14.2431 -14.2351 -14.1262 -14.1152 -14.1138 -14.0485
   -14.0337 -13.9613 -13.7430  -8.7151  -8.5822  -8.2086  -7.9359  -7.9172
    -7.8890  -7.8837  -7.7457  -7.7149  -7.6025  -7.5705  -7.3495  -3.5679
    -3.3032  -3.2639  -3.0762  -3.0101  -3.0096  -2.9158  -2.3864  -2.3823
    -2.3398  -2.1849  -1.8233  -1.8005  -1.5463  -1.4632  -1.4196  -1.2846
    -1.2322  -1.2094  -1.2067  -1.1355  -1.0901  -1.0688  -0.8813  -0.8433
    -0.8310  -0.7750  -0.7656  -0.7613  -0.7243  -0.6980  -0.5347  -0.3652
    -0.3067  -0.2342  -0.1315   0.0152   0.0196   0.0872   0.1115   0.1197
     0.1552   0.4753   0.5344   0.6012   0.6703   0.6865   0.7646   0.8826
     0.9096   0.9122   0.9212   0.9500   0.9910   1.0746   1.1210   1.1279
     1.1826   1.3067   1.4236   1.5347   1.6033   1.6176   1.7102   1.7341
     1.8092   1.8176   1.8722   1.9237   1.9649   1.9797   2.1436   2.2171
     2.3255   2.3531   2.3545   2.4175   2.9185   2.9245   4.3445   6.9427
     7.0802   7.4192   7.4296   8.1337   8.2413   8.3589   8.4072   8.6650
     8.6969   9.0726   9.0761   9.1157   9.1784   9.2101   9.4267   9.4863
     9.5020

          k = 0.0000-0.5279 0.0000 ( 34482 PWs)   bands (ev):

   -35.5892 -35.5286 -23.4125 -22.6158 -22.5801 -22.3918 -17.0570 -16.9935
[...]

   -35.7439 -35.7007 -22.6898 -22.6815 -22.6427 -22.4584 -17.1127 -17.0666
   -16.9871 -16.9408 -16.9044 -16.8443 -14.8044 -14.8009 -14.5151 -14.4920
   -14.4787 -14.3858 -14.3290 -14.2717 -14.2348 -14.1660 -14.1498 -14.1131
   -13.9637 -13.9478 -13.4900  -8.4500  -8.4425  -8.3044  -8.2114  -8.0731
    -8.0632  -7.9773  -7.9754  -7.9672  -7.8683  -7.8007  -7.7282  -3.5324
    -3.5042  -3.3739  -3.2599  -3.1745  -3.0144  -3.0138  -2.4412  -2.4356
    -2.2613  -2.1472  -2.1347  -2.1052  -1.9065  -1.8597  -1.8354  -1.7443
    -1.6591  -1.5331  -1.4676  -1.4359  -1.2515  -1.2024  -1.1452  -0.9295
    -0.8975  -0.8588  -0.8420  -0.8386  -0.8243  -0.6228  -0.6081  -0.5342
    -0.5046  -0.4427  -0.4159   0.0578   0.1481   0.1969   0.3295   0.3787
     0.6132   0.7486   0.8511   0.9064   0.9096   0.9546   0.9997   1.1833
     1.2129   1.2202   1.2457   1.2507   1.3001   1.3784   1.4397   1.4687
     1.4788   1.5593   1.5948   1.6477   1.6607   1.7262   1.7621   1.7793
     1.8216   1.8590   1.9494   2.0134   2.0602   2.1906   2.1914   2.3701
     2.7154   2.7195   3.4279   3.4527   3.5679   3.6204   3.8278   6.4589
     6.7869   6.7907   7.5746   7.6039   8.5903   8.6515   8.7029   8.7274
     8.8629   8.9496   9.3899   9.5650   9.5922   9.6439   9.6877   9.7447
     9.8111

          k = 0.2500-0.5279 0.0000 ( 34528 PWs)   bands (ev):

   -35.7421 -35.6989 -22.6647 -22.6564 -22.6209 -22.4343 -17.1597 -17.1131
   -16.9820 -16.9359 -16.8685 -16.8091 -14.7933 -14.7884 -14.4351 -14.4256
   -14.4131 -14.3162 -14.2963 -14.2423 -14.2175 -14.2128 -14.1372 -14.1364
   -14.0028 -13.9890 -13.5047  -8.4512  -8.4436  -8.3166  -8.2281  -8.1625
    -8.1548  -8.0378  -8.0275  -8.0044  -7.9616  -7.8438  -7.8169  -3.7341
    -3.7044  -3.6429  -3.4563  -3.3674  -3.2412  -3.2405  -2.4345  -2.4297
    -2.2282  -2.1178  -2.1025  -2.0508  -2.0213  -1.9967  -1.8922  -1.8915
    -1.8049  -1.5741  -1.5012  -1.4752  -1.3226  -1.2878  -1.2417  -1.0139
    -0.9815  -0.9354  -0.9156  -0.8576  -0.8480  -0.6611  -0.6218  -0.5418
    -0.4989  -0.4628  -0.4287   0.0935   0.1816   0.2066   0.3492   0.4093
     0.6455   0.8001   0.9750   0.9792   1.0117   1.0135   1.0192   1.1312
     1.1445   1.2501   1.3128   1.3311   1.3924   1.4201   1.4253   1.4260
     1.5150   1.6317   1.6617   1.8286   1.8347   1.8864   1.9210   1.9401
     1.9666   1.9904   2.0151   2.1215   2.2366   2.3670   2.3677   2.4151
     2.4880   2.4934   3.4459   3.4745   3.6026   3.6528   3.9365   6.3751
     6.7500   6.7527   7.5163   7.5627   8.5163   8.6673   8.9953   9.1056
     9.3521   9.4188   9.4278   9.5839   9.6847   9.7450   9.8219   9.9243
     9.9784

          k = 0.3750 0.0000 0.0000 ( 34518 PWs)   bands (ev):

   -35.7516 -35.7084 -22.7857 -22.7774 -22.7286 -22.5512 -17.1544 -17.1033
   -17.0063 -16.9457 -16.7876 -16.7448 -15.0430 -15.0385 -14.9116 -14.7056
   -14.6964 -14.6694 -14.5721 -14.2751 -14.2688 -14.2026 -14.1624 -14.0083
   -13.9701 -13.8917 -13.5330  -8.0647  -8.0343  -8.0230  -7.8523  -7.7614
    -7.7542  -7.5849  -7.5791  -7.5770  -7.5068  -7.4547  -7.3426  -2.9288
    -2.9163  -2.7794  -2.6543  -2.2825  -2.2812  -1.9639  -1.7301  -1.6951
    -1.6032  -1.5847  -1.5630  -1.5204  -1.2665  -1.2663  -1.2004  -1.1548
    -1.0763  -1.0627  -1.0461  -0.9582  -0.9571  -0.9241  -0.8691  -0.8343
    -0.7088  -0.7071  -0.6956  -0.5269  -0.4610  -0.4162  -0.3633  -0.3298
    -0.3035  -0.2982  -0.1288  -0.0656   0.0223   0.0224   0.1208   0.1309
     0.2548   0.3652   0.3667   0.3755   0.3821   0.4096   0.4494   0.4728
     0.5899   0.6652   0.6884   0.8546   0.9026   1.0303   1.1016   1.1032
     1.1602   1.1944   1.2559   1.2624   1.3669   1.4425   1.4746   1.5141
     1.5642   1.6758   1.6863   1.7122   1.7765   1.8370   1.9176   2.0574
     2.0815   2.1798   2.2851   2.4672   2.4908   2.6982   2.7020   6.4239
     6.4253   6.7027   7.6373   7.7012   7.9204   7.9242   8.2961   8.3651
     8.4563   8.5771   9.0289   9.2134   9.2587   9.2818   9.3709   9.4343
     9.4824

          k = 0.3750 0.1320 0.0000 ( 34583 PWs)   bands (ev):

   -35.7499 -35.7066 -22.7644 -22.7561 -22.7095 -22.5305 -17.1465 -17.0957
   -16.9793 -16.9193 -16.8461 -16.8025 -14.9940 -14.9897 -14.8463 -14.6641
   -14.6525 -14.6113 -14.5182 -14.2480 -14.2447 -14.1835 -14.1515 -14.0376
   -13.9643 -13.9114 -13.5163  -8.0829  -8.0733  -8.0612  -7.9300  -7.9214
    -7.8747  -7.7937  -7.6827  -7.6761  -7.6685  -7.5291  -7.4399  -2.9872
    -2.9698  -2.8200  -2.6879  -2.2918  -2.2895  -2.1126  -2.0761  -1.9997
    -1.9113  -1.8869  -1.6753  -1.6749  -1.6371  -1.5007  -1.4661  -1.3630
    -1.3525  -1.2685  -1.1705  -1.1603  -1.0745  -0.9386  -0.7898  -0.7805
    -0.7722  -0.7030  -0.5885  -0.5166  -0.4686  -0.4411  -0.4230  -0.3192
    -0.3162  -0.1175  -0.1043  -0.0324  -0.0063   0.0883   0.1183   0.1196
     0.2490   0.2796   0.3923   0.3932   0.5251   0.6158   0.6297   0.7245
     0.7441   0.8526   0.9037   0.9383   1.0689   1.0904   1.1311   1.1681
     1.2142   1.2348   1.2818   1.2868   1.3948   1.4889   1.5270   1.5635
     1.6216   1.6427   1.6774   1.7174   1.7612   1.7748   1.8538   2.2332
     2.6574   2.6755   2.7485   2.8645   2.8798   3.0361   3.0615   6.5765
     6.5786   6.6327   7.6801   7.7335   7.9862   7.9895   8.3642   8.3854
     8.6684   8.7791   8.8520   9.0895   9.1480   9.2801   9.4335   9.4767
     9.5632

          k = 0.3750 0.2640 0.0000 ( 34595 PWs)   bands (ev):

   -35.7456 -35.7024 -22.7120 -22.7037 -22.6627 -22.4795 -17.1280 -17.0777
   -16.9785 -16.9344 -16.9101 -16.8500 -14.8675 -14.8637 -14.6715 -14.5640
   -14.5510 -14.4659 -14.3820 -14.2080 -14.1992 -14.1765 -14.1597 -14.0734
   -13.9526 -13.9297 -13.4757  -8.3795  -8.3719  -8.2164  -8.1359  -8.0586
    -8.0488  -7.9898  -7.9455  -7.9372  -7.8407  -7.7940  -7.7153  -3.3026
    -3.2670  -3.0545  -2.9240  -2.5807  -2.5614  -2.5535  -2.4367  -2.4160
    -2.4154  -2.3589  -2.2205  -2.2193  -1.9455  -1.8437  -1.8142  -1.6659
    -1.6036  -1.3795  -1.2829  -1.2598  -1.0498  -0.9714  -0.9239  -0.9217
    -0.9080  -0.8167  -0.7406  -0.7015  -0.6969  -0.5785  -0.5510  -0.5050
    -0.4494  -0.3917  -0.3833  -0.0205   0.0653   0.2821   0.4113   0.4246
     0.5914   0.6259   0.7541   0.7622   0.8552   0.9377   0.9400   1.0352
     1.1124   1.1470   1.1684   1.1909   1.3388   1.3404   1.3649   1.3886
     1.4791   1.5537   1.5757   1.6028   1.6329   1.6609   1.6769   1.6821
     1.7012   1.7213   1.7355   1.7663   1.7935   1.8928   2.0442   2.2330
     2.8854   2.8908   3.4169   3.6540   3.6656   3.7625   3.8083   6.3221
     6.6245   6.6279   7.4894   7.5006   8.3189   8.3232   8.5986   8.6913
     8.8599   9.1069   9.2549   9.2944   9.3347   9.4373   9.5007   9.6336
     9.7293

          k = 0.3750 0.3960 0.0000 ( 34549 PWs)   bands (ev):

   -35.7414 -35.6982 -22.6583 -22.6500 -22.6150 -22.4274 -17.1129 -17.0956
   -17.0643 -17.0489 -16.8373 -16.7787 -14.7227 -14.7193 -14.4972 -14.4627
   -14.4153 -14.3075 -14.2839 -14.2501 -14.2178 -14.1478 -14.1430 -14.0689
   -13.9677 -13.9181 -13.4333  -8.6489  -8.6414  -8.5081  -8.4082  -8.3119
    -8.3048  -8.1395  -8.0616  -8.0508  -8.0251  -7.9760  -7.8393  -3.7848
    -3.7459  -3.5043  -3.3859  -3.3105  -2.9941  -2.9936  -2.6797  -2.6743
    -2.5418  -2.4447  -2.2307  -2.2291  -2.1601  -2.1351  -1.9433  -1.9115
    -1.8735  -1.5177  -1.3009  -1.2673  -1.2277  -1.2253  -1.1774  -1.0186
    -1.0081  -0.9324  -0.9224  -0.8769  -0.8309  -0.7913  -0.7249  -0.5624
    -0.4231  -0.3938  -0.3915   0.1142   0.2076   0.3298   0.5385   0.5997
     0.8288   0.9799   1.0822   1.0978   1.1392   1.1923   1.2224   1.2828
     1.3049   1.4106   1.4151   1.4225   1.5027   1.5095   1.5677   1.6427
     1.6713   1.7015   1.7160   1.7878   1.8138   1.8693   1.8876   1.9578
     1.9964   2.0246   2.0330   2.1047   2.1124   2.1129   2.1826   2.3849
     2.7039   2.7110   3.7760   4.1681   4.1824   4.2418   4.2906   5.9005
     6.3225   6.3254   7.1681   7.2146   8.5760   8.7304   8.8467   8.8811
     9.1163   9.2783   9.3517   9.3859   9.3979   9.4782   9.5242   9.6564
     9.7864

          k = 0.3750-0.5279 0.0000 ( 34580 PWs)   bands (ev):

   -35.7397 -35.6965 -22.6357 -22.6273 -22.5949 -22.4054 -17.1476 -17.1015
   -17.1008 -17.0513 -16.8052 -16.7473 -14.6513 -14.6484 -14.4654 -14.4406
   -14.3309 -14.2690 -14.2505 -14.2298 -14.1545 -14.1352 -14.1289 -14.1279
   -13.9848 -13.9169 -13.4144  -8.7326  -8.7250  -8.6048  -8.5029  -8.4590
    -8.4521  -8.2962  -8.1399  -8.0823  -8.0714  -7.9777  -7.8469  -3.9914
    -3.9527  -3.7165  -3.6044  -3.5554  -3.2183  -3.2179  -2.6939  -2.6882
    -2.5499  -2.4476  -2.2711  -2.2507  -2.2239  -2.2226  -2.0011  -1.9705
    -1.9314  -1.5749  -1.3839  -1.3655  -1.2932  -1.2711  -1.2458  -1.0214
    -1.0188  -1.0152  -1.0059  -0.9694  -0.9320  -0.8167  -0.7462  -0.5769
    -0.3941  -0.3760  -0.3745   0.1536   0.2443   0.3398   0.5869   0.6796
     0.8984   1.1344   1.2022   1.2110   1.2354   1.2643   1.2751   1.2938
     1.3244   1.4724   1.5250   1.5317   1.5768   1.6641   1.6967   1.7170
     1.7210   1.8112   1.8140   1.8883   1.9595   1.9684   1.9887   2.1026
     2.1332   2.1561   2.1768   2.2388   2.3008   2.3036   2.3469   2.4536
     2.4623   2.4636   3.8505   4.3083   4.3272   4.3884   4.4355   5.7064
     6.1458   6.1482   7.0459   7.1222   8.4108   8.7123   8.9659   8.9939
     9.0828   9.2296   9.3377   9.4672   9.6208   9.6289   9.7237   9.7313
     9.8104

          k =-0.5000 0.0000 0.0000 ( 34514 PWs)   bands (ev):

   -35.7505 -35.7073 -22.7671 -22.7587 -22.7130 -22.5332 -17.2033 -17.1508
   -16.9675 -16.9078 -16.7863 -16.7435 -15.0945 -15.0873 -14.9445 -14.7126
   -14.6837 -14.4669 -14.3972 -14.3725 -14.3182 -14.2586 -14.2544 -14.0159
   -14.0019 -13.9111 -13.5774  -8.0550  -8.0225  -8.0110  -7.8354  -7.7391
    -7.7321  -7.5603  -7.5497  -7.5417  -7.4973  -7.4257  -7.3094  -3.0755
    -3.0634  -2.9255  -2.8007  -2.3029  -2.3018  -1.9660  -1.6831  -1.6681
    -1.6432  -1.6345  -1.4659  -1.4133  -1.2866  -1.2672  -1.2669  -1.2292
    -1.2050  -1.1859  -1.0680  -1.0290  -1.0021  -0.9775  -0.9621  -0.9223
    -0.7929  -0.7913  -0.7174  -0.5924  -0.5192  -0.4555  -0.3880  -0.3526
    -0.2932  -0.2886  -0.1341  -0.1252   0.0168   0.0169   0.0803   0.1060
     0.2484   0.3585   0.3587   0.3898   0.3924   0.4019   0.4060   0.4681
     0.5886   0.7195   0.7650   0.7961   0.8022   1.0500   1.0515   1.0864
     1.2651   1.2771   1.2907   1.3308   1.3761   1.4704   1.5474   1.5584
     1.5595   1.5912   1.5974   1.8100   1.8634   1.9159   1.9260   2.0728
     2.0936   2.1744   2.2914   2.4551   2.4959   2.7234   2.7328   6.9100
     7.2002   7.2038   7.2475   7.2480   8.1452   8.2214   8.4222   8.4659
     8.8200   8.9207   8.9377   9.1222   9.2900   9.2948   9.3280   9.3937
     9.6481

          k =-0.5000 0.1320 0.0000 ( 34570 PWs)   bands (ev):

   -35.7488 -35.7056 -22.7466 -22.7383 -22.6946 -22.5133 -17.1948 -17.1427
   -16.9422 -16.8831 -16.8441 -16.8003 -15.0369 -15.0300 -14.8752 -14.6716
   -14.6445 -14.4271 -14.3579 -14.3195 -14.2735 -14.2370 -14.2328 -14.0501
   -13.9820 -13.9343 -13.5509  -8.0548  -8.0498  -8.0433  -7.8683  -7.8614
    -7.8500  -7.7566  -7.7484  -7.6864  -7.6455  -7.6155  -7.5248  -3.1397
    -3.1228  -2.9741  -2.8408  -2.3171  -2.3153  -2.0900  -2.0441  -1.9904
    -1.8689  -1.8412  -1.6703  -1.6699  -1.6223  -1.5622  -1.5237  -1.4674
    -1.4494  -1.3658  -1.2714  -1.1762  -1.1375  -0.9409  -0.8457  -0.8433
    -0.7735  -0.7303  -0.6044  -0.5395  -0.5102  -0.4784  -0.4560  -0.3440
    -0.3427  -0.1388  -0.1201  -0.0285  -0.0029   0.0897   0.1195   0.1200
     0.2539   0.3862   0.3984   0.4675   0.4677   0.5391   0.5602   0.7028
     0.7289   0.8421   0.9497   0.9815   1.0626   1.0748   1.0954   1.2014
     1.2034   1.2081   1.3502   1.3938   1.4283   1.5127   1.5821   1.5868
     1.6259   1.6284   1.6436   1.8157   1.8287   1.8947   1.9228   2.2176
     2.6649   2.6769   2.7487   2.8830   2.8979   3.0829   3.1045   6.7216
     7.0487   7.0524   7.5511   7.5530   8.0332   8.0696   8.3504   8.4163
     8.8844   9.0767   9.1639   9.1653   9.3821   9.4649   9.4879   9.5230
     9.6123

          k =-0.5000 0.2640 0.0000 ( 34584 PWs)   bands (ev):

   -35.7446 -35.7014 -22.6964 -22.6881 -22.6494 -22.4644 -17.1747 -17.1232
   -16.9756 -16.9315 -16.8767 -16.8175 -14.8837 -14.8776 -14.6895 -14.5702
   -14.5512 -14.3283 -14.2592 -14.2260 -14.2112 -14.1880 -14.1842 -14.1140
   -13.9592 -13.9507 -13.4835  -8.3148  -8.3066  -8.1698  -8.1629  -8.1554
    -8.0778  -8.0088  -7.9983  -7.9894  -7.9864  -7.8875  -7.8063  -3.4420
    -3.4061  -3.2013  -3.0659  -2.5886  -2.5797  -2.5718  -2.4568  -2.4170
    -2.4163  -2.3823  -2.2330  -2.2320  -1.9712  -1.9555  -1.9391  -1.7557
    -1.6936  -1.3844  -1.2206  -1.1927  -1.0253  -0.9731  -0.9689  -0.9536
    -0.9350  -0.8664  -0.7824  -0.7282  -0.7271  -0.5720  -0.5392  -0.5029
    -0.4577  -0.4057  -0.4043  -0.0090   0.0758   0.3152   0.4483   0.4921
     0.6380   0.6606   0.7865   0.7884   0.9353   1.0328   1.0385   1.0662
     1.1129   1.1165   1.1423   1.1432   1.3531   1.3849   1.4171   1.4507
     1.4922   1.5776   1.6288   1.6350   1.6480   1.7070   1.7222   1.7474
     1.7646   1.7750   1.8334   1.8357   1.8714   1.8877   2.0106   2.1841
     2.8793   2.8850   3.4127   3.7925   3.8032   3.8941   3.9341   6.2174
     6.6211   6.6244   7.4073   7.4233   8.3517   8.3535   8.7630   8.8051
     8.9690   9.2277   9.3667   9.4330   9.4509   9.4694   9.5920   9.7284
     9.7552

          k =-0.5000 0.3960 0.0000 ( 34556 PWs)   bands (ev):

   -35.7404 -35.6972 -22.6451 -22.6368 -22.6033 -22.4144 -17.1550 -17.1040
   -17.0954 -17.0499 -16.8077 -16.7499 -14.6944 -14.6892 -14.5170 -14.4757
   -14.4052 -14.2737 -14.2380 -14.2277 -14.1548 -14.1439 -14.1425 -14.0577
   -13.9754 -13.9138 -13.4088  -8.6968  -8.6890  -8.5623  -8.4606  -8.4591
    -8.4523  -8.2912  -8.1431  -8.0746  -8.0637  -7.9987  -7.8416  -3.9147
    -3.8727  -3.6232  -3.4992  -3.3093  -2.9857  -2.9853  -2.7561  -2.7515
    -2.6164  -2.5277  -2.2674  -2.2408  -2.2387  -2.2378  -1.9791  -1.9441
    -1.9363  -1.5357  -1.2736  -1.2663  -1.2030  -1.1410  -1.1340  -1.1071
    -1.0983  -0.9498  -0.9460  -0.8739  -0.8680  -0.8223  -0.8067  -0.5462
    -0.4056  -0.3557  -0.3548   0.1312   0.2272   0.3775   0.6410   0.6929
     0.9193   1.0567   1.2025   1.2192   1.2312   1.2563   1.3030   1.3225
     1.3380   1.4512   1.4986   1.5005   1.5042   1.5458   1.6200   1.6743
     1.6878   1.7595   1.7955   1.8329   1.8820   1.9254   1.9993   2.0075
     2.0398   2.0654   2.0834   2.1074   2.1405   2.2008   2.3139   2.3364
     2.6925   2.7007   3.7594   4.4338   4.4451   4.4861   4.5315   5.6837
     6.1295   6.1323   7.0059   7.0599   8.5668   8.6886   8.7758   8.7885
     9.1071   9.2795   9.4212   9.4932   9.5060   9.5837   9.6015   9.7383
     9.7647

          k =-0.5000-0.5279 0.0000 ( 34620 PWs)   bands (ev):

   -35.7387 -35.6955 -22.6235 -22.6151 -22.5840 -22.3933 -17.1470 -17.1426
   -17.0967 -17.0962 -16.7775 -16.7202 -14.5802 -14.5791 -14.5025 -14.4687
   -14.3144 -14.2674 -14.2410 -14.1889 -14.1277 -14.1244 -14.1093 -14.0528
   -14.0194 -13.8820 -13.3748  -8.8455  -8.8379  -8.7233  -8.6141  -8.5761
    -8.5692  -8.4163  -8.2445  -8.0976  -8.0866  -7.9956  -7.8502  -4.1230
    -4.0809  -3.8250  -3.7020  -3.5775  -3.2089  -3.2085  -2.7855  -2.7809
    -2.6409  -2.5472  -2.3644  -2.3408  -2.2273  -2.2263  -2.0544  -2.0156
    -1.9285  -1.5996  -1.3902  -1.3838  -1.2634  -1.2114  -1.2033  -1.0882
    -1.0755  -1.0420  -1.0416  -0.9762  -0.9324  -0.8951  -0.8221  -0.5546
    -0.3772  -0.3268  -0.3261   0.1714   0.2654   0.3896   0.7048   0.8047
     1.0095   1.2895   1.2902   1.2929   1.3002   1.3162   1.3468   1.3696
     1.3784   1.5478   1.5910   1.5940   1.6594   1.6614   1.7831   1.8205
     1.8215   1.8334   1.9334   1.9683   1.9827   2.0077   2.0672   2.1463
     2.1843   2.2275   2.2748   2.2804   2.2897   2.3801   2.4294   2.4412
     2.4881   2.5163   3.8234   4.6300   4.6473   4.6896   4.7319   5.4509
     5.9041   5.9066   6.8689   6.9568   8.4011   8.6628   8.8249   8.8728
     8.8849   8.9567   9.2762   9.4146   9.4414   9.6215   9.8201   9.8272
     9.8710

     the Fermi energy is     2.4879 ev

!    total energy              =   -1842.87950628 Ry
     Harris-Foulkes estimate   =   -1842.87950628 Ry
     estimated scf accuracy    <          9.1E-11 Ry

     The total energy is the sum of the following terms:

     one-electron contribution =  -30562.61095718 Ry
     hartree contribution      =   15433.94188014 Ry
     xc contribution           =    -621.51593275 Ry
     ewald contribution        =   13907.31420327 Ry
     smearing contrib. (-TS)   =      -0.00869975 Ry

     convergence has been achieved in  35 iterations

     negative rho (up, down):  1.502E-03 0.000E+00

     Forces acting on atoms (cartesian axes, Ry/au):

     atom    1 type  4   force =     0.00000000    0.00000000    0.00102395
     atom    2 type  3   force =     0.00000000    0.00000000    0.00956149
     atom    3 type  4   force =     0.00000000    0.00000000   -0.00676010
     atom    4 type  1   force =     0.00000000    0.00000000    0.00247096
     atom    5 type  3   force =     0.00000000    0.00000000   -0.00118409
     atom    6 type  4   force =     0.00000000    0.00000000    0.00125232
     atom    7 type  4   force =     0.00000000    0.00000000    0.00214826
     atom    8 type  2   force =     0.00000000    0.00000000   -0.00090867
     atom    9 type  4   force =     0.00000000    0.00000000   -0.00069527
     atom   10 type  4   force =     0.00000000    0.00000000   -0.00057955
     atom   11 type  3   force =     0.00000000    0.00000000    0.00024395
     atom   12 type  1   force =     0.00000000    0.00000000    0.00129605
     atom   13 type  4   force =     0.00000000    0.00000000    0.00242754
     atom   14 type  4   force =     0.00000000    0.00000000    0.01034984
     atom   15 type  3   force =     0.00000000    0.00000000    0.03538046
     atom   16 type  4   force =     0.00000000    0.00000000   -0.03625730
     atom   17 type  1   force =     0.00000000    0.00000000    0.00577482
     atom   18 type  3   force =     0.00000000    0.00000000   -0.00517861
     atom   19 type  4   force =     0.00000000    0.00000000   -0.00455843
     atom   20 type  4   force =     0.00000000    0.00000000   -0.00189722
     atom   21 type  2   force =     0.00000000    0.00000000   -0.00325187
     atom   22 type  4   force =     0.00000000    0.00000000   -0.00310111
     atom   23 type  4   force =     0.00000000    0.00000000   -0.00123696
     atom   24 type  3   force =     0.00000000    0.00000000    0.00091018
     atom   25 type  1   force =     0.00000000    0.00000000   -0.00339734
     atom   26 type  4   force =     0.00000000    0.00000000    0.00679090
     atom   27 type  3   force =     0.00000000    0.00000000   -0.00953958
     atom   28 type  4   force =     0.00000000    0.00000000   -0.00108461

     Total force =     0.052618     Total SCF correction =     0.000016


     Computing stress (Cartesian axis) and pressure


     negative rho (up, down):  1.502E-03 0.000E+00
          total   stress  (Ry/bohr**3)                   (kbar)     P=      -13.14
  -0.00004715   0.00000000   0.00000000           -6.94        0.00        0.00
   0.00000000  -0.00006730   0.00000000            0.00       -9.90        0.00
   0.00000000   0.00000000  -0.00015348            0.00        0.00      -22.58


     number of scf cycles    =  10
     number of bfgs steps    =   4

     energy   old            =   -1842.8932242522 Ry
     energy   new            =   -1842.8795062756 Ry

     CASE: energy  _new > energy  _old


 %%%%%%%%%%%%%%%%%%%%%%%%%%%%%%%%%%%%%%%%%%%%%%%%%%%%%%%%%%%%%%%%%%%%%%%%%%%%%%
     Error in routine bfgs (1):
     dE0s is positive which should never happen
 %%%%%%%%%%%%%%%%%%%%%%%%%%%%%%%%%%%%%%%%%%%%%%%%%%%%%%%%%%%%%%%%%%%%%%%%%%%%%%

     stopping ...
