
     Program PWSCF v.6.5 starts on 28Jun2021 at 12:28:29 

     This program is part of the open-source Quantum ESPRESSO suite
     for quantum simulation of materials; please cite
         "P. Giannozzi et al., J. Phys.:Condens. Matter 21 395502 (2009);
         "P. Giannozzi et al., J. Phys.:Condens. Matter 29 465901 (2017);
          URL http://www.quantum-espresso.org", 
     in publications or presentations arising from this work. More details at
     http://www.quantum-espresso.org/quote

     Parallel version (MPI), running on    20 processors

     MPI processes distributed on    20 nodes
     R & G space division:  proc/nbgrp/npool/nimage =      20
     Reading input from CBCO_BaO_cleave_2.25_sep.pwi
Warning: card &CELL ignored
Warning: card     CELL_DYNAMICS = 'BFGS' ignored
Warning: card     PRESS_CONV_THR = 0.5 ignored
Warning: card / ignored

     Current dimensions of program PWSCF are:
     Max number of different atomic species (ntypx) = 10
     Max number of k-points (npk) =  40000
     Max angular momentum in pseudopotentials (lmaxx) =  3

     Subspace diagonalization in iterative solution of the eigenvalue problem:
     one sub-group per band group will be used
     scalapack distributed-memory algorithm (size of sub-group:  4*  4 procs)

     Message from routine setup:
     using ibrav=0 with symmetry is DISCOURAGED, use correct ibrav instead
 
     Parallelization info
     --------------------
     sticks:   dense  smooth     PW     G-vecs:    dense   smooth      PW
     Min         149      50     14                73779    14206    2222
     Max         150      51     15                73818    14229    2267
     Sum        2991    1007    289              1475989   284301   44707
 


     bravais-lattice index     =            0
     lattice parameter (alat)  =       7.4270  a.u.
     unit-cell volume          =    4524.4357 (a.u.)^3
     number of atoms/cell      =           28
     number of atomic types    =            4
     number of electrons       =       227.00
     number of Kohn-Sham states=          137
     kinetic-energy cutoff     =      60.0000  Ry
     charge density cutoff     =     720.0000  Ry
     convergence threshold     =      1.0E-08
     mixing beta               =       0.5000
     number of iterations used =           10  local-TF  mixing
     Exchange-correlation= SLA PW PBE PBE
                           (   1   4   3   4   0   0   0)
     nstep                     =          300


     celldm(1)=   7.427040  celldm(2)=   0.000000  celldm(3)=   0.000000
     celldm(4)=   0.000000  celldm(5)=   0.000000  celldm(6)=   0.000000

     crystal axes: (cart. coord. in units of alat)
               a(1) = (   1.000000   0.000000   0.000000 )  
               a(2) = (   0.000000   0.947081   0.000000 )  
               a(3) = (   0.000000   0.000000  11.660844 )  

     reciprocal axes: (cart. coord. in units 2 pi/alat)
               b(1) = (  1.000000  0.000000  0.000000 )  
               b(2) = (  0.000000  1.055876  0.000000 )  
               b(3) = (  0.000000  0.000000  0.085757 )  


     PseudoPot. # 1 for Ba read from file:
     ./pseudo/Ba.pbe-nsp-van.UPF
     MD5 check sum: 2b9c31dd849566dd297d80989662b7a0
     Pseudo is Ultrasoft + core correction, Zval = 10.0
     Generated by new atomic code, or converted to UPF format
     Using radial grid of  907 points,  6 beta functions with: 
                l(1) =   0
                l(2) =   0
                l(3) =   1
                l(4) =   1
                l(5) =   2
                l(6) =   2
     Q(r) pseudized with  6 coefficients,  rinner =    1.200   1.200   1.200
                                                       1.200   1.200

     PseudoPot. # 2 for Ca read from file:
     ./pseudo/Ca.pbe-nsp-van.UPF
     MD5 check sum: 6471098428ff4fa451746d08035ff179
     Pseudo is Ultrasoft + core correction, Zval = 10.0
     Generated by new atomic code, or converted to UPF format
     Using radial grid of  845 points,  6 beta functions with: 
                l(1) =   0
                l(2) =   0
                l(3) =   1
                l(4) =   1
                l(5) =   2
                l(6) =   2
     Q(r) pseudized with  6 coefficients,  rinner =    1.200   1.200   1.200
                                                       1.200   1.200

     PseudoPot. # 3 for Cu read from file:
     ./pseudo/Cu.pbe-n-van_ak.UPF
     MD5 check sum: 34e3282627ffb533726feb647e090d62
     Pseudo is Ultrasoft + core correction, Zval = 11.0
     Generated by new atomic code, or converted to UPF format
     Using radial grid of  867 points,  6 beta functions with: 
                l(1) =   0
                l(2) =   0
                l(3) =   1
                l(4) =   1
                l(5) =   2
                l(6) =   2
     Q(r) pseudized with  8 coefficients,  rinner =    1.400   1.400   1.400
                                                       1.400   1.400

     PseudoPot. # 4 for O  read from file:
     ./pseudo/O.pbe-van_ak.UPF
     MD5 check sum: 783ce7fe4c79b6a4916957118fed0856
     Pseudo is Ultrasoft, Zval =  6.0
     Generated by new atomic code, or converted to UPF format
     Using radial grid of  737 points,  4 beta functions with: 
                l(1) =   0
                l(2) =   0
                l(3) =   1
                l(4) =   1
     Q(r) pseudized with  8 coefficients,  rinner =    0.800   0.800   0.800


     atomic species   valence    mass     pseudopotential
        Ba            10.00   137.32700     Ba( 1.00)
        Ca            10.00    40.07800     Ca( 1.00)
        Cu            11.00    63.54600     Cu( 1.00)
        O              6.00    15.99900     O ( 1.00)

      4 Sym. Ops. (no inversion) found



   Cartesian axes

     site n.     atom                  positions (alat units)
         1           O   tau(   1) = (   0.0000000   0.4735409  -0.0469745  )
         2           Cu  tau(   2) = (   0.0000000   0.0000000   0.0264565  )
         3           O   tau(   3) = (   0.0000000   0.0000000   0.5030914  )
         4           Ba  tau(   4) = (   0.5000000   0.4735409   0.5690292  )
         5           Cu  tau(   5) = (   0.0000000   0.0000000   1.0374254  )
         6           O   tau(   6) = (   0.5000000   0.0000000   1.0768099  )
         7           O   tau(   7) = (   0.0000000   0.4735409   1.1116985  )
         8           Ca  tau(   8) = (   0.5000000   0.4735409   1.4976260  )
         9           O   tau(   9) = (   0.0000000   0.4735409   1.8667529  )
        10           O   tau(  10) = (   0.5000000   0.0000000   1.9044124  )
        11           Cu  tau(  11) = (   0.0000000   0.0000000   1.9512546  )
        12           Ba  tau(  12) = (   0.5000000   0.4735409   2.4295764  )
        13           O   tau(  13) = (   0.0000000   0.0000000   2.5115362  )
        14           O   tau(  14) = (   0.0000000   0.4735409   2.9918528  )
        15           Cu  tau(  15) = (   0.0000000   0.0000000   2.9919088  )
        16           O   tau(  16) = (   0.0000000   0.0000000   3.4722686  )
        17           Ba  tau(  17) = (   0.5000000   0.4735409   3.5542208  )
        18           Cu  tau(  18) = (   0.0000000   0.0000000   4.6050118  )
        19           O   tau(  19) = (   0.5000000   0.0000000   4.6518539  )
        20           O   tau(  20) = (   0.0000000   0.4735409   4.6895083  )
        21           Ca  tau(  21) = (   0.5000000   0.4735409   5.0586454  )
        22           O   tau(  22) = (   0.0000000   0.4735409   5.4445704  )
        23           O   tau(  23) = (   0.5000000   0.0000000   5.4794590  )
        24           Cu  tau(  24) = (   0.0000000   0.0000000   5.5188461  )
        25           Ba  tau(  25) = (   0.5000000   0.4735409   5.9872397  )
        26           O   tau(  26) = (   0.0000000   0.0000000   6.0531673  )
        27           Cu  tau(  27) = (   0.0000000   0.0000000   6.5298073  )
        28           O   tau(  28) = (   0.0000000   0.4735409   6.6032256  )

     number of k points=    25  Gaussian smearing, width (Ry)=  0.0100
                       cart. coord. in units 2pi/alat
        k(    1) = (   0.0000000   0.0000000   0.0000000), wk =   0.0312500
        k(    2) = (   0.0000000   0.1319845   0.0000000), wk =   0.0625000
        k(    3) = (   0.0000000   0.2639689   0.0000000), wk =   0.0625000
        k(    4) = (   0.0000000   0.3959534   0.0000000), wk =   0.0625000
        k(    5) = (   0.0000000  -0.5279378   0.0000000), wk =   0.0312500
        k(    6) = (   0.1250000   0.0000000   0.0000000), wk =   0.0625000
        k(    7) = (   0.1250000   0.1319845   0.0000000), wk =   0.1250000
        k(    8) = (   0.1250000   0.2639689   0.0000000), wk =   0.1250000
        k(    9) = (   0.1250000   0.3959534   0.0000000), wk =   0.1250000
        k(   10) = (   0.1250000  -0.5279378   0.0000000), wk =   0.0625000
        k(   11) = (   0.2500000   0.0000000   0.0000000), wk =   0.0625000
        k(   12) = (   0.2500000   0.1319845   0.0000000), wk =   0.1250000
        k(   13) = (   0.2500000   0.2639689   0.0000000), wk =   0.1250000
        k(   14) = (   0.2500000   0.3959534   0.0000000), wk =   0.1250000
        k(   15) = (   0.2500000  -0.5279378   0.0000000), wk =   0.0625000
        k(   16) = (   0.3750000   0.0000000   0.0000000), wk =   0.0625000
        k(   17) = (   0.3750000   0.1319845   0.0000000), wk =   0.1250000
        k(   18) = (   0.3750000   0.2639689   0.0000000), wk =   0.1250000
        k(   19) = (   0.3750000   0.3959534   0.0000000), wk =   0.1250000
        k(   20) = (   0.3750000  -0.5279378   0.0000000), wk =   0.0625000
        k(   21) = (  -0.5000000   0.0000000   0.0000000), wk =   0.0312500
        k(   22) = (  -0.5000000   0.1319845   0.0000000), wk =   0.0625000
        k(   23) = (  -0.5000000   0.2639689   0.0000000), wk =   0.0625000
        k(   24) = (  -0.5000000   0.3959534   0.0000000), wk =   0.0625000
        k(   25) = (  -0.5000000  -0.5279378   0.0000000), wk =   0.0312500

     Dense  grid:  1475989 G-vectors     FFT dimensions: (  64,  64, 750)

     Smooth grid:   284301 G-vectors     FFT dimensions: (  40,  36, 432)

     Estimated max dynamical RAM per process >     470.95 MB

     Estimated total dynamical RAM >       9.20 GB

     Initial potential from superposition of free atoms

     starting charge  226.84630, renormalised to  227.00000

     negative rho (up, down):  3.442E-03 0.000E+00
     Starting wfcs are  195 randomized atomic wfcs

     total cpu time spent up to now is       10.1 secs

     Self-consistent Calculation

     iteration #  1     ecut=    60.00 Ry     beta= 0.50
     Davidson diagonalization with overlap
     ethr =  1.00E-02,  avg # of iterations =  2.0

     negative rho (up, down):  4.953E-04 0.000E+00

     total cpu time spent up to now is       25.4 secs

     total energy              =   -1840.80873894 Ry
     Harris-Foulkes estimate   =   -1845.39936907 Ry
     estimated scf accuracy    <      19.25095925 Ry

     iteration #  2     ecut=    60.00 Ry     beta= 0.50
     Davidson diagonalization with overlap
     ethr =  8.48E-03,  avg # of iterations =  2.0

     negative rho (up, down):  2.658E-04 0.000E+00

     total cpu time spent up to now is       40.7 secs

     total energy              =   -1842.49868840 Ry
     Harris-Foulkes estimate   =   -1843.33621736 Ry
     estimated scf accuracy    <       4.91108868 Ry

     iteration #  3     ecut=    60.00 Ry     beta= 0.50
     Davidson diagonalization with overlap
     ethr =  2.16E-03,  avg # of iterations =  1.9

     negative rho (up, down):  2.464E-04 0.000E+00

     total cpu time spent up to now is       55.8 secs

     total energy              =   -1842.85321016 Ry
     Harris-Foulkes estimate   =   -1842.99528499 Ry
     estimated scf accuracy    <       4.21826185 Ry

     iteration #  4     ecut=    60.00 Ry     beta= 0.50
     Davidson diagonalization with overlap
     ethr =  1.86E-03,  avg # of iterations =  1.0

     negative rho (up, down):  2.384E-04 0.000E+00

     total cpu time spent up to now is       69.7 secs

     total energy              =   -1842.84396868 Ry
     Harris-Foulkes estimate   =   -1842.92706801 Ry
     estimated scf accuracy    <       1.19537798 Ry

     iteration #  5     ecut=    60.00 Ry     beta= 0.50
     Davidson diagonalization with overlap
     ethr =  5.27E-04,  avg # of iterations =  2.0

     negative rho (up, down):  2.340E-04 0.000E+00

     total cpu time spent up to now is       84.5 secs

     total energy              =   -1842.84249587 Ry
     Harris-Foulkes estimate   =   -1842.89273216 Ry
     estimated scf accuracy    <       2.37242241 Ry

     iteration #  6     ecut=    60.00 Ry     beta= 0.50
     Davidson diagonalization with overlap
     ethr =  5.27E-04,  avg # of iterations =  1.0

     negative rho (up, down):  2.299E-04 0.000E+00

     total cpu time spent up to now is       98.4 secs

     total energy              =   -1842.83066318 Ry
     Harris-Foulkes estimate   =   -1842.86111718 Ry
     estimated scf accuracy    <       0.88182342 Ry

     iteration #  7     ecut=    60.00 Ry     beta= 0.50
     Davidson diagonalization with overlap
     ethr =  3.88E-04,  avg # of iterations =  3.4

     negative rho (up, down):  2.294E-04 0.000E+00

     total cpu time spent up to now is      115.1 secs

     total energy              =   -1842.83350647 Ry
     Harris-Foulkes estimate   =   -1842.84267278 Ry
     estimated scf accuracy    <       0.64391929 Ry

     iteration #  8     ecut=    60.00 Ry     beta= 0.50
     Davidson diagonalization with overlap
     ethr =  2.84E-04,  avg # of iterations =  2.4

     negative rho (up, down):  2.291E-04 0.000E+00

     total cpu time spent up to now is      130.4 secs

     total energy              =   -1842.82825181 Ry
     Harris-Foulkes estimate   =   -1842.83845604 Ry
     estimated scf accuracy    <       0.31496926 Ry

     iteration #  9     ecut=    60.00 Ry     beta= 0.50
     Davidson diagonalization with overlap
     ethr =  1.39E-04,  avg # of iterations =  4.6

     negative rho (up, down):  2.304E-04 0.000E+00

     total cpu time spent up to now is      148.2 secs

     total energy              =   -1842.82552093 Ry
     Harris-Foulkes estimate   =   -1842.83239875 Ry
     estimated scf accuracy    <       0.20112473 Ry

     iteration # 10     ecut=    60.00 Ry     beta= 0.50
     Davidson diagonalization with overlap
     ethr =  8.86E-05,  avg # of iterations =  5.3

     negative rho (up, down):  2.328E-04 0.000E+00

     total cpu time spent up to now is      166.6 secs

     total energy              =   -1842.82175821 Ry
     Harris-Foulkes estimate   =   -1842.82783923 Ry
     estimated scf accuracy    <       0.07332694 Ry

     iteration # 11     ecut=    60.00 Ry     beta= 0.50
     Davidson diagonalization with overlap
     ethr =  3.23E-05,  avg # of iterations =  8.7

     negative rho (up, down):  2.341E-04 0.000E+00

     total cpu time spent up to now is      189.7 secs

     total energy              =   -1842.82086290 Ry
     Harris-Foulkes estimate   =   -1842.82353819 Ry
     estimated scf accuracy    <       0.02011006 Ry

     iteration # 12     ecut=    60.00 Ry     beta= 0.50
     Davidson diagonalization with overlap
     c_bands:  1 eigenvalues not converged
     ethr =  8.86E-06,  avg # of iterations =  9.5

     negative rho (up, down):  2.336E-04 0.000E+00

     total cpu time spent up to now is      214.0 secs

     total energy              =   -1842.82083244 Ry
     Harris-Foulkes estimate   =   -1842.82160431 Ry
     estimated scf accuracy    <       0.02236540 Ry

     iteration # 13     ecut=    60.00 Ry     beta= 0.50
     Davidson diagonalization with overlap
     ethr =  8.86E-06,  avg # of iterations =  1.0

     negative rho (up, down):  2.960E-04 0.000E+00

     total cpu time spent up to now is      227.8 secs

     total energy              =   -1842.82001812 Ry
     Harris-Foulkes estimate   =   -1842.82099229 Ry
     estimated scf accuracy    <       0.02502671 Ry

     iteration # 14     ecut=    60.00 Ry     beta= 0.50
     Davidson diagonalization with overlap
     ethr =  8.86E-06,  avg # of iterations =  2.2

     negative rho (up, down):  7.052E-04 0.000E+00

     total cpu time spent up to now is      242.8 secs

     total energy              =   -1842.81955725 Ry
     Harris-Foulkes estimate   =   -1842.82020446 Ry
     estimated scf accuracy    <       0.03369093 Ry

     iteration # 15     ecut=    60.00 Ry     beta= 0.50
     Davidson diagonalization with overlap
     ethr =  8.86E-06,  avg # of iterations =  1.6

     negative rho (up, down):  2.324E-04 0.000E+00

     total cpu time spent up to now is      257.2 secs

     total energy              =   -1842.81953192 Ry
     Harris-Foulkes estimate   =   -1842.81964310 Ry
     estimated scf accuracy    <       0.03480698 Ry

     iteration # 16     ecut=    60.00 Ry     beta= 0.50
     Davidson diagonalization with overlap
     c_bands:  1 eigenvalues not converged
     ethr =  8.86E-06,  avg # of iterations =  2.5

     negative rho (up, down):  2.680E-04 0.000E+00

     total cpu time spent up to now is      272.5 secs

     total energy              =   -1842.81852317 Ry
     Harris-Foulkes estimate   =   -1842.81961196 Ry
     estimated scf accuracy    <       0.03061975 Ry

     iteration # 17     ecut=    60.00 Ry     beta= 0.50
     Davidson diagonalization with overlap
     ethr =  8.86E-06,  avg # of iterations =  3.2

     negative rho (up, down):  6.392E-03 0.000E+00

     total cpu time spent up to now is      288.8 secs

     total energy              =   -1842.81670357 Ry
     Harris-Foulkes estimate   =   -1842.81862487 Ry
     estimated scf accuracy    <       0.02290587 Ry

     iteration # 18     ecut=    60.00 Ry     beta= 0.50
     Davidson diagonalization with overlap
     ethr =  8.86E-06,  avg # of iterations =  6.6

     negative rho (up, down):  5.357E-03 0.000E+00

     total cpu time spent up to now is      309.6 secs

     total energy              =   -1842.81644604 Ry
     Harris-Foulkes estimate   =   -1842.81691050 Ry
     estimated scf accuracy    <       0.00865093 Ry

     iteration # 19     ecut=    60.00 Ry     beta= 0.50
     Davidson diagonalization with overlap
     ethr =  3.81E-06,  avg # of iterations =  7.3

     negative rho (up, down):  5.617E-03 0.000E+00

     total cpu time spent up to now is      330.9 secs

     total energy              =   -1842.81630909 Ry
     Harris-Foulkes estimate   =   -1842.81651441 Ry
     estimated scf accuracy    <       0.00458067 Ry

     iteration # 20     ecut=    60.00 Ry     beta= 0.50
     Davidson diagonalization with overlap
     c_bands:  1 eigenvalues not converged
     ethr =  2.02E-06,  avg # of iterations = 10.0

     negative rho (up, down):  1.134E-03 0.000E+00

     total cpu time spent up to now is      355.6 secs

     total energy              =   -1842.81624792 Ry
     Harris-Foulkes estimate   =   -1842.81635587 Ry
     estimated scf accuracy    <       0.00196807 Ry

     iteration # 21     ecut=    60.00 Ry     beta= 0.50
     Davidson diagonalization with overlap
     c_bands:  1 eigenvalues not converged
     c_bands:  1 eigenvalues not converged
     ethr =  8.67E-07,  avg # of iterations =  6.7

     negative rho (up, down):  6.962E-04 0.000E+00

     total cpu time spent up to now is      375.9 secs

     total energy              =   -1842.81625334 Ry
     Harris-Foulkes estimate   =   -1842.81629645 Ry
     estimated scf accuracy    <       0.00100945 Ry

     iteration # 22     ecut=    60.00 Ry     beta= 0.50
     Davidson diagonalization with overlap
     c_bands:  1 eigenvalues not converged
     ethr =  4.45E-07,  avg # of iterations =  6.5

     negative rho (up, down):  2.431E-03 0.000E+00

     total cpu time spent up to now is      396.3 secs

     total energy              =   -1842.81629335 Ry
     Harris-Foulkes estimate   =   -1842.81629345 Ry
     estimated scf accuracy    <       0.00040200 Ry

     iteration # 23     ecut=    60.00 Ry     beta= 0.50
     Davidson diagonalization with overlap
     c_bands:  1 eigenvalues not converged
     c_bands:  1 eigenvalues not converged
     ethr =  1.77E-07,  avg # of iterations =  6.1

     negative rho (up, down):  1.829E-03 0.000E+00

     total cpu time spent up to now is      416.1 secs

     total energy              =   -1842.81629307 Ry
     Harris-Foulkes estimate   =   -1842.81630357 Ry
     estimated scf accuracy    <       0.00024587 Ry

     iteration # 24     ecut=    60.00 Ry     beta= 0.50
     Davidson diagonalization with overlap
     c_bands:  1 eigenvalues not converged
     c_bands:  1 eigenvalues not converged
     ethr =  1.08E-07,  avg # of iterations =  5.1

     negative rho (up, down):  1.849E-03 0.000E+00

     total cpu time spent up to now is      434.6 secs

     total energy              =   -1842.81629632 Ry
     Harris-Foulkes estimate   =   -1842.81629806 Ry
     estimated scf accuracy    <       0.00019859 Ry

     iteration # 25     ecut=    60.00 Ry     beta= 0.50
     Davidson diagonalization with overlap
     ethr =  8.75E-08,  avg # of iterations =  1.0

     negative rho (up, down):  1.690E-03 0.000E+00

     total cpu time spent up to now is      448.3 secs

     total energy              =   -1842.81629298 Ry
     Harris-Foulkes estimate   =   -1842.81629841 Ry
     estimated scf accuracy    <       0.00008953 Ry

     iteration # 26     ecut=    60.00 Ry     beta= 0.50
     Davidson diagonalization with overlap
     ethr =  3.94E-08,  avg # of iterations =  1.0

     negative rho (up, down):  1.640E-03 0.000E+00

     total cpu time spent up to now is      462.3 secs

     total energy              =   -1842.81629142 Ry
     Harris-Foulkes estimate   =   -1842.81629466 Ry
     estimated scf accuracy    <       0.00001689 Ry

     iteration # 27     ecut=    60.00 Ry     beta= 0.50
     Davidson diagonalization with overlap
     c_bands:  1 eigenvalues not converged
     ethr =  7.44E-09,  avg # of iterations =  3.0

     negative rho (up, down):  1.503E-03 0.000E+00

     total cpu time spent up to now is      478.4 secs

     total energy              =   -1842.81629113 Ry
     Harris-Foulkes estimate   =   -1842.81629226 Ry
     estimated scf accuracy    <       0.00001324 Ry

     iteration # 28     ecut=    60.00 Ry     beta= 0.50
     Davidson diagonalization with overlap
     ethr =  5.83E-09,  avg # of iterations =  1.0

     negative rho (up, down):  1.504E-03 0.000E+00

     total cpu time spent up to now is      492.2 secs

     total energy              =   -1842.81629115 Ry
     Harris-Foulkes estimate   =   -1842.81629158 Ry
     estimated scf accuracy    <       0.00000339 Ry

     iteration # 29     ecut=    60.00 Ry     beta= 0.50
     Davidson diagonalization with overlap
     ethr =  1.49E-09,  avg # of iterations =  2.1

     negative rho (up, down):  1.507E-03 0.000E+00

     total cpu time spent up to now is      507.6 secs

     total energy              =   -1842.81629134 Ry
     Harris-Foulkes estimate   =   -1842.81629135 Ry
     estimated scf accuracy    <       0.00000079 Ry

     iteration # 30     ecut=    60.00 Ry     beta= 0.50
     Davidson diagonalization with overlap
     ethr =  3.49E-10,  avg # of iterations =  2.6

     negative rho (up, down):  1.497E-03 0.000E+00

     total cpu time spent up to now is      523.2 secs

     total energy              =   -1842.81629138 Ry
     Harris-Foulkes estimate   =   -1842.81629140 Ry
     estimated scf accuracy    <       0.00000021 Ry

     iteration # 31     ecut=    60.00 Ry     beta= 0.50
     Davidson diagonalization with overlap
     ethr =  9.37E-11,  avg # of iterations =  3.0

     negative rho (up, down):  1.501E-03 0.000E+00

     total cpu time spent up to now is      539.7 secs

     total energy              =   -1842.81629138 Ry
     Harris-Foulkes estimate   =   -1842.81629140 Ry
     estimated scf accuracy    <       0.00000013 Ry

     iteration # 32     ecut=    60.00 Ry     beta= 0.50
     Davidson diagonalization with overlap
     ethr =  5.53E-11,  avg # of iterations =  1.0

     negative rho (up, down):  1.505E-03 0.000E+00

     total cpu time spent up to now is      553.4 secs

     total energy              =   -1842.81629138 Ry
     Harris-Foulkes estimate   =   -1842.81629139 Ry
     estimated scf accuracy    <       0.00000006 Ry

     iteration # 33     ecut=    60.00 Ry     beta= 0.50
     Davidson diagonalization with overlap
     ethr =  2.84E-11,  avg # of iterations =  1.0

     negative rho (up, down):  1.512E-03 0.000E+00

     total cpu time spent up to now is      567.1 secs

     total energy              =   -1842.81629137 Ry
     Harris-Foulkes estimate   =   -1842.81629138 Ry
     estimated scf accuracy    <       0.00000004 Ry

     iteration # 34     ecut=    60.00 Ry     beta= 0.50
     Davidson diagonalization with overlap
     ethr =  1.58E-11,  avg # of iterations =  1.1

     negative rho (up, down):  1.512E-03 0.000E+00

     total cpu time spent up to now is      581.0 secs

     total energy              =   -1842.81629137 Ry
     Harris-Foulkes estimate   =   -1842.81629137 Ry
     estimated scf accuracy    <       0.00000001 Ry

     iteration # 35     ecut=    60.00 Ry     beta= 0.50
     Davidson diagonalization with overlap
     ethr =  5.20E-12,  avg # of iterations =  2.2

     negative rho (up, down):  1.515E-03 0.000E+00

     total cpu time spent up to now is      595.5 secs

     End of self-consistent calculation

          k = 0.0000 0.0000 0.0000 ( 35607 PWs)   bands (ev):

   -35.7572 -35.5758 -24.3408 -22.9513 -22.9494 -22.7475 -17.2611 -17.0555
   -16.8083 -16.7969 -16.6416 -16.6226 -15.4699 -15.3334 -15.1710 -14.8327
   -14.8237 -14.7420 -14.5023 -14.3413 -14.3359 -14.1461 -14.1153 -14.0320
   -13.9969 -13.8875 -13.6373  -9.5951  -9.1766  -9.0982  -8.0831  -8.0790
    -8.0450  -8.0438  -7.9348  -7.8522  -7.8503  -7.7910  -7.6249  -2.4911
    -2.4894  -2.3451  -1.9908  -1.9839  -1.9404  -1.8341  -1.7918  -1.7117
    -1.6971  -1.6530  -1.5749  -1.3909  -1.3823  -1.3802  -1.3782  -1.1363
    -0.9489  -0.9399  -0.6201  -0.6182  -0.5409  -0.5359  -0.5103  -0.4603
    -0.4467  -0.4345  -0.4262  -0.4243  -0.4159  -0.3989  -0.3199  -0.3062
    -0.2765  -0.2636  -0.1986  -0.1968  -0.0629  -0.0616  -0.0608  -0.0571
    -0.0358   0.0108   0.0263   0.0452   0.1291   0.1583   0.2365   0.2481
     0.4808   0.4898   0.5601   0.7212   0.7220   0.7784   0.8079   1.0176
     1.0375   1.0702   1.1820   1.2185   1.2279   1.2443   1.3067   1.3252
     1.4072   1.4875   1.4958   1.6298   1.6552   1.8285   1.8546   1.8607
     1.8654   1.8767   2.0158   2.0307   2.0416   2.3662   2.3737   4.4829
     5.0395   5.0578   5.2001   5.8562   6.1997   6.5382   6.6023   6.6528
     7.1502   7.5589   7.8124   7.9608   8.1154   8.2648   8.3901   8.4891
     8.6203

          k = 0.0000 0.1320 0.0000 ( 35551 PWs)   bands (ev):

   -35.7553 -35.5740 -24.3199 -22.9247 -22.9228 -22.7221 -17.2250 -17.0191
   -16.8693 -16.8060 -16.6946 -16.6392 -15.3809 -15.2542 -15.1169 -14.8383
   -14.8226 -14.7145 -14.4731 -14.3509 -14.3411 -14.1503 -14.1310 -14.0911
   -14.0454 -13.9423 -13.6604  -9.5846  -9.1401  -9.1395  -8.0825  -8.0790
    -7.9972  -7.9960  -7.9329  -7.8938  -7.8920  -7.7459  -7.6732  -2.5484
    -2.5474  -2.3988  -2.3166  -2.3109  -2.2129  -2.0243  -1.9773  -1.8133
    -1.8058  -1.8045  -1.7749  -1.6943  -1.5349  -1.4105  -1.3885  -1.3768
    -0.9891  -0.8645  -0.8086  -0.7830  -0.7779  -0.7174  -0.7156  -0.6225
    -0.6210  -0.5113  -0.4406  -0.3490  -0.3471  -0.3167  -0.3096  -0.3077
    -0.3046  -0.1967  -0.1774  -0.1754  -0.1568  -0.0959  -0.0386  -0.0377
    -0.0360   0.0017   0.1005   0.1154   0.1656   0.2009   0.2892   0.3349
     0.3379   0.6288   0.7147   0.8536   0.9081   0.9190   0.9191   0.9722
     0.9974   1.0083   1.0155   1.1338   1.2469   1.2862   1.3199   1.3565
     1.4367   1.4722   1.5947   1.6119   1.6317   1.6331   1.7818   1.8344
     1.8378   1.8607   2.1151   2.1633   2.5324   2.6538   2.6664   4.7660
     5.4180   5.4334   5.4882   6.1704   6.4426   6.7616   6.9067   6.9320
     7.3620   7.7330   7.9846   8.1380   8.2689   8.3520   8.5124   8.5666
     8.6240

          k = 0.0000 0.2640 0.0000 ( 35461 PWs)   bands (ev):

   -35.7509 -35.5696 -24.2685 -22.8588 -22.8569 -22.6594 -17.1330 -17.0235
   -16.9272 -16.8472 -16.8003 -16.6336 -15.1794 -15.0953 -14.9743 -14.8884
   -14.8410 -14.6534 -14.4106 -14.3389 -14.3096 -14.2474 -14.1886 -14.1845
   -14.1707 -14.0250 -13.7180  -9.5534  -9.2317  -9.0495  -8.0820  -8.0790
    -7.9848  -7.9826  -7.9276  -7.8768  -7.8755  -7.7778  -7.6327  -3.0111
    -2.9799  -2.9744  -2.7911  -2.5939  -2.5883  -2.5631  -2.4429  -2.4408
    -2.3364  -1.9210  -1.7586  -1.7273  -1.6394  -1.6348  -1.6207  -1.3339
    -1.2186  -1.1524  -1.1125  -1.0820  -0.9672  -0.9671  -0.8144  -0.8097
    -0.8022  -0.7100  -0.6917  -0.6597  -0.6572  -0.6215  -0.5259  -0.5005
    -0.3854  -0.3296  -0.1513  -0.1491  -0.1465  -0.0681  -0.0492   0.0485
     0.0829   0.2051   0.2781   0.3564   0.4145   0.4480   0.5270   0.5385
     0.5933   0.6873   0.7949   0.8020   0.8996   0.9709   0.9866   1.0038
     1.0046   1.0479   1.1108   1.1291   1.1547   1.2535   1.3847   1.3948
     1.5398   1.5466   1.5601   1.7170   1.7445   1.8117   1.8136   1.8308
     1.8935   1.9412   2.2406   2.2684   2.8771   2.8797   3.3821   5.3419
     6.2518   6.3258   6.3267   6.6146   7.1378   7.3104   7.7275   7.7318
     7.8404   8.0462   8.4772   8.5213   8.6215   8.7153   8.7357   8.8014
     8.9018

          k = 0.0000 0.3960 0.0000 ( 35408 PWs)   bands (ev):

   -35.7465 -35.5651 -24.2159 -22.7906 -22.7887 -22.5946 -17.1598 -17.0313
   -16.9837 -16.8241 -16.7947 -16.6279 -15.0949 -15.0852 -14.8526 -14.7976
   -14.7504 -14.6211 -14.4292 -14.3836 -14.3403 -14.2756 -14.2616 -14.2566
   -14.1469 -14.0824 -13.8006  -9.5037  -9.3265  -8.9550  -8.0819  -8.0791
    -8.0630  -8.0606  -7.9222  -7.8688  -7.7483  -7.7470  -7.5126  -3.7256
    -3.4501  -3.4422  -3.2327  -3.1591  -3.1555  -3.0100  -2.5334  -2.5314
    -2.3617  -2.2697  -1.9698  -1.9651  -1.6944  -1.6633  -1.5670  -1.4480
    -1.3726  -1.2785  -1.2752  -1.2743  -1.2356  -1.2245  -1.0337  -1.0068
    -0.9886  -0.9130  -0.9064  -0.8788  -0.8350  -0.7858  -0.6914  -0.5161
    -0.4169  -0.3885  -0.3584  -0.1320  -0.1302  -0.0351  -0.0342  -0.0033
     0.0735   0.3120   0.3137   0.3485   0.4026   0.4146   0.6108   0.7625
     0.7628   0.7674   0.7999   0.8367   0.9157   0.9333   0.9743   0.9758
     1.0603   1.0806   1.2173   1.2494   1.4557   1.4649   1.5549   1.5769
     1.6107   1.7189   1.7346   1.7693   1.7960   1.8208   2.0220   2.0241
     2.1871   2.2065   2.2079   2.2122   2.7713   2.7729   3.9420   5.8299
     6.4422   7.2730   7.2744   7.3289   7.9266   8.0774   8.2351   8.4228
     8.5200   8.5363   8.9154   8.9199   8.9726   8.9768   9.0733   9.1068
     9.2435

          k = 0.0000-0.5279 0.0000 ( 35442 PWs)   bands (ev):

   -35.7447 -35.5633 -24.1938 -22.7617 -22.7597 -22.5672 -17.2119 -17.0354
   -16.9864 -16.7924 -16.7793 -16.6255 -15.1369 -15.1296 -14.7372 -14.7027
   -14.6508 -14.5876 -14.5794 -14.4219 -14.3884 -14.2997 -14.2398 -14.2331
   -14.1190 -14.0773 -13.8654  -9.4610  -9.3842  -8.9146  -8.0927  -8.0903
    -8.0815  -8.0786  -7.9141  -7.9090  -7.6924  -7.6911  -7.4606  -3.9936
    -3.6282  -3.6220  -3.4057  -3.3895  -3.3803  -3.1795  -2.5495  -2.5475
    -2.3985  -2.3706  -2.1001  -2.0969  -1.6677  -1.6270  -1.5868  -1.4657
    -1.4243  -1.3660  -1.3642  -1.3563  -1.3458  -1.2018  -1.1580  -1.1250
    -1.0864  -0.9988  -0.9971  -0.9558  -0.9221  -0.7744  -0.7630  -0.4909
    -0.4640  -0.4034  -0.3809  -0.1264  -0.1246  -0.0434  -0.0247   0.0070
     0.0739   0.1977   0.2521   0.2769   0.3798   0.4180   0.6462   0.6705
     0.6895   0.8243   0.8494   0.9213   0.9572   0.9573   0.9588   1.0235
     1.1646   1.2084   1.2255   1.2516   1.5713   1.5718   1.5778   1.6326
     1.8415   1.8498   1.8614   1.8969   1.9039   1.9518   1.9601   2.0511
     2.0554   2.1758   2.3680   2.3694   2.5922   2.5946   4.1235   5.9149
     6.6718   7.4531   7.6863   7.6881   7.8880   8.5570   8.7659   8.7974
     8.8365   8.8572   8.8862   8.9876   9.0164   9.1471   9.1569   9.1716
     9.2950

          k = 0.1250 0.0000 0.0000 ( 35561 PWs)   bands (ev):

   -35.7561 -35.5747 -24.3273 -22.9333 -22.9314 -22.7303 -17.2277 -17.0213
   -16.8885 -16.7955 -16.7232 -16.6213 -15.3674 -15.2417 -15.1915 -14.8785
   -14.8628 -14.7470 -14.5045 -14.3503 -14.3457 -14.1583 -14.1281 -14.0939
   -14.0166 -13.9200 -13.6464  -9.6191  -9.1213  -9.0746  -8.1087  -8.1053
    -7.9838  -7.9816  -7.9679  -7.8197  -7.8178  -7.7312  -7.5945  -2.5333
    -2.5322  -2.3694  -2.0336  -2.0214  -1.9778  -1.9691  -1.9595  -1.9110
    -1.6753  -1.6706  -1.6227  -1.5296  -1.3967  -1.3803  -1.3781  -1.1641
    -1.0582  -0.9392  -0.7938  -0.7754  -0.6768  -0.6737  -0.5536  -0.5455
    -0.5021  -0.4991  -0.4678  -0.4334  -0.4263  -0.3994  -0.3687  -0.3656
    -0.3446  -0.3265  -0.2260  -0.0702  -0.0691  -0.0681  -0.0535  -0.0271
     0.0332   0.0346   0.0355   0.0594   0.1171   0.1982   0.2549   0.3398
     0.5617   0.6063   0.6259   0.6459   0.6698   0.8095   0.8682   0.8976
     1.0261   1.0495   1.0532   1.1953   1.2413   1.2906   1.3159   1.3193
     1.4181   1.4733   1.5392   1.5923   1.7435   1.7566   1.8147   1.8276
     1.9302   1.9760   2.0239   2.0778   2.1825   2.4068   2.4096   4.6864
     5.2299   5.2376   5.3783   6.0914   6.3839   6.7031   6.8164   6.8515
     7.2964   7.8581   7.9565   8.0901   8.2593   8.4283   8.4635   8.6245
     8.7049

          k = 0.1250 0.1320 0.0000 ( 35510 PWs)   bands (ev):

   -35.7542 -35.5729 -24.3069 -22.9074 -22.9055 -22.7056 -17.1926 -16.9859
   -16.8915 -16.8586 -16.7243 -16.6858 -15.2856 -15.1725 -15.1352 -14.8733
   -14.8506 -14.7172 -14.4678 -14.3513 -14.3451 -14.1619 -14.1454 -14.1338
   -14.0607 -13.9668 -13.6666  -9.5968  -9.2731  -8.9854  -8.1277  -8.1255
    -8.0458  -8.0431  -7.9632  -7.8260  -7.7817  -7.7801  -7.5541  -2.5853
    -2.5831  -2.4164  -2.3029  -2.2947  -2.1926  -2.0156  -2.0126  -1.9941
    -1.9858  -1.9489  -1.7998  -1.7986  -1.6445  -1.5483  -1.4140  -1.4076
    -1.0559  -0.9743  -0.9266  -0.8481  -0.8455  -0.8300  -0.8043  -0.7157
    -0.6627  -0.6626  -0.5393  -0.4378  -0.3927  -0.3868  -0.3493  -0.3445
    -0.2926  -0.2026  -0.1957  -0.1567  -0.1434  -0.0181  -0.0110   0.0113
     0.0216   0.0481   0.1089   0.1254   0.1543   0.1989   0.2831   0.3646
     0.5095   0.7433   0.7661   0.8687   0.8775   0.8930   0.9621   1.0132
     1.0448   1.0743   1.1038   1.1275   1.1409   1.1634   1.2649   1.4152
     1.4181   1.4372   1.4982   1.5018   1.5920   1.6967   1.7015   1.8288
     2.1806   2.1946   2.3388   2.5149   2.5466   2.6642   2.6715   4.9209
     5.5704   5.5755   5.6475   6.3391   6.5832   6.8778   7.1122   7.1290
     7.5171   7.8323   8.1267   8.2376   8.2902   8.4559   8.5732   8.6811
     8.7638

          k = 0.1250 0.2640 0.0000 ( 35453 PWs)   bands (ev):

   -35.7499 -35.5685 -24.2567 -22.8436 -22.8417 -22.6447 -17.1036 -17.0204
   -16.8973 -16.8711 -16.8439 -16.7057 -15.1086 -15.0492 -14.9850 -14.8760
   -14.8160 -14.6485 -14.3877 -14.3340 -14.3111 -14.2481 -14.2118 -14.1924
   -14.1716 -14.0380 -13.7153  -9.5511  -9.4126  -8.9732  -8.1967  -8.1949
    -8.0827  -8.0798  -7.9713  -7.9290  -7.7726  -7.7709  -7.5488  -3.0245
    -3.0000  -2.9726  -2.8024  -2.5956  -2.5888  -2.5647  -2.4422  -2.4402
    -2.3443  -1.9676  -1.9540  -1.9497  -1.8557  -1.6460  -1.6409  -1.5837
    -1.2731  -1.1708  -1.1463  -1.1433  -1.0895  -1.0800  -1.0187  -0.8542
    -0.8532  -0.8372  -0.8014  -0.7406  -0.6962  -0.6650  -0.6059  -0.4966
    -0.3597  -0.3407  -0.3177  -0.2035  -0.1705   0.0042   0.0247   0.0557
     0.1928   0.1968   0.3019   0.3266   0.4267   0.5804   0.5853   0.6268
     0.7985   0.8529   0.8583   0.8933   0.9386   0.9760   1.0606   1.1112
     1.1365   1.1708   1.1976   1.2024   1.2252   1.2574   1.2776   1.3805
     1.4292   1.4710   1.5465   1.6902   1.7669   1.7800   1.7963   1.9453
     2.3778   2.3893   2.5774   2.7115   2.8869   2.8983   3.3836   5.4471
     6.2631   6.3869   6.3877   6.6381   7.2179   7.3959   7.7862   7.8926
     7.8981   8.0685   8.5521   8.6196   8.6891   8.7186   8.8173   8.8449
     8.9518

          k = 0.1250 0.3960 0.0000 ( 35460 PWs)   bands (ev):

   -35.7455 -35.5641 -24.2054 -22.7777 -22.7757 -22.5819 -17.1547 -17.0048
   -16.9786 -16.8626 -16.7969 -16.6973 -15.0597 -15.0523 -14.7950 -14.7745
   -14.6891 -14.5996 -14.4002 -14.3630 -14.3212 -14.3075 -14.2560 -14.2509
   -14.1705 -14.0773 -13.7843  -9.5267  -9.4514  -9.0210  -8.2271  -8.2250
    -8.0943  -8.0914  -8.0224  -7.9295  -7.8176  -7.8161  -7.5886  -3.7130
    -3.4917  -3.4801  -3.2619  -3.1504  -3.1470  -3.0284  -2.5415  -2.5396
    -2.3742  -2.2122  -1.9530  -1.9462  -1.8186  -1.7910  -1.7581  -1.5342
    -1.5268  -1.4791  -1.4404  -1.3584  -1.3013  -1.2624  -1.1970  -1.1048
    -1.0369  -1.0281  -1.0172  -0.9423  -0.9184  -0.8045  -0.7692  -0.5490
    -0.4640  -0.3832  -0.3425  -0.1775  -0.1742   0.0337   0.0394   0.0537
     0.1514   0.2669   0.3104   0.4967   0.5940   0.6022   0.7390   0.7437
     0.8072   0.8945   0.9048   1.0118   1.0213   1.0416   1.0664   1.1041
     1.1270   1.1916   1.2551   1.4348   1.4940   1.5241   1.5546   1.5970
     1.6573   1.7274   1.7490   1.8110   1.9780   2.0819   2.1739   2.1750
     2.3251   2.3393   2.5285   2.6289   2.8274   2.8508   3.9367   5.8506
     6.3141   7.1375   7.1395   7.2800   7.7503   7.9541   8.0899   8.3862
     8.5012   8.5101   8.7512   8.8949   9.0647   9.0916   9.2046   9.3039
     9.3986

          k = 0.1250-0.5279 0.0000 ( 35396 PWs)   bands (ev):

   -35.7436 -35.5622 -24.1838 -22.7497 -22.7478 -22.5553 -17.2063 -17.0298
   -16.9615 -16.8588 -16.7535 -16.6936 -15.0921 -15.0856 -14.6647 -14.6604
   -14.5924 -14.5849 -14.5395 -14.4059 -14.3658 -14.3336 -14.2365 -14.2334
   -14.1035 -14.0974 -13.8374  -9.5067  -9.4626  -9.0505  -8.2218  -8.2194
    -8.0991  -8.0962  -8.0324  -7.9282  -7.8518  -7.8506  -7.6145  -3.9825
    -3.6775  -3.6673  -3.4391  -3.3803  -3.3757  -3.2043  -2.5625  -2.5607
    -2.3858  -2.3077  -1.9831  -1.9756  -1.7732  -1.7527  -1.6802  -1.6485
    -1.6465  -1.5989  -1.5262  -1.4003  -1.3865  -1.3370  -1.2615  -1.2549
    -1.1263  -1.1079  -1.1030  -1.0298  -1.0122  -0.9044  -0.7539  -0.5453
    -0.4636  -0.3943  -0.3520  -0.1583  -0.1463   0.0463   0.0517   0.0548
     0.1533   0.2878   0.3389   0.3789   0.4787   0.5822   0.7682   0.7857
     0.7948   0.7956   0.8551   1.0621   1.0995   1.1158   1.1277   1.1283
     1.1762   1.2087   1.2862   1.4623   1.6124   1.6700   1.8284   1.8584
     1.8615   1.8688   1.9013   2.0304   2.0878   2.1602   2.1847   2.1914
     2.3391   2.3403   2.3830   2.4737   2.7053   2.7373   4.1171   5.8027
     6.7881   7.1008   7.3601   7.3632   7.7032   8.0974   8.1722   8.6378
     8.8371   8.9469   9.1280   9.1414   9.1553   9.3060   9.4968   9.5326
     9.6695

          k = 0.2500 0.0000 0.0000 ( 35576 PWs)   bands (ev):

   -35.7534 -35.5721 -24.2943 -22.8890 -22.8871 -22.6880 -17.1426 -17.0524
   -16.9349 -16.8885 -16.7922 -16.6179 -15.2516 -15.1653 -15.1152 -14.9637
   -14.8990 -14.7719 -14.5146 -14.3647 -14.3622 -14.2498 -14.1921 -14.1549
   -14.0586 -13.9828 -13.6703  -9.6427  -9.0253  -9.0167  -8.1102  -8.1070
    -7.9919  -7.8966  -7.8952  -7.7390  -7.7370  -7.6476  -7.5190  -2.7263
    -2.7216  -2.5465  -2.3695  -2.3683  -2.2760  -2.1553  -1.9102  -1.8899
    -1.8195  -1.6424  -1.6107  -1.5511  -1.4493  -1.3769  -1.3747  -1.2384
    -1.2317  -1.1129  -1.0199  -1.0183  -0.9294  -0.9288  -0.8120  -0.7993
    -0.6938  -0.6905  -0.5843  -0.5619  -0.4935  -0.4849  -0.4274  -0.4120
    -0.4072  -0.3963  -0.3422  -0.2095  -0.0962  -0.0829  -0.0808   0.0234
     0.0247   0.1621   0.1641   0.2685   0.2859   0.3470   0.3865   0.4625
     0.5000   0.5436   0.5849   0.6902   0.7526   0.7762   0.7886   0.8918
     1.1148   1.1398   1.1439   1.1475   1.1658   1.2463   1.2595   1.3051
     1.4109   1.4124   1.5939   1.6059   1.7094   1.7175   1.8418   1.8754
     1.9223   2.0501   2.1162   2.2823   2.4220   2.5162   2.5166   5.1631
     5.6931   5.6943   5.8511   6.5933   6.8810   7.1449   7.3939   7.4116
     7.6675   8.0497   8.3218   8.3658   8.5437   8.7490   8.7651   8.7918
     9.0685

          k = 0.2500 0.1320 0.0000 ( 35521 PWs)   bands (ev):

   -35.7516 -35.5702 -24.2751 -22.8651 -22.8632 -22.6651 -17.1106 -17.0460
   -16.9040 -16.8805 -16.8583 -16.6837 -15.1881 -15.1138 -15.0787 -14.9158
   -14.8476 -14.7370 -14.4662 -14.3504 -14.3499 -14.2439 -14.1976 -14.1687
   -14.0929 -14.0107 -13.6844  -9.6192  -9.3020  -8.9154  -8.1785  -8.1765
    -8.0338  -8.0309  -8.0142  -7.8287  -7.7054  -7.7036  -7.4856  -2.7770
    -2.7669  -2.5828  -2.3610  -2.3606  -2.2701  -2.2563  -2.2531  -2.1509
    -2.1254  -1.9993  -1.9439  -1.7907  -1.7890  -1.6075  -1.5106  -1.5020
    -1.2110  -1.1757  -1.1701  -1.1170  -1.0521  -0.9885  -0.8918  -0.8326
    -0.8257  -0.7820  -0.7674  -0.6668  -0.5297  -0.5047  -0.4336  -0.3776
    -0.3397  -0.2509  -0.1943  -0.1868  -0.1548  -0.0455  -0.0390   0.0383
     0.0404   0.1634   0.1685   0.1884   0.2645   0.4328   0.5038   0.6106
     0.6391   0.7344   0.7490   0.7584   0.8839   0.9101   0.9577   1.0306
     1.0406   1.0882   1.1796   1.2028   1.2451   1.2547   1.2906   1.3200
     1.3210   1.3855   1.5623   1.5701   1.6154   1.6799   1.8559   1.8829
     2.4933   2.5230   2.5960   2.6924   2.7084   2.7369   2.8940   5.3203
     5.9543   5.9554   6.0636   6.5869   7.0233   7.2574   7.6509   7.6585
     7.7219   7.9931   8.4119   8.4560   8.5579   8.6912   8.8642   8.9086
     9.0140

          k = 0.2500 0.2640 0.0000 ( 35483 PWs)   bands (ev):

   -35.7473 -35.5659 -24.2280 -22.8064 -22.8045 -22.6088 -17.0467 -17.0214
   -16.9948 -16.8765 -16.8247 -16.8141 -15.0227 -15.0154 -15.0109 -14.7781
   -14.7193 -14.6506 -14.3402 -14.3259 -14.3224 -14.2595 -14.2467 -14.2158
   -14.1467 -14.0663 -13.7110  -9.6137  -9.5458  -9.0227  -8.3986  -8.3969
    -8.1696  -8.0953  -8.0926  -7.9421  -7.8252  -7.8233  -7.6086  -3.1582
    -3.1260  -2.9577  -2.8908  -2.6230  -2.6021  -2.5868  -2.4737  -2.4733
    -2.4118  -2.3310  -2.3293  -2.2486  -2.0806  -1.8858  -1.6164  -1.5828
    -1.5823  -1.5657  -1.4702  -1.3101  -1.2290  -1.1573  -1.0714  -1.0517
    -0.8964  -0.8808  -0.8191  -0.7860  -0.7584  -0.7556  -0.6969  -0.5788
    -0.5159  -0.4436  -0.3287  -0.1859  -0.1490  -0.1051   0.1360   0.1553
     0.2349   0.3509   0.4183   0.6201   0.6250   0.6702   0.7612   0.7988
     0.8006   0.9338   1.0497   1.0713   1.1002   1.1726   1.1930   1.1984
     1.2184   1.2805   1.2963   1.3212   1.3493   1.3898   1.4033   1.4426
     1.5152   1.5171   1.5929   1.6954   1.6961   1.7924   1.8923   1.9961
     2.8245   2.8258   3.1078   3.1256   3.2491   3.3902   3.4064   5.7310
     6.0320   6.4974   6.4978   6.8234   7.4100   7.5525   7.8153   8.1836
     8.1852   8.2571   8.5626   8.5936   8.8696   8.9008   8.9672   9.0693
     9.1451

          k = 0.2500 0.3960 0.0000 ( 35466 PWs)   bands (ev):

   -35.7429 -35.5615 -24.1799 -22.7460 -22.7441 -22.5509 -17.1426 -17.0107
   -16.9668 -16.9361 -16.8466 -16.7274 -14.9782 -14.9743 -14.7837 -14.6064
   -14.5796 -14.5594 -14.3824 -14.3330 -14.3261 -14.2680 -14.2426 -14.2287
   -14.1877 -14.0716 -13.7430  -9.7698  -9.4939  -9.2343  -8.5187  -8.5166
    -8.3004  -8.1456  -8.1432  -8.0391  -8.0371  -7.9605  -7.8265  -3.6937
    -3.6434  -3.6252  -3.3788  -3.1322  -3.1262  -3.1024  -2.6118  -2.6116
    -2.4477  -2.2949  -2.2919  -2.2213  -2.0826  -2.0239  -1.9444  -1.9278
    -1.7717  -1.6351  -1.6217  -1.5346  -1.5226  -1.3263  -1.3100  -1.1175
    -1.0227  -0.9868  -0.9644  -0.9534  -0.9509  -0.8109  -0.7439  -0.7190
    -0.6247  -0.5855  -0.3891  -0.1717  -0.0485   0.0029   0.1897   0.2040
     0.3234   0.4871   0.6409   0.8156   0.8168   0.8243   0.9249   0.9943
     1.0943   1.1275   1.1547   1.1602   1.1651   1.2656   1.3289   1.3330
     1.3809   1.4270   1.5187   1.5486   1.5892   1.5965   1.6429   1.6515
     1.6849   1.7438   1.8003   1.8249   2.0931   2.0950   2.0969   2.1006
     2.6561   2.6580   3.3361   3.3674   3.4882   3.6228   3.9201   5.5587
     6.2732   6.7046   6.7065   7.1382   7.5203   7.5824   7.8179   8.4576
     8.6327   8.6457   8.8609   9.0526   9.1863   9.3057   9.5119   9.5850
     9.6386

          k = 0.2500-0.5279 0.0000 ( 35512 PWs)   bands (ev):

   -35.7411 -35.5597 -24.1596 -22.7205 -22.7185 -22.5265 -17.1928 -17.0165
   -17.0052 -16.8966 -16.8413 -16.6878 -14.9750 -14.9706 -14.5831 -14.5544
   -14.5252 -14.5073 -14.4460 -14.4014 -14.3722 -14.3003 -14.2296 -14.2277
   -14.1092 -14.0722 -13.7680  -9.8000  -9.4685  -9.3516  -8.5188  -8.5164
    -8.3197  -8.2336  -8.2320  -8.1055  -8.1027  -7.9758  -7.9372  -3.9604
    -3.8475  -3.8257  -3.5711  -3.3582  -3.3539  -3.2974  -2.6194  -2.6189
    -2.4458  -2.2596  -2.2532  -2.2036  -2.1628  -2.0866  -2.0847  -1.9720
    -1.8724  -1.7205  -1.6863  -1.5967  -1.5787  -1.4097  -1.4006  -1.1296
    -1.1212  -1.0673  -1.0354  -0.9773  -0.9656  -0.8899  -0.7382  -0.7161
    -0.6604  -0.6100  -0.3892  -0.1692  -0.0176   0.0521   0.2010   0.2566
     0.4317   0.5221   0.7153   0.8033   0.8824   0.9192   0.9216   0.9403
     1.0376   1.0657   1.1810   1.2681   1.3204   1.3339   1.3394   1.3845
     1.4517   1.4574   1.4760   1.6378   1.7440   1.7975   1.8042   1.8469
     1.8625   1.8887   1.9092   1.9984   2.1373   2.2197   2.2715   2.2722
     2.4340   2.4364   3.3557   3.3941   3.5243   3.6532   4.0906   5.3599
     6.6618   6.6700   6.7580   6.9800   7.4728   7.5341   7.5717   8.3945
     8.9616   9.0832   9.3571   9.3666   9.3867   9.6731   9.7367   9.7862
     9.8095

          k = 0.3750 0.0000 0.0000 ( 35488 PWs)   bands (ev):

   -35.7508 -35.5694 -24.2608 -22.8436 -22.8416 -22.6447 -17.1924 -17.0473
   -17.0310 -16.8356 -16.7889 -16.6146 -15.3255 -15.2042 -15.1981 -14.8211
   -14.7828 -14.7814 -14.4835 -14.3994 -14.3692 -14.3662 -14.2824 -14.1995
   -14.0921 -14.0289 -13.7013  -9.6385  -8.9619  -8.9570  -8.0927  -8.0895
    -7.9843  -7.8317  -7.8305  -7.6546  -7.6526  -7.5988  -7.4403  -3.0545
    -3.0467  -2.8892  -2.5642  -2.4928  -2.4915  -2.3163  -1.8297  -1.7926
    -1.7498  -1.6907  -1.6729  -1.5138  -1.5117  -1.4154  -1.3785  -1.3764
    -1.3229  -1.2350  -1.1802  -1.1697  -1.1442  -1.0552  -1.0469  -1.0173
    -0.8936  -0.8906  -0.7902  -0.7620  -0.6192  -0.5491  -0.4998  -0.4786
    -0.4063  -0.4046  -0.3810  -0.2884  -0.1307  -0.0957  -0.0936   0.0138
     0.0156   0.2404   0.2433   0.2623   0.2683   0.2708   0.3166   0.3822
     0.4303   0.5857   0.6975   0.7864   0.8012   0.8241   0.9791   1.0231
     1.0232   1.0515   1.1408   1.1616   1.1862   1.2089   1.3405   1.3942
     1.4674   1.5944   1.5972   1.6276   1.6514   1.7368   1.8711   1.9660
     2.0148   2.0811   2.1511   2.3924   2.4466   2.6351   2.6355   5.6940
     6.2828   6.3432   6.3441   6.9352   7.5081   7.5988   7.8386   7.8406
     7.8889   8.3067   8.3905   8.5181   8.8475   9.0237   9.1608   9.2629
     9.3423

          k = 0.3750 0.1320 0.0000 ( 35549 PWs)   bands (ev):

   -35.7490 -35.5676 -24.2429 -22.8219 -22.8199 -22.6238 -17.1838 -17.0223
   -17.0182 -16.8533 -16.8064 -16.6788 -15.2530 -15.1566 -15.1512 -14.7816
   -14.7390 -14.7198 -14.4330 -14.3591 -14.3460 -14.3440 -14.2663 -14.1927
   -14.1282 -14.0371 -13.7119  -9.6178  -9.2389  -8.9659  -8.1500  -8.1477
    -8.0103  -7.9948  -7.9931  -7.7788  -7.7443  -7.7424  -7.5335  -3.1169
    -3.1031  -2.9337  -2.5861  -2.4915  -2.4904  -2.3274  -2.2075  -2.1770
    -2.0397  -1.9971  -1.8801  -1.7793  -1.7774  -1.6562  -1.6056  -1.5861
    -1.4742  -1.4664  -1.3863  -1.2837  -1.1347  -1.0707  -0.9883  -0.9625
    -0.9329  -0.8656  -0.8545  -0.8046  -0.6767  -0.5815  -0.5598  -0.4301
    -0.4233  -0.2265  -0.2069  -0.1542  -0.1322  -0.0537  -0.0212   0.0239
     0.0304   0.1100   0.2728   0.2794   0.3075   0.4913   0.5296   0.5555
     0.6356   0.6785   0.7872   0.8458   0.8907   0.9983   1.0113   1.0537
     1.0674   1.1063   1.1643   1.1986   1.2105   1.2297   1.3718   1.4267
     1.5098   1.5496   1.5856   1.6131   1.6455   1.8717   1.8906   2.0238
     2.5604   2.5898   2.6296   2.7817   2.8170   2.9572   3.0567   5.7955
     6.3008   6.4925   6.4929   6.7368   7.5690   7.6455   7.8519   7.9041
     7.9052   8.3159   8.4721   8.5848   8.8241   8.8721   9.1200   9.2802
     9.3385

          k = 0.3750 0.2640 0.0000 ( 35547 PWs)   bands (ev):

   -35.7447 -35.5633 -24.1989 -22.7686 -22.7666 -22.5722 -17.1635 -17.0017
   -16.9977 -16.9430 -16.8220 -16.7318 -15.0543 -15.0341 -15.0312 -14.6862
   -14.6367 -14.5707 -14.3412 -14.3121 -14.2856 -14.2802 -14.2593 -14.1820
   -14.1666 -14.0739 -13.7182  -9.6735  -9.5420  -9.2076  -8.4513  -8.4495
    -8.2268  -8.1299  -8.1277  -8.0076  -8.0054  -7.9559  -7.8090  -3.4347
    -3.3951  -3.1715  -2.9203  -2.8072  -2.6628  -2.6543  -2.5428  -2.5426
    -2.5272  -2.4134  -2.4113  -2.3450  -2.3076  -1.9501  -1.8949  -1.8728
    -1.7527  -1.5195  -1.4378  -1.3810  -1.3172  -1.1370  -1.0894  -1.0593
    -1.0355  -1.0063  -0.8849  -0.8125  -0.8102  -0.7671  -0.7157  -0.6649
    -0.5383  -0.5368  -0.4239  -0.0963  -0.0858   0.0032   0.2260   0.2464
     0.3221   0.4689   0.5265   0.6557   0.6666   0.8446   0.8454   0.8809
     0.9803   1.0308   1.0648   1.0854   1.1787   1.2269   1.2806   1.2896
     1.3079   1.3135   1.4230   1.4439   1.4706   1.5171   1.5527   1.5920
     1.5922   1.6272   1.6520   1.6555   1.7958   1.8773   1.9463   2.0964
     2.8246   2.8268   3.3978   3.5620   3.5723   3.6797   3.8165   5.6564
     6.1395   6.5377   6.5385   6.8672   7.4677   7.5179   8.0102   8.2416
     8.2498   8.4596   8.6650   8.7564   8.9946   9.2460   9.2637   9.3801
     9.4217

          k = 0.3750 0.3960 0.0000 ( 35519 PWs)   bands (ev):

   -35.7404 -35.5589 -24.1540 -22.7139 -22.7120 -22.5195 -17.1461 -17.1243
   -16.9825 -16.9503 -16.8634 -16.6520 -14.9003 -14.8984 -14.7817 -14.5941
   -14.5443 -14.4132 -14.3960 -14.3346 -14.2466 -14.2412 -14.2379 -14.1751
   -14.1057 -14.0898 -13.7037  -9.9828  -9.5165  -9.4768  -8.7171  -8.7149
    -8.4995  -8.3821  -8.3807  -8.1329  -8.1295  -8.1177  -7.9849  -3.9147
    -3.8671  -3.6719  -3.5808  -3.2728  -3.1072  -3.1055  -2.7925  -2.7925
    -2.6460  -2.4420  -2.4398  -2.4093  -2.3186  -2.2630  -2.1928  -2.0490
    -1.9428  -1.8050  -1.5605  -1.3800  -1.3703  -1.3680  -1.3605  -1.1238
    -1.1053  -1.0368  -1.0190  -1.0103  -0.9552  -0.8722  -0.7762  -0.7239
    -0.6353  -0.5560  -0.5549  -0.0154   0.0409   0.0867   0.2914   0.4495
     0.6074   0.6799   0.8556   0.9946   0.9955   1.0591   1.1237   1.1814
     1.2074   1.2289   1.3198   1.3211   1.3793   1.4301   1.4954   1.5250
     1.5817   1.5905   1.6053   1.6257   1.6508   1.7689   1.7816   1.8128
     1.8345   1.8468   1.9112   1.9293   2.0180   2.0182   2.1139   2.3314
     2.6441   2.6484   3.8889   4.0828   4.0896   4.1612   4.2915   5.0693
     6.2346   6.2347   6.4671   6.9892   7.1637   7.2210   7.8911   8.2838
     8.8181   8.8367   9.1372   9.3206   9.3255   9.3759   9.4058   9.4658
     9.5070

          k = 0.3750-0.5279 0.0000 ( 35528 PWs)   bands (ev):

   -35.7386 -35.5571 -24.1352 -22.6909 -22.6889 -22.4972 -17.1794 -17.1336
   -17.0034 -16.9717 -16.8280 -16.6167 -14.8388 -14.8381 -14.5825 -14.5603
   -14.5151 -14.4569 -14.3559 -14.3503 -14.3197 -14.2217 -14.2197 -14.1970
   -14.0617 -14.0523 -13.6955 -10.0935  -9.6290  -9.4705  -8.7992  -8.7967
    -8.5952  -8.5272  -8.5260  -8.2465  -8.1585  -8.1551  -7.9990  -4.1220
    -4.0733  -3.9366  -3.7843  -3.4766  -3.3325  -3.3308  -2.8110  -2.8110
    -2.6583  -2.4373  -2.4341  -2.4071  -2.3706  -2.3201  -2.3000  -2.1228
    -1.9925  -1.9104  -1.6314  -1.4836  -1.4763  -1.4031  -1.3946  -1.1231
    -1.1190  -1.1143  -1.0964  -1.0609  -1.0093  -0.8785  -0.8770  -0.7114
    -0.6341  -0.5434  -0.5418   0.0188   0.0562   0.1261   0.3088   0.5335
     0.7491   0.7745   0.9947   1.1050   1.1082   1.1321   1.1704   1.1950
     1.2348   1.2479   1.3919   1.4530   1.4992   1.5088   1.6097   1.6110
     1.6201   1.6562   1.7941   1.8168   1.8183   1.8534   1.8790   1.9135
     1.9175   1.9768   2.0413   2.1076   2.1806   2.2062   2.2087   2.3995
     2.4058   2.4690   4.0189   4.2312   4.2357   4.3086   4.4322   4.8386
     6.0573   6.0574   6.6751   6.9465   7.0399   7.1352   7.7711   8.1183
     8.9627   8.9924   9.1936   9.1953   9.3204   9.4676   9.5824   9.6807
     9.6826

          k =-0.5000 0.0000 0.0000 ( 35494 PWs)   bands (ev):

   -35.7497 -35.5683 -24.2468 -22.8244 -22.8224 -22.6265 -17.2448 -17.0838
   -17.0052 -16.7920 -16.7875 -16.6132 -15.3607 -15.2597 -15.2541 -14.8472
   -14.7550 -14.5864 -14.4888 -14.3922 -14.3811 -14.3778 -14.3498 -14.2643
   -14.1011 -14.0452 -13.7172  -9.6310  -8.9429  -8.9318  -8.0824  -8.0792
    -7.9752  -7.8086  -7.8074  -7.6185  -7.6164  -7.5854  -7.4067  -3.1965
    -3.1891  -3.0325  -2.7190  -2.5180  -2.5164  -2.3139  -1.8199  -1.7827
    -1.7742  -1.7344  -1.5484  -1.5416  -1.4897  -1.4255  -1.3823  -1.3802
    -1.3600  -1.3391  -1.3116  -1.2739  -1.1964  -1.1663  -1.0713  -0.9808
    -0.9760  -0.9741  -0.8832  -0.8804  -0.6856  -0.6051  -0.5051  -0.4933
    -0.4477  -0.4026  -0.3800  -0.3005  -0.1240  -0.1011  -0.0989  -0.0214
    -0.0179   0.2349   0.2404   0.2426   0.2577   0.2656   0.2706   0.3438
     0.3963   0.6469   0.7615   0.7985   0.8203   0.8531   0.9131   0.9728
     0.9730   1.0942   1.1993   1.2118   1.2269   1.3241   1.4255   1.4912
     1.4932   1.4949   1.5034   1.6735   1.6996   1.7804   1.9814   2.0177
     2.0249   2.0949   2.1560   2.3966   2.4203   2.6597   2.6689   6.1467
     6.1513   7.0929   7.1167   7.1184   7.1674   7.1686   7.5144   8.0955
     8.3754   8.4087   8.4853   8.8648   8.9017   8.9353   9.2856   9.3053
     9.3508

          k =-0.5000 0.1320 0.0000 ( 35562 PWs)   bands (ev):

   -35.7479 -35.5665 -24.2293 -22.8036 -22.8017 -22.6063 -17.2355 -17.0745
   -16.9777 -16.8511 -16.7645 -16.6766 -15.2841 -15.2028 -15.1979 -14.8057
   -14.7171 -14.5430 -14.4301 -14.3577 -14.3518 -14.3462 -14.3262 -14.2313
   -14.1393 -14.0453 -13.7281  -9.6098  -9.1477  -9.0609  -8.1212  -8.1185
    -7.9947  -7.9380  -7.9368  -7.8215  -7.8192  -7.7062  -7.6208  -3.2654
    -3.2522  -3.0848  -2.7468  -2.5228  -2.5215  -2.3400  -2.1756  -2.1416
    -2.0055  -1.9685  -1.8382  -1.7741  -1.7720  -1.6806  -1.6417  -1.6171
    -1.5890  -1.5805  -1.4933  -1.3190  -1.1654  -1.1514  -1.0316  -1.0299
    -0.9567  -0.8655  -0.8428  -0.8158  -0.7823  -0.6184  -0.6015  -0.4536
    -0.4518  -0.2378  -0.2148  -0.1273  -0.0830  -0.0760  -0.0111   0.0199
     0.0245   0.0700   0.3164   0.3530   0.3540   0.4174   0.4505   0.5225
     0.6302   0.6619   0.7141   0.8753   0.9276   0.9955   1.0139   1.0604
     1.0842   1.1170   1.1206   1.2086   1.2618   1.3390   1.4613   1.4617
     1.5224   1.5540   1.5627   1.7052   1.7446   1.8580   2.0107   2.1096
     2.5721   2.5923   2.6302   2.8001   2.8387   3.0113   3.0852   6.1121
     6.2205   6.7523   6.9640   6.9650   7.4710   7.4726   7.6704   8.0042
     8.0818   8.2997   8.6137   8.8117   8.8531   9.1188   9.3802   9.4601
     9.4889

          k =-0.5000 0.2640 0.0000 ( 35556 PWs)   bands (ev):

   -35.7436 -35.5622 -24.1867 -22.7527 -22.7507 -22.5569 -17.2135 -17.0524
   -16.9943 -16.9066 -16.8188 -16.6941 -15.0743 -15.0501 -15.0487 -14.7067
   -14.6284 -14.4332 -14.3285 -14.3049 -14.2931 -14.2885 -14.2571 -14.2105
   -14.1465 -14.0665 -13.7285  -9.6386  -9.5403  -9.3421  -8.3902  -8.3878
    -8.2392  -8.2380  -8.1796  -8.0711  -8.0682  -7.9871  -7.9365  -3.5730
    -3.5337  -3.3161  -2.9464  -2.9127  -2.6885  -2.6810  -2.5584  -2.5525
    -2.5396  -2.4224  -2.4191  -2.3762  -2.3121  -2.0712  -2.0110  -1.8681
    -1.8557  -1.6023  -1.3896  -1.2954  -1.2830  -1.1310  -1.1292  -1.0787
    -1.0701  -1.0260  -0.9225  -0.8371  -0.8347  -0.7597  -0.7572  -0.6656
    -0.5556  -0.5520  -0.4399  -0.0863  -0.0693   0.0953   0.2472   0.3214
     0.3777   0.5106   0.5633   0.6874   0.6920   0.8614   0.9267   0.9349
     0.9906   1.0181   1.0265   1.0717   1.1061   1.2920   1.2959   1.3154
     1.3515   1.3906   1.4188   1.5209   1.5508   1.5543   1.5942   1.6279
     1.6486   1.6529   1.6612   1.7338   1.7643   1.9002   1.9965   2.2073
     2.8176   2.8203   3.4037   3.7013   3.7122   3.8137   3.9390   5.4988
     6.3908   6.5336   6.5341   6.7719   7.3950   7.4406   8.0779   8.2622
     8.2817   8.5191   8.7188   8.9918   9.1893   9.4260   9.4413   9.4632
     9.5761

          k =-0.5000 0.3960 0.0000 ( 35540 PWs)   bands (ev):

   -35.7393 -35.5579 -24.1433 -22.7005 -22.6985 -22.5063 -17.1920 -17.1234
   -17.0307 -16.9476 -16.8311 -16.6186 -14.8713 -14.8688 -14.7831 -14.6199
   -14.5545 -14.3862 -14.3246 -14.3165 -14.2397 -14.2378 -14.2102 -14.1473
   -14.1175 -14.0543 -13.6895 -10.0523  -9.6203  -9.4961  -8.7654  -8.7629
    -8.5558  -8.5272  -8.5260  -8.2536  -8.1490  -8.1457  -7.9984  -4.0450
    -3.9934  -3.7438  -3.6223  -3.3796  -3.0989  -3.0970  -2.8630  -2.8622
    -2.7146  -2.5108  -2.4578  -2.4561  -2.3608  -2.3259  -2.2892  -2.0675
    -1.9863  -1.8808  -1.5488  -1.3961  -1.3872  -1.2692  -1.2523  -1.2116
    -1.1950  -1.0496  -1.0447  -0.9713  -0.9621  -0.9285  -0.7543  -0.7278
    -0.7241  -0.5199  -0.5184  -0.0037   0.0981   0.1598   0.3237   0.5485
     0.7655   0.7705   0.9288   1.1181   1.1201   1.1320   1.1328   1.2123
     1.2197   1.2643   1.3933   1.3993   1.3999   1.4903   1.5474   1.5817
     1.6112   1.6117   1.6369   1.6601   1.7477   1.8069   1.8196   1.8991
     1.9070   1.9237   1.9744   1.9872   2.0173   2.0663   2.0742   2.4603
     2.6318   2.6373   3.8843   4.3469   4.3522   4.4072   4.5256   4.8674
     6.0390   6.0397   6.5619   6.9371   7.0155   7.0708   7.9764   8.1363
     8.7638   8.7877   9.2404   9.2705   9.3111   9.4321   9.5490   9.5791
     9.6014

          k =-0.5000-0.5279 0.0000 ( 35564 PWs)   bands (ev):

   -35.7375 -35.5561 -24.1250 -22.6785 -22.6765 -22.4850 -17.1832 -17.1740
   -17.0218 -16.9980 -16.7977 -16.5854 -14.7749 -14.7730 -14.6079 -14.5756
   -14.5392 -14.4324 -14.3477 -14.3083 -14.2675 -14.2182 -14.2145 -14.1060
   -14.1011 -14.0139 -13.6645 -10.2162  -9.7352  -9.4734  -8.9114  -8.9088
    -8.7066  -8.6433  -8.6421  -8.3597  -8.1770  -8.1730  -8.0148  -4.2535
    -4.2005  -3.9667  -3.8664  -3.5819  -3.3233  -3.3213  -2.8956  -2.8946
    -2.7420  -2.5256  -2.4531  -2.4478  -2.4462  -2.3842  -2.3258  -2.1377
    -2.0229  -1.9768  -1.6160  -1.5108  -1.5041  -1.3339  -1.3171  -1.1863
    -1.1642  -1.1441  -1.1425  -1.0630  -1.0065  -0.8860  -0.8707  -0.7324
    -0.7143  -0.4915  -0.4895   0.0321   0.1397   0.1784   0.3432   0.6594
     0.8650   0.9050   1.0976   1.1849   1.1905   1.1982   1.2320   1.2562
     1.2825   1.3767   1.4561   1.5305   1.5436   1.6098   1.6629   1.6912
     1.7339   1.7409   1.7914   1.8473   1.8516   1.9127   1.9415   1.9558
     2.0299   2.0532   2.0993   2.1798   2.1824   2.2349   2.2589   2.3749
     2.3833   2.6030   4.0061   4.5484   4.5552   4.6110   4.6243   4.7164
     5.8121   5.8127   6.6356   6.9057   6.9454   6.9542   7.9589   7.9834
     8.8730   8.8967   8.9167   8.9442   9.2684   9.3684   9.4901   9.5610
     9.6663

     the Fermi energy is     2.4074 ev

!    total energy              =   -1842.81629136 Ry
     Harris-Foulkes estimate   =   -1842.81629137 Ry
     estimated scf accuracy    <          9.9E-09 Ry

     The total energy is the sum of the following terms:

     one-electron contribution =  -26945.10639300 Ry
     hartree contribution      =   13623.82625914 Ry
     xc contribution           =    -621.54966058 Ry
     ewald contribution        =   12100.02080148 Ry
     smearing contrib. (-TS)   =      -0.00729840 Ry

     convergence has been achieved in  35 iterations

     negative rho (up, down):  1.515E-03 0.000E+00

     Forces acting on atoms (cartesian axes, Ry/au):

     atom    1 type  4   force =     0.00000000    0.00000000   -0.00017976
     atom    2 type  3   force =     0.00000000    0.00000000    0.00035650
     atom    3 type  4   force =     0.00000000    0.00000000   -0.00079877
     atom    4 type  1   force =     0.00000000    0.00000000   -0.00031873
     atom    5 type  3   force =     0.00000000    0.00000000    0.00064455
     atom    6 type  4   force =     0.00000000    0.00000000    0.00014389
     atom    7 type  4   force =     0.00000000    0.00000000    0.00047228
     atom    8 type  2   force =     0.00000000    0.00000000   -0.00107551
     atom    9 type  4   force =     0.00000000    0.00000000    0.00045411
     atom   10 type  4   force =     0.00000000    0.00000000    0.00068257
     atom   11 type  3   force =     0.00000000    0.00000000    0.00063181
     atom   12 type  1   force =     0.00000000    0.00000000   -0.00246670
     atom   13 type  4   force =     0.00000000    0.00000000    0.00688445
     atom   14 type  4   force =     0.00000000    0.00000000    0.01868505
     atom   15 type  3   force =     0.00000000    0.00000000   -0.02044127
     atom   16 type  4   force =     0.00000000    0.00000000    0.03189448
     atom   17 type  1   force =     0.00000000    0.00000000   -0.02490382
     atom   18 type  3   force =     0.00000000    0.00000000   -0.00956300
     atom   19 type  4   force =     0.00000000    0.00000000    0.01013054
     atom   20 type  4   force =     0.00000000    0.00000000    0.00277562
     atom   21 type  2   force =     0.00000000    0.00000000   -0.01778646
     atom   22 type  4   force =     0.00000000    0.00000000    0.00064065
     atom   23 type  4   force =     0.00000000    0.00000000    0.00220516
     atom   24 type  3   force =     0.00000000    0.00000000    0.00003111
     atom   25 type  1   force =     0.00000000    0.00000000    0.00019353
     atom   26 type  4   force =     0.00000000    0.00000000    0.00112186
     atom   27 type  3   force =     0.00000000    0.00000000   -0.00070556
     atom   28 type  4   force =     0.00000000    0.00000000    0.00029140

     Total force =     0.054061     Total SCF correction =     0.000257


     Computing stress (Cartesian axis) and pressure


     negative rho (up, down):  1.515E-03 0.000E+00
          total   stress  (Ry/bohr**3)                   (kbar)     P=       -8.56
  -0.00009565   0.00000000   0.00000000          -14.07        0.00        0.00
   0.00000000  -0.00004141   0.00000000            0.00       -6.09        0.00
   0.00000000   0.00000000  -0.00003746            0.00        0.00       -5.51


     BFGS Geometry Optimization

     number of scf cycles    =   1
     number of bfgs steps    =   0

     energy   new            =   -1842.8162913577 Ry

     new trust radius        =       0.0318944835 bohr
     new conv_thr            =       0.0000000100 Ry


ATOMIC_POSITIONS (angstrom)
O             0.0000000000        1.8611200000       -0.1846200000    0   0   0
Cu            0.0000000000        0.0000000000        0.1039800000    0   0   0
O             0.0000000000        0.0000000000        1.9772600000    0   0   0
Ba            1.9651100000        1.8611200000        2.2364100000    0   0   0
Cu            0.0000000000        0.0000000000        4.0773100000    0   0   0
O             1.9651100000        0.0000000000        4.2321000000    0   0   0
O             0.0000000000        1.8611200000        4.3692200000    0   0   0
Ca            1.9651100000        1.8611200000        5.8860000000    0   0   0
O             0.0000000000        1.8611200000        7.3367500000    0   0   0
O             1.9651100000        0.0000000000        7.4847600000    0   0   0
Cu            0.0000000000        0.0000000000        7.6688600000    0   0   0
Ba            1.9651100000        1.8611200000        9.5487700000    0   0   0
O             0.0000000000        0.0000000000        9.8708900000    0   0   0
O             0.0000000000        1.8611200000       11.7685277032
Cu            0.0000000000        0.0000000000       11.7480429469
O             0.0000000000        0.0000000000       13.6636578338
Ba            1.9651100000        1.8611200000       13.9556914663
Cu            0.0000000000        0.0000000000       18.0936494768
O             1.9651100000        0.0000000000       18.2881708525
O             0.0000000000        1.8611200000       18.4322687965
Ca            1.9651100000        1.8611200000       19.8721778086
O             0.0000000000        1.8611200000       21.3983600000    0   0   0
O             1.9651100000        0.0000000000       21.5354800000    0   0   0
Cu            0.0000000000        0.0000000000       21.6902800000    0   0   0
Ba            1.9651100000        1.8611200000       23.5311700000    0   0   0
O             0.0000000000        0.0000000000       23.7902800000    0   0   0
Cu            0.0000000000        0.0000000000       25.6635800000    0   0   0
O             0.0000000000        1.8611200000       25.9521300000    0   0   0


     NEW-OLD atomic charge density approx. for the potential

     negative rho (up, down):  1.690E-03 0.000E+00

     total cpu time spent up to now is      618.4 secs

     Self-consistent Calculation

     iteration #  1     ecut=    60.00 Ry     beta= 0.50
     Davidson diagonalization with overlap
     ethr =  1.00E-06,  avg # of iterations =  5.1

     negative rho (up, down):  1.552E-03 0.000E+00

     total cpu time spent up to now is      647.4 secs

     total energy              =   -1842.81852582 Ry
     Harris-Foulkes estimate   =   -1842.81804580 Ry
     estimated scf accuracy    <       0.00270365 Ry

     iteration #  2     ecut=    60.00 Ry     beta= 0.50
     Davidson diagonalization with overlap
     ethr =  1.19E-06,  avg # of iterations =  1.0

     negative rho (up, down):  1.518E-03 0.000E+00

     total cpu time spent up to now is      661.4 secs

     total energy              =   -1842.81875738 Ry
     Harris-Foulkes estimate   =   -1842.81860939 Ry
     estimated scf accuracy    <       0.00066809 Ry

     iteration #  3     ecut=    60.00 Ry     beta= 0.50
     Davidson diagonalization with overlap
     ethr =  2.94E-07,  avg # of iterations =  1.0

     negative rho (up, down):  1.505E-03 0.000E+00

     total cpu time spent up to now is      675.2 secs

     total energy              =   -1842.81883076 Ry
     Harris-Foulkes estimate   =   -1842.81880705 Ry
     estimated scf accuracy    <       0.00139722 Ry

     iteration #  4     ecut=    60.00 Ry     beta= 0.50
     Davidson diagonalization with overlap
     ethr =  2.94E-07,  avg # of iterations =  1.0

     negative rho (up, down):  1.506E-03 0.000E+00

     total cpu time spent up to now is      689.0 secs

     total energy              =   -1842.81882074 Ry
     Harris-Foulkes estimate   =   -1842.81884023 Ry
     estimated scf accuracy    <       0.00084344 Ry

     iteration #  5     ecut=    60.00 Ry     beta= 0.50
     Davidson diagonalization with overlap
     ethr =  2.94E-07,  avg # of iterations =  1.1

     negative rho (up, down):  1.484E-03 0.000E+00

     total cpu time spent up to now is      702.8 secs

     total energy              =   -1842.81882086 Ry
     Harris-Foulkes estimate   =   -1842.81882904 Ry
     estimated scf accuracy    <       0.00045999 Ry

     iteration #  6     ecut=    60.00 Ry     beta= 0.50
     Davidson diagonalization with overlap
     ethr =  2.03E-07,  avg # of iterations =  1.0

     negative rho (up, down):  1.465E-03 0.000E+00

     total cpu time spent up to now is      716.5 secs

     total energy              =   -1842.81881433 Ry
     Harris-Foulkes estimate   =   -1842.81882416 Ry
     estimated scf accuracy    <       0.00019653 Ry

     iteration #  7     ecut=    60.00 Ry     beta= 0.50
     Davidson diagonalization with overlap
     ethr =  8.66E-08,  avg # of iterations =  1.3

     negative rho (up, down):  1.452E-03 0.000E+00

     total cpu time spent up to now is      730.5 secs

     total energy              =   -1842.81881163 Ry
     Harris-Foulkes estimate   =   -1842.81881812 Ry
     estimated scf accuracy    <       0.00010195 Ry

     iteration #  8     ecut=    60.00 Ry     beta= 0.50
     Davidson diagonalization with overlap
     ethr =  4.49E-08,  avg # of iterations =  1.6

     negative rho (up, down):  1.448E-03 0.000E+00

     total cpu time spent up to now is      744.7 secs

     total energy              =   -1842.81881235 Ry
     Harris-Foulkes estimate   =   -1842.81881365 Ry
     estimated scf accuracy    <       0.00002682 Ry

     iteration #  9     ecut=    60.00 Ry     beta= 0.50
     Davidson diagonalization with overlap
     ethr =  1.18E-08,  avg # of iterations =  2.4

     negative rho (up, down):  1.448E-03 0.000E+00

     total cpu time spent up to now is      760.0 secs

     total energy              =   -1842.81881320 Ry
     Harris-Foulkes estimate   =   -1842.81881335 Ry
     estimated scf accuracy    <       0.00003480 Ry

     iteration # 10     ecut=    60.00 Ry     beta= 0.50
     Davidson diagonalization with overlap
     ethr =  1.18E-08,  avg # of iterations =  1.3

     negative rho (up, down):  1.451E-03 0.000E+00

     total cpu time spent up to now is      774.1 secs

     total energy              =   -1842.81881301 Ry
     Harris-Foulkes estimate   =   -1842.81881344 Ry
     estimated scf accuracy    <       0.00001556 Ry

     iteration # 11     ecut=    60.00 Ry     beta= 0.50
     Davidson diagonalization with overlap
     ethr =  6.85E-09,  avg # of iterations =  1.0

     negative rho (up, down):  1.457E-03 0.000E+00

     total cpu time spent up to now is      788.6 secs

     total energy              =   -1842.81881302 Ry
     Harris-Foulkes estimate   =   -1842.81881330 Ry
     estimated scf accuracy    <       0.00000732 Ry

     iteration # 12     ecut=    60.00 Ry     beta= 0.50
     Davidson diagonalization with overlap
     ethr =  3.23E-09,  avg # of iterations =  1.0

     negative rho (up, down):  1.465E-03 0.000E+00

     total cpu time spent up to now is      802.4 secs

     total energy              =   -1842.81881302 Ry
     Harris-Foulkes estimate   =   -1842.81881311 Ry
     estimated scf accuracy    <       0.00000289 Ry

     iteration # 13     ecut=    60.00 Ry     beta= 0.50
     Davidson diagonalization with overlap
     ethr =  1.27E-09,  avg # of iterations =  1.0

     negative rho (up, down):  1.470E-03 0.000E+00

     total cpu time spent up to now is      816.1 secs

     total energy              =   -1842.81881300 Ry
     Harris-Foulkes estimate   =   -1842.81881306 Ry
     estimated scf accuracy    <       0.00000107 Ry

     iteration # 14     ecut=    60.00 Ry     beta= 0.50
     Davidson diagonalization with overlap
     ethr =  4.72E-10,  avg # of iterations =  1.2

     negative rho (up, down):  1.474E-03 0.000E+00

     total cpu time spent up to now is      830.0 secs

     total energy              =   -1842.81881301 Ry
     Harris-Foulkes estimate   =   -1842.81881303 Ry
     estimated scf accuracy    <       0.00000072 Ry

     iteration # 15     ecut=    60.00 Ry     beta= 0.50
     Davidson diagonalization with overlap
     ethr =  3.16E-10,  avg # of iterations =  1.0

     negative rho (up, down):  1.480E-03 0.000E+00

     total cpu time spent up to now is      843.8 secs

     total energy              =   -1842.81881300 Ry
     Harris-Foulkes estimate   =   -1842.81881302 Ry
     estimated scf accuracy    <       0.00000026 Ry

     iteration # 16     ecut=    60.00 Ry     beta= 0.50
     Davidson diagonalization with overlap
     ethr =  1.16E-10,  avg # of iterations =  1.0

     negative rho (up, down):  1.485E-03 0.000E+00

     total cpu time spent up to now is      857.5 secs

     total energy              =   -1842.81881300 Ry
     Harris-Foulkes estimate   =   -1842.81881301 Ry
     estimated scf accuracy    <       0.00000016 Ry

     iteration # 17     ecut=    60.00 Ry     beta= 0.50
     Davidson diagonalization with overlap
     ethr =  7.25E-11,  avg # of iterations =  1.0

     negative rho (up, down):  1.487E-03 0.000E+00

     total cpu time spent up to now is      871.4 secs

     total energy              =   -1842.81881299 Ry
     Harris-Foulkes estimate   =   -1842.81881300 Ry
     estimated scf accuracy    <       0.00000006 Ry

     iteration # 18     ecut=    60.00 Ry     beta= 0.50
     Davidson diagonalization with overlap
     ethr =  2.48E-11,  avg # of iterations =  1.6

     negative rho (up, down):  1.496E-03 0.000E+00

     total cpu time spent up to now is      886.0 secs

     total energy              =   -1842.81881298 Ry
     Harris-Foulkes estimate   =   -1842.81881299 Ry
     estimated scf accuracy    <       0.00000006 Ry

     iteration # 19     ecut=    60.00 Ry     beta= 0.50
     Davidson diagonalization with overlap
     ethr =  2.45E-11,  avg # of iterations =  1.0

     negative rho (up, down):  1.498E-03 0.000E+00

     total cpu time spent up to now is      899.7 secs

     total energy              =   -1842.81881297 Ry
     Harris-Foulkes estimate   =   -1842.81881298 Ry
     estimated scf accuracy    <       0.00000002 Ry

     iteration # 20     ecut=    60.00 Ry     beta= 0.50
     Davidson diagonalization with overlap
     ethr =  6.80E-12,  avg # of iterations =  1.2

     negative rho (up, down):  1.508E-03 0.000E+00

     total cpu time spent up to now is      913.8 secs

     total energy              =   -1842.81881296 Ry
     Harris-Foulkes estimate   =   -1842.81881297 Ry
     estimated scf accuracy    <       0.00000002 Ry

     iteration # 21     ecut=    60.00 Ry     beta= 0.50
     Davidson diagonalization with overlap
     ethr =  6.80E-12,  avg # of iterations =  1.0

     negative rho (up, down):  1.523E-03 0.000E+00

     total cpu time spent up to now is      927.1 secs

     End of self-consistent calculation

          k = 0.0000 0.0000 0.0000 ( 35607 PWs)   bands (ev):

   -35.7679 -35.5626 -24.2354 -22.9591 -22.9518 -22.7865 -17.2718 -17.0458
   -16.8190 -16.8077 -16.6295 -16.6097 -15.4798 -15.3367 -15.1712 -14.8409
   -14.8303 -14.7527 -14.4977 -14.3490 -14.3415 -14.1551 -14.1120 -14.0102
   -14.0016 -13.8734 -13.6413  -9.5026  -9.0734  -8.9952  -8.0912  -8.0800
    -8.0528  -8.0467  -7.9723  -7.8599  -7.8529  -7.8310  -7.6640  -2.4978
    -2.4970  -2.3424  -1.9988  -1.9831  -1.9515  -1.8437  -1.7884  -1.7229
    -1.7122  -1.6634  -1.5790  -1.4093  -1.3912  -1.3896  -1.3878  -1.1050
    -0.9130  -0.9074  -0.6268  -0.6259  -0.5479  -0.5434  -0.5178  -0.4645
    -0.4544  -0.4436  -0.4324  -0.4319  -0.4254  -0.4072  -0.3275  -0.3152
    -0.2837  -0.2698  -0.2054  -0.2044  -0.0704  -0.0694  -0.0685  -0.0610
    -0.0474   0.0024   0.0205   0.0359   0.1164   0.1494   0.2183   0.2569
     0.4893   0.4964   0.5703   0.7143   0.7150   0.7732   0.8062   1.0089
     1.0522   1.0673   1.1733   1.2212   1.2222   1.2441   1.2916   1.3171
     1.4035   1.4657   1.5159   1.6278   1.6472   1.8258   1.8355   1.8566
     1.8687   1.8722   2.0094   2.0200   2.0338   2.3600   2.3661   4.5236
     5.0422   5.0518   5.2664   5.8513   6.2015   6.5345   6.5941   6.6507
     7.1311   7.6502   7.8058   7.9540   8.1108   8.2648   8.3822   8.4751
     8.7089

          k = 0.0000 0.1320 0.0000 ( 35551 PWs)   bands (ev):

   -35.7661 -35.5608 -24.2144 -22.9324 -22.9251 -22.7611 -17.2357 -17.0091
   -16.8801 -16.8167 -16.6826 -16.6272 -15.3908 -15.2571 -15.1166 -14.8467
   -14.8290 -14.7252 -14.4695 -14.3587 -14.3459 -14.1592 -14.1281 -14.0746
   -14.0312 -13.9438 -13.6640  -9.4897  -9.0365  -9.0346  -8.0905  -8.0800
    -8.0050  -7.9988  -7.9704  -7.9016  -7.8947  -7.7858  -7.7127  -2.5561
    -2.5529  -2.4041  -2.3218  -2.3128  -2.2188  -2.0340  -1.9871  -1.8227
    -1.8130  -1.8121  -1.7718  -1.7056  -1.5389  -1.4133  -1.3942  -1.3729
    -0.9624  -0.8273  -0.8162  -0.7860  -0.7776  -0.7237  -0.7233  -0.6286
    -0.6284  -0.5209  -0.4468  -0.3578  -0.3555  -0.3223  -0.3170  -0.3153
    -0.3136  -0.2041  -0.1843  -0.1830  -0.1651  -0.1025  -0.0458  -0.0456
    -0.0454  -0.0078   0.0938   0.1071   0.1669   0.1911   0.3005   0.3213
     0.3468   0.6326   0.7137   0.8487   0.9097   0.9114   0.9134   0.9645
     0.9969   0.9985   1.0190   1.1489   1.2421   1.2804   1.3128   1.3547
     1.4289   1.4559   1.5865   1.6099   1.6244   1.6267   1.7642   1.8263
     1.8339   1.8565   2.0914   2.1647   2.5285   2.6478   2.6592   4.8027
     5.4216   5.4263   5.5581   6.1720   6.4402   6.7696   6.8982   6.9304
     7.3397   7.8256   7.9782   8.1335   8.3004   8.3733   8.5251   8.5654
     8.7219

          k = 0.0000 0.2640 0.0000 ( 35461 PWs)   bands (ev):

   -35.7617 -35.5563 -24.1628 -22.8665 -22.8592 -22.6983 -17.1438 -17.0343
   -16.9158 -16.8376 -16.8110 -16.6215 -15.1889 -15.0987 -14.9724 -14.8974
   -14.8460 -14.6652 -14.4104 -14.3471 -14.3122 -14.2294 -14.1965 -14.1688
   -14.1448 -14.0585 -13.7197  -9.4532  -9.1221  -8.9448  -8.0898  -8.0800
    -7.9927  -7.9853  -7.9655  -7.8845  -7.8783  -7.8179  -7.6724  -3.0195
    -2.9828  -2.9817  -2.8028  -2.6001  -2.5959  -2.5649  -2.4499  -2.4484
    -2.3354  -1.9092  -1.7676  -1.7251  -1.6506  -1.6401  -1.6238  -1.3481
    -1.2262  -1.1592  -1.0883  -1.0860  -0.9748  -0.9725  -0.8222  -0.8064
    -0.7573  -0.7192  -0.6996  -0.6669  -0.6649  -0.6266  -0.5403  -0.5099
    -0.3903  -0.3264  -0.1559  -0.1553  -0.1500  -0.0766  -0.0551   0.0383
     0.0729   0.1964   0.2727   0.3720   0.4329   0.4379   0.5208   0.5305
     0.5842   0.7026   0.7916   0.7982   0.8965   0.9634   0.9807   0.9970
     0.9977   1.0433   1.1048   1.1240   1.1452   1.2342   1.3676   1.3833
     1.5307   1.5355   1.5615   1.7109   1.7328   1.8047   1.8059   1.8268
     1.8834   1.9340   2.2263   2.2626   2.8694   2.8738   3.3641   5.3849
     6.3003   6.3192   6.3196   6.6974   7.1269   7.3324   7.7195   7.7289
     7.8692   8.0590   8.4743   8.5419   8.6238   8.7146   8.8007   8.8447
     8.8980

          k = 0.0000 0.3960 0.0000 ( 35408 PWs)   bands (ev):

   -35.7573 -35.5519 -24.1099 -22.7984 -22.7910 -22.6335 -17.1707 -17.0420
   -16.9739 -16.8133 -16.8054 -16.6158 -15.1028 -15.0906 -14.8641 -14.7933
   -14.7526 -14.6358 -14.3845 -14.3715 -14.3455 -14.2853 -14.2680 -14.2660
   -14.1445 -14.1100 -13.7993  -9.4003  -9.2106  -8.8492  -8.0897  -8.0800
    -8.0708  -8.0633  -7.9606  -7.9094  -7.7561  -7.7497  -7.5521  -3.7349
    -3.4581  -3.4445  -3.2439  -3.1659  -3.1632  -3.0044  -2.5402  -2.5390
    -2.3635  -2.2575  -1.9765  -1.9693  -1.7031  -1.6629  -1.5772  -1.4581
    -1.3791  -1.2816  -1.2809  -1.2542  -1.2413  -1.2301  -1.0412  -1.0140
    -0.9914  -0.9208  -0.9133  -0.8870  -0.8331  -0.7364  -0.7124  -0.5240
    -0.4202  -0.3955  -0.3473  -0.1387  -0.1378  -0.0421  -0.0415  -0.0144
     0.0595   0.3081   0.3149   0.3630   0.4175   0.4212   0.5997   0.7547
     0.7573   0.7640   0.7919   0.8347   0.9063   0.9260   0.9679   0.9682
     1.0567   1.0701   1.2015   1.2318   1.4475   1.4592   1.5456   1.5679
     1.6107   1.7037   1.7246   1.7611   1.7902   1.8105   2.0123   2.0127
     2.1799   2.1972   2.1994   2.2003   2.7637   2.7671   3.9132   5.9091
     6.4790   7.2657   7.2685   7.4243   7.9529   8.0702   8.2535   8.4461
     8.5126   8.5352   8.9054   8.9096   8.9717   9.0809   9.0939   9.1057
     9.2205

          k = 0.0000-0.5279 0.0000 ( 35442 PWs)   bands (ev):

   -35.7555 -35.5501 -24.0876 -22.7694 -22.7620 -22.6061 -17.2228 -17.0262
   -16.9971 -16.8030 -16.7679 -16.6135 -15.1448 -15.1353 -14.7469 -14.7199
   -14.6518 -14.6055 -14.4985 -14.4243 -14.3967 -14.3101 -14.2467 -14.2409
   -14.1463 -14.0768 -13.8612  -9.3615  -9.2603  -8.8083  -8.1004  -8.0931
    -8.0894  -8.0795  -7.9521  -7.9503  -7.7002  -7.6938  -7.5000  -4.0035
[...]

   -35.7537 -35.5482 -24.0735 -22.7538 -22.7464 -22.5899 -17.1535 -17.0213
   -16.9570 -16.9468 -16.8361 -16.7160 -14.9860 -14.9801 -14.7844 -14.6162
   -14.5824 -14.5742 -14.3932 -14.3347 -14.2940 -14.2509 -14.2485 -14.2293
   -14.1837 -14.0991 -13.7412  -9.6629  -9.3987  -9.1238  -8.5264  -8.5193
    -8.3402  -8.1534  -8.1447  -8.0469  -8.0394  -7.9972  -7.8667  -3.7036
    -3.6521  -3.6255  -3.3909  -3.1384  -3.1339  -3.1000  -2.6194  -2.6170
    -2.4569  -2.3019  -2.2949  -2.2196  -2.0728  -2.0291  -1.9507  -1.9292
    -1.7783  -1.6432  -1.6259  -1.5369  -1.5300  -1.3345  -1.3145  -1.0990
    -1.0191  -0.9934  -0.9721  -0.9595  -0.9557  -0.8075  -0.7331  -0.6998
    -0.6283  -0.5890  -0.3825  -0.1775  -0.0536  -0.0014   0.1813   0.2054
     0.3342   0.4791   0.6324   0.8080   0.8106   0.8183   0.9236   1.0171
     1.0870   1.1245   1.1472   1.1535   1.1655   1.2516   1.3203   1.3248
     1.3727   1.4201   1.5097   1.5395   1.5787   1.5912   1.6309   1.6529
     1.6738   1.7330   1.7863   1.8135   2.0721   2.0875   2.0889   2.0916
     2.6499   2.6503   3.3272   3.3636   3.4782   3.6121   3.8909   5.5840
     6.3236   6.6970   6.7012   7.2163   7.5426   7.5764   7.8639   8.4973
     8.6250   8.6417   8.8524   9.0994   9.2579   9.3146   9.4987   9.5883
     9.6291

          k = 0.2500-0.5279 0.0000 ( 35512 PWs)   bands (ev):

   -35.7519 -35.5464 -24.0532 -22.7282 -22.7208 -22.5654 -17.2036 -17.0158
   -17.0073 -16.9073 -16.8308 -16.6760 -14.9828 -14.9765 -14.6016 -14.5712
   -14.5334 -14.5091 -14.4131 -14.3947 -14.3742 -14.2788 -14.2365 -14.2354
   -14.1065 -14.0975 -13.7647  -9.6883  -9.3734  -9.2461  -8.5266  -8.5192
    -8.3602  -8.2414  -8.2347  -8.1133  -8.1039  -8.0145  -7.9749  -3.9702
    -3.8562  -3.8260  -3.5832  -3.3650  -3.3615  -3.2922  -2.6266  -2.6249
    -2.4533  -2.2663  -2.2558  -2.1982  -2.1657  -2.0902  -2.0862  -1.9781
    -1.8751  -1.7217  -1.6951  -1.5996  -1.5868  -1.4179  -1.4055  -1.1320
    -1.0903  -1.0738  -1.0441  -0.9854  -0.9704  -0.8853  -0.7469  -0.6841
    -0.6656  -0.6094  -0.3819  -0.1749  -0.0233   0.0459   0.1927   0.2524
     0.4502   0.5146   0.7117   0.8253   0.8855   0.9116   0.9158   0.9392
     1.0294   1.0606   1.1716   1.2595   1.3097   1.3259   1.3341   1.3751
     1.4441   1.4473   1.4676   1.6188   1.7346   1.7935   1.8010   1.8369
     1.8562   1.8786   1.8983   1.9868   2.1157   2.2081   2.2644   2.2646
     2.4280   2.4287   3.3466   3.3899   3.5147   3.6412   4.0585   5.3873
     6.6587   6.6625   6.7871   7.0639   7.4811   7.5701   7.6140   8.4347
     8.9523   9.0867   9.3492   9.3613   9.3826   9.6598   9.7939   9.8180
     9.8422

          k = 0.3750 0.0000 0.0000 ( 35488 PWs)   bands (ev):

   -35.7616 -35.5562 -24.1546 -22.8513 -22.8439 -22.6837 -17.2030 -17.0581
   -17.0213 -16.8252 -16.7997 -16.6016 -15.3208 -15.2119 -15.2042 -14.8301
   -14.7924 -14.7876 -14.4788 -14.3952 -14.3759 -14.3620 -14.2733 -14.1961
   -14.1033 -14.0373 -13.7027  -9.5445  -8.8519  -8.8371  -8.1006  -8.0905
    -8.0197  -7.8395  -7.8334  -7.6624  -7.6551  -7.6410  -7.4792  -3.0626
    -3.0485  -2.9031  -2.5634  -2.4992  -2.4989  -2.3185  -1.8386  -1.7938
    -1.7599  -1.6933  -1.6826  -1.5257  -1.5194  -1.4154  -1.3858  -1.3840
    -1.2986  -1.2084  -1.1881  -1.1723  -1.1255  -1.0656  -1.0519  -1.0050
    -0.8997  -0.8983  -0.7960  -0.7613  -0.6259  -0.5530  -0.5038  -0.4867
    -0.4139  -0.4116  -0.3891  -0.2992  -0.1360  -0.1032  -0.1013   0.0058
     0.0119   0.2344   0.2357   0.2545   0.2624   0.2656   0.3114   0.3727
     0.4266   0.5761   0.6901   0.7986   0.8091   0.8366   0.9869   1.0153
     1.0165   1.0436   1.1382   1.1474   1.1793   1.2031   1.3309   1.3931
     1.4559   1.5841   1.5946   1.6086   1.6201   1.7244   1.8585   1.9577
     2.0095   2.0671   2.1460   2.3852   2.4415   2.6272   2.6304   5.7396
     6.3352   6.3366   6.3493   7.0158   7.5747   7.5921   7.8311   7.8354
     7.9107   8.2918   8.3917   8.4924   8.9269   9.0488   9.1537   9.2529
     9.3341

          k = 0.3750 0.1320 0.0000 ( 35549 PWs)   bands (ev):

   -35.7598 -35.5544 -24.1366 -22.8296 -22.8222 -22.6628 -17.1944 -17.0290
   -17.0126 -16.8641 -16.7957 -16.6666 -15.2489 -15.1642 -15.1572 -14.7908
   -14.7434 -14.7307 -14.4287 -14.3586 -14.3527 -14.3359 -14.2566 -14.1892
   -14.1403 -14.0442 -13.7130  -9.5237  -9.1326  -8.8460  -8.1578  -8.1494
    -8.0461  -8.0028  -7.9952  -7.8187  -7.7521  -7.7450  -7.5738  -3.1253
    -3.1043  -2.9479  -2.5862  -2.4981  -2.4974  -2.3294  -2.2152  -2.1788
    -2.0490  -2.0082  -1.8895  -1.7866  -1.7851  -1.6598  -1.5890  -1.5846
    -1.4819  -1.4677  -1.3965  -1.2814  -1.1101  -1.0743  -0.9938  -0.9695
    -0.9135  -0.8689  -0.8533  -0.8052  -0.6763  -0.5888  -0.5642  -0.4378
    -0.4297  -0.2343  -0.2141  -0.1580  -0.1371  -0.0580  -0.0316   0.0164
     0.0217   0.1081   0.2674   0.2717   0.3178   0.4832   0.5274   0.5474
     0.6272   0.6742   0.7841   0.8490   0.8852   0.9950   1.0054   1.0491
     1.0599   1.1121   1.1613   1.1911   1.2056   1.2213   1.3629   1.4285
     1.4978   1.5388   1.5807   1.6029   1.6329   1.8438   1.8766   2.0112
     2.5508   2.5841   2.6195   2.7726   2.8120   2.9474   3.0501   5.8354
     6.3333   6.4853   6.4864   6.8430   7.6338   7.6530   7.8777   7.8965
     7.8999   8.3006   8.4806   8.5985   8.8302   8.8974   9.1049   9.2851
     9.3317

          k = 0.3750 0.2640 0.0000 ( 35547 PWs)   bands (ev):

   -35.7554 -35.5500 -24.0925 -22.7763 -22.7689 -22.6112 -17.1741 -17.0085
   -16.9920 -16.9537 -16.8109 -16.7209 -15.0533 -15.0405 -15.0372 -14.6954
   -14.6406 -14.5820 -14.3409 -14.3202 -14.2905 -14.2864 -14.2223 -14.1800
   -14.1777 -14.0805 -13.7182  -9.5720  -9.4480  -9.0912  -8.4591  -8.4522
    -8.2658  -8.1377  -8.1293  -8.0154  -8.0076  -7.9921  -7.8495  -3.4441
    -3.3944  -3.1854  -2.9298  -2.8105  -2.6707  -2.6577  -2.5504  -2.5493
    -2.5375  -2.4201  -2.4189  -2.3443  -2.3076  -1.9577  -1.8959  -1.8528
    -1.7571  -1.5215  -1.4461  -1.3845  -1.3237  -1.1383  -1.0947  -1.0557
    -1.0365  -1.0095  -0.8820  -0.8195  -0.8176  -0.7289  -0.7128  -0.6759
    -0.5439  -0.5420  -0.4208  -0.1013  -0.0877  -0.0027   0.2160   0.2523
     0.3303   0.4614   0.5186   0.6492   0.6588   0.8377   0.8383   0.8872
     0.9724   1.0266   1.0581   1.0818   1.1814   1.2176   1.2731   1.2789
     1.3070   1.3086   1.4134   1.4465   1.4615   1.5229   1.5447   1.5844
     1.5858   1.6188   1.6458   1.6474   1.7814   1.8638   1.9199   2.0852
     2.8181   2.8191   3.3746   3.5534   3.5682   3.6689   3.8045   5.6482
     6.2149   6.5302   6.5332   6.9473   7.4586   7.5405   8.1033   8.2348
     8.2452   8.4894   8.6806   8.7804   9.0217   9.2392   9.2565   9.3764
     9.3996

          k = 0.3750 0.3960 0.0000 ( 35519 PWs)   bands (ev):

   -35.7511 -35.5457 -24.0475 -22.7217 -22.7142 -22.5585 -17.1568 -17.1351
   -16.9728 -16.9405 -16.8741 -16.6401 -14.9080 -14.9046 -14.7850 -14.6032
   -14.5476 -14.4286 -14.4054 -14.3358 -14.2503 -14.2443 -14.2154 -14.1468
   -14.1172 -14.1009 -13.7020  -9.8807  -9.4174  -9.3741  -8.7249  -8.7177
    -8.5390  -8.3899  -8.3836  -8.1592  -8.1400  -8.1305  -8.0200  -3.9241
    -3.8660  -3.6822  -3.5930  -3.2719  -3.1143  -3.1132  -2.8002  -2.7965
    -2.6575  -2.4480  -2.4475  -2.4067  -2.3156  -2.2721  -2.1940  -2.0482
    -1.9318  -1.8047  -1.5680  -1.3884  -1.3769  -1.3758  -1.3637  -1.1320
    -1.1095  -1.0443  -1.0253  -1.0001  -0.9476  -0.8833  -0.7701  -0.6749
    -0.6304  -0.5632  -0.5609  -0.0211   0.0339   0.0803   0.2825   0.4442
     0.6391   0.6730   0.8477   0.9870   0.9896   1.0573   1.1193   1.1755
     1.2243   1.2265   1.3136   1.3143   1.3762   1.4290   1.4905   1.5148
     1.5744   1.5831   1.5964   1.6152   1.6421   1.7628   1.7791   1.8057
     1.8254   1.8307   1.9073   1.9171   2.0104   2.0115   2.0896   2.3191
     2.6379   2.6406   3.8608   4.0735   4.0856   4.1509   4.2756   5.0623
     6.2271   6.2293   6.5271   7.0421   7.1971   7.2222   7.9463   8.3635
     8.8097   8.8353   9.1244   9.3096   9.3383   9.3773   9.3951   9.4803
     9.4933

          k = 0.3750-0.5279 0.0000 ( 35528 PWs)   bands (ev):

   -35.7493 -35.5439 -24.0286 -22.6986 -22.6912 -22.5362 -17.1903 -17.1442
   -16.9941 -16.9619 -16.8387 -16.6044 -14.8465 -14.8444 -14.6007 -14.5698
   -14.5179 -14.4698 -14.3518 -14.3307 -14.3276 -14.2287 -14.2273 -14.1636
   -14.0774 -14.0480 -13.6930  -9.9900  -9.5253  -9.3770  -8.8070  -8.7994
    -8.6350  -8.5350  -8.5290  -8.2869  -8.1664  -8.1560  -8.0340  -4.1312
    -4.0722  -3.9461  -3.7969  -3.4738  -3.3395  -3.3385  -2.8187  -2.8148
    -2.6700  -2.4430  -2.4417  -2.4047  -2.3799  -2.3155  -2.3013  -2.1267
    -1.9803  -1.9095  -1.6389  -1.4917  -1.4815  -1.4112  -1.3997  -1.1318
    -1.1273  -1.1212  -1.1000  -1.0722  -0.9824  -0.8835  -0.8709  -0.6608
    -0.6287  -0.5500  -0.5493   0.0130   0.0498   0.1192   0.3002   0.5266
     0.7425   0.8073   0.9919   1.0978   1.1035   1.1255   1.1705   1.1913
     1.2287   1.2763   1.3850   1.4478   1.4988   1.5002   1.6010   1.6061
     1.6126   1.6503   1.7824   1.8051   1.8074   1.8449   1.8711   1.8933
     1.9113   1.9673   2.0444   2.0971   2.1544   2.1993   2.2010   2.3934
     2.3980   2.4562   3.9911   4.2212   4.2311   4.2983   4.4155   4.8291
     6.0498   6.0517   6.7042   7.0393   7.0536   7.1402   7.8365   8.1972
     8.9543   8.9906   9.1776   9.2146   9.2932   9.4833   9.5562   9.6634
     9.6732

          k =-0.5000 0.0000 0.0000 ( 35494 PWs)   bands (ev):

   -35.7605 -35.5551 -24.1404 -22.8322 -22.8247 -22.6655 -17.2553 -17.0745
   -17.0160 -16.7983 -16.7812 -16.6002 -15.3558 -15.2670 -15.2603 -14.8559
   -14.7588 -14.5931 -14.4992 -14.3833 -14.3813 -14.3782 -14.3412 -14.2587
   -14.1129 -14.0545 -13.7180  -9.5384  -8.8263  -8.8130  -8.0903  -8.0800
    -8.0099  -7.8164  -7.8104  -7.6281  -7.6263  -7.6189  -7.4455  -3.2045
    -3.1909  -3.0460  -2.7159  -2.5244  -2.5241  -2.3175  -1.8297  -1.7917
    -1.7770  -1.7370  -1.5562  -1.5474  -1.4989  -1.4397  -1.3896  -1.3879
    -1.3477  -1.3367  -1.3128  -1.2463  -1.1771  -1.1481  -1.0801  -0.9856
    -0.9821  -0.9817  -0.8885  -0.8794  -0.6924  -0.6093  -0.5090  -0.5007
    -0.4569  -0.4099  -0.3880  -0.3122  -0.1299  -0.1085  -0.1066  -0.0294
    -0.0206   0.2283   0.2330   0.2350   0.2535   0.2595   0.2639   0.3338
     0.3932   0.6371   0.7568   0.8050   0.8335   0.8668   0.9168   0.9653
     0.9662   1.0795   1.1930   1.2071   1.2169   1.3210   1.4161   1.4846
     1.4847   1.4891   1.4973   1.6359   1.6888   1.7683   1.9730   2.0117
     2.0134   2.0799   2.1502   2.3897   2.4130   2.6536   2.6609   6.1646
     6.2523   7.1078   7.1113   7.1605   7.1610   7.1746   7.6012   8.0797
     8.3649   8.4240   8.4990   8.8417   8.9501   8.9775   9.2751   9.3053
     9.3389

          k =-0.5000 0.1320 0.0000 ( 35562 PWs)   bands (ev):

   -35.7587 -35.5533 -24.1229 -22.8114 -22.8039 -22.6454 -17.2461 -17.0651
   -16.9885 -16.8619 -16.7534 -16.6645 -15.2799 -15.2100 -15.2040 -14.8145
   -14.7209 -14.5504 -14.4402 -14.3578 -14.3509 -14.3459 -14.3091 -14.2256
   -14.1514 -14.0537 -13.7289  -9.5171  -9.0434  -8.9350  -8.1290  -8.1196
    -8.0298  -7.9458  -7.9399  -7.8293  -7.8215  -7.7485  -7.6594  -3.2737
    -3.2533  -3.0987  -2.7446  -2.5291  -2.5291  -2.3428  -2.1833  -2.1437
    -2.0185  -1.9771  -1.8479  -1.7813  -1.7797  -1.6903  -1.6188  -1.6073
    -1.5970  -1.5823  -1.5061  -1.3241  -1.1677  -1.1204  -1.0380  -1.0376
    -0.9313  -0.8731  -0.8425  -0.8149  -0.7858  -0.6257  -0.6068  -0.4612
    -0.4585  -0.2463  -0.2222  -0.1345  -0.0841  -0.0767  -0.0222   0.0122
     0.0163   0.0648   0.3279   0.3464   0.3471   0.4096   0.4474   0.5167
     0.6210   0.6587   0.7256   0.8649   0.9239   0.9928   1.0066   1.0561
     1.0907   1.1091   1.1139   1.1952   1.2506   1.3366   1.4506   1.4517
     1.5254   1.5472   1.5574   1.6939   1.7327   1.8288   1.9988   2.0950
     2.5621   2.5860   2.6190   2.7909   2.8332   3.0017   3.0770   6.1061
     6.3182   6.8373   6.9563   6.9599   7.4633   7.4663   7.7790   7.9938
     8.1009   8.2856   8.6298   8.8340   8.8892   9.1008   9.3655   9.4636
     9.4822

          k =-0.5000 0.2640 0.0000 ( 35556 PWs)   bands (ev):

   -35.7544 -35.5489 -24.0801 -22.7604 -22.7530 -22.5959 -17.2241 -17.0430
   -17.0052 -16.9174 -16.8078 -16.6827 -15.0749 -15.0550 -15.0549 -14.7156
   -14.6320 -14.4430 -14.3367 -14.3045 -14.2998 -14.2951 -14.2244 -14.2222
   -14.1409 -14.0724 -13.7284  -9.5370  -9.4474  -9.2256  -8.3980  -8.3903
    -8.2469  -8.2411  -8.2181  -8.0789  -8.0692  -8.0286  -7.9720  -3.5824
    -3.5329  -3.3298  -2.9480  -2.9221  -2.6963  -2.6842  -2.5673  -2.5589
    -2.5488  -2.4292  -2.4268  -2.3754  -2.3137  -2.0808  -2.0120  -1.8662
    -1.8367  -1.6034  -1.3974  -1.2983  -1.2893  -1.1378  -1.1369  -1.0784
    -1.0675  -1.0292  -0.9143  -0.8442  -0.8423  -0.7546  -0.7232  -0.6748
    -0.5633  -0.5580  -0.4361  -0.0885  -0.0753   0.0875   0.2370   0.3141
     0.4056   0.5037   0.5556   0.6804   0.6843   0.8838   0.9191   0.9287
     0.9830   1.0117   1.0205   1.0695   1.1006   1.2832   1.2868   1.3054
     1.3584   1.3856   1.4096   1.5104   1.5433   1.5453   1.5846   1.6155
     1.6477   1.6558   1.6565   1.7225   1.7502   1.8764   1.9838   2.1934
     2.8110   2.8125   3.3789   3.6929   3.7078   3.8031   3.9253   5.4897
     6.4755   6.5262   6.5288   6.8422   7.3872   7.4667   8.1608   8.2606
     8.2740   8.5724   8.7506   9.0037   9.2061   9.4146   9.4213   9.4567
     9.5652

          k =-0.5000 0.3960 0.0000 ( 35540 PWs)   bands (ev):

   -35.7501 -35.5446 -24.0366 -22.7082 -22.7008 -22.5453 -17.2025 -17.1342
   -17.0212 -16.9378 -16.8419 -16.6064 -14.8791 -14.8752 -14.7875 -14.6287
   -14.5580 -14.3958 -14.3305 -14.3252 -14.2466 -14.2454 -14.1779 -14.1599
   -14.1062 -14.0493 -13.6880  -9.9516  -9.5126  -9.4041  -8.7731  -8.7656
    -8.5951  -8.5350  -8.5291  -8.2944  -8.1568  -8.1467  -8.0329  -4.0545
    -3.9919  -3.7560  -3.6328  -3.3792  -3.1060  -3.1047  -2.8698  -2.8671
    -2.7256  -2.5056  -2.4643  -2.4637  -2.3706  -2.3233  -2.2904  -2.0775
    -1.9632  -1.8803  -1.5557  -1.4040  -1.3928  -1.2774  -1.2573  -1.2200
    -1.1987  -1.0576  -1.0512  -0.9742  -0.9724  -0.9113  -0.7467  -0.7201
    -0.6751  -0.5268  -0.5260  -0.0092   0.0910   0.1520   0.3148   0.5408
     0.7636   0.8070   0.9202   1.1113   1.1179   1.1269   1.1270   1.2113
     1.2389   1.2602   1.3866   1.3907   1.3924   1.4866   1.5513   1.5752
     1.5993   1.6043   1.6293   1.6517   1.7418   1.8024   1.8123   1.8893
     1.9058   1.9058   1.9671   1.9794   2.0141   2.0380   2.0619   2.4469
     2.6255   2.6295   3.8557   4.3384   4.3482   4.3969   4.5082   4.8505
     6.0313   6.0341   6.6130   6.9892   7.0284   7.1026   8.0373   8.2217
     8.7549   8.7891   9.2177   9.2828   9.2874   9.4234   9.5243   9.5936
     9.6232

          k =-0.5000-0.5279 0.0000 ( 35564 PWs)   bands (ev):

   -35.7483 -35.5428 -24.0183 -22.6862 -22.6788 -22.5240 -17.1937 -17.1848
   -17.0123 -16.9887 -16.8084 -16.5728 -14.7815 -14.7806 -14.6189 -14.5927
   -14.5423 -14.4424 -14.3489 -14.2812 -14.2782 -14.2251 -14.2222 -14.1182
   -14.0720 -14.0093 -13.6624 -10.1161  -9.6312  -9.3814  -8.9191  -8.9115
    -8.7461  -8.6511  -8.6452  -8.4003  -8.1850  -8.1740  -8.0492  -4.2628
    -4.1989  -3.9772  -3.8782  -3.5798  -3.3304  -3.3290  -2.9023  -2.8996
    -2.7532  -2.5200  -2.4630  -2.4543  -2.4538  -2.3853  -2.3210  -2.1476
    -2.0047  -1.9758  -1.6230  -1.5187  -1.5096  -1.3421  -1.3222  -1.1948
    -1.1676  -1.1512  -1.1501  -1.0748  -1.0109  -0.8666  -0.8640  -0.7098
    -0.6737  -0.4985  -0.4972   0.0266   0.1329   0.1710   0.3346   0.6515
     0.8581   0.9500   1.0875   1.1776   1.1865   1.1894   1.2266   1.2511
     1.2765   1.4086   1.4468   1.5352   1.5500   1.6016   1.6549   1.6848
     1.7290   1.7334   1.7792   1.8395   1.8437   1.9054   1.9316   1.9408
     2.0200   2.0341   2.1069   2.1720   2.1763   2.2083   2.2483   2.3687
     2.3755   2.5900   3.9779   4.5394   4.5510   4.6011   4.6019   4.6985
     5.8044   5.8069   6.6525   6.9321   6.9929   6.9958   8.0307   8.0746
     8.8645   8.8934   8.9014   8.9562   9.2325   9.3390   9.5094   9.5693
     9.6517

     the Fermi energy is     2.3998 ev

!    total energy              =   -1842.81881294 Ry
     Harris-Foulkes estimate   =   -1842.81881296 Ry
     estimated scf accuracy    <          4.7E-09 Ry

     The total energy is the sum of the following terms:

     one-electron contribution =  -26948.79664574 Ry
     hartree contribution      =   13625.66251240 Ry
     xc contribution           =    -621.54951889 Ry
     ewald contribution        =   12101.87208714 Ry
     smearing contrib. (-TS)   =      -0.00724785 Ry

     convergence has been achieved in  21 iterations

     negative rho (up, down):  1.523E-03 0.000E+00

     Forces acting on atoms (cartesian axes, Ry/au):

     atom    1 type  4   force =     0.00000000    0.00000000   -0.00015330
     atom    2 type  3   force =     0.00000000    0.00000000    0.00038604
     atom    3 type  4   force =     0.00000000    0.00000000   -0.00080682
     atom    4 type  1   force =     0.00000000    0.00000000   -0.00030233
     atom    5 type  3   force =     0.00000000    0.00000000    0.00065110
     atom    6 type  4   force =     0.00000000    0.00000000    0.00021911
     atom    7 type  4   force =     0.00000000    0.00000000    0.00051981
     atom    8 type  2   force =     0.00000000    0.00000000   -0.00122196
     atom    9 type  4   force =     0.00000000    0.00000000    0.00085653
     atom   10 type  4   force =     0.00000000    0.00000000    0.00119676
     atom   11 type  3   force =     0.00000000    0.00000000    0.00000180
     atom   12 type  1   force =     0.00000000    0.00000000   -0.00351725
     atom   13 type  4   force =     0.00000000    0.00000000    0.00346372
     atom   14 type  4   force =     0.00000000    0.00000000    0.01906439
     atom   15 type  3   force =     0.00000000    0.00000000   -0.00730554
     atom   16 type  4   force =     0.00000000    0.00000000    0.01935779
     atom   17 type  1   force =     0.00000000    0.00000000   -0.02232311
     atom   18 type  3   force =     0.00000000    0.00000000   -0.00853339
     atom   19 type  4   force =     0.00000000    0.00000000    0.00918284
     atom   20 type  4   force =     0.00000000    0.00000000    0.00177696
     atom   21 type  2   force =     0.00000000    0.00000000   -0.01553862
     atom   22 type  4   force =     0.00000000    0.00000000    0.00049169
     atom   23 type  4   force =     0.00000000    0.00000000    0.00218125
     atom   24 type  3   force =     0.00000000    0.00000000   -0.00015340
     atom   25 type  1   force =     0.00000000    0.00000000   -0.00032704
     atom   26 type  4   force =     0.00000000    0.00000000    0.00112817
     atom   27 type  3   force =     0.00000000    0.00000000   -0.00063436
     atom   28 type  4   force =     0.00000000    0.00000000    0.00033916

     Total force =     0.041129     Total SCF correction =     0.000215


     Computing stress (Cartesian axis) and pressure


     negative rho (up, down):  1.523E-03 0.000E+00
          total   stress  (Ry/bohr**3)                   (kbar)     P=       -8.61
  -0.00009467   0.00000000   0.00000000          -13.93        0.00        0.00
   0.00000000  -0.00004198   0.00000000            0.00       -6.18        0.00
   0.00000000   0.00000000  -0.00003904            0.00        0.00       -5.74


     number of scf cycles    =   3
     number of bfgs steps    =   2

     energy   old            =   -1842.8976277540 Ry
     energy   new            =   -1842.8188129367 Ry

     CASE: energy  _new > energy  _old


 %%%%%%%%%%%%%%%%%%%%%%%%%%%%%%%%%%%%%%%%%%%%%%%%%%%%%%%%%%%%%%%%%%%%%%%%%%%%%%
     Error in routine bfgs (1):
     dE0s is positive which should never happen
 %%%%%%%%%%%%%%%%%%%%%%%%%%%%%%%%%%%%%%%%%%%%%%%%%%%%%%%%%%%%%%%%%%%%%%%%%%%%%%

     stopping ...
