
     Program PWSCF v.6.5 starts on 28Jun2021 at 12:37:50 

     This program is part of the open-source Quantum ESPRESSO suite
     for quantum simulation of materials; please cite
         "P. Giannozzi et al., J. Phys.:Condens. Matter 21 395502 (2009);
         "P. Giannozzi et al., J. Phys.:Condens. Matter 29 465901 (2017);
          URL http://www.quantum-espresso.org", 
     in publications or presentations arising from this work. More details at
     http://www.quantum-espresso.org/quote

     Parallel version (MPI), running on    20 processors

     MPI processes distributed on     5 nodes
     R & G space division:  proc/nbgrp/npool/nimage =      20
     Reading input from CBCO_BaO_cleave_1.75_sep.pwi
Warning: card &CELL ignored
Warning: card     CELL_DYNAMICS = 'BFGS' ignored
Warning: card     PRESS_CONV_THR = 0.5 ignored
Warning: card / ignored

     Current dimensions of program PWSCF are:
     Max number of different atomic species (ntypx) = 10
     Max number of k-points (npk) =  40000
     Max angular momentum in pseudopotentials (lmaxx) =  3

     Subspace diagonalization in iterative solution of the eigenvalue problem:
     one sub-group per band group will be used
     scalapack distributed-memory algorithm (size of sub-group:  4*  4 procs)

     Message from routine setup:
     using ibrav=0 with symmetry is DISCOURAGED, use correct ibrav instead
 
     Parallelization info
     --------------------
     sticks:   dense  smooth     PW     G-vecs:    dense   smooth      PW
     Min         149      50     14                72973    14050    2196
     Max         150      51     15                73010    14073    2239
     Sum        2991    1007    289              1459853   281181   44207
 


     bravais-lattice index     =            0
     lattice parameter (alat)  =       7.4270  a.u.
     unit-cell volume          =    4475.0743 (a.u.)^3
     number of atoms/cell      =           28
     number of atomic types    =            4
     number of electrons       =       227.00
     number of Kohn-Sham states=          137
     kinetic-energy cutoff     =      60.0000  Ry
     charge density cutoff     =     720.0000  Ry
     convergence threshold     =      1.0E-08
     mixing beta               =       0.5000
     number of iterations used =           10  local-TF  mixing
     Exchange-correlation= SLA PW PBE PBE
                           (   1   4   3   4   0   0   0)
     nstep                     =          300


     celldm(1)=   7.427040  celldm(2)=   0.000000  celldm(3)=   0.000000
     celldm(4)=   0.000000  celldm(5)=   0.000000  celldm(6)=   0.000000

     crystal axes: (cart. coord. in units of alat)
               a(1) = (   1.000000   0.000000   0.000000 )  
               a(2) = (   0.000000   0.947081   0.000000 )  
               a(3) = (   0.000000   0.000000  11.533624 )  

     reciprocal axes: (cart. coord. in units 2 pi/alat)
               b(1) = (  1.000000  0.000000  0.000000 )  
               b(2) = (  0.000000  1.055876  0.000000 )  
               b(3) = (  0.000000  0.000000  0.086703 )  


     PseudoPot. # 1 for Ba read from file:
     ./pseudo/Ba.pbe-nsp-van.UPF
     MD5 check sum: 2b9c31dd849566dd297d80989662b7a0
     Pseudo is Ultrasoft + core correction, Zval = 10.0
     Generated by new atomic code, or converted to UPF format
     Using radial grid of  907 points,  6 beta functions with: 
                l(1) =   0
                l(2) =   0
                l(3) =   1
                l(4) =   1
                l(5) =   2
                l(6) =   2
     Q(r) pseudized with  6 coefficients,  rinner =    1.200   1.200   1.200
                                                       1.200   1.200

     PseudoPot. # 2 for Ca read from file:
     ./pseudo/Ca.pbe-nsp-van.UPF
     MD5 check sum: 6471098428ff4fa451746d08035ff179
     Pseudo is Ultrasoft + core correction, Zval = 10.0
     Generated by new atomic code, or converted to UPF format
     Using radial grid of  845 points,  6 beta functions with: 
                l(1) =   0
                l(2) =   0
                l(3) =   1
                l(4) =   1
                l(5) =   2
                l(6) =   2
     Q(r) pseudized with  6 coefficients,  rinner =    1.200   1.200   1.200
                                                       1.200   1.200

     PseudoPot. # 3 for Cu read from file:
     ./pseudo/Cu.pbe-n-van_ak.UPF
     MD5 check sum: 34e3282627ffb533726feb647e090d62
     Pseudo is Ultrasoft + core correction, Zval = 11.0
     Generated by new atomic code, or converted to UPF format
     Using radial grid of  867 points,  6 beta functions with: 
                l(1) =   0
                l(2) =   0
                l(3) =   1
                l(4) =   1
                l(5) =   2
                l(6) =   2
     Q(r) pseudized with  8 coefficients,  rinner =    1.400   1.400   1.400
                                                       1.400   1.400

     PseudoPot. # 4 for O  read from file:
     ./pseudo/O.pbe-van_ak.UPF
     MD5 check sum: 783ce7fe4c79b6a4916957118fed0856
     Pseudo is Ultrasoft, Zval =  6.0
     Generated by new atomic code, or converted to UPF format
     Using radial grid of  737 points,  4 beta functions with: 
                l(1) =   0
                l(2) =   0
                l(3) =   1
                l(4) =   1
     Q(r) pseudized with  8 coefficients,  rinner =    0.800   0.800   0.800


     atomic species   valence    mass     pseudopotential
        Ba            10.00   137.32700     Ba( 1.00)
        Ca            10.00    40.07800     Ca( 1.00)
        Cu            11.00    63.54600     Cu( 1.00)
        O              6.00    15.99900     O ( 1.00)

      4 Sym. Ops. (no inversion) found



   Cartesian axes

     site n.     atom                  positions (alat units)
         1           O   tau(   1) = (   0.0000000   0.4735409  -0.0469745  )
         2           Cu  tau(   2) = (   0.0000000   0.0000000   0.0264565  )
         3           O   tau(   3) = (   0.0000000   0.0000000   0.5030914  )
         4           Ba  tau(   4) = (   0.5000000   0.4735409   0.5690292  )
         5           Cu  tau(   5) = (   0.0000000   0.0000000   1.0374254  )
         6           O   tau(   6) = (   0.5000000   0.0000000   1.0768099  )
         7           O   tau(   7) = (   0.0000000   0.4735409   1.1116985  )
         8           Ca  tau(   8) = (   0.5000000   0.4735409   1.4976260  )
         9           O   tau(   9) = (   0.0000000   0.4735409   1.8667529  )
        10           O   tau(  10) = (   0.5000000   0.0000000   1.9044124  )
        11           Cu  tau(  11) = (   0.0000000   0.0000000   1.9512546  )
        12           Ba  tau(  12) = (   0.5000000   0.4735409   2.4295764  )
        13           O   tau(  13) = (   0.0000000   0.0000000   2.5115362  )
        14           O   tau(  14) = (   0.0000000   0.4735409   2.9918528  )
        15           Cu  tau(  15) = (   0.0000000   0.0000000   2.9919088  )
        16           O   tau(  16) = (   0.0000000   0.0000000   3.4722686  )
        17           Ba  tau(  17) = (   0.5000000   0.4735409   3.5542208  )
        18           Cu  tau(  18) = (   0.0000000   0.0000000   4.4777924  )
        19           O   tau(  19) = (   0.5000000   0.0000000   4.5246346  )
        20           O   tau(  20) = (   0.0000000   0.4735409   4.5622890  )
        21           Ca  tau(  21) = (   0.5000000   0.4735409   4.9314261  )
        22           O   tau(  22) = (   0.0000000   0.4735409   5.3173510  )
        23           O   tau(  23) = (   0.5000000   0.0000000   5.3522397  )
        24           Cu  tau(  24) = (   0.0000000   0.0000000   5.3916268  )
        25           Ba  tau(  25) = (   0.5000000   0.4735409   5.8600204  )
        26           O   tau(  26) = (   0.0000000   0.0000000   5.9259480  )
        27           Cu  tau(  27) = (   0.0000000   0.0000000   6.4025879  )
        28           O   tau(  28) = (   0.0000000   0.4735409   6.4760062  )

     number of k points=    25  Gaussian smearing, width (Ry)=  0.0100
                       cart. coord. in units 2pi/alat
        k(    1) = (   0.0000000   0.0000000   0.0000000), wk =   0.0312500
        k(    2) = (   0.0000000   0.1319845   0.0000000), wk =   0.0625000
        k(    3) = (   0.0000000   0.2639689   0.0000000), wk =   0.0625000
        k(    4) = (   0.0000000   0.3959534   0.0000000), wk =   0.0625000
        k(    5) = (   0.0000000  -0.5279378   0.0000000), wk =   0.0312500
        k(    6) = (   0.1250000   0.0000000   0.0000000), wk =   0.0625000
        k(    7) = (   0.1250000   0.1319845   0.0000000), wk =   0.1250000
        k(    8) = (   0.1250000   0.2639689   0.0000000), wk =   0.1250000
        k(    9) = (   0.1250000   0.3959534   0.0000000), wk =   0.1250000
        k(   10) = (   0.1250000  -0.5279378   0.0000000), wk =   0.0625000
        k(   11) = (   0.2500000   0.0000000   0.0000000), wk =   0.0625000
        k(   12) = (   0.2500000   0.1319845   0.0000000), wk =   0.1250000
        k(   13) = (   0.2500000   0.2639689   0.0000000), wk =   0.1250000
        k(   14) = (   0.2500000   0.3959534   0.0000000), wk =   0.1250000
        k(   15) = (   0.2500000  -0.5279378   0.0000000), wk =   0.0625000
        k(   16) = (   0.3750000   0.0000000   0.0000000), wk =   0.0625000
        k(   17) = (   0.3750000   0.1319845   0.0000000), wk =   0.1250000
        k(   18) = (   0.3750000   0.2639689   0.0000000), wk =   0.1250000
        k(   19) = (   0.3750000   0.3959534   0.0000000), wk =   0.1250000
        k(   20) = (   0.3750000  -0.5279378   0.0000000), wk =   0.0625000
        k(   21) = (  -0.5000000   0.0000000   0.0000000), wk =   0.0312500
        k(   22) = (  -0.5000000   0.1319845   0.0000000), wk =   0.0625000
        k(   23) = (  -0.5000000   0.2639689   0.0000000), wk =   0.0625000
        k(   24) = (  -0.5000000   0.3959534   0.0000000), wk =   0.0625000
        k(   25) = (  -0.5000000  -0.5279378   0.0000000), wk =   0.0312500

     Dense  grid:  1459853 G-vectors     FFT dimensions: (  64,  64, 750)

     Smooth grid:   281181 G-vectors     FFT dimensions: (  40,  36, 432)

     Estimated max dynamical RAM per process >     465.94 MB

     Estimated total dynamical RAM >       9.10 GB

     Initial potential from superposition of free atoms

     starting charge  226.84630, renormalised to  227.00000

     negative rho (up, down):  3.477E-03 0.000E+00
     Starting wfcs are  195 randomized atomic wfcs

     total cpu time spent up to now is        9.5 secs

     Self-consistent Calculation

     iteration #  1     ecut=    60.00 Ry     beta= 0.50
     Davidson diagonalization with overlap
     ethr =  1.00E-02,  avg # of iterations =  2.0

     negative rho (up, down):  4.902E-04 0.000E+00

     total cpu time spent up to now is       24.8 secs

     total energy              =   -1840.84780436 Ry
     Harris-Foulkes estimate   =   -1845.38318823 Ry
     estimated scf accuracy    <      18.53582700 Ry

     iteration #  2     ecut=    60.00 Ry     beta= 0.50
     Davidson diagonalization with overlap
     ethr =  8.17E-03,  avg # of iterations =  2.0

     negative rho (up, down):  2.587E-04 0.000E+00

     total cpu time spent up to now is       40.2 secs

     total energy              =   -1842.49547085 Ry
     Harris-Foulkes estimate   =   -1843.30251714 Ry
     estimated scf accuracy    <       4.75352989 Ry

     iteration #  3     ecut=    60.00 Ry     beta= 0.50
     Davidson diagonalization with overlap
     ethr =  2.09E-03,  avg # of iterations =  1.7

     negative rho (up, down):  2.427E-04 0.000E+00

     total cpu time spent up to now is       55.0 secs

     total energy              =   -1842.85181354 Ry
     Harris-Foulkes estimate   =   -1842.98985027 Ry
     estimated scf accuracy    <       3.98913102 Ry

     iteration #  4     ecut=    60.00 Ry     beta= 0.50
     Davidson diagonalization with overlap
     ethr =  1.76E-03,  avg # of iterations =  1.0

     negative rho (up, down):  2.361E-04 0.000E+00

     total cpu time spent up to now is       69.3 secs

     total energy              =   -1842.84069409 Ry
     Harris-Foulkes estimate   =   -1842.92357533 Ry
     estimated scf accuracy    <       0.89294590 Ry

     iteration #  5     ecut=    60.00 Ry     beta= 0.50
     Davidson diagonalization with overlap
     ethr =  3.93E-04,  avg # of iterations =  3.1

     negative rho (up, down):  2.335E-04 0.000E+00

     total cpu time spent up to now is       85.6 secs

     total energy              =   -1842.85228172 Ry
     Harris-Foulkes estimate   =   -1842.88469504 Ry
     estimated scf accuracy    <       1.81746479 Ry

     iteration #  6     ecut=    60.00 Ry     beta= 0.50
     Davidson diagonalization with overlap
     ethr =  3.93E-04,  avg # of iterations =  1.0

     negative rho (up, down):  2.308E-04 0.000E+00

     total cpu time spent up to now is       99.8 secs

     total energy              =   -1842.84324128 Ry
     Harris-Foulkes estimate   =   -1842.86598104 Ry
     estimated scf accuracy    <       0.71564952 Ry

     iteration #  7     ecut=    60.00 Ry     beta= 0.50
     Davidson diagonalization with overlap
     ethr =  3.15E-04,  avg # of iterations =  3.1

     negative rho (up, down):  2.307E-04 0.000E+00

     total cpu time spent up to now is      116.5 secs

     total energy              =   -1842.84649417 Ry
     Harris-Foulkes estimate   =   -1842.85329883 Ry
     estimated scf accuracy    <       0.78204398 Ry

     iteration #  8     ecut=    60.00 Ry     beta= 0.50
     Davidson diagonalization with overlap
     ethr =  3.15E-04,  avg # of iterations =  1.2

     negative rho (up, down):  2.290E-04 0.000E+00

     total cpu time spent up to now is      130.9 secs

     total energy              =   -1842.83940204 Ry
     Harris-Foulkes estimate   =   -1842.85059933 Ry
     estimated scf accuracy    <       0.43914510 Ry

     iteration #  9     ecut=    60.00 Ry     beta= 0.50
     Davidson diagonalization with overlap
     ethr =  1.93E-04,  avg # of iterations =  3.4

     negative rho (up, down):  2.297E-04 0.000E+00

     total cpu time spent up to now is      147.6 secs

     total energy              =   -1842.83800007 Ry
     Harris-Foulkes estimate   =   -1842.84383646 Ry
     estimated scf accuracy    <       0.17831299 Ry

     iteration # 10     ecut=    60.00 Ry     beta= 0.50
     Davidson diagonalization with overlap
     ethr =  7.86E-05,  avg # of iterations =  6.9

     negative rho (up, down):  2.312E-04 0.000E+00

     total cpu time spent up to now is      168.3 secs

     total energy              =   -1842.83343031 Ry
     Harris-Foulkes estimate   =   -1842.84004003 Ry
     estimated scf accuracy    <       0.07576001 Ry

     iteration # 11     ecut=    60.00 Ry     beta= 0.50
     Davidson diagonalization with overlap
     c_bands:  1 eigenvalues not converged
     ethr =  3.34E-05,  avg # of iterations =  7.9

     negative rho (up, down):  2.315E-04 0.000E+00

     total cpu time spent up to now is      190.3 secs

     total energy              =   -1842.83348548 Ry
     Harris-Foulkes estimate   =   -1842.83542954 Ry
     estimated scf accuracy    <       0.02191798 Ry

     iteration # 12     ecut=    60.00 Ry     beta= 0.50
     Davidson diagonalization with overlap
     ethr =  9.66E-06,  avg # of iterations =  8.2

     negative rho (up, down):  2.307E-04 0.000E+00

     total cpu time spent up to now is      212.7 secs

     total energy              =   -1842.83328029 Ry
     Harris-Foulkes estimate   =   -1842.83400786 Ry
     estimated scf accuracy    <       0.02818481 Ry

     iteration # 13     ecut=    60.00 Ry     beta= 0.50
     Davidson diagonalization with overlap
     ethr =  9.66E-06,  avg # of iterations =  1.3

     negative rho (up, down):  2.900E-04 0.000E+00

     total cpu time spent up to now is      226.9 secs

     total energy              =   -1842.83242319 Ry
     Harris-Foulkes estimate   =   -1842.83341538 Ry
     estimated scf accuracy    <       0.02991294 Ry

     iteration # 14     ecut=    60.00 Ry     beta= 0.50
     Davidson diagonalization with overlap
     ethr =  9.66E-06,  avg # of iterations =  2.9

     negative rho (up, down):  1.122E-03 0.000E+00

     total cpu time spent up to now is      242.9 secs

     total energy              =   -1842.83178998 Ry
     Harris-Foulkes estimate   =   -1842.83257396 Ry
     estimated scf accuracy    <       0.03639227 Ry

     iteration # 15     ecut=    60.00 Ry     beta= 0.50
     Davidson diagonalization with overlap
     ethr =  9.66E-06,  avg # of iterations =  2.0

     negative rho (up, down):  4.301E-04 0.000E+00

     total cpu time spent up to now is      258.0 secs

     total energy              =   -1842.83134846 Ry
     Harris-Foulkes estimate   =   -1842.83187701 Ry
     estimated scf accuracy    <       0.03712866 Ry

     iteration # 16     ecut=    60.00 Ry     beta= 0.50
     Davidson diagonalization with overlap
     c_bands:  1 eigenvalues not converged
     ethr =  9.66E-06,  avg # of iterations =  2.3

     negative rho (up, down):  3.320E-03 0.000E+00

     total cpu time spent up to now is      273.4 secs

     total energy              =   -1842.83007335 Ry
     Harris-Foulkes estimate   =   -1842.83144591 Ry
     estimated scf accuracy    <       0.03466593 Ry

     iteration # 17     ecut=    60.00 Ry     beta= 0.50
     Davidson diagonalization with overlap
     ethr =  9.66E-06,  avg # of iterations =  5.2

     negative rho (up, down):  1.222E-02 0.000E+00

     total cpu time spent up to now is      292.0 secs

     total energy              =   -1842.82875212 Ry
     Harris-Foulkes estimate   =   -1842.83020473 Ry
     estimated scf accuracy    <       0.02190123 Ry

     iteration # 18     ecut=    60.00 Ry     beta= 0.50
     Davidson diagonalization with overlap
     ethr =  9.65E-06,  avg # of iterations =  7.8

     negative rho (up, down):  1.040E-02 0.000E+00

     total cpu time spent up to now is      314.0 secs

     total energy              =   -1842.82851085 Ry
     Harris-Foulkes estimate   =   -1842.82890794 Ry
     estimated scf accuracy    <       0.00769729 Ry

     iteration # 19     ecut=    60.00 Ry     beta= 0.50
     Davidson diagonalization with overlap
     c_bands:  1 eigenvalues not converged
     ethr =  3.39E-06,  avg # of iterations =  8.5

     negative rho (up, down):  7.733E-03 0.000E+00

     total cpu time spent up to now is      336.8 secs

     total energy              =   -1842.82850085 Ry
     Harris-Foulkes estimate   =   -1842.82857844 Ry
     estimated scf accuracy    <       0.00263541 Ry

     iteration # 20     ecut=    60.00 Ry     beta= 0.50
     Davidson diagonalization with overlap
     ethr =  1.16E-06,  avg # of iterations =  8.0

     negative rho (up, down):  9.613E-04 0.000E+00

     total cpu time spent up to now is      358.6 secs

     total energy              =   -1842.82844542 Ry
     Harris-Foulkes estimate   =   -1842.82854621 Ry
     estimated scf accuracy    <       0.00074434 Ry

     iteration # 21     ecut=    60.00 Ry     beta= 0.50
     Davidson diagonalization with overlap
     c_bands:  1 eigenvalues not converged
     c_bands:  1 eigenvalues not converged
     c_bands:  1 eigenvalues not converged
     c_bands:  1 eigenvalues not converged
     c_bands:  2 eigenvalues not converged
     ethr =  3.28E-07,  avg # of iterations = 10.0

     negative rho (up, down):  1.183E-03 0.000E+00

     total cpu time spent up to now is      383.4 secs

     total energy              =   -1842.82846691 Ry
     Harris-Foulkes estimate   =   -1842.82847235 Ry
     estimated scf accuracy    <       0.00027614 Ry

     iteration # 22     ecut=    60.00 Ry     beta= 0.50
     Davidson diagonalization with overlap
     c_bands:  1 eigenvalues not converged
     ethr =  1.22E-07,  avg # of iterations =  4.4

     negative rho (up, down):  1.557E-03 0.000E+00

     total cpu time spent up to now is      401.1 secs

     total energy              =   -1842.82845753 Ry
     Harris-Foulkes estimate   =   -1842.82848078 Ry
     estimated scf accuracy    <       0.00019785 Ry

     iteration # 23     ecut=    60.00 Ry     beta= 0.50
     Davidson diagonalization with overlap
     ethr =  8.72E-08,  avg # of iterations =  3.1

     negative rho (up, down):  1.666E-03 0.000E+00

     total cpu time spent up to now is      417.7 secs

     total energy              =   -1842.82846672 Ry
     Harris-Foulkes estimate   =   -1842.82846389 Ry
     estimated scf accuracy    <       0.00011049 Ry

     iteration # 24     ecut=    60.00 Ry     beta= 0.50
     Davidson diagonalization with overlap
     ethr =  4.87E-08,  avg # of iterations =  1.6

     negative rho (up, down):  1.724E-03 0.000E+00

     total cpu time spent up to now is      432.4 secs

     total energy              =   -1842.82846980 Ry
     Harris-Foulkes estimate   =   -1842.82846902 Ry
     estimated scf accuracy    <       0.00009104 Ry

     iteration # 25     ecut=    60.00 Ry     beta= 0.50
     Davidson diagonalization with overlap
     ethr =  4.01E-08,  avg # of iterations =  1.0

     negative rho (up, down):  1.485E-03 0.000E+00

     total cpu time spent up to now is      446.6 secs

     total energy              =   -1842.82846680 Ry
     Harris-Foulkes estimate   =   -1842.82847068 Ry
     estimated scf accuracy    <       0.00003399 Ry

     iteration # 26     ecut=    60.00 Ry     beta= 0.50
     Davidson diagonalization with overlap
     ethr =  1.50E-08,  avg # of iterations =  2.1

     negative rho (up, down):  1.508E-03 0.000E+00

     total cpu time spent up to now is      461.7 secs

     total energy              =   -1842.82846657 Ry
     Harris-Foulkes estimate   =   -1842.82846747 Ry
     estimated scf accuracy    <       0.00002446 Ry

     iteration # 27     ecut=    60.00 Ry     beta= 0.50
     Davidson diagonalization with overlap
     ethr =  1.08E-08,  avg # of iterations =  1.0

     negative rho (up, down):  1.394E-03 0.000E+00

     total cpu time spent up to now is      476.1 secs

     total energy              =   -1842.82846697 Ry
     Harris-Foulkes estimate   =   -1842.82846693 Ry
     estimated scf accuracy    <       0.00001679 Ry

     iteration # 28     ecut=    60.00 Ry     beta= 0.50
     Davidson diagonalization with overlap
     ethr =  7.40E-09,  avg # of iterations =  1.0

     negative rho (up, down):  1.464E-03 0.000E+00

     total cpu time spent up to now is      490.1 secs

     total energy              =   -1842.82846680 Ry
     Harris-Foulkes estimate   =   -1842.82846719 Ry
     estimated scf accuracy    <       0.00001040 Ry

     iteration # 29     ecut=    60.00 Ry     beta= 0.50
     Davidson diagonalization with overlap
     ethr =  4.58E-09,  avg # of iterations =  1.0

     negative rho (up, down):  1.450E-03 0.000E+00

     total cpu time spent up to now is      504.4 secs

     total energy              =   -1842.82846691 Ry
     Harris-Foulkes estimate   =   -1842.82846696 Ry
     estimated scf accuracy    <       0.00000121 Ry

     iteration # 30     ecut=    60.00 Ry     beta= 0.50
     Davidson diagonalization with overlap
     ethr =  5.35E-10,  avg # of iterations =  1.7

     negative rho (up, down):  1.485E-03 0.000E+00

     total cpu time spent up to now is      519.2 secs

     total energy              =   -1842.82846687 Ry
     Harris-Foulkes estimate   =   -1842.82846696 Ry
     estimated scf accuracy    <       0.00000096 Ry

     iteration # 31     ecut=    60.00 Ry     beta= 0.50
     Davidson diagonalization with overlap
     ethr =  4.24E-10,  avg # of iterations =  1.0

     negative rho (up, down):  1.501E-03 0.000E+00

     total cpu time spent up to now is      533.5 secs

     total energy              =   -1842.82846685 Ry
     Harris-Foulkes estimate   =   -1842.82846689 Ry
     estimated scf accuracy    <       0.00000025 Ry

     iteration # 32     ecut=    60.00 Ry     beta= 0.50
     Davidson diagonalization with overlap
     ethr =  1.12E-10,  avg # of iterations =  2.8

     negative rho (up, down):  1.509E-03 0.000E+00

     total cpu time spent up to now is      549.7 secs

     total energy              =   -1842.82846686 Ry
     Harris-Foulkes estimate   =   -1842.82846687 Ry
     estimated scf accuracy    <       0.00000006 Ry

     iteration # 33     ecut=    60.00 Ry     beta= 0.50
     Davidson diagonalization with overlap
     ethr =  2.53E-11,  avg # of iterations =  3.1

     negative rho (up, down):  1.510E-03 0.000E+00

     total cpu time spent up to now is      566.8 secs

     total energy              =   -1842.82846686 Ry
     Harris-Foulkes estimate   =   -1842.82846686 Ry
     estimated scf accuracy    <       0.00000002 Ry

     iteration # 34     ecut=    60.00 Ry     beta= 0.50
     Davidson diagonalization with overlap
     ethr =  8.93E-12,  avg # of iterations =  2.0

     negative rho (up, down):  1.507E-03 0.000E+00

     total cpu time spent up to now is      581.2 secs

     End of self-consistent calculation

          k = 0.0000 0.0000 0.0000 ( 35217 PWs)   bands (ev):

   -35.7015 -35.5384 -24.0538 -22.8990 -22.8979 -22.6750 -17.2056 -17.0173
   -16.7526 -16.7412 -16.6033 -16.5856 -15.4148 -15.2891 -15.0659 -14.7801
   -14.7717 -14.6866 -14.4670 -14.2892 -14.2848 -14.0924 -14.0654 -13.9410
   -13.8883 -13.7808 -13.6119  -9.2947  -8.9009  -8.8163  -8.0306  -8.0277
    -7.9927  -7.9922  -7.8616  -7.7998  -7.7987  -7.7185  -7.5526  -2.4389
    -2.4373  -2.2482  -1.9380  -1.9330  -1.8833  -1.7799  -1.7421  -1.6606
    -1.6558  -1.5968  -1.5392  -1.3616  -1.3302  -1.3281  -1.2760  -1.0516
    -0.8385  -0.8238  -0.5679  -0.5662  -0.4887  -0.4838  -0.4356  -0.3919
    -0.3819  -0.3779  -0.3740  -0.3722  -0.3605  -0.3383  -0.2657  -0.2598
    -0.2319  -0.2213  -0.1466  -0.1446  -0.0107  -0.0091  -0.0087  -0.0054
     0.0294   0.0637   0.0955   0.1326   0.1881   0.2129   0.2781   0.2790
     0.4907   0.5170   0.6384   0.7732   0.7741   0.8343   0.8545   1.0715
     1.1200   1.1695   1.2373   1.2690   1.2894   1.2952   1.3803   1.3937
     1.4879   1.6134   1.6529   1.6793   1.7099   1.8643   1.8873   1.9098
     1.9294   1.9404   2.0465   2.1047   2.1112   2.4179   2.4264   4.7828
     5.1067   5.1174   5.4879   5.9568   6.3308   6.6399   6.6558   6.7958
     7.3224   7.8416   7.8676   8.0155   8.1816   8.3387   8.4649   8.5698
     8.9075

          k = 0.0000 0.1320 0.0000 ( 35189 PWs)   bands (ev):

   -35.6997 -35.5365 -24.0327 -22.8723 -22.8712 -22.6495 -17.1694 -16.9809
   -16.8137 -16.7503 -16.6575 -16.6010 -15.3259 -15.2092 -15.0110 -14.7856
   -14.7708 -14.6591 -14.4373 -14.2988 -14.2910 -14.0970 -14.0808 -13.9896
   -13.9366 -13.8454 -13.6354  -9.2842  -8.8641  -8.8586  -8.0301  -8.0276
    -7.9449  -7.9443  -7.8600  -7.8412  -7.8405  -7.6734  -7.6009  -2.4961
    -2.4954  -2.3201  -2.2606  -2.2525  -2.1480  -1.9875  -1.8839  -1.7593
    -1.7538  -1.7524  -1.7250  -1.6383  -1.4681  -1.3732  -1.3469  -1.3055
    -0.8860  -0.7626  -0.7298  -0.7200  -0.7081  -0.6653  -0.6635  -0.5706
    -0.5687  -0.4554  -0.3557  -0.3080  -0.2894  -0.2735  -0.2574  -0.2556
    -0.2422  -0.1538  -0.1253  -0.1232  -0.1036  -0.0492   0.0135   0.0145
     0.0279   0.0597   0.1492   0.1692   0.2003   0.2559   0.3186   0.3740
     0.4500   0.6462   0.7872   0.9166   0.9474   0.9711   0.9713   1.0284
     1.0456   1.0683   1.1502   1.2546   1.2969   1.3521   1.3811   1.4076
     1.5073   1.5773   1.6575   1.6620   1.6905   1.6908   1.8601   1.8844
     1.8892   1.8972   2.1752   2.2142   2.6156   2.7057   2.7220   5.0963
     5.4840   5.4876   5.7812   6.2875   6.5502   6.9226   6.9597   7.0346
     7.4980   7.9840   8.0393   8.1944   8.3860   8.4869   8.6305   8.7141
     8.7876

          k = 0.0000 0.2640 0.0000 ( 35065 PWs)   bands (ev):

   -35.6953 -35.5321 -23.9811 -22.8064 -22.8053 -22.5868 -17.0774 -16.9679
   -16.8889 -16.8102 -16.7447 -16.5953 -15.1249 -15.0476 -14.8659 -14.8349
   -14.7907 -14.5978 -14.3710 -14.2865 -14.2632 -14.1359 -14.1285 -14.1214
   -14.0656 -13.9553 -13.6933  -9.2539  -8.9523  -8.7726  -8.0295  -8.0276
    -7.9325  -7.9311  -7.8543  -7.8245  -7.8239  -7.7053  -7.5602  -2.9468
    -2.9288  -2.8955  -2.7316  -2.5449  -2.5362  -2.5234  -2.3907  -2.3887
    -2.2416  -1.8271  -1.7048  -1.6770  -1.5829  -1.5789  -1.5723  -1.3021
    -1.1258  -1.0955  -1.0422  -1.0093  -0.9154  -0.9149  -0.7612  -0.7510
    -0.6887  -0.6537  -0.6354  -0.6076  -0.6051  -0.5803  -0.4873  -0.4396
    -0.2935  -0.2918  -0.0971  -0.0951  -0.0725  -0.0151   0.0018   0.1047
     0.1253   0.2616   0.3247   0.3843   0.5031   0.5444   0.5749   0.5914
     0.6341   0.7962   0.8477   0.8567   0.9458   1.0269   1.0500   1.0559
     1.0568   1.0955   1.1697   1.1739   1.2177   1.3676   1.4634   1.4709
     1.5669   1.6095   1.6107   1.7967   1.8031   1.8638   1.8657   1.8800
     1.9633   1.9800   2.2806   2.3410   2.9294   2.9318   3.4800   5.7466
     6.3779   6.3790   6.4968   6.8850   7.1942   7.4368   7.7804   7.7862
     8.0476   8.2195   8.5367   8.6403   8.7570   8.7929   8.8566   8.9586
     9.0248

          k = 0.0000 0.3960 0.0000 ( 34998 PWs)   bands (ev):

   -35.6909 -35.5277 -23.9282 -22.7383 -22.7372 -22.5220 -17.1043 -16.9757
   -16.9464 -16.7862 -16.7390 -16.5896 -15.0425 -15.0339 -14.7969 -14.7025
   -14.6865 -14.5591 -14.3394 -14.2776 -14.2608 -14.2202 -14.2103 -14.2026
   -14.1078 -14.0167 -13.7762  -9.2059  -9.0477  -8.6772  -8.0295  -8.0277
    -8.0106  -8.0092  -7.8489  -7.7962  -7.6960  -7.6954  -7.4401  -3.6352
    -3.3973  -3.3909  -3.1758  -3.1070  -3.1033  -2.9733  -2.4811  -2.4794
    -2.2655  -2.1722  -1.9160  -1.9140  -1.6401  -1.6126  -1.5031  -1.3644
    -1.3138  -1.2365  -1.2351  -1.1852  -1.1758  -1.1664  -0.9781  -0.9487
    -0.9388  -0.8600  -0.8544  -0.8233  -0.8062  -0.6658  -0.6553  -0.4535
    -0.3735  -0.2969  -0.2602  -0.0800  -0.0780   0.0166   0.0183   0.0550
     0.1138   0.3793   0.4172   0.4425   0.4606   0.4956   0.6664   0.8010
     0.8152   0.8153   0.8514   0.8585   0.9534   0.9721   1.0264   1.0279
     1.0977   1.1630   1.2924   1.3438   1.5087   1.5158   1.6097   1.6329
     1.6605   1.7729   1.8119   1.8253   1.8444   1.8781   2.0628   2.1039
     2.2252   2.2586   2.2600   2.2950   2.8228   2.8254   4.0476   6.2382
     6.6923   7.3258   7.3264   7.6226   8.1012   8.1655   8.3070   8.5699
     8.5825   8.7122   8.9758   8.9761   9.0253   9.1105   9.2686   9.2700
     9.3145

          k = 0.0000-0.5279 0.0000 ( 35058 PWs)   bands (ev):

   -35.6890 -35.5258 -23.9059 -22.7093 -22.7082 -22.4946 -17.1564 -16.9981
   -16.9308 -16.7414 -16.7367 -16.5873 -15.0846 -15.0781 -14.6819 -14.6245
   -14.6030 -14.4908 -14.4223 -14.3744 -14.3149 -14.2436 -14.1879 -14.1808
   -14.0524 -14.0406 -13.8425  -9.1596  -9.1098  -8.6363  -8.0403  -8.0388
    -8.0291  -8.0272  -7.8407  -7.8365  -7.6401  -7.6395  -7.3881  -3.9037
    -3.5756  -3.5706  -3.3504  -3.3375  -3.3268  -3.1428  -2.4972  -2.4955
    -2.2999  -2.2741  -2.0467  -2.0454  -1.6102  -1.5762  -1.5047  -1.4065
    -1.3623  -1.3210  -1.3093  -1.3049  -1.2416  -1.1649  -1.1000  -1.0665
    -1.0379  -0.9466  -0.9450  -0.8995  -0.8955  -0.7282  -0.6545  -0.4242
    -0.3585  -0.3584  -0.2947  -0.0744  -0.0724   0.0128   0.0262   0.0621
     0.1145   0.3074   0.3557   0.3860   0.4245   0.4478   0.7005   0.7222
     0.7437   0.8471   0.9020   0.9403   0.9764   1.0094   1.0109   1.1101
     1.2214   1.2964   1.2974   1.3004   1.6254   1.6255   1.6281   1.6825
     1.9016   1.9031   1.9133   1.9517   1.9935   1.9973   2.0164   2.0882
     2.0971   2.2782   2.4201   2.4215   2.6432   2.6476   4.2308   6.2376
     7.0741   7.6167   7.7387   7.7405   8.1580   8.7433   8.8361   8.8640
     8.8920   8.9083   9.0133   9.0261   9.1922   9.2119   9.2276   9.4289
     9.5854

          k = 0.1250 0.0000 0.0000 ( 35169 PWs)   bands (ev):

   -35.7004 -35.5373 -24.0401 -22.8809 -22.8798 -22.6577 -17.1722 -16.9832
   -16.8328 -16.7398 -16.6847 -16.5842 -15.3123 -15.1966 -15.0854 -14.8259
   -14.8111 -14.6916 -14.4692 -14.2982 -14.2946 -14.1042 -14.0785 -13.9663
   -13.9454 -13.8128 -13.6215  -9.3194  -8.8460  -8.7924  -8.0562  -8.0539
    -7.9311  -7.9300  -7.8949  -7.7674  -7.7663  -7.6586  -7.5222  -2.4811
    -2.4801  -2.2756  -1.9805  -1.9712  -1.9180  -1.9161  -1.9087  -1.8541
    -1.6413  -1.6385  -1.5665  -1.4923  -1.3281  -1.3260  -1.2938  -1.0791
    -0.9442  -0.8304  -0.7353  -0.7262  -0.6249  -0.6215  -0.4977  -0.4705
    -0.4500  -0.4469  -0.3854  -0.3803  -0.3793  -0.3332  -0.3283  -0.3184
    -0.2857  -0.2786  -0.1691  -0.0244  -0.0179  -0.0160   0.0042   0.0615
     0.0787   0.0869   0.0873   0.1184   0.1648   0.2574   0.3100   0.3802
     0.5904   0.6333   0.6816   0.6934   0.7398   0.8682   0.9126   1.0269
     1.0863   1.1021   1.1214   1.2527   1.2918   1.3404   1.3729   1.3999
     1.5650   1.5658   1.5992   1.6842   1.8033   1.8106   1.8649   1.8805
     1.9921   2.0442   2.0537   2.1519   2.2117   2.4584   2.4620   4.9989
     5.2881   5.2938   5.6889   6.1988   6.4938   6.8395   6.8697   6.9717
     7.4368   8.0101   8.1390   8.1512   8.3241   8.5001   8.6637   8.7652
     8.8495

          k = 0.1250 0.1320 0.0000 ( 35128 PWs)   bands (ev):

   -35.6986 -35.5354 -24.0196 -22.8551 -22.8540 -22.6330 -17.1371 -16.9478
   -16.8359 -16.8030 -16.6861 -16.6485 -15.2307 -15.1266 -15.0285 -14.8205
   -14.7992 -14.6618 -14.4326 -14.2992 -14.2944 -14.1087 -14.0954 -14.0041
   -13.9846 -13.8657 -13.6420  -9.2966  -8.9944  -8.7076  -8.0754  -8.0740
    -7.9934  -7.9916  -7.8899  -7.7534  -7.7293  -7.7285  -7.4817  -2.5330
    -2.5313  -2.3361  -2.2448  -2.2409  -2.1295  -1.9758  -1.9595  -1.9468
    -1.8977  -1.8841  -1.7477  -1.7464  -1.6147  -1.4769  -1.3683  -1.3339
    -0.9519  -0.9133  -0.8800  -0.7883  -0.7799  -0.7426  -0.7133  -0.6559
    -0.6107  -0.6103  -0.5013  -0.3811  -0.3364  -0.3258  -0.2939  -0.2761
    -0.2290  -0.1582  -0.1396  -0.1026  -0.0975   0.0340   0.0391   0.0606
     0.0710   0.1048   0.1566   0.1795   0.2014   0.2304   0.3806   0.4325
     0.5469   0.7918   0.8378   0.9243   0.9287   0.9712   1.0407   1.0561
     1.1012   1.1221   1.1613   1.1876   1.1920   1.2422   1.4025   1.4688
     1.4821   1.5178   1.5491   1.5546   1.6237   1.7209   1.8064   1.9230
     2.2339   2.2444   2.4026   2.5480   2.6307   2.7153   2.7268   5.2592
     5.6269   5.6286   5.9547   6.4748   6.6751   7.0640   7.1651   7.1971
     7.6286   8.0967   8.1806   8.3128   8.4939   8.5597   8.6812   8.8011
     8.9405

          k = 0.1250 0.2640 0.0000 ( 35067 PWs)   bands (ev):

   -35.6942 -35.5310 -23.9692 -22.7912 -22.7901 -22.5721 -17.0480 -16.9648
   -16.8589 -16.8155 -16.8071 -16.6672 -15.0547 -15.0002 -14.8759 -14.8224
   -14.7663 -14.5927 -14.3491 -14.2817 -14.2648 -14.1594 -14.1424 -14.1194
   -14.0652 -13.9661 -13.6909  -9.2513  -9.1335  -8.6968  -8.1443  -8.1433
    -8.0303  -8.0284  -7.8986  -7.8557  -7.7202  -7.7194  -7.4763  -2.9678
    -2.9491  -2.8864  -2.7427  -2.5475  -2.5367  -2.5245  -2.3900  -2.3881
    -2.2516  -1.9108  -1.9034  -1.8730  -1.7823  -1.5952  -1.5896  -1.5503
    -1.1897  -1.1028  -1.0955  -1.0826  -1.0406  -1.0060  -0.9517  -0.8018
    -0.8013  -0.8013  -0.6842  -0.6811  -0.6456  -0.6112  -0.5615  -0.4381
    -0.3182  -0.2608  -0.2374  -0.1430  -0.1266   0.0387   0.0797   0.1001
     0.2387   0.2671   0.3829   0.4184   0.4734   0.6335   0.6361   0.6829
     0.8393   0.8995   0.9119   0.9843   0.9938   1.0421   1.1012   1.1833
     1.1930   1.2323   1.2463   1.2709   1.2769   1.3261   1.3862   1.4491
     1.4758   1.5258   1.5808   1.7758   1.8090   1.8330   1.8389   2.0489
     2.4311   2.4398   2.6383   2.7485   2.9398   2.9483   3.4817   5.8457
     6.4390   6.4400   6.4854   6.9399   7.2737   7.4960   7.9437   7.9473
     8.0266   8.2270   8.6489   8.6933   8.7966   8.8351   8.8991   9.0005
     9.0585

          k = 0.1250 0.3960 0.0000 ( 35054 PWs)   bands (ev):

   -35.6898 -35.5266 -23.9177 -22.7253 -22.7242 -22.5093 -17.0991 -16.9493
   -16.9413 -16.8069 -16.7591 -16.6588 -15.0074 -15.0009 -14.7237 -14.6795
   -14.6405 -14.5393 -14.3180 -14.2571 -14.2557 -14.2304 -14.2049 -14.1953
   -14.1324 -14.0114 -13.7603  -9.2407  -9.1598  -8.7447  -8.1748  -8.1735
    -8.0418  -8.0400  -7.9499  -7.8558  -7.7653  -7.7645  -7.5161  -3.6231
    -3.4387  -3.4290  -3.2049  -3.0984  -3.0949  -2.9921  -2.4892  -2.4876
    -2.2796  -2.1143  -1.9004  -1.8950  -1.7642  -1.7409  -1.6993  -1.4895
    -1.4564  -1.4135  -1.3959  -1.2975  -1.2424  -1.2167  -1.0950  -1.0717
    -0.9830  -0.9774  -0.9585  -0.8922  -0.8650  -0.7731  -0.6523  -0.4893
    -0.4174  -0.3130  -0.2478  -0.1325  -0.1067   0.0690   0.0928   0.0996
     0.2508   0.3088   0.3960   0.5577   0.6409   0.7483   0.7917   0.7949
     0.8661   0.9479   0.9556   1.0415   1.0689   1.0769   1.1195   1.1403
     1.2173   1.2226   1.3382   1.5128   1.5516   1.5746   1.6085   1.6473
     1.7232   1.7986   1.8216   1.8504   2.0149   2.1851   2.2260   2.2271
     2.3785   2.3899   2.5863   2.6701   2.8809   2.8981   4.0410   6.2126
     6.5783   7.1903   7.1914   7.5789   7.9307   8.0175   8.1555   8.5528
     8.5621   8.6434   8.8242   9.0514   9.2393   9.2714   9.2836   9.3840
     9.4760

          k = 0.1250-0.5279 0.0000 ( 35032 PWs)   bands (ev):

   -35.6880 -35.5248 -23.8960 -22.6973 -22.6962 -22.4827 -17.1507 -16.9925
   -16.9059 -16.8032 -16.7157 -16.6552 -15.0399 -15.0340 -14.6091 -14.5838
   -14.5438 -14.4886 -14.3883 -14.3583 -14.2863 -14.2771 -14.1846 -14.1812
   -14.0615 -14.0364 -13.8147  -9.2318  -9.1610  -8.7738  -8.1695  -8.1679
    -8.0467  -8.0448  -7.9599  -7.8545  -7.7995  -7.7989  -7.5419  -3.8929
    -3.6246  -3.6161  -3.3823  -3.3283  -3.3235  -3.1681  -2.5103  -2.5087
    -2.2902  -2.2096  -1.9305  -1.9242  -1.7193  -1.7025  -1.6257  -1.5966
    -1.5853  -1.5142  -1.4671  -1.3653  -1.3284  -1.2925  -1.2284  -1.1470
    -1.0680  -1.0554  -1.0520  -0.9798  -0.9596  -0.8759  -0.6380  -0.4835
    -0.4152  -0.3263  -0.2568  -0.1144  -0.0780   0.0782   0.1042   0.1048
     0.2477   0.3289   0.4275   0.5192   0.5526   0.6287   0.8212   0.8371
     0.8462   0.8478   0.9106   1.0707   1.1402   1.1526   1.1690   1.2048
     1.2750   1.2757   1.3291   1.5381   1.6667   1.7200   1.8908   1.9135
     1.9154   1.9260   1.9831   2.0681   2.1275   2.2374   2.2426   2.2630
     2.3912   2.3924   2.4386   2.5169   2.7591   2.7833   4.2223   6.0981
     7.2011   7.2637   7.4123   7.4169   7.9686   8.1802   8.2487   8.8428
     8.9079   8.9992   9.1950   9.2079   9.2860   9.5410   9.6075   9.6732
     9.7418

          k = 0.2500 0.0000 0.0000 ( 35172 PWs)   bands (ev):

   -35.6978 -35.5346 -24.0068 -22.8366 -22.8355 -22.6155 -17.0870 -16.9968
   -16.8966 -16.8500 -16.7365 -16.5809 -15.1427 -15.1118 -15.0657 -14.9098
   -14.8497 -14.7160 -14.4794 -14.3125 -14.3105 -14.1572 -14.1070 -14.0912
   -13.9989 -13.8773 -13.6464  -9.3432  -8.7521  -8.7336  -8.0577  -8.0555
    -7.9181  -7.8443  -7.8436  -7.6867  -7.6855  -7.5749  -7.4467  -2.6738
    -2.6703  -2.4801  -2.3172  -2.3168  -2.1905  -2.1253  -1.8565  -1.8392
    -1.7633  -1.5864  -1.5730  -1.5084  -1.3445  -1.3248  -1.3227  -1.1523
    -1.1299  -1.0358  -0.9750  -0.9166  -0.8772  -0.8770  -0.7557  -0.7195
    -0.6418  -0.6384  -0.5464  -0.5265  -0.4337  -0.4022  -0.3844  -0.3592
    -0.3562  -0.3250  -0.2726  -0.1735  -0.0307  -0.0287   0.0016   0.0749
     0.0776   0.2142   0.2163   0.3294   0.3437   0.3952   0.4407   0.5076
     0.5527   0.5862   0.7204   0.7294   0.7873   0.8196   0.8652   0.9346
     1.1684   1.1887   1.1973   1.2170   1.2843   1.3130   1.3429   1.3557
     1.4781   1.5011   1.6304   1.7252   1.7602   1.7717   1.9060   1.9322
     1.9719   2.0796   2.1815   2.3457   2.4564   2.5665   2.5692   5.5004
     5.7460   5.7468   6.1794   6.7651   6.9476   7.2816   7.4468   7.4704
     7.8123   8.3316   8.3863   8.4406   8.6012   8.8410   9.0113   9.0346
     9.1568

          k = 0.2500 0.1320 0.0000 ( 35139 PWs)   bands (ev):

   -35.6960 -35.5328 -23.9875 -22.8128 -22.8117 -22.5926 -17.0549 -16.9904
   -16.8654 -16.8424 -16.8026 -16.6467 -15.0790 -15.0606 -15.0286 -14.8615
   -14.7983 -14.6809 -14.4316 -14.2983 -14.2981 -14.1517 -14.1206 -14.0945
   -14.0346 -13.9058 -13.6608  -9.3200  -9.0223  -8.6390  -8.1261  -8.1250
    -7.9812  -7.9795  -7.9407  -7.7559  -7.6530  -7.6521  -7.4131  -2.7242
    -2.7158  -2.5173  -2.3092  -2.3086  -2.2080  -2.2036  -2.1831  -2.1180
    -2.0673  -1.9067  -1.9039  -1.7386  -1.7369  -1.5352  -1.4553  -1.4309
    -1.1405  -1.1246  -1.1043  -1.0349  -0.9884  -0.9474  -0.7979  -0.7887
    -0.7435  -0.7181  -0.7133  -0.6017  -0.4827  -0.4507  -0.3939  -0.3248
    -0.2976  -0.1614  -0.1375  -0.1353  -0.0914   0.0001   0.0269   0.0886
     0.0944   0.2144   0.2215   0.2729   0.3107   0.4901   0.5498   0.6660
     0.7523   0.7798   0.8030   0.8067   0.9377   0.9480   1.0441   1.0744
     1.1028   1.1243   1.2617   1.3032   1.3033   1.3273   1.3658   1.3725
     1.3780   1.4545   1.6084   1.6229   1.6468   1.7835   1.8812   1.9788
     2.5503   2.5734   2.6784   2.7469   2.7601   2.7946   2.9293   5.6676
     6.0066   6.0076   6.3678   6.8156   7.0797   7.3629   7.7036   7.7108
     7.9858   8.1331   8.4853   8.5091   8.7363   8.8060   8.9631   9.0534
     9.2264

          k = 0.2500 0.2640 0.0000 ( 35115 PWs)   bands (ev):

   -35.6916 -35.5284 -23.9403 -22.7541 -22.7530 -22.5362 -16.9909 -16.9661
   -16.9392 -16.8376 -16.7868 -16.7770 -14.9701 -14.9597 -14.9061 -14.7230
   -14.6696 -14.5938 -14.3063 -14.2735 -14.2707 -14.2002 -14.1678 -14.1079
   -14.0729 -13.9812 -13.6876  -9.3339  -9.2460  -8.7479  -8.3463  -8.3453
    -8.0966  -8.0429  -8.0412  -7.8684  -7.7729  -7.7718  -7.5360  -3.1042
    -3.0757  -2.8768  -2.8230  -2.5828  -2.5499  -2.5412  -2.4218  -2.4211
    -2.3444  -2.2782  -2.2779  -2.1648  -2.0484  -1.7878  -1.5625  -1.5312
    -1.5303  -1.5161  -1.4059  -1.2327  -1.1975  -1.0781  -1.0259  -0.9666
    -0.8435  -0.8301  -0.7517  -0.7072  -0.7040  -0.6768  -0.6529  -0.5205
    -0.4589  -0.4011  -0.3036  -0.0928  -0.0854  -0.0577   0.2034   0.2143
     0.3394   0.3985   0.4784   0.6706   0.6812   0.7268   0.8087   0.8511
     0.8521   1.0167   1.1082   1.1264   1.1641   1.2272   1.2404   1.2593
     1.2901   1.3512   1.3819   1.3944   1.4165   1.4412   1.4644   1.5001
     1.5654   1.5722   1.6215   1.7477   1.7484   1.8853   1.9191   2.0977
     2.8764   2.8781   3.1611   3.1762   3.3054   3.4429   3.4898   6.0485
     6.3049   6.5497   6.5500   7.1365   7.4675   7.5939   8.0636   8.2362
     8.2372   8.4882   8.6214   8.8131   8.9316   9.0100   9.1175   9.1639
     9.2192

          k = 0.2500 0.3960 0.0000 ( 35102 PWs)   bands (ev):

   -35.6873 -35.5240 -23.8920 -22.6937 -22.6926 -22.4783 -17.0871 -16.9550
   -16.9295 -16.8806 -16.8078 -16.6898 -14.9260 -14.9226 -14.6752 -14.5522
   -14.5296 -14.4992 -14.3273 -14.2841 -14.2116 -14.1913 -14.1744 -14.1554
   -14.1491 -14.0050 -13.7197  -9.4922  -9.1927  -8.9603  -8.4663  -8.4651
    -8.2276  -8.0932  -8.0917  -7.9868  -7.9856  -7.8866  -7.7537  -3.6173
    -3.5777  -3.5747  -3.3213  -3.0840  -3.0741  -3.0639  -2.5599  -2.5595
    -2.3720  -2.2408  -2.2401  -2.1417  -1.9968  -1.9910  -1.8882  -1.8774
    -1.7090  -1.5775  -1.5697  -1.4996  -1.4457  -1.2702  -1.2606  -1.0253
    -0.9531  -0.9361  -0.9109  -0.9001  -0.8960  -0.7824  -0.6630  -0.6329
    -0.5773  -0.5253  -0.3673  -0.0773  -0.0006   0.0647   0.2392   0.2781
     0.4390   0.5337   0.7101   0.8686   0.8689   0.8869   0.9731   1.1071
     1.1555   1.1770   1.2083   1.2102   1.2498   1.3587   1.3742   1.3892
     1.4047   1.4946   1.5458   1.6063   1.6437   1.6542   1.7005   1.7275
     1.7515   1.8060   1.8627   1.8729   2.1329   2.1478   2.1486   2.2002
     2.7079   2.7103   3.3899   3.4174   3.5435   3.6614   4.0215   5.7809
     6.5936   6.7570   6.7597   7.4227   7.6238   7.6524   8.0487   8.6669
     8.6889   8.6990   8.9363   9.2224   9.4028   9.5296   9.5687   9.6356
     9.7048

          k = 0.2500-0.5279 0.0000 ( 35148 PWs)   bands (ev):

   -35.6854 -35.5222 -23.8717 -22.6681 -22.6670 -22.4539 -17.1372 -16.9792
   -16.9495 -16.8410 -16.8025 -16.6502 -14.9228 -14.9188 -14.4859 -14.4843
   -14.4720 -14.4571 -14.3437 -14.3245 -14.3137 -14.2006 -14.1775 -14.1757
   -14.0751 -14.0025 -13.7455  -9.5234  -9.1671  -9.0775  -8.4665  -8.4650
    -8.2473  -8.1813  -8.1804  -8.0530  -8.0513  -7.9019  -7.8640  -3.8735
    -3.7926  -3.7751  -3.5139  -3.3068  -3.3018  -3.2622  -2.5674  -2.5668
    -2.3645  -2.2039  -2.2023  -2.1222  -2.0939  -2.0345  -2.0258  -1.9401
    -1.8042  -1.6886  -1.6130  -1.5501  -1.5094  -1.3553  -1.3503  -1.0636
    -1.0189  -1.0169  -0.9815  -0.9245  -0.9148  -0.8636  -0.6767  -0.6185
    -0.6101  -0.5441  -0.3690  -0.0744   0.0307   0.1096   0.2504   0.3197
     0.5495   0.5688   0.7974   0.9122   0.9718   0.9733   0.9848   0.9890
     1.0912   1.1162   1.2396   1.3265   1.3644   1.3850   1.3916   1.4688
     1.4828   1.4965   1.5411   1.7160   1.7987   1.8476   1.8729   1.9132
     1.9143   1.9511   1.9703   2.0364   2.2426   2.2551   2.3235   2.3244
     2.4857   2.4888   3.4096   3.4436   3.5792   3.6922   4.1912   5.5873
     6.7175   6.7223   6.9203   7.3890   7.5670   7.6639   7.8094   8.5693
     9.0285   9.1360   9.4098   9.4205   9.5135   9.7407   9.8415   9.9346
     9.9781

          k = 0.3750 0.0000 0.0000 ( 35124 PWs)   bands (ev):

   -35.6951 -35.5320 -23.9730 -22.7912 -22.7901 -22.5722 -17.1368 -16.9918
   -16.9917 -16.7981 -16.7332 -16.5776 -15.2148 -15.1515 -15.1465 -14.7655
   -14.7330 -14.7229 -14.4464 -14.3275 -14.3173 -14.2813 -14.1926 -14.1555
   -14.0349 -13.9255 -13.6783  -9.3383  -8.6916  -8.6731  -8.0402  -8.0381
    -7.9099  -7.7794  -7.7788  -7.6023  -7.6011  -7.5261  -7.3681  -3.0018
    -2.9958  -2.8308  -2.5349  -2.4407  -2.4395  -2.2237  -1.7755  -1.7427
    -1.6947  -1.6423  -1.6172  -1.4719  -1.4070  -1.3335  -1.3263  -1.3243
    -1.2356  -1.1274  -1.1221  -1.1188  -1.0495  -1.0062  -0.9990  -0.9347
    -0.8415  -0.8385  -0.7544  -0.7315  -0.5599  -0.5058  -0.4169  -0.4032
    -0.3529  -0.3482  -0.3135  -0.2495  -0.0435  -0.0430  -0.0415   0.0664
     0.0677   0.2926   0.2954   0.3164   0.3200   0.3343   0.4050   0.4751
     0.4931   0.6414   0.7314   0.8170   0.8172   0.8984   1.0753   1.0754
     1.1078   1.1458   1.1864   1.2366   1.2554   1.2626   1.3968   1.4449
     1.5290   1.6480   1.6519   1.6864   1.7813   1.7952   1.8972   2.0222
     2.0635   2.1110   2.2182   2.4533   2.4865   2.6836   2.6892   6.0267
     6.3952   6.3961   6.5583   7.1875   7.6544   7.7740   7.8910   7.8938
     8.1146   8.3673   8.4396   8.5959   9.1317   9.2139   9.2965   9.3798
     9.3828

          k = 0.3750 0.1320 0.0000 ( 35159 PWs)   bands (ev):

   -35.6934 -35.5302 -23.9550 -22.7695 -22.7684 -22.5512 -17.1282 -16.9831
   -16.9626 -16.7977 -16.7689 -16.6417 -15.1429 -15.1036 -15.0995 -14.7257
   -14.6891 -14.6615 -14.3950 -14.2968 -14.2941 -14.2527 -14.1740 -14.1490
   -14.0708 -13.9336 -13.6895  -9.3180  -8.9593  -8.6913  -8.0977  -8.0962
    -7.9433  -7.9416  -7.9351  -7.7061  -7.6919  -7.6908  -7.4610  -3.0639
    -3.0524  -2.8751  -2.5576  -2.4395  -2.4383  -2.2390  -2.1513  -2.1270
    -1.9793  -1.9041  -1.8413  -1.7272  -1.7253  -1.5925  -1.5374  -1.5138
    -1.4214  -1.4154  -1.3230  -1.2050  -1.0464  -1.0265  -0.9409  -0.9065
    -0.8370  -0.8247  -0.7740  -0.7279  -0.6429  -0.5285  -0.5130  -0.3777
    -0.3725  -0.1708  -0.1558  -0.0837  -0.0414   0.0192   0.0243   0.0780
     0.0793   0.1951   0.3192   0.3317   0.3430   0.5517   0.5794   0.6597
     0.7035   0.7272   0.8502   0.9139   0.9570   1.0374   1.0669   1.0982
     1.1280   1.2111   1.2235   1.2517   1.2606   1.3254   1.4267   1.4762
     1.5773   1.6142   1.6365   1.6740   1.7112   1.9077   1.9770   2.0521
     2.6236   2.6414   2.7066   2.8371   2.8666   3.0141   3.0957   6.0928
     6.5437   6.5449   6.5570   7.0684   7.7019   7.7945   7.9564   7.9570
     8.0420   8.3776   8.5370   8.7319   8.9676   9.1662   9.2068   9.3819
     9.4041

          k = 0.3750 0.2640 0.0000 ( 35147 PWs)   bands (ev):

   -35.6890 -35.5258 -23.9109 -22.7162 -22.7151 -22.4996 -17.1079 -16.9626
   -16.9420 -16.8874 -16.7848 -16.6944 -14.9836 -14.9794 -14.9427 -14.6304
   -14.5869 -14.5120 -14.2961 -14.2575 -14.2351 -14.2243 -14.1433 -14.1226
   -14.1070 -13.9743 -13.6964  -9.3928  -9.2420  -8.9351  -8.3990  -8.3979
    -8.1537  -8.0776  -8.0762  -7.9552  -7.9539  -7.8819  -7.7363  -3.3808
    -3.3451  -3.1133  -2.8312  -2.7777  -2.6103  -2.6038  -2.4908  -2.4903
    -2.4713  -2.3613  -2.3592  -2.3076  -2.2130  -1.8930  -1.8452  -1.7791
    -1.6877  -1.4877  -1.3768  -1.3344  -1.2356  -1.0675  -1.0400  -0.9915
    -0.9677  -0.9571  -0.8136  -0.7609  -0.7576  -0.6943  -0.6520  -0.6072
    -0.4930  -0.4832  -0.3918  -0.0519  -0.0256   0.0958   0.2737   0.3268
     0.4322   0.5178   0.5834   0.7073   0.7198   0.8965   0.8979   0.9806
     1.0497   1.0789   1.1212   1.1360   1.2718   1.2894   1.3137   1.3611
     1.3700   1.4126   1.4601   1.5238   1.5294   1.5666   1.6155   1.6436
     1.6459   1.6868   1.7020   1.7121   1.8864   1.8990   2.0371   2.1239
     2.8765   2.8793   3.4944   3.6158   3.6233   3.7364   3.8553   5.8222
     6.4956   6.5901   6.5905   7.1894   7.5276   7.6032   8.2901   8.2978
     8.3377   8.6304   8.8262   8.9382   9.0882   9.3083   9.3605   9.4964
     9.5449

          k = 0.3750 0.3960 0.0000 ( 35149 PWs)   bands (ev):

   -35.6847 -35.5215 -23.8660 -22.6615 -22.6604 -22.4469 -17.0905 -17.0687
   -16.9436 -16.9129 -16.8078 -16.6146 -14.8482 -14.8464 -14.6751 -14.5389
   -14.4946 -14.3545 -14.3416 -14.2860 -14.1895 -14.1861 -14.1167 -14.0748
   -14.0706 -14.0186 -13.6816  -9.7033  -9.2355  -9.1849  -8.6648  -8.6634
    -8.4268  -8.3298  -8.3291  -8.0803  -8.0781  -8.0446  -7.9107  -3.8605
    -3.8173  -3.5939  -3.5136  -3.2414  -3.0552  -3.0535  -2.7410  -2.7401
    -2.5883  -2.3908  -2.3877  -2.3739  -2.2240  -2.2064  -2.1449  -1.9778
    -1.8578  -1.7758  -1.4722  -1.3240  -1.3183  -1.3155  -1.3116  -1.0704
    -1.0551  -0.9805  -0.9678  -0.9306  -0.8784  -0.8113  -0.7519  -0.6193
    -0.6069  -0.5041  -0.5032   0.0286   0.1322   0.1492   0.3398   0.5107
     0.7276   0.7430   0.9210   1.0470   1.0475   1.1293   1.1733   1.2395
     1.2785   1.3144   1.3711   1.3744   1.4477   1.5125   1.5590   1.5835
     1.6262   1.6490   1.6588   1.7084   1.7311   1.8209   1.8320   1.8453
     1.8893   1.9225   1.9482   1.9953   2.0699   2.0703   2.2170   2.3623
     2.6959   2.7009   3.9843   4.1375   4.1414   4.2174   4.3308   5.2579
     6.2866   6.2871   6.6840   7.2145   7.3236   7.3650   8.1916   8.4669
     8.8715   8.8938   9.2156   9.3843   9.4193   9.4509   9.4810   9.5828
     9.7326

          k = 0.3750-0.5279 0.0000 ( 35168 PWs)   bands (ev):

   -35.6829 -35.5197 -23.8471 -22.6385 -22.6374 -22.4246 -17.1239 -17.0779
   -16.9661 -16.9326 -16.7724 -16.5794 -14.7868 -14.7860 -14.5099 -14.4816
   -14.4655 -14.3990 -14.3025 -14.2630 -14.2285 -14.1696 -14.1676 -14.0936
   -14.0174 -13.9817 -13.6733  -9.8143  -9.3571  -9.1695  -8.7468  -8.7452
    -8.5229  -8.4749  -8.4743  -8.1727  -8.1060  -8.1037  -7.9249  -4.0674
    -4.0235  -3.8531  -3.7233  -3.4448  -3.2804  -3.2787  -2.7594  -2.7587
    -2.5999  -2.3875  -2.3819  -2.3709  -2.3139  -2.2532  -2.2252  -2.0568
    -1.9055  -1.8799  -1.5429  -1.4292  -1.4255  -1.3497  -1.3442  -1.0697
    -1.0652  -1.0626  -1.0466  -1.0033  -0.9126  -0.8530  -0.8120  -0.6189
    -0.5953  -0.4915  -0.4895   0.0628   0.1546   0.1809   0.3572   0.5933
     0.7984   0.8997   1.0739   1.1588   1.1596   1.1903   1.2375   1.2444
     1.2849   1.3741   1.4556   1.5192   1.5569   1.5867   1.6431   1.6605
     1.6755   1.7285   1.8304   1.8706   1.8989   1.9026   1.9324   1.9605
     2.0033   2.0315   2.0880   2.1664   2.2582   2.2606   2.2870   2.4510
     2.4584   2.5018   4.1107   4.2837   4.2916   4.3650   4.4720   5.0297
     6.1091   6.1097   6.7545   7.1515   7.2861   7.3016   8.1173   8.2731
     9.0171   9.0433   9.2515   9.3355   9.4059   9.6336   9.6974   9.7536
     9.7572

          k =-0.5000 0.0000 0.0000 ( 35110 PWs)   bands (ev):

   -35.6940 -35.5309 -23.9588 -22.7720 -22.7709 -22.5539 -17.1891 -17.0445
   -16.9496 -16.7546 -16.7318 -16.5762 -15.2508 -15.2053 -15.2025 -14.7887
   -14.7061 -14.5178 -14.4343 -14.3346 -14.3280 -14.3102 -14.2517 -14.2263
   -14.0454 -13.9418 -13.6944  -9.3302  -8.6741  -8.6475  -8.0299  -8.0278
    -7.9005  -7.7563  -7.7557  -7.5661  -7.5649  -7.5127  -7.3345  -3.1438
    -3.1382  -2.9747  -2.6896  -2.4659  -2.4644  -2.2214  -1.7655  -1.7283
    -1.7247  -1.6853  -1.4906  -1.4363  -1.4126  -1.3841  -1.3302  -1.3282
    -1.2859  -1.2719  -1.2608  -1.1468  -1.1107  -1.0799  -1.0146  -0.9368
    -0.9238  -0.9220  -0.8545  -0.8485  -0.6244  -0.5610  -0.4221  -0.4022
    -0.3923  -0.3517  -0.3271  -0.2607  -0.0488  -0.0469  -0.0388   0.0315
     0.0339   0.2926   0.2947   0.3175   0.3177   0.3275   0.3545   0.4222
     0.4414   0.7039   0.7954   0.8078   0.8508   0.9318   1.0249   1.0253
     1.0791   1.1906   1.2526   1.2611   1.2820   1.3693   1.4794   1.5434
     1.5442   1.5455   1.5742   1.7548   1.8047   1.8372   2.0368   2.0465
     2.0678   2.1251   2.2241   2.4575   2.4627   2.7087   2.7233   6.3825
     6.4720   7.1683   7.1688   7.2196   7.2207   7.4070   7.9452   8.1551
     8.4313   8.4791   8.5303   8.9277   9.2899   9.3412   9.3549   9.4242
     9.4735

          k =-0.5000 0.1320 0.0000 ( 35154 PWs)   bands (ev):

   -35.6923 -35.5291 -23.9413 -22.7513 -22.7501 -22.5338 -17.1799 -17.0353
   -16.9221 -16.7955 -16.7271 -16.6396 -15.1762 -15.1468 -15.1461 -14.7477
   -14.6682 -14.4756 -14.3758 -14.3012 -14.2986 -14.2867 -14.2156 -14.1940
   -14.0834 -13.9423 -13.7063  -9.3091  -8.8640  -8.7919  -8.0688  -8.0671
    -7.9200  -7.8857  -7.8852  -7.7692  -7.7677  -7.6334  -7.5485  -3.2124
    -3.2014  -3.0268  -2.7182  -2.4707  -2.4694  -2.2512  -2.1196  -2.0918
    -1.9268  -1.8931  -1.7990  -1.7219  -1.7200  -1.6264  -1.5684  -1.5371
    -1.5364  -1.5295  -1.4320  -1.2447  -1.1334  -1.0411  -0.9794  -0.9778
    -0.8516  -0.7997  -0.7963  -0.7570  -0.7385  -0.5653  -0.5529  -0.4013
    -0.4002  -0.1839  -0.1642  -0.0613  -0.0063   0.0298   0.0335   0.0724
     0.0745   0.1424   0.3455   0.4047   0.4061   0.4761   0.5008   0.6221
     0.7071   0.7133   0.8185   0.9331   0.9680   1.0480   1.0619   1.1041
     1.1698   1.1723   1.1938   1.2890   1.3336   1.3851   1.5158   1.5415
     1.5718   1.6105   1.6143   1.7608   1.8013   1.9618   2.0314   2.1389
     2.6335   2.6441   2.7094   2.8558   2.8876   3.0681   3.1259   6.2792
     6.5230   7.0161   7.0163   7.1834   7.5232   7.5250   8.0423   8.0604
     8.1515   8.3598   8.6710   9.0818   9.1121   9.1912   9.4405   9.5133
     9.6519

          k =-0.5000 0.2640 0.0000 ( 35176 PWs)   bands (ev):

   -35.6880 -35.5247 -23.8986 -22.7003 -22.6992 -22.4843 -17.1579 -17.0132
   -16.9387 -16.8510 -16.7816 -16.6568 -15.0033 -14.9969 -14.9588 -14.6499
   -14.5794 -14.3691 -14.2755 -14.2559 -14.2414 -14.2344 -14.1534 -14.1228
   -14.1102 -13.9662 -13.7080  -9.3553  -9.2405  -9.0725  -8.3378  -8.3363
    -8.1869  -8.1863  -8.1065  -8.0187  -8.0168  -7.9141  -7.8626  -3.5192
    -3.4837  -3.2584  -2.9184  -2.8238  -2.6358  -2.6300  -2.5050  -2.5004
    -2.4850  -2.3706  -2.3671  -2.3374  -2.2177  -2.0164  -1.9618  -1.7978
    -1.7634  -1.5728  -1.3154  -1.2476  -1.2114  -1.0788  -1.0772  -1.0155
    -0.9902  -0.9775  -0.8452  -0.7853  -0.7825  -0.7384  -0.6489  -0.6068
    -0.5034  -0.5011  -0.4100  -0.0451  -0.0080   0.1856   0.2952   0.3785
     0.5102   0.5598   0.6195   0.7394   0.7444   0.9802   0.9866   0.9885
     1.0539   1.0695   1.0834   1.1202   1.2071   1.3220   1.3542   1.3821
     1.4379   1.4561   1.4566   1.5846   1.6018   1.6353   1.6486   1.6931
     1.6978   1.7103   1.7386   1.7902   1.8252   1.9870   2.0155   2.2354
     2.8694   2.8727   3.5009   3.7545   3.7632   3.8701   3.9782   5.6691
     6.5860   6.5863   6.6320   7.1906   7.4555   7.5576   8.3261   8.3344
     8.4079   8.7246   8.8627   9.1277   9.2374   9.4796   9.5064   9.5426
     9.6629

          k =-0.5000 0.3960 0.0000 ( 35152 PWs)   bands (ev):

   -35.6836 -35.5204 -23.8551 -22.6481 -22.6470 -22.4337 -17.1364 -17.0678
   -16.9916 -16.9104 -16.7755 -16.5813 -14.8191 -14.8168 -14.6781 -14.5636
   -14.5055 -14.3323 -14.2763 -14.2577 -14.1876 -14.1857 -14.0911 -14.0595
   -14.0232 -14.0183 -13.6682  -9.7714  -9.3499  -9.1948  -8.7130  -8.7114
    -8.4833  -8.4749  -8.4744  -8.1801  -8.0965  -8.0943  -7.9239  -3.9909
    -3.9438  -3.6836  -3.5376  -3.3497  -3.0468  -3.0449  -2.8114  -2.8098
    -2.6581  -2.4747  -2.4056  -2.4040  -2.3051  -2.2426  -2.2304  -2.0091
    -1.8875  -1.8516  -1.4571  -1.3432  -1.3360  -1.2161  -1.2020  -1.1582
    -1.1453  -0.9968  -0.9930  -0.9037  -0.9012  -0.8395  -0.7300  -0.7071
    -0.6123  -0.4678  -0.4663   0.0406   0.1583   0.2505   0.3730   0.6070
     0.8201   0.9023   0.9893   1.1729   1.1819   1.1829   1.1882   1.2744
     1.3141   1.3349   1.4453   1.4524   1.4609   1.5625   1.6234   1.6352
     1.6505   1.6765   1.7116   1.7234   1.8271   1.8624   1.8761   1.9411
     1.9540   2.0103   2.0187   2.0395   2.0562   2.1329   2.1663   2.4914
     2.6836   2.6898   3.9808   4.4001   4.4035   4.4630   4.5654   5.0496
     6.0912   6.0916   6.6765   7.1050   7.2609   7.2726   8.3012   8.3127
     8.8170   8.8527   9.3058   9.3814   9.4006   9.5070   9.6163   9.7353
     9.7863

          k =-0.5000-0.5279 0.0000 ( 35180 PWs)   bands (ev):

   -35.6818 -35.5186 -23.8368 -22.6261 -22.6250 -22.4124 -17.1275 -17.1184
   -16.9827 -16.9607 -16.7420 -16.5481 -14.7226 -14.7210 -14.5508 -14.4902
   -14.4812 -14.3783 -14.3000 -14.2112 -14.1731 -14.1661 -14.1623 -14.0500
   -13.9795 -13.9784 -13.6425  -9.9356  -9.4644  -9.1720  -8.8590  -8.8574
    -8.6344  -8.5910  -8.5905  -8.2859  -8.1245  -8.1216  -7.9403  -4.1993
    -4.1509  -3.8987  -3.7899  -3.5514  -3.2711  -3.2692  -2.8440  -2.8423
    -2.6852  -2.4902  -2.3971  -2.3957  -2.3941  -2.3390  -2.2295  -2.0791
    -1.9468  -1.9274  -1.5244  -1.4581  -1.4529  -1.2806  -1.2668  -1.1327
    -1.1144  -1.0920  -1.0904  -1.0045  -0.9380  -0.8472  -0.7972  -0.6971
    -0.6145  -0.4393  -0.4375   0.0763   0.2003   0.2685   0.3927   0.7187
     0.9151   1.0413   1.1648   1.2381   1.2416   1.2524   1.2916   1.3054
     1.3328   1.4973   1.5134   1.6219   1.6332   1.6588   1.6978   1.7545
     1.7837   1.7946   1.8852   1.8945   1.9182   1.9693   1.9709   1.9850
     2.0847   2.1464   2.1487   2.2320   2.2344   2.3144   2.3423   2.4264
     2.4360   2.6361   4.1009   4.6018   4.6065   4.6662   4.7568   4.8071
     5.8643   5.8646   6.6578   7.0034   7.2283   7.2303   8.1342   8.3255
     8.9260   8.9472   8.9785   9.0808   9.3487   9.4341   9.7130   9.7340
     9.7987

     the Fermi energy is     2.4595 ev

!    total energy              =   -1842.82846686 Ry
     Harris-Foulkes estimate   =   -1842.82846686 Ry
     estimated scf accuracy    <          2.7E-09 Ry

     The total energy is the sum of the following terms:

     one-electron contribution =  -27731.72479425 Ry
     hartree contribution      =   14017.69825327 Ry
     xc contribution           =    -621.55533059 Ry
     ewald contribution        =   12492.76074504 Ry
     smearing contrib. (-TS)   =      -0.00734033 Ry

     convergence has been achieved in  34 iterations

     negative rho (up, down):  1.507E-03 0.000E+00

     Forces acting on atoms (cartesian axes, Ry/au):

     atom    1 type  4   force =     0.00000000    0.00000000   -0.00017371
     atom    2 type  3   force =     0.00000000    0.00000000    0.00037772
     atom    3 type  4   force =     0.00000000    0.00000000   -0.00080357
     atom    4 type  1   force =     0.00000000    0.00000000   -0.00029556
     atom    5 type  3   force =     0.00000000    0.00000000    0.00061637
     atom    6 type  4   force =     0.00000000    0.00000000    0.00009090
     atom    7 type  4   force =     0.00000000    0.00000000    0.00039238
     atom    8 type  2   force =     0.00000000    0.00000000   -0.00091253
     atom    9 type  4   force =     0.00000000    0.00000000    0.00029184
     atom   10 type  4   force =     0.00000000    0.00000000    0.00041118
     atom   11 type  3   force =     0.00000000    0.00000000    0.00067738
     atom   12 type  1   force =     0.00000000    0.00000000   -0.00165636
     atom   13 type  4   force =     0.00000000    0.00000000    0.00624840
     atom   14 type  4   force =     0.00000000    0.00000000    0.01606142
     atom   15 type  3   force =     0.00000000    0.00000000   -0.01603942
     atom   16 type  4   force =     0.00000000    0.00000000    0.02327387
     atom   17 type  1   force =     0.00000000    0.00000000   -0.01317429
     atom   18 type  3   force =     0.00000000    0.00000000   -0.00745919
     atom   19 type  4   force =     0.00000000    0.00000000    0.00571615
     atom   20 type  4   force =     0.00000000    0.00000000    0.00032116
     atom   21 type  2   force =     0.00000000    0.00000000   -0.01733083
     atom   22 type  4   force =     0.00000000    0.00000000    0.00049642
     atom   23 type  4   force =     0.00000000    0.00000000    0.00194060
     atom   24 type  3   force =     0.00000000    0.00000000   -0.00006189
     atom   25 type  1   force =     0.00000000    0.00000000    0.00023974
     atom   26 type  4   force =     0.00000000    0.00000000    0.00112125
     atom   27 type  3   force =     0.00000000    0.00000000   -0.00068033
     atom   28 type  4   force =     0.00000000    0.00000000    0.00031090

     Total force =     0.040240     Total SCF correction =     0.000067


     Computing stress (Cartesian axis) and pressure


     negative rho (up, down):  1.507E-03 0.000E+00
          total   stress  (Ry/bohr**3)                   (kbar)     P=       -8.59
  -0.00008992   0.00000000   0.00000000          -13.23        0.00        0.00
   0.00000000  -0.00004158   0.00000000            0.00       -6.12        0.00
   0.00000000   0.00000000  -0.00004363            0.00        0.00       -6.42


     number of scf cycles    =   3
     number of bfgs steps    =   2

     energy   old            =   -1842.8976277540 Ry
     energy   new            =   -1842.8284668603 Ry

     CASE: energy  _new > energy  _old


 %%%%%%%%%%%%%%%%%%%%%%%%%%%%%%%%%%%%%%%%%%%%%%%%%%%%%%%%%%%%%%%%%%%%%%%%%%%%%%
     Error in routine bfgs (1):
     dE0s is positive which should never happen
 %%%%%%%%%%%%%%%%%%%%%%%%%%%%%%%%%%%%%%%%%%%%%%%%%%%%%%%%%%%%%%%%%%%%%%%%%%%%%%

     stopping ...
