
     Program PWSCF v.6.5 starts on 28Jun2021 at 12:30:52 

     This program is part of the open-source Quantum ESPRESSO suite
     for quantum simulation of materials; please cite
         "P. Giannozzi et al., J. Phys.:Condens. Matter 21 395502 (2009);
         "P. Giannozzi et al., J. Phys.:Condens. Matter 29 465901 (2017);
          URL http://www.quantum-espresso.org", 
     in publications or presentations arising from this work. More details at
     http://www.quantum-espresso.org/quote

     Parallel version (MPI), running on    20 processors

     MPI processes distributed on     3 nodes
     R & G space division:  proc/nbgrp/npool/nimage =      20
     Reading input from CBCO_BaO_cleave_0.5_sep.pwi
Warning: card &CELL ignored
Warning: card     CELL_DYNAMICS = 'BFGS' ignored
Warning: card     PRESS_CONV_THR = 0.5 ignored
Warning: card / ignored

     Current dimensions of program PWSCF are:
     Max number of different atomic species (ntypx) = 10
     Max number of k-points (npk) =  40000
     Max angular momentum in pseudopotentials (lmaxx) =  3

     Subspace diagonalization in iterative solution of the eigenvalue problem:
     one sub-group per band group will be used
     scalapack distributed-memory algorithm (size of sub-group:  4*  4 procs)

     Message from routine setup:
     using ibrav=0 with symmetry is DISCOURAGED, use correct ibrav instead
 
     Parallelization info
     --------------------
     sticks:   dense  smooth     PW     G-vecs:    dense   smooth      PW
     Min         149      50     14                70963    13664    2134
     Max         150      51     15                71000    13687    2179
     Sum        2991    1007    289              1419661   273473   42977
 


     bravais-lattice index     =            0
     lattice parameter (alat)  =       7.4270  a.u.
     unit-cell volume          =    4351.6708 (a.u.)^3
     number of atoms/cell      =           28
     number of atomic types    =            4
     number of electrons       =       227.00
     number of Kohn-Sham states=          137
     kinetic-energy cutoff     =      60.0000  Ry
     charge density cutoff     =     720.0000  Ry
     convergence threshold     =      1.0E-08
     mixing beta               =       0.5000
     number of iterations used =           10  local-TF  mixing
     Exchange-correlation= SLA PW PBE PBE
                           (   1   4   3   4   0   0   0)
     nstep                     =          300


     celldm(1)=   7.427040  celldm(2)=   0.000000  celldm(3)=   0.000000
     celldm(4)=   0.000000  celldm(5)=   0.000000  celldm(6)=   0.000000

     crystal axes: (cart. coord. in units of alat)
               a(1) = (   1.000000   0.000000   0.000000 )  
               a(2) = (   0.000000   0.947081   0.000000 )  
               a(3) = (   0.000000   0.000000  11.215576 )  

     reciprocal axes: (cart. coord. in units 2 pi/alat)
               b(1) = (  1.000000  0.000000  0.000000 )  
               b(2) = (  0.000000  1.055876  0.000000 )  
               b(3) = (  0.000000  0.000000  0.089162 )  


     PseudoPot. # 1 for Ba read from file:
     ./pseudo/Ba.pbe-nsp-van.UPF
     MD5 check sum: 2b9c31dd849566dd297d80989662b7a0
     Pseudo is Ultrasoft + core correction, Zval = 10.0
     Generated by new atomic code, or converted to UPF format
     Using radial grid of  907 points,  6 beta functions with: 
                l(1) =   0
                l(2) =   0
                l(3) =   1
                l(4) =   1
                l(5) =   2
                l(6) =   2
     Q(r) pseudized with  6 coefficients,  rinner =    1.200   1.200   1.200
                                                       1.200   1.200

     PseudoPot. # 2 for Ca read from file:
     ./pseudo/Ca.pbe-nsp-van.UPF
     MD5 check sum: 6471098428ff4fa451746d08035ff179
     Pseudo is Ultrasoft + core correction, Zval = 10.0
     Generated by new atomic code, or converted to UPF format
     Using radial grid of  845 points,  6 beta functions with: 
                l(1) =   0
                l(2) =   0
                l(3) =   1
                l(4) =   1
                l(5) =   2
                l(6) =   2
     Q(r) pseudized with  6 coefficients,  rinner =    1.200   1.200   1.200
                                                       1.200   1.200

     PseudoPot. # 3 for Cu read from file:
     ./pseudo/Cu.pbe-n-van_ak.UPF
     MD5 check sum: 34e3282627ffb533726feb647e090d62
     Pseudo is Ultrasoft + core correction, Zval = 11.0
     Generated by new atomic code, or converted to UPF format
     Using radial grid of  867 points,  6 beta functions with: 
                l(1) =   0
                l(2) =   0
                l(3) =   1
                l(4) =   1
                l(5) =   2
                l(6) =   2
     Q(r) pseudized with  8 coefficients,  rinner =    1.400   1.400   1.400
                                                       1.400   1.400

     PseudoPot. # 4 for O  read from file:
     ./pseudo/O.pbe-van_ak.UPF
     MD5 check sum: 783ce7fe4c79b6a4916957118fed0856
     Pseudo is Ultrasoft, Zval =  6.0
     Generated by new atomic code, or converted to UPF format
     Using radial grid of  737 points,  4 beta functions with: 
                l(1) =   0
                l(2) =   0
                l(3) =   1
                l(4) =   1
     Q(r) pseudized with  8 coefficients,  rinner =    0.800   0.800   0.800


     atomic species   valence    mass     pseudopotential
        Ba            10.00   137.32700     Ba( 1.00)
        Ca            10.00    40.07800     Ca( 1.00)
        Cu            11.00    63.54600     Cu( 1.00)
        O              6.00    15.99900     O ( 1.00)

      4 Sym. Ops. (no inversion) found



   Cartesian axes

     site n.     atom                  positions (alat units)
         1           O   tau(   1) = (   0.0000000   0.4735409  -0.0469745  )
         2           Cu  tau(   2) = (   0.0000000   0.0000000   0.0264565  )
         3           O   tau(   3) = (   0.0000000   0.0000000   0.5030914  )
         4           Ba  tau(   4) = (   0.5000000   0.4735409   0.5690292  )
         5           Cu  tau(   5) = (   0.0000000   0.0000000   1.0374254  )
         6           O   tau(   6) = (   0.5000000   0.0000000   1.0768099  )
         7           O   tau(   7) = (   0.0000000   0.4735409   1.1116985  )
         8           Ca  tau(   8) = (   0.5000000   0.4735409   1.4976260  )
         9           O   tau(   9) = (   0.0000000   0.4735409   1.8667529  )
        10           O   tau(  10) = (   0.5000000   0.0000000   1.9044124  )
        11           Cu  tau(  11) = (   0.0000000   0.0000000   1.9512546  )
        12           Ba  tau(  12) = (   0.5000000   0.4735409   2.4295764  )
        13           O   tau(  13) = (   0.0000000   0.0000000   2.5115362  )
        14           O   tau(  14) = (   0.0000000   0.4735409   2.9918528  )
        15           Cu  tau(  15) = (   0.0000000   0.0000000   2.9919088  )
        16           O   tau(  16) = (   0.0000000   0.0000000   3.4722686  )
        17           Ba  tau(  17) = (   0.5000000   0.4735409   3.5542208  )
        18           Cu  tau(  18) = (   0.0000000   0.0000000   4.1597441  )
        19           O   tau(  19) = (   0.5000000   0.0000000   4.2065863  )
        20           O   tau(  20) = (   0.0000000   0.4735409   4.2442406  )
        21           Ca  tau(  21) = (   0.5000000   0.4735409   4.6133777  )
        22           O   tau(  22) = (   0.0000000   0.4735409   4.9993027  )
        23           O   tau(  23) = (   0.5000000   0.0000000   5.0341913  )
        24           Cu  tau(  24) = (   0.0000000   0.0000000   5.0735784  )
        25           Ba  tau(  25) = (   0.5000000   0.4735409   5.5419720  )
        26           O   tau(  26) = (   0.0000000   0.0000000   5.6078996  )
        27           Cu  tau(  27) = (   0.0000000   0.0000000   6.0845396  )
        28           O   tau(  28) = (   0.0000000   0.4735409   6.1579579  )

     number of k points=    25  Gaussian smearing, width (Ry)=  0.0100
                       cart. coord. in units 2pi/alat
        k(    1) = (   0.0000000   0.0000000   0.0000000), wk =   0.0312500
        k(    2) = (   0.0000000   0.1319845   0.0000000), wk =   0.0625000
        k(    3) = (   0.0000000   0.2639689   0.0000000), wk =   0.0625000
        k(    4) = (   0.0000000   0.3959534   0.0000000), wk =   0.0625000
        k(    5) = (   0.0000000  -0.5279378   0.0000000), wk =   0.0312500
        k(    6) = (   0.1250000   0.0000000   0.0000000), wk =   0.0625000
        k(    7) = (   0.1250000   0.1319845   0.0000000), wk =   0.1250000
        k(    8) = (   0.1250000   0.2639689   0.0000000), wk =   0.1250000
        k(    9) = (   0.1250000   0.3959534   0.0000000), wk =   0.1250000
        k(   10) = (   0.1250000  -0.5279378   0.0000000), wk =   0.0625000
        k(   11) = (   0.2500000   0.0000000   0.0000000), wk =   0.0625000
        k(   12) = (   0.2500000   0.1319845   0.0000000), wk =   0.1250000
        k(   13) = (   0.2500000   0.2639689   0.0000000), wk =   0.1250000
        k(   14) = (   0.2500000   0.3959534   0.0000000), wk =   0.1250000
        k(   15) = (   0.2500000  -0.5279378   0.0000000), wk =   0.0625000
        k(   16) = (   0.3750000   0.0000000   0.0000000), wk =   0.0625000
        k(   17) = (   0.3750000   0.1319845   0.0000000), wk =   0.1250000
        k(   18) = (   0.3750000   0.2639689   0.0000000), wk =   0.1250000
        k(   19) = (   0.3750000   0.3959534   0.0000000), wk =   0.1250000
        k(   20) = (   0.3750000  -0.5279378   0.0000000), wk =   0.0625000
        k(   21) = (  -0.5000000   0.0000000   0.0000000), wk =   0.0312500
        k(   22) = (  -0.5000000   0.1319845   0.0000000), wk =   0.0625000
        k(   23) = (  -0.5000000   0.2639689   0.0000000), wk =   0.0625000
        k(   24) = (  -0.5000000   0.3959534   0.0000000), wk =   0.0625000
        k(   25) = (  -0.5000000  -0.5279378   0.0000000), wk =   0.0312500

     Dense  grid:  1419661 G-vectors     FFT dimensions: (  64,  64, 720)

     Smooth grid:   273473 G-vectors     FFT dimensions: (  40,  36, 432)

     Estimated max dynamical RAM per process >     453.21 MB

     Estimated total dynamical RAM >       8.85 GB

     Initial potential from superposition of free atoms

     starting charge  226.84630, renormalised to  227.00000

     negative rho (up, down):  3.431E-03 0.000E+00
     Starting wfcs are  195 randomized atomic wfcs

     total cpu time spent up to now is       10.0 secs

     Self-consistent Calculation

     iteration #  1     ecut=    60.00 Ry     beta= 0.50
     Davidson diagonalization with overlap
     ethr =  1.00E-02,  avg # of iterations =  2.0

     negative rho (up, down):  5.005E-04 0.000E+00

     total cpu time spent up to now is       25.1 secs

     total energy              =   -1840.95592033 Ry
     Harris-Foulkes estimate   =   -1845.34817370 Ry
     estimated scf accuracy    <      17.56059015 Ry

     iteration #  2     ecut=    60.00 Ry     beta= 0.50
     Davidson diagonalization with overlap
     ethr =  7.74E-03,  avg # of iterations =  2.0

     negative rho (up, down):  2.790E-04 0.000E+00

     total cpu time spent up to now is       40.2 secs

     total energy              =   -1842.52980339 Ry
     Harris-Foulkes estimate   =   -1843.27764593 Ry
     estimated scf accuracy    <       5.46823749 Ry

     iteration #  3     ecut=    60.00 Ry     beta= 0.50
     Davidson diagonalization with overlap
     ethr =  2.41E-03,  avg # of iterations =  1.3

     negative rho (up, down):  2.598E-04 0.000E+00

     total cpu time spent up to now is       54.4 secs

     total energy              =   -1842.85108961 Ry
     Harris-Foulkes estimate   =   -1843.00867714 Ry
     estimated scf accuracy    <       2.26089504 Ry

     iteration #  4     ecut=    60.00 Ry     beta= 0.50
     Davidson diagonalization with overlap
     ethr =  9.96E-04,  avg # of iterations =  1.0

     negative rho (up, down):  2.512E-04 0.000E+00

     total cpu time spent up to now is       68.1 secs

     total energy              =   -1842.87478969 Ry
     Harris-Foulkes estimate   =   -1842.94264550 Ry
     estimated scf accuracy    <       0.38774964 Ry

     iteration #  5     ecut=    60.00 Ry     beta= 0.50
     Davidson diagonalization with overlap
     ethr =  1.71E-04,  avg # of iterations =  6.0

     negative rho (up, down):  2.484E-04 0.000E+00

     total cpu time spent up to now is       89.8 secs

     total energy              =   -1842.91723517 Ry
     Harris-Foulkes estimate   =   -1842.92933875 Ry
     estimated scf accuracy    <       1.29517792 Ry

     iteration #  6     ecut=    60.00 Ry     beta= 0.50
     Davidson diagonalization with overlap
     ethr =  1.71E-04,  avg # of iterations =  1.0

     negative rho (up, down):  2.430E-04 0.000E+00

     total cpu time spent up to now is      103.5 secs

     total energy              =   -1842.90371810 Ry
     Harris-Foulkes estimate   =   -1842.92132179 Ry
     estimated scf accuracy    <       0.73345569 Ry

     iteration #  7     ecut=    60.00 Ry     beta= 0.50
     Davidson diagonalization with overlap
     ethr =  1.71E-04,  avg # of iterations =  1.0

     negative rho (up, down):  2.412E-04 0.000E+00

     total cpu time spent up to now is      118.5 secs

     total energy              =   -1842.90171142 Ry
     Harris-Foulkes estimate   =   -1842.91140213 Ry
     estimated scf accuracy    <       1.16976929 Ry

     iteration #  8     ecut=    60.00 Ry     beta= 0.50
     Davidson diagonalization with overlap
     ethr =  1.71E-04,  avg # of iterations =  1.0

     negative rho (up, down):  2.410E-04 0.000E+00

     total cpu time spent up to now is      132.5 secs

     total energy              =   -1842.89811920 Ry
     Harris-Foulkes estimate   =   -1842.90510361 Ry
     estimated scf accuracy    <       0.58642103 Ry

     iteration #  9     ecut=    60.00 Ry     beta= 0.50
     Davidson diagonalization with overlap
     ethr =  1.71E-04,  avg # of iterations =  1.0

     negative rho (up, down):  2.419E-04 0.000E+00

     total cpu time spent up to now is      146.5 secs

     total energy              =   -1842.89356787 Ry
     Harris-Foulkes estimate   =   -1842.90020076 Ry
     estimated scf accuracy    <       0.25095767 Ry

     iteration # 10     ecut=    60.00 Ry     beta= 0.50
     Davidson diagonalization with overlap
     ethr =  1.11E-04,  avg # of iterations =  1.7

     negative rho (up, down):  2.430E-04 0.000E+00

     total cpu time spent up to now is      161.2 secs

     total energy              =   -1842.89144054 Ry
     Harris-Foulkes estimate   =   -1842.89539089 Ry
     estimated scf accuracy    <       0.11647450 Ry

     iteration # 11     ecut=    60.00 Ry     beta= 0.50
     Davidson diagonalization with overlap
     ethr =  5.13E-05,  avg # of iterations =  6.3

     negative rho (up, down):  2.430E-04 0.000E+00

     total cpu time spent up to now is      181.5 secs

     total energy              =   -1842.89040932 Ry
     Harris-Foulkes estimate   =   -1842.89210947 Ry
     estimated scf accuracy    <       0.04933902 Ry

     iteration # 12     ecut=    60.00 Ry     beta= 0.50
     Davidson diagonalization with overlap
     ethr =  2.17E-05,  avg # of iterations =  4.7

     negative rho (up, down):  4.058E-04 0.000E+00

     total cpu time spent up to now is      199.7 secs

     total energy              =   -1842.88861581 Ry
     Harris-Foulkes estimate   =   -1842.89068544 Ry
     estimated scf accuracy    <       0.03465133 Ry

     iteration # 13     ecut=    60.00 Ry     beta= 0.50
     Davidson diagonalization with overlap
     ethr =  1.53E-05,  avg # of iterations =  5.4

     negative rho (up, down):  8.427E-03 0.000E+00

     total cpu time spent up to now is      218.6 secs

     total energy              =   -1842.88735572 Ry
     Harris-Foulkes estimate   =   -1842.88892019 Ry
     estimated scf accuracy    <       0.02075663 Ry

     iteration # 14     ecut=    60.00 Ry     beta= 0.50
     Davidson diagonalization with overlap
     ethr =  9.14E-06,  avg # of iterations =  6.9

     negative rho (up, down):  1.696E-02 0.000E+00

     total cpu time spent up to now is      240.0 secs

     total energy              =   -1842.88639398 Ry
     Harris-Foulkes estimate   =   -1842.88754396 Ry
     estimated scf accuracy    <       0.01556996 Ry

     iteration # 15     ecut=    60.00 Ry     beta= 0.50
     Davidson diagonalization with overlap
     ethr =  6.86E-06,  avg # of iterations =  5.4

     negative rho (up, down):  2.321E-02 0.000E+00

     total cpu time spent up to now is      259.4 secs

     total energy              =   -1842.88549815 Ry
     Harris-Foulkes estimate   =   -1842.88649561 Ry
     estimated scf accuracy    <       0.01485522 Ry

     iteration # 16     ecut=    60.00 Ry     beta= 0.50
     Davidson diagonalization with overlap
     ethr =  6.54E-06,  avg # of iterations =  6.3

     negative rho (up, down):  2.233E-02 0.000E+00

     total cpu time spent up to now is      280.2 secs

     total energy              =   -1842.88474632 Ry
     Harris-Foulkes estimate   =   -1842.88561284 Ry
     estimated scf accuracy    <       0.01074818 Ry

     iteration # 17     ecut=    60.00 Ry     beta= 0.50
     Davidson diagonalization with overlap
     ethr =  4.73E-06,  avg # of iterations =  6.1

     negative rho (up, down):  2.215E-02 0.000E+00

     total cpu time spent up to now is      300.8 secs

     total energy              =   -1842.88432998 Ry
     Harris-Foulkes estimate   =   -1842.88484070 Ry
     estimated scf accuracy    <       0.00663404 Ry

     iteration # 18     ecut=    60.00 Ry     beta= 0.50
     Davidson diagonalization with overlap
     ethr =  2.92E-06,  avg # of iterations =  8.7

     negative rho (up, down):  2.002E-02 0.000E+00

     total cpu time spent up to now is      325.2 secs

     total energy              =   -1842.88411739 Ry
     Harris-Foulkes estimate   =   -1842.88437669 Ry
     estimated scf accuracy    <       0.00505172 Ry

     iteration # 19     ecut=    60.00 Ry     beta= 0.50
     Davidson diagonalization with overlap
     ethr =  2.23E-06,  avg # of iterations =  9.0

     negative rho (up, down):  6.151E-03 0.000E+00

     total cpu time spent up to now is      349.8 secs

     total energy              =   -1842.88382784 Ry
     Harris-Foulkes estimate   =   -1842.88416030 Ry
     estimated scf accuracy    <       0.00120671 Ry

     iteration # 20     ecut=    60.00 Ry     beta= 0.50
     Davidson diagonalization with overlap
     c_bands:  1 eigenvalues not converged
     c_bands:  1 eigenvalues not converged
     ethr =  5.32E-07,  avg # of iterations =  9.6

     negative rho (up, down):  5.983E-03 0.000E+00

     total cpu time spent up to now is      375.8 secs

     total energy              =   -1842.88386509 Ry
     Harris-Foulkes estimate   =   -1842.88387467 Ry
     estimated scf accuracy    <       0.00071853 Ry

     iteration # 21     ecut=    60.00 Ry     beta= 0.50
     Davidson diagonalization with overlap
     ethr =  3.17E-07,  avg # of iterations =  3.7

     negative rho (up, down):  2.062E-03 0.000E+00

     total cpu time spent up to now is      393.2 secs

     total energy              =   -1842.88387082 Ry
     Harris-Foulkes estimate   =   -1842.88388017 Ry
     estimated scf accuracy    <       0.00011216 Ry

     iteration # 22     ecut=    60.00 Ry     beta= 0.50
     Davidson diagonalization with overlap
     c_bands:  1 eigenvalues not converged
     c_bands:  1 eigenvalues not converged
     ethr =  4.94E-08,  avg # of iterations =  9.0

     negative rho (up, down):  1.636E-03 0.000E+00

     total cpu time spent up to now is      417.0 secs

     total energy              =   -1842.88388250 Ry
     Harris-Foulkes estimate   =   -1842.88387404 Ry
     estimated scf accuracy    <       0.00003222 Ry

     iteration # 23     ecut=    60.00 Ry     beta= 0.50
     Davidson diagonalization with overlap
     c_bands:  1 eigenvalues not converged
     ethr =  1.42E-08,  avg # of iterations =  4.0

     negative rho (up, down):  1.244E-03 0.000E+00

     total cpu time spent up to now is      434.3 secs

     total energy              =   -1842.88388725 Ry
     Harris-Foulkes estimate   =   -1842.88388367 Ry
     estimated scf accuracy    <       0.00002238 Ry

     iteration # 24     ecut=    60.00 Ry     beta= 0.50
     Davidson diagonalization with overlap
     c_bands:  1 eigenvalues not converged
     ethr =  9.86E-09,  avg # of iterations =  4.2

     negative rho (up, down):  1.284E-03 0.000E+00

     total cpu time spent up to now is      451.8 secs

     total energy              =   -1842.88389026 Ry
     Harris-Foulkes estimate   =   -1842.88388889 Ry
     estimated scf accuracy    <       0.00001618 Ry

     iteration # 25     ecut=    60.00 Ry     beta= 0.50
     Davidson diagonalization with overlap
     ethr =  7.13E-09,  avg # of iterations =  1.6

     negative rho (up, down):  1.295E-03 0.000E+00

     total cpu time spent up to now is      466.3 secs

     total energy              =   -1842.88389068 Ry
     Harris-Foulkes estimate   =   -1842.88389090 Ry
     estimated scf accuracy    <       0.00000503 Ry

     iteration # 26     ecut=    60.00 Ry     beta= 0.50
     Davidson diagonalization with overlap
     ethr =  2.22E-09,  avg # of iterations =  1.0

     negative rho (up, down):  1.443E-03 0.000E+00

     total cpu time spent up to now is      480.3 secs

     total energy              =   -1842.88389069 Ry
     Harris-Foulkes estimate   =   -1842.88389080 Ry
     estimated scf accuracy    <       0.00000177 Ry

     iteration # 27     ecut=    60.00 Ry     beta= 0.50
     Davidson diagonalization with overlap
     ethr =  7.80E-10,  avg # of iterations =  2.2

     negative rho (up, down):  1.469E-03 0.000E+00

     total cpu time spent up to now is      495.7 secs

     total energy              =   -1842.88389079 Ry
     Harris-Foulkes estimate   =   -1842.88389077 Ry
     estimated scf accuracy    <       0.00000106 Ry

     iteration # 28     ecut=    60.00 Ry     beta= 0.50
     Davidson diagonalization with overlap
     ethr =  4.67E-10,  avg # of iterations =  1.0

     negative rho (up, down):  1.507E-03 0.000E+00

     total cpu time spent up to now is      509.7 secs

     total energy              =   -1842.88389079 Ry
     Harris-Foulkes estimate   =   -1842.88389082 Ry
     estimated scf accuracy    <       0.00000048 Ry

     iteration # 29     ecut=    60.00 Ry     beta= 0.50
     Davidson diagonalization with overlap
     ethr =  2.11E-10,  avg # of iterations =  1.7

     negative rho (up, down):  1.537E-03 0.000E+00

     total cpu time spent up to now is      524.5 secs

     total energy              =   -1842.88389077 Ry
     Harris-Foulkes estimate   =   -1842.88389082 Ry
     estimated scf accuracy    <       0.00000020 Ry

     iteration # 30     ecut=    60.00 Ry     beta= 0.50
     Davidson diagonalization with overlap
     ethr =  8.81E-11,  avg # of iterations =  2.0

     negative rho (up, down):  1.516E-03 0.000E+00

     total cpu time spent up to now is      539.9 secs

     total energy              =   -1842.88389080 Ry
     Harris-Foulkes estimate   =   -1842.88389078 Ry
     estimated scf accuracy    <       0.00000004 Ry

     iteration # 31     ecut=    60.00 Ry     beta= 0.50
     Davidson diagonalization with overlap
     ethr =  1.95E-11,  avg # of iterations =  3.2

     negative rho (up, down):  1.516E-03 0.000E+00

     total cpu time spent up to now is      557.5 secs

     total energy              =   -1842.88389080 Ry
     Harris-Foulkes estimate   =   -1842.88389081 Ry
     estimated scf accuracy    <       0.00000003 Ry

     iteration # 32     ecut=    60.00 Ry     beta= 0.50
     Davidson diagonalization with overlap
     ethr =  1.36E-11,  avg # of iterations =  1.0

     negative rho (up, down):  1.509E-03 0.000E+00

     total cpu time spent up to now is      571.1 secs

     End of self-consistent calculation

          k = 0.0000 0.0000 0.0000 ( 34267 PWs)   bands (ev):

   -35.5493 -35.4540 -22.9966 -22.7538 -22.7533 -22.5015 -17.0538 -16.9400
   -16.6003 -16.5891 -16.5129 -16.4997 -15.2643 -15.1853 -14.8252 -14.6343
   -14.6278 -14.5348 -14.4091 -14.1443 -14.1427 -13.9446 -13.9260 -13.7870
   -13.6652 -13.5972 -13.4525  -8.2216  -7.9317  -7.8852  -7.8833  -7.8476
    -7.8474  -7.7988  -7.6834  -7.6547  -7.6542  -7.5463  -7.3794  -2.2933
    -2.2927  -2.0513  -1.7923  -1.7897  -1.7279  -1.6311  -1.6047  -1.5779
    -1.5027  -1.4442  -1.4255  -1.3346  -1.1843  -1.1832  -1.0311  -0.8137
    -0.6824  -0.5683  -0.4223  -0.4214  -0.3427  -0.3390  -0.2709  -0.2579
    -0.2284  -0.2274  -0.2137  -0.2077  -0.1556  -0.1380  -0.1291  -0.1208
    -0.1042  -0.0750  -0.0013   0.0003   0.1351   0.1362   0.1362   0.1387
     0.1965   0.2105   0.2327   0.3461   0.3470   0.3621   0.4051   0.4277
     0.5499   0.7176   0.8318   0.9186   0.9191   0.9809   1.0132   1.2203
     1.2554   1.3859   1.3986   1.4098   1.4362   1.4912   1.5555   1.5582
     1.7257   1.8000   1.8101   1.8637   1.9288   1.9363   2.0684   2.0724
     2.0775   2.1485   2.1949   2.2939   2.3037   2.5651   2.5730   5.2451
     5.2551   5.6612   6.2126   6.3447   6.7417   6.8024   6.8492   7.2633
     8.0079   8.1271   8.2143   8.3423   8.4243   8.6412   8.7004   9.0501
     9.1535

          k = 0.0000 0.1320 0.0000 ( 34203 PWs)   bands (ev):

   -35.5474 -35.4522 -22.9743 -22.7272 -22.7267 -22.4760 -17.0176 -16.9036
   -16.6616 -16.5980 -16.5718 -16.5105 -15.1755 -15.1011 -14.7698 -14.6394
   -14.6284 -14.5076 -14.3793 -14.1538 -14.1511 -13.9500 -13.9398 -13.8327
   -13.7104 -13.6252 -13.5155  -8.2117  -7.8917  -7.8847  -7.8833  -7.8483
    -7.7998  -7.7996  -7.6971  -7.6960  -7.6798  -7.5012  -7.4272  -2.3511
    -2.3504  -2.1554  -2.1201  -2.0886  -1.9842  -1.8949  -1.6502  -1.6107
    -1.6082  -1.6073  -1.5870  -1.4850  -1.3172  -1.3039  -1.2643  -1.0724
    -0.6286  -0.6142  -0.5901  -0.5757  -0.5198  -0.5187  -0.4744  -0.4253
    -0.4234  -0.3009  -0.1954  -0.1726  -0.1476  -0.1221  -0.1117  -0.1107
    -0.0547  -0.0160   0.0200   0.0217   0.0440   0.0712   0.1590   0.1596
     0.1978   0.2153   0.2848   0.3150   0.3604   0.3916   0.4067   0.4910
     0.7379   0.8339   0.9632   1.0720   1.0882   1.1162   1.1163   1.1781
     1.1927   1.2248   1.4204   1.4432   1.4576   1.5460   1.5562   1.5704
     1.6413   1.7140   1.7965   1.8289   1.8507   1.9617   1.9826   2.0156
     2.0496   2.1012   2.2225   2.4644   2.8246   2.8538   2.8991   5.6269
     5.6304   5.9774   6.5340   6.6347   7.0252   7.1059   7.1404   7.5469
     8.1824   8.3274   8.4291   8.5378   8.6551   8.7483   8.8979   9.1271
     9.2407

          k = 0.0000 0.2640 0.0000 ( 34079 PWs)   bands (ev):

   -35.5430 -35.4478 -22.9196 -22.6613 -22.6608 -22.4133 -16.9255 -16.8160
   -16.8108 -16.7254 -16.5923 -16.5049 -14.9757 -14.9240 -14.6884 -14.6571
   -14.6220 -14.4462 -14.3059 -14.1411 -14.1333 -13.9896 -13.9831 -13.9589
   -13.7860 -13.7193 -13.6457  -8.1870  -7.9532  -7.8843  -7.8833  -7.7921
    -7.7873  -7.7866  -7.6794  -7.6791  -7.6751  -7.5305  -7.3880  -2.7963
    -2.7859  -2.6838  -2.5664  -2.4479  -2.3913  -2.3910  -2.2450  -2.2439
    -2.0423  -1.6029  -1.5568  -1.5378  -1.4427  -1.4286  -1.4123  -1.2639
    -0.9502  -0.9147  -0.8725  -0.7705  -0.7703  -0.7441  -0.6138  -0.6083
    -0.5940  -0.4976  -0.4862  -0.4621  -0.4600  -0.4529  -0.3862  -0.2809
    -0.1926  -0.0494   0.0483   0.0499   0.1187   0.1316   0.1414   0.2486
     0.2863   0.4119   0.4256   0.4584   0.6541   0.7278   0.7357   0.7413
     0.8950   0.9721   1.0076   1.0588   1.1675   1.1973   1.2012   1.2017
     1.2145   1.2365   1.3050   1.3419   1.3988   1.5650   1.6611   1.6739
     1.7064   1.7437   1.8044   1.9674   1.9829   2.0092   2.0107   2.0188
     2.0604   2.1489   2.3536   2.5894   3.0734   3.0800   3.7402   6.5232
     6.5238   6.6870   7.3393   7.3541   7.8571   7.9262   7.9505   8.3246
     8.5005   8.6868   8.7994   8.8781   8.9859   9.0588   9.1298   9.3563
     9.3805

          k = 0.0000 0.3960 0.0000 ( 34048 PWs)   bands (ev):

   -35.5386 -35.4434 -22.8634 -22.5931 -22.5926 -22.3485 -16.9523 -16.8602
   -16.8238 -16.7093 -16.5867 -16.4992 -14.8972 -14.8918 -14.6457 -14.5783
   -14.4625 -14.3851 -14.2487 -14.1138 -14.0700 -14.0680 -14.0558 -14.0177
   -13.9000 -13.8428 -13.7376  -8.1561  -8.0479  -7.8842  -7.8833  -7.8655
    -7.8648  -7.6876  -7.6697  -7.6207  -7.5509  -7.5506  -7.2680  -3.4103
    -3.2512  -3.2470  -3.0208  -2.9618  -2.9582  -2.8886  -2.3355  -2.3347
    -2.0681  -1.9415  -1.7747  -1.7609  -1.4916  -1.4729  -1.3391  -1.1851
    -1.1642  -1.1166  -1.1076  -1.0386  -1.0364  -0.9106  -0.8213  -0.8018
    -0.7973  -0.7131  -0.7096  -0.7076  -0.6689  -0.5781  -0.5663  -0.2970
    -0.2539  -0.0706  -0.0360   0.0653   0.0669   0.1616   0.1639   0.2042
     0.2423   0.4274   0.5302   0.5786   0.8123   0.8178   0.8676   0.9017
     0.9626   0.9645   0.9727   1.0011   1.0693   1.1278   1.1718   1.1727
     1.1910   1.3982   1.5259   1.6146   1.6546   1.6613   1.7619   1.7863
     1.7959   1.8661   1.9737   1.9872   2.0185   2.0729   2.1502   2.2885
     2.3360   2.4041   2.4050   2.5299   2.9658   2.9748   4.3158   7.3182
     7.4708   7.4718   8.0533   8.2975   8.4222   8.7146   8.7194   8.7984
     8.8603   9.1278   9.1299   9.1751   9.2068   9.4384   9.5189   9.5353
     9.7266

          k = 0.0000-0.5279 0.0000 ( 34110 PWs)   bands (ev):

   -35.5368 -35.4416 -22.8397 -22.5642 -22.5637 -22.3211 -17.0045 -16.9121
   -16.7788 -16.6643 -16.5843 -16.4969 -14.9395 -14.9350 -14.5312 -14.4776
   -14.4573 -14.2662 -14.2588 -14.1963 -14.0901 -14.0436 -14.0352 -14.0208
   -13.9652 -13.8876 -13.7949  -8.1299  -8.0965  -7.8952  -7.8944  -7.8838
    -7.8828  -7.6614  -7.6608  -7.6426  -7.4950  -7.4947  -7.2160  -3.6782
    -3.4299  -3.4264  -3.2000  -3.1921  -3.1776  -3.0582  -2.3516  -2.3509
    -2.0773  -2.0681  -1.9047  -1.8935  -1.4590  -1.4369  -1.2935  -1.2558
    -1.1921  -1.1778  -1.1635  -1.1609  -1.0964  -1.0015  -0.9269  -0.9150
    -0.9056  -0.8011  -0.8002  -0.8001  -0.7440  -0.6444  -0.5772  -0.2632
    -0.2310  -0.1203  -0.0799   0.0710   0.0725   0.1600   0.1692   0.2101
     0.2389   0.4220   0.4580   0.5181   0.7384   0.7822   0.8506   0.8638
     0.8936   0.9635   1.0116   1.0482   1.0834   1.1548   1.1557   1.3438
     1.3925   1.4211   1.5199   1.5683   1.7657   1.7747   1.7835   1.8179
     2.0503   2.0569   2.0580   2.1028   2.1189   2.1837   2.1856   2.2064
     2.2417   2.5136   2.5657   2.5665   2.7866   2.7973   4.5002   7.5250
     7.8835   7.8843   8.2084   8.5289   8.9823   9.0007   9.0074   9.0232
     9.0439   9.1228   9.2444   9.3509   9.3577   9.4352   9.7655   9.8492
     9.9386

          k = 0.1250 0.0000 0.0000 ( 34183 PWs)   bands (ev):

   -35.5482 -35.4529 -22.9817 -22.7358 -22.7353 -22.4842 -17.0204 -16.9061
   -16.6806 -16.5935 -16.5877 -16.4983 -15.1620 -15.0885 -14.8434 -14.6799
   -14.6689 -14.5400 -14.4117 -14.1533 -14.1519 -13.9564 -13.9396 -13.8078
   -13.7146 -13.6107 -13.4941  -8.2505  -7.9110  -7.9094  -7.8815  -7.7858
    -7.7854  -7.7721  -7.7124  -7.6222  -7.6217  -7.4857  -7.3490  -2.3358
    -2.3354  -2.0839  -1.8342  -1.8299  -1.7698  -1.7654  -1.7612  -1.6992
    -1.6068  -1.5537  -1.4139  -1.3835  -1.1823  -1.1811  -1.0490  -0.8407
    -0.7563  -0.6306  -0.5896  -0.5657  -0.4793  -0.4766  -0.3441  -0.3045
    -0.3020  -0.2925  -0.2439  -0.2309  -0.2266  -0.1974  -0.1623  -0.1454
    -0.1443  -0.0645  -0.0106   0.0784   0.1278   0.1289   0.1562   0.1978
     0.2320   0.2323   0.2559   0.3024   0.3541   0.4168   0.4598   0.4977
     0.6328   0.8206   0.8294   0.8582   0.9269   1.0213   1.0679   1.2234
     1.2404   1.2520   1.4026   1.4117   1.4322   1.4584   1.5242   1.5663
     1.5863   1.8919   1.8940   1.9315   1.9607   2.0136   2.0282   2.0900
     2.1143   2.1789   2.2236   2.2495   2.3525   2.6037   2.6078   5.4306
     5.4344   5.8692   6.4512   6.5605   6.9274   7.0149   7.0417   7.4751
     8.1549   8.2588   8.3942   8.4866   8.6409   8.8375   8.9411   9.1687
     9.3231

          k = 0.1250 0.1320 0.0000 ( 34158 PWs)   bands (ev):

   -35.5463 -35.4511 -22.9600 -22.7099 -22.7094 -22.4595 -16.9852 -16.8707
   -16.6837 -16.6508 -16.5960 -16.5617 -15.0807 -15.0135 -14.7860 -14.6742
   -14.6587 -14.5102 -14.3770 -14.1542 -14.1527 -13.9622 -13.9546 -13.8473
   -13.7490 -13.6351 -13.5444  -8.2271  -8.0045  -7.9302  -7.9294  -7.8481
    -7.8472  -7.7248  -7.7008  -7.5848  -7.5839  -7.5784  -7.3085  -2.3879
    -2.3865  -2.1663  -2.1058  -2.0815  -1.9696  -1.8830  -1.8131  -1.8082
    -1.7344  -1.6575  -1.6023  -1.6014  -1.5784  -1.3073  -1.2583  -1.1086
    -0.7681  -0.7566  -0.7088  -0.6416  -0.6358  -0.5512  -0.5049  -0.4920
    -0.4657  -0.4647  -0.4028  -0.2294  -0.2014  -0.1687  -0.1534  -0.0960
    -0.0390  -0.0036   0.0163   0.0391   0.0494   0.1314   0.1881   0.1954
     0.2271   0.2584   0.3058   0.3221   0.3325   0.3841   0.5566   0.6361
     0.7071   0.9588   1.0420   1.0721   1.0755   1.1569   1.1673   1.2523
     1.2672   1.2861   1.3185   1.3322   1.3508   1.4665   1.5850   1.6269
     1.6500   1.6752   1.6985   1.7024   1.7500   1.8019   2.1120   2.1988
     2.3798   2.3840   2.5653   2.6284   2.8384   2.8611   2.9091   5.7709
     5.7725   6.1311   6.7226   6.8012   7.2060   7.3107   7.3303   7.7496
     8.3262   8.4359   8.5372   8.6576   8.7949   8.8799   9.0396   9.2530
     9.2962

          k = 0.1250 0.2640 0.0000 ( 34093 PWs)   bands (ev):

   -35.5420 -35.4467 -22.9067 -22.6461 -22.6456 -22.3986 -16.8960 -16.8129
   -16.7806 -16.7226 -16.6632 -16.5761 -14.9065 -14.8696 -14.6746 -14.6360
   -14.6314 -14.4406 -14.2914 -14.1365 -14.1320 -14.0115 -14.0021 -13.9500
   -13.8010 -13.7148 -13.6505  -8.1872  -8.1391  -7.9992  -7.9987  -7.8851
    -7.8842  -7.7284  -7.7220  -7.6628  -7.5751  -7.5747  -7.3033  -2.8193
    -2.8070  -2.6734  -2.5761  -2.4554  -2.3918  -2.3913  -2.2443  -2.2433
    -2.0556  -1.7641  -1.7612  -1.6964  -1.5830  -1.5224  -1.4497  -1.4235
    -1.0033  -0.9554  -0.9481  -0.9226  -0.8655  -0.8253  -0.7254  -0.7106
    -0.6568  -0.6562  -0.5774  -0.5302  -0.5080  -0.4628  -0.4384  -0.2831
    -0.2085  -0.0908  -0.0109   0.0028   0.0168   0.1381   0.2275   0.2516
     0.4052   0.4607   0.5360   0.5981   0.7398   0.7826   0.7885   0.8369
     0.9298   1.0526   1.0583   1.1305   1.1453   1.2041   1.3299   1.3446
     1.3699   1.3879   1.4086   1.4278   1.4444   1.5446   1.5586   1.6280
     1.6640   1.6802   1.7007   1.8527   1.9739   1.9761   2.0554   2.3031
     2.5776   2.5816   2.7926   2.8589   3.0838   3.0939   3.7422   6.5843
     6.5848   6.6926   7.4252   7.4330   8.0304   8.0900   8.1032   8.3589
     8.5792   8.7703   8.8203   8.8648   8.9923   9.0379   9.1488   9.2297
     9.3170

          k = 0.1250 0.3960 0.0000 ( 34104 PWs)   bands (ev):

   -35.5376 -35.4423 -22.8521 -22.5801 -22.5796 -22.3358 -16.9472 -16.8552
   -16.7973 -16.6824 -16.6546 -16.5677 -14.8623 -14.8582 -14.5717 -14.5119
   -14.4509 -14.3723 -14.2252 -14.1064 -14.0926 -14.0692 -14.0466 -14.0396
   -13.8797 -13.8328 -13.7250  -8.2391  -8.1128  -8.0296  -8.0290  -7.8966
    -7.8957  -7.7889  -7.7627  -7.6621  -7.6201  -7.6198  -7.3431  -3.3992
    -3.2919  -3.2858  -3.0496  -2.9540  -2.9499  -2.9109  -2.3437  -2.3430
    -2.0844  -1.8803  -1.7547  -1.7518  -1.6158  -1.6017  -1.5400  -1.4308
    -1.2939  -1.2714  -1.2041  -1.1360  -1.0816  -1.0778  -1.0040  -0.8461
    -0.8360  -0.8340  -0.7894  -0.7559  -0.7168  -0.6768  -0.5553  -0.3343
    -0.2929  -0.1439  -0.0314   0.0003   0.0397   0.1826   0.2391   0.2464
     0.4451   0.5123   0.6683   0.7106   0.7617   0.9379   0.9412   1.0022
     1.0831   1.0932   1.1179   1.1280   1.2166   1.2309   1.2658   1.2755
     1.2993   1.4752   1.5747   1.6885   1.7138   1.7571   1.7644   1.7851
     1.8899   1.9390   1.9817   2.0613   2.0929   2.3714   2.3720   2.4222
     2.5260   2.5314   2.7399   2.7898   3.0242   3.0418   4.3034   7.0442
     7.3355   7.3368   8.1043   8.1836   8.2321   8.6023   8.6989   8.7029
     8.8633   8.9545   9.2196   9.3835   9.4424   9.5826   9.6578   9.6778
     9.7320

          k = 0.1250-0.5279 0.0000 ( 34036 PWs)   bands (ev):

   -35.5357 -35.4405 -22.8291 -22.5522 -22.5517 -22.3092 -16.9988 -16.9065
   -16.7539 -16.6509 -16.6388 -16.5640 -14.8948 -14.8907 -14.4588 -14.4180
   -14.4142 -14.2645 -14.2405 -14.1753 -14.1227 -14.0399 -14.0362 -13.9912
   -13.9868 -13.8676 -13.7700  -8.2505  -8.0992  -8.0243  -8.0236  -7.9014
    -7.9005  -7.8060  -7.7851  -7.6608  -7.6542  -7.6536  -7.3687  -3.6684
    -3.4785  -3.4727  -3.2278  -3.1831  -3.1781  -3.0878  -2.3647  -2.3640
    -2.0952  -1.9716  -1.7847  -1.7807  -1.5722  -1.5620  -1.4778  -1.4583
    -1.4243  -1.3149  -1.3133  -1.2867  -1.1734  -1.1651  -1.1577  -0.9139
    -0.9100  -0.9092  -0.8745  -0.8456  -0.8133  -0.7804  -0.5456  -0.3238
    -0.2843  -0.1628  -0.0340   0.0021   0.0608   0.1956   0.2493   0.2518
     0.4462   0.5229   0.6801   0.6923   0.7373   0.9139   0.9697   0.9778
     0.9918   0.9930   1.0638   1.1466   1.2270   1.2990   1.3157   1.3855
     1.4471   1.5007   1.5534   1.7797   1.8159   1.8558   2.0447   2.0587
     2.0696   2.0774   2.1587   2.2046   2.2343   2.3832   2.3860   2.5004
     2.5366   2.5374   2.5906   2.6384   2.9034   2.9240   4.4814   7.0919
     7.5574   7.5580   8.2673   8.3414   8.3466   8.5560   9.0387   9.0853
     9.2288   9.3375   9.3462   9.5637   9.6108   9.8341   9.8804   9.9085
    10.0227

          k = 0.2500 0.0000 0.0000 ( 34204 PWs)   bands (ev):

   -35.5455 -35.4503 -22.9452 -22.6915 -22.6910 -22.4420 -16.9351 -16.8447
   -16.8193 -16.7585 -16.5844 -16.4950 -14.9643 -14.9334 -14.8978 -14.7614
   -14.7198 -14.5634 -14.4236 -14.1674 -14.1663 -14.0029 -13.9752 -13.8630
   -13.8174 -13.6447 -13.5793  -8.2776  -7.9124  -7.9112  -7.8027  -7.7269
    -7.7060  -7.6992  -7.6989  -7.5415  -7.5410  -7.4017  -7.2734  -2.5284
    -2.5265  -2.3163  -2.1729  -2.1720  -2.1080  -1.9860  -1.7090  -1.6967
    -1.6098  -1.4807  -1.4340  -1.3925  -1.1789  -1.1778  -1.1005  -0.9442
    -0.9123  -0.8970  -0.8351  -0.7325  -0.7319  -0.7303  -0.6013  -0.5315
    -0.4981  -0.4935  -0.4652  -0.4058  -0.2789  -0.2462  -0.2136  -0.2119
    -0.1616  -0.1533  -0.0734  -0.0251   0.1151   0.1162   0.2206   0.2225
     0.2678   0.3598   0.3611   0.4905   0.4914   0.5305   0.5874   0.6218
     0.6981   0.7088   0.7640   0.9538   1.0059   1.0302   1.0699   1.1160
     1.3167   1.3288   1.3447   1.3578   1.4531   1.4873   1.4945   1.6027
     1.6471   1.7656   1.7949   1.9005   1.9209   2.0541   2.0658   2.0985
     2.1063   2.1702   2.3660   2.5203   2.5337   2.7103   2.7156   5.8904
     5.8912   6.3364   7.0688   7.1383   7.4290   7.5919   7.6022   8.0386
     8.4996   8.5258   8.6542   8.7521   8.9803   9.3219   9.3648   9.4806
     9.6355

          k = 0.2500 0.1320 0.0000 ( 34143 PWs)   bands (ev):

   -35.5437 -35.4485 -22.9250 -22.6676 -22.6671 -22.4190 -16.9029 -16.8383
   -16.7867 -16.7523 -16.6505 -16.5608 -14.9139 -14.8925 -14.8346 -14.7123
   -14.6678 -14.5280 -14.3795 -14.1533 -14.1532 -14.0024 -13.9872 -13.8836
   -13.8352 -13.6617 -13.6041  -8.2615  -8.0246  -7.9810  -7.9804  -7.8359
    -7.8351  -7.7577  -7.6566  -7.5758  -7.5079  -7.5074  -7.2400  -2.5782
    -2.5729  -2.3540  -2.1689  -2.1634  -2.1388  -2.0558  -2.0338  -1.9827
    -1.9091  -1.8080  -1.6730  -1.5929  -1.5919  -1.3693  -1.3290  -1.2133
    -0.9863  -0.9827  -0.9315  -0.8915  -0.8503  -0.7681  -0.7231  -0.5951
    -0.5820  -0.5485  -0.5356  -0.4226  -0.3615  -0.3011  -0.2727  -0.1785
    -0.1656   0.0058   0.0098   0.0644   0.1022   0.1300   0.1932   0.2338
     0.2475   0.3647   0.3672   0.3959   0.5959   0.6496   0.6820   0.8129
     0.8746   0.9394   0.9504   1.0037   1.0993   1.1387   1.1925   1.2285
     1.2610   1.3295   1.4157   1.4383   1.4695   1.5147   1.5173   1.5683
     1.6188   1.6611   1.7318   1.7685   1.7772   1.8678   2.0734   2.2669
     2.7015   2.7139   2.8923   2.8983   2.9068   2.9724   3.0157   6.1518
     6.1524   6.4585   7.2319   7.2735   7.6991   7.8490   7.8565   8.2849
     8.4967   8.6448   8.6567   8.8894   9.0760   9.0984   9.2214   9.3437
     9.4646

          k = 0.2500 0.2640 0.0000 ( 34141 PWs)   bands (ev):

   -35.5394 -35.4441 -22.8754 -22.6089 -22.6084 -22.3627 -16.8384 -16.8145
   -16.7871 -16.7456 -16.7038 -16.6975 -14.8246 -14.8180 -14.6644 -14.5720
   -14.5349 -14.4392 -14.2624 -14.1281 -14.1262 -14.0525 -14.0341 -13.9311
   -13.8398 -13.7044 -13.6625  -8.3448  -8.2012  -8.2007  -8.1842  -7.9183
    -7.8977  -7.8969  -7.7833  -7.6759  -7.6277  -7.6272  -7.3626  -2.9565
    -2.9365  -2.7009  -2.6162  -2.5184  -2.4049  -2.4037  -2.2765  -2.2759
    -2.1797  -2.1340  -2.1324  -2.0159  -1.9522  -1.5465  -1.4142  -1.3902
    -1.3848  -1.3800  -1.2436  -1.1540  -1.0206  -0.9191  -0.8549  -0.7427
    -0.6971  -0.6903  -0.5869  -0.5631  -0.5616  -0.5554  -0.5320  -0.3622
    -0.3106  -0.2729  -0.2502   0.0468   0.1194   0.1650   0.3657   0.3934
     0.5772   0.6208   0.6859   0.8161   0.8380   0.8822   0.9344   0.9950
     0.9984   1.1726   1.2581   1.2957   1.3208   1.3485   1.4170   1.4596
     1.4914   1.4961   1.5429   1.5629   1.5784   1.6366   1.6544   1.6616
     1.7184   1.7288   1.7568   1.8884   1.8944   1.9181   2.1677   2.3642
     3.0215   3.0241   3.3083   3.3180   3.4590   3.5421   3.7493   6.5560
     6.6945   6.6950   7.6234   7.6768   8.1722   8.3756   8.3812   8.4087
     8.7578   8.8177   9.0125   9.0713   9.1022   9.3016   9.3476   9.3971
     9.4845

          k = 0.2500 0.3960 0.0000 ( 34116 PWs)   bands (ev):

   -35.5350 -35.4398 -22.8247 -22.5485 -22.5480 -22.3048 -16.9351 -16.8433
   -16.8027 -16.7286 -16.7153 -16.6138 -14.7811 -14.7789 -14.4436 -14.4034
   -14.3906 -14.3356 -14.1771 -14.1606 -14.1047 -14.0609 -14.0474 -14.0091
   -13.8482 -13.7886 -13.6945  -8.5033  -8.3212  -8.3206  -8.1449  -8.0592
    -7.9867  -7.9480  -7.9473  -7.8416  -7.8410  -7.6988  -7.5771  -3.4576
    -3.4352  -3.3674  -3.1644  -3.0093  -2.9296  -2.9292  -2.4149  -2.4145
    -2.1995  -2.0989  -2.0926  -1.9926  -1.9098  -1.7851  -1.7414  -1.7203
    -1.5488  -1.4934  -1.4132  -1.3833  -1.2263  -1.1275  -1.1032  -0.8376
    -0.7979  -0.7694  -0.7614  -0.7595  -0.7103  -0.6949  -0.5247  -0.5055
    -0.4546  -0.3804  -0.3180   0.1215   0.2024   0.2346   0.4083   0.4552
     0.7212   0.7551   0.9073   1.0144   1.0149   1.0450   1.0997   1.2850
     1.3167   1.3255   1.3587   1.3615   1.4520   1.4783   1.5450   1.5600
     1.6107   1.6395   1.6937   1.7611   1.7768   1.8146   1.8383   1.9134
     1.9533   1.9629   2.0333   2.0882   2.1757   2.2930   2.2937   2.4531
     2.8530   2.8563   3.5381   3.5567   3.6954   3.7684   4.2690   6.3816
     6.9021   6.9035   7.7228   7.7838   8.3590   8.5660   8.8213   8.8373
     8.8919   9.0899   9.4169   9.5879   9.7180   9.7733   9.8495   9.9333
     9.9430

          k = 0.2500-0.5279 0.0000 ( 34148 PWs)   bands (ev):

   -35.5332 -35.4380 -22.8033 -22.5230 -22.5225 -22.2804 -16.9853 -16.8932
   -16.7972 -16.7100 -16.6891 -16.5741 -14.7778 -14.7750 -14.3263 -14.3241
   -14.3170 -14.2607 -14.2021 -14.1867 -14.1179 -14.0318 -14.0307 -14.0166
   -13.9112 -13.8117 -13.7102  -8.5357  -8.3213  -8.3206  -8.1303  -8.1104
    -8.0729  -8.0361  -8.0357  -7.9078  -7.9069  -7.7149  -7.6814  -3.6701
    -3.6364  -3.6251  -3.3579  -3.2031  -3.1568  -3.1562  -2.4223  -2.4219
    -2.1886  -2.0620  -2.0547  -1.9444  -1.9376  -1.8998  -1.8592  -1.8481
    -1.6739  -1.5835  -1.4426  -1.4138  -1.2984  -1.2127  -1.1956  -0.9079
    -0.8795  -0.8316  -0.7806  -0.7803  -0.7744  -0.7673  -0.5217  -0.4991
    -0.4783  -0.4061  -0.3342   0.1341   0.2334   0.2669   0.4264   0.4877
     0.7570   0.8384   1.0194   1.0713   1.1154   1.1175   1.1189   1.2346
     1.2535   1.3095   1.4096   1.4633   1.4945   1.5202   1.5398   1.5459
     1.5857   1.7454   1.7839   1.9487   1.9586   1.9845   2.0297   2.0548
     2.0765   2.1129   2.1286   2.2040   2.3054   2.4686   2.4693   2.4887
     2.6306   2.6353   3.5582   3.5812   3.7304   3.8003   4.4259   6.2600
     6.8667   6.8679   7.6384   7.7548   8.4355   8.5891   8.9935   9.2264
     9.3307   9.3734   9.5550   9.5733   9.8331   9.8989   9.9756  10.1154
    10.1445

          k = 0.3750 0.0000 0.0000 ( 34140 PWs)   bands (ev):

   -35.5429 -35.4477 -22.9080 -22.6461 -22.6455 -22.3987 -16.9846 -16.8977
   -16.8399 -16.7234 -16.5811 -16.4916 -15.0087 -15.0034 -14.9666 -14.6157
   -14.5962 -14.5646 -14.3864 -14.1791 -14.1730 -14.1108 -14.0443 -13.9370
   -13.8780 -13.6851 -13.6443  -8.2715  -7.8949  -7.8939  -7.7543  -7.7158
    -7.6377  -7.6343  -7.6340  -7.4571  -7.4566  -7.3537  -7.1946  -2.8560
    -2.8529  -2.6737  -2.4986  -2.2955  -2.2947  -2.0256  -1.6268  -1.6023
    -1.5447  -1.5115  -1.4651  -1.3645  -1.1805  -1.1794  -1.1648  -1.1488
    -1.0029  -0.9930  -0.9811  -0.9756  -0.9039  -0.8626  -0.8448  -0.7545
    -0.7040  -0.6937  -0.6873  -0.5780  -0.4055  -0.3665  -0.2270  -0.2085
    -0.1941  -0.1755  -0.1446  -0.0607   0.1022   0.1033   0.1972   0.2084
     0.2255   0.4384   0.4402   0.4614   0.4647   0.4997   0.5670   0.5860
     0.7861   0.8140   0.8433   0.8544   0.9783   1.1245   1.2206   1.2208
     1.2638   1.3124   1.3852   1.3951   1.5334   1.5397   1.5762   1.5995
     1.7000   1.7872   1.8088   1.8445   1.9518   1.9569   2.1155   2.1307
     2.1872   2.2193   2.4175   2.5980   2.6240   2.8253   2.8392   6.5404
     6.5409   6.7489   7.8065   7.8686   8.0358   8.0366   8.1153   8.5104
     8.5168   8.5878   8.7440   9.3611   9.3826   9.5315   9.5370   9.6087
     9.6099

          k = 0.3750 0.1320 0.0000 ( 34185 PWs)   bands (ev):

   -35.5411 -35.4459 -22.8893 -22.6244 -22.6238 -22.3777 -16.9760 -16.8892
   -16.8107 -16.6941 -16.6456 -16.5559 -14.9604 -14.9562 -14.8962 -14.5749
   -14.5519 -14.5040 -14.3310 -14.1511 -14.1492 -14.0877 -14.0363 -13.9304
   -13.9009 -13.7010 -13.6491  -8.2590  -7.9660  -7.9525  -7.9518  -7.7977
    -7.7970  -7.7447  -7.7134  -7.5469  -7.5463  -7.5309  -7.2878  -2.9176
    -2.9105  -2.7177  -2.5294  -2.2943  -2.2935  -2.0491  -1.9974  -1.9862
    -1.8234  -1.7385  -1.6728  -1.5815  -1.5804  -1.4388  -1.4058  -1.2947
    -1.2754  -1.2725  -1.1589  -1.0266  -1.0086  -0.8779  -0.7779  -0.7546
    -0.7057  -0.6288  -0.6068  -0.5277  -0.5023  -0.3808  -0.3728  -0.2322
    -0.2295  -0.0214  -0.0125   0.0855   0.1507   0.1685   0.2142   0.2232
     0.2592   0.3993   0.4738   0.4763   0.5080   0.7052   0.7160   0.8298
     0.8540   0.9248   0.9994   1.0530   1.1718   1.1798   1.2216   1.2699
     1.3105   1.3444   1.3959   1.4007   1.5608   1.5783   1.6108   1.6237
     1.7418   1.7768   1.8025   1.8297   1.9116   1.9520   2.0521   2.2591
     2.7783   2.7866   2.9333   2.9960   3.0049   3.1711   3.2101   6.6625
     6.6898   6.6905   7.8533   7.9169   8.1014   8.1017   8.3006   8.3233
     8.5380   8.7249   8.9555   9.2293   9.2992   9.4207   9.5366   9.6076
     9.6875

          k = 0.3750 0.2640 0.0000 ( 34193 PWs)   bands (ev):

   -35.5368 -35.4415 -22.8436 -22.5710 -22.5705 -22.3261 -16.9556 -16.8689
   -16.7899 -16.7355 -16.6986 -16.6198 -14.8382 -14.8355 -14.7022 -14.4790
   -14.4501 -14.3547 -14.2013 -14.1107 -14.0963 -14.0777 -14.0472 -13.9555
   -13.8680 -13.7137 -13.6708  -8.3982  -8.2539  -8.2533  -8.1877  -7.9998
    -7.9514  -7.9324  -7.9317  -7.8101  -7.8094  -7.6941  -7.5614  -3.2328
    -3.2077  -2.9570  -2.7545  -2.6037  -2.4648  -2.4622  -2.3456  -2.3452
    -2.3180  -2.2179  -2.2144  -2.2083  -2.0126  -1.7421  -1.7134  -1.5758
    -1.5021  -1.4459  -1.2219  -1.2023  -1.0150  -0.9134  -0.8820  -0.8390
    -0.8240  -0.7614  -0.6316  -0.6139  -0.6088  -0.5923  -0.5333  -0.4495
    -0.3767  -0.3365  -0.3081   0.0840   0.1527   0.3202   0.4748   0.4984
     0.6928   0.7330   0.7730   0.8555   0.8679   1.0418   1.0436   1.1379
     1.2057   1.2435   1.2710   1.2790   1.4404   1.4549   1.4882   1.5285
     1.5518   1.6389   1.6721   1.7014   1.7042   1.7555   1.7814   1.7884
     1.8073   1.8425   1.8622   1.8677   1.9124   2.1057   2.1666   2.2849
     3.0216   3.0258   3.7315   3.7651   3.7740   3.8943   3.9670   6.2799
     6.7351   6.7359   7.6432   7.6770   8.3509   8.4369   8.4416   8.6418
     8.8678   9.1632   9.3664   9.3781   9.4609   9.5260   9.5714   9.8328
     9.8915

          k = 0.3750 0.3960 0.0000 ( 34177 PWs)   bands (ev):

   -35.5325 -35.4372 -22.7968 -22.5164 -22.5159 -22.2734 -16.9383 -16.9167
   -16.8508 -16.8261 -16.6558 -16.5395 -14.7033 -14.7019 -14.4452 -14.3852
   -14.3588 -14.1988 -14.1905 -14.1544 -14.0441 -14.0415 -14.0166 -13.9529
   -13.8538 -13.7206 -13.6721  -8.7051  -8.5197  -8.5190  -8.3008  -8.2486
    -8.1847  -8.1843  -8.1365  -7.9349  -7.9339  -7.8632  -7.7185  -3.7122
    -3.6812  -3.4149  -3.3158  -3.2013  -2.9096  -2.9085  -2.5962  -2.5949
    -2.4326  -2.3010  -2.2435  -2.2429  -2.0540  -2.0292  -2.0209  -1.8063
    -1.7458  -1.6118  -1.2440  -1.1810  -1.1728  -1.1719  -1.1449  -0.9233
    -0.9173  -0.8318  -0.8262  -0.7606  -0.6887  -0.6727  -0.6348  -0.5614
    -0.5009  -0.3598  -0.3584   0.1920   0.2918   0.3659   0.5773   0.6755
     0.9179   1.0391   1.1244   1.1926   1.1951   1.2891   1.3162   1.3908
     1.4154   1.5118   1.5203   1.5300   1.6188   1.6424   1.7235   1.7455
     1.7781   1.8075   1.8338   1.8853   1.9478   1.9698   1.9955   2.0133
     2.0432   2.0643   2.1181   2.1972   2.2147   2.2155   2.3761   2.4797
     2.8412   2.8477   4.1970   4.2815   4.2984   4.3727   4.4476   5.8031
     6.4318   6.4327   7.2815   7.4131   8.4909   8.5641   8.9981   9.0260
     9.0860   9.3234   9.4465   9.5405   9.5590   9.6268   9.6605   9.7872
     9.9335

          k = 0.3750-0.5279 0.0000 ( 34192 PWs)   bands (ev):

   -35.5307 -35.4354 -22.7772 -22.4933 -22.4928 -22.2511 -16.9719 -16.9257
   -16.8801 -16.8391 -16.6203 -16.5042 -14.6420 -14.6411 -14.3605 -14.3299
   -14.2590 -14.2476 -14.1772 -14.1082 -14.0269 -14.0240 -14.0226 -13.9539
   -13.8741 -13.7228 -13.6558  -8.8155  -8.6017  -8.6009  -8.4230  -8.3487
    -8.3298  -8.3295  -8.1365  -7.9792  -7.9604  -7.9593  -7.7316  -3.9188
    -3.8873  -3.6513  -3.5498  -3.4017  -3.1349  -3.1338  -2.6147  -2.6135
    -2.4438  -2.3050  -2.2375  -2.2371  -2.1613  -2.1412  -2.0235  -1.8894
    -1.8436  -1.6533  -1.3168  -1.2856  -1.2608  -1.2049  -1.1947  -0.9224
    -0.9191  -0.9177  -0.9099  -0.8455  -0.7868  -0.7138  -0.6496  -0.5604
    -0.4783  -0.3460  -0.3449   0.2237   0.3295   0.3796   0.6137   0.7573
     0.9862   1.1682   1.2883   1.3035   1.3303   1.3408   1.3757   1.3915
     1.4235   1.5844   1.6353   1.6759   1.7093   1.7695   1.7849   1.8003
     1.8427   1.8907   1.9342   2.0204   2.0565   2.0797   2.0936   2.1565
     2.1833   2.2191   2.2685   2.3228   2.4034   2.4059   2.5298   2.5483
     2.5963   2.6059   4.3003   4.4245   4.4540   4.5200   4.5920   5.5982
     6.2543   6.2549   7.1553   7.3248   8.3784   8.5889   8.9923   9.1553
     9.1854   9.3112   9.4062   9.5710   9.6923   9.8130   9.8815   9.8967
     9.9393

          k =-0.5000 0.0000 0.0000 ( 34130 PWs)   bands (ev):

   -35.5418 -35.4466 -22.8924 -22.6269 -22.6264 -22.3804 -17.0370 -16.9502
   -16.7977 -16.6804 -16.5797 -16.4903 -15.0660 -15.0591 -14.9988 -14.6329
   -14.5765 -14.3527 -14.2850 -14.2177 -14.2119 -14.1611 -14.1382 -13.9729
   -13.8934 -13.7033 -13.6664  -8.2616  -7.8846  -7.8836  -7.7428  -7.7053
    -7.6112  -7.6109  -7.6086  -7.4210  -7.4204  -7.3407  -7.1609  -2.9980
    -2.9952  -2.8183  -2.6503  -2.3205  -2.3196  -2.0228  -1.6168  -1.5897
    -1.5790  -1.5468  -1.3389  -1.2619  -1.2262  -1.1947  -1.1844  -1.1833
    -1.1390  -1.1213  -1.0272  -1.0173  -0.9584  -0.9453  -0.8635  -0.8164
    -0.8018  -0.7782  -0.7772  -0.6599  -0.4669  -0.4176  -0.2409  -0.2118
    -0.1803  -0.1803  -0.1490  -0.1234   0.0969   0.0980   0.1690   0.1896
     0.2039   0.4384   0.4396   0.4636   0.4647   0.4921   0.5267   0.5650
     0.7560   0.8500   0.8642   0.8963   0.9251   1.1702   1.1705   1.1820
     1.3974   1.4081   1.4336   1.4692   1.4936   1.5367   1.6278   1.6763
     1.6892   1.6903   1.7559   1.9057   1.9924   2.1019   2.1257   2.1492
     2.1993   2.2186   2.4275   2.5862   2.6318   2.8536   2.8747   6.9095
     7.3134   7.3138   7.3649   7.3657   8.3065   8.3187   8.3546   8.5832
     8.6482   8.7154   9.0865   9.4624   9.4931   9.5416   9.5713   9.7261
     9.7819

          k =-0.5000 0.1320 0.0000 ( 34202 PWs)   bands (ev):

   -35.5400 -35.4448 -22.8744 -22.6061 -22.6056 -22.3603 -17.0277 -16.9410
   -16.7702 -16.6527 -16.6434 -16.5538 -15.0085 -15.0026 -14.9247 -14.5923
   -14.5383 -14.3116 -14.2269 -14.1770 -14.1739 -14.1391 -14.1129 -13.9407
   -13.9310 -13.7225 -13.6638  -8.2461  -7.9236  -7.9228  -7.8613  -7.8328
    -7.7406  -7.7403  -7.7244  -7.6240  -7.6233  -7.4611  -7.3744  -3.0661
    -3.0594  -2.8701  -2.6869  -2.3254  -2.3246  -2.0574  -1.9680  -1.9521
    -1.7671  -1.6914  -1.6646  -1.5762  -1.5750  -1.4775  -1.4388  -1.3908
    -1.3872  -1.3176  -1.2699  -1.1118  -1.0613  -0.8672  -0.8338  -0.8330
    -0.7002  -0.6456  -0.6224  -0.6076  -0.5250  -0.4171  -0.4109  -0.2561
    -0.2554  -0.0359  -0.0227   0.0977   0.1596   0.1745   0.2181   0.2192
     0.3423   0.3427   0.4615   0.5499   0.5510   0.6290   0.6396   0.8052
     0.8325   0.9372   0.9978   1.0878   1.1458   1.1874   1.2181   1.3114
     1.3159   1.3171   1.4541   1.5087   1.5658   1.5985   1.6696   1.7050
     1.7386   1.7616   1.7768   1.9128   1.9567   2.0771   2.1326   2.2432
     2.7851   2.7901   2.9411   3.0150   3.0255   3.2221   3.2533   6.7049
     7.1612   7.1615   7.6680   7.6685   8.1640   8.2148   8.4474   8.4825
     8.5137   8.9439   9.3274   9.4644   9.5703   9.6264   9.6324   9.7087
     9.7193

          k =-0.5000 0.2640 0.0000 ( 34216 PWs)   bands (ev):

   -35.5357 -35.4405 -22.8302 -22.5551 -22.5546 -22.3108 -17.0057 -16.9191
   -16.7867 -16.6991 -16.6955 -16.5825 -14.8570 -14.8529 -14.7202 -14.4957
   -14.4486 -14.2084 -14.1290 -14.1189 -14.1006 -14.0887 -14.0428 -13.9985
   -13.8702 -13.7356 -13.6691  -8.3421  -8.1928  -8.1919  -8.1866  -8.1434
    -8.0418  -8.0415  -7.9232  -7.8734  -7.8726  -7.7388  -7.6731  -3.3712
    -3.3462  -3.1027  -2.8990  -2.5964  -2.4902  -2.4872  -2.3581  -2.3553
    -2.3336  -2.2387  -2.2222  -2.2207  -2.0173  -1.8667  -1.8347  -1.6428
    -1.5457  -1.5254  -1.1441  -1.1151  -0.9889  -0.9332  -0.9323  -0.8672
    -0.8469  -0.7829  -0.6710  -0.6381  -0.6377  -0.6059  -0.5308  -0.4524
    -0.3583  -0.3574  -0.3519   0.0968   0.1636   0.3835   0.5246   0.5372
     0.7342   0.7766   0.8471   0.8855   0.8902   1.1274   1.1306   1.1651
     1.2114   1.2198   1.2459   1.2480   1.4393   1.5087   1.5362   1.5573
     1.5665   1.6139   1.7236   1.7352   1.7432   1.7977   1.8324   1.8521
     1.8763   1.8867   1.9456   1.9830   2.0086   2.0406   2.2203   2.2226
     3.0147   3.0193   3.7458   3.9017   3.9067   4.0254   4.0953   6.1455
     6.7310   6.7316   7.5252   7.6114   8.4263   8.4789   8.5443   8.7620
     9.0936   9.3350   9.3414   9.5485   9.6265   9.6491   9.7731   9.7974
     9.8954

          k =-0.5000 0.3960 0.0000 ( 34176 PWs)   bands (ev):

   -35.5314 -35.4361 -22.7852 -22.5029 -22.5024 -22.2602 -16.9842 -16.9158
   -16.8976 -16.8244 -16.6234 -16.5067 -14.6741 -14.6721 -14.4557 -14.4027
   -14.3733 -14.1841 -14.1450 -14.1010 -14.0419 -14.0407 -13.9525 -13.9380
   -13.8658 -13.6897 -13.6692  -8.7647  -8.5678  -8.5671  -8.4229  -8.3298
    -8.3295  -8.3108  -8.1504  -7.9978  -7.9512  -7.9501  -7.7266  -3.8426
    -3.8087  -3.5260  -3.3356  -3.3015  -2.9011  -2.9000  -2.6663  -2.6647
    -2.5038  -2.3878  -2.2602  -2.2593  -2.1560  -2.1304  -2.0298  -1.8577
    -1.8018  -1.6433  -1.1972  -1.1962  -1.1940  -1.0694  -1.0633  -1.0111
    -1.0069  -0.8509  -0.8496  -0.7456  -0.7366  -0.6839  -0.6737  -0.5609
    -0.5193  -0.3223  -0.3215   0.2102   0.3122   0.4351   0.6535   0.7695
     1.0025   1.1627   1.2167   1.3218   1.3230   1.3327   1.3498   1.4244
     1.4483   1.5654   1.5968   1.6010   1.6212   1.6996   1.7497   1.7846
     1.7928   1.8752   1.8829   1.9722   2.0054   2.0121   2.0346   2.0754
     2.1062   2.1414   2.1849   2.1892   2.2462   2.3159   2.4209   2.5062
     2.8291   2.8368   4.1967   4.5458   4.5499   4.6160   4.6889   5.5832
     6.2361   6.2366   7.1105   7.2639   8.5263   8.5291   8.8938   8.9650
     9.1047   9.4555   9.4697   9.5796   9.6500   9.7143   9.7818   9.8825
     9.9386

          k =-0.5000-0.5279 0.0000 ( 34236 PWs)   bands (ev):

   -35.5296 -35.4343 -22.7663 -22.4809 -22.4804 -22.2389 -16.9753 -16.9664
   -16.8888 -16.8747 -16.5900 -16.4734 -14.5770 -14.5765 -14.4008 -14.3584
   -14.2591 -14.2295 -14.1740 -14.0573 -14.0207 -14.0169 -13.9480 -13.9106
   -13.8975 -13.6588 -13.6508  -8.9305  -8.7139  -8.7131  -8.5387  -8.4603
    -8.4459  -8.4456  -8.1366  -8.0992  -7.9789  -7.9773  -7.7412  -4.0508
    -4.0160  -3.7328  -3.5848  -3.5127  -3.1255  -3.1243  -2.6989  -2.6971
    -2.5306  -2.4084  -2.2512  -2.2503  -2.2494  -2.2297  -2.0288  -1.9308
    -1.8840  -1.6821  -1.3124  -1.3099  -1.2597  -1.1338  -1.1280  -0.9853
    -0.9777  -0.9464  -0.9454  -0.8460  -0.7873  -0.7675  -0.6984  -0.5293
    -0.5184  -0.2936  -0.2927   0.2453   0.3513   0.4487   0.6987   0.8827
     1.0943   1.3401   1.3700   1.3842   1.3927   1.4016   1.4358   1.4438
     1.4738   1.6683   1.6932   1.7578   1.7869   1.8380   1.8758   1.9218
     1.9451   1.9574   2.0155   2.0364   2.0868   2.1152   2.1448   2.1493
     2.2363   2.2828   2.3773   2.3793   2.4174   2.4664   2.5721   2.5838
     2.6066   2.6689   4.2951   4.7461   4.7566   4.8178   4.8852   5.3489
     6.0093   6.0094   6.9725   7.1632   8.3754   8.5409   8.7933   9.0732
     9.0871   9.1327   9.3714   9.5424   9.6004   9.6021   9.9389  10.0220
    10.1583

     the Fermi energy is     2.6044 ev

!    total energy              =   -1842.88389081 Ry
     Harris-Foulkes estimate   =   -1842.88389081 Ry
     estimated scf accuracy    <          8.2E-09 Ry

     The total energy is the sum of the following terms:

     one-electron contribution =  -29968.64660133 Ry
     hartree contribution      =   15137.77756805 Ry
     xc contribution           =    -621.66711973 Ry
     ewald contribution        =   13609.66026288 Ry
     smearing contrib. (-TS)   =      -0.00800068 Ry

     convergence has been achieved in  32 iterations

     negative rho (up, down):  1.509E-03 0.000E+00

     Forces acting on atoms (cartesian axes, Ry/au):

     atom    1 type  4   force =     0.00000000    0.00000000   -0.00015690
     atom    2 type  3   force =     0.00000000    0.00000000    0.00050186
     atom    3 type  4   force =     0.00000000    0.00000000   -0.00078392
     atom    4 type  1   force =     0.00000000    0.00000000   -0.00025328
     atom    5 type  3   force =     0.00000000    0.00000000    0.00047217
     atom    6 type  4   force =     0.00000000    0.00000000   -0.00001217
     atom    7 type  4   force =     0.00000000    0.00000000    0.00026870
     atom    8 type  2   force =     0.00000000    0.00000000   -0.00058634
     atom    9 type  4   force =     0.00000000    0.00000000    0.00026103
     atom   10 type  4   force =     0.00000000    0.00000000    0.00021092
     atom   11 type  3   force =     0.00000000    0.00000000    0.00004165
     atom   12 type  1   force =     0.00000000    0.00000000   -0.00044376
     atom   13 type  4   force =     0.00000000    0.00000000    0.00365821
     atom   14 type  4   force =     0.00000000    0.00000000    0.00613059
     atom   15 type  3   force =     0.00000000    0.00000000   -0.00325340
     atom   16 type  4   force =     0.00000000    0.00000000    0.00440026
     atom   17 type  1   force =     0.00000000    0.00000000    0.01897938
     atom   18 type  3   force =     0.00000000    0.00000000   -0.00290537
     atom   19 type  4   force =     0.00000000    0.00000000   -0.00929437
     atom   20 type  4   force =     0.00000000    0.00000000   -0.00693485
     atom   21 type  2   force =     0.00000000    0.00000000   -0.01245896
     atom   22 type  4   force =     0.00000000    0.00000000    0.00026035
     atom   23 type  4   force =     0.00000000    0.00000000    0.00115926
     atom   24 type  3   force =     0.00000000    0.00000000   -0.00023741
     atom   25 type  1   force =     0.00000000    0.00000000    0.00027982
     atom   26 type  4   force =     0.00000000    0.00000000    0.00100454
     atom   27 type  3   force =     0.00000000    0.00000000   -0.00057078
     atom   28 type  4   force =     0.00000000    0.00000000    0.00026276

     Total force =     0.026942     Total SCF correction =     0.000270


     Computing stress (Cartesian axis) and pressure


     negative rho (up, down):  1.509E-03 0.000E+00
          total   stress  (Ry/bohr**3)                   (kbar)     P=       -5.91
  -0.00004532   0.00000000   0.00000000           -6.67        0.00        0.00
   0.00000000  -0.00002849   0.00000000            0.00       -4.19        0.00
   0.00000000   0.00000000  -0.00004664            0.00        0.00       -6.86


     number of scf cycles    =   2
     number of bfgs steps    =   1

     energy   old            =   -1842.8972569453 Ry
     energy   new            =   -1842.8838908075 Ry

     CASE: energy  _new > energy  _old


 %%%%%%%%%%%%%%%%%%%%%%%%%%%%%%%%%%%%%%%%%%%%%%%%%%%%%%%%%%%%%%%%%%%%%%%%%%%%%%
     Error in routine bfgs (1):
     dE0s is positive which should never happen
 %%%%%%%%%%%%%%%%%%%%%%%%%%%%%%%%%%%%%%%%%%%%%%%%%%%%%%%%%%%%%%%%%%%%%%%%%%%%%%

     stopping ...
