
     Program PWSCF v.6.5 starts on 28Jun2021 at 12:34:44 

     This program is part of the open-source Quantum ESPRESSO suite
     for quantum simulation of materials; please cite
         "P. Giannozzi et al., J. Phys.:Condens. Matter 21 395502 (2009);
         "P. Giannozzi et al., J. Phys.:Condens. Matter 29 465901 (2017);
          URL http://www.quantum-espresso.org", 
     in publications or presentations arising from this work. More details at
     http://www.quantum-espresso.org/quote

     Parallel version (MPI), running on    20 processors

     MPI processes distributed on     7 nodes
     R & G space division:  proc/nbgrp/npool/nimage =      20
     Reading input from CBCO_BaO_cleave_1.5_sep.pwi
Warning: card &CELL ignored
Warning: card     CELL_DYNAMICS = 'BFGS' ignored
Warning: card     PRESS_CONV_THR = 0.5 ignored
Warning: card / ignored

     Current dimensions of program PWSCF are:
     Max number of different atomic species (ntypx) = 10
     Max number of k-points (npk) =  40000
     Max angular momentum in pseudopotentials (lmaxx) =  3

     Subspace diagonalization in iterative solution of the eigenvalue problem:
     one sub-group per band group will be used
     scalapack distributed-memory algorithm (size of sub-group:  4*  4 procs)

     Message from routine setup:
     using ibrav=0 with symmetry is DISCOURAGED, use correct ibrav instead
 
     Parallelization info
     --------------------
     sticks:   dense  smooth     PW     G-vecs:    dense   smooth      PW
     Min         149      50     14                72573    13974    2182
     Max         150      51     15                72612    13999    2227
     Sum        2991    1007    289              1451873   279687   43947
 


     bravais-lattice index     =            0
     lattice parameter (alat)  =       7.4270  a.u.
     unit-cell volume          =    4450.3936 (a.u.)^3
     number of atoms/cell      =           28
     number of atomic types    =            4
     number of electrons       =       227.00
     number of Kohn-Sham states=          137
     kinetic-energy cutoff     =      60.0000  Ry
     charge density cutoff     =     720.0000  Ry
     convergence threshold     =      1.0E-08
     mixing beta               =       0.5000
     number of iterations used =           10  local-TF  mixing
     Exchange-correlation= SLA PW PBE PBE
                           (   1   4   3   4   0   0   0)
     nstep                     =          300


     celldm(1)=   7.427040  celldm(2)=   0.000000  celldm(3)=   0.000000
     celldm(4)=   0.000000  celldm(5)=   0.000000  celldm(6)=   0.000000

     crystal axes: (cart. coord. in units of alat)
               a(1) = (   1.000000   0.000000   0.000000 )  
               a(2) = (   0.000000   0.947081   0.000000 )  
               a(3) = (   0.000000   0.000000  11.470015 )  

     reciprocal axes: (cart. coord. in units 2 pi/alat)
               b(1) = (  1.000000  0.000000  0.000000 )  
               b(2) = (  0.000000  1.055876  0.000000 )  
               b(3) = (  0.000000  0.000000  0.087184 )  


     PseudoPot. # 1 for Ba read from file:
     ./pseudo/Ba.pbe-nsp-van.UPF
     MD5 check sum: 2b9c31dd849566dd297d80989662b7a0
     Pseudo is Ultrasoft + core correction, Zval = 10.0
     Generated by new atomic code, or converted to UPF format
     Using radial grid of  907 points,  6 beta functions with: 
                l(1) =   0
                l(2) =   0
                l(3) =   1
                l(4) =   1
                l(5) =   2
                l(6) =   2
     Q(r) pseudized with  6 coefficients,  rinner =    1.200   1.200   1.200
                                                       1.200   1.200

     PseudoPot. # 2 for Ca read from file:
     ./pseudo/Ca.pbe-nsp-van.UPF
     MD5 check sum: 6471098428ff4fa451746d08035ff179
     Pseudo is Ultrasoft + core correction, Zval = 10.0
     Generated by new atomic code, or converted to UPF format
     Using radial grid of  845 points,  6 beta functions with: 
                l(1) =   0
                l(2) =   0
                l(3) =   1
                l(4) =   1
                l(5) =   2
                l(6) =   2
     Q(r) pseudized with  6 coefficients,  rinner =    1.200   1.200   1.200
                                                       1.200   1.200

     PseudoPot. # 3 for Cu read from file:
     ./pseudo/Cu.pbe-n-van_ak.UPF
     MD5 check sum: 34e3282627ffb533726feb647e090d62
     Pseudo is Ultrasoft + core correction, Zval = 11.0
     Generated by new atomic code, or converted to UPF format
     Using radial grid of  867 points,  6 beta functions with: 
                l(1) =   0
                l(2) =   0
                l(3) =   1
                l(4) =   1
                l(5) =   2
                l(6) =   2
     Q(r) pseudized with  8 coefficients,  rinner =    1.400   1.400   1.400
                                                       1.400   1.400

     PseudoPot. # 4 for O  read from file:
     ./pseudo/O.pbe-van_ak.UPF
     MD5 check sum: 783ce7fe4c79b6a4916957118fed0856
     Pseudo is Ultrasoft, Zval =  6.0
     Generated by new atomic code, or converted to UPF format
     Using radial grid of  737 points,  4 beta functions with: 
                l(1) =   0
                l(2) =   0
                l(3) =   1
                l(4) =   1
     Q(r) pseudized with  8 coefficients,  rinner =    0.800   0.800   0.800


     atomic species   valence    mass     pseudopotential
        Ba            10.00   137.32700     Ba( 1.00)
        Ca            10.00    40.07800     Ca( 1.00)
        Cu            11.00    63.54600     Cu( 1.00)
        O              6.00    15.99900     O ( 1.00)

      4 Sym. Ops. (no inversion) found



   Cartesian axes

     site n.     atom                  positions (alat units)
         1           O   tau(   1) = (   0.0000000   0.4735409  -0.0469745  )
         2           Cu  tau(   2) = (   0.0000000   0.0000000   0.0264565  )
         3           O   tau(   3) = (   0.0000000   0.0000000   0.5030914  )
         4           Ba  tau(   4) = (   0.5000000   0.4735409   0.5690292  )
         5           Cu  tau(   5) = (   0.0000000   0.0000000   1.0374254  )
         6           O   tau(   6) = (   0.5000000   0.0000000   1.0768099  )
         7           O   tau(   7) = (   0.0000000   0.4735409   1.1116985  )
         8           Ca  tau(   8) = (   0.5000000   0.4735409   1.4976260  )
         9           O   tau(   9) = (   0.0000000   0.4735409   1.8667529  )
        10           O   tau(  10) = (   0.5000000   0.0000000   1.9044124  )
        11           Cu  tau(  11) = (   0.0000000   0.0000000   1.9512546  )
        12           Ba  tau(  12) = (   0.5000000   0.4735409   2.4295764  )
        13           O   tau(  13) = (   0.0000000   0.0000000   2.5115362  )
        14           O   tau(  14) = (   0.0000000   0.4735409   2.9918528  )
        15           Cu  tau(  15) = (   0.0000000   0.0000000   2.9919088  )
        16           O   tau(  16) = (   0.0000000   0.0000000   3.4722686  )
        17           Ba  tau(  17) = (   0.5000000   0.4735409   3.5542208  )
        18           Cu  tau(  18) = (   0.0000000   0.0000000   4.4141828  )
        19           O   tau(  19) = (   0.5000000   0.0000000   4.4610249  )
        20           O   tau(  20) = (   0.0000000   0.4735409   4.4986793  )
        21           Ca  tau(  21) = (   0.5000000   0.4735409   4.8678164  )
        22           O   tau(  22) = (   0.0000000   0.4735409   5.2537414  )
        23           O   tau(  23) = (   0.5000000   0.0000000   5.2886300  )
        24           Cu  tau(  24) = (   0.0000000   0.0000000   5.3280171  )
        25           Ba  tau(  25) = (   0.5000000   0.4735409   5.7964107  )
        26           O   tau(  26) = (   0.0000000   0.0000000   5.8623383  )
        27           Cu  tau(  27) = (   0.0000000   0.0000000   6.3389783  )
        28           O   tau(  28) = (   0.0000000   0.4735409   6.4123966  )

     number of k points=    25  Gaussian smearing, width (Ry)=  0.0100
                       cart. coord. in units 2pi/alat
        k(    1) = (   0.0000000   0.0000000   0.0000000), wk =   0.0312500
        k(    2) = (   0.0000000   0.1319845   0.0000000), wk =   0.0625000
        k(    3) = (   0.0000000   0.2639689   0.0000000), wk =   0.0625000
        k(    4) = (   0.0000000   0.3959534   0.0000000), wk =   0.0625000
        k(    5) = (   0.0000000  -0.5279378   0.0000000), wk =   0.0312500
        k(    6) = (   0.1250000   0.0000000   0.0000000), wk =   0.0625000
        k(    7) = (   0.1250000   0.1319845   0.0000000), wk =   0.1250000
        k(    8) = (   0.1250000   0.2639689   0.0000000), wk =   0.1250000
        k(    9) = (   0.1250000   0.3959534   0.0000000), wk =   0.1250000
        k(   10) = (   0.1250000  -0.5279378   0.0000000), wk =   0.0625000
        k(   11) = (   0.2500000   0.0000000   0.0000000), wk =   0.0625000
        k(   12) = (   0.2500000   0.1319845   0.0000000), wk =   0.1250000
        k(   13) = (   0.2500000   0.2639689   0.0000000), wk =   0.1250000
        k(   14) = (   0.2500000   0.3959534   0.0000000), wk =   0.1250000
        k(   15) = (   0.2500000  -0.5279378   0.0000000), wk =   0.0625000
        k(   16) = (   0.3750000   0.0000000   0.0000000), wk =   0.0625000
        k(   17) = (   0.3750000   0.1319845   0.0000000), wk =   0.1250000
        k(   18) = (   0.3750000   0.2639689   0.0000000), wk =   0.1250000
        k(   19) = (   0.3750000   0.3959534   0.0000000), wk =   0.1250000
        k(   20) = (   0.3750000  -0.5279378   0.0000000), wk =   0.0625000
        k(   21) = (  -0.5000000   0.0000000   0.0000000), wk =   0.0312500
        k(   22) = (  -0.5000000   0.1319845   0.0000000), wk =   0.0625000
        k(   23) = (  -0.5000000   0.2639689   0.0000000), wk =   0.0625000
        k(   24) = (  -0.5000000   0.3959534   0.0000000), wk =   0.0625000
        k(   25) = (  -0.5000000  -0.5279378   0.0000000), wk =   0.0312500

     Dense  grid:  1451873 G-vectors     FFT dimensions: (  64,  64, 729)

     Smooth grid:   279687 G-vectors     FFT dimensions: (  40,  36, 432)

     Estimated max dynamical RAM per process >     463.32 MB

     Estimated total dynamical RAM >       9.05 GB

     Initial potential from superposition of free atoms

     starting charge  226.84630, renormalised to  227.00000

     negative rho (up, down):  3.483E-03 0.000E+00
     Starting wfcs are  195 randomized atomic wfcs

     total cpu time spent up to now is       11.7 secs

     Self-consistent Calculation

     iteration #  1     ecut=    60.00 Ry     beta= 0.50
     Davidson diagonalization with overlap
     ethr =  1.00E-02,  avg # of iterations =  2.0

     negative rho (up, down):  5.103E-04 0.000E+00

     total cpu time spent up to now is       29.3 secs

     total energy              =   -1840.87027182 Ry
     Harris-Foulkes estimate   =   -1845.37385276 Ry
     estimated scf accuracy    <      18.19781397 Ry

     iteration #  2     ecut=    60.00 Ry     beta= 0.50
     Davidson diagonalization with overlap
     ethr =  8.02E-03,  avg # of iterations =  1.9

     negative rho (up, down):  2.693E-04 0.000E+00

     total cpu time spent up to now is       46.7 secs

     total energy              =   -1842.49433370 Ry
     Harris-Foulkes estimate   =   -1843.28415256 Ry
     estimated scf accuracy    <       4.68362678 Ry

     iteration #  3     ecut=    60.00 Ry     beta= 0.50
     Davidson diagonalization with overlap
     ethr =  2.06E-03,  avg # of iterations =  1.6

     negative rho (up, down):  2.522E-04 0.000E+00

     total cpu time spent up to now is       64.2 secs

     total energy              =   -1842.84988209 Ry
     Harris-Foulkes estimate   =   -1842.98830060 Ry
     estimated scf accuracy    <       3.83649023 Ry

     iteration #  4     ecut=    60.00 Ry     beta= 0.50
     Davidson diagonalization with overlap
     ethr =  1.69E-03,  avg # of iterations =  1.0

     negative rho (up, down):  2.422E-04 0.000E+00

     total cpu time spent up to now is       80.3 secs

     total energy              =   -1842.84274126 Ry
     Harris-Foulkes estimate   =   -1842.92289361 Ry
     estimated scf accuracy    <       0.75616508 Ry

     iteration #  5     ecut=    60.00 Ry     beta= 0.50
     Davidson diagonalization with overlap
     ethr =  3.33E-04,  avg # of iterations =  4.1

     negative rho (up, down):  2.383E-04 0.000E+00

     total cpu time spent up to now is      100.7 secs

     total energy              =   -1842.86059704 Ry
     Harris-Foulkes estimate   =   -1842.88532784 Ry
     estimated scf accuracy    <       1.55731845 Ry

     iteration #  6     ecut=    60.00 Ry     beta= 0.50
     Davidson diagonalization with overlap
     ethr =  3.33E-04,  avg # of iterations =  1.1

     negative rho (up, down):  2.330E-04 0.000E+00

     total cpu time spent up to now is      117.5 secs

     total energy              =   -1842.85176995 Ry
     Harris-Foulkes estimate   =   -1842.87189365 Ry
     estimated scf accuracy    <       0.64938487 Ry

     iteration #  7     ecut=    60.00 Ry     beta= 0.50
     Davidson diagonalization with overlap
     ethr =  2.86E-04,  avg # of iterations =  2.0

     negative rho (up, down):  2.317E-04 0.000E+00

     total cpu time spent up to now is      135.2 secs

     total energy              =   -1842.85416396 Ry
     Harris-Foulkes estimate   =   -1842.86100600 Ry
     estimated scf accuracy    <       0.84271972 Ry

     iteration #  8     ecut=    60.00 Ry     beta= 0.50
     Davidson diagonalization with overlap
     ethr =  2.86E-04,  avg # of iterations =  1.0

     negative rho (up, down):  2.306E-04 0.000E+00

     total cpu time spent up to now is      151.3 secs

     total energy              =   -1842.84713107 Ry
     Harris-Foulkes estimate   =   -1842.85827078 Ry
     estimated scf accuracy    <       0.49257503 Ry

     iteration #  9     ecut=    60.00 Ry     beta= 0.50
     Davidson diagonalization with overlap
     ethr =  2.17E-04,  avg # of iterations =  2.8

     negative rho (up, down):  2.318E-04 0.000E+00

     total cpu time spent up to now is      169.8 secs

     total energy              =   -1842.84639600 Ry
     Harris-Foulkes estimate   =   -1842.85131208 Ry
     estimated scf accuracy    <       0.16372353 Ry

     iteration # 10     ecut=    60.00 Ry     beta= 0.50
     Davidson diagonalization with overlap
     ethr =  7.21E-05,  avg # of iterations =  6.9

     negative rho (up, down):  2.364E-04 0.000E+00

     total cpu time spent up to now is      194.1 secs

     total energy              =   -1842.84111879 Ry
     Harris-Foulkes estimate   =   -1842.84814588 Ry
     estimated scf accuracy    <       0.08192004 Ry

     iteration # 11     ecut=    60.00 Ry     beta= 0.50
     Davidson diagonalization with overlap
     c_bands:  1 eigenvalues not converged
     c_bands:  3 eigenvalues not converged
     ethr =  3.61E-05,  avg # of iterations =  6.7

     negative rho (up, down):  2.365E-04 0.000E+00

     total cpu time spent up to now is      218.0 secs

     total energy              =   -1842.84172460 Ry
     Harris-Foulkes estimate   =   -1842.84325485 Ry
     estimated scf accuracy    <       0.02518254 Ry

     iteration # 12     ecut=    60.00 Ry     beta= 0.50
     Davidson diagonalization with overlap
     ethr =  1.11E-05,  avg # of iterations =  7.9

     negative rho (up, down):  2.354E-04 0.000E+00

     total cpu time spent up to now is      243.9 secs

     total energy              =   -1842.84130965 Ry
     Harris-Foulkes estimate   =   -1842.84214305 Ry
     estimated scf accuracy    <       0.02914262 Ry

     iteration # 13     ecut=    60.00 Ry     beta= 0.50
     Davidson diagonalization with overlap
     ethr =  1.11E-05,  avg # of iterations =  1.4

     negative rho (up, down):  7.024E-04 0.000E+00

     total cpu time spent up to now is      260.6 secs

     total energy              =   -1842.84022306 Ry
     Harris-Foulkes estimate   =   -1842.84144643 Ry
     estimated scf accuracy    <       0.03137549 Ry

     iteration # 14     ecut=    60.00 Ry     beta= 0.50
     Davidson diagonalization with overlap
     c_bands:  1 eigenvalues not converged
     ethr =  1.11E-05,  avg # of iterations =  3.6

     negative rho (up, down):  2.332E-03 0.000E+00

     total cpu time spent up to now is      280.3 secs

     total energy              =   -1842.83960859 Ry
     Harris-Foulkes estimate   =   -1842.84038831 Ry
     estimated scf accuracy    <       0.03945149 Ry

     iteration # 15     ecut=    60.00 Ry     beta= 0.50
     Davidson diagonalization with overlap
     c_bands:  1 eigenvalues not converged
     c_bands:  1 eigenvalues not converged
     ethr =  1.11E-05,  avg # of iterations =  2.9

     negative rho (up, down):  3.724E-03 0.000E+00

     total cpu time spent up to now is      299.2 secs

     total energy              =   -1842.83883220 Ry
     Harris-Foulkes estimate   =   -1842.83969740 Ry
     estimated scf accuracy    <       0.03971235 Ry

     iteration # 16     ecut=    60.00 Ry     beta= 0.50
     Davidson diagonalization with overlap
     ethr =  1.11E-05,  avg # of iterations =  3.0

     negative rho (up, down):  7.398E-03 0.000E+00

     total cpu time spent up to now is      318.0 secs

     total energy              =   -1842.83769326 Ry
     Harris-Foulkes estimate   =   -1842.83891808 Ry
     estimated scf accuracy    <       0.03228586 Ry

     iteration # 17     ecut=    60.00 Ry     beta= 0.50
     Davidson diagonalization with overlap
     ethr =  1.11E-05,  avg # of iterations =  5.4

     negative rho (up, down):  1.402E-02 0.000E+00

     total cpu time spent up to now is      340.2 secs

     total energy              =   -1842.83680704 Ry
     Harris-Foulkes estimate   =   -1842.83783187 Ry
     estimated scf accuracy    <       0.01924092 Ry

     iteration # 18     ecut=    60.00 Ry     beta= 0.50
     Davidson diagonalization with overlap
     ethr =  8.48E-06,  avg # of iterations =  8.0

     negative rho (up, down):  1.421E-02 0.000E+00

     total cpu time spent up to now is      366.5 secs

     total energy              =   -1842.83652463 Ry
     Harris-Foulkes estimate   =   -1842.83692320 Ry
     estimated scf accuracy    <       0.00913991 Ry

     iteration # 19     ecut=    60.00 Ry     beta= 0.50
     Davidson diagonalization with overlap
     ethr =  4.03E-06,  avg # of iterations =  9.0

     negative rho (up, down):  7.487E-03 0.000E+00

     total cpu time spent up to now is      394.0 secs

     total energy              =   -1842.83641306 Ry
     Harris-Foulkes estimate   =   -1842.83660932 Ry
     estimated scf accuracy    <       0.00230177 Ry

     iteration # 20     ecut=    60.00 Ry     beta= 0.50
     Davidson diagonalization with overlap
     ethr =  1.01E-06,  avg # of iterations =  6.4

     negative rho (up, down):  3.239E-03 0.000E+00

     total cpu time spent up to now is      417.9 secs

     total energy              =   -1842.83640491 Ry
     Harris-Foulkes estimate   =   -1842.83648479 Ry
     estimated scf accuracy    <       0.00065095 Ry

     iteration # 21     ecut=    60.00 Ry     beta= 0.50
     Davidson diagonalization with overlap
     c_bands:  1 eigenvalues not converged
     c_bands:  1 eigenvalues not converged
     ethr =  2.87E-07,  avg # of iterations = 10.1

     negative rho (up, down):  1.416E-03 0.000E+00

     total cpu time spent up to now is      447.1 secs

     total energy              =   -1842.83642571 Ry
     Harris-Foulkes estimate   =   -1842.83642685 Ry
     estimated scf accuracy    <       0.00034371 Ry

     iteration # 22     ecut=    60.00 Ry     beta= 0.50
     Davidson diagonalization with overlap
     c_bands:  1 eigenvalues not converged
     ethr =  1.51E-07,  avg # of iterations =  7.0

     negative rho (up, down):  1.419E-03 0.000E+00

     total cpu time spent up to now is      471.7 secs

     total energy              =   -1842.83641197 Ry
     Harris-Foulkes estimate   =   -1842.83643542 Ry
     estimated scf accuracy    <       0.00014455 Ry

     iteration # 23     ecut=    60.00 Ry     beta= 0.50
     Davidson diagonalization with overlap
     ethr =  6.37E-08,  avg # of iterations =  2.4

     negative rho (up, down):  1.601E-03 0.000E+00

     total cpu time spent up to now is      489.7 secs

     total energy              =   -1842.83642540 Ry
     Harris-Foulkes estimate   =   -1842.83642116 Ry
     estimated scf accuracy    <       0.00009491 Ry

     iteration # 24     ecut=    60.00 Ry     beta= 0.50
     Davidson diagonalization with overlap
     ethr =  4.18E-08,  avg # of iterations =  1.8

     negative rho (up, down):  1.745E-03 0.000E+00

     total cpu time spent up to now is      507.1 secs

     total energy              =   -1842.83642901 Ry
     Harris-Foulkes estimate   =   -1842.83642781 Ry
     estimated scf accuracy    <       0.00004462 Ry

     iteration # 25     ecut=    60.00 Ry     beta= 0.50
     Davidson diagonalization with overlap
     ethr =  1.97E-08,  avg # of iterations =  1.9

     negative rho (up, down):  1.557E-03 0.000E+00

     total cpu time spent up to now is      524.5 secs

     total energy              =   -1842.83642664 Ry
     Harris-Foulkes estimate   =   -1842.83642993 Ry
     estimated scf accuracy    <       0.00002652 Ry

     iteration # 26     ecut=    60.00 Ry     beta= 0.50
     Davidson diagonalization with overlap
     ethr =  1.17E-08,  avg # of iterations =  1.6

     negative rho (up, down):  1.355E-03 0.000E+00

     total cpu time spent up to now is      541.5 secs

     total energy              =   -1842.83642651 Ry
     Harris-Foulkes estimate   =   -1842.83642709 Ry
     estimated scf accuracy    <       0.00001514 Ry

     iteration # 27     ecut=    60.00 Ry     beta= 0.50
     Davidson diagonalization with overlap
     ethr =  6.67E-09,  avg # of iterations =  1.8

     negative rho (up, down):  1.481E-03 0.000E+00

     total cpu time spent up to now is      558.7 secs

     total energy              =   -1842.83642635 Ry
     Harris-Foulkes estimate   =   -1842.83642679 Ry
     estimated scf accuracy    <       0.00000525 Ry

     iteration # 28     ecut=    60.00 Ry     beta= 0.50
     Davidson diagonalization with overlap
     ethr =  2.31E-09,  avg # of iterations =  1.2

     negative rho (up, down):  1.552E-03 0.000E+00

     total cpu time spent up to now is      575.7 secs

     total energy              =   -1842.83642633 Ry
     Harris-Foulkes estimate   =   -1842.83642650 Ry
     estimated scf accuracy    <       0.00000063 Ry

     iteration # 29     ecut=    60.00 Ry     beta= 0.50
     Davidson diagonalization with overlap
     ethr =  2.79E-10,  avg # of iterations =  3.4

     negative rho (up, down):  1.533E-03 0.000E+00

     total cpu time spent up to now is      596.5 secs

     total energy              =   -1842.83642641 Ry
     Harris-Foulkes estimate   =   -1842.83642641 Ry
     estimated scf accuracy    <       0.00000015 Ry

     iteration # 30     ecut=    60.00 Ry     beta= 0.50
     Davidson diagonalization with overlap
     ethr =  6.39E-11,  avg # of iterations =  2.2

     negative rho (up, down):  1.530E-03 0.000E+00

     total cpu time spent up to now is      614.8 secs

     total energy              =   -1842.83642642 Ry
     Harris-Foulkes estimate   =   -1842.83642643 Ry
     estimated scf accuracy    <       0.00000015 Ry

     iteration # 31     ecut=    60.00 Ry     beta= 0.50
     Davidson diagonalization with overlap
     ethr =  6.39E-11,  avg # of iterations =  1.0

     negative rho (up, down):  1.527E-03 0.000E+00

     total cpu time spent up to now is      631.5 secs

     total energy              =   -1842.83642642 Ry
     Harris-Foulkes estimate   =   -1842.83642643 Ry
     estimated scf accuracy    <       0.00000007 Ry

     iteration # 32     ecut=    60.00 Ry     beta= 0.50
     Davidson diagonalization with overlap
     ethr =  3.30E-11,  avg # of iterations =  1.0

     negative rho (up, down):  1.517E-03 0.000E+00

     total cpu time spent up to now is      648.1 secs

     total energy              =   -1842.83642644 Ry
     Harris-Foulkes estimate   =   -1842.83642643 Ry
     estimated scf accuracy    <       0.00000005 Ry

     iteration # 33     ecut=    60.00 Ry     beta= 0.50
     Davidson diagonalization with overlap
     ethr =  2.23E-11,  avg # of iterations =  1.0

     negative rho (up, down):  1.518E-03 0.000E+00

     total cpu time spent up to now is      664.5 secs

     total energy              =   -1842.83642643 Ry
     Harris-Foulkes estimate   =   -1842.83642644 Ry
     estimated scf accuracy    <       0.00000002 Ry

     iteration # 34     ecut=    60.00 Ry     beta= 0.50
     Davidson diagonalization with overlap
     ethr =  9.17E-12,  avg # of iterations =  1.0

     negative rho (up, down):  1.517E-03 0.000E+00

     total cpu time spent up to now is      681.2 secs

     total energy              =   -1842.83642644 Ry
     Harris-Foulkes estimate   =   -1842.83642644 Ry
     estimated scf accuracy    <       0.00000001 Ry

     iteration # 35     ecut=    60.00 Ry     beta= 0.50
     Davidson diagonalization with overlap
     ethr =  6.59E-12,  avg # of iterations =  1.0

     negative rho (up, down):  1.508E-03 0.000E+00

     total cpu time spent up to now is      697.0 secs

     End of self-consistent calculation

          k = 0.0000 0.0000 0.0000 ( 35029 PWs)   bands (ev):

   -35.6726 -35.5203 -23.8860 -22.8719 -22.8712 -22.6390 -17.1767 -16.9990
   -16.7237 -16.7123 -16.5846 -16.5677 -15.3862 -15.2670 -15.0144 -14.7528
   -14.7448 -14.6578 -14.4507 -14.2622 -14.2583 -14.0646 -14.0396 -13.9116
   -13.8294 -13.7123 -13.6018  -9.1207  -8.7416  -8.6522  -8.0034  -8.0010
    -7.9657  -7.9654  -7.8251  -7.7728  -7.7720  -7.6826  -7.5167  -2.4118
    -2.4104  -2.1993  -1.9107  -1.9066  -1.8535  -1.7518  -1.7164  -1.6421
    -1.6267  -1.5677  -1.5215  -1.3489  -1.3031  -1.3011  -1.2250  -1.0061
    -0.7849  -0.7636  -0.5408  -0.5392  -0.4616  -0.4567  -0.3991  -0.3685
    -0.3490  -0.3469  -0.3452  -0.3337  -0.3309  -0.3045  -0.2415  -0.2305
    -0.2093  -0.1988  -0.1196  -0.1176   0.0164   0.0180   0.0183   0.0214
     0.0620   0.0912   0.1215   0.1873   0.2187   0.2412   0.2943   0.3020
     0.5020   0.5296   0.6777   0.8003   0.8012   0.8624   0.8807   1.0995
     1.1457   1.2296   1.2656   1.2951   1.3215   1.3249   1.4158   1.4265
     1.5341   1.6784   1.7046   1.7385   1.7414   1.8812   1.8963   1.9344
     1.9567   1.9870   2.0599   2.1434   2.1465   2.4449   2.4537   4.9369
     5.1350   5.1562   5.6494   6.0072   6.4011   6.6767   6.6837   6.8918
     7.4367   7.8927   7.9971   8.0435   8.2151   8.3805   8.5006   8.6152
     8.9810

          k = 0.0000 0.1320 0.0000 ( 34975 PWs)   bands (ev):

   -35.6707 -35.5185 -23.8649 -22.8452 -22.8445 -22.6136 -17.1406 -16.9627
   -16.7848 -16.7214 -16.6396 -16.5823 -15.2974 -15.1866 -14.9592 -14.7583
   -14.7440 -14.6304 -14.4208 -14.2717 -14.2650 -14.0694 -14.0548 -13.9590
   -13.8744 -13.7808 -13.6254  -9.1102  -8.7046  -8.6952  -8.0029  -8.0009
    -7.9178  -7.9175  -7.8239  -7.8138  -7.8136  -7.6376  -7.5649  -2.4690
    -2.4684  -2.2836  -2.2344  -2.2180  -2.1130  -1.9688  -1.8366  -1.7313
    -1.7267  -1.7253  -1.6992  -1.6092  -1.4349  -1.3549  -1.3338  -1.2605
    -0.8316  -0.7256  -0.7046  -0.6731  -0.6590  -0.6383  -0.6365  -0.5436
    -0.5416  -0.4262  -0.3129  -0.2863  -0.2594  -0.2510  -0.2303  -0.2286
    -0.2074  -0.1319  -0.0983  -0.0962  -0.0760  -0.0255   0.0405   0.0416
     0.0610   0.0898   0.1741   0.1969   0.2226   0.2844   0.3338   0.3962
     0.5079   0.6571   0.8229   0.9490   0.9689   0.9981   0.9983   1.0571
     1.0712   1.0986   1.2176   1.3075   1.3225   1.3930   1.4132   1.4340
     1.5461   1.6312   1.6670   1.6878   1.7205   1.7446   1.9023   1.9085
     1.9151   1.9177   2.1915   2.2545   2.6588   2.7328   2.7518   5.2690
     5.5117   5.5179   5.9512   6.3433   6.6135   6.9737   6.9871   7.1353
     7.5899   8.0638   8.1205   8.2235   8.4254   8.5299   8.6650   8.8219
     8.8694

          k = 0.0000 0.2640 0.0000 ( 34841 PWs)   bands (ev):

   -35.6663 -35.5140 -23.8131 -22.7794 -22.7786 -22.5508 -17.0486 -16.9391
   -16.8706 -16.7924 -16.7157 -16.5766 -15.0967 -15.0233 -14.8145 -14.8059
   -14.7649 -14.5690 -14.3525 -14.2593 -14.2391 -14.1083 -14.0959 -14.0929
   -13.9794 -13.9189 -13.6835  -9.0802  -8.7900  -8.6124  -8.0024  -8.0009
    -7.9054  -7.9043  -7.8177  -7.7974  -7.7971  -7.6692  -7.5244  -2.9173
    -2.9023  -2.8521  -2.7004  -2.5214  -2.5092  -2.5015  -2.3636  -2.3617
    -2.1935  -1.7793  -1.6769  -1.6510  -1.5536  -1.5512  -1.5458  -1.2878
    -1.0772  -1.0661  -1.0224  -0.9552  -0.8884  -0.8878  -0.7336  -0.7245
    -0.6342  -0.6242  -0.6055  -0.5805  -0.5780  -0.5581  -0.4672  -0.4084
    -0.2740  -0.2421  -0.0701  -0.0680  -0.0330   0.0124   0.0282   0.1327
     0.1513   0.2908   0.3486   0.3981   0.5317   0.6005   0.6136   0.6188
     0.6552   0.8043   0.8850   0.9231   0.9694   1.0555   1.0829   1.0830
     1.0838   1.1199   1.1953   1.2029   1.2511   1.4281   1.5053   1.5095
     1.5775   1.6351   1.6453   1.8339   1.8355   1.8909   1.8927   1.9055
     1.9988   2.0001   2.2971   2.3835   2.9564   2.9591   3.5314   5.9662
     6.4049   6.4059   6.6471   7.0431   7.2238   7.5093   7.8076   7.8138
     8.1328   8.3323   8.5644   8.6738   8.8083   8.8656   8.9027   8.9873
     9.2455

          k = 0.0000 0.3960 0.0000 ( 34822 PWs)   bands (ev):

   -35.6619 -35.5096 -23.7600 -22.7112 -22.7104 -22.4860 -17.0754 -16.9469
   -16.9283 -16.7682 -16.7101 -16.5709 -15.0153 -15.0074 -14.7682 -14.6780
   -14.6348 -14.5266 -14.3176 -14.2440 -14.1925 -14.1839 -14.1804 -14.1666
   -14.0884 -13.9825 -13.7668  -9.0335  -8.8856  -8.5162  -8.0024  -8.0010
    -7.9836  -7.9824  -7.8123  -7.7600  -7.6689  -7.6686  -7.4044  -3.5893
    -3.3699  -3.3643  -3.1461  -3.0800  -3.0763  -2.9548  -2.4540  -2.4524
    -2.2169  -2.1227  -1.8889  -1.8866  -1.6121  -1.5864  -1.4709  -1.3194
    -1.2835  -1.2188  -1.2133  -1.1573  -1.1502  -1.1124  -0.9490  -0.9187
    -0.9131  -0.8325  -0.8274  -0.7943  -0.7918  -0.6370  -0.6101  -0.4212
    -0.3509  -0.2484  -0.2106  -0.0530  -0.0510   0.0435   0.0455   0.0850
     0.1366   0.4088   0.4355   0.4839   0.5020   0.5755   0.6951   0.8147
     0.8409   0.8426   0.8690   0.8814   0.9653   1.0013   1.0534   1.0549
     1.1156   1.2069   1.3330   1.3946   1.5362   1.5423   1.6383   1.6621
     1.6861   1.7920   1.8541   1.8587   1.8696   1.9090   2.0831   2.1425
     2.2446   2.2857   2.2870   2.3395   2.8494   2.8529   4.1025   6.4913
     6.8256   7.3528   7.3534   7.7980   8.1574   8.2450   8.3395   8.5979
     8.6103   8.8672   9.0047   9.0064   9.0543   9.1297   9.3331   9.3616
     9.4113

          k = 0.0000-0.5279 0.0000 ( 34886 PWs)   bands (ev):

   -35.6601 -35.5078 -23.7376 -22.6822 -22.6815 -22.4586 -17.1275 -16.9800
   -16.9019 -16.7234 -16.7077 -16.5686 -15.0575 -15.0513 -14.6532 -14.5895
   -14.5785 -14.4436 -14.3540 -14.3491 -14.2611 -14.2144 -14.1610 -14.1536
   -14.0229 -14.0174 -13.8342  -8.9844  -8.9510  -8.4751  -8.0133  -8.0121
    -8.0020  -8.0005  -7.8041  -7.8003  -7.6130  -7.6127  -7.3524  -3.8578
    -3.5483  -3.5439  -3.3217  -3.3104  -3.2989  -3.1245  -2.4701  -2.4686
    -2.2500  -2.2254  -2.0198  -2.0178  -1.5812  -1.5499  -1.4619  -1.3759
    -1.3288  -1.2983  -1.2820  -1.2781  -1.1882  -1.1471  -1.0690  -1.0362
    -1.0130  -0.9196  -0.9180  -0.8821  -0.8702  -0.7107  -0.5993  -0.3903
    -0.3350  -0.3047  -0.2489  -0.0474  -0.0453   0.0416   0.0528   0.0908
     0.1372   0.3360   0.4311   0.4369   0.4464   0.4773   0.7286   0.7489
     0.7718   0.8529   0.9293   0.9573   0.9811   1.0364   1.0379   1.1561
     1.2514   1.3195   1.3360   1.3499   1.6518   1.6536   1.6559   1.7082
     1.9308   1.9316   1.9403   1.9803   2.0195   2.0408   2.0484   2.1071
     2.1179   2.3286   2.4472   2.4486   2.6697   2.6751   4.2866   6.4405
     7.3011   7.7117   7.7658   7.7690   8.3156   8.8037   8.8688   8.8932
     8.9209   8.9349   9.0452   9.1137   9.2395   9.2573   9.2639   9.5098
     9.6434

          k = 0.1250 0.0000 0.0000 ( 34971 PWs)   bands (ev):

   -35.6715 -35.5192 -23.8723 -22.8539 -22.8531 -22.6218 -17.1434 -16.9650
   -16.8039 -16.7109 -16.6659 -16.5663 -15.2838 -15.1740 -15.0335 -14.7986
   -14.7843 -14.6628 -14.4530 -14.2712 -14.2680 -14.0763 -14.0527 -13.9335
   -13.8870 -13.7472 -13.6117  -9.1458  -8.6870  -8.6280  -8.0291  -8.0272
    -7.9040  -7.9033  -7.8583  -7.7403  -7.7395  -7.6226  -7.4863  -2.4541
    -2.4531  -2.2285  -1.9531  -1.9452  -1.8886  -1.8869  -1.8823  -1.8244
    -1.6284  -1.6199  -1.5374  -1.4739  -1.3010  -1.2990  -1.2426  -1.0333
    -0.8875  -0.7784  -0.7025  -0.7008  -0.5979  -0.5944  -0.4686  -0.4323
    -0.4229  -0.4199  -0.3571  -0.3515  -0.3405  -0.3073  -0.3025  -0.2916
    -0.2596  -0.2450  -0.1395  -0.0025   0.0092   0.0110   0.0333   0.0858
     0.1140   0.1143   0.1205   0.1544   0.1900   0.2882   0.3385   0.4011
     0.6042   0.6493   0.7095   0.7190   0.7776   0.8984   0.9370   1.0790
     1.1171   1.1285   1.1727   1.2814   1.3180   1.3658   1.4009   1.4351
     1.5775   1.6515   1.6635   1.7320   1.8296   1.8477   1.8905   1.9079
     2.0252   2.0659   2.0790   2.1905   2.2248   2.4852   2.4892   5.1601
     5.3156   5.3280   5.8632   6.2511   6.5555   6.8838   6.8974   7.0733
     7.5310   8.0372   8.1718   8.2946   8.3583   8.5380   8.7099   8.8425
     8.9633

          k = 0.1250 0.1320 0.0000 ( 34962 PWs)   bands (ev):

   -35.6696 -35.5174 -23.8517 -22.8280 -22.8272 -22.5971 -17.1082 -16.9296
   -16.8069 -16.7741 -16.6674 -16.6304 -15.2023 -15.1035 -14.9762 -14.7931
   -14.7726 -14.6330 -14.4164 -14.2722 -14.2681 -14.0812 -14.0695 -13.9734
   -13.9216 -13.8021 -13.6325  -9.1227  -8.8329  -8.5464  -8.0483  -8.0472
    -7.9663  -7.9649  -7.8533  -7.7175  -7.7022  -7.7018  -7.4457  -2.5058
    -2.5044  -2.2975  -2.2186  -2.2084  -2.0959  -1.9564  -1.9320  -1.9216
    -1.8627  -1.8411  -1.7207  -1.7194  -1.6013  -1.4418  -1.3485  -1.2906
    -0.9039  -0.8785  -0.8546  -0.7600  -0.7538  -0.6928  -0.6649  -0.6220
    -0.5837  -0.5832  -0.4819  -0.3521  -0.3105  -0.2940  -0.2678  -0.2369
    -0.1919  -0.1359  -0.1105  -0.0744  -0.0733   0.0556   0.0675   0.0839
     0.1017   0.1342   0.1827   0.2075   0.2253   0.2498   0.4223   0.4769
     0.5661   0.8076   0.8812   0.9525   0.9553   1.0094   1.0642   1.1000
     1.1304   1.1477   1.1910   1.2165   1.2200   1.2837   1.4732   1.4948
     1.5114   1.5659   1.5754   1.5832   1.6386   1.7291   1.8644   1.9731
     2.2616   2.2702   2.4356   2.5637   2.6745   2.7420   2.7568   5.4359
     5.6542   5.6572   6.1317   6.5371   6.7336   7.1555   7.1924   7.2634
     7.6952   8.2071   8.2406   8.3424   8.5395   8.6363   8.7702   8.8359
     9.0061

          k = 0.1250 0.2640 0.0000 ( 34855 PWs)   bands (ev):

   -35.6653 -35.5130 -23.8012 -22.7642 -22.7634 -22.5361 -17.0191 -16.9360
   -16.8406 -16.7893 -16.7865 -16.6485 -15.0268 -14.9750 -14.8229 -14.7946
   -14.7408 -14.5638 -14.3314 -14.2546 -14.2406 -14.1313 -14.1165 -14.0830
   -13.9842 -13.9264 -13.6815  -9.0776  -8.9715  -8.5367  -8.1173  -8.1166
    -8.0032  -8.0017  -7.8624  -7.8190  -7.6932  -7.6926  -7.4404  -2.9394
    -2.9227  -2.8421  -2.7114  -2.5247  -2.5097  -2.5021  -2.3630  -2.3611
    -2.2046  -1.8831  -1.8772  -1.8347  -1.7420  -1.5730  -1.5604  -1.5335
    -1.1483  -1.0719  -1.0690  -1.0473  -1.0204  -0.9659  -0.9114  -0.7835
    -0.7747  -0.7744  -0.6546  -0.6261  -0.6184  -0.5832  -0.5387  -0.4077
    -0.2970  -0.2259  -0.1885  -0.1134  -0.1016   0.0556   0.1079   0.1258
     0.2640   0.3017   0.4121   0.4838   0.4973   0.6607   0.6631   0.7119
     0.8598   0.9229   0.9392   1.0025   1.0162   1.1100   1.1217   1.2212
     1.2218   1.2638   1.2704   1.2974   1.3105   1.3665   1.4450   1.4852
     1.4989   1.5545   1.5968   1.8155   1.8323   1.8606   1.8640   2.1018
     2.4587   2.4660   2.6699   2.7673   2.9672   2.9746   3.5332   6.0578
     6.4660   6.4669   6.6352   7.1123   7.3028   7.5509   7.9715   7.9750
     8.1554   8.2999   8.6827   8.7281   8.8316   8.9063   8.9373   9.0288
     9.0964

          k = 0.1250 0.3960 0.0000 ( 34872 PWs)   bands (ev):

   -35.6609 -35.5085 -23.7494 -22.6982 -22.6974 -22.4733 -17.0702 -16.9232
   -16.9204 -16.7780 -16.7410 -16.6400 -14.9803 -14.9742 -14.6944 -14.6278
   -14.6156 -14.5079 -14.2957 -14.2268 -14.2238 -14.1786 -14.1699 -14.1406
   -14.1134 -13.9770 -13.7511  -9.0766  -8.9890  -8.5849  -8.1477  -8.1467
    -8.0147  -8.0133  -7.9137  -7.8189  -7.7382  -7.7377  -7.4802  -3.5774
    -3.4112  -3.4024  -3.1752  -3.0714  -3.0678  -2.9739  -2.4621  -2.4607
    -2.2319  -2.0643  -1.8731  -1.8685  -1.7361  -1.7151  -1.6686  -1.4725
    -1.4216  -1.3746  -1.3722  -1.2664  -1.2117  -1.1936  -1.0580  -1.0401
    -0.9553  -0.9509  -0.9271  -0.8666  -0.8372  -0.7571  -0.5976  -0.4584
    -0.3934  -0.2778  -0.1981  -0.1096  -0.0727   0.0869   0.1204   0.1261
     0.2984   0.3333   0.4468   0.5875   0.6646   0.8190   0.8203   0.8225
     0.8997   0.9757   0.9818   1.0489   1.0937   1.0989   1.1469   1.1623
     1.2364   1.2663   1.3824   1.5520   1.5844   1.6007   1.6365   1.6733
     1.7557   1.8317   1.8644   1.8713   2.0329   2.2362   2.2530   2.2542
     2.4062   2.4161   2.6164   2.6913   2.9086   2.9231   4.0951   6.4143
     6.7443   7.2174   7.2183   7.7567   8.0146   8.0532   8.2033   8.5802
     8.5890   8.7538   8.8774   9.0997   9.2822   9.3406   9.3733   9.4444
     9.5269

          k = 0.1250-0.5279 0.0000 ( 34840 PWs)   bands (ev):

   -35.6590 -35.5067 -23.7276 -22.6703 -22.6695 -22.4468 -17.1219 -16.9745
   -16.8770 -16.7742 -16.6977 -16.6364 -15.0128 -15.0072 -14.5805 -14.5493
   -14.5189 -14.4415 -14.3345 -14.3254 -14.2477 -14.2263 -14.1576 -14.1542
   -14.0444 -14.0007 -13.8064  -9.0727  -8.9858  -8.6139  -8.1424  -8.1412
    -8.0196  -8.0181  -7.9238  -7.8176  -7.7724  -7.7721  -7.5060  -3.8472
    -3.5972  -3.5895  -3.3528  -3.3013  -3.2964  -3.1500  -2.4832  -2.4817
    -2.2420  -2.1595  -1.9032  -1.8975  -1.6914  -1.6766  -1.5976  -1.5709
    -1.5538  -1.4687  -1.4369  -1.3496  -1.2981  -1.2696  -1.2135  -1.0906
    -1.0377  -1.0280  -1.0255  -0.9542  -0.9322  -0.8612  -0.5840  -0.4519
    -0.3903  -0.2917  -0.2071  -0.0920  -0.0446   0.0960   0.1312   0.1320
     0.2939   0.3529   0.4789   0.5557   0.6260   0.6519   0.8487   0.8637
     0.8728   0.8749   0.9395   1.0729   1.1483   1.1800   1.1934   1.2426
     1.3140   1.3287   1.3510   1.5790   1.6948   1.7457   1.9209   1.9406
     1.9448   1.9549   2.0285   2.0874   2.1470   2.2647   2.2691   2.3138
     2.4182   2.4195   2.4675   2.5392   2.7870   2.8076   4.2767   6.2753
     7.3668   7.4371   7.4394   7.4480   8.1201   8.2147   8.2871   8.9415
     8.9605   9.0263   9.2223   9.2352   9.3526   9.6443   9.6525   9.7355
     9.7481

          k = 0.2500 0.0000 0.0000 ( 34980 PWs)   bands (ev):

   -35.6688 -35.5165 -23.8388 -22.8096 -22.8088 -22.5795 -17.0581 -16.9679
   -16.8783 -16.8311 -16.7076 -16.5630 -15.0895 -15.0840 -15.0403 -14.8819
   -14.8244 -14.6870 -14.4632 -14.2854 -14.2836 -14.1259 -14.0823 -14.0310
   -13.9665 -13.8167 -13.6374  -9.1697  -8.5947  -8.5686  -8.0306  -8.0289
    -7.8810  -7.8173  -7.8168  -7.6596  -7.6588  -7.5389  -7.4108  -2.6466
    -2.6436  -2.4467  -2.2901  -2.2901  -2.1486  -2.1099  -1.8287  -1.8130
    -1.7340  -1.5574  -1.5537  -1.4871  -1.2977  -1.2957  -1.2927  -1.1061
    -1.0836  -0.9968  -0.9503  -0.8653  -0.8505  -0.8499  -0.7264  -0.6769
    -0.6148  -0.6114  -0.5274  -0.5095  -0.4035  -0.3615  -0.3572  -0.3320
    -0.3295  -0.2896  -0.2316  -0.1541  -0.0035  -0.0017   0.0523   0.1017
     0.1052   0.2412   0.2434   0.3610   0.3732   0.4200   0.4687   0.5299
     0.5800   0.6082   0.7355   0.7933   0.8115   0.8498   0.9063   0.9570
     1.1962   1.2143   1.2249   1.2436   1.3252   1.3470   1.3817   1.4115
     1.5184   1.5501   1.6425   1.7864   1.7936   1.7996   1.9388   1.9624
     1.9979   2.0917   2.2157   2.3789   2.4730   2.5928   2.5966   5.6740
     5.7732   5.7752   6.3782   6.8497   6.9876   7.3712   7.4742   7.5080
     7.8752   8.3968   8.4308   8.5806   8.6297   8.8735   9.1311   9.1903
     9.1927

          k = 0.2500 0.1320 0.0000 ( 34937 PWs)   bands (ev):

   -35.6670 -35.5147 -23.8194 -22.7857 -22.7849 -22.5566 -17.0261 -16.9615
   -16.8468 -16.8238 -16.7737 -16.6287 -15.0332 -15.0256 -15.0028 -14.8334
   -14.7730 -14.6518 -14.4157 -14.2712 -14.2711 -14.1227 -14.0958 -14.0321
   -14.0025 -13.8451 -13.6520  -9.1467  -8.8600  -8.4788  -8.0991  -8.0982
    -7.9541  -7.9528  -7.9038  -7.7197  -7.6260  -7.6253  -7.3772  -2.6968
    -2.6892  -2.4840  -2.2826  -2.2815  -2.1854  -2.1757  -2.1410  -2.1009
    -2.0367  -1.8864  -1.8571  -1.7115  -1.7099  -1.5009  -1.4315  -1.3869
    -1.1093  -1.0982  -1.0695  -0.9963  -0.9552  -0.9208  -0.7779  -0.7422
    -0.7099  -0.6924  -0.6665  -0.5675  -0.4593  -0.4226  -0.3736  -0.2974
    -0.2746  -0.1196  -0.1084  -0.1025  -0.0586   0.0241   0.0602   0.1147
     0.1235   0.2412   0.2489   0.2977   0.3577   0.5198   0.5735   0.6944
     0.7882   0.8162   0.8313   0.8387   0.9619   0.9739   1.0823   1.0973
     1.1362   1.1485   1.2917   1.3285   1.3384   1.3833   1.3995   1.4079
     1.4159   1.4974   1.6283   1.6502   1.6646   1.8390   1.8906   2.0297
     2.5793   2.5995   2.7220   2.7751   2.7870   2.8255   2.9469   5.8457
     6.0338   6.0346   6.5588   6.9450   7.1091   7.4343   7.7307   7.7379
     8.0847   8.2558   8.5167   8.5359   8.7671   8.9162   9.0102   9.0876
     9.2798

          k = 0.2500 0.2640 0.0000 ( 34895 PWs)   bands (ev):

   -35.6627 -35.5104 -23.7720 -22.7270 -22.7262 -22.5002 -16.9619 -16.9373
   -16.9102 -16.8186 -16.7684 -16.7594 -14.9429 -14.9332 -14.8530 -14.6944
   -14.6440 -14.5644 -14.2910 -14.2463 -14.2439 -14.1723 -14.1429 -14.0632
   -14.0149 -13.9277 -13.6789  -9.1720  -9.0719  -8.5892  -8.3192  -8.3185
    -8.0603  -8.0158  -8.0145  -7.8314  -7.7458  -7.7450  -7.5000  -3.0764
    -3.0496  -2.8387  -2.7849  -2.5643  -2.5228  -2.5165  -2.3949  -2.3940
    -2.3107  -2.2513  -2.2509  -2.1216  -2.0330  -1.7373  -1.5346  -1.5048
    -1.5031  -1.4906  -1.3733  -1.2000  -1.1764  -1.0390  -1.0023  -0.9205
    -0.8160  -0.8039  -0.7174  -0.6807  -0.6764  -0.6437  -0.6121  -0.4901
    -0.4295  -0.3787  -0.2918  -0.0602  -0.0439  -0.0231   0.2305   0.2487
     0.3995   0.4251   0.5112   0.6970   0.7103   0.7562   0.8330   0.8778
     0.8792   1.0527   1.1300   1.1622   1.1979   1.2516   1.2637   1.2948
     1.3339   1.3819   1.4077   1.4253   1.4587   1.4801   1.5088   1.5303
     1.5895   1.6023   1.6347   1.7746   1.7757   1.9262   1.9392   2.1506
     2.9034   2.9053   3.1888   3.2025   3.3346   3.4621   3.5414   6.1689
     6.5333   6.5767   6.5791   7.3170   7.4973   7.6164   8.2002   8.2633
     8.2642   8.5978   8.6537   8.8720   8.9619   9.0644   9.1804   9.2181
     9.2543

          k = 0.2500 0.3960 0.0000 ( 34882 PWs)   bands (ev):

   -35.6583 -35.5060 -23.7236 -22.6666 -22.6658 -22.4424 -17.0582 -16.9260
   -16.9114 -16.8517 -16.7888 -16.6719 -14.8990 -14.8958 -14.6235 -14.5242
   -14.5037 -14.4679 -14.2988 -14.2590 -14.1823 -14.1648 -14.1401 -14.1386
   -14.0662 -13.9696 -13.7112  -9.3314  -9.0178  -8.8023  -8.4393  -8.4383
    -8.1913  -8.0661  -8.0650  -7.9597  -7.9589  -7.8496  -7.7176  -3.5835
    -3.5487  -3.5383  -3.2913  -3.0622  -3.0471  -3.0420  -2.5330  -2.5324
    -2.3346  -2.2143  -2.2120  -2.1008  -1.9776  -1.9508  -1.8584  -1.8514
    -1.6764  -1.5566  -1.5375  -1.4824  -1.4038  -1.2412  -1.2348  -0.9826
    -0.9141  -0.9101  -0.8831  -0.8738  -0.8638  -0.7686  -0.6328  -0.5834
    -0.5530  -0.4926  -0.3575  -0.0310   0.0300   0.0965   0.2665   0.3123
     0.5023   0.5605   0.7478   0.8955   0.8962   0.9179   0.9978   1.1511
     1.1899   1.2028   1.2337   1.2383   1.3052   1.3824   1.4086   1.4208
     1.4279   1.5300   1.5579   1.6356   1.6685   1.6856   1.7261   1.7719
     1.7876   1.8396   1.8828   1.9117   2.1478   2.1747   2.1757   2.2540
     2.7348   2.7374   3.4178   3.4432   3.5723   3.6813   4.0737   5.8983
     6.7712   6.7841   6.8090   7.5622   7.6865   7.7086   8.1783   8.7119
     8.7245   8.7848   8.9796   9.2662   9.5334   9.5967   9.6597   9.6660
     9.7438

          k = 0.2500-0.5279 0.0000 ( 34904 PWs)   bands (ev):

   -35.6565 -35.5042 -23.7032 -22.6411 -22.6403 -22.4179 -17.1083 -16.9612
   -16.9205 -16.8122 -16.7835 -16.6323 -14.8958 -14.8920 -14.4519 -14.4458
   -14.4373 -14.4311 -14.3136 -14.3001 -14.2629 -14.1504 -14.1486 -14.1316
   -14.0592 -13.9638 -13.7375  -9.3632  -8.9921  -8.9195  -8.4394  -8.4382
    -8.2113  -8.1542  -8.1536  -8.0259  -8.0246  -7.8650  -7.8275  -3.8297
    -3.7635  -3.7489  -3.4841  -3.2805  -3.2748  -3.2448  -2.5405  -2.5397
    -2.3243  -2.1761  -2.1750  -2.0824  -2.0576  -2.0086  -1.9929  -1.9248
    -1.7685  -1.6751  -1.5772  -1.5260  -1.4709  -1.3272  -1.3240  -1.0337
    -0.9911  -0.9618  -0.9533  -0.8971  -0.8885  -0.8505  -0.6466  -0.5844
    -0.5752  -0.5062  -0.3605  -0.0270   0.0609   0.1394   0.2779   0.3514
     0.5950   0.6086   0.8440   0.9460   0.9992   1.0002   1.0139   1.0568
     1.1198   1.1423   1.2707   1.3573   1.3864   1.4071   1.4197   1.4854
     1.4963   1.5379   1.5862   1.7586   1.8271   1.8734   1.9043   1.9403
     1.9474   1.9841   2.0068   2.0560   2.2712   2.2951   2.3505   2.3514
     2.5125   2.5160   3.4376   3.4692   3.6078   3.7124   4.2425   5.7124
     6.7456   6.7494   7.0296   7.6075   7.6303   7.7284   7.9578   8.6719
     9.0626   9.1639   9.4368   9.4477   9.5764   9.7717   9.8670   9.9835
    10.0032

          k = 0.3750 0.0000 0.0000 ( 34922 PWs)   bands (ev):

   -35.6662 -35.5139 -23.8046 -22.7641 -22.7633 -22.5362 -17.1078 -16.9725
   -16.9629 -16.7803 -16.7043 -16.5596 -15.1613 -15.1237 -15.1198 -14.7370
   -14.7073 -14.6925 -14.4289 -14.2989 -14.2904 -14.2429 -14.1377 -14.1317
   -14.0052 -13.8684 -13.6700  -9.1641  -8.5363  -8.5074  -8.0131  -8.0115
    -7.8724  -7.7524  -7.7520  -7.5752  -7.5743  -7.4902  -7.3321  -2.9745
    -2.9694  -2.8006  -2.5218  -2.4137  -2.4125  -2.1768  -1.7474  -1.7168
    -1.6663  -1.6176  -1.5883  -1.4512  -1.3545  -1.2992  -1.2973  -1.2938
    -1.1885  -1.1000  -1.0923  -1.0706  -1.0056  -0.9836  -0.9697  -0.8874
    -0.8146  -0.8115  -0.7371  -0.7156  -0.5299  -0.4826  -0.3717  -0.3664
    -0.3259  -0.3187  -0.2729  -0.2292  -0.0164  -0.0145   0.0040   0.0927
     0.0958   0.3196   0.3224   0.3440   0.3467   0.3669   0.4392   0.4972
     0.5630   0.6700   0.7472   0.8268   0.8322   0.9391   1.1024   1.1025
     1.1371   1.2099   1.2335   1.2650   1.2822   1.3126   1.4261   1.4711
     1.5606   1.6743   1.6816   1.7165   1.8254   1.8497   1.9098   2.0517
     2.0890   2.1232   2.2539   2.4852   2.5068   2.7089   2.7173   6.1965
     6.4223   6.4232   6.7441   7.3340   7.6838   7.8495   7.9181   7.9211
     8.3186   8.4076   8.4656   8.6463   9.2413   9.2870   9.3399   9.4088
     9.4345

          k = 0.3750 0.1320 0.0000 ( 34945 PWs)   bands (ev):

   -35.6644 -35.5121 -23.7866 -22.7424 -22.7416 -22.5152 -17.0992 -16.9639
   -16.9338 -16.7687 -16.7511 -16.6238 -15.0912 -15.0743 -15.0728 -14.6969
   -14.6633 -14.6312 -14.3770 -14.2695 -14.2671 -14.2163 -14.1274 -14.1151
   -14.0405 -13.8760 -13.6817  -9.1441  -8.7972  -8.5325  -8.0706  -8.0695
    -7.9159  -7.9148  -7.8980  -7.6701  -7.6648  -7.6641  -7.4251  -3.0365
    -3.0261  -2.8448  -2.5451  -2.4125  -2.4113  -2.1949  -2.1215  -2.1011
    -1.9488  -1.8564  -1.8213  -1.7001  -1.6983  -1.5624  -1.5124  -1.4643
    -1.3940  -1.3890  -1.2907  -1.1664  -1.0286  -0.9804  -0.9152  -0.8776
    -0.8068  -0.7914  -0.7273  -0.6863  -0.6254  -0.5009  -0.4880  -0.3506
    -0.3460  -0.1424  -0.1293  -0.0494   0.0057   0.0483   0.0583   0.1054
     0.1069   0.2413   0.3415   0.3588   0.3654   0.5813   0.6050   0.7012
     0.7444   0.7577   0.8780   0.9372   1.0038   1.0525   1.0986   1.1242
     1.1599   1.2360   1.2760   1.2867   1.2930   1.3780   1.4550   1.5018
     1.6097   1.6493   1.6628   1.7043   1.7481   1.9176   2.0291   2.0633
     2.6542   2.6682   2.7495   2.8661   2.8922   3.0439   3.1159   6.2315
     6.5715   6.5721   6.7448   7.2608   7.7313   7.8492   7.9834   7.9840
     8.2324   8.4083   8.5669   8.7869   9.0520   9.2361   9.2692   9.4165
     9.4772

          k = 0.3750 0.2640 0.0000 ( 34983 PWs)   bands (ev):

   -35.6601 -35.5078 -23.7424 -22.6891 -22.6883 -22.4637 -17.0789 -16.9434
   -16.9131 -16.8586 -16.7667 -16.6767 -14.9563 -14.9525 -14.8896 -14.6016
   -14.5611 -14.4817 -14.2738 -14.2299 -14.2089 -14.1967 -14.1240 -14.0817
   -14.0526 -13.9153 -13.6890  -9.2301  -9.0677  -8.7781  -8.3719  -8.3711
    -8.1172  -8.0505  -8.0495  -7.9282  -7.9271  -7.8449  -7.7003  -3.3529
    -3.3193  -3.0831  -2.7858  -2.7649  -2.5830  -2.5776  -2.4638  -2.4632
    -2.4422  -2.3343  -2.3322  -2.2884  -2.1652  -1.8642  -1.8196  -1.7329
    -1.6517  -1.4744  -1.3464  -1.3105  -1.1924  -1.0339  -1.0144  -0.9614
    -0.9326  -0.9253  -0.7746  -0.7345  -0.7304  -0.6824  -0.5988  -0.5771
    -0.4696  -0.4552  -0.3762  -0.0293   0.0072   0.1453   0.3015   0.3606
     0.4974   0.5447   0.6133   0.7342   0.7474   0.9234   0.9251   1.0220
     1.0861   1.1068   1.1510   1.1621   1.3091   1.3176   1.3405   1.3857
     1.4178   1.4678   1.4805   1.5529   1.5739   1.5922   1.6478   1.6704
     1.6743   1.7179   1.7283   1.7413   1.9031   1.9403   2.0843   2.1344
     2.9034   2.9065   3.5442   3.6440   3.6498   3.7662   3.8756   5.9089
     6.6169   6.6174   6.7121   7.3783   7.5618   7.6548   8.3216   8.3275
     8.5075   8.6935   8.9148   9.0236   9.1550   9.3366   9.3963   9.5450
     9.6237

          k = 0.3750 0.3960 0.0000 ( 34949 PWs)   bands (ev):

   -35.6558 -35.5034 -23.6974 -22.6345 -22.6337 -22.4109 -17.0616 -17.0398
   -16.9245 -16.8948 -16.7789 -16.5968 -14.8212 -14.8195 -14.6241 -14.5101
   -14.4690 -14.3243 -14.3132 -14.2610 -14.1623 -14.1592 -14.0826 -14.0557
   -14.0021 -13.9689 -13.6739  -9.5411  -9.0768  -9.0126  -8.6377  -8.6367
    -8.3904  -8.3028  -8.3023  -8.0531  -8.0514  -8.0083  -7.8734  -3.8325
    -3.7916  -3.5561  -3.4767  -3.2271  -3.0281  -3.0265  -2.7142  -2.7130
    -2.5584  -2.3657  -2.3607  -2.3550  -2.1779  -2.1753  -2.1208  -1.9430
    -1.8124  -1.7633  -1.4264  -1.2949  -1.2913  -1.2884  -1.2858  -1.0428
    -1.0292  -0.9523  -0.9413  -0.8948  -0.8329  -0.7783  -0.7408  -0.6098
    -0.5549  -0.4774  -0.4756   0.0532   0.1667   0.1953   0.3690   0.5417
     0.7551   0.8103   0.9568   1.0739   1.0750   1.1624   1.1991   1.2683
     1.3042   1.3658   1.3978   1.4020   1.4822   1.5546   1.5789   1.6299
     1.6491   1.6711   1.6914   1.7535   1.7787   1.8364   1.8616   1.8670
     1.9178   1.9608   1.9686   2.0307   2.0968   2.0974   2.2707   2.3751
     2.7228   2.7281   4.0320   4.1650   4.1695   4.2468   4.3515   5.3586
     6.3135   6.3142   6.7982   7.2705   7.4454   7.5141   8.3551   8.5748
     8.8992   8.9231   9.2547   9.4140   9.4455   9.4834   9.5165   9.6206
     9.8028

          k = 0.3750-0.5279 0.0000 ( 34968 PWs)   bands (ev):

   -35.6540 -35.5016 -23.6785 -22.6114 -22.6106 -22.3886 -17.0950 -17.0490
   -16.9481 -16.9135 -16.7435 -16.5616 -14.7598 -14.7589 -14.4813 -14.4400
   -14.4351 -14.3700 -14.2781 -14.2334 -14.1775 -14.1426 -14.1406 -14.0374
   -14.0010 -13.9293 -13.6656  -9.6523  -9.2009  -8.9946  -8.7198  -8.7185
    -8.4869  -8.4479  -8.4475  -8.1359  -8.0789  -8.0770  -7.8875  -4.0393
    -3.9978  -3.8111  -3.6910  -3.4302  -3.2534  -3.2517  -2.7327  -2.7315
    -2.5698  -2.3645  -2.3549  -2.3502  -2.2847  -2.2299  -2.1769  -2.0237
    -1.8738  -1.8528  -1.4968  -1.4008  -1.3989  -1.3219  -1.3181  -1.0420
    -1.0375  -1.0358  -1.0209  -0.9732  -0.8651  -0.8418  -0.7750  -0.6113
    -0.5420  -0.4644  -0.4622   0.0871   0.2045   0.2116   0.3869   0.6242
     0.8253   0.9596   1.1187   1.1862   1.1876   1.2191   1.2679   1.2698
     1.3109   1.4317   1.4922   1.5608   1.5816   1.6323   1.6582   1.6857
     1.7054   1.7668   1.8342   1.9058   1.9264   1.9470   1.9608   1.9830
     2.0523   2.0598   2.1122   2.1963   2.2852   2.2878   2.3416   2.4778
     2.4857   2.5161   4.1556   4.3099   4.3221   4.3945   4.4930   5.1328
     6.1360   6.1367   6.8035   7.1879   7.4360   7.4804   8.3127   8.3621
     9.0454   9.0699   9.2811   9.3833   9.4514   9.6738   9.7492   9.7888
     9.8627

          k =-0.5000 0.0000 0.0000 ( 34926 PWs)   bands (ev):

   -35.6651 -35.5128 -23.7903 -22.7450 -22.7442 -22.5180 -17.1602 -17.0252
   -16.9207 -16.7369 -16.7029 -16.5583 -15.2006 -15.1757 -15.1738 -14.7586
   -14.6810 -14.4844 -14.4062 -14.3111 -14.3026 -14.2810 -14.2091 -14.1872
   -14.0166 -13.8856 -13.6863  -9.1556  -8.5198  -8.4814  -8.0028  -8.0012
    -7.8628  -7.7293  -7.7289  -7.5391  -7.5382  -7.4768  -7.2985  -3.1165
    -3.1118  -2.9448  -2.6764  -2.4388  -2.4374  -2.1746  -1.7375  -1.7001
    -1.6992  -1.6597  -1.4617  -1.3835  -1.3741  -1.3621  -1.3031  -1.3012
    -1.2583  -1.2346  -1.2243  -1.0875  -1.0818  -1.0231  -0.9848  -0.9139
    -0.8967  -0.8950  -0.8394  -0.8321  -0.5934  -0.5375  -0.3769  -0.3635
    -0.3526  -0.3253  -0.2996  -0.2398  -0.0217  -0.0199   0.0073   0.0575
     0.0622   0.3197   0.3218   0.3448   0.3459   0.3592   0.4010   0.4597
     0.4831   0.7334   0.8113   0.8123   0.8658   0.9750   1.0519   1.0524
     1.1674   1.2429   1.2800   1.2872   1.3106   1.3925   1.5074   1.5696
     1.5705   1.5725   1.6101   1.7833   1.8667   1.8733   2.0564   2.0657
     2.0939   2.1374   2.2603   2.4846   2.4896   2.7344   2.7516   6.4966
     6.6842   7.1953   7.1958   7.2466   7.2477   7.5862   8.1686   8.2180
     8.4602   8.5395   8.5521   8.9597   9.3701   9.3780   9.4112   9.4637
     9.4928

          k =-0.5000 0.1320 0.0000 ( 34958 PWs)   bands (ev):

   -35.6633 -35.5110 -23.7728 -22.7242 -22.7234 -22.4978 -17.1510 -17.0160
   -16.8932 -16.7666 -16.7093 -16.6217 -15.1329 -15.1193 -15.1087 -14.7178
   -14.6431 -14.4425 -14.3477 -14.2753 -14.2743 -14.2584 -14.1771 -14.1504
   -14.0545 -13.8857 -13.6989  -9.1345  -8.6986  -8.6375  -8.0417  -8.0404
    -7.8823  -7.8587  -7.8583  -7.7421  -7.7410  -7.5975  -7.5125  -3.1850
    -3.1751  -2.9968  -2.7055  -2.4437  -2.4424  -2.2066  -2.0902  -2.0660
    -1.8938  -1.8476  -1.7786  -1.6948  -1.6930  -1.5983  -1.5435  -1.5092
    -1.5031  -1.4841  -1.4005  -1.2076  -1.1202  -0.9845  -0.9523  -0.9508
    -0.8078  -0.7829  -0.7583  -0.7161  -0.7134  -0.5378  -0.5274  -0.3742
    -0.3734  -0.1560  -0.1378  -0.0293   0.0312   0.0572   0.0896   0.0996
     0.1010   0.1816   0.3613   0.4317   0.4331   0.5055   0.5266   0.6644
     0.7333   0.7640   0.8551   0.9635   1.0009   1.0640   1.0935   1.1300
     1.1971   1.1992   1.2585   1.3241   1.3799   1.4088   1.5442   1.5815
     1.5972   1.6390   1.6424   1.7896   1.8307   2.0156   2.0406   2.1504
     2.6632   2.6711   2.7535   2.8850   2.9129   3.0978   3.1473   6.3635
     6.7232   7.0432   7.0434   7.4338   7.5503   7.5523   8.0895   8.1817
     8.2642   8.3930   8.7034   9.1737   9.2364   9.2570   9.4718   9.5393
     9.6913

          k =-0.5000 0.2640 0.0000 ( 34964 PWs)   bands (ev):

   -35.6590 -35.5067 -23.7300 -22.6732 -22.6724 -22.4483 -17.1290 -16.9939
   -16.9098 -16.8222 -16.7636 -16.6391 -14.9756 -14.9700 -14.9063 -14.6204
   -14.5542 -14.3373 -14.2480 -14.2305 -14.2146 -14.2071 -14.1238 -14.0938
   -14.0577 -13.9076 -13.7015  -9.1907  -9.0663  -8.9178  -8.3108  -8.3096
    -8.1598  -8.1595  -8.0699  -7.9916  -7.9901  -7.8781  -7.8255  -3.4913
    -3.4579  -3.2285  -2.9063  -2.7784  -2.6086  -2.6036  -2.4773  -2.4734
    -2.4564  -2.3439  -2.3401  -2.3172  -2.1701  -1.9880  -1.9367  -1.7678
    -1.7100  -1.5610  -1.2795  -1.2232  -1.1713  -1.0517  -1.0501  -0.9873
    -0.9527  -0.9459  -0.8021  -0.7587  -0.7555  -0.7297  -0.5976  -0.5746
    -0.4763  -0.4745  -0.3961  -0.0223   0.0240   0.2325   0.3242   0.4083
     0.5791   0.5865   0.6488   0.7664   0.7717   1.0078   1.0134   1.0434
     1.0848   1.0968   1.1156   1.1449   1.2590   1.3425   1.3842   1.4188
     1.4619   1.4750   1.5120   1.6139   1.6283   1.6762   1.6839   1.7232
     1.7259   1.7365   1.7849   1.8195   1.8577   2.0231   2.0319   2.2459
     2.8964   2.9000   3.5513   3.7821   3.7897   3.8996   3.9989   5.7585
     6.6130   6.6133   6.7849   7.4414   7.4854   7.6251   8.3564   8.3619
     8.5895   8.8348   8.9287   9.2177   9.2644   9.5071   9.5336   9.5867
     9.7044

          k =-0.5000 0.3960 0.0000 ( 34948 PWs)   bands (ev):

   -35.6547 -35.5023 -23.6865 -22.6210 -22.6202 -22.3977 -17.1074 -17.0389
   -16.9723 -16.8923 -16.7466 -16.5636 -14.7921 -14.7898 -14.6281 -14.5339
   -14.4803 -14.3044 -14.2514 -14.2275 -14.1605 -14.1586 -14.0620 -14.0117
   -14.0019 -13.9444 -13.6611  -9.6083  -9.1947  -9.0199  -8.6859  -8.6847
    -8.4478  -8.4476  -8.4472  -8.1436  -8.0694  -8.0677  -7.8863  -3.9629
    -3.9182  -3.6529  -3.4938  -3.3364  -3.0197  -3.0179  -2.7846  -2.7827
    -2.6287  -2.4566  -2.3786  -2.3771  -2.2763  -2.2194  -2.1821  -1.9790
    -1.8397  -1.8366  -1.4085  -1.3158  -1.3096  -1.1886  -1.1761  -1.1306
    -1.1197  -0.9695  -0.9663  -0.8733  -0.8684  -0.7893  -0.7192  -0.6998
    -0.5575  -0.4407  -0.4393   0.0657   0.1883   0.2974   0.4049   0.6375
     0.8470   0.9718   1.0210   1.2017   1.2084   1.2093   1.2188   1.3027
     1.3398   1.3955   1.4725   1.4797   1.4922   1.5995   1.6430   1.6706
     1.6837   1.6980   1.7480   1.7729   1.8676   1.8856   1.9126   1.9544
     1.9825   2.0405   2.0570   2.0666   2.0788   2.1642   2.2185   2.5042
     2.7104   2.7171   4.0292   4.4276   4.4303   4.4921   4.5866   5.1471
     6.1182   6.1185   6.7381   7.1363   7.4208   7.4517   8.3936   8.5044
     8.8445   8.8854   9.3377   9.4178   9.4463   9.5433   9.6492   9.7784
     9.8137

          k =-0.5000-0.5279 0.0000 ( 35004 PWs)   bands (ev):

   -35.6529 -35.5005 -23.6682 -22.5990 -22.5982 -22.3764 -17.0986 -17.0895
   -16.9635 -16.9427 -16.7131 -16.5304 -14.6954 -14.6941 -14.5223 -14.4650
   -14.4345 -14.3502 -14.2756 -14.1818 -14.1391 -14.1351 -14.1152 -14.0210
   -13.9615 -13.9068 -13.6349  -9.7727  -9.3091  -8.9970  -8.8319  -8.8307
    -8.5984  -8.5640  -8.5637  -8.2492  -8.0973  -8.0950  -7.9027  -4.1712
    -4.1253  -3.8652  -3.7491  -3.5377  -3.2441  -3.2422  -2.8172  -2.8151
    -2.6557  -2.4725  -2.3686  -2.3682  -2.3671  -2.3169  -2.1807  -2.0489
    -1.9342  -1.8779  -1.4758  -1.4307  -1.4264  -1.2530  -1.2410  -1.1050
    -1.0887  -1.0649  -1.0634  -0.9739  -0.9038  -0.8366  -0.7516  -0.6880
    -0.5590  -0.4122  -0.4105   0.1012   0.2296   0.3154   0.4257   0.7495
     0.9420   1.1097   1.2005   1.2660   1.2681   1.2805   1.3211   1.3307
     1.3590   1.5430   1.5461   1.6781   1.6814   1.6863   1.7137   1.7894
     1.8092   1.8227   1.9166   1.9342   1.9523   1.9731   2.0014   2.0091
     2.1132   2.1741   2.1970   2.2591   2.2613   2.3432   2.3979   2.4532
     2.4633   2.6505   4.1473   4.6289   4.6339   4.6950   4.7786   4.9053
     5.8913   5.8915   6.6814   7.0334   7.3942   7.4132   8.2181   8.5328
     8.9535   8.9733   9.0083   9.1402   9.3906   9.4673   9.7692   9.7886
    10.0260

     the Fermi energy is     2.4865 ev

!    total energy              =   -1842.83642644 Ry
     Harris-Foulkes estimate   =   -1842.83642644 Ry
     estimated scf accuracy    <          3.9E-09 Ry

     The total energy is the sum of the following terms:

     one-electron contribution =  -28147.76313307 Ry
     hartree contribution      =   14226.01580755 Ry
     xc contribution           =    -621.56199656 Ry
     ewald contribution        =   12700.48032869 Ry
     smearing contrib. (-TS)   =      -0.00743304 Ry

     convergence has been achieved in  35 iterations

     negative rho (up, down):  1.508E-03 0.000E+00

     Forces acting on atoms (cartesian axes, Ry/au):

     atom    1 type  4   force =     0.00000000    0.00000000   -0.00018629
     atom    2 type  3   force =     0.00000000    0.00000000    0.00037063
     atom    3 type  4   force =     0.00000000    0.00000000   -0.00078183
     atom    4 type  1   force =     0.00000000    0.00000000   -0.00028323
     atom    5 type  3   force =     0.00000000    0.00000000    0.00060877
     atom    6 type  4   force =     0.00000000    0.00000000    0.00006433
     atom    7 type  4   force =     0.00000000    0.00000000    0.00034965
     atom    8 type  2   force =     0.00000000    0.00000000   -0.00083473
     atom    9 type  4   force =     0.00000000    0.00000000    0.00023565
     atom   10 type  4   force =     0.00000000    0.00000000    0.00030820
     atom   11 type  3   force =     0.00000000    0.00000000    0.00062107
     atom   12 type  1   force =     0.00000000    0.00000000   -0.00132405
     atom   13 type  4   force =     0.00000000    0.00000000    0.00584778
     atom   14 type  4   force =     0.00000000    0.00000000    0.01447065
     atom   15 type  3   force =     0.00000000    0.00000000   -0.01351550
     atom   16 type  4   force =     0.00000000    0.00000000    0.01861523
     atom   17 type  1   force =     0.00000000    0.00000000   -0.00619168
     atom   18 type  3   force =     0.00000000    0.00000000   -0.00617195
     atom   19 type  4   force =     0.00000000    0.00000000    0.00282907
     atom   20 type  4   force =     0.00000000    0.00000000   -0.00121269
     atom   21 type  2   force =     0.00000000    0.00000000   -0.01700862
     atom   22 type  4   force =     0.00000000    0.00000000    0.00042674
     atom   23 type  4   force =     0.00000000    0.00000000    0.00179390
     atom   24 type  3   force =     0.00000000    0.00000000   -0.00005707
     atom   25 type  1   force =     0.00000000    0.00000000    0.00025047
     atom   26 type  4   force =     0.00000000    0.00000000    0.00109707
     atom   27 type  3   force =     0.00000000    0.00000000   -0.00063778
     atom   28 type  4   force =     0.00000000    0.00000000    0.00031620

     Total force =     0.033374     Total SCF correction =     0.000059


     Computing stress (Cartesian axis) and pressure


     negative rho (up, down):  1.508E-03 0.000E+00
          total   stress  (Ry/bohr**3)                   (kbar)     P=       -8.47
  -0.00008524   0.00000000   0.00000000          -12.54        0.00        0.00
   0.00000000  -0.00004093   0.00000000            0.00       -6.02        0.00
   0.00000000   0.00000000  -0.00004653            0.00        0.00       -6.84


     number of scf cycles    =   3
     number of bfgs steps    =   2

     energy   old            =   -1842.8976277540 Ry
     energy   new            =   -1842.8364264439 Ry

     CASE: energy  _new > energy  _old


 %%%%%%%%%%%%%%%%%%%%%%%%%%%%%%%%%%%%%%%%%%%%%%%%%%%%%%%%%%%%%%%%%%%%%%%%%%%%%%
     Error in routine bfgs (1):
     dE0s is positive which should never happen
 %%%%%%%%%%%%%%%%%%%%%%%%%%%%%%%%%%%%%%%%%%%%%%%%%%%%%%%%%%%%%%%%%%%%%%%%%%%%%%

     stopping ...
