
     Program PWSCF v.6.5 starts on 28Jun2021 at 17:23: 7 

     This program is part of the open-source Quantum ESPRESSO suite
     for quantum simulation of materials; please cite
         "P. Giannozzi et al., J. Phys.:Condens. Matter 21 395502 (2009);
         "P. Giannozzi et al., J. Phys.:Condens. Matter 29 465901 (2017);
          URL http://www.quantum-espresso.org", 
     in publications or presentations arising from this work. More details at
     http://www.quantum-espresso.org/quote

     Parallel version (MPI), running on    20 processors

     MPI processes distributed on    13 nodes
     R & G space division:  proc/nbgrp/npool/nimage =      20
     Reading input from CBCO_BaO_cleave_7.0_sep.pwi
Warning: card &CELL ignored
Warning: card     CELL_DYNAMICS = 'BFGS' ignored
Warning: card     PRESS_CONV_THR = 5 ignored
Warning: card / ignored

     Current dimensions of program PWSCF are:
     Max number of different atomic species (ntypx) = 10
     Max number of k-points (npk) =  40000
     Max angular momentum in pseudopotentials (lmaxx) =  3

     Subspace diagonalization in iterative solution of the eigenvalue problem:
     one sub-group per band group will be used
     scalapack distributed-memory algorithm (size of sub-group:  4*  4 procs)

     Message from routine setup:
     using ibrav=0 with symmetry is DISCOURAGED, use correct ibrav instead
 
     Parallelization info
     --------------------
     sticks:   dense  smooth     PW     G-vecs:    dense   smooth      PW
     Min         149      50     14                81427    15678    2450
     Max         150      51     15                81472    15705    2501
     Sum        2991    1007    289              1629003   313757   49311
 


     bravais-lattice index     =            0
     lattice parameter (alat)  =       7.4270  a.u.
     unit-cell volume          =    4993.3692 (a.u.)^3
     number of atoms/cell      =           28
     number of atomic types    =            4
     number of electrons       =       227.00
     number of Kohn-Sham states=          137
     kinetic-energy cutoff     =      60.0000  Ry
     charge density cutoff     =     720.0000  Ry
     convergence threshold     =      1.0E-09
     mixing beta               =       0.3000
     number of iterations used =           10  local-TF  mixing
     Exchange-correlation= SLA PW PBE PBE
                           (   1   4   3   4   0   0   0)
     nstep                     =          300


     celldm(1)=   7.427040  celldm(2)=   0.000000  celldm(3)=   0.000000
     celldm(4)=   0.000000  celldm(5)=   0.000000  celldm(6)=   0.000000

     crystal axes: (cart. coord. in units of alat)
               a(1) = (   1.000000   0.000000   0.000000 )  
               a(2) = (   0.000000   0.947081   0.000000 )  
               a(3) = (   0.000000   0.000000  12.869427 )  

     reciprocal axes: (cart. coord. in units 2 pi/alat)
               b(1) = (  1.000000  0.000000  0.000000 )  
               b(2) = (  0.000000  1.055876  0.000000 )  
               b(3) = (  0.000000  0.000000  0.077704 )  


     PseudoPot. # 1 for Ba read from file:
     ./pseudo/Ba.pbe-nsp-van.UPF
     MD5 check sum: 2b9c31dd849566dd297d80989662b7a0
     Pseudo is Ultrasoft + core correction, Zval = 10.0
     Generated by new atomic code, or converted to UPF format
     Using radial grid of  907 points,  6 beta functions with: 
                l(1) =   0
                l(2) =   0
                l(3) =   1
                l(4) =   1
                l(5) =   2
                l(6) =   2
     Q(r) pseudized with  6 coefficients,  rinner =    1.200   1.200   1.200
                                                       1.200   1.200

     PseudoPot. # 2 for Ca read from file:
     ./pseudo/Ca.pbe-nsp-van.UPF
     MD5 check sum: 6471098428ff4fa451746d08035ff179
     Pseudo is Ultrasoft + core correction, Zval = 10.0
     Generated by new atomic code, or converted to UPF format
     Using radial grid of  845 points,  6 beta functions with: 
                l(1) =   0
                l(2) =   0
                l(3) =   1
                l(4) =   1
                l(5) =   2
                l(6) =   2
     Q(r) pseudized with  6 coefficients,  rinner =    1.200   1.200   1.200
                                                       1.200   1.200

     PseudoPot. # 3 for Cu read from file:
     ./pseudo/Cu.pbe-n-van_ak.UPF
     MD5 check sum: 34e3282627ffb533726feb647e090d62
     Pseudo is Ultrasoft + core correction, Zval = 11.0
     Generated by new atomic code, or converted to UPF format
     Using radial grid of  867 points,  6 beta functions with: 
                l(1) =   0
                l(2) =   0
                l(3) =   1
                l(4) =   1
                l(5) =   2
                l(6) =   2
     Q(r) pseudized with  8 coefficients,  rinner =    1.400   1.400   1.400
                                                       1.400   1.400

     PseudoPot. # 4 for O  read from file:
     ./pseudo/O.pbe-van_ak.UPF
     MD5 check sum: 783ce7fe4c79b6a4916957118fed0856
     Pseudo is Ultrasoft, Zval =  6.0
     Generated by new atomic code, or converted to UPF format
     Using radial grid of  737 points,  4 beta functions with: 
                l(1) =   0
                l(2) =   0
                l(3) =   1
                l(4) =   1
     Q(r) pseudized with  8 coefficients,  rinner =    0.800   0.800   0.800


     atomic species   valence    mass     pseudopotential
        Ba            10.00   137.32700     Ba( 1.00)
        Ca            10.00    40.07800     Ca( 1.00)
        Cu            11.00    63.54600     Cu( 1.00)
        O              6.00    15.99900     O ( 1.00)

      4 Sym. Ops. (no inversion) found



   Cartesian axes

     site n.     atom                  positions (alat units)
         1           O   tau(   1) = (   0.0000000   0.4735409  -0.0469745  )
         2           Cu  tau(   2) = (   0.0000000   0.0000000   0.0264565  )
         3           O   tau(   3) = (   0.0000000   0.0000000   0.5030914  )
         4           Ba  tau(   4) = (   0.5000000   0.4735409   0.5690292  )
         5           Cu  tau(   5) = (   0.0000000   0.0000000   1.0374254  )
         6           O   tau(   6) = (   0.5000000   0.0000000   1.0768099  )
         7           O   tau(   7) = (   0.0000000   0.4735409   1.1116985  )
         8           Ca  tau(   8) = (   0.5000000   0.4735409   1.4976260  )
         9           O   tau(   9) = (   0.0000000   0.4735409   1.8667529  )
        10           O   tau(  10) = (   0.5000000   0.0000000   1.9044124  )
        11           Cu  tau(  11) = (   0.0000000   0.0000000   1.9512546  )
        12           Ba  tau(  12) = (   0.5000000   0.4735409   2.4295764  )
        13           O   tau(  13) = (   0.0000000   0.0000000   2.5115362  )
        14           O   tau(  14) = (   0.0000000   0.4735409   2.9918528  )
        15           Cu  tau(  15) = (   0.0000000   0.0000000   2.9919088  )
        16           O   tau(  16) = (   0.0000000   0.0000000   3.4722686  )
        17           Ba  tau(  17) = (   0.5000000   0.4735409   3.5542208  )
        18           Cu  tau(  18) = (   0.0000000   0.0000000   5.8135955  )
        19           O   tau(  19) = (   0.5000000   0.0000000   5.8604377  )
        20           O   tau(  20) = (   0.0000000   0.4735409   5.8980920  )
        21           Ca  tau(  21) = (   0.5000000   0.4735409   6.2672291  )
        22           O   tau(  22) = (   0.0000000   0.4735409   6.6531541  )
        23           O   tau(  23) = (   0.5000000   0.0000000   6.6880427  )
        24           Cu  tau(  24) = (   0.0000000   0.0000000   6.7274298  )
        25           Ba  tau(  25) = (   0.5000000   0.4735409   7.1958234  )
        26           O   tau(  26) = (   0.0000000   0.0000000   7.2617510  )
        27           Cu  tau(  27) = (   0.0000000   0.0000000   7.7383910  )
        28           O   tau(  28) = (   0.0000000   0.4735409   7.8118093  )

     number of k points=    25  Gaussian smearing, width (Ry)=  0.0100
                       cart. coord. in units 2pi/alat
        k(    1) = (   0.0000000   0.0000000   0.0000000), wk =   0.0312500
        k(    2) = (   0.0000000   0.1319845   0.0000000), wk =   0.0625000
        k(    3) = (   0.0000000   0.2639689   0.0000000), wk =   0.0625000
        k(    4) = (   0.0000000   0.3959534   0.0000000), wk =   0.0625000
        k(    5) = (   0.0000000  -0.5279378   0.0000000), wk =   0.0312500
        k(    6) = (   0.1250000   0.0000000   0.0000000), wk =   0.0625000
        k(    7) = (   0.1250000   0.1319845   0.0000000), wk =   0.1250000
        k(    8) = (   0.1250000   0.2639689   0.0000000), wk =   0.1250000
        k(    9) = (   0.1250000   0.3959534   0.0000000), wk =   0.1250000
        k(   10) = (   0.1250000  -0.5279378   0.0000000), wk =   0.0625000
        k(   11) = (   0.2500000   0.0000000   0.0000000), wk =   0.0625000
        k(   12) = (   0.2500000   0.1319845   0.0000000), wk =   0.1250000
        k(   13) = (   0.2500000   0.2639689   0.0000000), wk =   0.1250000
        k(   14) = (   0.2500000   0.3959534   0.0000000), wk =   0.1250000
        k(   15) = (   0.2500000  -0.5279378   0.0000000), wk =   0.0625000
        k(   16) = (   0.3750000   0.0000000   0.0000000), wk =   0.0625000
        k(   17) = (   0.3750000   0.1319845   0.0000000), wk =   0.1250000
        k(   18) = (   0.3750000   0.2639689   0.0000000), wk =   0.1250000
        k(   19) = (   0.3750000   0.3959534   0.0000000), wk =   0.1250000
        k(   20) = (   0.3750000  -0.5279378   0.0000000), wk =   0.0625000
        k(   21) = (  -0.5000000   0.0000000   0.0000000), wk =   0.0312500
        k(   22) = (  -0.5000000   0.1319845   0.0000000), wk =   0.0625000
        k(   23) = (  -0.5000000   0.2639689   0.0000000), wk =   0.0625000
        k(   24) = (  -0.5000000   0.3959534   0.0000000), wk =   0.0625000
        k(   25) = (  -0.5000000  -0.5279378   0.0000000), wk =   0.0312500

     Dense  grid:  1629003 G-vectors     FFT dimensions: (  64,  64, 864)

     Smooth grid:   313757 G-vectors     FFT dimensions: (  40,  36, 480)

     Estimated max dynamical RAM per process >     519.11 MB

     Estimated total dynamical RAM >      10.14 GB

     Initial potential from superposition of free atoms

     starting charge  226.84630, renormalised to  227.00000

     negative rho (up, down):  3.391E-03 0.000E+00
     Starting wfcs are  195 randomized atomic wfcs

     total cpu time spent up to now is       11.1 secs

     Self-consistent Calculation

     iteration #  1     ecut=    60.00 Ry     beta= 0.30
     Davidson diagonalization with overlap
     ethr =  1.00E-02,  avg # of iterations =  2.0

     negative rho (up, down):  1.130E-03 0.000E+00

     total cpu time spent up to now is       28.0 secs

     total energy              =   -1842.40393893 Ry
     Harris-Foulkes estimate   =   -1845.43292840 Ry
     estimated scf accuracy    <      24.81517128 Ry

     iteration #  2     ecut=    60.00 Ry     beta= 0.30
     Davidson diagonalization with overlap
     ethr =  1.00E-02,  avg # of iterations =  1.0

     negative rho (up, down):  5.202E-04 0.000E+00

     total cpu time spent up to now is       43.4 secs

     total energy              =   -1842.86349661 Ry
     Harris-Foulkes estimate   =   -1843.63288564 Ry
     estimated scf accuracy    <       8.69476929 Ry

     iteration #  3     ecut=    60.00 Ry     beta= 0.30
     Davidson diagonalization with overlap
     ethr =  3.83E-03,  avg # of iterations =  1.0

     negative rho (up, down):  3.200E-04 0.000E+00

     total cpu time spent up to now is       58.6 secs

     total energy              =   -1843.02145711 Ry
     Harris-Foulkes estimate   =   -1843.23100535 Ry
     estimated scf accuracy    <       8.15836214 Ry

     iteration #  4     ecut=    60.00 Ry     beta= 0.30
     Davidson diagonalization with overlap
     ethr =  3.59E-03,  avg # of iterations =  1.0

     negative rho (up, down):  2.467E-04 0.000E+00

     total cpu time spent up to now is       74.0 secs

     total energy              =   -1842.97523863 Ry
     Harris-Foulkes estimate   =   -1843.09523297 Ry
     estimated scf accuracy    <       4.75696143 Ry

     iteration #  5     ecut=    60.00 Ry     beta= 0.30
     Davidson diagonalization with overlap
     ethr =  2.10E-03,  avg # of iterations =  1.0

     negative rho (up, down):  2.408E-04 0.000E+00

     total cpu time spent up to now is       89.1 secs

     total energy              =   -1842.88344508 Ry
     Harris-Foulkes estimate   =   -1843.02159780 Ry
     estimated scf accuracy    <       4.60253756 Ry

     iteration #  6     ecut=    60.00 Ry     beta= 0.30
     Davidson diagonalization with overlap
     ethr =  2.03E-03,  avg # of iterations =  1.0

     negative rho (up, down):  2.393E-04 0.000E+00

     total cpu time spent up to now is      104.0 secs

     total energy              =   -1842.87845816 Ry
     Harris-Foulkes estimate   =   -1842.92018497 Ry
     estimated scf accuracy    <       2.16570797 Ry

     iteration #  7     ecut=    60.00 Ry     beta= 0.30
     Davidson diagonalization with overlap
     ethr =  9.54E-04,  avg # of iterations =  1.0

     negative rho (up, down):  2.332E-04 0.000E+00

     total cpu time spent up to now is      119.2 secs

     total energy              =   -1842.81569267 Ry
     Harris-Foulkes estimate   =   -1842.88974952 Ry
     estimated scf accuracy    <       1.14277006 Ry

     iteration #  8     ecut=    60.00 Ry     beta= 0.30
     Davidson diagonalization with overlap
     ethr =  5.03E-04,  avg # of iterations =  5.3

     negative rho (up, down):  2.303E-04 0.000E+00

     total cpu time spent up to now is      139.4 secs

     total energy              =   -1842.82581865 Ry
     Harris-Foulkes estimate   =   -1842.83894048 Ry
     estimated scf accuracy    <       0.39959268 Ry

     iteration #  9     ecut=    60.00 Ry     beta= 0.30
     Davidson diagonalization with overlap
     ethr =  1.76E-04,  avg # of iterations =  5.1

     negative rho (up, down):  2.261E-04 0.000E+00

     total cpu time spent up to now is      159.8 secs

     total energy              =   -1842.81114021 Ry
     Harris-Foulkes estimate   =   -1842.83042568 Ry
     estimated scf accuracy    <       0.35131820 Ry

     iteration # 10     ecut=    60.00 Ry     beta= 0.30
     Davidson diagonalization with overlap
     ethr =  1.55E-04,  avg # of iterations =  5.4

     negative rho (up, down):  2.292E-04 0.000E+00

     total cpu time spent up to now is      179.8 secs

     total energy              =   -1842.79706516 Ry
     Harris-Foulkes estimate   =   -1842.81567401 Ry
     estimated scf accuracy    <       0.29947344 Ry

     iteration # 11     ecut=    60.00 Ry     beta= 0.30
     Davidson diagonalization with overlap
     ethr =  1.32E-04,  avg # of iterations =  6.6

     negative rho (up, down):  9.472E-03 0.000E+00

     total cpu time spent up to now is      201.5 secs

     total energy              =   -1842.78428662 Ry
     Harris-Foulkes estimate   =   -1842.80055834 Ry
     estimated scf accuracy    <       0.13900158 Ry

     iteration # 12     ecut=    60.00 Ry     beta= 0.30
     Davidson diagonalization with overlap
     ethr =  6.12E-05,  avg # of iterations =  8.7

     negative rho (up, down):  1.358E-02 0.000E+00

     total cpu time spent up to now is      227.8 secs

     total energy              =   -1842.78754348 Ry
     Harris-Foulkes estimate   =   -1842.78927580 Ry
     estimated scf accuracy    <       0.09866128 Ry

     iteration # 13     ecut=    60.00 Ry     beta= 0.30
     Davidson diagonalization with overlap
     ethr =  4.35E-05,  avg # of iterations =  1.6

     negative rho (up, down):  7.534E-03 0.000E+00

     total cpu time spent up to now is      243.2 secs

     total energy              =   -1842.78655352 Ry
     Harris-Foulkes estimate   =   -1842.78811438 Ry
     estimated scf accuracy    <       0.08560863 Ry

     iteration # 14     ecut=    60.00 Ry     beta= 0.30
     Davidson diagonalization with overlap
     ethr =  3.77E-05,  avg # of iterations =  1.2

     negative rho (up, down):  7.337E-03 0.000E+00

     total cpu time spent up to now is      258.7 secs

     total energy              =   -1842.78654529 Ry
     Harris-Foulkes estimate   =   -1842.78723155 Ry
     estimated scf accuracy    <       0.04066593 Ry

     iteration # 15     ecut=    60.00 Ry     beta= 0.30
     Davidson diagonalization with overlap
     ethr =  1.79E-05,  avg # of iterations =  4.6

     negative rho (up, down):  7.893E-03 0.000E+00

     total cpu time spent up to now is      278.2 secs

     total energy              =   -1842.78574635 Ry
     Harris-Foulkes estimate   =   -1842.78672979 Ry
     estimated scf accuracy    <       0.02047368 Ry

     iteration # 16     ecut=    60.00 Ry     beta= 0.30
     Davidson diagonalization with overlap
     ethr =  9.02E-06,  avg # of iterations =  8.1

     negative rho (up, down):  5.877E-03 0.000E+00

     total cpu time spent up to now is      302.8 secs

     total energy              =   -1842.78576493 Ry
     Harris-Foulkes estimate   =   -1842.78605746 Ry
     estimated scf accuracy    <       0.00587077 Ry

     iteration # 17     ecut=    60.00 Ry     beta= 0.30
     Davidson diagonalization with overlap
     c_bands:  1 eigenvalues not converged
     ethr =  2.59E-06,  avg # of iterations =  7.6

     negative rho (up, down):  5.618E-03 0.000E+00

     total cpu time spent up to now is      326.2 secs

     total energy              =   -1842.78543744 Ry
     Harris-Foulkes estimate   =   -1842.78580581 Ry
     estimated scf accuracy    <       0.00491782 Ry

     iteration # 18     ecut=    60.00 Ry     beta= 0.30
     Davidson diagonalization with overlap
     ethr =  2.17E-06,  avg # of iterations =  7.7

     negative rho (up, down):  2.280E-03 0.000E+00

     total cpu time spent up to now is      350.3 secs

     total energy              =   -1842.78504885 Ry
     Harris-Foulkes estimate   =   -1842.78548505 Ry
     estimated scf accuracy    <       0.00456633 Ry

     iteration # 19     ecut=    60.00 Ry     beta= 0.30
     Davidson diagonalization with overlap
     c_bands:  1 eigenvalues not converged
     ethr =  2.01E-06,  avg # of iterations =  8.5

     negative rho (up, down):  2.393E-04 0.000E+00

     total cpu time spent up to now is      375.6 secs

     total energy              =   -1842.78469575 Ry
     Harris-Foulkes estimate   =   -1842.78507394 Ry
     estimated scf accuracy    <       0.00430264 Ry

     iteration # 20     ecut=    60.00 Ry     beta= 0.30
     Davidson diagonalization with overlap
     ethr =  1.90E-06,  avg # of iterations =  6.6

     negative rho (up, down):  2.301E-04 0.000E+00

     total cpu time spent up to now is      398.9 secs

     total energy              =   -1842.78427707 Ry
     Harris-Foulkes estimate   =   -1842.78471229 Ry
     estimated scf accuracy    <       0.00377510 Ry

     iteration # 21     ecut=    60.00 Ry     beta= 0.30
     Davidson diagonalization with overlap
     ethr =  1.66E-06,  avg # of iterations =  8.0

     negative rho (up, down):  2.316E-04 0.000E+00

     total cpu time spent up to now is      424.1 secs

     total energy              =   -1842.78395724 Ry
     Harris-Foulkes estimate   =   -1842.78430173 Ry
     estimated scf accuracy    <       0.00294883 Ry

     iteration # 22     ecut=    60.00 Ry     beta= 0.30
     Davidson diagonalization with overlap
     ethr =  1.30E-06,  avg # of iterations =  4.5

     negative rho (up, down):  2.367E-04 0.000E+00

     total cpu time spent up to now is      443.5 secs

     total energy              =   -1842.78400143 Ry
     Harris-Foulkes estimate   =   -1842.78397763 Ry
     estimated scf accuracy    <       0.00223503 Ry

     iteration # 23     ecut=    60.00 Ry     beta= 0.30
     Davidson diagonalization with overlap
     ethr =  9.85E-07,  avg # of iterations =  3.7

     negative rho (up, down):  2.118E-03 0.000E+00

     total cpu time spent up to now is      462.3 secs

     total energy              =   -1842.78362823 Ry
     Harris-Foulkes estimate   =   -1842.78402153 Ry
     estimated scf accuracy    <       0.00162444 Ry

     iteration # 24     ecut=    60.00 Ry     beta= 0.30
     Davidson diagonalization with overlap
     c_bands:  1 eigenvalues not converged
     ethr =  7.16E-07,  avg # of iterations =  8.2

     negative rho (up, down):  2.849E-03 0.000E+00

     total cpu time spent up to now is      487.1 secs

     total energy              =   -1842.78372056 Ry
     Harris-Foulkes estimate   =   -1842.78366477 Ry
     estimated scf accuracy    <       0.00162539 Ry

     iteration # 25     ecut=    60.00 Ry     beta= 0.30
     Davidson diagonalization with overlap
     c_bands:  1 eigenvalues not converged
     ethr =  7.16E-07,  avg # of iterations =  7.8

     negative rho (up, down):  2.211E-03 0.000E+00

     total cpu time spent up to now is      510.5 secs

     total energy              =   -1842.78381594 Ry
     Harris-Foulkes estimate   =   -1842.78374790 Ry
     estimated scf accuracy    <       0.00026232 Ry

     iteration # 26     ecut=    60.00 Ry     beta= 0.30
     Davidson diagonalization with overlap
     c_bands:  1 eigenvalues not converged
     ethr =  1.16E-07,  avg # of iterations =  8.6

     negative rho (up, down):  1.497E-03 0.000E+00

     total cpu time spent up to now is      535.5 secs

     total energy              =   -1842.78384622 Ry
     Harris-Foulkes estimate   =   -1842.78382451 Ry
     estimated scf accuracy    <       0.00018574 Ry

     iteration # 27     ecut=    60.00 Ry     beta= 0.30
     Davidson diagonalization with overlap
     ethr =  8.18E-08,  avg # of iterations =  4.0

     negative rho (up, down):  1.075E-03 0.000E+00

     total cpu time spent up to now is      554.0 secs

     total energy              =   -1842.78386107 Ry
     Harris-Foulkes estimate   =   -1842.78384858 Ry
     estimated scf accuracy    <       0.00010343 Ry

     iteration # 28     ecut=    60.00 Ry     beta= 0.30
     Davidson diagonalization with overlap
     ethr =  4.56E-08,  avg # of iterations =  4.2

     negative rho (up, down):  1.142E-03 0.000E+00

     total cpu time spent up to now is      572.8 secs

     total energy              =   -1842.78388082 Ry
     Harris-Foulkes estimate   =   -1842.78386238 Ry
     estimated scf accuracy    <       0.00006068 Ry

     iteration # 29     ecut=    60.00 Ry     beta= 0.30
     Davidson diagonalization with overlap
     ethr =  2.67E-08,  avg # of iterations =  4.3

     negative rho (up, down):  1.546E-03 0.000E+00

     total cpu time spent up to now is      592.0 secs

     total energy              =   -1842.78388222 Ry
     Harris-Foulkes estimate   =   -1842.78388196 Ry
     estimated scf accuracy    <       0.00002277 Ry

     iteration # 30     ecut=    60.00 Ry     beta= 0.30
     Davidson diagonalization with overlap
     ethr =  1.00E-08,  avg # of iterations =  2.0

     negative rho (up, down):  1.572E-03 0.000E+00

     total cpu time spent up to now is      608.4 secs

     total energy              =   -1842.78388285 Ry
     Harris-Foulkes estimate   =   -1842.78388356 Ry
     estimated scf accuracy    <       0.00001263 Ry

     iteration # 31     ecut=    60.00 Ry     beta= 0.30
     Davidson diagonalization with overlap
     ethr =  5.57E-09,  avg # of iterations =  1.5

     negative rho (up, down):  1.522E-03 0.000E+00

     total cpu time spent up to now is      624.0 secs

     total energy              =   -1842.78388350 Ry
     Harris-Foulkes estimate   =   -1842.78388329 Ry
     estimated scf accuracy    <       0.00000124 Ry

     iteration # 32     ecut=    60.00 Ry     beta= 0.30
     Davidson diagonalization with overlap
     ethr =  5.44E-10,  avg # of iterations =  3.2

     negative rho (up, down):  1.514E-03 0.000E+00

     total cpu time spent up to now is      643.1 secs

     total energy              =   -1842.78388353 Ry
     Harris-Foulkes estimate   =   -1842.78388364 Ry
     estimated scf accuracy    <       0.00000125 Ry

     iteration # 33     ecut=    60.00 Ry     beta= 0.30
     Davidson diagonalization with overlap
     ethr =  5.44E-10,  avg # of iterations =  1.0

     negative rho (up, down):  1.469E-03 0.000E+00

     total cpu time spent up to now is      658.7 secs

     total energy              =   -1842.78388393 Ry
     Harris-Foulkes estimate   =   -1842.78388356 Ry
     estimated scf accuracy    <       0.00000026 Ry

     iteration # 34     ecut=    60.00 Ry     beta= 0.30
     Davidson diagonalization with overlap
     ethr =  1.16E-10,  avg # of iterations =  2.2

     negative rho (up, down):  1.484E-03 0.000E+00

     total cpu time spent up to now is      677.1 secs

     total energy              =   -1842.78388395 Ry
     Harris-Foulkes estimate   =   -1842.78388395 Ry
     estimated scf accuracy    <       0.00000009 Ry

     iteration # 35     ecut=    60.00 Ry     beta= 0.30
     Davidson diagonalization with overlap
     ethr =  4.00E-11,  avg # of iterations =  1.9

     negative rho (up, down):  1.481E-03 0.000E+00

     total cpu time spent up to now is      693.5 secs

     total energy              =   -1842.78388396 Ry
     Harris-Foulkes estimate   =   -1842.78388396 Ry
     estimated scf accuracy    <       0.00000007 Ry

     iteration # 36     ecut=    60.00 Ry     beta= 0.30
     Davidson diagonalization with overlap
     ethr =  2.87E-11,  avg # of iterations =  2.0

     negative rho (up, down):  1.471E-03 0.000E+00

     total cpu time spent up to now is      710.0 secs

     total energy              =   -1842.78388398 Ry
     Harris-Foulkes estimate   =   -1842.78388397 Ry
     estimated scf accuracy    <       0.00000003 Ry

     iteration # 37     ecut=    60.00 Ry     beta= 0.30
     Davidson diagonalization with overlap
     ethr =  1.20E-11,  avg # of iterations =  2.1

     negative rho (up, down):  1.470E-03 0.000E+00

     total cpu time spent up to now is      727.4 secs

     total energy              =   -1842.78388399 Ry
     Harris-Foulkes estimate   =   -1842.78388398 Ry
     estimated scf accuracy    <       0.00000001 Ry

     iteration # 38     ecut=    60.00 Ry     beta= 0.30
     Davidson diagonalization with overlap
     ethr =  4.91E-12,  avg # of iterations =  1.5

     negative rho (up, down):  1.468E-03 0.000E+00

     total cpu time spent up to now is      743.1 secs

     total energy              =   -1842.78388399 Ry
     Harris-Foulkes estimate   =   -1842.78388399 Ry
     estimated scf accuracy    <          7.4E-09 Ry

     iteration # 39     ecut=    60.00 Ry     beta= 0.30
     Davidson diagonalization with overlap
     ethr =  3.26E-12,  avg # of iterations =  1.1

     negative rho (up, down):  1.472E-03 0.000E+00

     total cpu time spent up to now is      758.5 secs

     total energy              =   -1842.78388398 Ry
     Harris-Foulkes estimate   =   -1842.78388399 Ry
     estimated scf accuracy    <          5.0E-09 Ry

     iteration # 40     ecut=    60.00 Ry     beta= 0.30
     Davidson diagonalization with overlap
     ethr =  2.22E-12,  avg # of iterations =  1.0

     negative rho (up, down):  1.471E-03 0.000E+00

     total cpu time spent up to now is      773.9 secs

     total energy              =   -1842.78388398 Ry
     Harris-Foulkes estimate   =   -1842.78388398 Ry
     estimated scf accuracy    <          4.1E-09 Ry

     iteration # 41     ecut=    60.00 Ry     beta= 0.30
     Davidson diagonalization with overlap
     ethr =  1.82E-12,  avg # of iterations =  1.0

     negative rho (up, down):  1.471E-03 0.000E+00

     total cpu time spent up to now is      789.0 secs

     total energy              =   -1842.78388398 Ry
     Harris-Foulkes estimate   =   -1842.78388398 Ry
     estimated scf accuracy    <          3.1E-09 Ry

     iteration # 42     ecut=    60.00 Ry     beta= 0.30
     Davidson diagonalization with overlap
     ethr =  1.38E-12,  avg # of iterations =  1.0

     negative rho (up, down):  1.470E-03 0.000E+00

     total cpu time spent up to now is      804.1 secs

     total energy              =   -1842.78388399 Ry
     Harris-Foulkes estimate   =   -1842.78388398 Ry
     estimated scf accuracy    <          2.3E-09 Ry

     iteration # 43     ecut=    60.00 Ry     beta= 0.30
     Davidson diagonalization with overlap
     ethr =  1.00E-12,  avg # of iterations =  1.4

     negative rho (up, down):  1.476E-03 0.000E+00

     total cpu time spent up to now is      819.6 secs

     total energy              =   -1842.78388398 Ry
     Harris-Foulkes estimate   =   -1842.78388399 Ry
     estimated scf accuracy    <          1.3E-09 Ry

     iteration # 44     ecut=    60.00 Ry     beta= 0.30
     Davidson diagonalization with overlap
     ethr =  5.70E-13,  avg # of iterations =  1.7

     negative rho (up, down):  1.482E-03 0.000E+00

     total cpu time spent up to now is      835.2 secs

     End of self-consistent calculation

          k = 0.0000 0.0000 0.0000 ( 39281 PWs)   bands (ev):

   -36.2603 -36.0269 -25.5157 -23.4456 -23.4414 -23.3100 -17.7640 -17.5098
   -17.3113 -17.3002 -17.0942 -17.0720 -15.9742 -15.8687 -15.8043 -15.3276
   -15.3174 -15.2438 -14.9459 -14.9240 -14.8348 -14.8244 -14.6443 -14.6018
   -14.5044 -14.4800 -14.0526 -10.8217 -10.3301 -10.2615  -8.5785  -8.5704
    -8.5392  -8.5361  -8.4982  -8.3536  -8.3464  -8.3422  -8.1855  -2.9994
    -2.9856  -2.9819  -2.4864  -2.4735  -2.4449  -2.3340  -2.2779  -2.2156
    -2.1571  -2.1301  -2.0515  -2.0175  -1.8762  -1.8735  -1.8125  -1.7141
    -1.7069  -1.5891  -1.1139  -1.1117  -1.0791  -1.0348  -1.0301  -1.0132
    -0.9552  -0.9201  -0.9178  -0.9144  -0.9108  -0.9055  -0.8215  -0.7637
    -0.7445  -0.7047  -0.6918  -0.6915  -0.6811  -0.5570  -0.5563  -0.5541
    -0.5491  -0.5401  -0.4848  -0.4411  -0.3801  -0.3419  -0.2050  -0.1424
    -0.0528   0.0958   0.1720   0.2134   0.2278   0.2287   0.2696   0.3805
     0.5173   0.5384   0.5852   0.6603   0.6901   0.7191   0.7305   0.7542
     0.8366   0.8584   0.8888   1.1428   1.1534   1.2843   1.3731   1.3810
     1.3861   1.4678   1.4811   1.4987   1.5853   1.8753   1.8786   2.6609
     3.8180   4.5601   4.5620   5.0692   5.3102   5.6616   5.9985   6.1049
     6.1362   6.3384   6.4917   7.2483   7.3104   7.3435   7.3975   7.4772
     7.6315

          k = 0.0000 0.1320 0.0000 ( 39259 PWs)   bands (ev):

   -36.2585 -36.0251 -25.4949 -23.4189 -23.4147 -23.2846 -17.7278 -17.4734
   -17.3726 -17.3089 -17.1440 -17.0919 -15.8860 -15.8191 -15.7270 -15.3336
   -15.3157 -15.2163 -14.9858 -14.9207 -14.8445 -14.8244 -14.6482 -14.6183
   -14.5692 -14.5133 -14.0749 -10.8102 -10.3011 -10.2943  -8.5775  -8.5704
    -8.4966  -8.4914  -8.4882  -8.3881  -8.3840  -8.3085  -8.2338  -3.0487
    -3.0409  -3.0252  -2.8273  -2.7996  -2.7293  -2.6072  -2.4573  -2.3128
    -2.2994  -2.2980  -2.2615  -2.1984  -2.1034  -1.9449  -1.8597  -1.7995
    -1.6482  -1.6144  -1.3990  -1.2869  -1.2615  -1.2111  -1.2093  -1.1155
    -1.1153  -1.0261  -1.0118  -0.8522  -0.8153  -0.8036  -0.8010  -0.7868
    -0.7859  -0.6707  -0.6694  -0.6556  -0.6536  -0.5762  -0.5730  -0.5321
    -0.5316  -0.5050  -0.3824  -0.3801  -0.3469  -0.3003  -0.2298  -0.1017
    -0.0856   0.1116   0.2343   0.2533   0.2792   0.3637   0.4256   0.4257
     0.4680   0.4740   0.5155   0.5529   0.7587   0.7735   0.7970   0.8017
     0.8661   0.9058   1.0073   1.1231   1.1238   1.2041   1.2346   1.3349
     1.3647   1.4169   1.5373   1.7501   1.9568   2.1623   2.1686   2.8428
     4.1716   4.9375   4.9390   5.2831   5.5829   5.8982   6.2029   6.4100
     6.4290   6.5355   6.6902   6.9528   7.2584   7.4961   7.5728   7.6659
     7.8547

          k = 0.0000 0.2640 0.0000 ( 39139 PWs)   bands (ev):

   -36.2541 -36.0207 -25.4440 -23.3530 -23.3488 -23.2219 -17.6359 -17.5267
   -17.3817 -17.3033 -17.2963 -17.0862 -15.7079 -15.6756 -15.5762 -15.3851
   -15.3293 -15.1571 -15.1326 -14.8755 -14.8337 -14.7774 -14.7337 -14.6841
   -14.6539 -14.5627 -14.1318 -10.7756 -10.3908 -10.2053  -8.5765  -8.5705
    -8.4921  -8.4788  -8.4745  -8.3710  -8.3678  -8.3383  -8.1954  -3.6209
    -3.4855  -3.4701  -3.3006  -3.0852  -3.0819  -2.9983  -2.9758  -2.9370
    -2.9341  -2.5554  -2.2574  -2.2150  -2.1449  -2.1381  -2.1025  -1.8420
    -1.7672  -1.7603  -1.6609  -1.5774  -1.5395  -1.4610  -1.4601  -1.3107
    -1.2926  -1.2138  -1.1959  -1.1535  -1.1508  -1.0753  -1.0344  -0.9629
    -0.9589  -0.7599  -0.7593  -0.6424  -0.6410  -0.5647  -0.5399  -0.4579
    -0.3339  -0.3083  -0.2994  -0.1978  -0.1640  -0.0512  -0.0331   0.0436
     0.0471   0.1458   0.2998   0.4222   0.4423   0.4552   0.4778   0.5100
     0.5109   0.5696   0.5806   0.5989   0.6279   0.6928   0.8238   0.8240
     1.0309   1.0744   1.0958   1.1168   1.2377   1.3181   1.3201   1.3480
     1.3604   1.4931   1.6835   1.8416   2.3806   2.3886   2.7174   3.3422
     5.0926   5.4567   5.8325   5.8333   5.9779   6.5990   6.6407   6.9911
     7.0630   7.2342   7.2436   7.3809   7.5457   7.9663   8.0134   8.1217
     8.1780

          k = 0.0000 0.3960 0.0000 ( 39052 PWs)   bands (ev):

   -36.2497 -36.0163 -25.3919 -23.2848 -23.2806 -23.1572 -17.6632 -17.5341
   -17.4340 -17.2976 -17.2773 -17.0806 -15.6012 -15.5883 -15.5766 -15.3554
   -15.2488 -15.2316 -15.1413 -14.8757 -14.8569 -14.7746 -14.7538 -14.7530
   -14.6108 -14.5961 -14.2138 -10.7221 -10.4838 -10.1125  -8.5764  -8.5707
    -8.5572  -8.5525  -8.4864  -8.4294  -8.2425  -8.2392  -8.0754  -4.3406
    -3.9456  -3.9331  -3.7356  -3.6526  -3.6490  -3.4429  -3.0278  -3.0247
    -3.0095  -2.9197  -2.4679  -2.4547  -2.1981  -2.1523  -2.1180  -2.0054
    -1.9678  -1.8857  -1.7478  -1.7386  -1.7302  -1.6859  -1.5590  -1.5362
    -1.5158  -1.4740  -1.4102  -1.3994  -1.3809  -1.2365  -1.1206  -1.0520
    -1.0263  -0.9665  -0.8763  -0.6253  -0.6241  -0.5332  -0.5272  -0.5227
    -0.5116  -0.3510  -0.3462  -0.1782  -0.0625   0.0146   0.1065   0.2675
     0.2724   0.2928   0.3041   0.4109   0.4286   0.4805   0.4822   0.5141
     0.6079   0.6103   0.6473   0.6644   0.9600   0.9763   1.0552   1.0738
     1.0960   1.1249   1.2578   1.2904   1.3179   1.3191   1.4010   1.5694
     1.6488   1.7129   1.7144   1.7607   2.2760   2.2837   3.2127   3.9819
     5.0248   6.1374   6.6517   6.7798   6.7815   6.9762   7.3941   7.5973
     7.6354   7.8219   8.0245   8.0437   8.2577   8.4101   8.4175   8.4532
     8.4988

          k = 0.0000-0.5279 0.0000 ( 39142 PWs)   bands (ev):

   -36.2478 -36.0144 -25.3699 -23.2559 -23.2517 -23.1298 -17.7153 -17.4892
   -17.4856 -17.2953 -17.2326 -17.0782 -15.6313 -15.6219 -15.5807 -15.2688
   -15.2195 -15.1987 -15.1314 -14.9111 -14.9026 -14.8014 -14.7330 -14.7270
   -14.6484 -14.5199 -14.2758 -10.6846 -10.5339 -10.0729  -8.5868  -8.5821
    -8.5761  -8.5702  -8.4786  -8.4691  -8.1866  -8.1833  -8.0234  -4.6057
    -4.1235  -4.1132  -3.9063  -3.8831  -3.8756  -3.6123  -3.0533  -3.0439
    -3.0408  -3.0199  -2.5973  -2.5877  -2.2141  -2.1364  -2.1168  -2.0553
    -1.9812  -1.9344  -1.8554  -1.8481  -1.8395  -1.6654  -1.6385  -1.6378
    -1.5687  -1.5452  -1.4926  -1.4905  -1.4623  -1.3142  -1.1906  -1.1454
    -1.0450  -0.9380  -0.8701  -0.6647  -0.6196  -0.6185  -0.5498  -0.5147
    -0.4923  -0.3695  -0.3476  -0.2522  -0.0956   0.0309   0.1453   0.1779
     0.1903   0.3541   0.3580   0.4443   0.4636   0.4652   0.5458   0.6142
     0.6185   0.6629   0.6795   0.7849   1.0721   1.0730   1.0958   1.1467
     1.2607   1.3534   1.3613   1.3684   1.3985   1.4419   1.5040   1.5126
     1.6013   1.6158   1.8743   1.8760   2.0986   2.1039   3.4004   4.4176
     4.7106   6.5638   6.6897   7.1922   7.1950   7.4691   7.5778   7.8133
     7.9781   8.2785   8.2912   8.3336   8.3676   8.4018   8.4990   8.5367
     8.6608

          k = 0.1250 0.0000 0.0000 ( 39229 PWs)   bands (ev):

   -36.2592 -36.0258 -25.5024 -23.4275 -23.4233 -23.2928 -17.7306 -17.4755
   -17.3913 -17.2988 -17.1763 -17.0707 -15.9067 -15.8597 -15.7149 -15.3736
   -15.3556 -15.2485 -14.9757 -14.9476 -14.8438 -14.8348 -14.6555 -14.6135
   -14.5236 -14.5209 -14.0608 -10.8436 -10.2744 -10.2385  -8.6039  -8.5969
    -8.5322  -8.4772  -8.4737  -8.3139  -8.3097  -8.2943  -8.1551  -3.0274
    -3.0274  -3.0134  -2.5312  -2.5089  -2.4935  -2.4653  -2.4490  -2.4147
    -2.1274  -2.1087  -2.0905  -2.0740  -1.9770  -1.8742  -1.8714  -1.7927
    -1.7364  -1.6258  -1.2973  -1.2593  -1.1698  -1.1681  -1.1164  -1.0544
    -1.0207  -0.9959  -0.9927  -0.9341  -0.9285  -0.9075  -0.8507  -0.8479
    -0.8064  -0.7782  -0.7334  -0.6981  -0.5642  -0.5614  -0.5531  -0.5480
    -0.4598  -0.4574  -0.4418  -0.3825  -0.3359  -0.3119  -0.2462  -0.1060
     0.0099   0.1043   0.1401   0.1425   0.1650   0.2864   0.2995   0.4422
     0.4549   0.5115   0.5419   0.5798   0.7023   0.7532   0.7541   0.8020
     0.8222   0.8463   0.9929   1.1133   1.2329   1.2773   1.3256   1.3309
     1.4164   1.4375   1.5282   1.5943   1.7641   1.9153   1.9164   2.8140
     4.0201   4.7421   4.7429   5.2503   5.5353   5.8394   6.1696   6.3196
     6.3451   6.5063   6.6856   7.1146   7.3963   7.4589   7.4879   7.6120
     7.7777

          k = 0.1250 0.1320 0.0000 ( 39196 PWs)   bands (ev):

   -36.2574 -36.0240 -25.4821 -23.4017 -23.3975 -23.2681 -17.6955 -17.4401
   -17.3944 -17.3619 -17.1769 -17.1357 -15.8507 -15.7824 -15.6482 -15.3686
   -15.3426 -15.2189 -15.0187 -14.9128 -14.8449 -14.8305 -14.6584 -14.6318
   -14.5839 -14.5458 -14.0803 -10.8219 -10.4318 -10.1419  -8.6221  -8.6174
    -8.5419  -8.5348  -8.5257  -8.3882  -8.2760  -8.2721  -8.1154  -3.0830
    -3.0764  -3.0382  -2.8150  -2.7830  -2.7090  -2.6169  -2.5100  -2.4914
    -2.4635  -2.4393  -2.2932  -2.2921  -2.1350  -2.0653  -1.9562  -1.8681
    -1.7507  -1.5715  -1.4858  -1.4022  -1.3986  -1.3283  -1.3157  -1.2206
    -1.1564  -1.1560  -0.9765  -0.9733  -0.9337  -0.8761  -0.8702  -0.8345
    -0.8068  -0.6993  -0.6800  -0.6562  -0.6072  -0.5553  -0.4979  -0.4946
    -0.4585  -0.4150  -0.3724  -0.3668  -0.3392  -0.3126  -0.1857  -0.1456
     0.0477   0.0736   0.2599   0.3592   0.3636   0.3796   0.3902   0.4352
     0.5359   0.5713   0.5971   0.6182   0.6451   0.6636   0.6643   0.8074
     0.9270   0.9375   1.0071   1.0075   1.0703   1.1650   1.2181   1.2818
     1.6835   1.7085   1.8105   1.9692   2.0847   2.1742   2.1780   2.9781
     4.3522   5.0807   5.0817   5.4089   5.7372   6.0474   6.3299   6.5358
     6.6168   6.6305   6.8241   7.0150   7.2920   7.6393   7.7202   7.8079
     7.9780

          k = 0.1250 0.2640 0.0000 ( 39127 PWs)   bands (ev):

   -36.2530 -36.0196 -25.4324 -23.3378 -23.3336 -23.2072 -17.6066 -17.5236
   -17.3740 -17.3520 -17.2928 -17.1587 -15.7177 -15.6067 -15.5341 -15.3736
   -15.3027 -15.1524 -15.1277 -14.8540 -14.8281 -14.7728 -14.7316 -14.6989
   -14.6784 -14.5769 -14.1284 -10.7741 -10.5716 -10.1277  -8.6909  -8.6869
    -8.5772  -8.5713  -8.5334  -8.4931  -8.2668  -8.2630  -8.1108  -3.6072
    -3.5084  -3.4898  -3.3128  -3.0860  -3.0825  -3.0002  -2.9792  -2.9363
    -2.9335  -2.5772  -2.4565  -2.4426  -2.3873  -2.1489  -2.1220  -2.0098
    -1.8794  -1.7831  -1.6578  -1.6367  -1.6360  -1.5619  -1.5382  -1.5297
    -1.3483  -1.3460  -1.2654  -1.2504  -1.1852  -1.1637  -1.0719  -1.0103
    -0.9368  -0.8786  -0.8171  -0.7275  -0.6158  -0.5030  -0.4600  -0.4286
    -0.3516  -0.2700  -0.2378  -0.1826  -0.0496   0.0381   0.0918   0.0998
     0.1404   0.3367   0.3658   0.3751   0.4299   0.5437   0.5572   0.5689
     0.6361   0.6400   0.6503   0.6784   0.7222   0.7514   0.7932   0.8378
     0.9491   0.9715   1.1073   1.1085   1.2808   1.2814   1.2877   1.3639
     1.8806   1.9010   2.0590   2.2729   2.3889   2.4187   2.7245   3.4546
     5.2156   5.3610   5.8936   5.8943   6.1113   6.6748   6.7149   6.7988
     7.0487   7.3985   7.4042   7.5436   7.7235   8.1053   8.1488   8.1899
     8.2480

          k = 0.1250 0.3960 0.0000 ( 39118 PWs)   bands (ev):

   -36.2486 -36.0152 -25.3815 -23.2719 -23.2677 -23.1445 -17.6580 -17.5077
   -17.4288 -17.3654 -17.2501 -17.1503 -15.5828 -15.5536 -15.5442 -15.2815
   -15.2311 -15.1723 -15.1162 -14.8573 -14.8390 -14.8059 -14.7497 -14.7468
   -14.6155 -14.6057 -14.1969 -10.7282 -10.6274 -10.1756  -8.7213  -8.7169
    -8.5892  -8.5830  -8.5826  -8.4944  -8.3118  -8.3083  -8.1514  -4.3261
    -3.9877  -3.9704  -3.7655  -3.6439  -3.6404  -3.4607  -3.0357  -3.0331
    -3.0182  -2.8600  -2.4480  -2.4369  -2.3205  -2.2783  -2.2697  -2.1331
    -1.9866  -1.9865  -1.9323  -1.8942  -1.8256  -1.8057  -1.7383  -1.5498
    -1.5426  -1.5231  -1.5150  -1.5038  -1.4319  -1.4141  -1.2119  -1.0719
    -0.9665  -0.9432  -0.9377  -0.7251  -0.6408  -0.5097  -0.4499  -0.4479
    -0.3397  -0.2959  -0.2027  -0.1599   0.0075   0.1149   0.2430   0.2530
     0.3009   0.3977   0.4152   0.4939   0.5338   0.5585   0.5763   0.5945
     0.6827   0.7487   0.7739   0.8669   0.9934   1.0366   1.0480   1.0830
     1.1099   1.1910   1.2347   1.3664   1.4079   1.5392   1.6806   1.6815
     1.8284   1.8510   2.0212   2.1749   2.3291   2.3833   3.2247   4.0577
     4.9530   6.0492   6.6410   6.6469   6.6583   6.8042   7.4046   7.5145
     7.6252   7.7236   8.0067   8.0192   8.1752   8.2312   8.4696   8.6594
     8.7086

          k = 0.1250-0.5279 0.0000 ( 39084 PWs)   bands (ev):

   -36.2468 -36.0134 -25.3601 -23.2439 -23.2397 -23.1179 -17.7096 -17.4800
   -17.4644 -17.3616 -17.2067 -17.1466 -15.5864 -15.5781 -15.5339 -15.2553
   -15.1572 -15.1568 -15.0754 -14.8925 -14.8868 -14.8358 -14.7299 -14.7268
   -14.6334 -14.5371 -14.2477 -10.6865 -10.6574 -10.2061  -8.7160  -8.7113
    -8.5936  -8.5925  -8.5878  -8.4932  -8.3461  -8.3428  -8.1777  -4.5932
    -4.1731  -4.1579  -3.9418  -3.8739  -3.8694  -3.6364  -3.0568  -3.0540
    -3.0336  -2.9563  -2.4784  -2.4670  -2.2772  -2.2406  -2.2179  -2.1847
    -2.1367  -2.1328  -2.0609  -1.9373  -1.8950  -1.8497  -1.7955  -1.6868
    -1.6353  -1.6022  -1.5895  -1.5198  -1.5068  -1.5026  -1.2991  -1.0864
    -0.9734  -0.9448  -0.9386  -0.7026  -0.6214  -0.4928  -0.4834  -0.4416
    -0.4380  -0.3354  -0.2120  -0.1363  -0.0263   0.1033   0.2719   0.2939
     0.3015   0.3030   0.3510   0.5553   0.5585   0.6087   0.6098   0.6934
     0.6974   0.7863   0.8252   0.9072   1.1140   1.1832   1.2375   1.3519
     1.3616   1.3682   1.3852   1.4883   1.5922   1.6397   1.6895   1.7012
     1.8456   1.8469   1.8811   2.0133   2.2066   2.2742   3.4099   4.3746
     4.8117   6.2036   6.4686   6.8661   6.8688   7.3905   7.6194   7.7189
     7.7325   8.0580   8.1157   8.3559   8.4566   8.6226   8.6469   8.6643
     8.8829

          k = 0.2500 0.0000 0.0000 ( 39248 PWs)   bands (ev):

   -36.2566 -36.0232 -25.4701 -23.3832 -23.3790 -23.2505 -17.6456 -17.5550
   -17.3897 -17.3412 -17.2955 -17.0673 -15.9732 -15.6631 -15.6017 -15.4618
   -15.3848 -15.2754 -15.0926 -14.9567 -14.8580 -14.8538 -14.7043 -14.6337
   -14.5987 -14.5618 -14.0831 -10.8658 -10.1821 -10.1746  -8.6054  -8.5985
    -8.5564  -8.3908  -8.3874  -8.2332  -8.2289  -8.2108  -8.0795  -3.2217
    -3.2130  -3.1058  -2.8763  -2.8636  -2.8598  -2.5728  -2.4076  -2.3785
    -2.3220  -2.1477  -2.1377  -2.0459  -2.0176  -1.9600  -1.8708  -1.8680
    -1.8144  -1.7646  -1.6019  -1.4857  -1.4241  -1.4204  -1.3691  -1.3143
    -1.1875  -1.1840  -1.0392  -1.0358  -1.0182  -1.0180  -0.9388  -0.9056
    -0.9051  -0.8597  -0.8564  -0.7208  -0.6220  -0.5770  -0.5741  -0.4705
    -0.4657  -0.3314  -0.3299  -0.2569  -0.2484  -0.1933  -0.1356  -0.1112
    -0.0148   0.0046   0.0919   0.1801   0.2657   0.2705   0.2914   0.3965
     0.4814   0.6159   0.6419   0.6671   0.6815   0.6962   0.7464   0.8165
     0.8279   0.8795   0.8888   1.1937   1.2163   1.2194   1.3164   1.3722
     1.4400   1.5890   1.6199   1.7628   1.9827   2.0218   2.0416   3.2188
     4.5502   5.1998   5.2006   5.6104   6.0464   6.2453   6.3676   6.6762
     6.8990   6.9183   7.2249   7.4563   7.6354   7.7412   7.8346   7.8914
     8.0645

          k = 0.2500 0.1320 0.0000 ( 39213 PWs)   bands (ev):

   -36.2548 -36.0214 -25.4509 -23.3594 -23.3551 -23.2276 -17.6136 -17.5485
   -17.3616 -17.3599 -17.3321 -17.1332 -15.9129 -15.6106 -15.5671 -15.4151
   -15.3333 -15.2414 -15.0952 -14.9068 -14.8438 -14.8421 -14.7006 -14.6478
   -14.6176 -14.6017 -14.0962 -10.8416 -10.4631 -10.0694  -8.6728  -8.6685
    -8.5795  -8.5276  -8.5226  -8.3915  -8.1996  -8.1957  -8.0470  -3.2740
    -3.2576  -3.1344  -2.8763  -2.8542  -2.8519  -2.7542  -2.7355  -2.6541
    -2.6162  -2.5730  -2.3797  -2.2843  -2.2825  -2.2162  -2.0456  -1.9810
    -1.8863  -1.6949  -1.6660  -1.6598  -1.5920  -1.5545  -1.4426  -1.4132
    -1.2813  -1.2757  -1.2410  -1.1985  -1.0139  -1.0040  -0.8985  -0.8733
    -0.8408  -0.7670  -0.7327  -0.6793  -0.6770  -0.5822  -0.5142  -0.4637
    -0.4218  -0.4117  -0.3255  -0.3220  -0.1274  -0.0850  -0.0705   0.0297
     0.1078   0.2390   0.2532   0.2607   0.3050   0.3834   0.4076   0.4770
     0.5457   0.5499   0.6395   0.7193   0.7249   0.7675   0.7730   0.8220
     0.8283   0.8673   1.0278   1.0755   1.0789   1.2009   1.2655   1.4411
     1.9659   2.0349   2.0386   2.1925   2.2161   2.2349   2.4632   3.3609
     4.8194   5.4610   5.4619   5.5429   6.1191   6.2847   6.5175   6.7563
     7.0876   7.1583   7.1686   7.4803   7.6846   7.9327   7.9711   8.0996
     8.2110

          k = 0.2500 0.2640 0.0000 ( 39179 PWs)   bands (ev):

   -36.2504 -36.0170 -25.4041 -23.3007 -23.2964 -23.1713 -17.5501 -17.5238
   -17.4979 -17.3309 -17.2767 -17.2645 -15.7518 -15.5171 -15.5022 -15.2804
   -15.2058 -15.1611 -15.1128 -14.8203 -14.8154 -14.7801 -14.7549 -14.6923
   -14.6902 -14.6133 -14.1223 -10.7901 -10.7530 -10.1741  -8.8928  -8.8889
    -8.7319  -8.5896  -8.5841  -8.5072  -8.3194  -8.3154  -8.1705  -3.6595
    -3.6142  -3.5647  -3.4095  -3.1015  -3.0966  -3.0294  -2.9901  -2.9665
    -2.9661  -2.8346  -2.8205  -2.8174  -2.5277  -2.5032  -2.1149  -2.0781
    -2.0730  -2.0517  -2.0186  -1.8761  -1.7808  -1.6519  -1.6127  -1.5439
    -1.5290  -1.3921  -1.3703  -1.3377  -1.2507  -1.2504  -1.1530  -1.0864
    -1.0269  -0.8963  -0.7893  -0.7249  -0.7150  -0.5435  -0.5177  -0.3111
    -0.3062  -0.1030  -0.0901   0.0968   0.1349   0.1553   0.2468   0.2811
     0.3072   0.3118   0.4979   0.5159   0.5698   0.6052   0.6164   0.7140
     0.7157   0.7573   0.7841   0.7953   0.8572   0.8937   0.9364   0.9710
     1.0109   1.0368   1.1789   1.1817   1.2057   1.2110   1.3556   1.4744
     2.3313   2.3316   2.6108   2.6369   2.7207   2.7628   2.9704   3.7806
     5.0625   5.4564   6.0038   6.0047   6.4277   6.5694   6.8926   7.1010
     7.1534   7.6335   7.6904   7.6930   8.0208   8.0524   8.3437   8.3679
     8.4619

          k = 0.2500 0.3960 0.0000 ( 39160 PWs)   bands (ev):

   -36.2461 -36.0126 -25.3562 -23.2403 -23.2360 -23.1135 -17.6460 -17.5134
   -17.4390 -17.4169 -17.3006 -17.1799 -15.5467 -15.4720 -15.4671 -15.1804
   -15.1086 -15.0725 -15.0670 -14.8848 -14.8177 -14.7942 -14.7376 -14.7340
   -14.6197 -14.5999 -14.1541 -10.9262 -10.7180 -10.3847  -9.0129  -9.0085
    -8.8617  -8.6399  -8.6349  -8.5335  -8.5291  -8.5258  -8.3896  -4.2959
    -4.1471  -4.1136  -3.8843  -3.6234  -3.6196  -3.5336  -3.1058  -3.1047
    -3.0470  -2.8250  -2.7823  -2.7803  -2.6788  -2.4461  -2.4459  -2.4161
    -2.3004  -2.1891  -2.1008  -2.0606  -1.9655  -1.8333  -1.7948  -1.7812
    -1.5478  -1.4783  -1.4774  -1.4618  -1.4448  -1.4407  -1.2283  -1.2197
    -1.0948  -1.0923  -0.7812  -0.7702  -0.5877  -0.5007  -0.4430  -0.2790
    -0.2451   0.0420   0.0747   0.1454   0.3219   0.3241   0.3569   0.4431
     0.5877   0.6291   0.6410   0.6420   0.6691   0.6812   0.8197   0.8505
     0.8961   0.9796   0.9957   1.0586   1.0854   1.1049   1.1367   1.1476
     1.1837   1.2293   1.2717   1.3851   1.4192   1.6023   1.6030   1.6650
     2.1636   2.1639   2.8383   2.8809   2.9857   3.1843   3.2403   4.1949
     4.7537   5.8084   6.2111   6.2138   6.4380   6.9548   7.0702   7.2824
     7.6413   7.9755   8.0654   8.1454   8.1559   8.3785   8.6975   8.8547
     9.0055

          k = 0.2500-0.5279 0.0000 ( 39192 PWs)   bands (ev):

   -36.2442 -36.0108 -25.3361 -23.2147 -23.2105 -23.0891 -17.6961 -17.5079
   -17.4666 -17.3995 -17.2953 -17.1404 -15.4689 -15.4637 -15.4136 -15.2469
   -15.0524 -15.0214 -14.9952 -14.9057 -14.8533 -14.8453 -14.7231 -14.7211
   -14.6034 -14.5437 -14.1778 -10.9544 -10.6925 -10.5023  -9.0130  -9.0082
    -8.8798  -8.7278  -8.7242  -8.6000  -8.5943  -8.5416  -8.5011  -4.5658
    -4.3461  -4.3143  -4.0756  -3.8510  -3.8473  -3.7269  -3.1129  -3.1126
    -3.0609  -2.8138  -2.7676  -2.7428  -2.6953  -2.5945  -2.5732  -2.4104
    -2.3932  -2.2612  -2.1613  -2.0970  -2.0659  -1.9078  -1.8882  -1.8293
    -1.6271  -1.5574  -1.5323  -1.4745  -1.4554  -1.4375  -1.2791  -1.2408
    -1.1492  -1.1182  -0.7793  -0.7669  -0.4766  -0.4728  -0.3674  -0.2653
    -0.2073  -0.0710   0.0772   0.1662   0.3715   0.4245   0.4294   0.4561
     0.5411   0.5766   0.6712   0.7502   0.7582   0.8515   0.8524   0.8536
     0.8910   1.0210   1.0822   1.1336   1.1981   1.2455   1.3098   1.3372
     1.3711   1.3839   1.4055   1.4612   1.5610   1.7735   1.7788   1.7824
     1.9419   1.9421   2.8573   2.9090   3.0237   3.2132   3.4172   4.1529
     5.0481   5.7344   6.1749   6.1763   6.1779   6.9582   7.0284   7.3658
     8.1329   8.1341   8.4738   8.5931   8.6274   8.6553   8.8631   8.8819
     8.9139

          k = 0.3750 0.0000 0.0000 ( 39182 PWs)   bands (ev):

   -36.2539 -36.0205 -25.4372 -23.3378 -23.3335 -23.2072 -17.6950 -17.5503
   -17.4860 -17.2922 -17.2880 -17.0640 -16.0616 -15.6986 -15.6905 -15.3410
   -15.2935 -15.2696 -15.1767 -14.9330 -14.8711 -14.8622 -14.8082 -14.6639
   -14.6465 -14.5958 -14.1129 -10.8621 -10.1241 -10.1063  -8.5878  -8.5810
    -8.5501  -8.3259  -8.3228  -8.1617  -8.1488  -8.1445  -8.0008  -3.5502
    -3.5364  -3.4026  -2.9868  -2.9852  -2.9803  -2.9561  -2.3278  -2.2787
    -2.2554  -2.2191  -2.1739  -2.1708  -2.0920  -1.9528  -1.9523  -1.9023
    -1.8724  -1.8697  -1.7990  -1.6757  -1.6586  -1.5579  -1.5530  -1.5003
    -1.3873  -1.3841  -1.2222  -1.1921  -1.1585  -1.0548  -1.0417  -0.9918
    -0.9159  -0.8971  -0.8850  -0.7191  -0.7083  -0.5898  -0.5869  -0.4862
    -0.4738  -0.4547  -0.2587  -0.2533  -0.2501  -0.2315  -0.2243  -0.1446
    -0.0458   0.0824   0.1149   0.2389   0.2593   0.3877   0.4844   0.5277
     0.5298   0.5475   0.5591   0.6777   0.6880   0.7329   0.8320   0.8944
     0.9049   0.9466   1.0873   1.1074   1.1213   1.2273   1.4608   1.4624
     1.5396   1.6222   1.6493   1.8785   1.9971   2.1374   2.1637   3.8011
     4.9598   5.7790   5.8496   5.8506   5.9448   6.7154   7.0917   7.3426
     7.3451   7.3719   7.5747   7.7821   7.9041   7.9264   7.9914   8.4357
     8.6291

          k = 0.3750 0.1320 0.0000 ( 39227 PWs)   bands (ev):

   -36.2522 -36.0187 -25.4192 -23.3161 -23.3118 -23.1862 -17.6864 -17.5212
   -17.4772 -17.3566 -17.2589 -17.1282 -15.9899 -15.6510 -15.6437 -15.2998
   -15.2377 -15.2258 -15.1435 -14.8861 -14.8424 -14.8391 -14.7879 -14.6554
   -14.6515 -14.6328 -14.1218 -10.8403 -10.4002 -10.1165  -8.6443  -8.6395
    -8.5761  -8.4893  -8.4850  -8.3414  -8.2385  -8.2344  -8.0946  -3.6135
    -3.5922  -3.4477  -3.0014  -2.9848  -2.9841  -2.9590  -2.7100  -2.6634
    -2.6531  -2.5368  -2.3177  -2.2891  -2.2729  -2.2705  -2.1370  -2.0700
    -1.9838  -1.9589  -1.9563  -1.8879  -1.7404  -1.6280  -1.5060  -1.4650
    -1.4644  -1.4036  -1.3437  -1.3136  -1.1181  -1.0777  -1.0119  -0.9246
    -0.9065  -0.7879  -0.7222  -0.7076  -0.6963  -0.5869  -0.4950  -0.4740
    -0.4460  -0.4266  -0.2164  -0.2149  -0.1721  -0.0868  -0.0169   0.0429
     0.0465   0.1464   0.1957   0.3069   0.3961   0.4536   0.5338   0.5515
     0.5606   0.6347   0.6569   0.6999   0.7050   0.7266   0.8649   0.9328
     0.9419   1.0358   1.0794   1.0969   1.1360   1.2463   1.4923   1.5981
     1.9977   2.0981   2.1062   2.2815   2.3319   2.4535   2.6187   3.9298
     5.0920   5.4523   5.9993   5.9993   6.0592   6.7790   7.1385   7.3608
     7.4101   7.4126   7.4557   7.8123   7.8788   8.0512   8.2127   8.4018
     8.6034

          k = 0.3750 0.2640 0.0000 ( 39219 PWs)   bands (ev):

   -36.2478 -36.0144 -25.3754 -23.2628 -23.2585 -23.1347 -17.6661 -17.5011
   -17.4564 -17.4459 -17.2720 -17.1838 -15.7924 -15.5291 -15.5241 -15.2000
   -15.1266 -15.1235 -15.0539 -14.8180 -14.8072 -14.7731 -14.7726 -14.6751
   -14.6687 -14.6287 -14.1264 -10.8409 -10.7598 -10.3551  -8.9455  -8.9415
    -8.7892  -8.6242  -8.6195  -8.5214  -8.5019  -8.4972  -8.3712  -3.9338
    -3.8819  -3.6838  -3.5289  -3.2292  -3.1582  -3.1395  -3.0371  -3.0360
    -3.0279  -2.9575  -2.9072  -2.9046  -2.7785  -2.5385  -2.4387  -2.3820
    -2.2734  -1.9873  -1.9586  -1.8770  -1.8523  -1.7451  -1.5981  -1.5752
    -1.5429  -1.4906  -1.4871  -1.4115  -1.3054  -1.3034  -1.1712  -1.1265
    -1.0339  -0.9936  -0.8395  -0.6436  -0.5901  -0.5253  -0.4702  -0.2282
    -0.2105   0.0029   0.0230   0.1225   0.1652   0.1738   0.3506   0.3519
     0.4181   0.4988   0.5535   0.5702   0.5969   0.6428   0.7409   0.7675
     0.8306   0.8586   0.9006   0.9708   0.9807   1.0165   1.0336   1.0960
     1.1009   1.1123   1.1460   1.1709   1.2106   1.3437   1.4897   1.6698
     2.3317   2.3320   2.7553   3.0645   3.0827   3.1765   3.3788   4.2593
     4.7342   5.3771   6.0440   6.0463   6.5212   6.9193   6.9626   7.2341
     7.5229   7.7528   7.7570   7.7766   8.1256   8.2019   8.5683   8.7521
     8.7634

          k = 0.3750 0.3960 0.0000 ( 39217 PWs)   bands (ev):

   -36.2435 -36.0100 -25.3307 -23.2081 -23.2039 -23.0820 -17.6489 -17.6275
   -17.4368 -17.4005 -17.3664 -17.1041 -15.5223 -15.3938 -15.3920 -15.1210
   -15.0905 -15.0305 -14.9271 -14.8950 -14.8175 -14.7378 -14.7304 -14.7176
   -14.6192 -14.5413 -14.1127 -11.1435 -10.7250 -10.6387  -9.2113  -9.2068
    -9.0605  -8.8763  -8.8729  -8.6827  -8.6269  -8.6210  -8.5502  -4.4154
    -4.3534  -4.2634  -4.0982  -3.6947  -3.6006  -3.5989  -3.2871  -3.2842
    -3.1588  -2.9626  -2.9352  -2.9330  -2.8371  -2.7757  -2.6758  -2.6391
    -2.4992  -2.2301  -2.1586  -1.8823  -1.8637  -1.8618  -1.8438  -1.6663
    -1.6178  -1.5933  -1.5310  -1.5102  -1.4785  -1.4484  -1.3821  -1.1646
    -1.0531  -1.0500  -0.9989  -0.5696  -0.4660  -0.4196  -0.2183  -0.1581
    -0.0406   0.2146   0.3026   0.3466   0.4991   0.5036   0.6023   0.6394
     0.6834   0.7439   0.8073   0.8290   0.8331   0.8575   0.9315   0.9953
     1.0672   1.0960   1.1088   1.1283   1.1452   1.2245   1.2962   1.3127
     1.3346   1.3916   1.3963   1.4859   1.4903   1.5252   1.5294   1.8958
     2.1520   2.1539   3.2348   3.5817   3.6001   3.6585   3.8516   4.0135
     4.9085   5.5758   5.7416   5.7428   6.4119   6.6372   6.7000   7.1337
     7.8820   8.3157   8.3364   8.4104   8.5263   8.7100   8.8197   8.8907
     8.9066

          k = 0.3750-0.5279 0.0000 ( 39212 PWs)   bands (ev):

   -36.2417 -36.0082 -25.3119 -23.1851 -23.1808 -23.0598 -17.6828 -17.6362
   -17.4534 -17.4262 -17.3310 -17.0688 -15.3323 -15.3321 -15.2806 -15.2440
   -15.0598 -15.0009 -14.9576 -14.8312 -14.8224 -14.7742 -14.7152 -14.7131
   -14.5939 -14.4890 -14.1049 -11.2535 -10.7781 -10.6918  -9.2934  -9.2884
    -9.1551  -9.0214  -9.0183  -8.8124  -8.6534  -8.6466  -8.5641  -4.6263
    -4.5597  -4.5288  -4.2948  -3.8995  -3.8257  -3.8242  -3.3057  -3.3025
    -3.1753  -2.9605  -2.9298  -2.9270  -2.8816  -2.8346  -2.7808  -2.6868
    -2.5687  -2.3363  -2.2289  -1.9814  -1.9662  -1.8991  -1.8830  -1.6801
    -1.6201  -1.6130  -1.6071  -1.5834  -1.5650  -1.4329  -1.3983  -1.2617
    -1.0408  -1.0355  -0.9994  -0.5578  -0.4322  -0.3750  -0.1358  -0.0477
     0.0458   0.2816   0.3324   0.4498   0.6088   0.6170   0.6399   0.6990
     0.7095   0.7488   0.8783   0.9026   0.9401   1.0285   1.1044   1.1215
     1.1234   1.1749   1.1804   1.2862   1.3305   1.3671   1.3837   1.4542
     1.4600   1.4736   1.5029   1.5738   1.6127   1.7129   1.7150   1.9081
     1.9110   2.0292   3.3742   3.7174   3.7468   3.7774   3.8360   3.9913
     5.2504   5.5632   5.5650   5.6403   6.1116   6.5214   6.5929   6.9493
     8.3368   8.4569   8.5037   8.5641   8.6786   8.6916   8.8221   8.9326
     9.0484

          k =-0.5000 0.0000 0.0000 ( 39178 PWs)   bands (ev):

   -36.2528 -36.0194 -25.4234 -23.3186 -23.3144 -23.1889 -17.7473 -17.5389
   -17.5083 -17.2908 -17.2442 -17.0626 -16.1021 -15.7550 -15.7468 -15.3802
   -15.2399 -15.2389 -15.0343 -14.9905 -14.8669 -14.8589 -14.8514 -14.7073
   -14.6644 -14.6064 -14.1286 -10.8552 -10.0997 -10.0850  -8.5776  -8.5706
    -8.5415  -8.3027  -8.2998  -8.1481  -8.1127  -8.1083  -7.9672  -3.6921
    -3.6787  -3.5427  -3.1350  -3.0120  -3.0099  -2.9533  -2.3222  -2.2809
    -2.2605  -2.2540  -2.2171  -2.1274  -2.0545  -2.0449  -1.9411  -1.8848
    -1.8775  -1.8735  -1.8674  -1.8360  -1.8011  -1.6681  -1.5739  -1.4699
    -1.4676  -1.4452  -1.3143  -1.2905  -1.2273  -1.0728  -1.0602  -1.0527
    -0.9486  -0.8932  -0.8750  -0.7352  -0.6896  -0.5951  -0.5923  -0.5427
    -0.5153  -0.5066  -0.2762  -0.2535  -0.2508  -0.2283  -0.2248  -0.1750
    -0.0780   0.0586   0.1411   0.2653   0.3215   0.4221   0.4757   0.4792
     0.4886   0.4926   0.7016   0.7254   0.7384   0.8541   0.9148   0.9265
     0.9555   0.9971   1.0002   1.0097   1.1972   1.2736   1.4800   1.5324
     1.6247   1.6342   1.6624   1.8831   1.9658   2.1702   2.1826   4.4728
     4.4868   5.8850   6.0642   6.6225   6.6237   6.6737   6.6752   7.2208
     7.5821   7.6399   7.8524   7.8701   8.0019   8.0276   8.0856   8.3365
     8.7853

          k =-0.5000 0.1320 0.0000 ( 39242 PWs)   bands (ev):

   -36.2511 -36.0176 -25.4060 -23.2979 -23.2936 -23.1688 -17.7380 -17.5295
   -17.4808 -17.3544 -17.2167 -17.1260 -16.0250 -15.6982 -15.6906 -15.3344
   -15.2020 -15.2011 -15.0000 -14.9311 -14.8423 -14.8299 -14.8264 -14.6731
   -14.6600 -14.6452 -14.1372 -10.8333 -10.3149 -10.2031  -8.6156  -8.6101
    -8.5615  -8.4321  -8.4292  -8.3158  -8.3109  -8.2691  -8.1811  -3.7617
    -3.7412  -3.5958  -3.1613  -3.0166  -3.0151  -2.9707  -2.6809  -2.6467
    -2.6271  -2.4843  -2.3139  -2.2773  -2.2670  -2.2653  -2.1809  -2.1010
    -2.0848  -2.0706  -2.0276  -1.9532  -1.7855  -1.6609  -1.5912  -1.5256
    -1.5234  -1.4182  -1.3728  -1.2456  -1.2127  -1.1144  -1.0680  -0.9479
    -0.9419  -0.7600  -0.7376  -0.7026  -0.6917  -0.5938  -0.4852  -0.4759
    -0.4608  -0.4325  -0.2146  -0.1427  -0.1395  -0.0721  -0.0670  -0.0634
    -0.0382   0.1138   0.1795   0.3694   0.3871   0.4938   0.5359   0.5735
     0.5996   0.6289   0.6300   0.6652   0.7531   0.8660   0.8686   0.9612
     1.0370   1.0444   1.0744   1.2016   1.2064   1.2383   1.6217   1.6787
     2.0066   2.0997   2.1077   2.2995   2.3565   2.5077   2.6425   4.5810
     4.5991   5.3961   6.2400   6.4703   6.4717   6.9771   6.9777   7.2533
     7.4991   7.6105   7.6657   7.7912   8.0325   8.0637   8.2031   8.5907
     8.6858

          k =-0.5000 0.2640 0.0000 ( 39264 PWs)   bands (ev):

   -36.2468 -36.0133 -25.3634 -23.2469 -23.2426 -23.1194 -17.7161 -17.5072
   -17.4977 -17.4096 -17.2687 -17.1459 -15.8112 -15.5476 -15.5418 -15.2235
   -15.1162 -15.1125 -14.9170 -14.8249 -14.7885 -14.7859 -14.7801 -14.7209
   -14.6617 -14.5862 -14.1342 -10.8124 -10.7552 -10.4852  -8.8845  -8.8797
    -8.7418  -8.7333  -8.7304  -8.5655  -8.5596  -8.5508  -8.5010  -4.0718
    -4.0204  -3.8257  -3.5207  -3.3615  -3.1838  -3.1701  -3.0559  -3.0460
    -3.0375  -2.9619  -2.9159  -2.9123  -2.8124  -2.5734  -2.5351  -2.4968
    -2.3674  -2.0292  -1.9803  -1.8130  -1.7763  -1.7069  -1.6249  -1.6227
    -1.5746  -1.5084  -1.4688  -1.4648  -1.3306  -1.3281  -1.1719  -1.1359
    -1.0494  -1.0346  -0.8542  -0.6003  -0.5202  -0.4855  -0.3891  -0.2031
    -0.1835   0.0322   0.0411   0.0617   0.1945   0.1984   0.3662   0.4376
     0.4427   0.5259   0.5276   0.5326   0.5884   0.7100   0.7745   0.7988
     0.9083   0.9112   0.9464   0.9734   1.0342   1.0461   1.0625   1.0944
     1.1174   1.1644   1.1826   1.2290   1.2513   1.3122   1.6106   1.7768
     2.3247   2.3254   2.7634   3.2047   3.2224   3.3110   3.5011   4.4638
     4.8851   4.9816   6.0401   6.0418   6.6399   6.8666   6.8950   7.3831
     7.7454   7.7596   7.7881   7.9910   8.2768   8.4063   8.6896   8.7245
     8.8732

          k =-0.5000 0.3960 0.0000 ( 39212 PWs)   bands (ev):

   -36.2424 -36.0090 -25.3200 -23.1947 -23.1904 -23.0688 -17.6945 -17.6267
   -17.4854 -17.3975 -17.3342 -17.0705 -15.5156 -15.3647 -15.3627 -15.1261
   -15.0817 -15.0388 -14.8860 -14.8275 -14.8066 -14.7332 -14.7311 -14.6861
   -14.6543 -14.4932 -14.0971 -11.2157 -10.7649 -10.7197  -9.2596  -9.2547
    -9.1159  -9.0214  -9.0184  -8.8187  -8.6437  -8.6372  -8.5640  -4.5446
    -4.4790  -4.2808  -4.1943  -3.7979  -3.5926  -3.5904  -3.3568  -3.3549
    -3.2195  -2.9749  -2.9522  -2.9494  -2.9408  -2.8657  -2.7693  -2.6270
    -2.5810  -2.3069  -2.1533  -1.8916  -1.8780  -1.7653  -1.7407  -1.7089
    -1.6818  -1.5978  -1.5433  -1.5371  -1.4723  -1.4625  -1.4575  -1.1397
    -1.0923  -1.0133  -1.0117  -0.4696  -0.4540  -0.3820  -0.1202  -0.0367
     0.0381   0.2985   0.3302   0.4153   0.6174   0.6421   0.6446   0.6471
     0.7165   0.7780   0.8488   0.9006   0.9053   0.9272   0.9775   1.0082
     1.1102   1.1488   1.1495   1.1621   1.1847   1.2764   1.3466   1.3727
     1.3985   1.4415   1.4465   1.4912   1.4932   1.5671   1.6086   2.0230
     2.1398   2.1427   3.2338   3.8496   3.8604   3.8620   3.9058   4.0864
     5.1826   5.3866   5.5455   5.5468   6.4285   6.4820   6.5470   6.9395
     8.2277   8.2662   8.4155   8.5267   8.6465   8.7580   8.7743   8.8521
     8.9999

          k =-0.5000-0.5279 0.0000 ( 39284 PWs)   bands (ev):

   -36.2406 -36.0072 -25.3018 -23.1727 -23.1684 -23.0476 -17.6857 -17.6773
   -17.4765 -17.4479 -17.3007 -17.0372 -15.2697 -15.2662 -15.2442 -15.2208
   -15.1005 -15.0231 -14.9331 -14.8281 -14.7696 -14.7132 -14.7116 -14.7081
   -14.6121 -14.4528 -14.0738 -11.3793 -10.8806 -10.6967  -9.4056  -9.4005
    -9.2664  -9.1375  -9.1345  -8.9257  -8.6721  -8.6645  -8.5800  -4.7537
    -4.6861  -4.5360  -4.4033  -4.0014  -3.8169  -3.8146  -3.3892  -3.3873
    -3.2488  -2.9741  -2.9589  -2.9551  -2.9415  -2.9395  -2.8611  -2.6521
    -2.6510  -2.4047  -2.2187  -2.0059  -1.9951  -1.8301  -1.8055  -1.6858
    -1.6511  -1.6379  -1.6359  -1.5870  -1.5700  -1.4821  -1.4534  -1.2541
    -1.0814  -0.9856  -0.9828  -0.4461  -0.4191  -0.3451  -0.0959   0.0935
     0.1449   0.3899   0.4863   0.5661   0.6888   0.6988   0.7002   0.7536
     0.7714   0.7956   0.9446   0.9500   0.9950   1.1267   1.1618   1.1769
     1.2236   1.2437   1.2457   1.2912   1.3763   1.4109   1.4589   1.4963
     1.5290   1.5815   1.5826   1.6135   1.6859   1.6893   1.7568   1.8837
     1.8884   2.1616   3.3568   3.6303   4.0493   4.0666   4.1107   4.2756
     5.3119   5.3182   5.3198   5.6687   6.1627   6.3531   6.4289   6.7558
     8.3760   8.3963   8.4077   8.4093   8.5478   8.6515   8.8350   8.9325
     9.0482

     the Fermi energy is     1.9137 ev

!    total energy              =   -1842.78388397 Ry
     Harris-Foulkes estimate   =   -1842.78388398 Ry
     estimated scf accuracy    <          3.9E-10 Ry

     The total energy is the sum of the following terms:

     one-electron contribution =  -22171.78591785 Ry
     hartree contribution      =   11232.67055798 Ry
     xc contribution           =    -621.54561396 Ry
     ewald contribution        =    9717.88489226 Ry
     smearing contrib. (-TS)   =      -0.00780240 Ry

     convergence has been achieved in  44 iterations

     negative rho (up, down):  1.482E-03 0.000E+00

     Forces acting on atoms (cartesian axes, Ry/au):

     atom    1 type  4   force =     0.00000000    0.00000000   -0.00011242
     atom    2 type  3   force =     0.00000000    0.00000000    0.00030011
     atom    3 type  4   force =     0.00000000    0.00000000   -0.00077062
     atom    4 type  1   force =     0.00000000    0.00000000   -0.00035774
     atom    5 type  3   force =     0.00000000    0.00000000    0.00057290
     atom    6 type  4   force =     0.00000000    0.00000000    0.00029018
     atom    7 type  4   force =     0.00000000    0.00000000    0.00070738
     atom    8 type  2   force =     0.00000000    0.00000000   -0.00147567
     atom    9 type  4   force =     0.00000000    0.00000000    0.00132103
     atom   10 type  4   force =     0.00000000    0.00000000    0.00172858
     atom   11 type  3   force =     0.00000000    0.00000000   -0.00023348
     atom   12 type  1   force =     0.00000000    0.00000000   -0.00551303
     atom   13 type  4   force =     0.00000000    0.00000000    0.00742788
     atom   14 type  4   force =     0.00000000    0.00000000    0.02545156
     atom   15 type  3   force =     0.00000000    0.00000000   -0.03207328
     atom   16 type  4   force =     0.00000000    0.00000000    0.06262217
     atom   17 type  1   force =     0.00000000    0.00000000   -0.05878504
     atom   18 type  3   force =     0.00000000    0.00000000   -0.01870606
     atom   19 type  4   force =     0.00000000    0.00000000    0.02139219
     atom   20 type  4   force =     0.00000000    0.00000000    0.00997480
     atom   21 type  2   force =     0.00000000    0.00000000   -0.01873637
     atom   22 type  4   force =     0.00000000    0.00000000    0.00115299
     atom   23 type  4   force =     0.00000000    0.00000000    0.00303300
     atom   24 type  3   force =     0.00000000    0.00000000   -0.00002335
     atom   25 type  1   force =     0.00000000    0.00000000    0.00008290
     atom   26 type  4   force =     0.00000000    0.00000000    0.00108056
     atom   27 type  3   force =     0.00000000    0.00000000   -0.00072693
     atom   28 type  4   force =     0.00000000    0.00000000    0.00037579

     Total force =     0.101547     Total SCF correction =     0.000044


     Computing stress (Cartesian axis) and pressure


     negative rho (up, down):  1.482E-03 0.000E+00
          total   stress  (Ry/bohr**3)                   (kbar)     P=       -7.55
  -0.00010123   0.00000000   0.00000000          -14.89        0.00        0.00
   0.00000000  -0.00003666   0.00000000            0.00       -5.39        0.00
   0.00000000   0.00000000  -0.00001613            0.00        0.00       -2.37


     number of scf cycles    =   5
     number of bfgs steps    =   4

     energy   old            =   -1842.8537892811 Ry
     energy   new            =   -1842.7838839686 Ry

     CASE: energy  _new > energy  _old


 %%%%%%%%%%%%%%%%%%%%%%%%%%%%%%%%%%%%%%%%%%%%%%%%%%%%%%%%%%%%%%%%%%%%%%%%%%%%%%
     Error in routine bfgs (1):
     dE0s is positive which should never happen
 %%%%%%%%%%%%%%%%%%%%%%%%%%%%%%%%%%%%%%%%%%%%%%%%%%%%%%%%%%%%%%%%%%%%%%%%%%%%%%

     stopping ...
