<UPF version="2.0.1">
<PP_INFO>
Generated by new atomic code, or converted to UPF format
Author:
Generation date:
Pseudopotential type: US
Element: Ba
Functional:  SLA  PW   PBE  PBE
Suggested minimum cutoff for wavefunctions:   0. Ry
Suggested minimum cutoff for charge density:   0. Ry
The Pseudo was generated with a Scalar-Relativistic Calculation
L component and cutoff radius for Local Potential:  0   0.0000
Valence configuration:
nl pn  l   occ       Rcut    Rcut US       E pseu
5S  0  0  2.00     10.000      2.600     0.000000
5P  0  1  6.00     10.000      2.000     0.000000
5D  0  2  0.00     10.000      2.200     0.000000
6S  0  0  2.00     10.000      2.600     0.000000
6P  0  1  0.00     10.000      2.000     0.000000
Generation configuration: not available.
</PP_INFO>
<!--
END OF HUMAN READABLE SECTION
-->
<PP_HEADER generated="Generated by new atomic code, or converted to UPF format" author="" date="" comment="" element="Ba" pseudo_type="US" relativistic="scalar" is_ultrasoft="true" is_paw="false" is_coulomb="false" has_so="false" has_wfc="false" has_gipaw="false" paw_as_gipaw="false" core_correction="true" functional=" SLA  PW   PBE  PBE" z_valence="1.000000000000e1" total_psenergy="-9.005998828379e1" wfc_cutoff="0.000000000000e0" rho_cutoff="0.000000000000e0" l_max="2" l_max_rho="0" l_local="0" mesh_size="907" number_of_wfc="5" number_of_proj="6"/>
<PP_MESH mesh="907" rmax="2.065578045400e2" zmesh="5.600000000000e1">
<PP_R>
0.000000000000000e0 7.566215907130001e-7 1.526176571570000e-6 2.308886020820000e-6
3.104974795750000e-6 3.914671597250000e-6 4.738209035550000e-6 5.575823697020001e-6
6.427756212140000e-6 7.294251324629998e-6 8.175557961780001e-6 9.071929305929999e-6
9.983622867219999e-6 1.091090055760000e-5 1.185402876590000e-5 1.281327843470000e-5
1.378892513790000e-5 1.478124915980000e-5 1.579053557600000e-5 1.681707433490000e-5
1.786116034130000e-5 1.892309354070000e-5 2.000317900620000e-5 2.110172702530000e-5
2.221905318970000e-5 2.335547848550000e-5 2.451132938569999e-5 2.568693794390000e-5
2.688264188970000e-5 2.809878472569999e-5 2.933571582630000e-5 3.059379053770000e-5
3.187337028060000e-5 3.317482265330000e-5 3.449852153810000e-5 3.584484720790000e-5
3.721418643610000e-5 3.860693260730000e-5 4.002348583050000e-5 4.146425305419999e-5
4.292964818280000e-5 4.442009219600001e-5 4.593601326950000e-5 4.747784689820000e-5
4.904603602090000e-5 5.064103114799999e-5 5.226329049090000e-5 5.391328009320000e-5
5.559147396499999e-5 5.729835421899999e-5 5.903441120870000e-5 6.080014366980000e-5
6.259605886300000e-5 6.442267272010000e-5 6.628050999179999e-5 6.817010439889999e-5
7.009199878510000e-5 7.204674527370001e-5 7.403490542550001e-5 7.605705040029999e-5
7.811376112140000e-5 8.020562844190000e-5 8.233325331470001e-5 8.449724696539999e-5
8.669823106749998e-5 8.893683792109998e-5 9.121371063460002e-5 9.352950330960002e-5
9.588488122829999e-5 9.828052104539998e-5 1.007171109820000e-4 1.031953510230000e-4
1.057159531180000e-4 1.082796413890000e-4 1.108871523320000e-4 1.135392350370000e-4
1.162366513930000e-4 1.189801763180000e-4 1.217705979730000e-4 1.246087179910000e-4
1.274953517100000e-4 1.304313284040000e-4 1.334174915220000e-4 1.364546989310000e-4
1.395438231620000e-4 1.426857516610000e-4 1.458813870420000e-4 1.491316473500000e-4
1.524374663220000e-4 1.557997936560000e-4 1.592195952830000e-4 1.626978536460000e-4
1.662355679810000e-4 1.698337546060000e-4 1.734934472090000e-4 1.772156971500000e-4
1.810015737590000e-4 1.848521646450000e-4 1.887685760080000e-4 1.927519329580000e-4
1.968033798350000e-4 2.009240805430000e-4 2.051152188780000e-4 2.093779988740000e-4
2.137136451450000e-4 2.181234032370000e-4 2.226085399900000e-4 2.271703438969999e-4
2.318101254740000e-4 2.365292176430000e-4 2.413289761060000e-4 2.462107797410000e-4
2.511760309960001e-4 2.562261562920000e-4 2.613626064320000e-4 2.665868570180000e-4
2.719004088779999e-4 2.773047884900000e-4 2.828015484300000e-4 2.883922678090000e-4
2.940785527340000e-4 2.998620367640000e-4 3.057443813810000e-4 3.117272764710000e-4
3.178124408020000e-4 3.240016225250000e-4 3.302965996710000e-4 3.366991806670000e-4
3.432112048490001e-4 3.498345429970000e-4 3.565710978660000e-4 3.634228047400001e-4
3.703916319790000e-4 3.774795815950000e-4 3.846886898180000e-4 3.920210276840000e-4
3.994787016330000e-4 4.070638541110000e-4 4.147786641830001e-4 4.226253481680001e-4
4.306061602640000e-4 4.387233932039999e-4 4.469793789130000e-4 4.553764891760000e-4
4.639171363200000e-4 4.726037739070001e-4 4.814388974400000e-4 4.904250450800001e-4
4.995647983730000e-4 5.088607829920000e-4 5.183156694950000e-4 5.279321740870000e-4
5.377130594050000e-4 5.476611353060000e-4 5.577792596819999e-4 5.680703392719999e-4
5.785373305060000e-4 5.891832403480000e-4 6.000111271600001e-4 6.110241015860000e-4
6.222253274400000e-4 6.336180226170001e-4 6.452054600180000e-4 6.569909684899999e-4
6.689779337820000e-4 6.811697995159999e-4 6.935700681800000e-4 7.061823021300000e-4
7.190101246180001e-4 7.320572208289999e-4 7.453273389409999e-4 7.588242912019999e-4
7.725519550250000e-4 7.865142741030001e-4 8.007152595390000e-4 8.151589910029999e-4
8.298496178979999e-4 8.447913605569999e-4 8.599885114540001e-4 8.754454364370000e-4
8.911665759800000e-4 9.071564464630001e-4 9.234196414660000e-4 9.399608330900000e-4
9.567847733009998e-4 9.738962952890001e-4 9.913003148650001e-4 1.009001831870000e-3
1.027005931600000e-3 1.045317786280000e-3 1.063942656570000e-3 1.082885893020000e-3
1.102152937670000e-3 1.121749325550000e-3 1.141680686330000e-3 1.161952745910000e-3
1.182571328050000e-3 1.203542356080000e-3 1.224871854570000e-3 1.246565951070000e-3
1.268630877870000e-3 1.291072973800000e-3 1.313898686040000e-3 1.337114571970000e-3
1.360727301070000e-3 1.384743656830000e-3 1.409170538660000e-3 1.434014963950000e-3
1.459284070020000e-3 1.484985116190000e-3 1.511125485880000e-3 1.537712688710000e-3
1.564754362660000e-3 1.592258276280000e-3 1.620232330930000e-3 1.648684563000000e-3
1.677623146270000e-3 1.707056394230000e-3 1.736992762490000e-3 1.767440851190000e-3
1.798409407460000e-3 1.829907327990000e-3 1.861943661510000e-3 1.894527611440000e-3
1.927668538520000e-3 1.961375963500000e-3 1.995659569860000e-3 2.030529206630000e-3
2.065994891170000e-3 2.102066812100000e-3 2.138755332170000e-3 2.176070991290000e-3
2.214024509520000e-3 2.252626790180000e-3 2.291888922950000e-3 2.331822187090000e-3
2.372438054640000e-3 2.413748193770000e-3 2.455764472070000e-3 2.498498960020000e-3
2.541963934390000e-3 2.586171881840000e-3 2.631135502450000e-3 2.676867713410000e-3
2.723381652690000e-3 2.770690682840000e-3 2.818808394840000e-3 2.867748611980000e-3
2.917525393820000e-3 2.968153040280000e-3 3.019646095700001e-3 3.072019353040000e-3
3.125287858120001e-3 3.179466913950000e-3 3.234572085130000e-3 3.290619202300000e-3
3.347624366720000e-3 3.405603954870000e-3 3.464574623160000e-3 3.524553312730000e-3
3.585557254290000e-3 3.647603973090000e-3 3.710711293950000e-3 3.774897346390000e-3
3.840180569820000e-3 3.906579718850000e-3 3.974113868660000e-3 4.042802420500000e-3
4.112665107280000e-3 4.183721999190000e-3 4.255993509500000e-3 4.329500400410000e-3
4.404263789040000e-3 4.480305153449999e-3 4.557646338870000e-3 4.636309563910000e-3
4.716317427000000e-3 4.797692912850000e-3 4.880459399059999e-3 4.964640662840000e-3
5.050260887840000e-3 5.137344671099999e-3 5.225917030090001e-3 5.316003409950000e-3
5.407629690749999e-3 5.500822194940000e-3 5.595607694929999e-3 5.692013420759999e-3
5.790067067929999e-3 5.889796805350000e-3 5.991231283450000e-3 6.094399642390000e-3
6.199331520440000e-3 6.306057062500001e-3 6.414606928750000e-3 6.525012303480000e-3
6.637304903999999e-3 6.751516989810000e-3 6.867681371840001e-3 6.985831421850000e-3
7.106001082079999e-3 7.228224874930000e-3 7.352537912949999e-3 7.478975908859999e-3
7.607575185850001e-3 7.738372688010000e-3 7.871405990930000e-3 8.006713312490000e-3
8.144333523880000e-3 8.284306160720000e-3 8.426671434440001e-3 8.571470243820000e-3
8.718744186770000e-3 8.868535572240001e-3 9.020887432390001e-3 9.175843534959998e-3
9.333448395849999e-3 9.493747291880000e-3 9.656786273829999e-3 9.822612179629999e-3
9.991272647860001e-3 1.016281613140000e-2 1.033729191140000e-2 1.051475011140000e-2
1.069524171160000e-2 1.087881856380000e-2 1.106553340610000e-2 1.125543987810000e-2
1.144859253610000e-2 1.164504686930000e-2 1.184485931510000e-2 1.204808727590000e-2
1.225478913500000e-2 1.246502427390000e-2 1.267885308910000e-2 1.289633700950000e-2
1.311753851390000e-2 1.334252114940000e-2 1.357134954900000e-2 1.380408945080000e-2
1.404080771640000e-2 1.428157235030000e-2 1.452645251970000e-2 1.477551857380000e-2
1.502884206450000e-2 1.528649576670000e-2 1.554855369940000e-2 1.581509114670000e-2
1.608618467970000e-2 1.636191217830000e-2 1.664235285370000e-2 1.692758727100000e-2
1.721769737260000e-2 1.751276650150000e-2 1.781287942540000e-2 1.811812236090000e-2
1.842858299830000e-2 1.874435052710000e-2 1.906551566110000e-2 1.939217066480000e-2
1.972440937990000e-2 2.006232725220000e-2 2.040602135890000e-2 2.075559043670000e-2
2.111113491010000e-2 2.147275692000000e-2 2.184056035340000e-2 2.221465087330000e-2
2.259513594850000e-2 2.298212488500000e-2 2.337572885740000e-2 2.377606094030000e-2
2.418323614150000e-2 2.459737143440000e-2 2.501858579229999e-2 2.544700022170000e-2
2.588273779790000e-2 2.632592369990000e-2 2.677668524630000e-2 2.723515193220000e-2
2.770145546640000e-2 2.817572980860000e-2 2.865811120890000e-2 2.914873824590000e-2
2.964775186750000e-2 3.015529543040000e-2 3.067151474230000e-2 3.119655810280000e-2
3.173057634680000e-2 3.227372288740000e-2 3.282615376010000e-2 3.338802766760000e-2
3.395950602540000e-2 3.454075300820000e-2 3.513193559690000e-2 3.573322362690000e-2
3.634478983660000e-2 3.696680991720000e-2 3.759946256290000e-2 3.824292952270000e-2
3.889739565210000e-2 3.956304896670000e-2 4.024008069560000e-2 4.092868533710000e-2
4.162906071389999e-2 4.234140803030001e-2 4.306593192989999e-2 4.380284055450000e-2
4.455234560350000e-2 4.531466239529999e-2 4.609000992880000e-2 4.687861094630000e-2
4.768069199760000e-2 4.849648350500000e-2 4.932621982980000e-2 5.017013933900000e-2
5.102848447450000e-2 5.190150182210001e-2 5.278944218290000e-2 5.369256064500000e-2
5.461111665670000e-2 5.554537410160000e-2 5.649560137350001e-2 5.746207145460001e-2
5.844506199280000e-2 5.944485538250000e-2 6.046173884480001e-2 6.149600451070000e-2
6.254794950480001e-2 6.361787603040002e-2 6.470609145670001e-2 6.581290840709999e-2
6.693864484850000e-2 6.808362418330000e-2 6.924817534190000e-2 7.043263287720000e-2
7.163733706109999e-2 7.286263398170000e-2 7.410887564320000e-2 7.537642006650001e-2
7.666563139280001e-2 7.797687998739999e-2 7.931054254680001e-2 8.066700220640000e-2
8.204664865069999e-2 8.344987822560000e-2 8.487709405170001e-2 8.632870614040000e-2
8.780513151200001e-2 8.930679431480000e-2 9.083412594739999e-2 9.238756518270000e-2
9.396755829380000e-2 9.557455918199999e-2 9.720902950760001e-2 9.887143882240000e-2
1.005622647040000e-1 1.022819928950000e-1 1.040311174390000e-1 1.058101408260000e-1
1.076195741350000e-1 1.094599371810000e-1 1.113317586650000e-1 1.132355763250000e-1
1.151719370910000e-1 1.171413972410000e-1 1.191445225640000e-1 1.211818885200000e-1
1.232540804020000e-1 1.253616935130000e-1 1.275053333290000e-1 1.296856156760000e-1
1.319031669060000e-1 1.341586240800000e-1 1.364526351470000e-1 1.387858591310000e-1
1.411589663230000e-1 1.435726384710000e-1 1.460275689750000e-1 1.485244630900000e-1
1.510640381260000e-1 1.536470236520000e-1 1.562741617110000e-1 1.589462070290000e-1
1.616639272320000e-1 1.644281030690000e-1 1.672395286350000e-1 1.700990115970000e-1
1.730073734290000e-1 1.759654496480000e-1 1.789740900510000e-1 1.820341589640000e-1
1.851465354830000e-1 1.883121137360000e-1 1.915318031310000e-1 1.948065286230000e-1
1.981372309770000e-1 2.015248670390000e-1 2.049704100120000e-1 2.084748497330000e-1
2.120391929600000e-1 2.156644636610000e-1 2.193517033040000e-1 2.231019711640000e-1
2.269163446180000e-1 2.307959194630000e-1 2.347418102260000e-1 2.387551504850000e-1
2.428370931940000e-1 2.469888110170000e-1 2.512114966620000e-1 2.555063632250000e-1
2.598746445380000e-1 2.643175955230000e-1 2.688364925550000e-1 2.734326338250000e-1
2.781073397150000e-1 2.828619531790000e-1 2.876978401240000e-1 2.926163898080000e-1
2.976190152340000e-1 3.027071535600000e-1 3.078822665090000e-1 3.131458407920000e-1
3.184993885310000e-1 3.239444476980000e-1 3.294825825520000e-1 3.351153840920000e-1
3.408444705130000e-1 3.466714876700000e-1 3.525981095540000e-1 3.586260387680000e-1
3.647570070190000e-1 3.709927756160000e-1 3.773351359740000e-1 3.837859101310000e-1
3.903469512690000e-1 3.970201442500000e-1 4.038074061500000e-1 4.107106868210000e-1
4.177319694400000e-1 4.248732710870000e-1 4.321366433190000e-1 4.395241727620000e-1
4.470379817120000e-1 4.546802287380000e-1 4.624531093120000e-1 4.703588564319999e-1
4.783997412650000e-1 4.865780738020000e-1 4.948962035200000e-1 5.033565200570001e-1
5.119614538980000e-1 5.207134770740000e-1 5.296151038710000e-1 5.386688915550000e-1
5.478774411040001e-1 5.572433979560000e-1 5.667694527700000e-1 5.764583421950000e-1
5.863128496640000e-1 5.963358061839999e-1 6.065300911580001e-1 6.168986332060000e-1
6.274444110100000e-1 6.381704541680000e-1 6.490798440650000e-1 6.601757147560000e-1
6.714612538710000e-1 6.829397035270000e-1 6.946143612609999e-1 7.064885809750000e-1
7.185657739030001e-1 7.308494095890000e-1 7.433430168839999e-1 7.560501849600000e-1
7.689745643400000e-1 7.821198679469999e-1 7.954898721740000e-1 8.090884179640000e-1
8.229194119160001e-1 8.369868274070001e-1 8.512947057330001e-1 8.658471572710001e-1
8.806483626580000e-1 8.957025739940001e-1 9.110141160640000e-1 9.265873875760001e-1
9.424268624300000e-1 9.585370910010001e-1 9.749227014460001e-1 9.915884010330000e-1
1.008538977500000e0 1.025779300410000e0 1.043314322580000e0 1.061149081480000e0
1.079288700700000e0 1.097738391390000e0 1.116503453790000e0 1.135589278750000e0
1.155001349240000e0 1.174745242000000e0 1.194826629040000e0 1.215251279370000e0
1.236025060590000e0 1.257153940610000e0 1.278643989340000e0 1.300501380470000e0
1.322732393190000e0 1.345343414050000e0 1.368340938760000e0 1.391731574050000e0
1.415522039610000e0 1.439719169980000e0 1.464329916520000e0 1.489361349430000e0
1.514820659740000e0 1.540715161440000e0 1.567052293500000e0 1.593839622080000e0
1.621084842660000e0 1.648795782260000e0 1.676980401700000e0 1.705646797870000e0
1.734803206080000e0 1.764458002390000e0 1.794619706060000e0 1.825296981960000e0
1.856498643080000e0 1.888233653050000e0 1.920511128730000e0 1.953340342800000e0
1.986730726480000e0 2.020691872160000e0 2.055233536230000e0 2.090365641840000e0
2.126098281770000e0 2.162441721310000e0 2.199406401220000e0 2.237002940750000e0
2.275242140650000e0 2.314134986310000e0 2.353692650880000e0 2.393926498530000e0
2.434848087640000e0 2.476469174220000e0 2.518801715180000e0 2.561857871850000e0
2.605650013420000e0 2.650190720540000e0 2.695492788890000e0 2.741569232870000e0
2.788433289360000e0 2.836098421490000e0 2.884578322530000e0 2.933886919810000e0
2.984038378760000e0 3.035047106900000e0 3.086927758060000e0 3.139695236550000e0
3.193364701440000e0 3.247951570930000e0 3.303471526770000e0 3.359940518770000e0
3.417374769380000e0 3.475790778350000e0 3.535205327470000e0 3.595635485380000e0
3.657098612510000e0 3.719612366010000e0 3.783194704890000e0 3.847863895110000e0
3.913638514890000e0 3.980537460000000e0 4.048579949210000e0 4.117785529810000e0
4.188174083220000e0 4.259765830730000e0 4.332581339240000e0 4.406641527240000e0
4.481967670800000e0 4.558581409660000e0 4.636504753460000e0 4.715760088080000e0
4.796370182030000e0 4.878358193030000e0 4.961747674660000e0 5.046562583100000e0
5.132827284030000e0 5.220566559620000e0 5.309805615690000e0 5.400570088870000e0
5.492886054060000e0 5.586780031830000e0 5.682278996100000e0 5.779410381900000e0
5.878202093180000e0 5.978682510880000e0 6.080880501100000e0 6.184825423330000e0
6.290547138930000e0 6.398076019720000e0 6.507442956660000e0 6.618679368750000e0
6.731817212060000e0 6.846888988910000e0 6.963927757180000e0 7.082967139860000e0
7.204041334650000e0 7.327185123830000e0 7.452433884230000e0 7.579823597380000e0
7.709390859900000e0 7.841172893940000e0 7.975207557930000e0 8.111533357450000e0
8.250189456250000e0 8.391215687550000e0 8.534652565460000e0 8.680541296610000e0
8.828923792010000e0 8.979842679090000e0 9.133341313920001e0 9.289463793690000e0
9.448254969370000e0 9.609760458580000e0 9.774026658720000e0 9.941100760310000e0
1.011103076050000e1 1.028386547690000e1 1.045965456150000e1 1.063844851520000e1
1.082029870210000e1 1.100525736400000e1 1.119337763620000e1 1.138471356190000e1
1.157932010820000e1 1.177725318180000e1 1.197856964510000e1 1.218332733230000e1
1.239158506650000e1 1.260340267600000e1 1.281884101180000e1 1.303796196540000e1
1.326082848590000e1 1.348750459850000e1 1.371805542290000e1 1.395254719180000e1
1.419104727030000e1 1.443362417480000e1 1.468034759300000e1 1.493128840360000e1
1.518651869720000e1 1.544611179640000e1 1.571014227740000e1 1.597868599090000e1
1.625182008450000e1 1.652962302420000e1 1.681217461750000e1 1.709955603590000e1
1.739184983860000e1 1.768913999590000e1 1.799151191350000e1 1.829905245710000e1
1.861184997710000e1 1.892999433410000e1 1.925357692490000e1 1.958269070850000e1
1.991743023290000e1 2.025789166230000e1 2.060417280470000e1 2.095637314000000e1
2.131459384840000e1 2.167893784000000e1 2.204950978350000e1 2.242641613730000e1
2.280976517920000e1 2.319966703790000e1 2.359623372480000e1 2.399957916570000e1
2.440981923410000e1 2.482707178380000e1 2.525145668360000e1 2.568309585090000e1
2.612211328740000e1 2.656863511430000e1 2.702278960870000e1 2.748470724030000e1
2.795452070920000e1 2.843236498360000e1 2.891837733900000e1 2.941269739740000e1
2.991546716720000e1 3.042683108470000e1 3.094693605460000e1 3.147593149310000e1
3.201396937030001e1 3.256120425420000e1 3.311779335470000e1 3.368389656910000e1
3.425967652790000e1 3.484529864150000e1 3.544093114780000e1 3.604674516050000e1
3.666291471830000e1 3.728961683480000e1 3.792703154930000e1 3.857534197880000e1
3.923473437030001e1 3.990539815440000e1 4.058752600000000e1 4.128131386910001e1
4.198696107350000e1 4.270467033210000e1 4.343464782890000e1 4.417710327210000e1
4.493224995500000e1 4.570030481660001e1 4.648148850410000e1 4.727602543650000e1
4.808414386890000e1 4.890607595810000e1 4.974205782920000e1 5.059232964370000e1
5.145713566830000e1 5.233672434490000e1 5.323134836230000e1 5.414126472880000e1
5.506673484570000e1 5.600802458260000e1 5.696540435390000e1 5.793914919630001e1
5.892953884770001e1 5.993685782810001e1 6.096139552060000e1 6.200344625510001e1
6.306330939260000e1 6.414128941130000e1 6.523769599390000e1 6.635284411690001e1
6.748705414080000e1 6.864065190210001e1 6.981396880720000e1 7.100734192730001e1
7.222111409530000e1 7.345563400460001e1 7.471125630890000e1 7.598834172410000e1
7.728725713210000e1 7.860837568620001e1 7.995207691830000e1 8.131874684760000e1
8.270877809210001e1 8.412256998070001e1 8.556052866850001e1 8.702306725330001e1
8.851060589410000e1 9.002357193180002e1 9.156240001250001e1 9.312753221159999e1
9.471941816130000e1 9.633851517970001e1 9.798528840199999e1 9.966021091430001e1
1.013637638890000e2 1.030964367250000e2 1.048587271850000e2 1.066511415400000e2
1.084741947180000e2 1.103284104450000e2 1.122143214020000e2 1.141324693750000e2
1.160834054110000e2 1.180676899760000e2 1.200858931160000e2 1.221385946220000e2
1.242263841950000e2 1.263498616170000e2 1.285096369230000e2 1.307063305730000e2
1.329405736350000e2 1.352130079640000e2 1.375242863870000e2 1.398750728890000e2
1.422660428050000e2 1.446978830150000e2 1.471712921390000e2 1.496869807410000e2
1.522456715280000e2 1.548480995630000e2 1.574950124740000e2 1.601871706660000e2
1.629253475460000e2 1.657103297380000e2 1.685429173140000e2 1.714239240210000e2
1.743541775180000e2 1.773345196080000e2 1.803658064870000e2 1.834489089840000e2
1.865847128160000e2 1.897741188380000e2 1.930180433050000e2 1.963174181330000e2
1.996731911700000e2 2.030863264630000e2 2.065578045400000e2
</PP_R>
<PP_RAB>
7.502276563760001e-7 7.630517511340001e-7 7.760950558939999e-7 7.893613177460001e-7
8.028543478290000e-7 8.165780224309998e-7 8.305362840970000e-7 8.447331427660000e-7
8.591726769210000e-7 8.738590347600001e-7 8.887964353890000e-7 9.039891700360002e-7
9.194416032780001e-7 9.351581743010000e-7 9.511433981710002e-7 9.674018671340001e-7
9.839382519339999e-7 1.000757303150000e-6 1.017863852580000e-6 1.035262814600000e-6
1.052959187580000e-6 1.070958055370000e-6 1.089264588680000e-6 1.107884046640000e-6
1.126821778230000e-6 1.146083223930000e-6 1.165673917150000e-6 1.185599485930000e-6
1.205865654510000e-6 1.226478244950000e-6 1.247443178860000e-6 1.268766479050000e-6
1.290454271300000e-6 1.312512786090000e-6 1.334948360410000e-6 1.357767439560000e-6
1.380976579020000e-6 1.404582446330000e-6 1.428591823000000e-6 1.453011606450000e-6
1.477848812020000e-6 1.503110574950000e-6 1.528804152470000e-6 1.554936925840000e-6
1.581516402490000e-6 1.608550218210000e-6 1.636046139270000e-6 1.664012064740000e-6
1.692456028660000e-6 1.721386202460000e-6 1.750810897200000e-6 1.780738566030000e-6
1.811177806600000e-6 1.842137363500000e-6 1.873626130810000e-6 1.905653154660000e-6
1.938227635790000e-6 1.971358932200000e-6 2.005056561890000e-6 2.039330205530000e-6
2.074189709280000e-6 2.109645087590000e-6 2.145706526119999e-6 2.182384384600000e-6
2.219689199890000e-6 2.257631688940000e-6 2.296222751880000e-6 2.335473475180000e-6
2.375395134820001e-6 2.415999199520000e-6 2.457297334029999e-6 2.499301402520000e-6
2.542023471940000e-6 2.585475815510000e-6 2.629670916250000e-6 2.674621470560000e-6
2.720340391860000e-6 2.766840814310001e-6 2.814136096590000e-6 2.862239825720000e-6
2.911165820960000e-6 2.960928137810001e-6 3.011541072010000e-6 3.063019163690000e-6
3.115377201500000e-6 3.168630226900000e-6 3.222793538440000e-6 3.277882696209999e-6
3.333913526240000e-6 3.390902125120000e-6 3.448864864560000e-6 3.507818396140000e-6
3.567779656059999e-6 3.628765870040000e-6 3.690794558230000e-6 3.753883540280000e-6
3.818050940430000e-6 3.883315192730000e-6 3.949695046349999e-6 4.017209570920000e-6
4.085878162060000e-6 4.155720546930000e-6 4.226756789900000e-6 4.299007298310001e-6
4.372492828320000e-6 4.447234490910001e-6 4.523253757910000e-6 4.600572468189999e-6
4.679212833910000e-6 4.759197446930000e-6 4.840549285280000e-6 4.923291719780000e-6
5.007448520719999e-6 5.093043864719999e-6 5.180102341660000e-6 5.268648961770000e-6
5.358709162780000e-6 5.450308817230000e-6 5.543474239929999e-6 5.638232195520000e-6
5.734609906099999e-6 5.832635059150000e-6 5.932335815380000e-6 6.033740816900001e-6
6.136879195390001e-6 6.241780580520001e-6 6.348475108440001e-6 6.456993430400000e-6
6.567366721619999e-6 6.679626690220002e-6 6.793805586310000e-6 6.909936211280000e-6
7.028051927209998e-6 7.148186666470000e-6 7.270374941419999e-6 7.394651854410000e-6
7.521053107790000e-6 7.649615014180000e-6 7.780374506939999e-6 7.913369150740000e-6
8.048637152369999e-6 8.186217371700000e-6 8.326149332870001e-6 8.468473235629999e-6
8.613229966879999e-6 8.760461112420000e-6 8.910208968920001e-6 9.062516556040000e-6
9.217427628789999e-6 9.374986690140002e-6 9.535239003750000e-6 9.698230607010000e-6
9.864008324249998e-6 1.003261978020000e-5 1.020411341370000e-5 1.037853849150000e-5
1.055594512260000e-5 1.073638427240000e-5 1.091990777770000e-5 1.110656836120000e-5
1.129641964690000e-5 1.148951617530000e-5 1.168591341940000e-5 1.188566780030000e-5
1.208883670350000e-5 1.229547849560000e-5 1.250565254080000e-5 1.271941921790000e-5
1.293683993800000e-5 1.315797716200000e-5 1.338289441810000e-5 1.361165632080000e-5
1.384432858900000e-5 1.408097806490000e-5 1.432167273330000e-5 1.456648174120000e-5
1.481547541740000e-5 1.506872529290000e-5 1.532630412170000e-5 1.558828590110000e-5
1.585474589330000e-5 1.612576064730000e-5 1.640140802020000e-5 1.668176720030000e-5
1.696691872930000e-5 1.725694452570000e-5 1.755192790830000e-5 1.785195362020000e-5
1.815710785290000e-5 1.846747827140000e-5 1.878315403890000e-5 1.910422584320000e-5
1.943078592190000e-5 1.976292808940000e-5 2.010074776360000e-5 2.044434199379999e-5
2.079380948780000e-5 2.114925064080000e-5 2.151076756440000e-5 2.187846411510000e-5
2.225244592530000e-5 2.263282043260000e-5 2.301969691120000e-5 2.341318650330000e-5
2.381340225080000e-5 2.422045912800000e-5 2.463447407440000e-5 2.505556602850000e-5
2.548385596190000e-5 2.591946691390000e-5 2.636252402719999e-5 2.681315458360000e-5
2.727148804040000e-5 2.773765606800000e-5 2.821179258740000e-5 2.869403380890000e-5
2.918451827110000e-5 2.968338688070000e-5 3.019078295280000e-5 3.070685225280000e-5
3.123174303710000e-5 3.176560609690000e-5 3.230859480060000e-5 3.286086513840000e-5
3.342257576690000e-5 3.399388805460000e-5 3.457496612860000e-5 3.516597692130000e-5
3.576709021860000e-5 3.637847870889999e-5 3.700031803210001e-5 3.763278683069999e-5
3.827606680070000e-5 3.893034274410001e-5 3.959580262160000e-5 4.027263760699999e-5
4.096104214179999e-5 4.166121399150001e-5 4.237335430170000e-5 4.309766765660000e-5
4.383436213750000e-5 4.458364938249999e-5 4.534574464710000e-5 4.612086686670000e-5
4.690923871890000e-5 4.771108668760000e-5 4.852664112830000e-5 4.935613633400000e-5
5.019981060249999e-5 5.105790630520000e-5 5.193066995640001e-5 5.281835228409999e-5
5.372120830240000e-5 5.463949738430001e-5 5.557348333649999e-5 5.652343447499999e-5
5.748962370250000e-5 5.847232858640000e-5 5.947183143879999e-5 6.048841939750000e-5
6.152238450870000e-5 6.257402381039999e-5 6.364363941830000e-5 6.473153861219999e-5
6.583803392460002e-5 6.696344323000001e-5 6.810808983700001e-5 6.927230258020000e-5
7.045641591539999e-5 7.166077001560001e-5 7.288571086820000e-5 7.413159037520001e-5
7.539876645360000e-5 7.668760313860002e-5 7.799847068800001e-5 7.933174568870001e-5
8.068781116480000e-5 8.206705668769999e-5 8.346987848780000e-5 8.489667956890001e-5
8.634786982320000e-5 8.782386614949999e-5 8.932509257320000e-5 9.085198036740000e-5
9.240496817750000e-5 9.398450214690000e-5 9.559103604509998e-5 9.722503139810000e-5
9.888695762130000e-5 1.005772921540000e-4 1.022965205960000e-4 1.040451368490000e-4
1.058236432570000e-4 1.076325507500000e-4 1.094723789910000e-4 1.113436565290000e-4
1.132469209450000e-4 1.151827190090000e-4 1.171516068400000e-4 1.191541500610000e-4
1.211909239630000e-4 1.232625136720000e-4 1.253695143170000e-4 1.275125311960000e-4
1.296921799590000e-4 1.319090867750000e-4 1.341638885200000e-4 1.364572329530000e-4
1.387897789090000e-4 1.411621964820000e-4 1.435751672230000e-4 1.460293843310000e-4
1.485255528560000e-4 1.510643898980000e-4 1.536466248160000e-4 1.562729994350000e-4
1.589442682640000e-4 1.616611987050000e-4 1.644245712810000e-4 1.672351798530000e-4
1.700938318570000e-4 1.730013485280000e-4 1.759585651380000e-4 1.789663312390000e-4
1.820255109030000e-4 1.851369829750000e-4 1.883016413190000e-4 1.915203950810000e-4
1.947941689470000e-4 1.981239034070000e-4 2.015105550320000e-4 2.049550967390000e-4
2.084585180800000e-4 2.120218255190001e-4 2.156460427260000e-4 2.193322108670000e-4
2.230813889090000e-4 2.268946539170000e-4 2.307731013690000e-4 2.347178454660000e-4
2.387300194590000e-4 2.428107759670000e-4 2.469612873120000e-4 2.511827458560000e-4
2.554763643430000e-4 2.598433762450000e-4 2.642850361210000e-4 2.688026199740000e-4
2.733974256170000e-4 2.780707730510001e-4 2.828240048370000e-4 2.876584864870000e-4
2.925756068529999e-4 2.975767785300000e-4 3.026634382570000e-4 3.078370473320000e-4
3.130990920350001e-4 3.184510840479999e-4 3.238945608950000e-4 3.294310863820000e-4
3.350622510450000e-4 3.407896726090000e-4 3.466149964520000e-4 3.525398960760000e-4
3.585660735899999e-4 3.646952601980000e-4 3.709292166980001e-4 3.772697339830000e-4
3.837186335629999e-4 3.902777680810000e-4 3.969490218489999e-4 4.037343113900000e-4
4.106355859860001e-4 4.176548282400001e-4 4.247940546440000e-4 4.320553161600000e-4
4.394406988070000e-4 4.469523242640000e-4 4.545923504749999e-4 4.623629722710000e-4
4.702664220020000e-4 4.783049701760000e-4 4.864809261120000e-4 4.947966386040000e-4
5.032544965960000e-4 5.118569298670001e-4 5.206064097290000e-4 5.295054497370000e-4
5.385566064159999e-4 5.477624799859999e-4 5.571257151159998e-4 5.666490016839999e-4
5.763350755450000e-4 5.861867193200000e-4 5.962067631970001e-4 6.063980857389999e-4
6.167636147180000e-4 6.273063279470000e-4 6.380292541470000e-4 6.489354738039999e-4
6.600281200650000e-4 6.713103796340000e-4 6.827854936840000e-4 6.944567587940000e-4
7.063275278920001e-4 7.184012112210000e-4 7.306812773160000e-4 7.431712540030000e-4
7.558747294110001e-4 7.687953530010000e-4 7.819368366190000e-4 7.953029555589999e-4
8.088975496490001e-4 8.227245243520001e-4 8.367878518900000e-4 8.510915723860000e-4
8.656397950209998e-4 8.804366992180000e-4 8.954865358419999e-4 9.107936284190000e-4
9.263623743809999e-4 9.421972463270000e-4 9.583027933100002e-4 9.746836421410000e-4
9.913444987220000e-4 1.008290149390000e-3 1.025525462310000e-3 1.043055388850000e-3
1.060884965030000e-3 1.079019312920000e-3 1.097463642180000e-3 1.116223251500000e-3
1.135303530170000e-3 1.154709959580000e-3 1.174448114810000e-3 1.194523666250000e-3
1.214942381230000e-3 1.235710125650000e-3 1.256832865680000e-3 1.278316669460000e-3
1.300167708890000e-3 1.322392261340000e-3 1.344996711500000e-3 1.367987553190000e-3
1.391371391230000e-3 1.415154943340000e-3 1.439345042090000e-3 1.463948636820000e-3
1.488972795660000e-3 1.514424707570000e-3 1.540311684390000e-3 1.566641162960000e-3
1.593420707210000e-3 1.620658010400000e-3 1.648360897280000e-3 1.676537326340000e-3
1.705195392140000e-3 1.734343327570000e-3 1.763989506280000e-3 1.794142445050000e-3
1.824810806210000e-3 1.856003400220000e-3 1.887729188080000e-3 1.919997284010000e-3