<UPF version="2.0.1">
<PP_INFO>
Generated by new atomic code, or converted to UPF format
Author:
Generation date:
Pseudopotential type: US
Element: Ca
Functional:  SLA  PW   PBE  PBE
Suggested minimum cutoff for wavefunctions:   0. Ry
Suggested minimum cutoff for charge density:   0. Ry
The Pseudo was generated with a Scalar-Relativistic Calculation
L component and cutoff radius for Local Potential:  0   0.0000
Valence configuration:
nl pn  l   occ       Rcut    Rcut US       E pseu
3S  0  0  2.00     10.000      2.000     0.000000
3P  0  1  6.00     10.000      2.200     0.000000
4S  0  0  2.00     10.000      2.000     0.000000
3D  0  2  0.00     10.000      2.400     0.000000
Generation configuration: not available.
</PP_INFO>
<!--
END OF HUMAN READABLE SECTION
-->
<PP_HEADER generated="Generated by new atomic code, or converted to UPF format" author="" date="" comment="" element="Ca" pseudo_type="US" relativistic="scalar" is_ultrasoft="true" is_paw="false" is_coulomb="false" has_so="false" has_wfc="false" has_gipaw="false" paw_as_gipaw="false" core_correction="true" functional=" SLA  PW   PBE  PBE" z_valence="1.000000000000e1" total_psenergy="-7.459097677564e1" wfc_cutoff="0.000000000000e0" rho_cutoff="0.000000000000e0" l_max="2" l_max_rho="0" l_local="0" mesh_size="845" number_of_wfc="4" number_of_proj="6"/>
<PP_MESH mesh="845" rmax="2.022191194670e2" zmesh="2.000000000000e1">
<PP_R>
0.000000000000000e0 2.118540454000000e-6 4.273294400389999e-6 6.464880858299999e-6
8.693929428090000e-6 1.096108047230000e-5 1.326698529950000e-5 1.561230635160000e-5
1.799771739400000e-5 2.042390370900000e-5 2.289156229300000e-5 2.540140205660000e-5
2.795414402820000e-5 3.055052156120000e-5 3.319128054460000e-5 3.587717961730000e-5
3.860899038620000e-5 4.138749764759999e-5 4.421349961290000e-5 4.708780813780001e-5
5.001124895559999e-5 5.298466191410000e-5 5.600890121740001e-5 5.908483567089999e-5
6.221334893110001e-5 6.539533975930000e-5 6.863172227979999e-5 7.192342624280000e-5
7.527139729120000e-5 7.867659723209998e-5 8.214000431360001e-5 8.566261350560001e-5
8.924543678559999e-5 9.288950342930001e-5 9.659586030660000e-5 1.003655721820000e-4
1.041997220210000e-4 1.080994113000000e-4 1.120657603260000e-4 1.160999085520000e-4
1.202030149120000e-4 1.243762581490000e-4 1.286208371550000e-4 1.329379713150000e-4
1.373289008580000e-4 1.417948872150000e-4 1.463372133750000e-4 1.509571842610000e-4
1.556561271020000e-4 1.604353918130000e-4 1.652963513840000e-4 1.702404022750000e-4
1.752689648160000e-4 1.803834836160000e-4 1.855854279770000e-4 1.908762923170000e-4
1.962575965980000e-4 2.017308867660000e-4 2.072977351910000e-4 2.129597411210000e-4
2.187185311400000e-4 2.245757596370000e-4 2.305331092810000e-4 2.365922915030000e-4
2.427550469890000e-4 2.490231461790001e-4 2.553983897770000e-4 2.618826092670000e-4
2.684776674390000e-4 2.751854589270000e-4 2.820079107490000e-4 2.889469828630000e-4
2.960046687309999e-4 3.031829958890000e-4 3.104840265310000e-4 3.179098581030000e-4
3.254626239020000e-4 3.331444936910000e-4 3.409576743240001e-4 3.489044103750000e-4
3.569869847890001e-4 3.652077195320000e-4 3.735689762630000e-4 3.820731570080000e-4
3.907227048540001e-4 3.995201046499999e-4 4.084678837170000e-4 4.175686125800000e-4
4.268249057020000e-4 4.362394222360001e-4 4.458148667920000e-4 4.555539902080000e-4
4.654595903470000e-4 4.755345128970000e-4 4.857816521860000e-4 4.962039520210000e-4
5.068044065260001e-4 5.175860610060000e-4 5.285520128229999e-4 5.397054122820000e-4
5.510494635390001e-4 5.625874255200001e-4 5.743226128579999e-4 5.862583968470000e-4
5.983982064050000e-4 6.107455290639999e-4 6.233039119730001e-4 6.360769629110001e-4
6.490683513280000e-4 6.622818093999999e-4 6.757211330960001e-4 6.893901832740000e-4
7.032928867890000e-4 7.174332376179999e-4 7.318152980090000e-4 7.464431996510000e-4
7.613211448570000e-4 7.764534077719999e-4 7.918443356030000e-4 8.074983498659998e-4
8.234199476550000e-4 8.396137029380000e-4 8.560842678680000e-4 8.728363741180001e-4
8.898748342450000e-4 9.072045430690000e-4 9.248304790800001e-4 9.427577058679999e-4
9.609913735780001e-4 9.795367203909999e-4 9.983990740260001e-4 1.017583853270000e-3
1.037096569540000e-3 1.056942828470000e-3 1.077128331490000e-3 1.097658877520000e-3
1.118540364570000e-3 1.139778791510000e-3 1.161380259710000e-3 1.183350974870000e-3
1.205697248740000e-3 1.228425500970000e-3 1.251542260960000e-3 1.275054169690000e-3
1.298967981700000e-3 1.323290566940000e-3 1.348028912830000e-3 1.373190126220000e-3
1.398781435440000e-3 1.424810192380000e-3 1.451283874590000e-3 1.478210087440000e-3
1.505596566330000e-3 1.533451178860000e-3 1.561781927110000e-3 1.590596949960000e-3
1.619904525420000e-3 1.649713072970000e-3 1.680031156050000e-3 1.710867484440000e-3
1.742230916830000e-3 1.774130463330000e-3 1.806575288050000e-3 1.839574711770000e-3
1.873138214590000e-3 1.907275438640000e-3 1.941996190900000e-3 1.977310445960001e-3
2.013228348930000e-3 2.049760218320000e-3 2.086916549030000e-3 2.124708015360000e-3
2.163145474070000e-3 2.202239967490000e-3 2.242002726710000e-3 2.282445174810000e-3
2.323578930110000e-3 2.365415809560000e-3 2.407967832070000e-3 2.451247222020000e-3
2.495266412740000e-3 2.540038050100000e-3 2.585574996100000e-3 2.631890332650000e-3
2.678997365240000e-3 2.726909626810000e-3 2.775640881620000e-3 2.825205129230000e-3
2.875616608470000e-3 2.926889801590000e-3 2.979039438400000e-3 3.032080500470000e-3
3.086028225460000e-3 3.140898111530000e-3 3.196705921720000e-3 3.253467688540001e-3
3.311199718540000e-3 3.369918597030000e-3 3.429641192800000e-3 3.490384662990000e-3
3.552166458029999e-3 3.615004326630000e-3 3.678916320900000e-3 3.743920801510000e-3
3.810036443000000e-3 3.877282239110000e-3 3.945677508259999e-3 4.015241899070000e-3
4.085995396060000e-3 4.157958325340000e-3 4.231151360470000e-3 4.305595528380000e-3
4.381312215440000e-3 4.458323173599999e-3 4.536650526610001e-3 4.616316776400001e-3
4.697344809560001e-3 4.779757903850000e-3 4.863579734980000e-3 4.948834383319999e-3
5.035546340900000e-3 5.123740518370000e-3 5.213442252230001e-3 5.304677312030000e-3
5.397471907860000e-3 5.491852697790000e-3 5.587846795610001e-3 5.685481778560000e-3
5.784785695280000e-3 5.885787073870000e-3 5.988514930070000e-3 6.092998775599999e-3
6.199268626649999e-3 6.307355012490000e-3 6.417288984260000e-3 6.529102123840000e-3
6.642826553000001e-3 6.758494942560000e-3 6.876140521809999e-3 6.995797088050000e-3
7.117499016289999e-3 7.241281269149999e-3 7.367179406870000e-3 7.495229597550001e-3
7.625468627529999e-3 7.757933911960001e-3 7.892663505559999e-3 8.029696113539998e-3
8.169071102700000e-3 8.310828512790000e-3 8.455009067959999e-3 8.601654188510000e-3
8.750806002730000e-3 8.902507359059999e-3 9.056801838350001e-3 9.213733766440001e-3
9.373348226819999e-3 9.535691073639999e-3 9.700808944860000e-3 9.868749275639999e-3
1.003956031200000e-2 1.021329112460000e-2 1.038999162310000e-2 1.056971256990000e-2
1.075250559550000e-2 1.093842321280000e-2 1.112751883220000e-2 1.131984677740000e-2
1.151546230040000e-2 1.171442159770000e-2 1.191678182660000e-2 1.212260112120000e-2
1.233193860930000e-2 1.254485442970000e-2 1.276140974880000e-2 1.298166677890000e-2
1.320568879560000e-2 1.343354015600000e-2 1.366528631740000e-2 1.390099385590000e-2
1.414073048600000e-2 1.438456507910000e-2 1.463256768430000e-2 1.488480954790000e-2
1.514136313410000e-2 1.540230214580000e-2 1.566770154580000e-2 1.593763757810000e-2
1.621218779020000e-2 1.649143105500000e-2 1.677544759370000e-2 1.706431899870000e-2
1.735812825720000e-2 1.765695977500000e-2 1.796089940050000e-2 1.827003444970000e-2
1.858445373120000e-2 1.890424757150000e-2 1.922950784110000e-2 1.956032798120000e-2
1.989680302980000e-2 2.023902964980000e-2 2.058710615630000e-2 2.094113254480000e-2
2.130121052040000e-2 2.166744352640000e-2 2.203993677460000e-2 2.241879727500000e-2
2.280413386690000e-2 2.319605725000000e-2 2.359468001640000e-2 2.400011668270000e-2
2.441248372300000e-2 2.483189960230000e-2 2.525848481070000e-2 2.569236189790000e-2
2.613365550840000e-2 2.658249241730000e-2 2.703900156670000e-2 2.750331410300000e-2
2.797556341400000e-2 2.845588516789999e-2 2.894441735190000e-2 2.944130031180000e-2
2.994667679240000e-2 3.046069197860000e-2 3.098349353710000e-2 3.151523165860000e-2
3.205605910120000e-2 3.260613123410000e-2 3.316560608240000e-2 3.373464437250000e-2
3.431340957800000e-2 3.490206796690000e-2 3.550078864940000e-2 3.610974362649999e-2
3.672910783900000e-2 3.735905921830001e-2 3.799977873730000e-2 3.865145046220000e-2
3.931426160579999e-2 3.998840258090000e-2 4.067406705510001e-2 4.137145200660000e-2
4.208075778060000e-2 4.280218814680000e-2 4.353595035830000e-2 4.428225521080000e-2
4.504131710320000e-2 4.581335409920000e-2 4.659858799030000e-2 4.739724435880000e-2
4.820955264330000e-2 4.903574620430000e-2 4.987606239120001e-2 5.073074261050000e-2
5.160003239540000e-2 5.248418147590000e-2 5.338344385110000e-2 5.429807786150000e-2
5.522834626380000e-2 5.617451630620000e-2 5.713685980500001e-2 5.811565322290000e-2
5.911117774820001e-2 6.012371937590000e-2 6.115356898959999e-2 6.220102244520000e-2
6.326638065570000e-2 6.434994967809999e-2 6.545204080060001e-2 6.657297063280000e-2
6.771306119610000e-2 6.887264001640001e-2 7.005204021840000e-2 7.125160062080001e-2
7.247166583410001e-2 7.371258635959999e-2 7.497471868960000e-2 7.625842541029999e-2
7.756407530580001e-2 7.889204346420000e-2 8.024271138480000e-2 8.161646708859999e-2
8.301370522890000e-2 8.443482720520000e-2 8.588024127830000e-2 8.735036268780000e-2
8.884561377110000e-2 9.036642408480001e-2 9.191323052840000e-2 9.348647746930000e-2
9.508661687109999e-2 9.671410842280000e-2 9.836941967120000e-2 1.000530261550000e-1
1.017654115430000e-1 1.035070677680000e-1 1.052784951760000e-1 1.070802026640000e-1
1.089127078260000e-1 1.107765371070000e-1 1.126722259480000e-1 1.146003189440000e-1
1.165613699990000e-1 1.185559424850000e-1 1.205846094040000e-1 1.226479535520000e-1
1.247465676900000e-1 1.268810547070000e-1 1.290520278010000e-1 1.312601106500000e-1
1.335059375930000e-1 1.357901538140000e-1 1.381134155230000e-1 1.404763901490000e-1
1.428797565290000e-1 1.453242051020000e-1 1.478104381120000e-1 1.503391698060000e-1
1.529111266390000e-1 1.555270474840000e-1 1.581876838460000e-1 1.608938000730000e-1
1.636461735800000e-1 1.664455950710000e-1 1.692928687650000e-1 1.721888126300000e-1
1.751342586130000e-1 1.781300528850000e-1 1.811770560790000e-1 1.842761435400000e-1
1.874282055760000e-1 1.906341477130000e-1 1.938948909570000e-1 1.972113720560000e-1
2.005845437710000e-1 2.040153751490000e-1 2.075048518010000e-1 2.110539761860000e-1
2.146637679000000e-1 2.183352639650000e-1 2.220695191310000e-1 2.258676061780000e-1
2.297306162220000e-1 2.336596590320000e-1 2.376558633450000e-1 2.417203771930000e-1
2.458543682340000e-1 2.500590240810000e-1 2.543355526530000e-1 2.586851825120000e-1
2.631091632230000e-1 2.676087657100000e-1 2.721852826210000e-1 2.768400287030000e-1
2.815743411720000e-1 2.863895801060000e-1 2.912871288290000e-1 2.962683943130000e-1
3.013348075780000e-1 3.064878241070000e-1 3.117289242620000e-1 3.170596137090000e-1
3.224814238540000e-1 3.279959122750000e-1 3.336046631810000e-1 3.393092878550000e-1
3.451114251270000e-1 3.510127418370000e-1 3.570149333210000e-1 3.631197238920000e-1
3.693288673380000e-1 3.756441474250000e-1 3.820673784120000e-1 3.886004055680000e-1
3.952451057050000e-1 4.020033877179999e-1 4.088771931300000e-1 4.158684966530000e-1
4.229793067520000e-1 4.302116662260000e-1 4.375676527910001e-1 4.450493796800000e-1
4.526589962500000e-1 4.603986885940000e-1 4.682706801770000e-1 4.762772324700000e-1
4.844206456010000e-1 4.927032590140000e-1 5.011274521440000e-1 5.096956450980000e-1
5.184102993540000e-1 5.272739184610000e-1 5.362890487670001e-1 5.454582801440000e-1
5.547842467340000e-1 5.642696277080001e-1 5.739171480320000e-1 5.837295792520000e-1
5.937097402890000e-1 6.038604982500000e-1 6.141847692520001e-1 6.246855192580000e-1
6.353657649310001e-1 6.462285744980000e-1 6.572770686340000e-1 6.685144213580000e-1
6.799438609439999e-1 6.915686708480000e-1 7.033921906540001e-1 7.154178170300000e-1
7.276490047060000e-1 7.400892674650001e-1 7.527421791540000e-1 7.656113747099999e-1
7.787005512029999e-1 7.920134689019999e-1 8.055539523480000e-1 8.193258914619999e-1
8.333332426549999e-1 8.475800299670000e-1 8.620703462260000e-1 8.768083542179999e-1
8.917982878880000e-1 9.070444535540000e-1 9.225512311439999e-1 9.383230754560000e-1
9.543645174349999e-1 9.706801654770000e-1 9.872747067520001e-1 1.004152908550000e0
1.021319619650000e0 1.038779771720000e0 1.056538380730000e0 1.074600548370000e0
1.092971463550000e0 1.111656403900000e0 1.130660737220000e0 1.149989923100000e0
1.169649514430000e0 1.189645159040000e0 1.209982601290000e0 1.230667683730000e0
1.251706348790000e0 1.273104640470000e0 1.294868706070000e0 1.317004798010000e0
1.339519275540000e0 1.362418606650000e0 1.385709369860000e0 1.409398256160000e0
1.433492070910000e0 1.457997735810000e0 1.482922290840000e0 1.508272896350000e0
1.534056835090000e0 1.560281514280000e0 1.586954467760000e0 1.614083358150000e0
1.641675979060000e0 1.669740257320000e0 1.698284255240000e0 1.727316172980000e0
1.756844350830000e0 1.786877271670000e0 1.817423563380000e0 1.848492001320000e0
1.880091510840000e0 1.912231169880000e0 1.944920211530000e0 1.978168026730000e0
2.011984166930000e0 2.046378346850000e0 2.081360447280000e0 2.116940517890000e0
2.153128780150000e0 2.189935630250000e0 2.227371642090000e0 2.265447570300000e0
2.304174353370000e0 2.343563116740000e0 2.383625176050000e0 2.424372040360000e0
2.465815415440000e0 2.507967207180000e0 2.550839524980000e0 2.594444685210000e0
2.638795214800000e0 2.683903854800000e0 2.729783564050000e0 2.776447522890000e0
2.823909136990000e0 2.872182041140000e0 2.921280103220000e0 2.971217428150000e0
3.022008361950000e0 3.073667495880000e0 3.126209670610000e0 3.179649980490000e0
3.234003777880000e0 3.289286677590000e0 3.345514561310000e0 3.402703582230000e0
3.460870169650000e0 3.520031033700000e0 3.580203170160000e0 3.641403865320000e0
3.703650700940000e0 3.766961559350000e0 3.831354628520000e0 3.896848407350000e0
3.963461710920000e0 4.031213675950000e0 4.100123766260000e0 4.170211778400000e0
4.241497847280000e0 4.314002452030000e0 4.387746421810000e0 4.462750941830000e0
4.539037559450000e0 4.616628190320000e0 4.695545124750000e0 4.775811034030000e0
4.857448977010000e0 4.940482406690000e0 5.024935176970000e0 5.110831549490000e0
5.198196200630000e0 5.287054228540000e0 5.377431160440000e0 5.469352959850000e0
5.562846034140000e0 5.657937242050000e0 5.754653901450000e0 5.853023797160000e0
5.953075188950000e0 6.054836819650000e0 6.158337923410000e0 6.263608234100000e0
6.370677993820000e0 6.479577961660000e0 6.590339422470000e0 6.702994195870000e0
6.817574645400000e0 6.934113687800000e0 7.052644802490000e0 7.173202041170000e0
7.295820037580000e0 7.420534017520000e0 7.547379808890000e0 7.676393852040000e0
7.807613210200000e0 7.941075580160000e0 8.076819303070000e0 8.214883375479999e0
8.355307460520001e0 8.498131899320001e0 8.643397722570000e0 8.791146662330000e0
8.941421164019999e0 9.094264398589999e0 9.249720274950000e0 9.407833452549999e0
9.568649354270001e0 9.732214179380000e0 9.898574916910000e0 1.006777935910000e1
1.023987611500000e1 1.041491462480000e1 1.059294517370000e1 1.077401890630000e1
1.095818784170000e1 1.114550488800000e1 1.133602385780000e1 1.152979948350000e1
1.172688743300000e1 1.192734432600000e1 1.213122774990000e1 1.233859627630000e1
1.254950947830000e1 1.276402794710000e1 1.298221330970000e1 1.320412824660000e1
1.342983650970000e1 1.365940294050000e1 1.389289348900000e1 1.413037523270000e1
1.437191639530000e1 1.461758636690000e1 1.486745572390000e1 1.512159624880000e1
1.538008095140000e1 1.564298408910000e1 1.591038118910000e1 1.618234906930000e1
1.645896586090000e1 1.674031103050000e1 1.702646540310000e1 1.731751118530000e1
1.761353198900000e1 1.791461285520000e1 1.822084027860000e1 1.853230223250000e1
1.884908819380000e1 1.917128916890000e1 1.949899772010000e1 1.983230799160000e1
2.017131573700000e1 2.051611834670000e1 2.086681487580000e1 2.122350607270000e1
2.158629440770000e1 2.195528410300000e1 2.233058116220000e1 2.271229340090000e1
2.310053047750000e1 2.349540392510000e1 2.389702718330000e1 2.430551563050000e1
2.472098661760000e1 2.514355950150000e1 2.557335567900000e1 2.601049862230000e1
2.645511391420000e1 2.690732928400000e1 2.736727464440000e1 2.783508212890000e1
2.831088612940000e1 2.879482333530000e1 2.928703277230000e1 2.978765584270000e1
3.029683636580000e1 3.081472061930000e1 3.134145738140000e1 3.187719797330000e1
3.242209630300000e1 3.297630890910000e1 3.353999500620001e1 3.411331653050000e1
3.469643818620000e1 3.528952749270001e1 3.589275483320000e1 3.650629350320000e1
3.713031976050000e1 3.776501287570000e1 3.841055518400001e1 3.906713213710001e1
3.973493235690000e1 4.041414768950000e1 4.110497326030000e1 4.180760753000000e1
4.252225235200000e1 4.324911302990000e1 4.398839837660001e1 4.474032077460000e1
4.550509623660000e1 4.628294446780000e1 4.707408892890000e1 4.787875690040000e1
4.869717954800000e1 4.952959198840000e1 5.037623335780000e1 5.123734687990001e1
5.211317993580000e1 5.300398413550000e1 5.391001538970000e1 5.483153398380001e1
5.576880465220000e1 5.672209665450000e1 5.769168385330000e1 5.867784479200001e1
5.968086277560000e1 6.070102595190001e1 6.173862739390001e1 6.279396518450000e1
6.386734250180001e1 6.495906770620000e1 6.606945442950000e1 6.719882166400000e1
6.834749385530000e1 6.951580099470000e1 7.070407871400000e1 7.191266838260001e1
7.314191720480000e1 7.439217832010001e1 7.566381090429999e1 7.695718027280001e1
7.827265798570000e1 7.961062195410000e1 8.097145654930001e1 8.235555271270000e1
8.376330806830001e1 8.519512703709999e1 8.665142095280000e1 8.813260818060000e1
8.963911423700001e1 9.117137191179999e1 9.272982139320000e1 9.431491039350000e1
9.592709427800001e1 9.756683619610001e1 9.923460721380001e1 1.009308864490000e2
1.026561612110000e2 1.044109271370000e2 1.061956883380000e2 1.080109575410000e2
1.098572562370000e2 1.117351148320000e2 1.136450728000000e2 1.155876788330000e2
1.175634910060000e2 1.195730769300000e2 1.216170139210000e2 1.236958891620000e2
1.258102998740000e2 1.279608534860000e2 1.301481678110000e2 1.323728712220000e2
1.346356028330000e2 1.369370126830000e2 1.392777619220000e2 1.416585230020000e2
1.440799798710000e2 1.465428281660000e2 1.490477754140000e2 1.515955412410000e2
1.541868575680000e2 1.568224688310000e2 1.595031321910000e2 1.622296177500000e2
1.650027087740000e2 1.678232019190000e2 1.706919074580000e2 1.736096495140000e2
1.765772662990000e2 1.795956103520000e2 1.826655487830000e2 1.857879635270000e2
1.889637515940000e2 1.921938253260000e2 1.954791126600000e2 1.988205573960000e2
2.022191194670000e2
</PP_R>
<PP_RAB>
2.100637437850000e-6 2.136544903170001e-6 2.173066156500000e-6 2.210211689690000e-6
2.247992173920000e-6 2.286418462810000e-6 2.325501595470000e-6 2.365252799750000e-6
2.405683495379999e-6 2.446805297330000e-6 2.488630019090000e-6 2.531169676100000e-6
2.574436489180000e-6 2.618442888040001e-6 2.663201514880000e-6 2.708725227980000e-6
2.755027105410001e-6 2.802120448830000e-6 2.850018787220000e-6 2.898735880870000e-6
2.948285725240000e-6 2.998682555040000e-6 3.049940848319999e-6 3.102075330580000e-6
3.155100979060000e-6 3.209033026990000e-6 3.263886968020001e-6 3.319678560610001e-6
3.376423832620000e-6 3.434139085850000e-6 3.492840900800001e-6 3.552546141340001e-6
3.613271959640001e-6 3.675035801060000e-6 3.737855409149999e-6 3.801748830770000e-6
3.866734421259999e-6 3.932830849720000e-6 4.000057104389999e-6 4.068432498050000e-6
4.137976673650000e-6 4.208709609870000e-6 4.280651626919999e-6 4.353823392340000e-6
4.428245926980001e-6 4.503940610980001e-6 4.580929189960001e-6 4.659233781260000e-6
4.738876880260000e-6 4.819881366890000e-6 4.902270512159999e-6 4.986067984890000e-6
5.071297858469999e-6 5.157984617790000e-6 5.246153166280000e-6 5.335828833049999e-6
5.427037380200000e-6 5.519805010170000e-6 5.614158373300000e-6 5.710124575499998e-6
5.807731185990001e-6 5.907006245260000e-6 6.007978273130000e-6 6.110676276890000e-6
6.215129759700000e-6 6.321368729020000e-6 6.429423705260000e-6 6.539325730509999e-6
6.651106377499999e-6 6.764797758650001e-6 6.880432535290000e-6 6.998043927060000e-6
7.117665721419999e-6 7.239332283420000e-6 7.363078565500000e-6 7.488940117560000e-6
7.616953097200001e-6 7.747154280079998e-6 7.879581070460001e-6 8.014271512010001e-6
8.151264298679999e-6 8.290598785850001e-6 8.432315001630000e-6 8.576453658329999e-6
8.723056164200003e-6 8.872164635310000e-6 9.023821907640000e-6 9.178071549379998e-6
9.334957873480001e-6 9.494525950330001e-6 9.656821620760001e-6 9.821891509180002e-6
9.989783036959999e-6 1.016054443610000e-5 1.033422476300000e-5 1.051087391280000e-5
1.069054263320000e-5 1.087328253970000e-5 1.105914612980000e-5 1.124818679860000e-5
1.144045885380000e-5 1.163601753140000e-5 1.183491901170000e-5 1.203722043530000e-5
1.224297991930000e-5 1.245225657450000e-5 1.266511052210000e-5 1.288160291090000e-5
1.310179593490000e-5 1.332575285140000e-5 1.355353799880000e-5 1.378521681540000e-5
1.402085585800000e-5 1.426052282120000e-5 1.450428655670000e-5 1.475221709300000e-5
1.500438565580000e-5 1.526086468820000e-5 1.552172787180000e-5 1.578705014740000e-5
1.605690773710000e-5 1.633137816560000e-5 1.661054028310000e-5 1.689447428730000e-5
1.718326174710000e-5 1.747698562550000e-5 1.777573030360000e-5 1.807958160510000e-5
1.838862682050000e-5 1.870295473260000e-5 1.902265564170000e-5 1.934782139160000e-5
1.967854539620000e-5 2.001492266610000e-5 2.035704983600000e-5 2.070502519240000e-5
2.105894870180000e-5 2.141892203970000e-5 2.178504861940000e-5 2.215743362210000e-5
2.253618402660000e-5 2.292140864080000e-5 2.331321813200000e-5 2.371172505980000e-5
2.411704390730000e-5 2.452929111480000e-5 2.494858511300000e-5 2.537504635690000e-5
2.580879736060000e-5 2.624996273240000e-5 2.669866921050001e-5 2.715504569960000e-5
2.761922330790000e-5 2.809133538460000e-5 2.857151755829999e-5 2.905990777620000e-5
2.955664634320000e-5 3.006187596280000e-5 3.057574177760000e-5 3.109839141140001e-5
3.162997501130000e-5 3.217064529090000e-5 3.272055757430001e-5 3.327986984080000e-5
3.384874276990001e-5 3.442733978780001e-5 3.501582711420000e-5 3.561437381010001e-5
3.622315182650000e-5 3.684233605350000e-5 3.747210437060000e-5 3.811263769830000e-5
3.876412004920000e-5 3.942673858170000e-5 4.010068365330000e-5 4.078614887530001e-5
4.148333116859999e-5 4.219243082020000e-5 4.291365154080000e-5 4.364720052300000e-5
4.439328850130000e-5 4.515212981239999e-5 4.592394245660000e-5 4.670894816080001e-5
4.750737244200000e-5 4.831944467190000e-5 4.914539814330000e-5 4.998547013660000e-5
5.083990198820000e-5 5.170893915979999e-5 5.259283130899998e-5 5.349183236100000e-5
5.440620058129999e-5 5.533619865019999e-5 5.628209373820001e-5 5.724415758259999e-5
5.822266656570000e-5 5.921790179429999e-5 6.023014918019999e-5 6.125969952240000e-5
6.230684859090001e-5 6.337189721130000e-5 6.445515135140001e-5 6.555692220929999e-5
6.667752630230000e-5 6.781728555840000e-5 6.897652740830001e-5 7.015558487970002e-5
7.135479669320000e-5 7.257450735890001e-5 7.381506727630001e-5 7.507683283400000e-5
7.636016651310000e-5 7.766543699040001e-5 7.899301924480001e-5 8.034329466499999e-5
8.171665115909999e-5 8.311348326580001e-5 8.453419226799998e-5 8.597918630770000e-5
8.744888050390001e-5 8.894369707130000e-5 9.046406544169999e-5 9.201042238750000e-5
9.358321214730001e-5 9.518288655290002e-5 9.680990516000000e-5 9.846473537950001e-5
1.001478526120000e-4 1.018597403850000e-4 1.036008904900000e-4 1.053718031260000e-4
1.071729870420000e-4 1.090049596830000e-4 1.108682473400000e-4 1.127633853000000e-4
1.146909179970000e-4 1.166513991760000e-4 1.186453920450000e-4 1.206734694390000e-4
1.227362139850000e-4 1.248342182710000e-4 1.269680850120000e-4 1.291384272270000e-4
1.313458684130000e-4 1.335910427250000e-4 1.358745951590000e-4 1.381971817350000e-4
1.405594696870000e-4 1.429621376550000e-4 1.454058758780000e-4 1.478913863960000e-4
1.504193832470000e-4 1.529905926760000e-4 1.556057533420000e-4 1.582656165300000e-4
1.609709463670000e-4 1.637225200420000e-4 1.665211280290000e-4 1.693675743130000e-4
1.722626766240000e-4 1.752072666690000e-4 1.782021903710000e-4 1.812483081140000e-4
1.843464949890000e-4 1.874976410440000e-4 1.907026515440000e-4 1.939624472240000e-4
1.972779645630000e-4 2.006501560440000e-4 2.040799904310000e-4 2.075684530510000e-4
2.111165460700000e-4 2.147252887880000e-4 2.183957179260000e-4 2.221288879280000e-4
2.259258712610000e-4 2.297877587249999e-4 2.337156597660000e-4 2.377107027930000e-4
2.417740355050000e-4 2.459068252190000e-4 2.501102592050000e-4 2.543855450290000e-4
2.587339108970000e-4 2.631566060110000e-4 2.676549009260000e-4 2.722300879150000e-4
2.768834813400000e-4 2.816164180309999e-4 2.864302576690001e-4 2.913263831780000e-4
2.963062011200001e-4 3.013711420990000e-4 3.065226611750000e-4 3.117622382810000e-4
3.170913786450000e-4 3.225116132260000e-4 3.280244991520000e-4 3.336316201700000e-4
3.393345870960001e-4 3.451350382820000e-4 3.510346400860000e-4 3.570350873500000e-4
3.631381038850000e-4 3.693454429710000e-4 3.756588878550000e-4 3.820802522680000e-4
3.886113809440000e-4 3.952541501500000e-4 4.020104682250000e-4 4.088822761279999e-4
4.158715479970000e-4 4.229802917140000e-4 4.302105494830000e-4 4.375643984190000e-4
4.450439511390000e-4 4.526513563750000e-4 4.603887995860000e-4 4.682585035900000e-4
4.762627292009999e-4 4.844037758780000e-4 4.926839823860000e-4 5.011057274680000e-4
5.096714305290000e-4 5.183835523300000e-4 5.272445956940000e-4 5.362571062270000e-4
5.454236730510001e-4 5.547469295410000e-4 5.642295540889998e-4 5.738742708700000e-4
5.836838506230000e-4 5.936611114530001e-4 6.038089196319999e-4 6.141301904290000e-4
6.246278889460001e-4 6.353050309680000e-4 6.461646838320000e-4 6.572099673060000e-4
6.684440544860002e-4 6.798701727079999e-4 6.914916044739999e-4 7.033116883980001e-4
7.153338201600000e-4 7.275614534860000e-4 7.399981011380000e-4 7.526473359260000e-4
7.655127917290000e-4 7.785981645430001e-4 7.919072135440000e-4 8.054437621630001e-4
8.192116991890000e-4 8.332149798840000e-4 8.474576271189999e-4 8.619437325309999e-4
8.766774576979998e-4 8.916630353350000e-4 9.069047705070000e-4 9.224070418699998e-4
9.381743029270000e-4 9.542110833060001e-4 9.705219900660001e-4 9.871117090120000e-4
1.003985006050000e-3 1.021146728550000e-3 1.038601806750000e-3 1.056355255150000e-3
1.074412173980000e-3 1.092777750630000e-3 1.111457261180000e-3 1.130456071890000e-3
1.149779640760000e-3 1.169433519070000e-3 1.189423353000000e-3 1.209754885250000e-3
1.230433956660000e-3 1.251466507940000e-3 1.272858581330000e-3 1.294616322360000e-3
1.316745981600000e-3 1.339253916490000e-3 1.362146593110000e-3 1.385430588090000e-3
1.409112590470000e-3 1.433199403630000e-3 1.457697947240000e-3 1.482615259260000e-3
1.507958497960000e-3 1.533734943960000e-3 1.559952002330000e-3 1.586617204710000e-3
1.613738211520000e-3 1.641322814100000e-3 1.669378936950000e-3 1.697914640070000e-3
1.726938121210000e-3 1.756457718250000e-3 1.786481911610000e-3 1.817019326650000e-3
1.848078736180000e-3 1.879669062970000e-3 1.911799382310000e-3 1.944478924620000e-3
1.977717078100000e-3 2.011523391420000e-3 2.045907576490000e-3 2.080879511210000e-3
2.116449242350000e-3 2.152626988400000e-3 2.189423142530000e-3 2.226848275570000e-3
2.264913139020000e-3 2.303628668190000e-3 2.343005985290000e-3 2.383056402680000e-3
2.423791426060000e-3 2.465222757810000e-3 2.507362300360000e-3 2.550222159570001e-3
2.593814648270000e-3 2.638152289720000e-3 2.683247821270000e-3 2.729114197990000e-3
2.775764596420000e-3 2.823212418300000e-3 2.871471294480000e-3 2.920555088790000e-3
2.970477902070000e-3 3.021254076170000e-3 3.072898198100000e-3 3.125425104210000e-3
3.178849884480000e-3 3.233187886810001e-3 3.288454721460000e-3 3.344666265509999e-3
3.401838667460000e-3 3.459988351820000e-3 3.519132023890000e-3 3.579286674490000e-3
3.640469584890000e-3 3.702698331760001e-3 3.765990792200000e-3 3.830365148929999e-3
3.895839895440000e-3 3.962433841360000e-3 4.030166117860000e-3 4.099056183089999e-3
4.169123827840000e-3 4.240389181190000e-3 4.312872716300000e-3 4.386595256280001e-3
4.461577980190000e-3 4.537842429120000e-3 4.615410512380000e-3 4.694304513760000e-3
4.774547097979999e-3 4.856161317200000e-3 4.939170617589999e-3 5.023598846130000e-3
5.109470257400001e-3 5.196809520600000e-3 5.285641726620001e-3 5.375992395219999e-3
5.467887482410000e-3 5.561353387870000e-3 5.656416962530000e-3 5.753105516330001e-3
5.851446826020000e-3 5.951469143160000e-3 6.053201202210000e-3 6.156672228830001e-3
6.261911948250000e-3 6.368950593790000e-3 6.477818915600000e-3 6.588548189430000e-3
6.701170225660000e-3 6.815717378420000e-3 6.932222554900001e-3 7.050719224769999e-3
7.171241429840000e-3 7.293823793800001e-3 7.418501532200001e-3 7.545310462529999e-3
7.674287014550001e-3 7.805468240720000e-3 7.938891826880000e-3 8.074596103039999e-3
8.212620054400000e-3 8.353003332590001e-3 8.495786266989999e-3 8.641009876390001e-3
8.788715880720000e-3 8.938946713050001e-3 9.091745531789998e-3 9.247156233100002e-3
9.405223463450000e-3 9.565992632499999e-3 9.729509926119999e-3 9.895822319670000e-3
1.006497759150000e-2 1.023702433660000e-2 1.041201198070000e-2 1.058999079440000e-2
1.077101190750000e-2 1.095512732380000e-2 1.114238993630000e-2 1.133285354180000e-2
1.152657285680000e-2 1.172360353320000e-2 1.192400217390000e-2 1.212782634980000e-2
1.233513461550000e-2 1.254598652670000e-2 1.276044265700000e-2 1.297856461560000e-2
1.320041506460000e-2 1.342605773750000e-2 1.365555745690000e-2 1.388898015370000e-2
1.412639288580000e-2 1.436786385720000e-2 1.461346243790000e-2 1.486325918350000e-2
1.511732585590000e-2 1.537573544340000e-2 1.563856218230000e-2 1.590588157740000e-2