<UPF version="2.0.1">
<PP_INFO>
Generated by new atomic code, or converted to UPF format
Author:
Generation date:
Pseudopotential type: US
Element: Y
Functional:  SLA  PW   PBE  PBE
Suggested minimum cutoff for wavefunctions:   0. Ry
Suggested minimum cutoff for charge density:   0. Ry
The Pseudo was generated with a Scalar-Relativistic Calculation
L component and cutoff radius for Local Potential:  0   0.0000
Valence configuration:
nl pn  l   occ       Rcut    Rcut US       E pseu
4S  0  0  2.00     10.000      1.800     0.000000
4P  0  1  6.00     10.000      2.000     0.000000
4D  0  2  1.00     10.000      2.200     0.000000
5S  0  0  2.00     10.000      1.800     0.000000
5P  0  1  0.00     10.000      2.000     0.000000
Generation configuration: not available.
</PP_INFO>
<!--
END OF HUMAN READABLE SECTION
-->
<PP_HEADER generated="Generated by new atomic code, or converted to UPF format" author="" date="" comment="" element="Y " pseudo_type="US" relativistic="scalar" is_ultrasoft="true" is_paw="false" is_coulomb="false" has_so="false" has_wfc="false" has_gipaw="false" paw_as_gipaw="false" core_correction="true" functional=" SLA  PW   PBE  PBE" z_valence="1.100000000000e1" total_psenergy="-8.716175192903e1" wfc_cutoff="0.000000000000e0" rho_cutoff="0.000000000000e0" l_max="2" l_max_rho="0" l_local="0" mesh_size="885" number_of_wfc="5" number_of_proj="6"/>
<PP_MESH mesh="885" rmax="2.042794460790e2" zmesh="3.900000000000e1">
<PP_R>
0.000000000000000e0 1.086431002050000e-6 2.191433025840000e-6 3.315323517080000e-6
4.458425347740000e-6 5.621066908870000e-6 6.803582204890001e-6 8.006310949560000e-6
9.229598663580001e-6 1.047379677380000e-5 1.173926271440000e-5 1.302636002900000e-5
1.433545847600000e-5 1.566693413400000e-5 1.702116951000000e-5 1.839855364990000e-5
1.979948224930000e-5 2.122435776800000e-5 2.267358954510000e-5 2.414759391680001e-5
2.564679433620001e-5 2.717162149440000e-5 2.872251344480000e-5 3.029991572870001e-5
3.190428150310000e-5 3.353607167140000e-5 3.519575501530000e-5 3.688380832970000e-5
3.860071655960001e-5 4.034697293950000e-5 4.212307913520000e-5 4.392954538750001e-5
4.576689065929999e-5 4.763564278430000e-5 4.953633861879999e-5 5.146952419590001e-5
5.343575488250001e-5 5.543559553859999e-5 5.746962067979999e-5 5.953841464190001e-5
6.164257174969999e-5 6.378269648660000e-5 6.595940366910000e-5 6.817331862300000e-5
7.042507736330000e-5 7.271532677670000e-5 7.504472480750001e-5 7.741394064670000e-5
7.982365492410000e-5 8.227455990410000e-5 8.476735968430001e-5 8.730277039760001e-5
8.988152041870000e-5 9.250435057250000e-5 9.517201434720000e-5 9.788527811120002e-5
1.006449213330000e-4 1.034517368030000e-4 1.063065308670000e-4 1.092101236520000e-4
1.121633493030000e-4 1.151670562240000e-4 1.182221073240000e-4 1.213293802580000e-4
1.244897676870000e-4 1.277041775280000e-4 1.309735332190000e-4 1.342987739830000e-4
1.376808550970000e-4 1.411207481680000e-4 1.446194414100000e-4 1.481779399300000e-4
1.517972660160000e-4 1.554784594300000e-4 1.592225777080000e-4 1.630306964630000e-4
1.669039096930000e-4 1.708433300980000e-4 1.748500893970000e-4 1.789253386540000e-4
1.830702486100000e-4 1.872860100160000e-4 1.915738339810000e-4 1.959349523120000e-4
2.003706178740000e-4 2.048821049490000e-4 2.094707095990000e-4 2.141377500410000e-4
2.188845670270001e-4 2.237125242240000e-4 2.286230086110000e-4 2.336174308760000e-4
2.386972258190000e-4 2.438638527680000e-4 2.491187959930000e-4 2.544635651390000e-4
2.598996956540000e-4 2.654287492340000e-4 2.710523142680000e-4 2.767720062980001e-4
2.825894684810000e-4 2.885063720610001e-4 2.945244168500000e-4 3.006453317159999e-4
3.068708750789999e-4 3.132028354180000e-4 3.196430317810000e-4 3.261933143130000e-4
3.328555647840000e-4 3.396316971280000e-4 3.465236579980000e-4 3.535334273200000e-4
3.606630188660001e-4 3.679144808300000e-4 3.752898964150000e-4 3.827913844370000e-4
3.904210999270000e-4 3.981812347550001e-4 4.060740182580000e-4 4.141017178800000e-4
4.222666398230000e-4 4.305711297119999e-4 4.390175732650000e-4 4.476083969839999e-4
4.563460688439999e-4 4.652330990099999e-4 4.742720405540000e-4 4.834654901890000e-4
4.928160890150000e-4 5.023265232780000e-4 5.119995251410000e-4 5.218378734720000e-4
5.318443946370000e-4 5.420219633159999e-4 5.523735033279999e-4 5.629019884700000e-4
5.736104433710000e-4 5.845019443640000e-4 5.955796203660001e-4 6.068466537790000e-4
6.183062814039999e-4 6.299617953699999e-4 6.418165440810000e-4 6.538739331760000e-4
6.661374265099999e-4 6.786105471479999e-4 6.912968783759999e-4 7.042000647300000e-4
7.173238130480000e-4 7.306718935270001e-4 7.442481408130000e-4 7.580564551000001e-4
7.721008032479999e-4 7.863852199270001e-4 8.009138087740000e-4 8.156907435710002e-4
8.307202694450000e-4 8.460067040890001e-4 8.615544389989999e-4 8.773679407390000e-4
8.934517522210001e-4 9.098104940140001e-4 9.264488656669998e-4 9.433716470629999e-4
9.605836997890000e-4 9.780899685360001e-4 9.958954825140001e-4 1.014005356900000e-3
1.032424794320000e-3 1.051159086320000e-3 1.070213614890000e-3 1.089593854030000e-3
1.109305371320000e-3 1.129353829480000e-3 1.149744988060000e-3 1.170484705030000e-3
1.191578938520000e-3 1.213033748490000e-3 1.234855298500000e-3 1.257049857450000e-3
1.279623801410000e-3 1.302583615430000e-3 1.325935895440000e-3 1.349687350080000e-3
1.373844802690000e-3 1.398415193240000e-3 1.423405580320000e-3 1.448823143190000e-3
1.474675183830000e-3 1.500969129020000e-3 1.527712532510000e-3 1.554913077160000e-3
1.582578577160000e-3 1.610716980270000e-3 1.639336370110000e-3 1.668444968480000e-3
1.698051137710000e-3 1.728163383090000e-3 1.758790355280000e-3 1.789940852810000e-3
1.821623824630000e-3 1.853848372630000e-3 1.886623754310000e-3 1.919959385390000e-3
1.953864842570000e-3 1.988349866210000e-3 2.023424363210000e-3 2.059098409780000e-3
2.095382254390000e-3 2.132286320690000e-3 2.169821210500000e-3 2.207997706860000e-3
2.246826777150000e-3 2.286319576199999e-3 2.326487449540001e-3 2.367341936620000e-3
2.408894774130000e-3 2.451157899410000e-3 2.494143453830000e-3 2.537863786320000e-3
2.582331456870000e-3 2.627559240190000e-3 2.673560129350000e-3 2.720347339500000e-3
2.767934311720000e-3 2.816334716810000e-3 2.865562459290000e-3 2.915631681310000e-3
2.966556766810000e-3 3.018352345570000e-3 3.071033297470000e-3 3.124614756720000e-3
3.179112116230000e-3 3.234541032050000e-3 3.290917427820000e-3 3.348257499410001e-3
3.406577719490000e-3 3.465894842340000e-3 3.526225908620000e-3 3.587588250280000e-3
3.649999495529999e-3 3.713477573920000e-3 3.778040721470000e-3 3.843707485920000e-3
3.910496732070001e-3 3.978427647159999e-3 4.047519746440001e-3 4.117792878740000e-3
4.189267232150000e-3 4.261963339890000e-3 4.335902086130000e-3 4.411104712060000e-3
4.487592821910000e-3 4.565388389260000e-3 4.644513763260000e-3 4.724991675100000e-3
4.806845244520000e-3 4.890097986479999e-3 4.974773817870000e-3 5.060897064430002e-3
5.148492467690000e-3 5.237585192120000e-3 5.328200832340000e-3 5.420365420460000e-3
5.514105433590000e-3 5.609447801420000e-3 5.706419913970000e-3 5.805049629440000e-3
5.905365282250000e-3 6.007395691149999e-3 6.111170167490000e-3 6.216718523670000e-3
6.324071081700000e-3 6.433258681880000e-3 6.544312691709999e-3 6.657265014839999e-3
6.772148100299999e-3 6.888994951780001e-3 7.007839137110000e-3 7.128714797919999e-3
7.251656659460000e-3 7.376700040549999e-3 7.503880863720001e-3 7.633235665570000e-3
7.764801607230000e-3 7.898616485040000e-3 8.034718741440001e-3 8.173147475970000e-3
8.313942456509999e-3 8.457144130760000e-3 8.602793637770001e-3 8.750932819839999e-3
8.901604234470000e-3 9.054851166659999e-3 9.210717641290000e-3 9.369248435759999e-3
9.530489092920000e-3 9.694485934090002e-3 9.861286072380000e-3 1.003093742620000e-2
1.020348873320000e-2 1.037898956400000e-2 1.055749033650000e-2 1.073904233070000e-2
1.092369770280000e-2 1.111150950070000e-2 1.130253167930000e-2 1.149681911540000e-2
1.169442762400000e-2 1.189541397440000e-2 1.209983590590000e-2 1.230775214500000e-2
1.251922242200000e-2 1.273430748830000e-2 1.295306913370000e-2 1.317557020410000e-2
1.340187461970000e-2 1.363204739350000e-2 1.386615464960000e-2 1.410426364250000e-2
1.434644277640000e-2 1.459276162460000e-2 1.484329094970000e-2 1.509810272400000e-2
1.535727014990000e-2 1.562086768130000e-2 1.588897104470000e-2 1.616165726080000e-2
1.643900466730000e-2 1.672109294050000e-2 1.700800311920000e-2 1.729981762690000e-2
1.759662029640000e-2 1.789849639330000e-2 1.820553264070000e-2 1.851781724430000e-2
1.883543991740000e-2 1.915849190680000e-2 1.948706601910000e-2 1.982125664730000e-2
2.016115979790000e-2 2.050687311840000e-2 2.085849592570000e-2 2.121612923420000e-2
2.157987578490000e-2 2.194984007530000e-2 2.232612838890000e-2 2.270884882600000e-2
2.309811133500000e-2 2.349402774320000e-2 2.389671178990000e-2 2.430627915840000e-2
2.472284750940000e-2 2.514653651500000e-2 2.557746789290000e-2 2.601576544130000e-2
2.646155507450000e-2 2.691496485940000e-2 2.737612505180000e-2 2.784516813410000e-2
2.832222885330000e-2 2.880744425960000e-2 2.930095374620000e-2 2.980289908870000e-2
3.031342448630000e-2 3.083267660300000e-2 3.136080461000001e-2 3.189796022830000e-2
3.244429777220001e-2 3.299997419390000e-2 3.356514912850000e-2 3.413998493990000e-2
3.472464676720000e-2 3.531930257250000e-2 3.592412318890000e-2 3.653928236960000e-2
3.716495683800000e-2 3.780132633830000e-2 3.844857368700000e-2 3.910688482580000e-2
3.977644887480000e-2 4.045745818680000e-2 4.115010840250000e-2 4.185459850699999e-2
4.257113088660000e-2 4.329991138730000e-2 4.404114937350000e-2 4.479505778859999e-2
4.556185321590000e-2 4.634175594090000e-2 4.713499001450000e-2 4.794178331760000e-2
4.876236762620000e-2 4.959697867840001e-2 5.044585624169999e-2 5.130924418219999e-2
5.218739053460000e-2 5.308054757339999e-2 5.398897188519999e-2 5.491292444290000e-2
5.585267068000000e-2 5.680848056749999e-2 5.778062869110000e-2 5.876939433020000e-2
5.977506153789999e-2 6.079791922300000e-2 6.183826123270000e-2 6.289638643719999e-2
6.397259881529999e-2 6.506720754200001e-2 6.618052707730000e-2 6.731287725620000e-2
6.846458338110000e-2 6.963597631490000e-2 7.082739257610000e-2 7.203917443550000e-2
7.327167001470000e-2 7.452523338560001e-2 7.580022467290000e-2 7.709701015690000e-2
7.841596237890000e-2 7.975746024840000e-2 8.112188915180001e-2 8.250964106300000e-2
8.392111465639999e-2 8.535671542099999e-2 8.681685577709999e-2 8.830195519490001e-2
8.981244031450000e-2 9.134874506919999e-2 9.291131080970001e-2 9.450058643070001e-2
9.611702850040000e-2 9.776110139140000e-2 9.943327741399999e-2 1.011340369520000e-1
1.028638686010000e-1 1.046232693070000e-1 1.064127445130000e-1 1.082328083010000e-1
1.100839835380000e-1 1.119668020330000e-1 1.138818046830000e-1 1.158295416300000e-1
1.178105724220000e-1 1.198254661700000e-1 1.218748017150000e-1 1.239591677910000e-1
1.260791631970000e-1 1.282353969650000e-1 1.304284885400000e-1 1.326590679550000e-1
1.349277760120000e-1 1.372352644660000e-1 1.395821962160000e-1 1.419692454890000e-1
1.443970980370000e-1 1.468664513360000e-1 1.493780147840000e-1 1.519325099040000e-1
1.545306705530000e-1 1.571732431320000e-1 1.598609868010000e-1 1.625946736970000e-1
1.653750891560000e-1 1.682030319360000e-1 1.710793144520000e-1 1.740047630030000e-1
1.769802180140000e-1 1.800065342760000e-1 1.830845811900000e-1 1.862152430220000e-1
1.893994191480000e-1 1.926380243200000e-1 1.959319889290000e-1 1.992822592650000e-1
2.026897977980000e-1 2.061555834450000e-1 2.096806118620000e-1 2.132658957190000e-1
2.169124650010000e-1 2.206213672950000e-1 2.243936680980000e-1 2.282304511180000e-1
2.321328185900000e-1 2.361018915870000e-1 2.401388103470000e-1 2.442447346000000e-1
2.484208438980000e-1 2.526683379560000e-1 2.569884369970000e-1 2.613823821020000e-1
2.658514355660000e-1 2.703968812620000e-1 2.750200250090000e-1 2.797221949460000e-1
2.845047419150000e-1 2.893690398500000e-1 2.943164861700000e-1 2.993485021800000e-1
3.044665334810000e-1 3.096720503850000e-1 3.149665483340000e-1 3.203515483380000e-1
3.258285974000000e-1 3.313992689730000e-1 3.370651634020000e-1 3.428279083890000e-1
3.486891594580000e-1 3.546506004350000e-1 3.607139439250000e-1 3.668809318100000e-1
3.731533357470000e-1 3.795329576740000e-1 3.860216303350000e-1 3.926212178000000e-1
3.993336160020000e-1 4.061607532830000e-1 4.131045909480000e-1 4.201671238270000e-1
4.273503808490000e-1 4.346564256240000e-1 4.420873570390000e-1 4.496453098550000e-1
4.573324553270000e-1 4.651510018230000e-1 4.731031954590000e-1 4.811913207470000e-1
4.894177012490000e-1 4.977847002450000e-1 5.062947214109999e-1 5.149502095130000e-1
5.237536511040000e-1 5.327075752430001e-1 5.418145542190000e-1 5.510772042910000e-1
5.604981864380000e-1 5.700802071270000e-1 5.798260190880001e-1 5.897384221020000e-1
5.998202638120000e-1 6.100744405350000e-1 6.205038980990000e-1 6.311116326850001e-1
6.419006916880000e-1 6.528741745980000e-1 6.640352338840000e-1 6.753870759020000e-1
6.869329618160000e-1 6.986762085360000e-1 7.106201896700000e-1 7.227683364920000e-1
7.351241389299999e-1 7.476911465670000e-1 7.604729696610000e-1 7.734732801820000e-1
7.866958128680000e-1 8.001443662960000e-1 8.138228039770000e-1 8.277350554600000e-1
8.418851174660000e-1 8.562770550330001e-1 8.709150026880000e-1 8.858031656300000e-1
9.009458209380000e-1 9.163473188059999e-1 9.320120837850000e-1 9.479446160600000e-1
9.641494927380000e-1 9.806313691670001e-1 9.973949802720000e-1 1.014445141910000e0
1.031786752270000e0 1.049424793260000e0 1.067364331940000e0 1.085610521990000e0
1.104168605210000e0 1.123043912950000e0 1.142241867740000e0 1.161767984770000e0
1.181627873520000e0 1.201827239350000e0 1.222371885160000e0 1.243267713000000e0
1.264520725870000e0 1.286137029320000e0 1.308122833320000e0 1.330484453950000e0
1.353228315280000e0 1.376360951180000e0 1.399889007200000e0 1.423819242510000e0
1.448158531790000e0 1.472913867250000e0 1.498092360620000e0 1.523701245200000e0
1.549747877920000e0 1.576239741480000e0 1.603184446470000e0 1.630589733580000e0
1.658463475840000e0 1.686813680810000e0 1.715648492980000e0 1.744976196020000e0
1.774805215200000e0 1.805144119850000e0 1.836001625720000e0 1.867386597600000e0
1.899308051760000e0 1.931775158640000e0 1.964797245400000e0 1.998383798640000e0
2.032544467140000e0 2.067289064590000e0 2.102627572440000e0 2.138570142770000e0
2.175127101170000e0 2.212308949760000e0 2.250126370160000e0 2.288590226580000e0
2.327711568950000e0 2.367501636060000e0 2.407971858850000e0 2.449133863610000e0
2.490999475390000e0 2.533580721380000e0 2.576889834340000e0 2.620939256150000e0
2.665741641350000e0 2.711309860790000e0 2.757657005350000e0 2.804796389670000e0
2.852741555970000e0 2.901506277970000e0 2.951104564840000e0 3.001550665210000e0
3.052859071260000e0 3.105044522900000e0 3.158122012010000e0 3.212106786720000e0
3.267014355810000e0 3.322860493160000e0 3.379661242290000e0 3.437432920960000e0
3.496192125850000e0 3.555955737340000e0 3.616740924360000e0 3.678565149320000e0
3.741446173120000e0 3.805402060270000e0 3.870451184050000e0 3.936612231820000e0
4.003904210360000e0 4.072346451360000e0 4.141958616960000e0 4.212760705370000e0
4.284773056680000e0 4.358016358620000e0 4.432511652600000e0 4.508280339660000e0
4.585344186680000e0 4.663725332610000e0 4.743446294850000e0 4.824529975670000e0
4.906999668850000e0 4.990879066350000e0 5.076192265080000e0 5.162963773880000e0
5.251218520520000e0 5.340981858890000e0 5.432279576250000e0 5.525137900680000e0
5.619583508560000e0 5.715643532310000e0 5.813345568090000e0 5.912717683830000e0
6.013788427190000e0 6.116586833860000e0 6.221142435830000e0 6.327485269890000e0
6.435645886280000e0 6.545655357470000e0 6.657545287030000e0 6.771347818780000e0
6.887095645990000e0 7.004822020760000e0 7.124560763610000e0 7.246346273160000e0
7.370213536040000e0 7.496198136900000e0 7.624336268680000e0 7.754664743000000e0
7.887221000700000e0 8.022043122620000e0 8.159169840560001e0 8.298640548370001e0
8.440495313280000e0 8.584774887420000e0 8.731520719520001e0 8.880774966830000e0
9.032580507180000e0 9.186980951390000e0 9.344020655710001e0 9.503744734610001e0
9.666199073730001e0 9.831430343039999e0 9.999486010309999e0 1.017041435470000e1
1.034426448050000e1 1.052108633170000e1 1.070093070560000e1 1.088384926800000e1
1.106989456810000e1 1.125912005280000e1 1.145158008320000e1 1.164732994920000e1
1.184642588590000e1 1.204892508980000e1 1.225488573500000e1 1.246436699000000e1
1.267742903470000e1 1.289413307770000e1 1.311454137380000e1 1.333871724220000e1
1.356672508420000e1 1.379863040210000e1 1.403449981770000e1 1.427440109170000e1
1.451840314330000e1 1.476657606940000e1 1.501899116530000e1 1.527572094500000e1
1.553683916190000e1 1.580242083040000e1 1.607254224690000e1 1.634728101200000e1
1.662671605280000e1 1.691092764570000e1 1.719999743910000e1 1.749400847720000e1
1.779304522370000e1 1.809719358600000e1 1.840654094010000e1 1.872117615550000e1
1.904118962080000e1 1.936667326960000e1 1.969772060720000e1 2.003442673700000e1
2.037688838820000e1 2.072520394330000e1 2.107947346680000e1 2.143979873340000e1
2.180628325750000e1 2.217903232300000e1 2.255815301370000e1 2.294375424340000e1
2.333594678800000e1 2.373484331680000e1 2.414055842510000e1 2.455320866690000e1
2.497291258870000e1 2.539979076330000e1 2.583396582450000e1 2.627556250250001e1
2.672470765940000e1 2.718153032590000e1 2.764616173830000e1 2.811873537630000e1
2.859938700110000e1 2.908825469460000e1 2.958547889910000e1 3.009120245740000e1
3.060557065420000e1 3.112873125740000e1 3.166083456100000e1 3.220203342790000e1
3.275248333420000e1 3.331234241350000e1 3.388177150230000e1 3.446093418670000e1
3.504999684890000e1 3.564912871520000e1 3.625850190460000e1 3.687829147830000e1
3.750867548970001e1 3.814983503600000e1 3.880195430990000e1 3.946522065270000e1
4.013982460800000e1 4.082595997650000e1 4.152382387140000e1 4.223361677570000e1
4.295554259910000e1 4.368980873690000e1 4.443662612960000e1 4.519620932340000e1
4.596877653180001e1 4.675454969840000e1 4.755375456060000e1 4.836662071460001e1
4.919338168100000e1 5.003427497230000e1 5.088954216090000e1 5.175942894850000e1
5.264418523660001e1 5.354406519870000e1 5.445932735290000e1 5.539023463620000e1
5.633705448040001e1 5.730005888840001e1 5.827952451280001e1 5.927573273510000e1
6.028896974660000e1 6.131952663080000e1 6.236769944660001e1 6.343378931390000e1
6.451810249960001e1 6.562095050590000e1 6.674265015970001e1 6.788352370370001e1
6.904389888870000e1 7.022410906800001e1 7.142449329320001e1 7.264539641150001e1
7.388716916470000e1 7.515016829010000e1 7.643475662280000e1 7.774130320030000e1
7.907018336810001e1 8.042177888780001e1 8.179647804660000e1 8.319467576900001e1
8.461677373010000e1 8.606318047109999e1 8.753431151680001e1 8.903058949450001e1
9.055244425600000e1 9.210031300080001e1 9.367464040150001e1 9.527587873200000e1
9.690448799710001e1 9.856093606460000e1 1.002456988000000e2 1.019592602030000e2
1.037021125470000e2 1.054747565190000e2 1.072777013670000e2 1.091114650400000e2
1.109765743440000e2 1.128735650880000e2 1.148029822420000e2 1.167653800890000e2
1.187613223890000e2 1.207913825360000e2 1.228561437290000e2 1.249561991330000e2
1.270921520530000e2 1.292646161070000e2 1.314742154030000e2 1.337215847140000e2
1.360073696680000e2 1.383322269250000e2 1.406968243720000e2 1.431018413130000e2
1.455479686620000e2 1.480359091440000e2 1.505663774960000e2 1.531401006730000e2
1.557578180560000e2 1.584202816650000e2 1.611282563730000e2 1.638825201290000e2
1.666838641800000e2 1.695330932990000e2 1.724310260120000e2 1.753784948410000e2
1.783763465360000e2 1.814254423220000e2 1.845266581460000e2 1.876808849250000e2
1.908890288090000e2 1.941520114360000e2 1.974707701970000e2 2.008462585070000e2
2.042794460790000e2
</PP_R>
<PP_RAB>
1.077249968130000e-6 1.095664052910000e-6 1.114392900770000e-6 1.133441892150000e-6
1.152816499450000e-6 1.172522288620000e-6 1.192564920750000e-6 1.212950153720000e-6
1.233683843780000e-6 1.254771947350000e-6 1.276220522610000e-6 1.298035731330000e-6
1.320223840600000e-6 1.342791224640000e-6 1.365744366600000e-6 1.389089860500000e-6
1.412834413030000e-6 1.436984845550000e-6 1.461548096010000e-6 1.486531220960000e-6
1.511941397560000e-6 1.537785925660000e-6 1.564072229910000e-6 1.590807861840000e-6
1.618000502080000e-6 1.645657962559999e-6 1.673788188730000e-6 1.702399261850000e-6
1.731499401340000e-6 1.761096967100000e-6 1.791200461950000e-6 1.821818534020000e-6
1.852959979300000e-6 1.884633744130000e-6 1.916848927770000e-6 1.949614785010001e-6
1.982940728850000e-6 2.016836333190000e-6 2.051311335580000e-6 2.086375640030000e-6
2.122039319820000e-6 2.158312620440000e-6 2.195205962520000e-6 2.232729944790000e-6
2.270895347170000e-6 2.309713133839999e-6 2.349194456390000e-6 2.389350657060000e-6
2.430193271930000e-6 2.471734034300000e-6 2.513984878030000e-6 2.556957940970000e-6
2.600665568450000e-6 2.645120316820000e-6 2.690334957070000e-6 2.736322478490000e-6
2.783096092410000e-6 2.830669235980000e-6 2.879055576050000e-6 2.928269013070000e-6
2.978323685120000e-6 3.029233971930001e-6 3.081014499040000e-6 3.133680142000000e-6
3.187246030620000e-6 3.241727553350000e-6 3.297140361670000e-6 3.353500374620000e-6
3.410823783329999e-6 3.469127055720000e-6 3.528426941170000e-6 3.588740475409999e-6
3.650084985349999e-6 3.712478094060001e-6 3.775937725900000e-6 3.840482111569999e-6
3.906129793440000e-6 3.972899630810000e-6 4.040810805370000e-6 4.109882826670000e-6
4.180135537790001e-6 4.251589120950000e-6 4.324264103399999e-6 4.398181363240000e-6
4.473362135490000e-6 4.549828018109999e-6 4.627600978280000e-6 4.706703358660000e-6
4.787157883830000e-6 4.868987666840001e-6 4.952216215780000e-6 5.036867440600000e-6
5.122965659980001e-6 5.210535608260001e-6 5.299602442590000e-6 5.390191750150000e-6
5.482329555490001e-6 5.576042328030001e-6 5.671356989620000e-6 5.768300922340000e-6
5.866901976290000e-6 5.967188477640001e-6 6.069189236780001e-6 6.172933556540000e-6
6.278451240659999e-6 6.385772602330000e-6 6.494928472889999e-6 6.605950210730000e-6
6.718869710230000e-6 6.833719410980001e-6 6.950532307080001e-6 7.069341956609999e-6
7.190182491289999e-6 7.313088626260001e-6 7.438095670080001e-6 7.565239534850000e-6
7.694556746549999e-6 7.826084455499998e-6 7.959860447079999e-6 8.095923152539999e-6
8.234311660050000e-6 8.375065725960001e-6 8.518225786190001e-6 8.663832967850002e-6
8.811929101069998e-6 8.962556731010000e-6 9.115759130059999e-6 9.271580310310000e-6
9.430065036169999e-6 9.591258837240002e-6 9.755208021370001e-6 9.921959687999998e-6
1.009156174160000e-5 1.026406290570000e-5 1.043951273640000e-5 1.061796163710000e-5
1.079946087270000e-5 1.098406258450000e-5 1.117181980480000e-5 1.136278647290000e-5
1.155701744960000e-5 1.175456853370000e-5 1.195549647800000e-5 1.215985900500000e-5
1.236771482420000e-5 1.257912364860000e-5 1.279414621180000e-5 1.301284428560000e-5
1.323528069780000e-5 1.346151934990000e-5 1.369162523620000e-5 1.392566446130000e-5
1.416370426050000e-5 1.440581301770000e-5 1.465206028630000e-5 1.490251680830000e-5
1.515725453500000e-5 1.541634664760000e-5 1.567986757830000e-5 1.594789303150000e-5
1.622050000580000e-5 1.649776681580000e-5 1.677977311500000e-5 1.706659991840000e-5
1.735832962560000e-5 1.765504604500000e-5 1.795683441750000e-5 1.826378144110000e-5
1.857597529560000e-5 1.889350566840000e-5 1.921646377980000e-5 1.954494240940000e-5
1.987903592270000e-5 2.021884029830001e-5 2.056445315550000e-5 2.091597378220000e-5
2.127350316340000e-5 2.163714401040000e-5 2.200700079010000e-5 2.238317975540000e-5
2.276578897500000e-5 2.315493836530000e-5 2.355073972130000e-5 2.395330674910000e-5
2.436275509840000e-5 2.477920239590000e-5 2.520276827860000e-5 2.563357442900000e-5
2.607174460930000e-5 2.651740469730001e-5 2.697068272260000e-5 2.743170890310000e-5
2.790061568270001e-5 2.837753776930001e-5 2.886261217340000e-5 2.935597824750000e-5
2.985777772600000e-5 3.036815476630000e-5 3.088725598980000e-5 3.141523052430000e-5
3.195223004660000e-5 3.249840882630001e-5 3.305392376990000e-5 3.361893446630001e-5
3.419360323200000e-5 3.477809515810000e-5 3.537257815810000e-5 3.597722301529999e-5
3.659220343240000e-5 3.721769608150001e-5 3.785388065449999e-5 3.850093991490000e-5
3.915905975029999e-5 3.982842922580000e-5 4.050924063830000e-5 4.120168957179999e-5
4.190597495340001e-5 4.262229911070000e-5 4.335086782969999e-5 4.409189041420000e-5
4.484557974559999e-5 4.561215234430000e-5 4.639182843160000e-5 4.718483199360000e-5
4.799139084480000e-5 4.881173669380000e-5 4.964610521030000e-5 5.049473609210001e-5
5.135787313440000e-5 5.223576429989999e-5 5.312866178969999e-5 5.403682211590001e-5
5.496050617540000e-5 5.589997932490000e-5 5.685551145670001e-5 5.782737707669999e-5
5.881585538310001e-5 5.982123034670001e-5 6.084379079220001e-5 6.188383048130000e-5
6.294164819749998e-5 6.401754783119999e-5 6.511183846760000e-5 6.622483447529999e-5
6.735685559640001e-5 6.850822703860000e-5 6.967927956889999e-5 7.087034960770000e-5
7.208177932670001e-5 7.331391674590000e-5 7.456711583480001e-5 7.584173661310000e-5
7.713814525479999e-5 7.845671419290001e-5 7.979782222669998e-5 8.116185463080001e-5
8.254920326509998e-5 8.396026668809998e-5 8.539545027110002e-5 8.685516631440001e-5
8.833983416630000e-5 8.984988034310000e-5 9.138573865190001e-5 9.294785031499998e-5
9.453666409680000e-5 9.615263643290001e-5 9.779623156080000e-5 9.946792165359998e-5
1.011681869550000e-4 1.028975159200000e-4 1.046564053490000e-4 1.064453605390000e-4
1.082648954210000e-4 1.101155327120000e-4 1.119978040650000e-4 1.139122502200000e-4
1.158594211600000e-4 1.178398762690000e-4 1.198541844950000e-4 1.219029245090000e-4
1.239866848740000e-4 1.261060642150000e-4 1.282616713870000e-4 1.304541256560000e-4
1.326840568700000e-4 1.349521056470000e-4 1.372589235520000e-4 1.396051732900000e-4
1.419915288920000e-4 1.444186759130000e-4 1.468873116250000e-4 1.493981452200000e-4
1.519518980100000e-4 1.545493036400000e-4 1.571911082950000e-4 1.598780709130000e-4
1.626109634080000e-4 1.653905708850000e-4 1.682176918730000e-4 1.710931385490000e-4
1.740177369720000e-4 1.769923273240000e-4 1.800177641470000e-4 1.830949165900000e-4
1.862246686590000e-4 1.894079194720000e-4 1.926455835150000e-4 1.959385909070000e-4
1.992878876640000e-4 2.026944359740000e-4 2.061592144740000e-4 2.096832185270000e-4
2.132674605110000e-4 2.169129701100000e-4 2.206207946070000e-4 2.243919991890000e-4
2.282276672510000e-4 2.321289007050000e-4 2.360968203000000e-4 2.401325659430000e-4
2.442372970260000e-4 2.484121927580000e-4 2.526584525050000e-4 2.569772961369999e-4
2.613699643740000e-4 2.658377191430000e-4 2.703818439450000e-4 2.750036442190000e-4
2.797044477180000e-4 2.844856048930000e-4 2.893484892760000e-4 2.942944978820000e-4
2.993250516020000e-4 3.044415956170000e-4 3.096455998110001e-4 3.149385591940001e-4
3.203219943310001e-4 3.257974517790001e-4 3.313665045290000e-4 3.370307524650000e-4
3.427918228130000e-4 3.486513706190000e-4 3.546110792180000e-4 3.606726607170000e-4
3.668378564920000e-4 3.731084376850000e-4 3.794862057120000e-4 3.859729927820000e-4
3.925706624250000e-4 3.992811100219999e-4 4.061062633560000e-4 4.130480831610001e-4
4.201085636870000e-4 4.272897332739999e-4 4.345936549329999e-4 4.420224269390000e-4
4.495781834350000e-4 4.572630950430000e-4 4.650793694909999e-4 4.730292522410000e-4
4.811150271420001e-4 4.893390170800000e-4 4.977035846490000e-4 5.062111328269999e-4
5.148641056669999e-4 5.236649890020001e-4 5.326163111550000e-4 5.417206436679999e-4
5.509806020390000e-4 5.603988464750000e-4 5.699780826550001e-4 5.797210625089999e-4
5.896305850059999e-4 5.997094969600000e-4 6.099606938480000e-4 6.203871206400001e-4
6.309917726460000e-4 6.417776963790001e-4 6.527479904250000e-4 6.639058063380000e-4
6.752543495410000e-4 6.867968802519999e-4 6.985367144170000e-4 7.104772246630001e-4
7.226218412670001e-4 7.349740531420000e-4 7.475374088410001e-4 7.603155175720000e-4
7.733120502380000e-4 7.865307404920001e-4 7.999753858080000e-4 8.136498485720001e-4
8.275580571920001e-4 8.417040072290000e-4 8.560917625389999e-4 8.707254564459998e-4
8.856092929279999e-4 9.007475478220000e-4 9.161445700570001e-4 9.318047828979999e-4
9.477326852220001e-4 9.639328528070001e-4 9.804099396480000e-4 9.971686792930001e-4
1.014213886200000e-3 1.031550457140000e-3 1.049183372560000e-3 1.067117698060000e-3
1.085358585820000e-3 1.103911276100000e-3 1.122781098740000e-3 1.141973474650000e-3
1.161493917440000e-3 1.181348034970000e-3 1.201541530920000e-3 1.222080206500000e-3
1.242969962080000e-3 1.264216798880000e-3 1.285826820700000e-3 1.307806235680000e-3
1.330161358090000e-3 1.352898610110000e-3 1.376024523730000e-3 1.399545742560000e-3
1.423469023810000e-3 1.447801240150000e-3 1.472549381780000e-3 1.497720558360000e-3
1.523322001060000e-3 1.549361064700000e-3 1.575845229790000e-3 1.602782104730000e-3
1.630179427940000e-3 1.658045070160000e-3 1.686387036650000e-3 1.715213469490000e-3
1.744532649980000e-3 1.774353000940000e-3 1.804683089180000e-3 1.835531627950000e-3
1.866907479430000e-3 1.898819657310000e-3 1.931277329330000e-3 1.964289819960000e-3
1.997866613050000e-3 2.032017354550000e-3 2.066751855310000e-3 2.102080093890000e-3
2.138012219400000e-3 2.174558554460000e-3 2.211729598100000e-3 2.249536028860000e-3
2.287988707790000e-3 2.327098681600000e-3 2.366877185830000e-3 2.407335648080000e-3
2.448485691270000e-3 2.490339137030000e-3 2.532908009020000e-3 2.576204536480000e-3
2.620241157640000e-3 2.665030523390000e-3 2.710585500830000e-3 2.756919177040000e-3
2.804044862780000e-3 2.851976096340000e-3 2.900726647450000e-3 2.950310521200000e-3
3.000741962060000e-3 3.052035458030000e-3 3.104205744720000e-3 3.157267809660000e-3
3.211236896540000e-3 3.266128509640000e-3 3.321958418260000e-3 3.378742661250000e-3
3.436497551620000e-3 3.495239681240000e-3 3.554985925590000e-3 3.615753448600000e-3
3.677559707610000e-3 3.740422458360000e-3 3.804359760100000e-3 3.869389980780000e-3
3.935531802330000e-3 4.002804226010000e-3 4.071226577890000e-3 4.140818514380000e-3