
     Program PWSCF v.6.5 starts on  4May2021 at 16:41:23 

     This program is part of the open-source Quantum ESPRESSO suite
     for quantum simulation of materials; please cite
         "P. Giannozzi et al., J. Phys.:Condens. Matter 21 395502 (2009);
         "P. Giannozzi et al., J. Phys.:Condens. Matter 29 465901 (2017);
          URL http://www.quantum-espresso.org", 
     in publications or presentations arising from this work. More details at
     http://www.quantum-espresso.org/quote

     Parallel version (MPI), running on    80 processors

     MPI processes distributed on     5 nodes
     R & G space division:  proc/nbgrp/npool/nimage =      80
     Reading input from dYBCO_rt2_111_0vac_NOcleave_0sep_333_rn3.pwi

     Current dimensions of program PWSCF are:
     Max number of different atomic species (ntypx) = 10
     Max number of k-points (npk) =  40000
     Max angular momentum in pseudopotentials (lmaxx) =  3

     Subspace diagonalization in iterative solution of the eigenvalue problem:
     one sub-group per band group will be used
     scalapack distributed-memory algorithm (size of sub-group:  8*  8 procs)

 
     Parallelization info
     --------------------
     sticks:   dense  smooth     PW     G-vecs:    dense   smooth      PW
     Min         298      99     25                37964     7305     971
     Max         299     100     26                37969     7312     980
     Sum       23881    7975   2067              3037299   584617   78139
 


     bravais-lattice index     =            9
     lattice parameter (alat)  =      28.4971  a.u.
     unit-cell volume          =    9310.1437 (a.u.)^3
     number of atoms/cell      =          104
     number of atomic types    =            5
     number of electrons       =       847.00
     number of Kohn-Sham states=          509
     kinetic-energy cutoff     =      60.0000  Ry
     charge density cutoff     =     720.0000  Ry
     convergence threshold     =      1.0E-08
     mixing beta               =       0.5000
     number of iterations used =           10  local-TF  mixing
     Exchange-correlation= SLA PW PBE PBE
                           (   1   4   3   4   0   0   0)
     nstep                     =          300


     celldm(1)=  28.497070  celldm(2)=   1.026525  celldm(3)=   0.783820
     celldm(4)=   0.000000  celldm(5)=   0.000000  celldm(6)=   0.000000

     crystal axes: (cart. coord. in units of alat)
               a(1) = (   0.500000   0.513263   0.000000 )  
               a(2) = (  -0.500000   0.513263   0.000000 )  
               a(3) = (   0.000000   0.000000   0.783820 )  

     reciprocal axes: (cart. coord. in units 2 pi/alat)
               b(1) = (  1.000000  0.974160  0.000000 )  
               b(2) = ( -1.000000  0.974160  0.000000 )  
               b(3) = (  0.000000  0.000000  1.275804 )  


     PseudoPot. # 1 for Ba read from file:
     ./pseudo/Ba.pbe-nsp-van.UPF
     MD5 check sum: 2b9c31dd849566dd297d80989662b7a0
     Pseudo is Ultrasoft + core correction, Zval = 10.0
     Generated by new atomic code, or converted to UPF format
     Using radial grid of  907 points,  6 beta functions with: 
                l(1) =   0
                l(2) =   0
                l(3) =   1
                l(4) =   1
                l(5) =   2
                l(6) =   2
     Q(r) pseudized with  6 coefficients,  rinner =    1.200   1.200   1.200
                                                       1.200   1.200

     PseudoPot. # 2 for Ca read from file:
     ./pseudo/Ca.pbe-nsp-van.UPF
     MD5 check sum: 6471098428ff4fa451746d08035ff179
     Pseudo is Ultrasoft + core correction, Zval = 10.0
     Generated by new atomic code, or converted to UPF format
     Using radial grid of  845 points,  6 beta functions with: 
                l(1) =   0
                l(2) =   0
                l(3) =   1
                l(4) =   1
                l(5) =   2
                l(6) =   2
     Q(r) pseudized with  6 coefficients,  rinner =    1.200   1.200   1.200
                                                       1.200   1.200

     PseudoPot. # 3 for Cu read from file:
     ./pseudo/Cu.pbe-n-van_ak.UPF
     MD5 check sum: 34e3282627ffb533726feb647e090d62
     Pseudo is Ultrasoft + core correction, Zval = 11.0
     Generated by new atomic code, or converted to UPF format
     Using radial grid of  867 points,  6 beta functions with: 
                l(1) =   0
                l(2) =   0
                l(3) =   1
                l(4) =   1
                l(5) =   2
                l(6) =   2
     Q(r) pseudized with  8 coefficients,  rinner =    1.400   1.400   1.400
                                                       1.400   1.400

     PseudoPot. # 4 for O  read from file:
     ./pseudo/O.pbe-van_ak.UPF
     MD5 check sum: 783ce7fe4c79b6a4916957118fed0856
     Pseudo is Ultrasoft, Zval =  6.0
     Generated by new atomic code, or converted to UPF format
     Using radial grid of  737 points,  4 beta functions with: 
                l(1) =   0
                l(2) =   0
                l(3) =   1
                l(4) =   1
     Q(r) pseudized with  8 coefficients,  rinner =    0.800   0.800   0.800


     PseudoPot. # 5 for Y  read from file:
     ./pseudo/Y.pbe-nsp-van.UPF
     MD5 check sum: 4412fed3ab108fed87a1b7d6a69a4a38
     Pseudo is Ultrasoft + core correction, Zval = 11.0
     Generated by new atomic code, or converted to UPF format
     Using radial grid of  885 points,  6 beta functions with: 
                l(1) =   0
                l(2) =   0
                l(3) =   1
                l(4) =   1
                l(5) =   2
                l(6) =   2
     Q(r) pseudized with  6 coefficients,  rinner =    1.200   1.200   1.200
                                                       1.200   1.200

     atomic species   valence    mass     pseudopotential
        Ba            10.00   137.32700     Ba( 1.00)
        Ca            10.00    40.07800     Ca( 1.00)
        Cu            11.00    63.54600     Cu( 1.00)
        O              6.00    15.99900     O ( 1.00)
        Y             11.00    88.90584     Y ( 1.00)

     No symmetry found



   Cartesian axes

     site n.     atom                  positions (alat units)
         1           Cu  tau(   1) = (   0.0000000   0.0000000   0.0000000  )
         2           Cu  tau(   2) = (   0.0000000   0.2572944   0.0000000  )
         3           O   tau(   3) = (   0.0000000   0.1286472   0.0000000  )
         4           O   tau(   4) = (   0.0000000   0.3859416   0.0000000  )
         5           O   tau(   5) = (   0.0000000   0.0000000   0.1232905  )
         6           O   tau(   6) = (   0.0000000   0.2572944   0.1232905  )
         7           Ba  tau(   7) = (  -0.1253316   0.1286472   0.1398886  )
         8           Ba  tau(   8) = (   0.1253316   0.1286472   0.1398886  )
         9           Cu  tau(   9) = (   0.0000000   0.0000000   0.2736592  )
        10           Cu  tau(  10) = (   0.0000000   0.2572944   0.2736592  )
        11           O   tau(  11) = (   0.0000000   0.1286472   0.2930458  )
        12           O   tau(  12) = (   0.0000000   0.3859416   0.2930458  )
        13           O   tau(  13) = (   0.1253316   0.2572944   0.2938203  )
        14           O   tau(  14) = (  -0.1253316   0.2572944   0.2938203  )
        15           Y   tau(  15) = (  -0.1253316   0.1286472   0.3872679  )
        16           Ca  tau(  16) = (   0.1253316   0.1286472   0.3872679  )
        17           O   tau(  17) = (   0.0000000   0.1286472   0.4807155  )
        18           O   tau(  18) = (   0.0000000   0.3859416   0.4807155  )
        19           O   tau(  19) = (   0.1253316   0.2572944   0.4814901  )
        20           O   tau(  20) = (  -0.1253316   0.2572944   0.4814901  )
        21           Cu  tau(  21) = (   0.0000000   0.0000000   0.5008767  )
        22           Cu  tau(  22) = (   0.0000000   0.2572944   0.5008767  )
        23           Ba  tau(  23) = (  -0.1253316   0.1286472   0.6346472  )
        24           Ba  tau(  24) = (   0.1253316   0.1286472   0.6346472  )
        25           O   tau(  25) = (   0.0000000   0.0000000   0.6512454  )
        26           O   tau(  26) = (   0.0000000   0.2572944   0.6512454  )
        27           Cu  tau(  27) = (   0.2506631   0.2572944   0.0000000  )
        28           Cu  tau(  28) = (   0.2506631   0.5145889   0.0000000  )
        29           O   tau(  29) = (   0.2506631   0.3859416   0.0000000  )
        30           O   tau(  30) = (   0.2506631   0.6432361   0.0000000  )
        31           O   tau(  31) = (   0.2506631   0.2572944   0.1232905  )
        32           O   tau(  32) = (   0.2506631   0.5145889   0.1232905  )
        33           Ba  tau(  33) = (   0.1253316   0.3859416   0.1398886  )
        34           Ba  tau(  34) = (   0.3759947   0.3859416   0.1398886  )
        35           Cu  tau(  35) = (   0.2506631   0.2572944   0.2736592  )
        36           Cu  tau(  36) = (   0.2506631   0.5145889   0.2736592  )
        37           O   tau(  37) = (   0.2506631   0.3859416   0.2930458  )
        38           O   tau(  38) = (   0.2506631   0.6432361   0.2930458  )
        39           O   tau(  39) = (   0.3759947   0.5145889   0.2938203  )
        40           O   tau(  40) = (   0.1253316   0.5145889   0.2938203  )
        41           Y   tau(  41) = (   0.1253316   0.3859416   0.3872679  )
        42           Y   tau(  42) = (   0.3759947   0.3859416   0.3872679  )
        43           O   tau(  43) = (   0.2506631   0.3859416   0.4807155  )
        44           O   tau(  44) = (   0.2506631   0.6432361   0.4807155  )
        45           O   tau(  45) = (   0.3759947   0.5145889   0.4814901  )
        46           O   tau(  46) = (   0.1253316   0.5145889   0.4814901  )
        47           Cu  tau(  47) = (   0.2506631   0.2572944   0.5008767  )
        48           Cu  tau(  48) = (   0.2506631   0.5145889   0.5008767  )
        49           Ba  tau(  49) = (   0.1253316   0.3859416   0.6346472  )
        50           Ba  tau(  50) = (   0.3759947   0.3859416   0.6346472  )
        51           O   tau(  51) = (   0.2506631   0.2572944   0.6512454  )
        52           O   tau(  52) = (   0.2506631   0.5145889   0.6512454  )
        53           Cu  tau(  53) = (  -0.2506631   0.2572944   0.0000000  )
        54           Cu  tau(  54) = (  -0.2506631   0.5145889   0.0000000  )
        55           O   tau(  55) = (  -0.2506631   0.3859416   0.0000000  )
        56           O   tau(  56) = (  -0.2506631   0.6432361   0.0000000  )
        57           O   tau(  57) = (  -0.2506631   0.2572944   0.1232905  )
        58           O   tau(  58) = (  -0.2506631   0.5145889   0.1232905  )
        59           Ba  tau(  59) = (  -0.3759947   0.3859416   0.1398886  )
        60           Ba  tau(  60) = (  -0.1253316   0.3859416   0.1398886  )
        61           Cu  tau(  61) = (  -0.2506631   0.2572944   0.2736592  )
        62           Cu  tau(  62) = (  -0.2506631   0.5145889   0.2736592  )
        63           O   tau(  63) = (  -0.2506631   0.3859416   0.2930458  )
        64           O   tau(  64) = (  -0.2506631   0.6432361   0.2930458  )
        65           O   tau(  65) = (  -0.1253316   0.5145889   0.2938203  )
        66           O   tau(  66) = (  -0.3759947   0.5145889   0.2938203  )
        67           Y   tau(  67) = (  -0.3759947   0.3859416   0.3872679  )
        68           Y   tau(  68) = (  -0.1253316   0.3859416   0.3872679  )
        69           O   tau(  69) = (  -0.2506631   0.3859416   0.4807155  )
        70           O   tau(  70) = (  -0.2506631   0.6432361   0.4807155  )
        71           O   tau(  71) = (  -0.1253316   0.5145889   0.4814901  )
        72           O   tau(  72) = (  -0.3759947   0.5145889   0.4814901  )
        73           Cu  tau(  73) = (  -0.2506631   0.2572944   0.5008767  )
        74           Cu  tau(  74) = (  -0.2506631   0.5145889   0.5008767  )
        75           Ba  tau(  75) = (  -0.3759947   0.3859416   0.6346472  )
        76           Ba  tau(  76) = (  -0.1253316   0.3859416   0.6346472  )
        77           O   tau(  77) = (  -0.2506631   0.2572944   0.6512454  )
        78           O   tau(  78) = (  -0.2506631   0.5145889   0.6512454  )
        79           Cu  tau(  79) = (   0.0000000   0.5145889   0.0000000  )
        80           Cu  tau(  80) = (   0.0000000   0.7718833   0.0000000  )
        81           O   tau(  81) = (   0.0000000   0.6432361   0.0000000  )
        82           O   tau(  82) = (   0.0000000   0.9005305   0.0000000  )
        83           O   tau(  83) = (   0.0000000   0.5145889   0.1232905  )
        84           O   tau(  84) = (   0.0000000   0.7718833   0.1232905  )
        85           Ba  tau(  85) = (  -0.1253316   0.6432361   0.1398886  )
        86           Ba  tau(  86) = (   0.1253316   0.6432361   0.1398886  )
        87           Cu  tau(  87) = (   0.0000000   0.5145889   0.2736592  )
        88           Cu  tau(  88) = (   0.0000000   0.7718833   0.2736592  )
        89           O   tau(  89) = (   0.0000000   0.6432361   0.2930458  )
        90           O   tau(  90) = (   0.0000000   0.9005305   0.2930458  )
        91           O   tau(  91) = (   0.1253316   0.7718833   0.2938203  )
        92           O   tau(  92) = (  -0.1253316   0.7718833   0.2938203  )
        93           Y   tau(  93) = (  -0.1253316   0.6432361   0.3872679  )
        94           Y   tau(  94) = (   0.1253316   0.6432361   0.3872679  )
        95           O   tau(  95) = (   0.0000000   0.6432361   0.4807155  )
        96           O   tau(  96) = (   0.0000000   0.9005305   0.4807155  )
        97           O   tau(  97) = (   0.1253316   0.7718833   0.4814901  )
        98           O   tau(  98) = (  -0.1253316   0.7718833   0.4814901  )
        99           Cu  tau(  99) = (   0.0000000   0.5145889   0.5008767  )
       100           Cu  tau( 100) = (   0.0000000   0.7718833   0.5008767  )
       101           Ba  tau( 101) = (  -0.1253316   0.6432361   0.6346472  )
       102           Ba  tau( 102) = (   0.1253316   0.6432361   0.6346472  )
       103           O   tau( 103) = (   0.0000000   0.5145889   0.6512454  )
       104           O   tau( 104) = (   0.0000000   0.7718833   0.6512454  )

     number of k points=    14  Gaussian smearing, width (Ry)=  0.0100
                       cart. coord. in units 2pi/alat
        k(    1) = (   0.0000000   0.0000000   0.0000000), wk =   0.0740741
        k(    2) = (   0.0000000   0.0000000   0.4252679), wk =   0.1481481
        k(    3) = (  -0.3333333   0.3247201   0.0000000), wk =   0.1481481
        k(    4) = (  -0.3333333   0.3247201   0.4252679), wk =   0.1481481
        k(    5) = (   0.0000000   0.6494401   0.0000000), wk =   0.1481481
        k(    6) = (   0.0000000   0.6494401   0.4252679), wk =   0.1481481
        k(    7) = (   0.6666667  -0.0000000   0.0000000), wk =   0.1481481
        k(    8) = (   0.6666667  -0.0000000   0.4252679), wk =   0.1481481
        k(    9) = (   0.3333333   0.3247201   0.0000000), wk =   0.1481481
        k(   10) = (   0.3333333  -0.3247201   0.4252679), wk =   0.1481481
        k(   11) = (   0.3333333   0.3247201  -0.4252679), wk =   0.1481481
        k(   12) = (  -0.3333333  -0.3247201  -0.4252679), wk =   0.1481481
        k(   13) = (   0.0000000  -0.6494401   0.4252679), wk =   0.1481481
        k(   14) = (  -0.6666667   0.0000000   0.4252679), wk =   0.1481481

     Dense  grid:  3037299 G-vectors     FFT dimensions: ( 180, 180, 192)

     Smooth grid:   584617 G-vectors     FFT dimensions: ( 108, 108, 120)

     Estimated max dynamical RAM per process >     539.40 MB

     Estimated total dynamical RAM >      42.14 GB

     Initial potential from superposition of free atoms

     starting charge  846.43941, renormalised to  847.00000

     negative rho (up, down):  3.022E-01 0.000E+00
     Starting wfcs are  749 randomized atomic wfcs

     total cpu time spent up to now is       22.2 secs

     Self-consistent Calculation

     iteration #  1     ecut=    60.00 Ry     beta= 0.50
     Davidson diagonalization with overlap
     ethr =  1.00E-02,  avg # of iterations =  2.0

     negative rho (up, down):  2.984E-01 0.000E+00

     total cpu time spent up to now is       57.1 secs

     total energy              =   -6843.93043695 Ry
     Harris-Foulkes estimate   =   -6857.20486253 Ry
     estimated scf accuracy    <      41.85291374 Ry

     iteration #  2     ecut=    60.00 Ry     beta= 0.50
     Davidson diagonalization with overlap
     ethr =  4.94E-03,  avg # of iterations =  2.0

     negative rho (up, down):  2.999E-01 0.000E+00

     total cpu time spent up to now is       94.2 secs

     total energy              =   -6848.83309090 Ry
     Harris-Foulkes estimate   =   -6849.56259782 Ry
     estimated scf accuracy    <       3.18735706 Ry

     iteration #  3     ecut=    60.00 Ry     beta= 0.50
     Davidson diagonalization with overlap
     ethr =  3.76E-04,  avg # of iterations =  3.4

     negative rho (up, down):  3.038E-01 0.000E+00

     total cpu time spent up to now is      137.5 secs

     total energy              =   -6848.90883766 Ry
     Harris-Foulkes estimate   =   -6849.16801117 Ry
     estimated scf accuracy    <       0.99236588 Ry

     iteration #  4     ecut=    60.00 Ry     beta= 0.50
     Davidson diagonalization with overlap
     ethr =  1.17E-04,  avg # of iterations =  9.2

     negative rho (up, down):  3.067E-01 0.000E+00

     total cpu time spent up to now is      200.7 secs

     total energy              =   -6848.91182912 Ry
     Harris-Foulkes estimate   =   -6849.01605345 Ry
     estimated scf accuracy    <       0.71689679 Ry

     iteration #  5     ecut=    60.00 Ry     beta= 0.50
     Davidson diagonalization with overlap
     ethr =  8.46E-05,  avg # of iterations =  1.8

     negative rho (up, down):  3.093E-01 0.000E+00

     total cpu time spent up to now is      233.5 secs

     total energy              =   -6848.93381986 Ry
     Harris-Foulkes estimate   =   -6848.95814431 Ry
     estimated scf accuracy    <       0.14618589 Ry

     iteration #  6     ecut=    60.00 Ry     beta= 0.50
     Davidson diagonalization with overlap
     c_bands:  2 eigenvalues not converged
     c_bands:  2 eigenvalues not converged
     ethr =  1.73E-05,  avg # of iterations = 11.6

     negative rho (up, down):  3.121E-01 0.000E+00

     total cpu time spent up to now is      308.5 secs

     total energy              =   -6848.93847291 Ry
     Harris-Foulkes estimate   =   -6848.94728889 Ry
     estimated scf accuracy    <       0.04609497 Ry

     iteration #  7     ecut=    60.00 Ry     beta= 0.50
     Davidson diagonalization with overlap
     ethr =  5.44E-06,  avg # of iterations =  7.7

     negative rho (up, down):  3.127E-01 0.000E+00

     total cpu time spent up to now is      365.4 secs

     total energy              =   -6848.94188945 Ry
     Harris-Foulkes estimate   =   -6848.94330605 Ry
     estimated scf accuracy    <       0.01372411 Ry

     iteration #  8     ecut=    60.00 Ry     beta= 0.50
     Davidson diagonalization with overlap
     c_bands:  2 eigenvalues not converged
     c_bands:  1 eigenvalues not converged
     c_bands:  1 eigenvalues not converged
     ethr =  1.62E-06,  avg # of iterations = 10.3

     negative rho (up, down):  3.133E-01 0.000E+00

     total cpu time spent up to now is      431.5 secs

     total energy              =   -6848.94163529 Ry
     Harris-Foulkes estimate   =   -6848.94290380 Ry
     estimated scf accuracy    <       0.00689795 Ry

     iteration #  9     ecut=    60.00 Ry     beta= 0.50
     Davidson diagonalization with overlap
     ethr =  8.14E-07,  avg # of iterations =  5.6

     negative rho (up, down):  3.132E-01 0.000E+00

     total cpu time spent up to now is      477.2 secs

     total energy              =   -6848.94203473 Ry
     Harris-Foulkes estimate   =   -6848.94222826 Ry
     estimated scf accuracy    <       0.00087235 Ry

     iteration # 10     ecut=    60.00 Ry     beta= 0.50
     Davidson diagonalization with overlap
     ethr =  1.03E-07,  avg # of iterations =  3.4

     negative rho (up, down):  3.131E-01 0.000E+00

     total cpu time spent up to now is      524.7 secs

     total energy              =   -6848.94217079 Ry
     Harris-Foulkes estimate   =   -6848.94221411 Ry
     estimated scf accuracy    <       0.00038526 Ry

     iteration # 11     ecut=    60.00 Ry     beta= 0.50
     Davidson diagonalization with overlap
     ethr =  4.55E-08,  avg # of iterations =  1.1

     negative rho (up, down):  3.128E-01 0.000E+00

     total cpu time spent up to now is      554.9 secs

     total energy              =   -6848.94216707 Ry
     Harris-Foulkes estimate   =   -6848.94219643 Ry
     estimated scf accuracy    <       0.00020868 Ry

     iteration # 12     ecut=    60.00 Ry     beta= 0.50
     Davidson diagonalization with overlap
     ethr =  2.46E-08,  avg # of iterations =  1.0

     negative rho (up, down):  3.128E-01 0.000E+00

     total cpu time spent up to now is      585.1 secs

     total energy              =   -6848.94217362 Ry
     Harris-Foulkes estimate   =   -6848.94218036 Ry
     estimated scf accuracy    <       0.00005416 Ry

     iteration # 13     ecut=    60.00 Ry     beta= 0.50
     Davidson diagonalization with overlap
     ethr =  6.39E-09,  avg # of iterations =  2.0

     negative rho (up, down):  3.128E-01 0.000E+00

     total cpu time spent up to now is      618.8 secs

     total energy              =   -6848.94217747 Ry
     Harris-Foulkes estimate   =   -6848.94217889 Ry
     estimated scf accuracy    <       0.00001341 Ry

     iteration # 14     ecut=    60.00 Ry     beta= 0.50
     Davidson diagonalization with overlap
     ethr =  1.58E-09,  avg # of iterations =  3.0

     negative rho (up, down):  3.128E-01 0.000E+00

     total cpu time spent up to now is      659.2 secs

     total energy              =   -6848.94217854 Ry
     Harris-Foulkes estimate   =   -6848.94217928 Ry
     estimated scf accuracy    <       0.00000603 Ry

     iteration # 15     ecut=    60.00 Ry     beta= 0.50
     Davidson diagonalization with overlap
     ethr =  7.12E-10,  avg # of iterations =  1.0

     negative rho (up, down):  3.129E-01 0.000E+00

     total cpu time spent up to now is      689.0 secs

     total energy              =   -6848.94217832 Ry
     Harris-Foulkes estimate   =   -6848.94217887 Ry
     estimated scf accuracy    <       0.00000317 Ry

     iteration # 16     ecut=    60.00 Ry     beta= 0.50
     Davidson diagonalization with overlap
     ethr =  3.74E-10,  avg # of iterations =  1.4

     negative rho (up, down):  3.129E-01 0.000E+00

     total cpu time spent up to now is      720.1 secs

     total energy              =   -6848.94217839 Ry
     Harris-Foulkes estimate   =   -6848.94217855 Ry
     estimated scf accuracy    <       0.00000094 Ry

     iteration # 17     ecut=    60.00 Ry     beta= 0.50
     Davidson diagonalization with overlap
     ethr =  1.11E-10,  avg # of iterations =  2.3

     negative rho (up, down):  3.129E-01 0.000E+00

     total cpu time spent up to now is      755.4 secs

     total energy              =   -6848.94217844 Ry
     Harris-Foulkes estimate   =   -6848.94217849 Ry
     estimated scf accuracy    <       0.00000034 Ry

     iteration # 18     ecut=    60.00 Ry     beta= 0.50
     Davidson diagonalization with overlap
     ethr =  4.05E-11,  avg # of iterations =  2.8

     negative rho (up, down):  3.129E-01 0.000E+00

     total cpu time spent up to now is      791.7 secs

     total energy              =   -6848.94217846 Ry
     Harris-Foulkes estimate   =   -6848.94217848 Ry
     estimated scf accuracy    <       0.00000010 Ry

     iteration # 19     ecut=    60.00 Ry     beta= 0.50
     Davidson diagonalization with overlap
     ethr =  1.16E-11,  avg # of iterations =  2.9

     negative rho (up, down):  3.129E-01 0.000E+00

     total cpu time spent up to now is      832.8 secs

     total energy              =   -6848.94217847 Ry
     Harris-Foulkes estimate   =   -6848.94217847 Ry
     estimated scf accuracy    <       0.00000005 Ry

     iteration # 20     ecut=    60.00 Ry     beta= 0.50
     Davidson diagonalization with overlap
     ethr =  5.73E-12,  avg # of iterations =  1.0

     negative rho (up, down):  3.128E-01 0.000E+00

     total cpu time spent up to now is      862.7 secs

     total energy              =   -6848.94217846 Ry
     Harris-Foulkes estimate   =   -6848.94217847 Ry
     estimated scf accuracy    <       0.00000002 Ry

     iteration # 21     ecut=    60.00 Ry     beta= 0.50
     Davidson diagonalization with overlap
     ethr =  2.14E-12,  avg # of iterations =  2.1

     negative rho (up, down):  3.128E-01 0.000E+00

     total cpu time spent up to now is      896.8 secs

     End of self-consistent calculation

          k = 0.0000 0.0000 0.0000 ( 73097 PWs)   bands (ev):

   -31.1768 -31.1343 -31.1230 -31.0692 -31.0539 -31.0415 -30.9915 -27.7973
   -15.5593 -15.5338 -15.4535 -15.4390 -15.4346 -15.4217 -15.4198 -15.4154
   -15.4040 -15.3966 -15.3921 -15.3748 -15.3555 -15.3392 -15.2689 -15.2549
   -11.8213 -11.7385 -11.7284 -11.7130 -11.6629 -11.5291 -11.5209 -11.5039
   -11.4904 -11.4703 -11.4294 -11.4248 -11.4208 -11.4070 -11.3817 -11.3791
   -11.2303 -11.2187 -11.2124 -11.1170 -11.1027  -9.3385  -9.2982  -9.2825
    -8.6340  -8.0094  -7.9427  -7.8916  -7.8866  -7.8481  -7.8363  -7.7984
    -7.7624  -7.7138  -7.6963  -7.6698  -7.6207  -7.6059  -7.6019  -7.5417
    -7.4702  -7.4480  -7.4380  -7.4234  -7.3561  -7.3517  -7.3082  -7.2912
    -7.2830  -7.2582  -7.2537  -7.2524  -7.2295  -7.2191  -7.1780  -7.1646
    -7.0984  -7.0906  -7.0442  -6.9825  -6.9480  -6.8643  -6.8600  -6.8573
    -6.8471  -6.8050  -6.7583  -6.7127  -6.7096  -6.7070  -6.7012  -6.6901
    -6.5273  -6.4521  -6.4400  -6.4364  -6.4334  -6.4026  -6.3859  -6.2118
    -1.4237  -1.3897  -1.3182  -1.1811  -0.9950  -0.9922  -0.9814  -0.9785
    -0.9712  -0.9423  -0.9417  -0.9289  -0.9272  -0.9114  -0.8468  -0.8035
    -0.7982  -0.7963  -0.7837  -0.7801  -0.7772  -0.7500  -0.7476  -0.7310
    -0.7196  -0.6909  -0.6270  -0.5974  -0.5877  -0.5309  -0.5217  -0.5058
    -0.4297  -0.4199  -0.4076  -0.3732  -0.3681  -0.3647  -0.3560  -0.3408
    -0.3213  -0.3183  -0.3104  -0.2987  -0.2787  -0.2367  -0.1576  -0.1072
     2.5941   3.1949   3.6177   3.7324   3.7558   3.7925   3.8104   3.8740
     3.8899   4.0508   4.0616   4.1472   4.1474   4.1812   4.2204   4.2535
     4.2899   4.4131   4.4660   4.6357   4.6428   4.6608   4.6701   4.6961
     4.7063   4.7258   4.7400   4.8341   4.8722   4.8999   4.9034   4.9370
     4.9620   4.9658   5.0398   5.0722   5.1160   5.1498   5.1672   5.1725
     5.1820   5.1902   5.2032   5.2193   5.2261   5.2362   5.2415   5.2802
     5.2857   5.3388   5.3544   5.3729   5.3874   5.4145   5.4235   5.4621
     5.4737   5.4886   5.5035   5.5127   5.5298   5.5430   5.5804   5.6449
     5.7133   5.7975   5.8033   5.8184   5.8573   5.9105   5.9136   5.9500
     5.9552   5.9719   5.9738   5.9776   5.9996   6.0096   6.0204   6.0276
     6.0769   6.1174   6.1333   6.1871   6.2751   6.2993   6.3033   6.3261
     6.3304   6.3356   6.3510   6.3605   6.3616   6.3683   6.3740   6.3891
     6.4031   6.4158   6.4684   6.4827   6.5447   6.5696   6.5842   6.5857
     6.5947   6.5981   6.6245   6.6332   6.6481   6.6547   6.6579   6.6674
     6.7017   6.7375   6.7565   6.7690   6.7768   6.7933   6.7986   6.8140
     6.8215   6.8321   6.8593   6.9032   6.9037   6.9311   6.9384   7.1349
     7.1385   7.1404   7.1422   7.1508   7.1626   7.1996   7.2019   7.2118
     7.2172   7.2581   7.2671   7.2984   7.3278   7.3385   7.3631   7.3681
     7.3707   7.4097   7.4188   7.4427   7.4502   7.4578   7.4595   7.4647
     7.4815   7.5253   7.5302   7.5514   7.5886   7.6197   7.6317   7.6613
     7.6890   7.7119   7.7189   7.7337   7.7907   7.8405   7.8511   7.8776
     7.8793   7.8844   7.8880   7.9021   7.9084   7.9189   7.9278   8.0593
     8.0745   8.1143   8.1246   8.1254   8.1523   8.1544   8.1835   8.2199
     8.2321   8.2388   8.2498   8.2744   8.2783   8.2833   8.2872   8.2918
     8.2923   8.3105   8.3240   8.3392   8.3405   8.3437   8.3484   8.3547
     8.3566   8.3633   8.3928   8.3989   8.4096   8.4193   8.4379   8.4457
     8.4583   8.5053   8.5429   8.5892   8.6157   8.6326   8.6361   8.6824
     8.6981   8.7069   8.7089   8.7213   8.7285   8.7381   8.7690   8.7729
     8.7772   8.7808   8.7869   8.7969   8.7991   8.8125   8.8141   8.8208
     8.8260   8.8334   8.8610   8.8973   8.9052   8.9162   8.9203   8.9239
     8.9303   8.9399   8.9464   8.9865   9.0085   9.0240   9.0589   9.0939
     9.1171   9.1551   9.1983   9.2184   9.2286   9.2984   9.3141   9.3326
     9.3421   9.3467   9.3515   9.3606   9.3632   9.3640   9.4816   9.4824
     9.4880   9.4959   9.4994   9.5225   9.5609   9.5706   9.6402   9.6848
    10.2297  10.2355  10.2601  10.2652  10.4364  10.4422  10.4687  10.4706
    10.6298  10.6330  10.6566  10.6599  11.0398  11.3598  11.6810  11.7629
    12.4281  12.4876  13.2304  13.5870  13.6436  13.6525  13.6603  13.6881
    14.1055  14.1207  14.1947  14.2213  14.2428  14.2473  14.2719  14.4436
    14.5987  14.6064  14.6543  14.7590  14.8404  14.8673  14.9818  15.0809
    15.1298  15.3981  15.4133  15.4172  15.4360  15.4521  15.6506  15.7447
    15.8035  15.8487  15.8730  15.9245  15.9497  15.9668  16.0357  16.0452
    16.0530  16.0795  16.0870  16.0883  16.1160  16.1598  16.1810  16.2543
    16.2772  16.3146  16.3191  16.3239  16.3906  16.4123  16.4234  16.4559
    16.4955  16.5203  16.5241  16.5472  16.5507  16.5565  16.6487  16.6509
    16.6662  16.6686  16.7049  16.7244  16.7330

          k = 0.0000 0.0000 0.4253 ( 73009 PWs)   bands (ev):

   -31.1768 -31.1343 -31.1230 -31.0692 -31.0539 -31.0415 -30.9915 -27.7973
   -15.5602 -15.5329 -15.4541 -15.4397 -15.4339 -15.4223 -15.4191 -15.4160
   -15.4034 -15.3960 -15.3927 -15.3741 -15.3559 -15.3388 -15.2692 -15.2546
   -11.8213 -11.7385 -11.7284 -11.7132 -11.6629 -11.5291 -11.5209 -11.5039
   -11.4904 -11.4703 -11.4294 -11.4248 -11.4209 -11.4070 -11.3817 -11.3792
   -11.2303 -11.2187 -11.2123 -11.1170 -11.1027  -9.3386  -9.2981  -9.2825
    -8.6320  -8.0113  -7.9422  -7.9011  -7.8905  -7.8469  -7.8351  -7.7973
    -7.7628  -7.7152  -7.6972  -7.6722  -7.6209  -7.6002  -7.5677  -7.5430
    -7.4740  -7.4417  -7.4388  -7.4212  -7.3582  -7.3500  -7.3095  -7.2902
    -7.2809  -7.2572  -7.2544  -7.2520  -7.2426  -7.2268  -7.1781  -7.1587
    -7.1121  -7.1012  -7.0455  -6.9843  -6.9549  -6.8899  -6.8578  -6.8472
    -6.8315  -6.8195  -6.7344  -6.7147  -6.7071  -6.7048  -6.6985  -6.6852
    -6.5270  -6.4523  -6.4393  -6.4358  -6.4327  -6.4036  -6.3905  -6.2104
    -1.4223  -1.3896  -1.3183  -1.1822  -0.9937  -0.9887  -0.9790  -0.9746
    -0.9618  -0.9440  -0.9393  -0.9295  -0.9262  -0.8989  -0.8717  -0.8112
    -0.7983  -0.7855  -0.7812  -0.7755  -0.7728  -0.7557  -0.7541  -0.7310
    -0.7160  -0.7113  -0.6154  -0.6068  -0.5881  -0.5304  -0.5218  -0.5052
    -0.4295  -0.4205  -0.4090  -0.3760  -0.3707  -0.3666  -0.3587  -0.3410
    -0.3193  -0.3166  -0.3081  -0.2964  -0.2786  -0.2363  -0.1587  -0.1060
     2.6043   3.1792   3.6210   3.7438   3.7686   3.7904   3.8224   3.8955
     3.9084   3.9837   4.0923   4.1351   4.1485   4.1733   4.2079   4.2398
     4.3311   4.4134   4.4655   4.6354   4.6426   4.6609   4.6690   4.6950
     4.7069   4.7268   4.7383   4.8296   4.8590   4.9042   4.9107   4.9421
     4.9641   4.9701   4.9948   5.0730   5.1198   5.1492   5.1681   5.1798
     5.1844   5.1870   5.1934   5.2077   5.2170   5.2238   5.2356   5.2402
     5.2861   5.2870   5.3467   5.3726   5.3813   5.4085   5.4266   5.4676
     5.4890   5.4991   5.5095   5.5244   5.5331   5.5826   5.6453   5.6490
     5.7713   5.7804   5.8002   5.8030   5.8187   5.9139   5.9514   5.9542
     5.9855   5.9902   6.0023   6.0130   6.0208   6.0284   6.0435   6.0937
     6.1125   6.1345   6.1506   6.2030   6.2811   6.2964   6.3000   6.3072
     6.3243   6.3310   6.3436   6.3524   6.3569   6.3628   6.3664   6.3738
     6.3807   6.3828   6.3957   6.4157   6.4687   6.4736   6.4788   6.4907
     6.5226   6.5847   6.6086   6.6428   6.6454   6.6489   6.6577   6.6665
     6.6856   6.6976   6.7098   6.7181   6.7523   6.7855   6.7900   6.8000
     6.8172   6.8313   6.8391   6.8478   6.9034   6.9154   6.9377   7.1407
     7.1512   7.1958   7.2125   7.2184   7.2210   7.2252   7.2545   7.2672
     7.3170   7.3193   7.3221   7.3276   7.3327   7.3785   7.3860   7.3868
     7.4263   7.4395   7.4458   7.4539   7.4564   7.4596   7.4867   7.5203
     7.5298   7.5463   7.5634   7.5825   7.5861   7.5941   7.6247   7.6297
     7.6443   7.6501   7.6628   7.6976   7.7813   7.9026   7.9210   7.9243
     7.9279   7.9297   7.9311   7.9549   7.9661   7.9754   7.9837   8.0433
     8.0606   8.1128   8.1248   8.1386   8.1530   8.1806   8.1971   8.1984
     8.2129   8.2167   8.2282   8.2530   8.2734   8.2830   8.2862   8.3015
     8.3219   8.3302   8.3487   8.3515   8.3545   8.3552   8.3635   8.3692
     8.3986   8.4142   8.4190   8.4218   8.4286   8.4296   8.4554   8.4629
     8.4751   8.4827   8.5258   8.5404   8.5826   8.6065   8.6117   8.6121
     8.6211   8.6307   8.6376   8.6586   8.6642   8.6819   8.7135   8.7422
     8.7446   8.7525   8.7557   8.7758   8.8255   8.8276   8.8356   8.8386
     8.8465   8.8513   8.8578   8.8586   8.8827   8.9240   8.9249   8.9319
     8.9338   8.9363   8.9405   9.0020   9.0115   9.0224   9.0606   9.0904
     9.1546   9.1622   9.1850   9.1923   9.2444   9.2696   9.2760   9.2772
     9.2801   9.2923   9.3051   9.3526   9.3594   9.3597   9.3616   9.4271
     9.4295   9.4311   9.4323   9.4871   9.5182   9.5681   9.6390   9.7437
    10.2428  10.2489  10.2731  10.2782  10.4259  10.4312  10.4578  10.4596
    10.7020  10.7031  10.7284  10.7305  11.2304  11.4160  11.6810  11.7633
    12.4394  12.6956  13.1011  13.5014  13.6922  13.6964  13.7019  13.7038
    13.9810  14.1412  14.1579  14.1820  14.1965  14.2231  14.3948  14.5139
    14.6075  14.6161  14.6551  14.6689  14.7674  14.8750  14.9822  15.0811
    15.1207  15.4109  15.5111  15.5311  15.5482  15.5578  15.5729  15.5818
    15.7354  15.7712  15.7792  15.8170  15.8764  15.9534  15.9627  15.9768
    16.0055  16.0201  16.0301  16.0808  16.2097  16.2278  16.2440  16.2466
    16.2533  16.2618  16.2710  16.2999  16.3074  16.3177  16.3243  16.3520
    16.3672  16.4354  16.4643  16.5296  16.5325  16.5612  16.5653  16.5984
    16.6082  16.6471  16.6522  16.6807  16.7154

          k =-0.3333 0.3247 0.0000 ( 73105 PWs)   bands (ev):

   -31.1768 -31.1343 -31.1230 -31.0692 -31.0539 -31.0415 -30.9915 -27.7973
   -15.5428 -15.5184 -15.4871 -15.4649 -15.4534 -15.4344 -15.4137 -15.4062
   -15.3946 -15.3896 -15.3780 -15.3613 -15.3490 -15.3337 -15.2754 -15.2607
   -11.7833 -11.7275 -11.7067 -11.6864 -11.6673 -11.6571 -11.5955 -11.5897
   -11.5091 -11.4283 -11.4252 -11.3945 -11.3886 -11.3420 -11.3163 -11.2883
   -11.2449 -11.2252 -11.2039 -11.1667 -11.1581  -9.3390  -9.3044  -9.2873
    -8.5141  -8.2213  -7.9614  -7.9065  -7.8545  -7.8430  -7.8382  -7.8083
    -7.7380  -7.7173  -7.7032  -7.6714  -7.5942  -7.5719  -7.5613  -7.5037
    -7.4869  -7.4386  -7.4126  -7.4090  -7.3862  -7.3431  -7.3388  -7.3196
    -7.3127  -7.2704  -7.2493  -7.2035  -7.1932  -7.1641  -7.1528  -7.1219
    -7.1131  -7.0993  -7.0652  -7.0111  -6.9791  -6.9586  -6.8726  -6.8507
    -6.7853  -6.7804  -6.7701  -6.7486  -6.7157  -6.7050  -6.6519  -6.6451
    -6.5674  -6.5348  -6.4609  -6.4355  -6.3995  -6.3865  -6.3570  -6.2602
    -1.3409  -1.2775  -1.1818  -1.1772  -1.1192  -1.0687  -0.9817  -0.9628
    -0.9101  -0.8592  -0.8559  -0.8494  -0.8352  -0.8300  -0.8132  -0.8101
    -0.7885  -0.7770  -0.7688  -0.7375  -0.7324  -0.7281  -0.7167  -0.7134
    -0.7020  -0.6939  -0.6788  -0.6716  -0.6398  -0.6041  -0.5953  -0.5834
    -0.5701  -0.5372  -0.4973  -0.4806  -0.3923  -0.3619  -0.3542  -0.3436
    -0.3217  -0.3158  -0.3082  -0.2754  -0.2561  -0.2248  -0.2133  -0.1882
     2.7567   3.2019   3.3405   3.6604   3.7152   3.7177   3.8622   3.8695
     3.8866   4.0044   4.1141   4.1497   4.2035   4.2423   4.3467   4.4143
     4.4440   4.4667   4.5072   4.5218   4.5238   4.5441   4.5943   4.6952
     4.7133   4.7319   4.7853   4.8018   4.8088   4.8382   4.8483   4.8910
     4.9506   5.0166   5.0307   5.0753   5.0929   5.1238   5.1297   5.1656
     5.1782   5.1827   5.1849   5.1941   5.1971   5.2086   5.2129   5.2215
     5.2334   5.2819   5.2982   5.3548   5.3964   5.4714   5.4897   5.5034
     5.5168   5.5539   5.5593   5.5659   5.6016   5.6509   5.6706   5.6957
     5.7292   5.7954   5.7999   5.8575   5.8836   5.9112   5.9220   5.9494
     5.9565   5.9851   5.9958   6.0179   6.0347   6.0528   6.0606   6.1004
     6.1342   6.1627   6.1761   6.1798   6.1816   6.2254   6.2951   6.3059
     6.3363   6.3400   6.3540   6.3585   6.3700   6.3769   6.3866   6.4018
     6.4143   6.4513   6.4625   6.4741   6.4802   6.4956   6.5058   6.5192
     6.5287   6.5408   6.5478   6.5760   6.6705   6.6765   6.6836   6.6961
     6.7192   6.7482   6.7588   6.7961   6.8069   6.8109   6.8693   6.8968
     6.9083   6.9202   6.9335   6.9751   6.9881   7.0340   7.0520   7.0699
     7.0812   7.1201   7.1513   7.1767   7.1945   7.2079   7.2253   7.2406
     7.2475   7.2720   7.2820   7.2900   7.3003   7.3049   7.3184   7.3362
     7.3507   7.3733   7.3817   7.3863   7.3997   7.4383   7.4477   7.4731
     7.4885   7.4980   7.5110   7.5185   7.5372   7.5553   7.5915   7.6334
     7.6408   7.6575   7.7537   7.8127   7.8336   7.8511   7.8911   7.8961
     7.9038   7.9122   7.9339   7.9790   7.9839   8.0092   8.0178   8.0248
     8.0336   8.0441   8.0549   8.0745   8.0948   8.1169   8.1307   8.1454
     8.1685   8.1721   8.1879   8.1977   8.2037   8.2145   8.2300   8.2339
     8.2551   8.2724   8.2988   8.3264   8.3321   8.3430   8.3482   8.3676
     8.3792   8.4250   8.4547   8.4702   8.4844   8.4890   8.4929   8.5434
     8.5525   8.5746   8.5799   8.6085   8.6141   8.6270   8.6404   8.6459
     8.6580   8.6687   8.6724   8.6796   8.6912   8.7136   8.7158   8.7317
     8.7434   8.7589   8.7815   8.7959   8.8155   8.8285   8.8314   8.8486
     8.8522   8.8623   8.8643   8.8886   8.8958   8.9172   8.9396   8.9836
     8.9914   9.0294   9.0595   9.0678   9.0801   9.0979   9.1122   9.1261
     9.1401   9.1617   9.1733   9.2319   9.2753   9.2785   9.2863   9.2975
     9.3113   9.3418   9.3786   9.3878   9.4268   9.4281   9.4415   9.4730
     9.4853   9.4894   9.5114   9.5743   9.5810   9.5922   9.7124   9.7975
     9.8310   9.8595   9.9039  10.0119  10.1369  10.1990  10.2221  10.2561
    10.8940  10.9699  11.0133  11.0438  11.0539  11.2707  11.4658  11.5545
    12.6565  12.7787  13.1995  13.3609  13.4444  13.6483  13.6986  13.7242
    13.9175  13.9589  13.9946  14.3046  14.3610  14.3905  14.4350  14.4943
    14.6351  14.6662  14.7283  14.7535  14.8280  14.8904  14.9547  15.0423
    15.0469  15.1140  15.1605  15.3229  15.3600  15.4653  15.5717  15.6057
    15.7315  15.9477  15.9514  15.9802  15.9978  16.0166  16.0227  16.0539
    16.1189  16.1245  16.1408  16.1536  16.1579  16.1757  16.2563  16.2635
    16.3192  16.3252  16.3422  16.3714  16.3930  16.4026  16.4161  16.4252
    16.4525  16.5033  16.5189  16.5292  16.5774  16.6538  16.6563  16.6963
    16.7173  16.7573  16.7686  16.7856  16.8209

          k =-0.3333 0.3247 0.4253 ( 73049 PWs)   bands (ev):

   -31.1768 -31.1343 -31.1230 -31.0692 -31.0539 -31.0415 -30.9915 -27.7973
   -15.5436 -15.5176 -15.4878 -15.4642 -15.4540 -15.4338 -15.4143 -15.4068
   -15.3940 -15.3889 -15.3785 -15.3607 -15.3494 -15.3332 -15.2757 -15.2604
   -11.7833 -11.7275 -11.7067 -11.6865 -11.6673 -11.6571 -11.5954 -11.5898
   -11.5092 -11.4283 -11.4252 -11.3945 -11.3887 -11.3420 -11.3163 -11.2883
   -11.2449 -11.2252 -11.2039 -11.1666 -11.1581  -9.3392  -9.3044  -9.2873
    -8.5124  -8.2202  -7.9630  -7.9059  -7.8542  -7.8498  -7.8422  -7.8070
    -7.7404  -7.7201  -7.7016  -7.6731  -7.5960  -7.5749  -7.5308  -7.5063
    -7.4839  -7.4319  -7.4131  -7.3968  -7.3837  -7.3438  -7.3367  -7.3162
    -7.3126  -7.2715  -7.2616  -7.2083  -7.1958  -7.1660  -7.1569  -7.1280
    -7.1142  -7.1012  -7.0657  -7.0110  -6.9907  -6.9688  -6.8842  -6.8379
    -6.8218  -6.7783  -6.7507  -6.7363  -6.7110  -6.6897  -6.6520  -6.6433
    -6.5676  -6.5346  -6.4611  -6.4350  -6.4016  -6.3886  -6.3558  -6.2586
    -1.3410  -1.2764  -1.1837  -1.1788  -1.1174  -1.0689  -0.9748  -0.9554
    -0.8961  -0.8668  -0.8520  -0.8502  -0.8365  -0.8310  -0.8235  -0.8083
    -0.7882  -0.7789  -0.7670  -0.7458  -0.7330  -0.7240  -0.7195  -0.7136
    -0.7104  -0.7018  -0.6748  -0.6659  -0.6294  -0.6102  -0.5960  -0.5865
    -0.5695  -0.5372  -0.4952  -0.4820  -0.3935  -0.3624  -0.3553  -0.3421
    -0.3221  -0.3170  -0.3074  -0.2754  -0.2566  -0.2252  -0.2137  -0.1891
     2.7669   3.2118   3.3249   3.6639   3.7014   3.7233   3.8652   3.8876
     3.9164   3.9977   4.0484   4.1687   4.1894   4.2444   4.3652   4.4401
     4.4507   4.4663   4.5055   4.5160   4.5266   4.5429   4.5946   4.6909
     4.7175   4.7310   4.7909   4.8069   4.8123   4.8466   4.8509   4.8878
     4.9382   5.0253   5.0350   5.0404   5.1024   5.1154   5.1344   5.1410
     5.1692   5.1730   5.1787   5.1881   5.1989   5.2028   5.2125   5.2219
     5.2311   5.2715   5.2978   5.3176   5.3814   5.4769   5.4952   5.5130
     5.5337   5.5475   5.5573   5.5714   5.6061   5.6455   5.6967   5.7253
     5.7407   5.8010   5.8154   5.8654   5.9006   5.9123   5.9435   5.9731
     5.9888   6.0077   6.0143   6.0416   6.0641   6.0803   6.0888   6.0955
     6.1256   6.1598   6.1804   6.1901   6.2212   6.2571   6.2747   6.2813
     6.3005   6.3105   6.3260   6.3404   6.3538   6.3613   6.3688   6.3812
     6.3964   6.4030   6.4102   6.4182   6.4454   6.4549   6.4645   6.4858
     6.4986   6.5409   6.5692   6.5785   6.5910   6.6370   6.6761   6.6879
     6.6968   6.7294   6.7607   6.7783   6.7836   6.8025   6.8613   6.8715
     6.8893   6.9114   6.9183   6.9356   6.9503   7.0029   7.0206   7.0573
     7.0813   7.1332   7.2208   7.2425   7.2593   7.2680   7.2900   7.2908
     7.3030   7.3151   7.3203   7.3271   7.3360   7.3528   7.3581   7.3676
     7.3784   7.3937   7.4057   7.4259   7.4266   7.4343   7.4434   7.4605
     7.4685   7.4805   7.4974   7.5430   7.5597   7.5734   7.5994   7.6242
     7.6479   7.7022   7.7695   7.8184   7.8344   7.8565   7.9221   7.9355
     7.9533   7.9612   7.9694   7.9857   8.0064   8.0291   8.0377   8.0544
     8.0686   8.0836   8.0967   8.1001   8.1176   8.1334   8.1437   8.1497
     8.1690   8.1860   8.1881   8.1943   8.2021   8.2082   8.2175   8.2234
     8.2313   8.2347   8.2824   8.3228   8.3323   8.3484   8.3540   8.3833
     8.3972   8.4099   8.4178   8.4277   8.4321   8.4919   8.5006   8.5395
     8.5524   8.5818   8.6018   8.6109   8.6207   8.6370   8.6437   8.6496
     8.6531   8.6569   8.6629   8.6715   8.6886   8.6994   8.7073   8.7202
     8.7288   8.7306   8.7779   8.7917   8.7958   8.8002   8.8116   8.8149
     8.8380   8.8570   8.8763   8.8827   8.8892   8.8959   8.9407   8.9607
     8.9694   8.9858   9.0000   9.0210   9.0390   9.0791   9.0890   9.1007
     9.1458   9.1565   9.1823   9.2239   9.2379   9.2397   9.2538   9.2596
     9.2914   9.2940   9.3156   9.3534   9.3766   9.3817   9.4106   9.4291
     9.4514   9.4963   9.5046   9.5747   9.5777   9.6274   9.6402   9.7558
     9.8331   9.9375   9.9398  10.0236  10.1064  10.1916  10.2373  10.3430
    10.9209  11.0207  11.0857  11.0870  11.2013  11.3322  11.4667  11.5548
    12.6768  12.9451  13.2403  13.2594  13.4967  13.5957  13.6754  13.7230
    13.9486  13.9735  14.0070  14.2287  14.3098  14.3464  14.4740  14.6174
    14.6203  14.6724  14.6896  14.7349  14.8263  14.8622  14.8922  14.9353
    15.0208  15.1184  15.2362  15.3747  15.3937  15.4115  15.6029  15.7010
    15.7262  15.7760  15.8664  15.8877  15.8934  15.9273  15.9486  16.0041
    16.0224  16.0394  16.0769  16.1118  16.1635  16.1977  16.2161  16.2533
    16.2833  16.3073  16.3527  16.3643  16.3858  16.3910  16.4049  16.4409
    16.4572  16.4883  16.5446  16.5560  16.5974  16.6120  16.6178  16.6395
    16.7014  16.7173  16.7713  16.7870  16.8264

          k = 0.0000 0.6494 0.0000 ( 73058 PWs)   bands (ev):

   -31.1768 -31.1343 -31.1230 -31.0692 -31.0539 -31.0415 -30.9915 -27.7973
   -15.5307 -15.5066 -15.4831 -15.4752 -15.4626 -15.4547 -15.4357 -15.4151
   -15.3859 -15.3702 -15.3692 -15.3526 -15.3474 -15.3325 -15.2782 -15.2634
   -11.8174 -11.7324 -11.6962 -11.6738 -11.6677 -11.5958 -11.5810 -11.5669
   -11.5317 -11.4639 -11.4221 -11.4136 -11.3965 -11.3582 -11.3270 -11.2951
   -11.2628 -11.2220 -11.2125 -11.1648 -11.1030  -9.3387  -9.3004  -9.2888
    -8.4281  -8.2192  -8.1520  -7.9663  -7.9125  -7.8737  -7.8445  -7.7740
    -7.7158  -7.6779  -7.6733  -7.5944  -7.5588  -7.5149  -7.5016  -7.4948
    -7.4505  -7.4362  -7.4285  -7.4032  -7.3691  -7.3592  -7.3385  -7.3298
    -7.3010  -7.2813  -7.2792  -7.2454  -7.1969  -7.1657  -7.1549  -7.1460
    -7.0852  -7.0729  -7.0709  -7.0415  -7.0078  -6.9688  -6.8663  -6.8156
    -6.8090  -6.8034  -6.7816  -6.7506  -6.6948  -6.6585  -6.6512  -6.6251
    -6.5780  -6.5465  -6.5370  -6.4223  -6.3996  -6.3506  -6.3452  -6.3253
    -1.2056  -1.1597  -1.0892  -1.0220  -1.0083  -1.0053  -0.9729  -0.9600
    -0.9546  -0.9410  -0.9286  -0.8881  -0.8458  -0.8261  -0.8219  -0.8070
    -0.7925  -0.7625  -0.7570  -0.7542  -0.7405  -0.7353  -0.7036  -0.6728
    -0.6638  -0.6558  -0.6374  -0.6212  -0.6126  -0.6042  -0.5985  -0.5938
    -0.5909  -0.5661  -0.5577  -0.5419  -0.5320  -0.5042  -0.4807  -0.4193
    -0.3551  -0.3151  -0.3044  -0.2973  -0.2678  -0.2615  -0.2162  -0.1685
     2.8710   3.3132   3.3543   3.4096   3.4975   3.7042   3.8403   3.9056
     4.0859   4.1273   4.1845   4.1910   4.1953   4.2510   4.2802   4.3506
     4.4330   4.4828   4.5069   4.5595   4.5638   4.5668   4.6024   4.6248
     4.6481   4.6611   4.6863   4.8516   4.8687   4.8875   4.8913   4.9573
     4.9728   5.0234   5.0356   5.0799   5.0923   5.0979   5.1323   5.1449
     5.1514   5.1543   5.1658   5.1735   5.1778   5.1849   5.1886   5.1982
     5.2079   5.2140   5.2240   5.2399   5.2454   5.2664   5.2841   5.3559
     5.4633   5.5320   5.5825   5.6361   5.6636   5.6712   5.7330   5.8679
     5.8927   5.8987   5.9062   5.9389   5.9575   5.9891   6.0082   6.0113
     6.0314   6.0532   6.0618   6.0712   6.1195   6.1278   6.1327   6.1547
     6.1687   6.1754   6.1815   6.2001   6.2089   6.2103   6.2882   6.2967
     6.3028   6.3379   6.3468   6.3560   6.3614   6.3829   6.3896   6.4016
     6.4157   6.4201   6.4293   6.4797   6.5025   6.5201   6.5313   6.5337
     6.5373   6.5658   6.5740   6.5850   6.5933   6.6070   6.6380   6.6616
     6.7097   6.7209   6.7469   6.7538   6.7581   6.7674   6.8124   6.8386
     6.8648   6.8847   6.8993   6.9245   7.0453   7.0571   7.0607   7.1041
     7.1388   7.1522   7.1759   7.1856   7.1933   7.2169   7.2219   7.2296
     7.2382   7.2410   7.2646   7.2739   7.2806   7.2960   7.3389   7.3463
     7.3483   7.3528   7.3847   7.3875   7.4408   7.4586   7.4600   7.4609
     7.4670   7.4724   7.5191   7.5767   7.5999   7.6653   7.7168   7.7288
     7.7321   7.7616   7.7856   7.7990   7.8253   7.8351   7.8621   7.8805
     7.8969   7.9074   7.9195   7.9539   7.9603   7.9738   7.9964   8.0164
     8.0636   8.0875   8.0914   8.1045   8.1118   8.1336   8.1384   8.1686
     8.1698   8.1844   8.1968   8.2140   8.2319   8.2378   8.2417   8.2510
     8.2551   8.2870   8.2988   8.3266   8.3377   8.3466   8.3733   8.3901
     8.3922   8.4071   8.4382   8.4416   8.4589   8.4837   8.5043   8.5102
     8.5309   8.5345   8.5527   8.5605   8.5876   8.5941   8.6039   8.6089
     8.6310   8.6437   8.6901   8.7329   8.7334   8.7366   8.7675   8.7689
     8.7737   8.8088   8.8102   8.8182   8.8350   8.8389   8.8457   8.8543
     8.8601   8.8927   8.9165   8.9234   8.9289   8.9323   8.9404   8.9634
     8.9825   8.9908   9.0045   9.0278   9.0675   9.0828   9.0982   9.0996
     9.1014   9.1137   9.1244   9.1784   9.2012   9.2209   9.2238   9.2401
     9.2591   9.2741   9.2930   9.3075   9.3253   9.3315   9.3388   9.3454
     9.3539   9.3746   9.4749   9.4772   9.5779   9.6833   9.6841   9.6993
     9.7821   9.7902   9.9363  10.0989  10.1930  10.2493  10.6792  10.6962
    10.8303  10.8406  10.9023  11.0450  11.1705  11.1761  11.2003  11.3182
    12.8140  13.0713  13.4806  13.5035  13.5193  13.5320  13.5449  13.6668
    13.7314  13.8442  13.9041  14.0808  14.1371  14.1498  14.3735  14.4322
    14.5992  14.6376  14.8331  14.9184  14.9325  14.9619  15.0718  15.0855
    15.1875  15.2214  15.2410  15.2855  15.3567  15.3900  15.5740  15.5945
    15.6689  15.7240  15.7541  15.7943  15.9444  15.9699  15.9864  16.0433
    16.1027  16.1198  16.1723  16.1773  16.2210  16.2472  16.2774  16.2955
    16.3768  16.4241  16.4335  16.4364  16.4694  16.4982  16.5392  16.5623
    16.6015  16.6536  16.6700  16.6947  16.7146  16.7405  16.7438  16.7521
    16.7777  16.7824  16.8017  16.8154  16.8330

          k = 0.0000 0.6494 0.4253 ( 73066 PWs)   bands (ev):

   -31.1768 -31.1343 -31.1230 -31.0692 -31.0539 -31.0415 -30.9915 -27.7973
   -15.5315 -15.5058 -15.4838 -15.4759 -15.4619 -15.4540 -15.4363 -15.4145
   -15.3865 -15.3699 -15.3695 -15.3520 -15.3479 -15.3320 -15.2785 -15.2631
   -11.8174 -11.7324 -11.6962 -11.6738 -11.6678 -11.5958 -11.5811 -11.5670
   -11.5317 -11.4639 -11.4222 -11.4136 -11.3965 -11.3582 -11.3270 -11.2951
   -11.2628 -11.2220 -11.2125 -11.1648 -11.1030  -9.3389  -9.3004  -9.2887
    -8.4263  -8.2185  -8.1510  -7.9647  -7.9138  -7.8747  -7.8524  -7.7752
    -7.7189  -7.6791  -7.6731  -7.5982  -7.5616  -7.5050  -7.5008  -7.4761
    -7.4472  -7.4304  -7.4210  -7.4037  -7.3660  -7.3572  -7.3386  -7.3315
    -7.3015  -7.2827  -7.2804  -7.2515  -7.1916  -7.1799  -7.1420  -7.1316
    -7.1068  -7.0808  -7.0670  -7.0462  -7.0177  -6.9826  -6.8704  -6.8344
    -6.8103  -6.8040  -6.7984  -6.7166  -6.6821  -6.6583  -6.6465  -6.6251
    -6.5769  -6.5456  -6.5358  -6.4215  -6.4033  -6.3493  -6.3443  -6.3238
    -1.2046  -1.1574  -1.0905  -1.0219  -1.0089  -1.0060  -0.9634  -0.9589
    -0.9520  -0.9310  -0.9195  -0.8789  -0.8654  -0.8357  -0.8202  -0.8030
    -0.8008  -0.7724  -0.7627  -0.7569  -0.7470  -0.7209  -0.7156  -0.6772
    -0.6607  -0.6557  -0.6358  -0.6227  -0.6141  -0.6070  -0.5945  -0.5911
    -0.5875  -0.5643  -0.5560  -0.5421  -0.5316  -0.5024  -0.4813  -0.4214
    -0.3560  -0.3163  -0.3049  -0.2958  -0.2674  -0.2608  -0.2168  -0.1673
     2.8792   3.3271   3.3670   3.3983   3.5087   3.6981   3.8107   3.8742
     4.1063   4.1433   4.1942   4.2006   4.2036   4.2311   4.2655   4.3462
     4.4395   4.4851   4.5394   4.5464   4.5648   4.5726   4.6030   4.6194
     4.6543   4.6714   4.6856   4.8581   4.8658   4.8757   4.8878   4.9465
     4.9574   5.0336   5.0486   5.0574   5.0891   5.0950   5.1009   5.1308
     5.1406   5.1510   5.1595   5.1682   5.1788   5.1859   5.1907   5.1989
     5.2035   5.2118   5.2177   5.2453   5.2578   5.2744   5.2995   5.3425
     5.4696   5.5321   5.5801   5.6651   5.6894   5.7298   5.8320   5.8419
     5.8857   5.8942   5.9213   5.9308   5.9570   5.9889   6.0049   6.0108
     6.0339   6.0500   6.0600   6.0698   6.1210   6.1261   6.1325   6.1570
     6.1591   6.1727   6.1910   6.2028   6.2253   6.2333   6.2359   6.2557
     6.3131   6.3235   6.3395   6.3468   6.3564   6.3620   6.3805   6.4032
     6.4212   6.4461   6.4657   6.4723   6.4809   6.5013   6.5067   6.5199
     6.5257   6.5314   6.5378   6.5470   6.5709   6.6054   6.6066   6.6146
     6.6665   6.6961   6.7009   6.7188   6.7297   6.7396   6.7657   6.7670
     6.8508   6.8990   6.9078   6.9133   7.0115   7.0399   7.0700   7.1253
     7.1533   7.1584   7.1737   7.2204   7.2392   7.2495   7.2686   7.2903
     7.2979   7.3091   7.3215   7.3384   7.3445   7.3672   7.3726   7.3797
     7.3858   7.3967   7.3990   7.4091   7.4535   7.4562   7.4680   7.4716
     7.4744   7.5039   7.5206   7.5856   7.6087   7.6729   7.7238   7.7333
     7.7411   7.7474   7.7634   7.7732   7.8022   7.8057   7.8444   7.8697
     7.8739   7.8879   7.9578   7.9745   7.9808   7.9882   8.0126   8.0236
     8.0339   8.0916   8.1247   8.1336   8.1577   8.1617   8.1701   8.1778
     8.1990   8.2095   8.2245   8.2270   8.2584   8.2753   8.3018   8.3039
     8.3123   8.3162   8.3180   8.3332   8.3409   8.3486   8.3598   8.3706
     8.3753   8.3863   8.3970   8.4161   8.4795   8.4950   8.5014   8.5060
     8.5119   8.5206   8.5346   8.5703   8.5886   8.6000   8.6191   8.6378
     8.6446   8.6535   8.6622   8.6881   8.7038   8.7193   8.7241   8.7590
     8.7792   8.7873   8.7900   8.7936   8.8078   8.8135   8.8278   8.8469
     8.8655   8.8796   8.8865   8.8935   8.8980   8.9061   8.9183   8.9548
     8.9672   8.9777   8.9859   8.9873   9.0089   9.0177   9.0478   9.0525
     9.0634   9.0910   9.1226   9.1878   9.1954   9.2081   9.2158   9.2339
     9.2357   9.2451   9.2586   9.2652   9.2767   9.3193   9.3307   9.4055
     9.4201   9.4280   9.4641   9.4652   9.4861   9.5680   9.5798   9.6024
     9.8427   9.8471   9.9554  10.1043  10.1480  10.3754  10.6851  10.7026
    10.8266  10.8369  11.0211  11.0979  11.2012  11.2781  11.2792  11.3259
    12.8457  13.1876  13.4062  13.5402  13.5491  13.5739  13.5835  13.6962
    13.7007  13.8394  13.9090  14.0262  14.1118  14.1915  14.3141  14.4436
    14.4837  14.7898  14.8806  14.9144  14.9294  14.9639  15.0393  15.0719
    15.0874  15.1082  15.1493  15.3584  15.3767  15.4118  15.5840  15.5932
    15.6087  15.7264  15.7655  15.7897  15.7921  15.8066  15.8452  15.9164
    15.9282  16.0016  16.1193  16.1745  16.2197  16.2382  16.2656  16.3284
    16.3447  16.3586  16.3663  16.4011  16.4524  16.4690  16.4905  16.5066
    16.5242  16.5969  16.6202  16.6258  16.6529  16.7228  16.7584  16.7636
    16.7986  16.8641  16.9018  16.9083  16.9210

          k = 0.6667-0.0000 0.0000 ( 73083 PWs)   bands (ev):

   -31.1768 -31.1343 -31.1230 -31.0692 -31.0539 -31.0415 -30.9915 -27.7973
   -15.5250 -15.5022 -15.4935 -15.4773 -15.4711 -15.4558 -15.4254 -15.4074
   -15.3942 -15.3764 -15.3634 -15.3487 -15.3468 -15.3317 -15.2798 -15.2645
   -11.7785 -11.7336 -11.7308 -11.6699 -11.6620 -11.6613 -11.5982 -11.5590
   -11.4949 -11.4240 -11.4177 -11.4151 -11.3880 -11.3588 -11.3222 -11.3109
   -11.2679 -11.2298 -11.2031 -11.1612 -11.1176  -9.3389  -9.3057  -9.2849
    -8.4301  -8.2017  -8.1540  -7.9883  -7.9532  -7.8315  -7.8050  -7.7608
    -7.7264  -7.6888  -7.6544  -7.5906  -7.5652  -7.5569  -7.5317  -7.4659
    -7.4604  -7.4260  -7.4060  -7.3939  -7.3846  -7.3589  -7.3526  -7.3451
    -7.3362  -7.2761  -7.2610  -7.2215  -7.2160  -7.1906  -7.1815  -7.1175
    -7.1120  -7.0724  -7.0654  -6.9906  -6.9750  -6.8957  -6.8765  -6.8593
    -6.8544  -6.7931  -6.7422  -6.7240  -6.7153  -6.7021  -6.6947  -6.6349
    -6.5855  -6.4960  -6.4508  -6.4449  -6.4196  -6.4094  -6.3669  -6.2801
    -1.1767  -1.1518  -1.0969  -1.0491  -1.0385  -1.0105  -1.0040  -0.9952
    -0.9600  -0.8828  -0.8759  -0.8481  -0.8377  -0.8344  -0.8123  -0.8074
    -0.7684  -0.7599  -0.7574  -0.7508  -0.7457  -0.7379  -0.7336  -0.6973
    -0.6923  -0.6749  -0.6722  -0.6627  -0.6385  -0.6358  -0.6250  -0.6038
    -0.5598  -0.5521  -0.5102  -0.4846  -0.4717  -0.4556  -0.4327  -0.4045
    -0.3874  -0.3634  -0.3554  -0.3173  -0.2592  -0.2321  -0.2092  -0.1880
     2.9221   3.2168   3.2835   3.4937   3.6379   3.6640   3.7053   3.9067
     3.9904   4.0600   4.0610   4.1162   4.2611   4.3376   4.3996   4.4666
     4.4832   4.5096   4.5283   4.5424   4.5643   4.6142   4.6641   4.7483
     4.7569   4.7795   4.8397   4.8508   4.8603   4.8643   4.9127   4.9168
     4.9607   4.9780   4.9831   5.0080   5.0112   5.0184   5.0598   5.1009
     5.1340   5.1475   5.1563   5.1652   5.1717   5.1738   5.1862   5.2005
     5.2060   5.2161   5.2369   5.2372   5.2511   5.2669   5.2738   5.2915
     5.3157   5.3944   5.5227   5.5376   5.6571   5.7721   5.8068   5.8541
     5.8648   5.8993   5.9101   5.9129   5.9271   5.9724   5.9951   6.0228
     6.0531   6.0571   6.0786   6.1083   6.1269   6.1528   6.1562   6.1589
     6.1891   6.1978   6.2068   6.2238   6.2251   6.2722   6.2956   6.3027
     6.3081   6.3224   6.3291   6.3322   6.3523   6.3721   6.3877   6.3928
     6.4052   6.4556   6.4613   6.4739   6.5251   6.5349   6.5598   6.5782
     6.5812   6.5839   6.5878   6.6115   6.6182   6.6202   6.6407   6.6643
     6.6785   6.6833   6.7265   6.7391   6.7529   6.7700   6.7805   6.7953
     6.8357   6.8851   6.8927   6.9189   7.0754   7.1045   7.1553   7.1631
     7.1656   7.1697   7.2053   7.2083   7.2098   7.2163   7.2190   7.2214
     7.2441   7.2508   7.2647   7.2743   7.2866   7.2950   7.3092   7.3158
     7.3208   7.3255   7.3307   7.3540   7.4550   7.4811   7.4832   7.4860
     7.4987   7.5036   7.5387   7.5477   7.5746   7.6287   7.6628   7.7315
     7.7364   7.7400   7.7529   7.7951   7.8004   7.8159   7.8279   7.8374
     7.8851   7.8882   7.9588   7.9826   7.9878   8.0062   8.0081   8.0171
     8.0355   8.0441   8.0506   8.0565   8.0640   8.1074   8.1122   8.1449
     8.1493   8.1662   8.1953   8.2077   8.2107   8.2202   8.2362   8.2821
     8.2941   8.3085   8.3218   8.3290   8.3602   8.3707   8.3842   8.3918
     8.3984   8.4265   8.4558   8.4814   8.4877   8.4988   8.5277   8.5328
     8.5528   8.5620   8.6025   8.6211   8.6286   8.6345   8.6425   8.6449
     8.6499   8.6525   8.6849   8.6992   8.7016   8.7060   8.7607   8.7784
     8.7945   8.8080   8.8127   8.8192   8.8295   8.8371   8.8486   8.8555
     8.8674   8.8778   8.8811   8.8940   8.9013   8.9044   8.9076   8.9122
     8.9145   8.9514   8.9816   9.0027   9.0061   9.0390   9.0476   9.0785
     9.1380   9.1403   9.1652   9.1774   9.1799   9.2042   9.2428   9.2444
     9.2519   9.2624   9.3201   9.3364   9.3445   9.3596   9.3694   9.3861
     9.3872   9.4025   9.4045   9.4627   9.4827   9.4876   9.5463   9.7453
     9.7763   9.7821  10.0756  10.3024  10.5549  10.5695  10.6347  10.6389
    10.6654  10.6714  10.7856  10.8008  11.1263  11.2669  11.3002  11.3484
    12.9351  13.0249  13.2878  13.2905  13.4879  13.7124  13.7445  13.7544
    13.8110  13.8225  13.8964  13.9876  14.0681  14.1460  14.3827  14.5040
    14.5834  14.6975  14.7751  14.9377  14.9460  15.0466  15.0532  15.0709
    15.1765  15.2097  15.2282  15.2406  15.2474  15.2818  15.3239  15.5483
    15.5888  15.7737  15.8393  15.8680  15.9732  16.0331  16.0721  16.0986
    16.1382  16.2134  16.2411  16.2614  16.3008  16.3342  16.3614  16.3636
    16.4039  16.4262  16.4341  16.4448  16.4755  16.4841  16.5261  16.5268
    16.5503  16.5995  16.6256  16.6376  16.6593  16.6787  16.7292  16.7450
    16.7897  16.8225  16.8338  16.8446  16.8712

          k = 0.6667-0.0000 0.4253 ( 73087 PWs)   bands (ev):

   -31.1768 -31.1343 -31.1230 -31.0692 -31.0539 -31.0415 -30.9915 -27.7973
   -15.5258 -15.5013 -15.4943 -15.4780 -15.4703 -15.4550 -15.4260 -15.4068
   -15.3948 -15.3758 -15.3640 -15.3482 -15.3472 -15.3312 -15.2801 -15.2642
   -11.7785 -11.7336 -11.7308 -11.6699 -11.6621 -11.6614 -11.5984 -11.5591
   -11.4949 -11.4239 -11.4177 -11.4151 -11.3880 -11.3588 -11.3223 -11.3109
   -11.2680 -11.2298 -11.2031 -11.1612 -11.1176  -9.3391  -9.3056  -9.2849
    -8.4287  -8.2002  -8.1528  -7.9874  -7.9545  -7.8323  -7.8102  -7.7644
    -7.7300  -7.6904  -7.6601  -7.5886  -7.5631  -7.5590  -7.5140  -7.4662
    -7.4601  -7.4220  -7.4038  -7.3926  -7.3847  -7.3602  -7.3370  -7.3270
    -7.3256  -7.2755  -7.2721  -7.2319  -7.2211  -7.1995  -7.1727  -7.1347
    -7.1062  -7.0734  -7.0642  -7.0027  -6.9841  -6.9045  -6.8814  -6.8551
    -6.8529  -6.8325  -6.7357  -6.7209  -6.7126  -6.6936  -6.6676  -6.6299
    -6.5866  -6.4944  -6.4500  -6.4439  -6.4204  -6.4107  -6.3682  -6.2782
    -1.1765  -1.1563  -1.0971  -1.0489  -1.0384  -1.0084  -1.0020  -0.9923
    -0.9504  -0.8726  -0.8679  -0.8528  -0.8475  -0.8348  -0.8200  -0.7986
    -0.7770  -0.7651  -0.7574  -0.7460  -0.7440  -0.7393  -0.7331  -0.7048
    -0.6953  -0.6757  -0.6698  -0.6532  -0.6379  -0.6364  -0.6240  -0.6094
    -0.5624  -0.5544  -0.5107  -0.4895  -0.4762  -0.4551  -0.4299  -0.4066
    -0.3826  -0.3639  -0.3538  -0.3167  -0.2592  -0.2321  -0.2100  -0.1888
     2.9346   3.2231   3.2908   3.4734   3.6553   3.6650   3.6955   3.9105
     3.9278   4.0571   4.0951   4.1217   4.2829   4.3636   4.3836   4.4653
     4.4702   4.5178   4.5259   4.5518   4.5617   4.6174   4.6685   4.7402
     4.7588   4.7715   4.8484   4.8536   4.8610   4.8736   4.9047   4.9311
     4.9596   4.9737   4.9797   4.9981   5.0087   5.0123   5.0473   5.0872
     5.1401   5.1456   5.1581   5.1623   5.1745   5.1845   5.1901   5.2046
     5.2071   5.2174   5.2251   5.2358   5.2472   5.2576   5.2684   5.2853
     5.3167   5.3693   5.5022   5.5581   5.6470   5.7961   5.8525   5.8919
     5.8994   5.9054   5.9401   5.9566   5.9684   5.9766   5.9958   6.0086
     6.0603   6.0735   6.0833   6.1052   6.1188   6.1509   6.1593   6.1686
     6.1911   6.1972   6.2074   6.2151   6.2211   6.2267   6.2319   6.2807
     6.2899   6.2985   6.3069   6.3174   6.3444   6.3683   6.3724   6.3889
     6.4143   6.4558   6.4610   6.4840   6.4893   6.4933   6.5511   6.5582
     6.5675   6.5738   6.5822   6.5910   6.6026   6.6187   6.6243   6.6418
     6.6471   6.6671   6.6886   6.7046   6.7246   6.7321   6.7396   6.7712
     6.7791   6.8486   6.8829   6.9505   7.0605   7.0890   7.1324   7.1603
     7.1628   7.2094   7.2157   7.2388   7.2436   7.2457   7.2711   7.2834
     7.2908   7.2961   7.3030   7.3131   7.3271   7.3321   7.3342   7.3418
     7.3759   7.3806   7.4360   7.4436   7.4697   7.4801   7.4831   7.4905
     7.5013   7.5028   7.5187   7.5487   7.6296   7.6403   7.6653   7.6711
     7.6836   7.7384   7.7766   7.7942   7.8012   7.8164   7.8275   7.8336
     7.8724   7.8813   7.9741   8.0036   8.0048   8.0227   8.0338   8.0398
     8.0495   8.0677   8.0731   8.1049   8.1205   8.1278   8.1358   8.1423
     8.1692   8.1783   8.1903   8.2033   8.2148   8.2666   8.2790   8.3076
     8.3107   8.3123   8.3354   8.3401   8.3661   8.3746   8.3948   8.3966
     8.4178   8.4524   8.4647   8.4680   8.4954   8.5101   8.5174   8.5260
     8.5352   8.5488   8.5528   8.5834   8.5935   8.6024   8.6109   8.6270
     8.6508   8.6561   8.6791   8.6893   8.7200   8.7298   8.7470   8.7559
     8.7626   8.7709   8.7965   8.8045   8.8117   8.8230   8.8312   8.8356
     8.8444   8.8493   8.8682   8.8708   8.8899   8.8966   8.9139   8.9233
     8.9375   8.9497   8.9554   8.9732   8.9835   8.9906   8.9994   9.0336
     9.0630   9.1122   9.1153   9.1856   9.2026   9.2184   9.2229   9.2257
     9.2410   9.2475   9.2534   9.2707   9.3016   9.3108   9.3326   9.3373
     9.3463   9.4039   9.4788   9.4834   9.5000   9.5091   9.5139   9.7025
     9.7104   9.7583  10.0836  10.2905  10.5897  10.6085  10.6561  10.6613
    10.6929  10.6962  10.8407  10.8500  11.2495  11.2989  11.3465  11.3838
    12.9514  13.1633  13.3279  13.3320  13.4080  13.6921  13.7482  13.7568
    13.7767  13.8462  13.8829  13.9925  14.0932  14.1361  14.3861  14.4499
    14.4755  14.7868  14.8683  14.9378  14.9497  14.9933  15.0525  15.0723
    15.1213  15.1284  15.1647  15.3062  15.3362  15.4352  15.4505  15.5665
    15.6399  15.6516  15.6824  15.8021  15.8182  15.8530  15.9917  16.0233
    16.0343  16.0476  16.1054  16.1272  16.1749  16.2400  16.2578  16.2675
    16.2835  16.3247  16.3984  16.4262  16.4329  16.4663  16.5020  16.5224
    16.5342  16.5881  16.5918  16.6186  16.6315  16.6801  16.6878  16.7119
    16.7348  16.7439  16.7597  16.8058  16.8906

          k = 0.3333 0.3247 0.0000 ( 73105 PWs)   bands (ev):

   -31.1768 -31.1343 -31.1230 -31.0692 -31.0539 -31.0415 -30.9915 -27.7973
   -15.5422 -15.5178 -15.4918 -15.4704 -15.4431 -15.4229 -15.4207 -15.4027
   -15.3988 -15.3898 -15.3811 -15.3738 -15.3430 -15.3277 -15.2760 -15.2612
   -11.7840 -11.7260 -11.7079 -11.6905 -11.6665 -11.6566 -11.5963 -11.5756
   -11.5207 -11.4286 -11.4178 -11.3959 -11.3941 -11.3423 -11.3162 -11.2884
   -11.2431 -11.2263 -11.2032 -11.1655 -11.1589  -9.3391  -9.3062  -9.2862
    -8.5160  -8.2013  -7.9670  -7.9400  -7.8646  -7.8463  -7.8114  -7.8018
    -7.7591  -7.6929  -7.6902  -7.6827  -7.6323  -7.5639  -7.5451  -7.5010
    -7.4683  -7.4337  -7.4140  -7.4078  -7.3908  -7.3491  -7.3457  -7.3200
    -7.3091  -7.2545  -7.2508  -7.2051  -7.2033  -7.1616  -7.1489  -7.1294
    -7.1202  -7.0979  -7.0643  -7.0125  -6.9799  -6.9558  -6.8728  -6.8503
    -6.7895  -6.7792  -6.7641  -6.7480  -6.7186  -6.7042  -6.6505  -6.6477
    -6.5668  -6.5329  -6.4622  -6.4346  -6.4056  -6.3804  -6.3585  -6.2600
    -1.3422  -1.2781  -1.1812  -1.1766  -1.1188  -1.0678  -0.9808  -0.9659
    -0.9059  -0.8610  -0.8563  -0.8484  -0.8353  -0.8287  -0.8163  -0.8101
    -0.7882  -0.7763  -0.7674  -0.7381  -0.7289  -0.7262  -0.7183  -0.7143
    -0.7048  -0.6902  -0.6787  -0.6708  -0.6394  -0.6056  -0.5960  -0.5847
    -0.5721  -0.5402  -0.4984  -0.4823  -0.3908  -0.3614  -0.3540  -0.3430
    -0.3201  -0.3133  -0.3095  -0.2727  -0.2590  -0.2248  -0.2151  -0.1869
     2.7516   3.2206   3.3365   3.6314   3.7230   3.7412   3.8421   3.8519
     3.9065   4.0098   4.1027   4.1501   4.2254   4.2425   4.3419   4.4157
     4.4361   4.4629   4.4852   4.5115   4.5253   4.5552   4.5986   4.7196
     4.7278   4.7378   4.7604   4.8183   4.8196   4.8389   4.8450   4.8860
     4.9450   5.0158   5.0389   5.0604   5.0936   5.1274   5.1527   5.1654
     5.1759   5.1813   5.1898   5.1955   5.1986   5.2098   5.2154   5.2210
     5.2369   5.2424   5.2869   5.3520   5.3970   5.4488   5.4678   5.5007
     5.5197   5.5573   5.5618   5.5764   5.5963   5.6716   5.6764   5.7116
     5.7374   5.7846   5.8012   5.8640   5.8777   5.9146   5.9231   5.9274
     5.9500   5.9896   5.9929   6.0313   6.0447   6.0522   6.0610   6.1033
     6.1238   6.1668   6.1775   6.1843   6.1865   6.2154   6.2931   6.3124
     6.3341   6.3397   6.3530   6.3602   6.3715   6.3771   6.3809   6.4045
     6.4139   6.4554   6.4672   6.4729   6.4797   6.5033   6.5074   6.5186
     6.5232   6.5401   6.5457   6.5794   6.6696   6.6755   6.6806   6.6985
     6.7220   6.7473   6.7587   6.7944   6.8072   6.8134   6.8691   6.8875
     6.9073   6.9205   6.9325   6.9657   7.0106   7.0250   7.0453   7.0693
     7.0777   7.1203   7.1522   7.1768   7.1943   7.2098   7.2187   7.2407
     7.2468   7.2727   7.2823   7.2881   7.3007   7.3139   7.3185   7.3360
     7.3513   7.3760   7.3816   7.3869   7.3980   7.4415   7.4468   7.4721
     7.4888   7.5002   7.5091   7.5184   7.5394   7.5554   7.5894   7.6340
     7.6558   7.6606   7.7490   7.8124   7.8331   7.8487   7.8876   7.8924
     7.9040   7.9165   7.9379   7.9774   7.9808   8.0062   8.0187   8.0218
     8.0361   8.0440   8.0582   8.0719   8.0916   8.1119   8.1235   8.1442
     8.1671   8.1715   8.1899   8.1979   8.2144   8.2187   8.2306   8.2340
     8.2555   8.2694   8.2987   8.3253   8.3314   8.3411   8.3470   8.3675
     8.3795   8.4216   8.4663   8.4700   8.4807   8.4872   8.4925   8.5466
     8.5497   8.5724   8.5765   8.6081   8.6136   8.6278   8.6345   8.6418
     8.6566   8.6705   8.6730   8.6786   8.6918   8.7191   8.7245   8.7322
     8.7438   8.7591   8.7786   8.7966   8.8165   8.8287   8.8319   8.8484
     8.8488   8.8627   8.8659   8.8890   8.8932   8.9183   8.9394   8.9831
     8.9902   9.0293   9.0587   9.0681   9.0806   9.0976   9.1137   9.1290
     9.1441   9.1583   9.1733   9.2314   9.2755   9.2787   9.2863   9.2962
     9.3119   9.3385   9.3805   9.3878   9.4265   9.4281   9.4411   9.4762
     9.4840   9.4889   9.5115   9.5740   9.5815   9.5940   9.7125   9.8006
     9.8244   9.8646   9.9040  10.0109  10.1370  10.1988  10.2227  10.2539
    10.8942  10.9699  11.0132  11.0443  11.0551  11.2707  11.4653  11.5542
    12.6565  12.7782  13.2000  13.3585  13.4461  13.6508  13.6972  13.7320
    13.9123  13.9592  14.0036  14.3058  14.3496  14.3608  14.4476  14.4946
    14.6339  14.6707  14.7235  14.7514  14.8338  14.8801  14.9699  15.0389
    15.0441  15.1087  15.1718  15.3178  15.3624  15.4711  15.5714  15.6123
    15.7542  15.9474  15.9490  15.9805  15.9923  16.0198  16.0314  16.0511
    16.1179  16.1256  16.1372  16.1482  16.1585  16.1741  16.2563  16.2595
    16.3164  16.3253  16.3412  16.3734  16.3846  16.4050  16.4214  16.4331
    16.4430  16.5009  16.5136  16.5345  16.5777  16.6554  16.6614  16.7002
    16.7159  16.7551  16.7604  16.7920  16.8234

          k = 0.3333-0.3247 0.4253 ( 73049 PWs)   bands (ev):

   -31.1768 -31.1343 -31.1230 -31.0692 -31.0539 -31.0415 -30.9915 -27.7973
   -15.5436 -15.5176 -15.4878 -15.4642 -15.4540 -15.4338 -15.4143 -15.4068
   -15.3940 -15.3889 -15.3785 -15.3607 -15.3494 -15.3332 -15.2757 -15.2604
   -11.7833 -11.7275 -11.7067 -11.6865 -11.6673 -11.6571 -11.5954 -11.5898
   -11.5092 -11.4283 -11.4252 -11.3945 -11.3887 -11.3420 -11.3163 -11.2883
   -11.2449 -11.2252 -11.2039 -11.1666 -11.1581  -9.3392  -9.3044  -9.2873
    -8.5124  -8.2202  -7.9630  -7.9059  -7.8542  -7.8497  -7.8423  -7.8070
    -7.7404  -7.7201  -7.7016  -7.6731  -7.5960  -7.5748  -7.5309  -7.5064
    -7.4839  -7.4317  -7.4135  -7.3966  -7.3835  -7.3457  -7.3345  -7.3166
    -7.3123  -7.2716  -7.2617  -7.2079  -7.1959  -7.1662  -7.1565  -7.1285
    -7.1127  -7.1033  -7.0650  -7.0117  -6.9903  -6.9684  -6.8844  -6.8359
    -6.8237  -6.7783  -6.7510  -6.7362  -6.7112  -6.6893  -6.6522  -6.6429
    -6.5675  -6.5346  -6.4611  -6.4350  -6.4019  -6.3883  -6.3557  -6.2586
    -1.3410  -1.2764  -1.1837  -1.1788  -1.1174  -1.0690  -0.9748  -0.9554
    -0.8961  -0.8668  -0.8525  -0.8496  -0.8358  -0.8323  -0.8231  -0.8079
    -0.7885  -0.7792  -0.7672  -0.7451  -0.7334  -0.7226  -0.7217  -0.7132
    -0.7102  -0.7012  -0.6748  -0.6661  -0.6295  -0.6102  -0.5959  -0.5864
    -0.5696  -0.5372  -0.4952  -0.4820  -0.3935  -0.3624  -0.3553  -0.3421
    -0.3222  -0.3169  -0.3075  -0.2755  -0.2566  -0.2252  -0.2137  -0.1891
     2.7669   3.2118   3.3249   3.6639   3.7014   3.7233   3.8652   3.8875
     3.9164   3.9977   4.0484   4.1687   4.1894   4.2444   4.3652   4.4402
     4.4506   4.4664   4.5054   4.5160   4.5266   4.5429   4.5946   4.6911
     4.7174   4.7309   4.7909   4.8069   4.8125   4.8465   4.8509   4.8878
     4.9383   5.0254   5.0347   5.0405   5.1023   5.1142   5.1346   5.1424
     5.1694   5.1732   5.1784   5.1884   5.1987   5.2019   5.2139   5.2208
     5.2298   5.2735   5.2972   5.3175   5.3812   5.4764   5.4954   5.5152
     5.5325   5.5465   5.5572   5.5719   5.6060   5.6452   5.6965   5.7260
     5.7406   5.8012   5.8150   5.8655   5.9014   5.9111   5.9428   5.9738
     5.9896   6.0085   6.0142   6.0414   6.0642   6.0818   6.0870   6.0958
     6.1251   6.1602   6.1800   6.1897   6.2211   6.2572   6.2740   6.2805
     6.3003   6.3121   6.3262   6.3409   6.3547   6.3612   6.3664   6.3822
     6.3936   6.4057   6.4099   6.4187   6.4466   6.4537   6.4655   6.4843
     6.4980   6.5418   6.5690   6.5780   6.5908   6.6376   6.6765   6.6883
     6.6966   6.7293   6.7606   6.7785   6.7835   6.8026   6.8617   6.8709
     6.8891   6.9121   6.9184   6.9354   6.9501   7.0029   7.0206   7.0572
     7.0814   7.1332   7.2205   7.2429   7.2593   7.2681   7.2895   7.2939
     7.3009   7.3142   7.3190   7.3276   7.3372   7.3526   7.3591   7.3665
     7.3781   7.3946   7.4054   7.4251   7.4281   7.4346   7.4424   7.4601
     7.4684   7.4801   7.4979   7.5431   7.5594   7.5734   7.5995   7.6241
     7.6477   7.7024   7.7695   7.8184   7.8343   7.8565   7.9221   7.9355
     7.9533   7.9606   7.9706   7.9854   8.0065   8.0296   8.0377   8.0544
     8.0670   8.0840   8.0968   8.0998   8.1182   8.1337   8.1438   8.1499
     8.1684   8.1855   8.1912   8.1941   8.1989   8.2082   8.2182   8.2240
     8.2313   8.2354   8.2820   8.3223   8.3329   8.3487   8.3538   8.3831
     8.3994   8.4066   8.4170   8.4273   8.4331   8.4916   8.5016   8.5402
     8.5517   8.5818   8.6013   8.6114   8.6216   8.6366   8.6444   8.6485
     8.6533   8.6572   8.6625   8.6709   8.6890   8.7000   8.7058   8.7218
     8.7289   8.7301   8.7776   8.7919   8.7968   8.8003   8.8096   8.8147
     8.8388   8.8568   8.8763   8.8831   8.8894   8.8960   8.9411   8.9587
     8.9706   8.9856   9.0002   9.0203   9.0393   9.0793   9.0894   9.1007
     9.1460   9.1564   9.1823   9.2237   9.2379   9.2402   9.2545   9.2588
     9.2912   9.2939   9.3156   9.3536   9.3762   9.3821   9.4106   9.4292
     9.4513   9.4963   9.5046   9.5747   9.5777   9.6275   9.6402   9.7558
     9.8331   9.9376   9.9397  10.0237  10.1064  10.1916  10.2373  10.3429
    10.9209  11.0207  11.0857  11.0870  11.2013  11.3322  11.4667  11.5548
    12.6768  12.9450  13.2403  13.2595  13.4967  13.5957  13.6754  13.7231
    13.9484  13.9733  14.0073  14.2287  14.3095  14.3466  14.4742  14.6175
    14.6201  14.6723  14.6894  14.7357  14.8258  14.8623  14.8923  14.9352
    15.0208  15.1184  15.2361  15.3760  15.3940  15.4100  15.6029  15.7013
    15.7261  15.7768  15.8653  15.8865  15.8938  15.9286  15.9480  16.0046
    16.0222  16.0397  16.0768  16.1101  16.1639  16.1986  16.2157  16.2535
    16.2834  16.3074  16.3523  16.3635  16.3854  16.3948  16.4081  16.4374
    16.4583  16.4862  16.5421  16.5578  16.5987  16.6118  16.6190  16.6386
    16.7015  16.7167  16.7715  16.7850  16.8282

          k = 0.3333 0.3247-0.4253 ( 73049 PWs)   bands (ev):

   -31.1768 -31.1343 -31.1230 -31.0692 -31.0539 -31.0415 -30.9915 -27.7973
   -15.5431 -15.5169 -15.4925 -15.4697 -15.4437 -15.4223 -15.4212 -15.4021
   -15.3993 -15.3904 -15.3805 -15.3732 -15.3435 -15.3272 -15.2763 -15.2610
   -11.7840 -11.7260 -11.7079 -11.6907 -11.6665 -11.6566 -11.5963 -11.5757
   -11.5207 -11.4286 -11.4179 -11.3960 -11.3941 -11.3423 -11.3162 -11.2883
   -11.2431 -11.2263 -11.2032 -11.1655 -11.1589  -9.3392  -9.3061  -9.2862
    -8.5143  -8.2001  -7.9685  -7.9394  -7.8644  -7.8550  -7.8130  -7.8007
    -7.7601  -7.6964  -7.6894  -7.6851  -7.6350  -7.5504  -7.5292  -7.5026
    -7.4655  -7.4314  -7.4137  -7.3968  -7.3866  -7.3488  -7.3425  -7.3167
    -7.3090  -7.2634  -7.2555  -7.2067  -7.2052  -7.1626  -7.1560  -7.1389
    -7.1160  -7.1035  -7.0645  -7.0149  -6.9912  -6.9651  -6.8845  -6.8354
    -6.8200  -6.7804  -6.7503  -6.7331  -6.7170  -6.6867  -6.6513  -6.6450
    -6.5670  -6.5327  -6.4623  -6.4341  -6.4073  -6.3830  -6.3572  -6.2583
    -1.3423  -1.2771  -1.1831  -1.1782  -1.1170  -1.0680  -0.9741  -0.9581
    -0.8916  -0.8675  -0.8540  -0.8486  -0.8374  -0.8309  -0.8256  -0.8065
    -0.7872  -0.7769  -0.7694  -0.7461  -0.7305  -0.7259  -0.7205  -0.7138
    -0.7090  -0.6976  -0.6750  -0.6658  -0.6291  -0.6114  -0.5969  -0.5878
    -0.5715  -0.5402  -0.4963  -0.4838  -0.3919  -0.3624  -0.3547  -0.3417
    -0.3202  -0.3146  -0.3087  -0.2727  -0.2595  -0.2256  -0.2152  -0.1878
     2.7617   3.2308   3.3210   3.6355   3.7261   3.7294   3.8388   3.8755
     3.9360   4.0002   4.0482   4.1612   4.2094   4.2452   4.3612   4.4342
     4.4466   4.4680   4.4846   4.5038   4.5274   4.5547   4.5988   4.7166
     4.7270   4.7360   4.7714   4.8172   4.8293   4.8425   4.8505   4.8839
     4.9343   5.0237   5.0253   5.0438   5.1138   5.1281   5.1364   5.1466
     5.1659   5.1711   5.1769   5.1865   5.1940   5.2017   5.2114   5.2323
     5.2353   5.2533   5.2791   5.2972   5.3934   5.4550   5.4747   5.5100
     5.5241   5.5501   5.5580   5.5722   5.6344   5.6750   5.6998   5.7138
     5.7438   5.8049   5.8135   5.8768   5.8923   5.9054   5.9479   5.9737
     5.9794   6.0020   6.0175   6.0536   6.0622   6.0793   6.0910   6.1014
     6.1292   6.1495   6.1818   6.1916   6.2248   6.2533   6.2765   6.2836
     6.3040   6.3104   6.3181   6.3444   6.3483   6.3604   6.3646   6.3859
     6.3911   6.4008   6.4068   6.4221   6.4469   6.4584   6.4732   6.4856
     6.4995   6.5422   6.5738   6.5785   6.5900   6.6367   6.6756   6.6889
     6.6989   6.7284   6.7598   6.7773   6.7828   6.8033   6.8555   6.8689
     6.8880   6.9150   6.9190   6.9292   6.9634   6.9936   7.0143   7.0569
     7.0797   7.1326   7.2210   7.2431   7.2588   7.2690   7.2870   7.2953
     7.3008   7.3152   7.3178   7.3281   7.3364   7.3526   7.3604   7.3751
     7.3780   7.3938   7.4036   7.4234   7.4282   7.4372   7.4414   7.4605
     7.4703   7.4805   7.4981   7.5443   7.5624   7.5732   7.5969   7.6241
     7.6624   7.7052   7.7640   7.8186   7.8310   7.8561   7.9204   7.9330
     7.9511   7.9597   7.9722   7.9869   8.0082   8.0279   8.0353   8.0506
     8.0618   8.0848   8.0969   8.0996   8.1180   8.1301   8.1416   8.1468
     8.1657   8.1865   8.1914   8.1974   8.2001   8.2132   8.2204   8.2259
     8.2347   8.2376   8.2779   8.3221   8.3302   8.3497   8.3546   8.3793
     8.4040   8.4077   8.4183   8.4233   8.4353   8.4848   8.5059   8.5354
     8.5525   8.5822   8.6012   8.6119   8.6228   8.6347   8.6434   8.6505
     8.6522   8.6594   8.6626   8.6659   8.6885   8.6994   8.7091   8.7214
     8.7300   8.7350   8.7768   8.7908   8.7943   8.8017   8.8095   8.8161
     8.8389   8.8490   8.8781   8.8828   8.8878   8.9011   8.9421   8.9629
     8.9691   8.9830   8.9994   9.0197   9.0390   9.0825   9.0899   9.1004
     9.1450   9.1558   9.1821   9.2249   9.2378   9.2405   9.2524   9.2594
     9.2914   9.2958   9.3142   9.3569   9.3727   9.3842   9.4101   9.4284
     9.4511   9.4979   9.5034   9.5747   9.5780   9.6273   9.6419   9.7563
     9.8334   9.9387   9.9397  10.0225  10.1060  10.1915  10.2368  10.3423
    10.9214  11.0212  11.0857  11.0875  11.2014  11.3322  11.4662  11.5545
    12.6767  12.9442  13.2397  13.2590  13.4975  13.5940  13.6877  13.7223
    13.9543  13.9693  14.0106  14.2288  14.2877  14.3387  14.4759  14.6104
    14.6200  14.6726  14.6886  14.7398  14.8323  14.8607  14.8904  14.9324
    15.0260  15.1227  15.2346  15.3788  15.3942  15.4051  15.6199  15.7120
    15.7264  15.7863  15.8612  15.8806  15.9042  15.9304  15.9556  16.0062
    16.0183  16.0285  16.0779  16.1120  16.1566  16.1965  16.2154  16.2504
    16.2794  16.3050  16.3530  16.3655  16.3853  16.3915  16.4037  16.4431
    16.4579  16.4849  16.5460  16.5598  16.5946  16.6116  16.6150  16.6387
    16.7016  16.7146  16.7704  16.7858  16.8282

          k =-0.3333-0.3247-0.4253 ( 73049 PWs)   bands (ev):

   -31.1768 -31.1343 -31.1230 -31.0692 -31.0539 -31.0415 -30.9915 -27.7973
   -15.5431 -15.5169 -15.4925 -15.4697 -15.4437 -15.4223 -15.4212 -15.4021
   -15.3994 -15.3904 -15.3805 -15.3732 -15.3435 -15.3272 -15.2763 -15.2610
   -11.7840 -11.7260 -11.7079 -11.6907 -11.6665 -11.6566 -11.5963 -11.5757
   -11.5207 -11.4286 -11.4179 -11.3960 -11.3941 -11.3423 -11.3162 -11.2883
   -11.2431 -11.2263 -11.2032 -11.1655 -11.1589  -9.3392  -9.3061  -9.2862
    -8.5143  -8.2001  -7.9685  -7.9394  -7.8644  -7.8550  -7.8131  -7.8006
    -7.7601  -7.6964  -7.6895  -7.6851  -7.6350  -7.5506  -7.5289  -7.5026
    -7.4655  -7.4320  -7.4129  -7.3964  -7.3873  -7.3497  -7.3415  -7.3167
    -7.3092  -7.2630  -7.2557  -7.2066  -7.2053  -7.1627  -7.1560  -7.1400
    -7.1153  -7.1026  -7.0650  -7.0137  -6.9926  -6.9651  -6.8840  -6.8348
    -6.8218  -6.7795  -6.7500  -6.7337  -6.7166  -6.6864  -6.6515  -6.6452
    -6.5670  -6.5326  -6.4624  -6.4340  -6.4072  -6.3830  -6.3572  -6.2583
    -1.3423  -1.2771  -1.1831  -1.1782  -1.1170  -1.0680  -0.9741  -0.9581
    -0.8916  -0.8675  -0.8542  -0.8481  -0.8368  -0.8320  -0.8251  -0.8063
    -0.7871  -0.7777  -0.7695  -0.7449  -0.7309  -0.7254  -0.7213  -0.7150
    -0.7079  -0.6973  -0.6750  -0.6659  -0.6293  -0.6110  -0.5971  -0.5878
    -0.5715  -0.5403  -0.4963  -0.4838  -0.3919  -0.3624  -0.3547  -0.3416
    -0.3203  -0.3146  -0.3087  -0.2726  -0.2595  -0.2256  -0.2152  -0.1878
     2.7617   3.2308   3.3210   3.6355   3.7261   3.7293   3.8388   3.8755
     3.9361   4.0001   4.0482   4.1612   4.2094   4.2452   4.3612   4.4342
     4.4466   4.4679   4.4846   4.5039   4.5275   4.5547   4.5988   4.7156
[...]
    10.9214  11.0212  11.0857  11.0875  11.2014  11.3322  11.4662  11.5545
    12.6767  12.9443  13.2395  13.2592  13.4974  13.5941  13.6876  13.7223
    13.9541  13.9696  14.0104  14.2287  14.2881  14.3385  14.4763  14.6095
    14.6195  14.6725  14.6893  14.7407  14.8316  14.8605  14.8906  14.9327
    15.0261  15.1227  15.2344  15.3778  15.3944  15.4061  15.6197  15.7120
    15.7265  15.7863  15.8599  15.8838  15.9028  15.9296  15.9555  16.0069
    16.0161  16.0306  16.0780  16.1114  16.1581  16.1949  16.2152  16.2509
    16.2802  16.3049  16.3512  16.3653  16.3854  16.3910  16.4053  16.4417
    16.4575  16.4855  16.5429  16.5606  16.5968  16.6116  16.6160  16.6391
    16.7012  16.7145  16.7724  16.7856  16.8304

          k = 0.0000-0.6494 0.4253 ( 73066 PWs)   bands (ev):

   -31.1768 -31.1343 -31.1230 -31.0692 -31.0539 -31.0415 -30.9915 -27.7973
   -15.5315 -15.5058 -15.4838 -15.4759 -15.4619 -15.4540 -15.4363 -15.4145
   -15.3865 -15.3699 -15.3696 -15.3520 -15.3479 -15.3320 -15.2785 -15.2631
   -11.8174 -11.7324 -11.6962 -11.6738 -11.6678 -11.5958 -11.5811 -11.5670
   -11.5317 -11.4639 -11.4222 -11.4136 -11.3965 -11.3582 -11.3270 -11.2951
   -11.2628 -11.2220 -11.2125 -11.1648 -11.1030  -9.3389  -9.3004  -9.2887
    -8.4263  -8.2185  -8.1510  -7.9647  -7.9138  -7.8747  -7.8524  -7.7752
    -7.7189  -7.6790  -7.6731  -7.5981  -7.5616  -7.5050  -7.5009  -7.4762
    -7.4471  -7.4305  -7.4207  -7.4042  -7.3656  -7.3573  -7.3384  -7.3316
    -7.3010  -7.2830  -7.2806  -7.2516  -7.1917  -7.1787  -7.1423  -7.1326
    -7.1068  -7.0808  -7.0664  -7.0463  -7.0174  -6.9830  -6.8706  -6.8339
    -6.8096  -6.8052  -6.7978  -6.7171  -6.6821  -6.6586  -6.6464  -6.6246
    -6.5771  -6.5456  -6.5357  -6.4214  -6.4036  -6.3493  -6.3443  -6.3237
    -1.2046  -1.1574  -1.0905  -1.0219  -1.0089  -1.0061  -0.9633  -0.9588
    -0.9520  -0.9310  -0.9194  -0.8789  -0.8652  -0.8358  -0.8202  -0.8031
    -0.8010  -0.7721  -0.7627  -0.7570  -0.7471  -0.7207  -0.7156  -0.6772
    -0.6610  -0.6553  -0.6359  -0.6232  -0.6139  -0.6072  -0.5947  -0.5904
    -0.5874  -0.5648  -0.5560  -0.5422  -0.5314  -0.5024  -0.4813  -0.4214
    -0.3560  -0.3163  -0.3049  -0.2958  -0.2674  -0.2608  -0.2168  -0.1673
     2.8792   3.3271   3.3670   3.3983   3.5087   3.6981   3.8107   3.8742
     4.1063   4.1432   4.1942   4.2008   4.2034   4.2311   4.2655   4.3462
     4.4395   4.4851   4.5394   4.5463   4.5652   4.5723   4.6031   4.6192
     4.6544   4.6715   4.6855   4.8581   4.8658   4.8756   4.8879   4.9457
     4.9584   5.0337   5.0481   5.0573   5.0895   5.0941   5.1019   5.1329
     5.1383   5.1500   5.1600   5.1690   5.1787   5.1858   5.1904   5.1997
     5.2037   5.2093   5.2198   5.2452   5.2578   5.2743   5.2993   5.3426
     5.4695   5.5321   5.5804   5.6650   5.6894   5.7298   5.8323   5.8421
     5.8859   5.8940   5.9213   5.9308   5.9582   5.9890   6.0049   6.0088
     6.0326   6.0506   6.0600   6.0700   6.1212   6.1251   6.1320   6.1573
     6.1604   6.1721   6.1916   6.2022   6.2257   6.2333   6.2364   6.2552
     6.3137   6.3234   6.3397   6.3472   6.3568   6.3625   6.3803   6.4025
     6.4216   6.4465   6.4654   6.4723   6.4810   6.5014   6.5071   6.5190
     6.5267   6.5309   6.5370   6.5468   6.5706   6.6052   6.6065   6.6147
     6.6665   6.6961   6.7011   6.7187   6.7298   6.7399   6.7655   6.7671
     6.8513   6.8990   6.9060   6.9144   7.0114   7.0398   7.0699   7.1255
     7.1533   7.1583   7.1736   7.2205   7.2393   7.2492   7.2689   7.2904
     7.2991   7.3092   7.3216   7.3385   7.3436   7.3671   7.3727   7.3797
     7.3856   7.3965   7.3993   7.4090   7.4533   7.4561   7.4684   7.4718
     7.4734   7.5042   7.5206   7.5857   7.6086   7.6730   7.7238   7.7334
     7.7411   7.7475   7.7633   7.7732   7.8022   7.8058   7.8444   7.8696
     7.8740   7.8880   7.9578   7.9744   7.9807   7.9880   8.0125   8.0237
     8.0342   8.0916   8.1247   8.1330   8.1574   8.1613   8.1699   8.1799
     8.1989   8.2090   8.2251   8.2266   8.2579   8.2753   8.3018   8.3040
     8.3121   8.3163   8.3183   8.3343   8.3413   8.3490   8.3594   8.3703
     8.3758   8.3869   8.3964   8.4152   8.4791   8.4951   8.5011   8.5058
     8.5115   8.5212   8.5346   8.5708   8.5884   8.5999   8.6191   8.6377
     8.6441   8.6533   8.6626   8.6874   8.7037   8.7196   8.7250   8.7588
     8.7791   8.7874   8.7903   8.7936   8.8080   8.8126   8.8280   8.8477
     8.8654   8.8805   8.8850   8.8931   8.8983   8.9059   8.9186   8.9541
     8.9672   8.9779   8.9862   8.9879   9.0082   9.0175   9.0487   9.0529
     9.0631   9.0910   9.1226   9.1879   9.1954   9.2074   9.2158   9.2342
     9.2356   9.2457   9.2584   9.2653   9.2768   9.3193   9.3308   9.4051
     9.4199   9.4280   9.4641   9.4652   9.4861   9.5681   9.5799   9.6024
     9.8426   9.8470   9.9554  10.1043  10.1481  10.3754  10.6851  10.7026
    10.8266  10.8368  11.0211  11.0978  11.2012  11.2781  11.2792  11.3259
    12.8457  13.1875  13.4063  13.5403  13.5491  13.5740  13.5835  13.6962
    13.7007  13.8394  13.9089  14.0262  14.1118  14.1913  14.3142  14.4436
    14.4838  14.7900  14.8807  14.9143  14.9292  14.9638  15.0392  15.0718
    15.0874  15.1086  15.1488  15.3581  15.3769  15.4122  15.5840  15.5930
    15.6089  15.7260  15.7614  15.7910  15.7944  15.8059  15.8462  15.9165
    15.9282  16.0014  16.1191  16.1749  16.2191  16.2383  16.2655  16.3290
    16.3444  16.3591  16.3667  16.4014  16.4514  16.4696  16.4904  16.5069
    16.5242  16.5965  16.6213  16.6269  16.6520  16.7225  16.7576  16.7637
    16.7994  16.8638  16.9022  16.9076  16.9210

          k =-0.6667 0.0000 0.4253 ( 73087 PWs)   bands (ev):

   -31.1768 -31.1343 -31.1230 -31.0692 -31.0539 -31.0415 -30.9915 -27.7973
   -15.5258 -15.5013 -15.4943 -15.4780 -15.4703 -15.4550 -15.4260 -15.4068
   -15.3948 -15.3758 -15.3640 -15.3482 -15.3472 -15.3312 -15.2801 -15.2642
   -11.7785 -11.7336 -11.7308 -11.6699 -11.6621 -11.6614 -11.5984 -11.5591
   -11.4949 -11.4239 -11.4177 -11.4151 -11.3880 -11.3588 -11.3223 -11.3109
   -11.2680 -11.2298 -11.2031 -11.1612 -11.1176  -9.3391  -9.3056  -9.2849
    -8.4287  -8.2002  -8.1528  -7.9874  -7.9545  -7.8323  -7.8102  -7.7644
    -7.7300  -7.6904  -7.6601  -7.5887  -7.5628  -7.5592  -7.5138  -7.4657
    -7.4608  -7.4220  -7.4037  -7.3937  -7.3837  -7.3600  -7.3375  -7.3270
    -7.3253  -7.2772  -7.2701  -7.2318  -7.2218  -7.1994  -7.1727  -7.1347
    -7.1060  -7.0733  -7.0646  -7.0016  -6.9848  -6.9046  -6.8822  -6.8561
    -6.8522  -6.8313  -6.7356  -6.7212  -6.7129  -6.6935  -6.6673  -6.6299
    -6.5867  -6.4944  -6.4500  -6.4439  -6.4204  -6.4107  -6.3682  -6.2782
    -1.1765  -1.1563  -1.0971  -1.0489  -1.0383  -1.0085  -1.0021  -0.9923
    -0.9503  -0.8726  -0.8678  -0.8530  -0.8475  -0.8346  -0.8202  -0.7982
    -0.7773  -0.7652  -0.7583  -0.7464  -0.7426  -0.7389  -0.7332  -0.7048
    -0.6953  -0.6756  -0.6706  -0.6528  -0.6379  -0.6364  -0.6240  -0.6094
    -0.5624  -0.5544  -0.5107  -0.4894  -0.4763  -0.4551  -0.4299  -0.4066
    -0.3826  -0.3639  -0.3538  -0.3167  -0.2592  -0.2321  -0.2100  -0.1888
     2.9346   3.2231   3.2908   3.4734   3.6553   3.6650   3.6955   3.9105
     3.9278   4.0571   4.0951   4.1217   4.2829   4.3636   4.3836   4.4648
     4.4707   4.5174   4.5262   4.5518   4.5617   4.6174   4.6684   4.7402
     4.7589   4.7714   4.8484   4.8536   4.8610   4.8735   4.9049   4.9312
     4.9584   4.9743   4.9808   4.9968   5.0087   5.0133   5.0471   5.0873
     5.1401   5.1453   5.1585   5.1620   5.1742   5.1846   5.1902   5.2045
     5.2066   5.2177   5.2255   5.2366   5.2457   5.2590   5.2681   5.2843
     5.3173   5.3691   5.5023   5.5582   5.6469   5.7961   5.8521   5.8925
     5.8989   5.9056   5.9400   5.9567   5.9678   5.9762   5.9969   6.0084
     6.0583   6.0777   6.0826   6.1036   6.1190   6.1507   6.1614   6.1670
     6.1900   6.1986   6.2061   6.2145   6.2227   6.2270   6.2314   6.2785
     6.2920   6.2983   6.3071   6.3176   6.3443   6.3685   6.3726   6.3883
     6.4142   6.4552   6.4614   6.4839   6.4895   6.4934   6.5520   6.5572
     6.5678   6.5734   6.5824   6.5902   6.6016   6.6199   6.6245   6.6421
     6.6471   6.6669   6.6890   6.7048   6.7245   6.7326   6.7389   6.7711
     6.7790   6.8485   6.8828   6.9506   7.0608   7.0890   7.1324   7.1595
     7.1634   7.2094   7.2156   7.2387   7.2434   7.2457   7.2716   7.2835
     7.2916   7.2970   7.3025   7.3117   7.3261   7.3324   7.3346   7.3421
     7.3758   7.3809   7.4358   7.4436   7.4694   7.4808   7.4829   7.4904
     7.5013   7.5030   7.5186   7.5487   7.6296   7.6405   7.6647   7.6716
     7.6834   7.7384   7.7767   7.7941   7.8012   7.8165   7.8277   7.8335
     7.8719   7.8815   7.9741   8.0033   8.0049   8.0229   8.0339   8.0386
     8.0504   8.0677   8.0733   8.1049   8.1205   8.1278   8.1352   8.1427
     8.1690   8.1790   8.1901   8.2042   8.2137   8.2666   8.2791   8.3080
     8.3105   8.3119   8.3354   8.3403   8.3661   8.3744   8.3948   8.3967
     8.4178   8.4523   8.4647   8.4683   8.4953   8.5099   8.5183   8.5242
     8.5356   8.5488   8.5558   8.5797   8.5931   8.6041   8.6116   8.6266
     8.6507   8.6560   8.6790   8.6895   8.7200   8.7294   8.7474   8.7560
     8.7627   8.7715   8.7966   8.8042   8.8108   8.8231   8.8309   8.8357
     8.8446   8.8491   8.8681   8.8714   8.8902   8.8965   8.9137   8.9235
     8.9375   8.9494   8.9556   8.9731   8.9831   8.9901   9.0001   9.0337
     9.0630   9.1122   9.1153   9.1855   9.2027   9.2185   9.2233   9.2251
     9.2410   9.2476   9.2533   9.2708   9.3016   9.3108   9.3326   9.3373
     9.3463   9.4039   9.4787   9.4834   9.5004   9.5092   9.5136   9.7025
     9.7104   9.7582  10.0836  10.2905  10.5897  10.6085  10.6560  10.6613
    10.6929  10.6962  10.8407  10.8500  11.2495  11.2989  11.3465  11.3838
    12.9515  13.1634  13.3280  13.3320  13.4079  13.6920  13.7485  13.7570
    13.7766  13.8456  13.8833  13.9924  14.0931  14.1362  14.3861  14.4499
    14.4754  14.7867  14.8682  14.9379  14.9497  14.9933  15.0525  15.0725
    15.1214  15.1282  15.1648  15.3062  15.3359  15.4351  15.4507  15.5665
    15.6399  15.6518  15.6825  15.8019  15.8178  15.8530  15.9915  16.0233
    16.0344  16.0479  16.1049  16.1272  16.1758  16.2419  16.2558  16.2668
    16.2842  16.3243  16.4010  16.4231  16.4318  16.4657  16.5043  16.5229
    16.5299  16.5887  16.5971  16.6182  16.6300  16.6803  16.6909  16.7120
    16.7311  16.7439  16.7600  16.8056  16.8906

     the Fermi energy is     9.7275 ev

!    total energy              =   -6848.94217846 Ry
     Harris-Foulkes estimate   =   -6848.94217847 Ry
     estimated scf accuracy    <          7.0E-09 Ry

     The total energy is the sum of the following terms:

     one-electron contribution =   -2142.89959995 Ry
     hartree contribution      =    1840.36393605 Ry
     xc contribution           =   -2361.57562662 Ry
     ewald contribution        =   -4184.81219715 Ry
     smearing contrib. (-TS)   =      -0.01869079 Ry

     convergence has been achieved in  21 iterations

     negative rho (up, down):  3.128E-01 0.000E+00

     Forces acting on atoms (cartesian axes, Ry/au):

     atom    1 type  3   force =    -0.00026304    0.01133965   -0.04231948
     atom    2 type  3   force =    -0.00024266   -0.00021335   -0.04212317
     atom    3 type  4   force =    -0.00097117    0.00006677   -0.00427568
     atom    4 type  4   force =    -0.00029644   -0.00153124   -0.00412489
     atom    5 type  4   force =    -0.00101956    0.00072678    0.01033099
     atom    6 type  4   force =    -0.00100961    0.00191087    0.01029927
     atom    7 type  1   force =     0.00448939    0.00244989   -0.00655016
     atom    8 type  1   force =    -0.00244313    0.00245667    0.00393203
     atom    9 type  3   force =     0.01086152    0.02603889   -0.00419772
     atom   10 type  3   force =     0.01050488   -0.01077192   -0.00381361
     atom   11 type  4   force =    -0.02072497    0.00170675   -0.02059885
     atom   12 type  4   force =    -0.00146444   -0.00059940   -0.00727228
     atom   13 type  4   force =    -0.00088701    0.02248403   -0.01390261
     atom   14 type  4   force =     0.00151201    0.00355163   -0.00200617
     atom   15 type  5   force =     0.02026412    0.00475842    0.00038528
     atom   16 type  2   force =    -0.00494611    0.00411477    0.00001852
     atom   17 type  4   force =    -0.02089452    0.00172764    0.02132913
     atom   18 type  4   force =    -0.00146221   -0.00062400    0.00790836
     atom   19 type  4   force =    -0.00087995    0.02244428    0.01138524
     atom   20 type  4   force =     0.00149003    0.00355679   -0.00054569
     atom   21 type  3   force =     0.01078462    0.02592020    0.00777349
     atom   22 type  3   force =     0.01042429   -0.01084601    0.00734856
     atom   23 type  1   force =     0.00431235    0.00225457    0.01198292
     atom   24 type  1   force =    -0.00225950    0.00225913    0.00165097
     atom   25 type  4   force =    -0.00107299    0.00040086    0.02901324
     atom   26 type  4   force =    -0.00105906    0.00199362    0.02876799
     atom   27 type  3   force =    -0.00082373    0.00526507   -0.04223158
     atom   28 type  3   force =    -0.00078528   -0.00124876   -0.04240673
     atom   29 type  4   force =    -0.00003513   -0.00034324   -0.00412136
     atom   30 type  4   force =    -0.00089965   -0.00526775   -0.00434226
     atom   31 type  4   force =     0.00069317    0.00181275    0.01036575
     atom   32 type  4   force =    -0.00098677   -0.00016794    0.01219061
     atom   33 type  1   force =    -0.00013244   -0.00185991   -0.00663295
     atom   34 type  1   force =    -0.00463253    0.00044340   -0.00853759
     atom   35 type  3   force =    -0.01958683   -0.00381153   -0.00358743
     atom   36 type  3   force =    -0.00204034   -0.00250063   -0.00598538
     atom   37 type  4   force =    -0.00012135    0.00046989   -0.00752509
     atom   38 type  4   force =    -0.00580513   -0.00537122   -0.00817131
     atom   39 type  4   force =    -0.00739328   -0.00337999   -0.00154662
     atom   40 type  4   force =    -0.00005027    0.00170377   -0.00230068
     atom   41 type  5   force =     0.00007047   -0.01244477    0.00028356
     atom   42 type  5   force =    -0.00915543    0.00198168    0.00035827
     atom   43 type  4   force =    -0.00012710    0.00049301    0.00813708
     atom   44 type  4   force =    -0.00587845   -0.00531660    0.00880883
     atom   45 type  4   force =    -0.00746462   -0.00328255   -0.00105344
     atom   46 type  4   force =    -0.00003281    0.00168014   -0.00027503
     atom   47 type  3   force =    -0.01955050   -0.00398440    0.00714770
     atom   48 type  3   force =    -0.00206939   -0.00252670    0.00947174
     atom   49 type  1   force =    -0.00013285   -0.00185662    0.01192794
     atom   50 type  1   force =    -0.00433537    0.00041733    0.01406050
     atom   51 type  4   force =     0.00074458    0.00169484    0.02884628
     atom   52 type  4   force =    -0.00093169   -0.00007387    0.02706416
     atom   53 type  3   force =     0.00107234    0.00505542   -0.04231790
     atom   54 type  3   force =     0.00101825   -0.00143741   -0.04232919
     atom   55 type  4   force =     0.00062463    0.00057096   -0.00411958
     atom   56 type  4   force =     0.00130738   -0.00528732   -0.00445918
     atom   57 type  4   force =     0.00023521    0.00075035    0.01182062
     atom   58 type  4   force =     0.00195956   -0.00125673    0.01071306
     atom   59 type  1   force =     0.00465630    0.00222986   -0.00694953
     atom   60 type  1   force =     0.00013275   -0.00009484   -0.00821009
     atom   61 type  3   force =     0.00920366    0.00733392   -0.00578273
     atom   62 type  3   force =    -0.00841524    0.00839937   -0.00371847
     atom   63 type  4   force =     0.00307910    0.00108396   -0.00754090
     atom   64 type  4   force =     0.02479885   -0.00486324   -0.02012881
     atom   65 type  4   force =    -0.00054597   -0.00121969   -0.00157090
     atom   66 type  4   force =     0.00740871   -0.02231086   -0.01367613
     atom   67 type  5   force =     0.00911858    0.01455936    0.00029769
     atom   68 type  5   force =    -0.00002021   -0.00026502    0.00034481
     atom   69 type  4   force =     0.00308122    0.00111302    0.00815126
     atom   70 type  4   force =     0.02502476   -0.00480468    0.02089181
     atom   71 type  4   force =    -0.00054874   -0.00123634   -0.00098232
     atom   72 type  4   force =     0.00745762   -0.02217612    0.01111603
     atom   73 type  3   force =     0.00924034    0.00725807    0.00933113
     atom   74 type  3   force =    -0.00831289    0.00845768    0.00725767
     atom   75 type  1   force =     0.00436012    0.00219078    0.01251620
     atom   76 type  1   force =     0.00013257   -0.00010436    0.01346255
     atom   77 type  4   force =     0.00024199    0.00059624    0.02745381
     atom   78 type  4   force =     0.00196051   -0.00119563    0.02847847
     atom   79 type  3   force =     0.00001440    0.00051172   -0.04221651
     atom   80 type  3   force =     0.00000826   -0.00322429   -0.04261163
     atom   81 type  4   force =     0.00056745    0.00018482   -0.00408416
     atom   82 type  4   force =    -0.00029445   -0.00987571   -0.00456119
     atom   83 type  4   force =     0.00007017   -0.00029145    0.01185628
     atom   84 type  4   force =     0.00005995   -0.00115233    0.01269552
     atom   85 type  1   force =    -0.00008880   -0.00212894   -0.00668409
     atom   86 type  1   force =    -0.00199862   -0.00212318   -0.00855194
     atom   87 type  3   force =    -0.00015098   -0.00009099   -0.00530383
     atom   88 type  3   force =    -0.00017334   -0.00463243   -0.00606201
     atom   89 type  4   force =     0.00174254   -0.00036862   -0.00786153
     atom   90 type  4   force =    -0.00152078   -0.01085541   -0.00725038
     atom   91 type  4   force =    -0.00685430   -0.00455678   -0.00188198
     atom   92 type  4   force =     0.00637749   -0.00159334   -0.00112475
     atom   93 type  5   force =    -0.01169430   -0.00310012    0.00039402
     atom   94 type  5   force =    -0.00310439   -0.00313612    0.00037979
     atom   95 type  4   force =     0.00175083   -0.00033403    0.00843274
     atom   96 type  4   force =    -0.00151866   -0.01072344    0.00793842
     atom   97 type  4   force =    -0.00693296   -0.00445246   -0.00073822
     atom   98 type  4   force =     0.00647178   -0.00149226   -0.00147486
     atom   99 type  3   force =    -0.00014612   -0.00006200    0.00885296
     atom  100 type  3   force =    -0.00016674   -0.00468737    0.00956410
     atom  101 type  1   force =    -0.00021472   -0.00197475    0.01204779
     atom  102 type  1   force =    -0.00187695   -0.00196778    0.01388785
     atom  103 type  4   force =     0.00006345   -0.00037507    0.02728921
     atom  104 type  4   force =     0.00005425   -0.00094610    0.02667840

     Total force =     0.193657     Total SCF correction =     0.000371


     Computing stress (Cartesian axis) and pressure


     negative rho (up, down):  3.128E-01 0.000E+00
          total   stress  (Ry/bohr**3)                   (kbar)     P=       11.98
   0.00016240   0.00000035  -0.00000000           23.89        0.05       -0.00
   0.00000035   0.00011582   0.00000016            0.05       17.04        0.02
  -0.00000000   0.00000016  -0.00003383           -0.00        0.02       -4.98


     number of scf cycles    =   3
     number of bfgs steps    =   2

     enthalpy old            =   -6849.0302109182 Ry
     enthalpy new            =   -6848.9421784608 Ry

     CASE: enthalpy_new > enthalpy_old


 %%%%%%%%%%%%%%%%%%%%%%%%%%%%%%%%%%%%%%%%%%%%%%%%%%%%%%%%%%%%%%%%%%%%%%%%%%%%%%
     Error in routine bfgs (1):
     dE0s is positive which should never happen
 %%%%%%%%%%%%%%%%%%%%%%%%%%%%%%%%%%%%%%%%%%%%%%%%%%%%%%%%%%%%%%%%%%%%%%%%%%%%%%

     stopping ...
