
     Program PWSCF v.6.5 starts on  4May2021 at 21:16:37 

     This program is part of the open-source Quantum ESPRESSO suite
     for quantum simulation of materials; please cite
         "P. Giannozzi et al., J. Phys.:Condens. Matter 21 395502 (2009);
         "P. Giannozzi et al., J. Phys.:Condens. Matter 29 465901 (2017);
          URL http://www.quantum-espresso.org", 
     in publications or presentations arising from this work. More details at
     http://www.quantum-espresso.org/quote

     Parallel version (MPI), running on    80 processors

     MPI processes distributed on     7 nodes
     R & G space division:  proc/nbgrp/npool/nimage =      80
     Reading input from dYBCO_rt2_112_20vac_NOcleave_0sep.pwi

     Current dimensions of program PWSCF are:
     Max number of different atomic species (ntypx) = 10
     Max number of k-points (npk) =  40000
     Max angular momentum in pseudopotentials (lmaxx) =  3
     Message from routine volume:
     axis vectors are left-handed

     Subspace diagonalization in iterative solution of the eigenvalue problem:
     one sub-group per band group will be used
     scalapack distributed-memory algorithm (size of sub-group:  8*  8 procs)

     Message from routine setup:
     using ibrav=0 with symmetry is DISCOURAGED, use correct ibrav instead
 
     Parallelization info
     --------------------
     sticks:   dense  smooth     PW     G-vecs:    dense   smooth      PW
     Min         302     100     26               141788    27272    3590
     Max         303     101     27               141817    27305    3614
     Sum       24229    8079   2089             11344543  2183495  288439
 


     bravais-lattice index     =            0
     lattice parameter (alat)  =      20.5724  a.u.
     unit-cell volume          =   34773.4313 (a.u.)^3
     number of atoms/cell      =          224
     number of atomic types    =            5
     number of electrons       =      1830.00
     number of Kohn-Sham states=         1098
     kinetic-energy cutoff     =      60.0000  Ry
     charge density cutoff     =     720.0000  Ry
     convergence threshold     =      1.0E-08
     mixing beta               =       0.5000
     number of iterations used =           10  local-TF  mixing
     Exchange-correlation= SLA PW PBE PBE
                           (   1   4   3   4   0   0   0)
     nstep                     =          300


     celldm(1)=  20.572363  celldm(2)=   0.000000  celldm(3)=   0.000000
     celldm(4)=   0.000000  celldm(5)=   0.000000  celldm(6)=   0.000000

     crystal axes: (cart. coord. in units of alat)
               a(1) = (  -0.696925   0.717144   0.000000 )  
               a(2) = (   0.696925   0.717144   0.000000 )  
               a(3) = (   0.000000   0.000000   3.995513 )  

     reciprocal axes: (cart. coord. in units 2 pi/alat)
               b(1) = ( -0.717437  0.697210  0.000000 )  
               b(2) = (  0.717437  0.697210  0.000000 )  
               b(3) = (  0.000000  0.000000  0.250281 )  


     PseudoPot. # 1 for Ba read from file:
     ./pseudo/Ba.pbe-nsp-van.UPF
     MD5 check sum: 2b9c31dd849566dd297d80989662b7a0
     Pseudo is Ultrasoft + core correction, Zval = 10.0
     Generated by new atomic code, or converted to UPF format
     Using radial grid of  907 points,  6 beta functions with: 
                l(1) =   0
                l(2) =   0
                l(3) =   1
                l(4) =   1
                l(5) =   2
                l(6) =   2
     Q(r) pseudized with  6 coefficients,  rinner =    1.200   1.200   1.200
                                                       1.200   1.200

     PseudoPot. # 2 for Ca read from file:
     ./pseudo/Ca.pbe-nsp-van.UPF
     MD5 check sum: 6471098428ff4fa451746d08035ff179
     Pseudo is Ultrasoft + core correction, Zval = 10.0
     Generated by new atomic code, or converted to UPF format
     Using radial grid of  845 points,  6 beta functions with: 
                l(1) =   0
                l(2) =   0
                l(3) =   1
                l(4) =   1
                l(5) =   2
                l(6) =   2
     Q(r) pseudized with  6 coefficients,  rinner =    1.200   1.200   1.200
                                                       1.200   1.200

     PseudoPot. # 3 for Cu read from file:
     ./pseudo/Cu.pbe-n-van_ak.UPF
     MD5 check sum: 34e3282627ffb533726feb647e090d62
     Pseudo is Ultrasoft + core correction, Zval = 11.0
     Generated by new atomic code, or converted to UPF format
     Using radial grid of  867 points,  6 beta functions with: 
                l(1) =   0
                l(2) =   0
                l(3) =   1
                l(4) =   1
                l(5) =   2
                l(6) =   2
     Q(r) pseudized with  8 coefficients,  rinner =    1.400   1.400   1.400
                                                       1.400   1.400

     PseudoPot. # 4 for O  read from file:
     ./pseudo/O.pbe-van_ak.UPF
     MD5 check sum: 783ce7fe4c79b6a4916957118fed0856
     Pseudo is Ultrasoft, Zval =  6.0
     Generated by new atomic code, or converted to UPF format
     Using radial grid of  737 points,  4 beta functions with: 
                l(1) =   0
                l(2) =   0
                l(3) =   1
                l(4) =   1
     Q(r) pseudized with  8 coefficients,  rinner =    0.800   0.800   0.800


     PseudoPot. # 5 for Y  read from file:
     ./pseudo/Y.pbe-nsp-van.UPF
     MD5 check sum: 4412fed3ab108fed87a1b7d6a69a4a38
     Pseudo is Ultrasoft + core correction, Zval = 11.0
     Generated by new atomic code, or converted to UPF format
     Using radial grid of  885 points,  6 beta functions with: 
                l(1) =   0
                l(2) =   0
                l(3) =   1
                l(4) =   1
                l(5) =   2
                l(6) =   2
     Q(r) pseudized with  6 coefficients,  rinner =    1.200   1.200   1.200
                                                       1.200   1.200

     atomic species   valence    mass     pseudopotential
        Ba            10.00   137.32700     Ba( 1.00)
        Ca            10.00    40.07800     Ca( 1.00)
        Cu            11.00    63.54600     Cu( 1.00)
        O              6.00    15.99900     O ( 1.00)
        Y             11.00    88.90584     Y ( 1.00)

      4 Sym. Ops. (no inversion) found ( 3 have fractional translation)



   Cartesian axes

     site n.     atom                  positions (alat units)
         1           O   tau(   1) = (   0.3475374   0.8964301  -0.0000156  )
         2           O   tau(   2) = (   0.0009250   0.8964301  -0.0000156  )
         3           Cu  tau(   3) = (   0.0000386   0.0001194  -0.0000147  )
         4           Cu  tau(   4) = (   0.0000386   0.3584519  -0.0000147  )
         5           Cu  tau(   5) = (   0.3484238   0.3584519  -0.0000147  )
         6           Cu  tau(   6) = (  -0.3485010   0.7172639  -0.0000147  )
         7           Cu  tau(   7) = (   0.3484413   0.7171537  -0.0000147  )
         8           Cu  tau(   8) = (   0.0000211   1.0757066  -0.0000147  )
         9           Cu  tau(   9) = (  -0.3484844   0.3585621  -0.0000147  )
        10           Cu  tau(  10) = (   0.0000211   0.7171537  -0.0000147  )
        11           O   tau(  11) = (  -0.0003463   0.5378184  -0.0000138  )
        12           O   tau(  12) = (   0.3488087   0.5378184  -0.0000138  )
        13           O   tau(  13) = (  -0.0003463   1.2550419  -0.0000138  )
        14           O   tau(  14) = (  -0.3481170   0.5378974  -0.0000138  )
        15           O   tau(  15) = (  -0.3479902   0.8964301  -0.0000101  )
        16           O   tau(  16) = (  -0.0004721   0.1792857  -0.0000101  )
        17           O   tau(  17) = (   0.3487664   0.3587945   0.1724285  )
        18           O   tau(  18) = (  -0.0003040   0.3587945   0.1724285  )
        19           O   tau(  19) = (  -0.0003040  -0.0002223   0.1724285  )
        20           O   tau(  20) = (  -0.3481583   0.7169213   0.1724285  )
        21           O   tau(  21) = (   0.3484780   0.7170691   0.1728749  )
        22           O   tau(  22) = (  -0.3484477   0.3586476   0.1728749  )
        23           O   tau(  23) = (  -0.0000156   0.7170691   0.1728749  )
        24           O   tau(  24) = (  -0.0000156   1.0757911   0.1728749  )
        25           Ba  tau(  25) = (   0.1742317   0.8964301   0.1925774  )
        26           Ba  tau(  26) = (   0.5226941   0.5378579   0.1929182  )
        27           Ba  tau(  27) = (  -0.1742317   0.5378579   0.1929182  )
        28           Ba  tau(  28) = (  -0.1750648   0.8964301   0.1932471  )
        29           Ba  tau(  29) = (  -0.1733985   0.1792857   0.1932471  )
        30           Ba  tau(  30) = (   0.1742317   0.5371276   0.1935171  )
        31           Ba  tau(  31) = (  -0.5226941   0.5385882   0.1935171  )
        32           Ba  tau(  32) = (   0.1742317   0.1792857   0.1962086  )
        33           Cu  tau(  33) = (  -0.3483953   0.3585621   0.3764045  )
        34           Cu  tau(  34) = (   0.3485295   0.7171546   0.3764045  )
        35           Cu  tau(  35) = (  -0.0000671   0.7171546   0.3764045  )
        36           Cu  tau(  36) = (  -0.0000671   1.0757057   0.3764045  )
        37           Cu  tau(  37) = (  -0.3487756   0.7176552   0.3766948  )
        38           Cu  tau(  38) = (   0.3481492   0.3580606   0.3766948  )
        39           Cu  tau(  39) = (   0.0003132   0.0005116   0.3766948  )
        40           Cu  tau(  40) = (   0.0003132   0.3580606   0.3766948  )
        41           O   tau(  41) = (  -0.0050375   0.1792857   0.3994883  )
        42           O   tau(  42) = (  -0.3434249   0.8964301   0.3994883  )
        43           O   tau(  43) = (  -0.5226941   0.7118232   0.4023488  )
        44           O   tau(  44) = (   0.1742317   0.3638926   0.4023488  )
        45           O   tau(  45) = (   0.3484422   0.8964301   0.4045708  )
        46           O   tau(  46) = (   0.0000202   0.8964301   0.4045708  )
        47           O   tau(  47) = (  -0.0007349   0.5378478   0.4046241  )
        48           O   tau(  48) = (   0.3491973   0.5378478   0.4046241  )
        49           O   tau(  49) = (  -0.3477275   0.5378689   0.4046241  )
        50           O   tau(  50) = (  -0.0007349   1.2550125   0.4046241  )
        51           O   tau(  51) = (   0.1742317   1.0757231   0.4074441  )
        52           O   tau(  52) = (   0.1742317   0.7171362   0.4074441  )
        53           O   tau(  53) = (  -0.1743217   0.7165235   0.4076398  )
        54           O   tau(  54) = (  -0.1741407   0.3591923   0.4076398  )
        55           O   tau(  55) = (  -0.1743217   1.0763367   0.4076398  )
        56           O   tau(  56) = (   0.5227841   0.7165235   0.4076398  )
        57           Ca  tau(  57) = (   0.1742317   0.1792857   0.5372847  )
        58           Y   tau(  58) = (  -0.1759687   0.8964301   0.5372884  )
        59           Y   tau(  59) = (  -0.1724937   0.1792857   0.5372884  )
        60           Y   tau(  60) = (   0.1742317   0.8964301   0.5372948  )
        61           Y   tau(  61) = (   0.5226941   0.5378579   0.5372948  )
        62           Y   tau(  62) = (  -0.1742317   0.5378579   0.5372948  )
        63           Y   tau(  63) = (   0.1742317   0.5360841   0.5373012  )
        64           Y   tau(  64) = (  -0.5226941   0.5396326   0.5373012  )
        65           O   tau(  65) = (  -0.1741416   0.3592061   0.6673109  )
        66           O   tau(  66) = (   0.5227832   0.7165107   0.6673109  )
        67           O   tau(  67) = (  -0.1743208   1.0763496   0.6673109  )
        68           O   tau(  68) = (  -0.1743208   0.7165107   0.6673109  )
        69           O   tau(  69) = (   0.1742317   0.7171555   0.6675377  )
        70           O   tau(  70) = (   0.1742317   1.0757038   0.6675377  )
        71           O   tau(  71) = (  -0.0007257   1.2550143   0.6696661  )
        72           O   tau(  72) = (  -0.0007257   0.5378460   0.6696661  )
        73           O   tau(  73) = (   0.3491881   0.5378460   0.6696661  )
        74           O   tau(  74) = (  -0.3477367   0.5378708   0.6696661  )
        75           O   tau(  75) = (   0.3484606   0.8964301   0.6696955  )
        76           O   tau(  76) = (   0.0000018   0.8964301   0.6696955  )
        77           O   tau(  77) = (   0.1742317   0.3639652   0.6726129  )
        78           O   tau(  78) = (  -0.5226941   0.7117506   0.6726129  )
        79           O   tau(  79) = (  -0.0049759   0.1792857   0.6748000  )
        80           O   tau(  80) = (  -0.3434865   0.8964301   0.6748000  )
        81           Cu  tau(  81) = (  -0.3487766   0.7176580   0.6979214  )
        82           Cu  tau(  82) = (   0.3481482   0.3580588   0.6979214  )
        83           Cu  tau(  83) = (   0.0003142   0.0005135   0.6979214  )
        84           Cu  tau(  84) = (   0.0003142   0.3580588   0.6979214  )
        85           Cu  tau(  85) = (  -0.0000680   1.0757066   0.6982044  )
        86           Cu  tau(  86) = (  -0.3483944   0.3585621   0.6982044  )
        87           Cu  tau(  87) = (   0.3485304   0.7171537   0.6982044  )
        88           Cu  tau(  88) = (  -0.0000680   0.7171537   0.6982044  )
        89           Ba  tau(  89) = (   0.1742317   0.1792857   0.8783434  )
        90           Ba  tau(  90) = (  -0.5226941   0.5385845   0.8810403  )
        91           Ba  tau(  91) = (   0.1742317   0.5371322   0.8810403  )
        92           Ba  tau(  92) = (  -0.1733994   0.1792857   0.8812902  )
        93           Ba  tau(  93) = (  -0.1750630   0.8964301   0.8812902  )
        94           Ba  tau(  94) = (  -0.1742317   0.5378579   0.8816282  )
        95           Ba  tau(  95) = (   0.5226941   0.5378579   0.8816282  )
        96           Ba  tau(  96) = (   0.1742317   0.8964301   0.8819681  )
        97           O   tau(  97) = (   0.3484854   0.7170728   0.9016926  )
        98           O   tau(  98) = (  -0.3484394   0.3586430   0.9016926  )
        99           O   tau(  99) = (  -0.0000230   0.7170728   0.9016926  )
       100           O   tau( 100) = (  -0.0000230   1.0757874   0.9016926  )
       101           O   tau( 101) = (   0.3487729   0.3587881   0.9021382  )
       102           O   tau( 102) = (  -0.0003105   0.3587881   0.9021382  )
       103           O   tau( 103) = (  -0.0003105  -0.0002159   0.9021382  )
       104           O   tau( 104) = (  -0.3481519   0.7169277   0.9021382  )
       105           O   tau( 105) = (   0.3475374   0.8964301   1.0745731  )
       106           O   tau( 106) = (   0.0009250   0.8964301   1.0745731  )
       107           Cu  tau( 107) = (   0.0000386   0.0001194   1.0745731  )
       108           Cu  tau( 108) = (   0.0000386   0.3584519   1.0745731  )
       109           Cu  tau( 109) = (   0.3484238   0.3584519   1.0745731  )
       110           Cu  tau( 110) = (  -0.3485010   0.7172639   1.0745731  )
       111           Cu  tau( 111) = (   0.3484413   0.7171537   1.0745740  )
       112           Cu  tau( 112) = (   0.0000211   1.0757066   1.0745740  )
       113           Cu  tau( 113) = (  -0.3484844   0.3585621   1.0745740  )
       114           Cu  tau( 114) = (   0.0000211   0.7171537   1.0745740  )
       115           O   tau( 115) = (  -0.0003463   0.5378184   1.0745749  )
       116           O   tau( 116) = (   0.3488087   0.5378184   1.0745749  )
       117           O   tau( 117) = (  -0.0003463   1.2550419   1.0745749  )
       118           O   tau( 118) = (  -0.3481170   0.5378974   1.0745749  )
       119           O   tau( 119) = (  -0.3479902   0.8964301   1.0745786  )
       120           O   tau( 120) = (  -0.0004721   0.1792857   1.0745786  )
       121           O   tau( 121) = (   0.3487664   0.3587945   1.2470172  )
       122           O   tau( 122) = (  -0.0003040   0.3587945   1.2470172  )
       123           O   tau( 123) = (  -0.0003040  -0.0002223   1.2470172  )
       124           O   tau( 124) = (  -0.3481583   0.7169213   1.2470172  )
       125           O   tau( 125) = (   0.3484780   0.7170691   1.2474636  )
       126           O   tau( 126) = (  -0.3484477   0.3586476   1.2474636  )
       127           O   tau( 127) = (  -0.0000156   0.7170691   1.2474636  )
       128           O   tau( 128) = (  -0.0000156   1.0757911   1.2474636  )
       129           Ba  tau( 129) = (   0.1742317   0.8964301   1.2671661  )
       130           Ba  tau( 130) = (   0.5226941   0.5378579   1.2675069  )
       131           Ba  tau( 131) = (  -0.1742317   0.5378579   1.2675069  )
       132           Ba  tau( 132) = (  -0.1750648   0.8964301   1.2678358  )
       133           Ba  tau( 133) = (  -0.1733985   0.1792857   1.2678358  )
       134           Ba  tau( 134) = (   0.1742317   0.5371276   1.2681058  )
       135           Ba  tau( 135) = (  -0.5226941   0.5385882   1.2681058  )
       136           Ba  tau( 136) = (   0.1742317   0.1792857   1.2707973  )
       137           Cu  tau( 137) = (  -0.3483953   0.3585621   1.4509932  )
       138           Cu  tau( 138) = (   0.3485295   0.7171546   1.4509932  )
       139           Cu  tau( 139) = (  -0.0000671   0.7171546   1.4509932  )
       140           Cu  tau( 140) = (  -0.0000671   1.0757057   1.4509932  )
       141           Cu  tau( 141) = (  -0.3487756   0.7176552   1.4512835  )
       142           Cu  tau( 142) = (   0.3481492   0.3580606   1.4512835  )
       143           Cu  tau( 143) = (   0.0003132   0.0005116   1.4512835  )
       144           Cu  tau( 144) = (   0.0003132   0.3580606   1.4512835  )
       145           O   tau( 145) = (  -0.0050375   0.1792857   1.4740770  )
       146           O   tau( 146) = (  -0.3434249   0.8964301   1.4740770  )
       147           O   tau( 147) = (  -0.5226941   0.7118232   1.4769375  )
       148           O   tau( 148) = (   0.1742317   0.3638926   1.4769375  )
       149           O   tau( 149) = (   0.3484422   0.8964301   1.4791595  )
       150           O   tau( 150) = (   0.0000202   0.8964301   1.4791595  )
       151           O   tau( 151) = (  -0.0007349   0.5378478   1.4792128  )
       152           O   tau( 152) = (   0.3491973   0.5378478   1.4792128  )
       153           O   tau( 153) = (  -0.3477275   0.5378689   1.4792128  )
       154           O   tau( 154) = (  -0.0007349   1.2550125   1.4792128  )
       155           O   tau( 155) = (   0.1742317   1.0757231   1.4820328  )
       156           O   tau( 156) = (   0.1742317   0.7171362   1.4820328  )
       157           O   tau( 157) = (  -0.1743217   0.7165235   1.4822285  )
       158           O   tau( 158) = (  -0.1741407   0.3591923   1.4822285  )
       159           O   tau( 159) = (  -0.1743217   1.0763367   1.4822285  )
       160           O   tau( 160) = (   0.5227841   0.7165235   1.4822285  )
       161           Ca  tau( 161) = (   0.1742317   0.1792857   1.6118734  )
       162           Y   tau( 162) = (  -0.1759687   0.8964301   1.6118771  )
       163           Y   tau( 163) = (  -0.1724937   0.1792857   1.6118771  )
       164           Y   tau( 164) = (   0.1742317   0.8964301   1.6118835  )
       165           Y   tau( 165) = (   0.5226941   0.5378579   1.6118835  )
       166           Y   tau( 166) = (  -0.1742317   0.5378579   1.6118835  )
       167           Y   tau( 167) = (   0.1742317   0.5360841   1.6118899  )
       168           Y   tau( 168) = (  -0.5226941   0.5396326   1.6118899  )
       169           O   tau( 169) = (  -0.1741416   0.3592061   1.7418995  )
       170           O   tau( 170) = (   0.5227832   0.7165107   1.7418995  )
       171           O   tau( 171) = (  -0.1743208   1.0763496   1.7418995  )
       172           O   tau( 172) = (  -0.1743208   0.7165107   1.7418995  )
       173           O   tau( 173) = (   0.1742317   0.7171555   1.7421264  )
       174           O   tau( 174) = (   0.1742317   1.0757038   1.7421264  )
       175           O   tau( 175) = (  -0.0007257   1.2550143   1.7442548  )
       176           O   tau( 176) = (  -0.0007257   0.5378460   1.7442548  )
       177           O   tau( 177) = (   0.3491881   0.5378460   1.7442548  )
       178           O   tau( 178) = (  -0.3477367   0.5378708   1.7442548  )
       179           O   tau( 179) = (   0.3484606   0.8964301   1.7442842  )
       180           O   tau( 180) = (   0.0000018   0.8964301   1.7442842  )
       181           O   tau( 181) = (   0.1742317   0.3639652   1.7472016  )
       182           O   tau( 182) = (  -0.5226941   0.7117506   1.7472016  )
       183           O   tau( 183) = (  -0.0049759   0.1792857   1.7493887  )
       184           O   tau( 184) = (  -0.3434865   0.8964301   1.7493887  )
       185           Cu  tau( 185) = (  -0.3487766   0.7176580   1.7725101  )
       186           Cu  tau( 186) = (   0.3481482   0.3580588   1.7725101  )
       187           Cu  tau( 187) = (   0.0003142   0.0005135   1.7725101  )
       188           Cu  tau( 188) = (   0.0003142   0.3580588   1.7725101  )
       189           Cu  tau( 189) = (  -0.0000680   1.0757066   1.7727931  )
       190           Cu  tau( 190) = (  -0.3483944   0.3585621   1.7727931  )
       191           Cu  tau( 191) = (   0.3485304   0.7171537   1.7727931  )
       192           Cu  tau( 192) = (  -0.0000680   0.7171537   1.7727931  )
       193           Ba  tau( 193) = (   0.1742317   0.1792857   1.9529321  )
       194           Ba  tau( 194) = (  -0.5226941   0.5385845   1.9556290  )
       195           Ba  tau( 195) = (   0.1742317   0.5371322   1.9556290  )
       196           Ba  tau( 196) = (  -0.1733994   0.1792857   1.9558789  )
       197           Ba  tau( 197) = (  -0.1750630   0.8964301   1.9558789  )
       198           Ba  tau( 198) = (  -0.1742317   0.5378579   1.9562169  )
       199           Ba  tau( 199) = (   0.5226941   0.5378579   1.9562169  )
       200           Ba  tau( 200) = (   0.1742317   0.8964301   1.9565568  )
       201           O   tau( 201) = (   0.3484854   0.7170728   1.9762813  )
       202           O   tau( 202) = (  -0.3484394   0.3586430   1.9762813  )
       203           O   tau( 203) = (  -0.0000230   0.7170728   1.9762813  )
       204           O   tau( 204) = (  -0.0000230   1.0757874   1.9762813  )
       205           O   tau( 205) = (   0.3487729   0.3587881   1.9767269  )
       206           O   tau( 206) = (  -0.0003105   0.3587881   1.9767269  )
       207           O   tau( 207) = (  -0.0003105  -0.0002159   1.9767269  )
       208           O   tau( 208) = (  -0.3481519   0.7169277   1.9767269  )
       209           O   tau( 209) = (   0.3475374   0.8964301   2.1491774  )
       210           O   tau( 210) = (   0.0009250   0.8964301   2.1491774  )
       211           Cu  tau( 211) = (   0.0000386   0.0001194   2.1491774  )
       212           Cu  tau( 212) = (   0.0000386   0.3584519   2.1491774  )
       213           Cu  tau( 213) = (   0.3484238   0.3584519   2.1491774  )
       214           Cu  tau( 214) = (  -0.3485010   0.7172639   2.1491774  )
       215           Cu  tau( 215) = (   0.3484413   0.7171537   2.1491774  )
       216           Cu  tau( 216) = (   0.0000211   1.0757066   2.1491774  )
       217           Cu  tau( 217) = (  -0.3484844   0.3585621   2.1491774  )
       218           Cu  tau( 218) = (   0.0000211   0.7171537   2.1491774  )
       219           O   tau( 219) = (  -0.0003463   0.5378184   2.1491774  )
       220           O   tau( 220) = (   0.3488087   0.5378184   2.1491774  )
       221           O   tau( 221) = (  -0.0003463   1.2550419   2.1491774  )
       222           O   tau( 222) = (  -0.3481170   0.5378974   2.1491774  )
       223           O   tau( 223) = (  -0.3479902   0.8964301   2.1491774  )
       224           O   tau( 224) = (  -0.0004721   0.1792857   2.1491774  )

     number of k points=     4  Gaussian smearing, width (Ry)=  0.0100
                       cart. coord. in units 2pi/alat
        k(    1) = (   0.0000000   0.0000000   0.0000000), wk =   0.2222222
        k(    2) = (   0.2391458   0.2324033   0.0000000), wk =   0.8888889
        k(    3) = (   0.0000000   0.4648067   0.0000000), wk =   0.4444444
        k(    4) = (  -0.4782916  -0.0000000   0.0000000), wk =   0.4444444

     Dense  grid: 11344543 G-vectors     FFT dimensions: ( 180, 180, 720)

     Smooth grid:  2183495 G-vectors     FFT dimensions: ( 108, 108, 405)

     Estimated max dynamical RAM per process >       2.40 GB

     Estimated total dynamical RAM >     192.34 GB

     Initial potential from superposition of free atoms

     starting charge 1828.78422, renormalised to 1830.00000

     negative rho (up, down):  6.293E-01 0.000E+00
     Starting wfcs are 1602 randomized atomic wfcs

     total cpu time spent up to now is       94.4 secs

     Self-consistent Calculation

     iteration #  1     ecut=    60.00 Ry     beta= 0.50
     Davidson diagonalization with overlap
     ethr =  1.00E-02,  avg # of iterations =  2.0

     negative rho (up, down):  5.991E-01 0.000E+00

     total cpu time spent up to now is      209.4 secs

     total energy              =  -14913.59917568 Ry
     Harris-Foulkes estimate   =  -14943.21763991 Ry
     estimated scf accuracy    <     110.39641966 Ry

     iteration #  2     ecut=    60.00 Ry     beta= 0.50
     Davidson diagonalization with overlap
     ethr =  6.03E-03,  avg # of iterations =  2.0

     negative rho (up, down):  6.000E-01 0.000E+00

     total cpu time spent up to now is      336.8 secs

     total energy              =  -14923.77542159 Ry
     Harris-Foulkes estimate   =  -14926.74221510 Ry
     estimated scf accuracy    <      12.20328895 Ry

     iteration #  3     ecut=    60.00 Ry     beta= 0.50
     Davidson diagonalization with overlap
     ethr =  6.67E-04,  avg # of iterations =  2.5

     negative rho (up, down):  6.023E-01 0.000E+00

     total cpu time spent up to now is      446.5 secs

     total energy              =  -14925.29769658 Ry
     Harris-Foulkes estimate   =  -14925.83678055 Ry
     estimated scf accuracy    <      24.71604800 Ry

     iteration #  4     ecut=    60.00 Ry     beta= 0.50
     Davidson diagonalization with overlap
     ethr =  6.67E-04,  avg # of iterations =  1.0

     negative rho (up, down):  6.112E-01 0.000E+00

     total cpu time spent up to now is      535.8 secs

     total energy              =  -14924.97049407 Ry
     Harris-Foulkes estimate   =  -14925.50059687 Ry
     estimated scf accuracy    <       5.28370391 Ry

     iteration #  5     ecut=    60.00 Ry     beta= 0.50
     Davidson diagonalization with overlap
     ethr =  2.89E-04,  avg # of iterations =  3.8

     negative rho (up, down):  6.198E-01 0.000E+00

     total cpu time spent up to now is      637.5 secs

     total energy              =  -14924.94623439 Ry
     Harris-Foulkes estimate   =  -14925.17519278 Ry
     estimated scf accuracy    <      16.72333258 Ry

     iteration #  6     ecut=    60.00 Ry     beta= 0.50
     Davidson diagonalization with overlap
     ethr =  2.89E-04,  avg # of iterations =  2.0

     negative rho (up, down):  6.241E-01 0.000E+00

     total cpu time spent up to now is      744.8 secs

     total energy              =  -14924.92510003 Ry
     Harris-Foulkes estimate   =  -14925.02224305 Ry
     estimated scf accuracy    <      10.89095258 Ry

     iteration #  7     ecut=    60.00 Ry     beta= 0.50
     Davidson diagonalization with overlap
     ethr =  2.89E-04,  avg # of iterations =  1.0

     negative rho (up, down):  6.300E-01 0.000E+00

     total cpu time spent up to now is      831.9 secs

     total energy              =  -14924.86597264 Ry
     Harris-Foulkes estimate   =  -14924.97252236 Ry
     estimated scf accuracy    <       8.53925758 Ry

     iteration #  8     ecut=    60.00 Ry     beta= 0.50
     Davidson diagonalization with overlap
     ethr =  2.89E-04,  avg # of iterations =  1.5

     negative rho (up, down):  6.319E-01 0.000E+00

     total cpu time spent up to now is      923.2 secs

     total energy              =  -14924.86495420 Ry
     Harris-Foulkes estimate   =  -14924.90942006 Ry
     estimated scf accuracy    <       3.75062464 Ry

     iteration #  9     ecut=    60.00 Ry     beta= 0.50
     Davidson diagonalization with overlap
     ethr =  2.05E-04,  avg # of iterations =  8.5

     negative rho (up, down):  6.322E-01 0.000E+00

     total cpu time spent up to now is     1042.2 secs

     total energy              =  -14924.84713648 Ry
     Harris-Foulkes estimate   =  -14924.88128188 Ry
     estimated scf accuracy    <       2.30092263 Ry

     iteration # 10     ecut=    60.00 Ry     beta= 0.50
     Davidson diagonalization with overlap
     ethr =  1.26E-04,  avg # of iterations = 10.8

     negative rho (up, down):  6.315E-01 0.000E+00

     total cpu time spent up to now is     1172.2 secs

     total energy              =  -14924.80466685 Ry
     Harris-Foulkes estimate   =  -14924.85562021 Ry
     estimated scf accuracy    <       1.74991803 Ry

     iteration # 11     ecut=    60.00 Ry     beta= 0.50
     Davidson diagonalization with overlap
     ethr =  9.56E-05,  avg # of iterations =  7.5

     negative rho (up, down):  6.356E-01 0.000E+00

     total cpu time spent up to now is     1289.1 secs

     total energy              =  -14924.79111328 Ry
     Harris-Foulkes estimate   =  -14924.81996831 Ry
     estimated scf accuracy    <       1.11564355 Ry

     iteration # 12     ecut=    60.00 Ry     beta= 0.50
     Davidson diagonalization with overlap
     ethr =  6.10E-05,  avg # of iterations =  6.0

     negative rho (up, down):  6.308E-01 0.000E+00

     total cpu time spent up to now is     1397.4 secs

     total energy              =  -14924.79215994 Ry
     Harris-Foulkes estimate   =  -14924.79829276 Ry
     estimated scf accuracy    <       0.40300111 Ry

     iteration # 13     ecut=    60.00 Ry     beta= 0.50
     Davidson diagonalization with overlap
     ethr =  2.20E-05,  avg # of iterations =  9.0

     negative rho (up, down):  6.306E-01 0.000E+00

     total cpu time spent up to now is     1535.7 secs

     total energy              =  -14924.78277426 Ry
     Harris-Foulkes estimate   =  -14924.79429180 Ry
     estimated scf accuracy    <       0.32918462 Ry

     iteration # 14     ecut=    60.00 Ry     beta= 0.50
     Davidson diagonalization with overlap
     c_bands:  3 eigenvalues not converged
     ethr =  1.80E-05,  avg # of iterations =  8.5

     negative rho (up, down):  6.666E-01 0.000E+00

     total cpu time spent up to now is     1654.6 secs

     total energy              =  -14924.77479974 Ry
     Harris-Foulkes estimate   =  -14924.78466767 Ry
     estimated scf accuracy    <       0.16479256 Ry

     iteration # 15     ecut=    60.00 Ry     beta= 0.50
     Davidson diagonalization with overlap
     c_bands:  4 eigenvalues not converged
     ethr =  9.01E-06,  avg # of iterations = 16.2

     negative rho (up, down):  7.140E-01 0.000E+00

     total cpu time spent up to now is     1825.6 secs

     total energy              =  -14924.76315262 Ry
     Harris-Foulkes estimate   =  -14924.77605558 Ry
     estimated scf accuracy    <       0.08927691 Ry

     iteration # 16     ecut=    60.00 Ry     beta= 0.50
     Davidson diagonalization with overlap
     c_bands:  1 eigenvalues not converged
     ethr =  4.88E-06,  avg # of iterations = 17.0

     negative rho (up, down):  8.351E-01 0.000E+00

     total cpu time spent up to now is     1991.0 secs

     total energy              =  -14924.75250679 Ry
     Harris-Foulkes estimate   =  -14924.76416749 Ry
     estimated scf accuracy    <       0.09551414 Ry

     iteration # 17     ecut=    60.00 Ry     beta= 0.50
     Davidson diagonalization with overlap
     ethr =  4.88E-06,  avg # of iterations = 12.5

     negative rho (up, down):  8.366E-01 0.000E+00

     total cpu time spent up to now is     2152.4 secs

     total energy              =  -14924.74935231 Ry
     Harris-Foulkes estimate   =  -14924.75387955 Ry
     estimated scf accuracy    <       0.03470793 Ry

     iteration # 18     ecut=    60.00 Ry     beta= 0.50
     Davidson diagonalization with overlap
     ethr =  1.90E-06,  avg # of iterations = 11.8

     negative rho (up, down):  7.503E-01 0.000E+00

     total cpu time spent up to now is     2291.0 secs

     total energy              =  -14924.74413398 Ry
     Harris-Foulkes estimate   =  -14924.74995029 Ry
     estimated scf accuracy    <       0.02801615 Ry

     iteration # 19     ecut=    60.00 Ry     beta= 0.50
     Davidson diagonalization with overlap
     c_bands:  1 eigenvalues not converged
     ethr =  1.53E-06,  avg # of iterations = 12.8

     negative rho (up, down):  6.982E-01 0.000E+00

     total cpu time spent up to now is     2441.7 secs

     total energy              =  -14924.74154032 Ry
     Harris-Foulkes estimate   =  -14924.74489019 Ry
     estimated scf accuracy    <       0.01393094 Ry

     iteration # 20     ecut=    60.00 Ry     beta= 0.50
     Davidson diagonalization with overlap
     ethr =  7.61E-07,  avg # of iterations =  6.5

     negative rho (up, down):  6.884E-01 0.000E+00

     total cpu time spent up to now is     2559.0 secs

     total energy              =  -14924.74096925 Ry
     Harris-Foulkes estimate   =  -14924.74198354 Ry
     estimated scf accuracy    <       0.00711899 Ry

     iteration # 21     ecut=    60.00 Ry     beta= 0.50
     Davidson diagonalization with overlap
     ethr =  3.89E-07,  avg # of iterations =  8.0

     negative rho (up, down):  6.737E-01 0.000E+00

     total cpu time spent up to now is     2684.3 secs

     total energy              =  -14924.74089630 Ry
     Harris-Foulkes estimate   =  -14924.74113581 Ry
     estimated scf accuracy    <       0.00585660 Ry

     iteration # 22     ecut=    60.00 Ry     beta= 0.50
     Davidson diagonalization with overlap
     ethr =  3.20E-07,  avg # of iterations =  4.2

     negative rho (up, down):  6.418E-01 0.000E+00

     total cpu time spent up to now is     2794.9 secs

     total energy              =  -14924.74075649 Ry
     Harris-Foulkes estimate   =  -14924.74102653 Ry
     estimated scf accuracy    <       0.00317437 Ry

     iteration # 23     ecut=    60.00 Ry     beta= 0.50
     Davidson diagonalization with overlap
     c_bands:  2 eigenvalues not converged
     ethr =  1.73E-07,  avg # of iterations = 12.2

     negative rho (up, down):  6.363E-01 0.000E+00

     total cpu time spent up to now is     2934.7 secs

     total energy              =  -14924.74077418 Ry
     Harris-Foulkes estimate   =  -14924.74087497 Ry
     estimated scf accuracy    <       0.00096737 Ry

     iteration # 24     ecut=    60.00 Ry     beta= 0.50
     Davidson diagonalization with overlap
     ethr =  5.29E-08,  avg # of iterations =  6.8

     negative rho (up, down):  6.349E-01 0.000E+00

     total cpu time spent up to now is     3053.0 secs

     total energy              =  -14924.74078692 Ry
     Harris-Foulkes estimate   =  -14924.74083181 Ry
     estimated scf accuracy    <       0.00029915 Ry

     iteration # 25     ecut=    60.00 Ry     beta= 0.50
     Davidson diagonalization with overlap
     ethr =  1.63E-08,  avg # of iterations =  2.0

     negative rho (up, down):  6.382E-01 0.000E+00

     total cpu time spent up to now is     3144.9 secs

     total energy              =  -14924.74081847 Ry
     Harris-Foulkes estimate   =  -14924.74080534 Ry
     estimated scf accuracy    <       0.00023325 Ry

     iteration # 26     ecut=    60.00 Ry     beta= 0.50
     Davidson diagonalization with overlap
     ethr =  1.27E-08,  avg # of iterations =  3.8

     negative rho (up, down):  6.358E-01 0.000E+00

     total cpu time spent up to now is     3244.6 secs

     total energy              =  -14924.74079730 Ry
     Harris-Foulkes estimate   =  -14924.74083664 Ry
     estimated scf accuracy    <       0.00009243 Ry

     iteration # 27     ecut=    60.00 Ry     beta= 0.50
     Davidson diagonalization with overlap
     ethr =  5.05E-09,  avg # of iterations =  2.8

     negative rho (up, down):  6.349E-01 0.000E+00

     total cpu time spent up to now is     3342.7 secs

     total energy              =  -14924.74079884 Ry
     Harris-Foulkes estimate   =  -14924.74080484 Ry
     estimated scf accuracy    <       0.00003009 Ry

     iteration # 28     ecut=    60.00 Ry     beta= 0.50
     Davidson diagonalization with overlap
     ethr =  1.64E-09,  avg # of iterations =  3.0

     negative rho (up, down):  6.356E-01 0.000E+00

     total cpu time spent up to now is     3442.4 secs

     total energy              =  -14924.74079863 Ry
     Harris-Foulkes estimate   =  -14924.74080137 Ry
     estimated scf accuracy    <       0.00001452 Ry

     iteration # 29     ecut=    60.00 Ry     beta= 0.50
     Davidson diagonalization with overlap
     ethr =  7.93E-10,  avg # of iterations =  1.2

     negative rho (up, down):  6.350E-01 0.000E+00

     total cpu time spent up to now is     3531.2 secs

     total energy              =  -14924.74079912 Ry
     Harris-Foulkes estimate   =  -14924.74079939 Ry
     estimated scf accuracy    <       0.00000496 Ry

     iteration # 30     ecut=    60.00 Ry     beta= 0.50
     Davidson diagonalization with overlap
     ethr =  2.71E-10,  avg # of iterations =  2.2

     negative rho (up, down):  6.355E-01 0.000E+00

     total cpu time spent up to now is     3624.9 secs

     total energy              =  -14924.74080038 Ry
     Harris-Foulkes estimate   =  -14924.74079936 Ry
     estimated scf accuracy    <       0.00000236 Ry

     iteration # 31     ecut=    60.00 Ry     beta= 0.50
     Davidson diagonalization with overlap
     ethr =  1.29E-10,  avg # of iterations =  2.0

     negative rho (up, down):  6.355E-01 0.000E+00

     total cpu time spent up to now is     3736.7 secs

     total energy              =  -14924.74080068 Ry
     Harris-Foulkes estimate   =  -14924.74080056 Ry
     estimated scf accuracy    <       0.00000367 Ry

     iteration # 32     ecut=    60.00 Ry     beta= 0.50
     Davidson diagonalization with overlap
     ethr =  1.29E-10,  avg # of iterations =  1.0

     negative rho (up, down):  6.356E-01 0.000E+00

     total cpu time spent up to now is     3824.5 secs

     total energy              =  -14924.74080062 Ry
     Harris-Foulkes estimate   =  -14924.74080077 Ry
     estimated scf accuracy    <       0.00000058 Ry

     iteration # 33     ecut=    60.00 Ry     beta= 0.50
     Davidson diagonalization with overlap
     ethr =  3.16E-11,  avg # of iterations =  1.2

     negative rho (up, down):  6.355E-01 0.000E+00

     total cpu time spent up to now is     3913.3 secs

     total energy              =  -14924.74080065 Ry
     Harris-Foulkes estimate   =  -14924.74080064 Ry
     estimated scf accuracy    <       0.00000038 Ry

     iteration # 34     ecut=    60.00 Ry     beta= 0.50
     Davidson diagonalization with overlap
     ethr =  2.08E-11,  avg # of iterations =  1.0

     negative rho (up, down):  6.355E-01 0.000E+00

     total cpu time spent up to now is     4000.4 secs

     total energy              =  -14924.74080067 Ry
     Harris-Foulkes estimate   =  -14924.74080066 Ry
     estimated scf accuracy    <       0.00000016 Ry

     iteration # 35     ecut=    60.00 Ry     beta= 0.50
     Davidson diagonalization with overlap
     ethr =  8.81E-12,  avg # of iterations =  1.0

     negative rho (up, down):  6.355E-01 0.000E+00

     total cpu time spent up to now is     4086.3 secs

     total energy              =  -14924.74080067 Ry
     Harris-Foulkes estimate   =  -14924.74080068 Ry
     estimated scf accuracy    <       0.00000007 Ry

     iteration # 36     ecut=    60.00 Ry     beta= 0.50
     Davidson diagonalization with overlap
     ethr =  3.86E-12,  avg # of iterations =  1.2

     negative rho (up, down):  6.355E-01 0.000E+00

     total cpu time spent up to now is     4178.3 secs

     total energy              =  -14924.74080066 Ry
     Harris-Foulkes estimate   =  -14924.74080067 Ry
     estimated scf accuracy    <       0.00000002 Ry

     iteration # 37     ecut=    60.00 Ry     beta= 0.50
     Davidson diagonalization with overlap
     ethr =  9.60E-13,  avg # of iterations =  2.8

     negative rho (up, down):  6.355E-01 0.000E+00

     total cpu time spent up to now is     4279.9 secs

     total energy              =  -14924.74080065 Ry
     Harris-Foulkes estimate   =  -14924.74080066 Ry
     estimated scf accuracy    <       0.00000002 Ry

     iteration # 38     ecut=    60.00 Ry     beta= 0.50
     Davidson diagonalization with overlap
     ethr =  8.24E-13,  avg # of iterations =  1.0

     negative rho (up, down):  6.355E-01 0.000E+00

     total cpu time spent up to now is     4364.7 secs

     End of self-consistent calculation

          k = 0.0000 0.0000 0.0000 (272945 PWs)   bands (ev):

   -37.7882 -37.7877 -37.7437 -37.7433 -37.7406 -37.7401 -37.7325 -37.7320
   -37.7309 -37.7304 -37.7237 -37.7233 -37.7181 -37.7176 -35.2683 -35.2679
   -22.2192 -22.2191 -22.1275 -22.1082 -22.1081 -22.1079 -22.1078 -22.0970
   -22.0954 -22.0954 -22.0853 -22.0850 -22.0763 -22.0758 -22.0617 -22.0616
   -22.0191 -22.0163 -21.9955 -21.9936 -21.9924 -21.9923 -21.9823 -21.9808
   -21.9807 -21.9725 -21.9692 -21.9656 -21.9587 -21.9472 -21.8840 -21.8670
   -18.3457 -18.3453 -18.3005 -18.3002 -18.2700 -18.2695 -18.2572 -18.2568
   -18.2325 -18.2321 -18.0730 -18.0724 -18.0708 -18.0704 -18.0630 -18.0622
   -18.0577 -18.0573 -18.0474 -18.0471 -18.0462 -18.0461 -18.0452 -18.0451
   -18.0365 -18.0354 -18.0342 -18.0335 -18.0283 -18.0278 -18.0174 -18.0170
   -17.8808 -17.8804 -17.8643 -17.8638 -17.8445 -17.8440 -17.7507 -17.7502
   -17.7303 -17.7299 -16.5106 -16.5102 -16.4920 -16.4918 -16.4915 -16.4915
   -15.0681 -15.0663 -14.4699 -14.4677 -14.4020 -14.4014 -14.3964 -14.3955
   -14.3828 -14.3757 -14.3738 -14.3690 -14.3681 -14.3577 -14.2981 -14.2965
   -14.2220 -14.2063 -14.2053 -14.1906 -14.1885 -14.1835 -14.1814 -14.1784
   -14.1762 -14.1441 -14.1410 -14.1095 -14.1061 -14.1031 -14.1020 -14.0997
   -14.0917 -14.0680 -14.0521 -14.0510 -14.0420 -13.9562 -13.9058 -13.8991
   -13.8980 -13.8947 -13.8913 -13.8895 -13.8894 -13.8850 -13.8690 -13.8685
   -13.8646 -13.8622 -13.8615 -13.8603 -13.8536 -13.8529 -13.8506 -13.8490
   -13.8375 -13.8355 -13.8283 -13.8242 -13.7787 -13.7703 -13.7698 -13.7695
   -13.7561 -13.7555 -13.7315 -13.7297 -13.7290 -13.7248 -13.7245 -13.7125
   -13.6936 -13.6930 -13.6875 -13.6659 -13.6608 -13.6575 -13.6266 -13.6224
   -13.6194 -13.6116 -13.5977 -13.5588 -13.5516 -13.5355 -13.5152 -13.4783
   -13.4755 -13.4357 -13.3941 -13.3899 -13.2943 -13.2933 -13.2928 -13.2903
   -13.1978 -13.1628 -13.1592 -13.1585 -13.1554 -13.1138 -13.1136 -13.0997
   -13.0997 -13.0996 -13.0995 -13.0994 -13.0994 -13.0976 -13.0975 -13.0964
   -13.0963 -13.0863 -13.0863 -13.0833 -13.0692 -13.0689 -13.0295 -12.9909
    -8.0392  -8.0383  -7.9796  -7.9480  -7.9468  -7.9242  -7.8908  -7.6787
    -7.6404  -7.6402  -7.6402  -7.6400  -7.6262  -7.6259  -7.6167  -7.6165
    -7.5939  -7.5669  -7.5650  -7.5591  -7.5569  -7.5345  -7.5309  -7.5304
    -7.5165  -7.5076  -7.4699  -7.4684  -7.4398  -7.4364  -7.4163  -7.4156
    -7.4155  -7.4100  -7.3991  -7.3925  -7.3919  -7.3859  -7.3848  -7.3843
    -7.3790  -7.3675  -7.3588  -7.3572  -7.3570  -7.3450  -7.3233  -7.3099
    -7.3089  -7.3076  -7.2985  -7.2960  -7.2911  -7.2909  -7.2860  -7.2604
    -7.2363  -7.2137  -7.2129  -7.2097  -7.2045  -7.2033  -7.1800  -7.1473
    -7.1218  -7.1037  -7.1032  -7.1000  -7.0921  -7.0917  -7.0914  -7.0910
    -7.0746  -7.0744  -7.0676  -7.0672  -7.0346  -7.0093  -7.0048  -7.0046
    -7.0003  -6.9696  -6.9693  -6.9515  -6.9473  -6.9434  -6.9323  -6.9322
    -6.9179  -6.9094  -6.8962  -6.8705  -6.8662  -6.8657  -6.7791  -6.7140
    -3.8024  -3.7931  -3.2568  -3.2370  -2.7815  -2.7778  -2.6804  -2.6744
    -2.6714  -2.6684  -2.6630  -2.6596  -2.6316  -2.6040  -2.6031  -2.5979
    -2.5905  -2.5345  -2.5137  -2.3936  -2.3624  -2.3304  -2.3097  -2.3007
    -2.2930  -2.2906  -2.2858  -2.2740  -2.2683  -2.2642  -2.1923  -2.1921
    -2.1305  -2.0983  -2.0847  -2.0845  -2.0046  -2.0039  -1.9168  -1.9144
    -1.8180  -1.8172  -1.7994  -1.7991  -1.7988  -1.7982  -1.7884  -1.7874
    -1.7457  -1.7346  -1.7314  -1.7309  -1.7304  -1.7237  -1.7217  -1.7169
    -1.6873  -1.6739  -1.6710  -1.6653  -1.6642  -1.6631  -1.6385  -1.6251
    -1.5628  -1.5405  -1.5353  -1.5117  -1.5079  -1.4907  -1.4797  -1.4409
    -1.4401  -1.4383  -1.4373  -1.4356  -1.4343  -1.4318  -1.4175  -1.4167
    -1.4145  -1.4141  -1.4137  -1.4133  -1.4121  -1.4113  -1.4078  -1.4072
    -1.3580  -1.3578  -1.3379  -1.3267  -1.3257  -1.3206  -1.3196  -1.3174
    -1.3164  -1.2994  -1.2940  -1.2822  -1.2814  -1.1955  -1.1946  -1.1902
    -1.1900  -1.1899  -1.1895  -1.1891  -1.1778  -1.1708  -1.1574  -1.1560
    -1.1417  -1.1400  -1.1050  -1.1021  -1.0979  -1.0950  -1.0647  -1.0600
    -1.0380  -1.0365  -1.0279  -1.0157  -1.0123  -1.0031  -0.9971  -0.9965
    -0.9829  -0.9744  -0.9712  -0.9568  -0.9535  -0.9487  -0.9420  -0.9384
    -0.9280  -0.8977  -0.8815  -0.8706  -0.8677  -0.8532  -0.8067  -0.7451
    -0.6951  -0.6930  -0.6843  -0.6744  -0.6604  -0.6594  -0.6583  -0.6540
    -0.6529  -0.6301  -0.6286  -0.6194  -0.6173  -0.6054  -0.5513  -0.5508
    -0.5407  -0.5354  -0.5242  -0.5218  -0.5120  -0.4934  -0.4929  -0.4887
    -0.4781  -0.4779  -0.4334  -0.3954  -0.3883  -0.3562  -0.3463  -0.3446
    -0.3395  -0.3388  -0.3269  -0.3251  -0.3215  -0.3116  -0.3113  -0.3069
    -0.2993  -0.2901  -0.2880  -0.2875  -0.2828  -0.2800  -0.2600  -0.2586
    -0.2584  -0.2532  -0.2515  -0.2453  -0.2423  -0.2402  -0.2389  -0.2386
    -0.2322  -0.2157  -0.2084  -0.2034  -0.1727  -0.1594  -0.1338  -0.0860
    -0.0707  -0.0565  -0.0553  -0.0517  -0.0473  -0.0451  -0.0414  -0.0392
    -0.0365  -0.0345  -0.0344  -0.0294  -0.0178  -0.0177   0.0357   0.0358
     0.0604   0.0719   0.0757   0.1050   0.1058   0.1076   0.1086   0.1092
     0.1121   0.1138   0.1140   0.1210   0.1250   0.1525   0.1654   0.1783
     0.1942   0.2002   0.2002   0.2109   0.2232   0.2359   0.2380   0.2432
     0.2439   0.2464   0.2479   0.2511   0.2517   0.2549   0.2909   0.2965
     0.3285   0.3292   0.3317   0.3322   0.3657   0.3724   0.3729   0.3767
     0.3782   0.3858   0.4127   0.4160   0.4160   0.4162   0.4169   0.4185
     0.4191   0.4207   0.4255   0.4273   0.4704   0.4736   0.5021   0.5023
     0.5456   0.5470   0.5503   0.5504   0.5842   0.5899   0.5900   0.6017
     0.6044   0.6116   0.6138   0.6215   0.6475   0.6573   0.6584   0.6610
     0.6629   0.6687   0.6992   0.7008   0.7507   0.7508   0.7532   0.7545
     0.7860   0.8119   0.8194   0.8222   0.8262   0.8288   0.8302   0.8349
     0.8354   0.8364   0.8491   0.8632   0.8649   0.8693   0.8779   0.8815
     0.8840   0.8970   0.9010   0.9011   0.9156   0.9156   0.9161   0.9212
     0.9237   0.9241   0.9302   0.9329   0.9462   0.9643   0.9742   0.9753
     0.9754   0.9823   0.9825   0.9960   1.0177   1.0304   1.0369   1.0442
     1.0496   1.0636   1.0709   1.0761   1.0860   1.0888   1.0909   1.1228
     1.1256   1.1337   1.1383   1.1387   1.1500   1.1506   1.1559   1.1569
     1.1621   1.1652   1.1671   1.1785   1.1809   1.1927   1.2062   1.2258
     1.2331   1.2351   1.2841   1.3008   1.3095   1.3128   1.3138   1.3341
     1.3352   1.3397   1.3401   1.3533   1.3637   1.4067   1.4401   1.4482
     1.4737   1.4809   1.4967   1.5225   1.5242   1.5366   1.5414   1.5427
     1.5463   1.5489   1.5536   1.5583   1.5836   1.5837   1.5853   1.5968
     1.6017   1.6053   1.6060   1.6087   1.6104   1.6119   1.6121   1.6284
     1.6284   1.6328   1.6400   1.6455   1.6479   1.6527   1.6545   1.6568
     1.6636   1.6668   1.6781   1.6834   1.6891   1.6917   1.7134   1.7194
     1.7316   1.7347   1.7472   1.7512   1.7521   1.7561   1.7561   1.7594
     1.7596   1.7603   1.7659   1.7820   1.7827   1.7837   1.7866   1.7872
     1.7875   1.7993   1.8052   1.8057   1.8061   1.8067   1.8076   1.8126
     1.8127   1.8193   1.8218   1.8254   1.8261   1.8315   1.8323   1.8345
     1.8364   1.8451   1.8463   1.8504   1.8530   1.8550   1.8634   1.8665
     1.8781   1.8785   1.8791   1.8872   1.8884   1.9038   1.9149   1.9260
     1.9297   1.9319   1.9403   1.9427   1.9451   1.9590   1.9608   1.9628
     1.9628   1.9993   2.0053   2.0197   2.0531   2.0543   2.0797   2.0941
     2.0949   2.1031   2.1162   2.1177   2.1216   2.1263   2.1322   2.1380
     2.1523   2.1526   2.1838   2.1913   2.1971   2.2024   2.2079   2.2227
     2.2298   2.2479   2.2500   2.2524   2.2572   2.2615   2.2708   2.2809
     2.2821   2.2825   2.2896   2.2935   2.3025   2.3205   2.3206   2.3215
     2.3267   2.3274   2.3290   2.3303   2.3336   2.3341   2.3356   2.3381
     2.3479   2.3482   2.3487   2.3497   2.3506   2.3506   2.3552   2.3634
     2.3666   2.3747   2.3772   2.3776   2.4005   2.4049   2.4101   2.4196
     2.4206   2.4300   2.4444   2.4509   2.4719   2.4733   2.5029   2.5045
     2.5130   2.5244   2.5261   2.5354   2.5368   2.5588   2.5625   2.5633
     2.5634   2.5638   2.5675   2.5676   2.5733   2.5735   2.5792   2.5947
     2.6090   2.6118   2.6241   2.6330   2.6432   2.7197   2.7401   2.7410
     2.7428   2.7436   2.7500   2.7738   2.8372   2.8437   2.8720   2.8725
     2.8725   2.8763   2.8764   2.8789   2.8923   2.9192   2.9528   2.9532
     2.9762   2.9762   2.9842   2.9843   3.0030   3.0577   3.0874   3.1449
     3.1451   3.1507   3.4578   3.4599   3.4614   3.4615   3.4668   3.4688
     3.4691   3.4701   3.5070   3.5214   3.5331   3.5405   3.6120   3.6176
     3.6380   3.6439   3.6532   3.6547   3.6586   3.6602   3.7984   3.8111
     3.8397   3.8425   3.8473   3.8521   3.8574   3.8580   4.1637   4.1677
     4.1680   4.1684   4.7050   4.9371   5.0003   5.0010   5.1072   5.1086
     5.4827   5.4930   5.7590   6.0544   6.2592   6.4237   6.4255   6.5896
     6.8579   6.8589   6.8600   6.8606   6.8607   6.8614   6.8617   6.8626
     6.9245   6.9958   7.0370   7.0438   7.0460   7.0472   7.1763   7.1864
     7.4742   7.4873   7.4892   7.5208   7.5220   7.5225   7.5292   7.5472
     7.5507   7.5775   7.5902   7.6181   7.7768   7.8119   7.8154   7.8749
     7.9144   7.9438   7.9710   7.9736   7.9788   7.9823   8.0105   8.0108
     8.0704   8.0770   8.1244   8.1456   8.1538   8.2031   8.2224   8.2869
     8.2878   8.3828   8.4528   8.4605   8.4610   8.4611   8.6905   8.6931
     8.6936   8.6992   8.7015   8.7025   8.7174   8.7230   8.7664   8.7768
     8.8075   8.8245   8.8299   8.8448   8.8457   8.9428   8.9716   8.9779
     8.9909   9.0096   9.0120   9.0623   9.0820   9.0967   9.1044   9.1766
     9.2066   9.2137   9.2248   9.2318   9.2359   9.2411   9.2544   9.2545
     9.2784   9.2966   9.3244   9.3460   9.3553   9.3607   9.3812   9.4045
     9.4302   9.4331   9.4484   9.4503   9.4667   9.4671   9.4694   9.4698
     9.4838   9.4869   9.4886   9.4988   9.5102   9.5135   9.5182   9.5289
     9.5395   9.5594   9.5599   9.6035   9.6310   9.6698   9.6733   9.6821
     9.6878   9.6882   9.7014   9.7090   9.7219   9.7243   9.7371   9.7377
     9.7632   9.7822   9.7855   9.7881   9.7911   9.7923   9.8013   9.8070
     9.8120   9.8163

          k = 0.2391 0.2324 0.0000 (272908 PWs)   bands (ev):

   -37.7881 -37.7877 -37.7430 -37.7426 -37.7414 -37.7410 -37.7323 -37.7319
   -37.7316 -37.7311 -37.7219 -37.7215 -37.7192 -37.7188 -35.2683 -35.2679
   -22.2018 -22.2017 -22.1555 -22.1554 -22.1100 -22.1083 -22.1081 -22.0988
   -22.0987 -22.0805 -22.0759 -22.0758 -22.0663 -22.0662 -22.0630 -22.0362
   -22.0337 -22.0335 -22.0188 -22.0018 -21.9944 -21.9943 -21.9933 -21.9820
   -21.9776 -21.9711 -21.9601 -21.9516 -21.9385 -21.9184 -21.8976 -21.8799
   -18.3114 -18.3109 -18.2710 -18.2706 -18.2670 -18.2665 -18.2344 -18.2340
   -18.2300 -18.2297 -18.2078 -18.2073 -18.1717 -18.1713 -18.1426 -18.1421
   -18.0665 -18.0660 -18.0604 -18.0600 -18.0415 -18.0411 -18.0349 -18.0345
   -18.0231 -18.0227 -17.9495 -17.9491 -17.9144 -17.9140 -17.8983 -17.8978
   -17.8752 -17.8748 -17.8678 -17.8674 -17.8562 -17.8558 -17.7939 -17.7934
   -17.7787 -17.7783 -16.5108 -16.5104 -16.4942 -16.4938 -16.4927 -16.4923
   -14.9699 -14.9683 -14.7015 -14.7004 -14.4281 -14.4262 -14.4061 -14.4055
   -14.3646 -14.3634 -14.3343 -14.3317 -14.3238 -14.3056 -14.2872 -14.2843
   -14.2243 -14.2213 -14.2028 -14.1995 -14.1992 -14.1892 -14.1770 -14.1747
   -14.1646 -14.1313 -14.1279 -14.1092 -14.1076 -14.0723 -14.0714 -14.0486
   -14.0398 -14.0310 -14.0108 -14.0068 -13.9711 -13.9644 -13.9636 -13.9629
   -13.9552 -13.9432 -13.9377 -13.9328 -13.8749 -13.8716 -13.8599 -13.8594
   -13.8520 -13.8513 -13.8390 -13.8387 -13.8238 -13.8182 -13.8083 -13.8073
   -13.8004 -13.7960 -13.7924 -13.7915 -13.7908 -13.7903 -13.7815 -13.7797
   -13.7755 -13.7708 -13.7549 -13.7454 -13.7298 -13.7229 -13.7165 -13.7120
   -13.6915 -13.6850 -13.6809 -13.6755 -13.6601 -13.6558 -13.6500 -13.6470
   -13.6342 -13.6252 -13.6138 -13.6094 -13.5779 -13.5727 -13.5533 -13.5382
   -13.4246 -13.4033 -13.3703 -13.3337 -13.3174 -13.2984 -13.2949 -13.2821
   -13.2288 -13.2268 -13.2159 -13.1313 -13.1191 -13.1186 -13.1167 -13.1164
   -13.1114 -13.1114 -13.1040 -13.1040 -13.0956 -13.0812 -13.0812 -13.0807
   -13.0807 -13.0786 -13.0785 -13.0714 -13.0702 -13.0700 -13.0364 -13.0247
    -7.9608  -7.9604  -7.8934  -7.8328  -7.8197  -7.8196  -7.8154  -7.8147
    -7.7480  -7.7339  -7.6949  -7.6086  -7.5865  -7.5710  -7.5465  -7.5460
    -7.4974  -7.4972  -7.4949  -7.4744  -7.4736  -7.4704  -7.4494  -7.4490
    -7.4427  -7.4422  -7.4348  -7.4311  -7.4286  -7.4174  -7.4111  -7.4105
    -7.4088  -7.4081  -7.4052  -7.3991  -7.3969  -7.3944  -7.3849  -7.3828
    -7.3814  -7.3672  -7.3588  -7.3581  -7.3536  -7.3496  -7.3437  -7.3272
    -7.3246  -7.3002  -7.2975  -7.2973  -7.2947  -7.2933  -7.2832  -7.2828
    -7.2821  -7.2740  -7.2710  -7.2605  -7.2593  -7.2554  -7.2469  -7.2446
    -7.2401  -7.2316  -7.1899  -7.1820  -7.1704  -7.1515  -7.1088  -7.1019
    -7.1015  -7.0798  -7.0739  -7.0739  -7.0679  -7.0675  -7.0387  -7.0384
    -6.9801  -6.9798  -6.9795  -6.9524  -6.9489  -6.9484  -6.9476  -6.9439
    -6.9407  -6.9264  -6.9068  -6.8926  -6.8464  -6.8459  -6.8351  -6.8061
    -3.6446  -3.6352  -3.2139  -3.2041  -3.1143  -3.0938  -2.7691  -2.7652
    -2.7402  -2.7263  -2.7208  -2.7171  -2.5927  -2.5775  -2.5658  -2.5618
    -2.5547  -2.5302  -2.4702  -2.4398  -2.4299  -2.3305  -2.3202  -2.3016
    -2.2802  -2.2574  -2.1341  -2.1180  -2.0906  -2.0904  -2.0747  -2.0400
    -2.0130  -1.9983  -1.9966  -1.9892  -1.9723  -1.9713  -1.9684  -1.9349
    -1.9042  -1.9034  -1.8906  -1.8882  -1.8147  -1.8124  -1.8013  -1.8009
    -1.7837  -1.7828  -1.7456  -1.7424  -1.7349  -1.7235  -1.7226  -1.7187
    -1.7148  -1.6868  -1.6658  -1.6648  -1.6468  -1.6383  -1.6325  -1.6205
    -1.6189  -1.6097  -1.6011  -1.5914  -1.5879  -1.5529  -1.5389  -1.5283
    -1.5179  -1.5125  -1.5111  -1.5035  -1.4865  -1.4822  -1.4745  -1.4714
    -1.4439  -1.4413  -1.4316  -1.4271  -1.4123  -1.3993  -1.3525  -1.3497
    -1.3454  -1.3442  -1.3336  -1.3325  -1.3269  -1.3246  -1.3078  -1.3050
    -1.2975  -1.2952  -1.2941  -1.2931  -1.2888  -1.2880  -1.2755  -1.2711
    -1.2697  -1.2651  -1.2593  -1.2464  -1.2391  -1.2363  -1.2275  -1.1880
    -1.1789  -1.1688  -1.1666  -1.1432  -1.1058  -1.1031  -1.0523  -1.0333
    -1.0325  -1.0053  -0.9989  -0.9837  -0.9800  -0.9759  -0.9668  -0.9549
    -0.9294  -0.8925  -0.8775  -0.8461  -0.8332  -0.8170  -0.8119  -0.7762
    -0.7754  -0.7716  -0.7566  -0.7559  -0.7490  -0.7306  -0.7280  -0.7243
    -0.7057  -0.7041  -0.6871  -0.6852  -0.6808  -0.6749  -0.6538  -0.6442
    -0.6361  -0.5860  -0.5590  -0.5575  -0.5397  -0.5331  -0.5179  -0.5097
    -0.4976  -0.4861  -0.4841  -0.4756  -0.4696  -0.4613  -0.4522  -0.4416
    -0.4369  -0.4268  -0.4192  -0.4158  -0.3929  -0.3831  -0.3675  -0.3613
    -0.3494  -0.3469  -0.3312  -0.3245  -0.3189  -0.3163  -0.3083  -0.3010
    -0.2870  -0.2859  -0.2809  -0.2773  -0.2757  -0.2680  -0.2671  -0.2559
    -0.2497  -0.2469  -0.2324  -0.2255  -0.2222  -0.2206  -0.2187  -0.2149
    -0.2003  -0.1979  -0.1864  -0.1813  -0.1798  -0.1538  -0.1478  -0.1475
    -0.1411  -0.1266  -0.0946  -0.0790  -0.0754  -0.0717  -0.0677  -0.0348
    -0.0314  -0.0225  -0.0100  -0.0065   0.0074   0.0152   0.0220   0.0237
     0.0253   0.0267   0.0299   0.0412   0.0714   0.0828   0.0849   0.0856
     0.0899   0.1237   0.1722   0.1756   0.1898   0.2034   0.2056   0.2063
     0.2150   0.2156   0.2159   0.2214   0.2221   0.2487   0.2530   0.2676
     0.2927   0.2959   0.2967   0.2999   0.3043   0.3134   0.3157   0.3255
     0.3263   0.3295   0.3431   0.3606   0.3672   0.3725   0.3790   0.3794
     0.3818   0.3835   0.3909   0.3969   0.4052   0.4073   0.4092   0.4139
     0.4249   0.4407   0.4514   0.4592   0.4656   0.4663   0.4764   0.4991
     0.4996   0.5133   0.5145   0.5299   0.5608   0.5656   0.6274   0.6403
     0.6405   0.6449   0.6475   0.6616   0.6784   0.6932   0.6992   0.7076
     0.7111   0.7153   0.7223   0.7383   0.7449   0.7477   0.7563   0.7597
     0.7649   0.7659   0.7686   0.7752   0.7784   0.7798   0.7844   0.7878
     0.7937   0.7953   0.8039   0.8139   0.8160   0.8168   0.8399   0.8438
     0.8501   0.8583   0.8595   0.8665   0.8701   0.8767   0.8813   0.8838
     0.8941   0.8974   0.8996   0.9154   0.9186   0.9240   0.9297   0.9429
     0.9563   0.9589   0.9627   0.9684   0.9715   0.9791   0.9815   0.9850
     0.9873   0.9971   1.0240   1.0403   1.0421   1.0434   1.0465   1.0737
     1.0783   1.0816   1.1134   1.1241   1.1280   1.1841   1.1883   1.1930
     1.2092   1.2121   1.2260   1.2336   1.2465   1.2594   1.2720   1.3327
     1.3359   1.3506   1.3544   1.3625   1.3660   1.3674   1.3715   1.3807
     1.3858   1.3977   1.4043   1.4098   1.4153   1.4226   1.4241   1.4280
     1.4329   1.4519   1.4651   1.4700   1.4751   1.4898   1.4918   1.5035
     1.5056   1.5111   1.5215   1.5259   1.5337   1.5372   1.5442   1.5471
     1.5589   1.5607   1.5665   1.5697   1.5725   1.5838   1.6018   1.6110
     1.6151   1.6217   1.6249   1.6295   1.6327   1.6388   1.6430   1.6437
     1.6507   1.6521   1.6530   1.6567   1.6641   1.6657   1.6682   1.6720
     1.6739   1.6758   1.6854   1.6992   1.7044   1.7089   1.7136   1.7288
     1.7312   1.7405   1.7414   1.7444   1.7540   1.7621   1.7676   1.7701
     1.7725   1.7830   1.7867   1.8014   1.8053   1.8213   1.8281   1.8425
     1.8444   1.8483   1.8498   1.8573   1.8579   1.8600   1.8649   1.8687
     1.8844   1.8896   1.8984   1.9019   1.9023   1.9109   1.9155   1.9325
     1.9330   1.9502   1.9556   1.9603   1.9665   1.9714   1.9735   1.9763
     1.9862   1.9916   1.9923   2.0074   2.0109   2.0139   2.0203   2.0237
     2.0295   2.0353   2.0369   2.0466   2.0564   2.0592   2.0637   2.0694
     2.0751   2.0805   2.0840   2.0908   2.1002   2.1030   2.1125   2.1176
     2.1291   2.1369   2.1421   2.1649   2.1656   2.1693   2.1844   2.1859
     2.1879   2.1923   2.2034   2.2081   2.2114   2.2183   2.2211   2.2306
     2.2347   2.2382   2.2391   2.2457   2.2506   2.2676   2.2719   2.2782
     2.2815   2.2856   2.2896   2.2927   2.3013   2.3016   2.3019   2.3052
     2.3152   2.3197   2.3287   2.3444   2.3456   2.3467   2.3488   2.3567
     2.3679   2.3712   2.3734   2.3812   2.3853   2.3929   2.4097   2.4128
     2.4183   2.4408   2.4583   2.4692   2.4723   2.4873   2.5086   2.5221
     2.5388   2.5800   2.5816   2.5884   2.5972   2.5987   2.6073   2.6109
     2.6154   2.6232   2.6647   2.6712   2.6816   2.6818   2.6931   2.6956
     2.7050   2.7635   2.7754   2.7755   2.7900   2.8267   2.8457   2.8460
     2.8474   2.8544   2.8605   2.8647   2.8667   2.8675   2.8722   2.8755
     2.8790   2.8823   2.8851   2.8968   2.9134   2.9255   2.9257   2.9308
     2.9364   3.0000   3.0058   3.0325   3.0547   3.0620   3.0771   3.0773
     3.1501   3.1795   3.1996   3.2075   3.2130   3.2300   3.2390   3.2540
     3.2825   3.3400   3.3483   3.3590   3.4166   3.4239   3.5141   3.5299
     3.5407   3.5415   3.5478   3.5501   3.5591   3.5644   3.5723   3.6125
     3.6241   3.6557   3.6717   3.7511   4.2743   4.2761   4.4128   4.4217
     4.5305   4.5674   4.6794   4.7921   4.7925   4.8418   4.9027   4.9049
     5.7077   5.7114   5.9903   6.2387   6.2392   6.2932   6.4669   6.5529
     6.6400   6.6419   6.7201   6.8055   6.8061   6.8748   6.9927   7.0294
     7.0327   7.0391   7.0409   7.0655   7.0860   7.0971   7.0974   7.2184
     7.2226   7.3074   7.3289   7.3399   7.3632   7.4092   7.4190   7.6247
     7.6602   7.6831   7.6913   7.7334   7.7526   7.7882   7.8005   7.9255
     7.9912   8.0141   8.0401   8.0455   8.0543   8.0576   8.0666   8.0799
     8.0828   8.0912   8.1493   8.1756   8.1776   8.2509   8.2582   8.2920
     8.3524   8.3537   8.3730   8.3881   8.4136   8.4390   8.4891   8.4924
     8.5333   8.5820   8.6424   8.6508   8.6531   8.6841   8.7174   8.7190
     8.7198   8.7222   8.8186   8.8361   8.8409   8.8941   8.9079   8.9169
     8.9526   8.9864   8.9881   9.0447   9.0547   9.0632   9.1223   9.1450
     9.1544   9.1623   9.2203   9.2329   9.2461   9.2540   9.2757   9.2886
     9.2975   9.2984   9.3436   9.3522   9.3714   9.3878   9.3922   9.4040
     9.4174   9.4262   9.4395   9.4604   9.4778   9.4935   9.4981   9.5028
     9.5151   9.5474   9.5535   9.5819   9.5913   9.5926   9.5976   9.6010
     9.6103   9.6144   9.6383   9.6439   9.6686   9.6734   9.7043   9.7156
     9.7227   9.7438   9.7538   9.7562   9.7670   9.7798   9.7906   9.7945
     9.8047   9.8220   9.8262   9.8528   9.8548   9.8617   9.8743   9.8764
     9.8969   9.9380

          k = 0.0000 0.4648 0.0000 (272882 PWs)   bands (ev):

   -37.7881 -37.7877 -37.7437 -37.7433 -37.7403 -37.7399 -37.7334 -37.7330
   -37.7310 -37.7305 -37.7212 -37.7207 -37.7198 -37.7194 -35.2683 -35.2679
   -22.1901 -22.1900 -22.1399 -22.1399 -22.1390 -22.1388 -22.1286 -22.1286
   -22.0988 -22.0692 -22.0492 -22.0491 -22.0486 -22.0464 -22.0442 -22.0439
   -22.0422 -22.0422 -22.0325 -22.0229 -22.0216 -22.0070 -22.0016 -22.0014
   -21.9562 -21.9512 -21.9450 -21.9351 -21.9284 -21.9264 -21.9041 -21.8870
   -18.3423 -18.3418 -18.2739 -18.2734 -18.2603 -18.2600 -18.2412 -18.2409
   -18.2152 -18.2148 -18.1724 -18.1721 -18.1345 -18.1340 -18.1326 -18.1321
   -18.0714 -18.0708 -18.0641 -18.0637 -18.0481 -18.0476 -18.0420 -18.0417
   -18.0358 -18.0353 -17.9700 -17.9696 -17.9410 -17.9406 -17.9084 -17.9080
   -17.8830 -17.8826 -17.8717 -17.8713 -17.8643 -17.8638 -17.7940 -17.7936
   -17.7306 -17.7301 -16.5107 -16.5103 -16.4933 -16.4930 -16.4923 -16.4919
   -14.8860 -14.8843 -14.7037 -14.7030 -14.6329 -14.6321 -14.4764 -14.4748
   -14.3653 -14.3632 -14.3296 -14.3281 -14.3099 -14.2953 -14.2733 -14.2717
   -14.1875 -14.1855 -14.1817 -14.1780 -14.1722 -14.1713 -14.1546 -14.1500
   -14.1197 -14.1114 -14.1102 -14.0584 -14.0545 -14.0493 -14.0486 -14.0205
   -14.0192 -14.0140 -13.9888 -13.9833 -13.9794 -13.9282 -13.9274 -13.9256
   -13.9254 -13.9242 -13.9182 -13.9052 -13.8733 -13.8724 -13.8538 -13.8525
   -13.8495 -13.8488 -13.8475 -13.8467 -13.8463 -13.8432 -13.8379 -13.8243
   -13.8228 -13.8215 -13.8173 -13.8076 -13.7977 -13.7962 -13.7956 -13.7850
   -13.7842 -13.7672 -13.7600 -13.7589 -13.7479 -13.7474 -13.7451 -13.7368
   -13.7126 -13.7090 -13.7088 -13.7027 -13.6674 -13.6497 -13.6489 -13.6342
   -13.6295 -13.6281 -13.6247 -13.6181 -13.5737 -13.5682 -13.5600 -13.5347
   -13.3738 -13.3689 -13.3583 -13.3485 -13.3316 -13.3226 -13.3150 -13.2633
   -13.2624 -13.2493 -13.1800 -13.1734 -13.1358 -13.1354 -13.1242 -13.1242
   -13.1035 -13.0968 -13.0966 -13.0958 -13.0957 -13.0936 -13.0936 -13.0933
   -13.0933 -13.0636 -13.0636 -13.0600 -13.0593 -13.0547 -13.0392 -13.0377
    -7.8164  -7.8158  -7.7750  -7.7740  -7.7727  -7.7100  -7.6758  -7.6755
    -7.6725  -7.6721  -7.6696  -7.5862  -7.5637  -7.5630  -7.5612  -7.5608
    -7.5458  -7.5263  -7.5203  -7.5044  -7.4738  -7.4727  -7.4717  -7.4708
    -7.4654  -7.4647  -7.4362  -7.4351  -7.4147  -7.4129  -7.4072  -7.4047
    -7.4036  -7.3989  -7.3949  -7.3937  -7.3928  -7.3819  -7.3768  -7.3687
    -7.3532  -7.3521  -7.3514  -7.3492  -7.3472  -7.3427  -7.3406  -7.3388
    -7.3332  -7.3208  -7.3173  -7.2965  -7.2960  -7.2933  -7.2931  -7.2925
    -7.2886  -7.2882  -7.2681  -7.2594  -7.2594  -7.2390  -7.2376  -7.2212
    -7.2208  -7.2191  -7.2187  -7.2065  -7.1985  -7.1881  -7.1868  -7.1596
    -7.1558  -7.1501  -7.1499  -7.1498  -7.1404  -7.1139  -7.1080  -7.0518
    -7.0464  -7.0459  -7.0354  -7.0351  -7.0292  -7.0289  -6.9508  -6.9280
    -6.9275  -6.9141  -6.9087  -6.8927  -6.8845  -6.8762  -6.8375  -6.7752
    -3.5277  -3.5199  -3.1056  -3.0904  -3.0549  -3.0417  -3.0296  -3.0139
    -2.9692  -2.9606  -2.6991  -2.6904  -2.6657  -2.6372  -2.6213  -2.5868
    -2.3646  -2.3402  -2.3347  -2.3347  -2.3195  -2.3055  -2.3040  -2.2973
    -2.2654  -2.1735  -2.1573  -2.1401  -2.1380  -2.1255  -2.0661  -2.0383
    -2.0381  -2.0375  -2.0373  -2.0100  -1.9294  -1.9287  -1.9196  -1.8985
    -1.8824  -1.8803  -1.8735  -1.8730  -1.8600  -1.8567  -1.8385  -1.8293
    -1.8288  -1.8270  -1.8214  -1.7771  -1.7653  -1.7621  -1.7588  -1.7533
    -1.6883  -1.6881  -1.6332  -1.6294  -1.6248  -1.6086  -1.5960  -1.5941
    -1.5681  -1.5576  -1.5564  -1.5463  -1.5410  -1.5363  -1.5176  -1.5151
    -1.5117  -1.5103  -1.5072  -1.5064  -1.5010  -1.4880  -1.4591  -1.4455
    -1.4249  -1.4126  -1.4105  -1.3969  -1.3872  -1.3824  -1.3817  -1.3791
    -1.3770  -1.3646  -1.3524  -1.3511  -1.3462  -1.3445  -1.3363  -1.3334
    -1.3230  -1.3214  -1.3156  -1.3127  -1.3006  -1.3004  -1.2996  -1.2993
    -1.2946  -1.2937  -1.2877  -1.2774  -1.2763  -1.2726  -1.2683  -1.2609
    -1.2569  -1.2491  -1.2315  -1.2271  -1.2225  -1.2134  -1.1887  -1.1846
    -1.1604  -1.1478  -1.1425  -1.1348  -1.0746  -1.0424  -1.0372  -1.0089
    -0.8728  -0.8307  -0.8272  -0.8109  -0.8004  -0.7722  -0.7674  -0.7554
    -0.7552  -0.7456  -0.7194  -0.6975  -0.6943  -0.6941  -0.6753  -0.6155
    -0.6076  -0.5944  -0.5912  -0.5327  -0.5162  -0.5122  -0.5047  -0.5013
    -0.5003  -0.4853  -0.4751  -0.4676  -0.4593  -0.4554  -0.4484  -0.4420
    -0.4398  -0.4248  -0.4244  -0.4154  -0.4149  -0.4134  -0.4114  -0.4052
    -0.4009  -0.3950  -0.3886  -0.3858  -0.3818  -0.3722  -0.3645  -0.3549
    -0.3539  -0.3447  -0.3372  -0.3338  -0.3194  -0.3120  -0.3114  -0.3104
    -0.3073  -0.3056  -0.3022  -0.2977  -0.2976  -0.2937  -0.2920  -0.2772
    -0.2484  -0.2385  -0.2235  -0.2208  -0.2099  -0.1794  -0.1746  -0.1732
    -0.1726  -0.1622  -0.1527  -0.1501  -0.1471  -0.1138  -0.0849  -0.0801
    -0.0712  -0.0707  -0.0668  -0.0638  -0.0594  -0.0581  -0.0538  -0.0416
    -0.0164  -0.0128   0.0034   0.0056   0.0068   0.0210   0.0264   0.0291
     0.0302   0.0304   0.0741   0.0742   0.0775   0.0806   0.0817   0.0836
     0.0868   0.0938   0.0987   0.1009   0.1296   0.1534   0.1609   0.1613
     0.1674   0.1692   0.1698   0.1704   0.1713   0.1920   0.1921   0.2383
     0.2503   0.2591   0.2685   0.2833   0.2896   0.2933   0.3187   0.3204
     0.3225   0.3232   0.3236   0.3263   0.3280   0.3281   0.3305   0.3383
     0.3396   0.3422   0.3456   0.3463   0.3489   0.3625   0.3715   0.3795
     0.4277   0.4280   0.4580   0.4616   0.4756   0.4838   0.4938   0.4948
     0.5302   0.5377   0.5735   0.5738   0.5784   0.6263   0.6631   0.6660
     0.6663   0.6698   0.6699   0.6706   0.6732   0.6879   0.6888   0.6900
     0.6907   0.6963   0.6969   0.7084   0.7159   0.7467   0.7475   0.7505
     0.7595   0.7689   0.7702   0.7705   0.7750   0.7796   0.7810   0.7849
     0.7980   0.8001   0.8012   0.8063   0.8194   0.8209   0.8229   0.8232
     0.8279   0.8381   0.8417   0.8425   0.8426   0.8623   0.8624   0.8697
     0.8966   0.9007   0.9409   0.9451   0.9461   0.9467   0.9481   0.9491
     0.9523   0.9786   1.0216   1.0337   1.0421   1.0490   1.0615   1.0779
     1.0856   1.0920   1.0959   1.0966   1.0987   1.1199   1.1240   1.1245
     1.1262   1.1292   1.1339   1.1522   1.1563   1.1756   1.1785   1.1840
     1.1998   1.2070   1.2276   1.2371   1.2377   1.2455   1.2531   1.2539
     1.2577   1.2610   1.2620   1.2675   1.2990   1.3009   1.3091   1.3517
     1.3556   1.3585   1.3609   1.3642   1.3887   1.4123   1.4163   1.4227
     1.4269   1.4296   1.4461   1.4550   1.4570   1.5108   1.5184   1.5249
     1.5260   1.5319   1.5324   1.5360   1.5469   1.5487   1.5644   1.5647
     1.5671   1.5711   1.5769   1.5773   1.5946   1.6050   1.6128   1.6202
     1.6292   1.6339   1.6386   1.6448   1.6453   1.6496   1.6523   1.6608
     1.6622   1.6744   1.6773   1.6840   1.6848   1.6882   1.6924   1.7054
     1.7106   1.7140   1.7342   1.7348   1.7401   1.7416   1.7450   1.7499
     1.7528   1.7647   1.7651   1.7685   1.7716   1.7723   1.7844   1.7919
     1.7953   1.7973   1.7994   1.8003   1.8041   1.8160   1.8208   1.8266
     1.8267   1.8441   1.8525   1.8581   1.8633   1.8649   1.8698   1.8864
     1.8962   1.8977   1.9039   1.9056   1.9256   1.9330   1.9350   1.9410
     1.9524   1.9553   1.9655   1.9677   1.9690   1.9764   1.9842   1.9971
     1.9981   2.0010   2.0041   2.0060   2.0071   2.0108   2.0250   2.0254
     2.0396   2.0419   2.0500   2.0583   2.0609   2.0625   2.0688   2.0691
     2.0705   2.0721   2.0755   2.0764   2.0889   2.1006   2.1049   2.1077
     2.1135   2.1263   2.1318   2.1458   2.1484   2.1590   2.1600   2.1620
     2.1702   2.1705   2.1778   2.1826   2.1908   2.1991   2.2018   2.2116
     2.2149   2.2249   2.2332   2.2426   2.2462   2.2567   2.2586   2.2659
     2.2692   2.2705   2.2708   2.2792   2.2857   2.2868   2.3008   2.3050
     2.3173   2.3185   2.3302   2.3355   2.3447   2.3498   2.3509   2.3538
     2.3608   2.3909   2.3927   2.3939   2.3986   2.4053   2.4056   2.4195
     2.4199   2.4201   2.4230   2.4257   2.4288   2.4296   2.4533   2.4996
     2.5101   2.5205   2.5362   2.5386   2.5404   2.5524   2.5526   2.5643
     2.6151   2.6167   2.6355   2.6431   2.6473   2.6619   2.6680   2.6757
     2.6765   2.6865   2.6913   2.6940   2.7066   2.7194   2.7200   2.7335
     2.7610   2.7699   2.7753   2.7766   2.7934   2.8324   2.8328   2.8348
     2.8353   2.8635   2.8686   2.8915   2.9003   2.9082   2.9104   2.9154
     2.9486   2.9703   2.9735   3.0209   3.0213   3.0214   3.0217   3.0409
     3.0439   3.0488   3.1942   3.1953   3.2090   3.2189   3.2195   3.2219
     3.2568   3.2705   3.3438   3.3513   3.5119   3.5361   3.5366   3.5450
     3.5453   3.5523   3.5618   3.5660   3.5733   3.5773   3.6205   3.7738
     4.0623   4.0657   4.0735   4.0766   4.2122   4.2174   4.2240   4.2303
     4.4864   4.5278   4.5294   4.5833   4.6611   4.6673   4.7730   4.7750
     6.0260   6.0273   6.1508   6.2130   6.2133   6.2143   6.2147   6.5318
     6.6504   6.7903   6.7924   6.8468   6.8525   6.8614   6.9670   6.9769
     7.0007   7.1394   7.1560   7.1818   7.1824   7.2016   7.2028   7.2762
     7.2765   7.3170   7.3181   7.3197   7.3240   7.4276   7.4614   7.4890
     7.4911   7.4923   7.5038   7.5178   7.5672   7.6372   7.6424   7.6603
     7.7012   7.7152   7.9771   7.9797   8.0305   8.1552   8.1987   8.2073
     8.2141   8.2228   8.2494   8.2796   8.2892   8.2902   8.2965   8.3224
     8.3305   8.3337   8.3570   8.4291   8.4593   8.4598   8.5143   8.5398
     8.5786   8.5896   8.6144   8.6389   8.6677   8.6955   8.7482   8.7544
     8.7651   8.7669   8.7832   8.8638   8.8673   8.8697   8.8798   8.8803
     8.8851   8.8874   8.9699   8.9707   9.0024   9.0246   9.0680   9.0745
     9.0956   9.1073   9.1239   9.1372   9.1567   9.1589   9.1650   9.1724
     9.1952   9.2282   9.2366   9.2561   9.3128   9.3164   9.3246   9.3549
     9.3772   9.3839   9.4082   9.4326   9.5392   9.5632   9.5715   9.5801
     9.5859   9.5986   9.6061   9.6274   9.6313   9.6592   9.6772   9.6823
     9.6827   9.7005   9.7229   9.7374   9.7416   9.7459   9.7504   9.7522
     9.7758   9.7766   9.8094   9.8097   9.8155   9.8344   9.8543   9.8689
     9.9009   9.9172   9.9262   9.9281   9.9550   9.9662   9.9739   9.9860
     9.9938  10.0140

          k =-0.4783-0.0000 0.0000 (272820 PWs)   bands (ev):

   -37.7881 -37.7877 -37.7430 -37.7426 -37.7413 -37.7409 -37.7335 -37.7331
   -37.7305 -37.7300 -37.7212 -37.7208 -37.7198 -37.7194 -35.2683 -35.2679
   -22.1826 -22.1825 -22.1551 -22.1550 -22.1482 -22.1479 -22.1087 -22.1086
   -22.0905 -22.0656 -22.0655 -22.0648 -22.0628 -22.0547 -22.0365 -22.0364
   -22.0362 -22.0289 -22.0285 -22.0273 -22.0128 -22.0094 -22.0093 -21.9915
   -21.9731 -21.9489 -21.9422 -21.9325 -21.9236 -21.9137 -21.9123 -21.8934
   -18.3063 -18.3059 -18.2942 -18.2938 -18.2733 -18.2728 -18.2385 -18.2382
   -18.2099 -18.2095 -18.2068 -18.2063 -18.1542 -18.1538 -18.1214 -18.1210
   -18.0640 -18.0636 -18.0525 -18.0521 -18.0436 -18.0432 -18.0379 -18.0374
   -18.0258 -18.0254 -17.9769 -17.9763 -17.9276 -17.9272 -17.9069 -17.9065
   -17.8905 -17.8901 -17.8803 -17.8799 -17.8555 -17.8550 -17.7794 -17.7789
   -17.7511 -17.7507 -16.5108 -16.5104 -16.4939 -16.4935 -16.4922 -16.4918
   -14.8944 -14.8932 -14.6786 -14.6771 -14.6299 -14.6287 -14.5059 -14.5050
   -14.4055 -14.4037 -14.2798 -14.2786 -14.2724 -14.2657 -14.2535 -14.2436
   -14.2326 -14.2267 -14.1965 -14.1942 -14.1841 -14.1742 -14.1330 -14.1153
   -14.1136 -14.0933 -14.0869 -14.0778 -14.0713 -14.0194 -14.0163 -14.0128
   -14.0021 -14.0015 -13.9871 -13.9806 -13.9775 -13.9680 -13.9640 -13.9449
   -13.9430 -13.9370 -13.9285 -13.9246 -13.9098 -13.9021 -13.8889 -13.8794
   -13.8790 -13.8728 -13.8696 -13.8670 -13.8529 -13.8465 -13.8407 -13.8317
   -13.8191 -13.8176 -13.8171 -13.8163 -13.7987 -13.7975 -13.7819 -13.7808
   -13.7775 -13.7747 -13.7568 -13.7486 -13.7162 -13.7145 -13.6999 -13.6992
   -13.6964 -13.6912 -13.6664 -13.6629 -13.6605 -13.6598 -13.6482 -13.6424
   -13.6325 -13.6110 -13.6023 -13.5917 -13.5897 -13.5691 -13.5506 -13.4987
   -13.4912 -13.4452 -13.3802 -13.3350 -13.3062 -13.2961 -13.2754 -13.2744
   -13.2608 -13.2100 -13.2068 -13.1731 -13.1334 -13.1334 -13.1330 -13.1330
   -13.1086 -13.1056 -13.1054 -13.1039 -13.0946 -13.0946 -13.0894 -13.0894
   -13.0827 -13.0825 -13.0630 -13.0629 -13.0618 -13.0617 -13.0293 -13.0107
    -7.8394  -7.8386  -7.7232  -7.7204  -7.7169  -7.7152  -7.6884  -7.6880
    -7.6849  -7.6845  -7.6831  -7.6157  -7.6099  -7.6065  -7.6023  -7.5766
    -7.5569  -7.4769  -7.4761  -7.4621  -7.4568  -7.4489  -7.4475  -7.4417
    -7.4404  -7.4372  -7.4358  -7.4306  -7.4292  -7.4287  -7.4210  -7.4206
    -7.4137  -7.4126  -7.3982  -7.3963  -7.3912  -7.3830  -7.3792  -7.3740
    -7.3693  -7.3672  -7.3665  -7.3592  -7.3440  -7.3424  -7.3324  -7.3323
    -7.3297  -7.3289  -7.3282  -7.3282  -7.3185  -7.3176  -7.3145  -7.3097
    -7.2948  -7.2852  -7.2580  -7.2489  -7.2478  -7.2437  -7.2403  -7.2328
    -7.2232  -7.2230  -7.2136  -7.2132  -7.1835  -7.1828  -7.1693  -7.1639
    -7.1551  -7.1544  -7.1124  -7.1075  -7.1070  -7.0888  -7.0813  -7.0806
    -7.0804  -7.0581  -7.0019  -6.9987  -6.9716  -6.9684  -6.9682  -6.9643
    -6.9607  -6.9602  -6.9462  -6.9437  -6.8591  -6.8486  -6.8217  -6.8123
    -3.4780  -3.4661  -3.2036  -3.1972  -3.1389  -3.1320  -2.9671  -2.9377
    -2.8139  -2.7848  -2.7783  -2.7659  -2.7483  -2.7351  -2.5868  -2.5403
    -2.5363  -2.4717  -2.4199  -2.3974  -2.3724  -2.3641  -2.1730  -2.1657
    -2.1655  -2.1583  -2.1523  -2.1359  -2.1102  -2.1101  -2.0600  -2.0475
    -2.0045  -1.9866  -1.9850  -1.9822  -1.9653  -1.9646  -1.9069  -1.8952
    -1.8884  -1.8836  -1.8722  -1.8717  -1.8085  -1.8064  -1.7942  -1.7920
    -1.7300  -1.7238  -1.7165  -1.7163  -1.7073  -1.6998  -1.6719  -1.6611
    -1.6457  -1.6454  -1.6044  -1.6001  -1.5924  -1.5894  -1.5795  -1.5729
    -1.5702  -1.5581  -1.5567  -1.5473  -1.5389  -1.5272  -1.5265  -1.5258
    -1.5241  -1.5182  -1.4967  -1.4733  -1.4715  -1.4686  -1.4660  -1.4655
    -1.4643  -1.4625  -1.4616  -1.4393  -1.3994  -1.3988  -1.3935  -1.3884
    -1.3867  -1.3858  -1.3796  -1.3777  -1.3671  -1.3604  -1.3564  -1.3542
    -1.3310  -1.3303  -1.3248  -1.3242  -1.3093  -1.3082  -1.3056  -1.2962
    -1.2954  -1.2945  -1.2935  -1.2902  -1.2625  -1.2584  -1.2567  -1.2368
    -1.2313  -1.2205  -1.2176  -1.2137  -1.1972  -1.1970  -1.1946  -1.1943
    -1.1827  -1.1744  -1.1676  -1.1569  -1.1527  -1.1159  -1.1121  -1.1023
    -1.0920  -1.0709  -1.0022  -0.9525  -0.9441  -0.9296  -0.8659  -0.8566
    -0.7484  -0.7281  -0.7214  -0.7027  -0.7012  -0.6930  -0.6642  -0.6187
    -0.6050  -0.5636  -0.5612  -0.5194  -0.5165  -0.5147  -0.5110  -0.5061
    -0.4907  -0.4785  -0.4707  -0.4594  -0.4574  -0.4473  -0.4441  -0.4406
    -0.4163  -0.4160  -0.4158  -0.4057  -0.3740  -0.3696  -0.3569  -0.3527
    -0.3511  -0.3384  -0.3346  -0.3315  -0.3294  -0.3291  -0.3287  -0.3283
    -0.3268  -0.3236  -0.3189  -0.3156  -0.3129  -0.3052  -0.3020  -0.3015
    -0.2981  -0.2955  -0.2949  -0.2932  -0.2921  -0.2884  -0.2834  -0.2572
    -0.2516  -0.2451  -0.2404  -0.2347  -0.2306  -0.2133  -0.2069  -0.1812
    -0.1563  -0.1545  -0.1482  -0.1429  -0.1353  -0.1307  -0.1163  -0.1161
    -0.1146  -0.1132  -0.0971  -0.0949  -0.0929  -0.0920  -0.0916  -0.0881
    -0.0552  -0.0471  -0.0469   0.0001   0.0207   0.0213   0.0284   0.0301
     0.0347   0.0426   0.0639   0.0669   0.0925   0.0928   0.0996   0.1014
     0.1034   0.1036   0.1092   0.1215   0.1287   0.1342   0.1463   0.1509
     0.1610   0.1667   0.1673   0.1796   0.1847   0.1949   0.2275   0.2309
     0.2346   0.2459   0.2532   0.2896   0.3129   0.3245   0.3260   0.3268
     0.3289   0.3309   0.3425   0.3483   0.3489   0.3509   0.3527   0.3601
     0.3623   0.3975   0.4059   0.4229   0.4256   0.4511   0.4637   0.4691
     0.4701   0.4702   0.4709   0.4726   0.5048   0.5155   0.5585   0.5586
     0.5619   0.5763   0.5764   0.5815   0.5872   0.5931   0.6037   0.6141
     0.6145   0.6254   0.6459   0.6510   0.6626   0.6841   0.6864   0.6889
     0.7040   0.7047   0.7055   0.7106   0.7146   0.7288   0.7405   0.7425
     0.7569   0.7602   0.7689   0.7703   0.7753   0.7767   0.7878   0.7973
     0.8064   0.8161   0.8341   0.8428   0.8508   0.8523   0.8536   0.8540
     0.8959   0.8964   0.8969   0.9013   0.9073   0.9105   0.9438   0.9454
     0.9498   0.9609   0.9640   0.9641   0.9693   0.9702   0.9704   0.9756
     0.9804   0.9805   0.9812   0.9832   0.9851   0.9982   0.9987   1.0026
     1.0138   1.0195   1.0274   1.0353   1.0359   1.0468   1.0472   1.1027
     1.1122   1.1319   1.1375   1.1490   1.1521   1.1635   1.1808   1.1893
     1.1917   1.1995   1.2155   1.2233   1.2344   1.2434   1.2442   1.2584
     1.2633   1.2675   1.2786   1.2868   1.2888   1.2944   1.3006   1.3192
     1.3204   1.3226   1.3255   1.3325   1.3415   1.3443   1.3945   1.3957
     1.4082   1.4238   1.4427   1.4792   1.4816   1.4947   1.4956   1.5044
     1.5123   1.5136   1.5232   1.5351   1.5485   1.5489   1.5533   1.5546
     1.5594   1.5646   1.5690   1.5794   1.5828   1.5885   1.5901   1.5921
     1.5965   1.6031   1.6139   1.6179   1.6259   1.6267   1.6332   1.6442
     1.6645   1.6701   1.6751   1.6811   1.6876   1.6911   1.6988   1.6993
     1.7016   1.7071   1.7106   1.7225   1.7246   1.7308   1.7381   1.7489
     1.7576   1.7580   1.7751   1.7774   1.7795   1.7844   1.7871   1.7885
     1.7890   1.7985   1.8013   1.8161   1.8337   1.8371   1.8525   1.8581
     1.8587   1.8733   1.8813   1.8871   1.8890   1.8949   1.8996   1.9044
     1.9053   1.9075   1.9097   1.9103   1.9160   1.9243   1.9281   1.9326
     1.9444   1.9485   1.9566   1.9620   1.9626   1.9770   1.9794   1.9907
     1.9932   1.9948   1.9994   2.0006   2.0204   2.0237   2.0295   2.0332
     2.0413   2.0487   2.0528   2.0547   2.0708   2.0744   2.0814   2.0833
     2.0939   2.0965   2.1056   2.1178   2.1187   2.1211   2.1242   2.1257
     2.1274   2.1323   2.1378   2.1420   2.1580   2.1691   2.1797   2.2032
     2.2039   2.2082   2.2140   2.2141   2.2147   2.2173   2.2201   2.2203
     2.2280   2.2283   2.2400   2.2447   2.2612   2.2692   2.2696   2.2751
[...]
     atom   59 type  5   force =    -0.00027529    0.00000000    0.00004024
     atom   60 type  5   force =     0.00000000    0.00000000    0.00045705
     atom   61 type  5   force =     0.00000000    0.00000000   -0.00002080
     atom   62 type  5   force =     0.00000000    0.00000000   -0.00002080
     atom   63 type  5   force =     0.00000000   -0.00002545   -0.00008268
     atom   64 type  5   force =     0.00000000    0.00002545   -0.00008268
     atom   65 type  4   force =    -0.00030752    0.00005153   -0.00010784
     atom   66 type  4   force =    -0.00030752   -0.00005153   -0.00010784
     atom   67 type  4   force =     0.00030752    0.00005153   -0.00010784
     atom   68 type  4   force =     0.00030752   -0.00005153   -0.00010784
     atom   69 type  4   force =     0.00000000   -0.00015473   -0.00045721
     atom   70 type  4   force =     0.00000000    0.00015473   -0.00045721
     atom   71 type  4   force =    -0.00010865   -0.00005451   -0.00000241
     atom   72 type  4   force =    -0.00010865    0.00005451   -0.00000241
     atom   73 type  4   force =     0.00010865    0.00005451   -0.00000241
     atom   74 type  4   force =     0.00010865   -0.00005451   -0.00000241
     atom   75 type  4   force =     0.00017309    0.00000000    0.00003869
     atom   76 type  4   force =    -0.00017309    0.00000000    0.00003869
     atom   77 type  4   force =     0.00000000   -0.00027002    0.00044815
     atom   78 type  4   force =     0.00000000    0.00027002    0.00044815
     atom   79 type  4   force =     0.00011612    0.00000000   -0.00043745
     atom   80 type  4   force =    -0.00011612    0.00000000   -0.00043745
     atom   81 type  3   force =     0.00008022    0.00001316   -0.00013223
     atom   82 type  3   force =     0.00008022   -0.00001316   -0.00013223
     atom   83 type  3   force =    -0.00008022    0.00001316   -0.00013223
     atom   84 type  3   force =    -0.00008022   -0.00001316   -0.00013223
     atom   85 type  3   force =     0.00002995    0.00000797   -0.00022876
     atom   86 type  3   force =    -0.00002995    0.00000797   -0.00022876
     atom   87 type  3   force =    -0.00002995   -0.00000797   -0.00022876
     atom   88 type  3   force =     0.00002995   -0.00000797   -0.00022876
     atom   89 type  1   force =     0.00000000    0.00000000    0.00001646
     atom   90 type  1   force =     0.00000000    0.00001896   -0.00042169
     atom   91 type  1   force =     0.00000000   -0.00001896   -0.00042169
     atom   92 type  1   force =     0.00004122    0.00000000    0.00013040
     atom   93 type  1   force =    -0.00004122    0.00000000    0.00013040
     atom   94 type  1   force =     0.00000000    0.00000000   -0.00026694
     atom   95 type  1   force =     0.00000000    0.00000000   -0.00026694
     atom   96 type  1   force =     0.00000000    0.00000000   -0.00002182
     atom   97 type  4   force =    -0.00004812   -0.00005049   -0.00028169
     atom   98 type  4   force =    -0.00004812    0.00005049   -0.00028169
     atom   99 type  4   force =     0.00004812   -0.00005049   -0.00028169
     atom  100 type  4   force =     0.00004812    0.00005049   -0.00028169
     atom  101 type  4   force =    -0.00015509   -0.00032223   -0.00033733
     atom  102 type  4   force =     0.00015509   -0.00032223   -0.00033733
     atom  103 type  4   force =     0.00015509    0.00032223   -0.00033733
     atom  104 type  4   force =    -0.00015509    0.00032223   -0.00033733
     atom  105 type  4   force =     0.00012218    0.00000000    0.00006523
     atom  106 type  4   force =    -0.00012218    0.00000000    0.00006523
     atom  107 type  3   force =    -0.00012491    0.00029506    0.00000292
     atom  108 type  3   force =    -0.00012491   -0.00029506    0.00000292
     atom  109 type  3   force =     0.00012491   -0.00029506    0.00000292
     atom  110 type  3   force =     0.00012491    0.00029506    0.00000292
     atom  111 type  3   force =    -0.00053693   -0.00012653    0.00000402
     atom  112 type  3   force =     0.00053693    0.00012653    0.00000402
     atom  113 type  3   force =    -0.00053693    0.00012653    0.00000402
     atom  114 type  3   force =     0.00053693   -0.00012653    0.00000402
     atom  115 type  4   force =     0.00006165   -0.00031257   -0.00005803
     atom  116 type  4   force =    -0.00006165   -0.00031257   -0.00005803
     atom  117 type  4   force =     0.00006165    0.00031257   -0.00005803
     atom  118 type  4   force =    -0.00006165    0.00031257   -0.00005803
     atom  119 type  4   force =     0.00004717    0.00000000    0.00003298
     atom  120 type  4   force =    -0.00004717    0.00000000    0.00003298
     atom  121 type  4   force =    -0.00015526   -0.00028047    0.00035486
     atom  122 type  4   force =     0.00015526   -0.00028047    0.00035486
     atom  123 type  4   force =     0.00015526    0.00028047    0.00035486
     atom  124 type  4   force =    -0.00015526    0.00028047    0.00035486
     atom  125 type  4   force =    -0.00004750   -0.00011299    0.00030222
     atom  126 type  4   force =    -0.00004750    0.00011299    0.00030222
     atom  127 type  4   force =     0.00004750   -0.00011299    0.00030222
     atom  128 type  4   force =     0.00004750    0.00011299    0.00030222
     atom  129 type  1   force =     0.00000000    0.00000000    0.00003865
     atom  130 type  1   force =     0.00000000    0.00000000    0.00026598
     atom  131 type  1   force =     0.00000000    0.00000000    0.00026598
     atom  132 type  1   force =    -0.00002749    0.00000000   -0.00015692
     atom  133 type  1   force =     0.00002749    0.00000000   -0.00015692
     atom  134 type  1   force =     0.00000000   -0.00001939    0.00041884
     atom  135 type  1   force =     0.00000000    0.00001939    0.00041884
     atom  136 type  1   force =     0.00000000    0.00000000   -0.00003849
     atom  137 type  3   force =    -0.00002912    0.00000787    0.00022346
     atom  138 type  3   force =    -0.00002912   -0.00000787    0.00022346
     atom  139 type  3   force =     0.00002912   -0.00000787    0.00022346
     atom  140 type  3   force =     0.00002912    0.00000787    0.00022346
     atom  141 type  3   force =     0.00007858    0.00001202    0.00013755
     atom  142 type  3   force =     0.00007858   -0.00001202    0.00013755
     atom  143 type  3   force =    -0.00007858    0.00001202    0.00013755
     atom  144 type  3   force =    -0.00007858   -0.00001202    0.00013755
     atom  145 type  4   force =     0.00012304    0.00000000    0.00043086
     atom  146 type  4   force =    -0.00012304    0.00000000    0.00043086
     atom  147 type  4   force =     0.00000000    0.00026514   -0.00046841
     atom  148 type  4   force =     0.00000000   -0.00026514   -0.00046841
     atom  149 type  4   force =     0.00017568    0.00000000   -0.00004582
     atom  150 type  4   force =    -0.00017568    0.00000000   -0.00004582
     atom  151 type  4   force =    -0.00010784    0.00005470    0.00000628
     atom  152 type  4   force =     0.00010784    0.00005470    0.00000628
     atom  153 type  4   force =     0.00010784   -0.00005470    0.00000628
     atom  154 type  4   force =    -0.00010784   -0.00005470    0.00000628
     atom  155 type  4   force =     0.00000000    0.00014832    0.00044893
     atom  156 type  4   force =     0.00000000   -0.00014832    0.00044893
     atom  157 type  4   force =     0.00030574   -0.00005143    0.00009789
     atom  158 type  4   force =    -0.00030574    0.00005143    0.00009789
     atom  159 type  4   force =     0.00030574    0.00005143    0.00009789
     atom  160 type  4   force =    -0.00030574   -0.00005143    0.00009789
     atom  161 type  2   force =     0.00000000    0.00000000   -0.00018402
     atom  162 type  5   force =     0.00027639    0.00000000   -0.00005207
     atom  163 type  5   force =    -0.00027639    0.00000000   -0.00005207
     atom  164 type  5   force =     0.00000000    0.00000000   -0.00046776
     atom  165 type  5   force =     0.00000000    0.00000000    0.00001347
     atom  166 type  5   force =     0.00000000    0.00000000    0.00001347
     atom  167 type  5   force =     0.00000000   -0.00002456    0.00008008
     atom  168 type  5   force =     0.00000000    0.00002456    0.00008008
     atom  169 type  4   force =    -0.00010040   -0.00001490   -0.00002644
     atom  170 type  4   force =    -0.00010040    0.00001490   -0.00002644
     atom  171 type  4   force =     0.00010040   -0.00001490   -0.00002644
     atom  172 type  4   force =     0.00010040    0.00001490   -0.00002644
     atom  173 type  4   force =     0.00000000    0.00002734    0.00012920
     atom  174 type  4   force =     0.00000000   -0.00002734    0.00012920
     atom  175 type  4   force =    -0.00002822   -0.00000820    0.00015882
     atom  176 type  4   force =    -0.00002822    0.00000820    0.00015882
     atom  177 type  4   force =     0.00002822    0.00000820    0.00015882
     atom  178 type  4   force =     0.00002822   -0.00000820    0.00015882
     atom  179 type  4   force =     0.00004985    0.00000000    0.00017648
     atom  180 type  4   force =    -0.00004985    0.00000000    0.00017648
     atom  181 type  4   force =     0.00000000   -0.00003429    0.00004923
     atom  182 type  4   force =     0.00000000    0.00003429    0.00004923
     atom  183 type  4   force =    -0.00013842    0.00000000    0.00028953
     atom  184 type  4   force =     0.00013842    0.00000000    0.00028953
     atom  185 type  3   force =     0.00004265    0.00002211    0.00023319
     atom  186 type  3   force =     0.00004265   -0.00002211    0.00023319
     atom  187 type  3   force =    -0.00004265    0.00002211    0.00023319
     atom  188 type  3   force =    -0.00004265   -0.00002211    0.00023319
     atom  189 type  3   force =     0.00004189   -0.00000039    0.00016234
     atom  190 type  3   force =    -0.00004189   -0.00000039    0.00016234
     atom  191 type  3   force =    -0.00004189    0.00000039    0.00016234
     atom  192 type  3   force =     0.00004189    0.00000039    0.00016234
     atom  193 type  1   force =     0.00000000    0.00000000    0.00009699
     atom  194 type  1   force =     0.00000000   -0.00009847    0.00021102
     atom  195 type  1   force =     0.00000000    0.00009847    0.00021102
     atom  196 type  1   force =     0.00018689    0.00000000   -0.00003684
     atom  197 type  1   force =    -0.00018689    0.00000000   -0.00003684
     atom  198 type  1   force =     0.00000000    0.00000000    0.00007460
     atom  199 type  1   force =     0.00000000    0.00000000    0.00007460
     atom  200 type  1   force =     0.00000000    0.00000000   -0.00001151
     atom  201 type  4   force =     0.00002719    0.00008499   -0.00053290
     atom  202 type  4   force =     0.00002719   -0.00008499   -0.00053290
     atom  203 type  4   force =    -0.00002719    0.00008499   -0.00053290
     atom  204 type  4   force =    -0.00002719   -0.00008499   -0.00053290
     atom  205 type  4   force =     0.00003057    0.00004580   -0.00040844
     atom  206 type  4   force =    -0.00003057    0.00004580   -0.00040844
     atom  207 type  4   force =    -0.00003057   -0.00004580   -0.00040844
     atom  208 type  4   force =     0.00003057   -0.00004580   -0.00040844
     atom  209 type  4   force =     0.00011139    0.00000000   -0.00019631
     atom  210 type  4   force =    -0.00011139    0.00000000   -0.00019631
     atom  211 type  3   force =     0.00008518   -0.00006839    0.00018516
     atom  212 type  3   force =     0.00008518    0.00006839    0.00018516
     atom  213 type  3   force =    -0.00008518    0.00006839    0.00018516
     atom  214 type  3   force =    -0.00008518   -0.00006839    0.00018516
     atom  215 type  3   force =    -0.00000935   -0.00001798    0.00032853
     atom  216 type  3   force =     0.00000935    0.00001798    0.00032853
     atom  217 type  3   force =    -0.00000935    0.00001798    0.00032853
     atom  218 type  3   force =     0.00000935   -0.00001798    0.00032853
     atom  219 type  4   force =    -0.00010314    0.00007637   -0.00012787
     atom  220 type  4   force =     0.00010314    0.00007637   -0.00012787
     atom  221 type  4   force =    -0.00010314   -0.00007637   -0.00012787
     atom  222 type  4   force =     0.00010314   -0.00007637   -0.00012787
     atom  223 type  4   force =    -0.00016731    0.00000000   -0.00014698
     atom  224 type  4   force =     0.00016731    0.00000000   -0.00014698

     Total force =     0.004333     Total SCF correction =     0.000036


     Computing stress (Cartesian axis) and pressure


     negative rho (up, down):  6.350E-01 0.000E+00
          total   stress  (Ry/bohr**3)                   (kbar)     P=        0.26
   0.00000238   0.00000000   0.00000000            0.35        0.00        0.00
   0.00000000   0.00000180   0.00000000            0.00        0.26        0.00
   0.00000000   0.00000000   0.00000117            0.00        0.00        0.17

 
     init_run     :    157.80s CPU    163.35s WALL (       2 calls)
     electrons    : 170282.14s CPU 176512.87s WALL (      42 calls)
     update_pot   :    460.64s CPU    463.73s WALL (      40 calls)
     forces       :   1500.97s CPU   1582.88s WALL (      42 calls)
     stress       :  19118.80s CPU  19300.78s WALL (      42 calls)

     Called by init_run:
     wfcinit      :    124.87s CPU    127.73s WALL (       2 calls)
     potinit      :      8.10s CPU      8.24s WALL (       2 calls)
     hinit0       :     10.72s CPU     10.83s WALL (       2 calls)

     Called by electrons:
     c_bands      : 143796.40s CPU 146249.11s WALL (    1530 calls)
     sum_band     :  17806.12s CPU  19860.03s WALL (    1530 calls)
     v_of_rho     :    381.51s CPU    387.20s WALL (    1572 calls)
     newd         :   3198.17s CPU   4930.14s WALL (    1572 calls)
     mix_rho      :   5138.29s CPU   5167.39s WALL (    1530 calls)

     Called by c_bands:
     init_us_2    :    381.41s CPU    399.89s WALL (   12584 calls)
     cegterg      : 140595.56s CPU 142947.75s WALL (    6189 calls)

     Called by sum_band:
     sum_band:bec :    140.52s CPU    141.49s WALL (    6120 calls)
     addusdens    :   2629.35s CPU   4555.27s WALL (    1530 calls)

     Called by *egterg:
     h_psi        :  56045.63s CPU  56859.84s WALL (   29090 calls)
     s_psi        :  15619.36s CPU  15770.10s WALL (   29090 calls)
     g_psi        :     67.29s CPU     69.08s WALL (   22893 calls)
     cdiaghg      :  27938.10s CPU  28034.94s WALL (   28856 calls)

     Called by h_psi:
     h_psi:calbec :  17490.89s CPU  17582.82s WALL (   29090 calls)
     vloc_psi     :  22800.80s CPU  23074.20s WALL (   29090 calls)
     add_vuspsi   :  15627.13s CPU  15789.68s WALL (   29090 calls)

     General routines
     calbec       :  29668.80s CPU  29799.26s WALL (   36050 calls)
     fft          :    469.60s CPU    473.44s WALL (   21442 calls)
     ffts         :   3137.14s CPU   3154.62s WALL ( 1352650 calls)
     fftw         :  25786.42s CPU  26085.08s WALL (35546214 calls)
     interpolate  :     34.57s CPU     34.93s WALL (    1572 calls)
 
     Parallel routines
     fft_scatt_xy :   3077.85s CPU   3116.65s WALL (36920306 calls)
     fft_scatt_yz :  17315.24s CPU  17500.55s WALL (36920306 calls)
 
     PWSCF        :   2d 5h13m CPU   2d 7h 3m WALL

 
   This run was terminated on:   4:19:45   7May2021            

=------------------------------------------------------------------------------=
   JOB DONE.
=------------------------------------------------------------------------------=
[1620375585.472448] [holy7c04307:215401:0]          mpool.c:43   UCX  WARN  object 0x5a2bcc0 was not returned to mpool ucp_requests
[1620375585.483049] [holy7c04212:245881:0]          mpool.c:43   UCX  WARN  object 0x620fec0 was not returned to mpool ucp_requests
[1620375585.484049] [holy7c04310:156668:0]          mpool.c:43   UCX  WARN  object 0x2b02e00 was not returned to mpool ucp_requests
[1620375585.482617] [holy7c04405:266102:0]          mpool.c:43   UCX  WARN  object 0x2d6dcc0 was not returned to mpool ucp_requests
[1620375585.484784] [holy7c04304:128415:0]          mpool.c:43   UCX  WARN  object 0x448b340 was not returned to mpool ucp_requests
[1620375585.493618] [holy7c04201:100931:0]          mpool.c:43   UCX  WARN  object 0x406b980 was not returned to mpool ucp_requests
[1620375585.472810] [holy7c04307:215409:0]          mpool.c:43   UCX  WARN  object 0x4c24600 was not returned to mpool ucp_requests
[1620375585.472747] [holy7c04307:215402:0]          mpool.c:43   UCX  WARN  object 0x342e540 was not returned to mpool ucp_requests
[1620375585.481034] [holy7c04307:215410:0]          mpool.c:43   UCX  WARN  object 0x37b70c0 was not returned to mpool ucp_requests
[1620375585.481060] [holy7c04307:215408:0]          mpool.c:43   UCX  WARN  object 0x44e3c80 was not returned to mpool ucp_requests
[1620375585.481823] [holy7c04307:215403:0]          mpool.c:43   UCX  WARN  object 0x328ae00 was not returned to mpool ucp_requests
[1620375585.487843] [holy7c04405:266104:0]          mpool.c:43   UCX  WARN  object 0x4683340 was not returned to mpool ucp_requests
[1620375585.480069] [holy7c04212:245889:0]          mpool.c:43   UCX  WARN  object 0x31eb500 was not returned to mpool ucp_requests
[1620375585.493112] [holy7c04310:156674:0]          mpool.c:43   UCX  WARN  object 0x3b0b400 was not returned to mpool ucp_requests
[1620375585.503991] [holy7c04212:245883:0]          mpool.c:43   UCX  WARN  object 0x4691580 was not returned to mpool ucp_requests
[1620375585.479912] [holy7c04212:245890:0]          mpool.c:43   UCX  WARN  object 0x3a83280 was not returned to mpool ucp_requests
[1620375585.493406] [holy7c04405:266103:0]          mpool.c:43   UCX  WARN  object 0x287a8c0 was not returned to mpool ucp_requests
[1620375585.498366] [holy7c04212:245882:0]          mpool.c:43   UCX  WARN  object 0x4576cc0 was not returned to mpool ucp_requests
[1620375585.477614] [holy7c04310:156673:0]          mpool.c:43   UCX  WARN  object 0x3b46540 was not returned to mpool ucp_requests
[1620375585.498650] [holy7c04212:245880:0]          mpool.c:43   UCX  WARN  object 0x33216c0 was not returned to mpool ucp_requests
[1620375585.499094] [holy7c04405:266101:0]          mpool.c:43   UCX  WARN  object 0x446ef40 was not returned to mpool ucp_requests
[1620375585.489715] [holy7c04212:245891:0]          mpool.c:43   UCX  WARN  object 0x32f9340 was not returned to mpool ucp_requests
[1620375585.485708] [holy7c04304:128416:0]          mpool.c:43   UCX  WARN  object 0x43f6e40 was not returned to mpool ucp_requests
[1620375585.494937] [holy7c04304:128413:0]          mpool.c:43   UCX  WARN  object 0x3b14700 was not returned to mpool ucp_requests
[1620375585.488358] [holy7c04307:215400:0]          mpool.c:43   UCX  WARN  object 0x34e4800 was not returned to mpool ucp_requests
[1620375585.512240] [holy7c04201:100933:0]          mpool.c:43   UCX  WARN  object 0x42e9c00 was not returned to mpool ucp_requests
[1620375585.492095] [holy7c04212:245888:0]          mpool.c:43   UCX  WARN  object 0x450ce00 was not returned to mpool ucp_requests
[1620375585.486002] [holy7c04310:156676:0]          mpool.c:43   UCX  WARN  object 0x45a09c0 was not returned to mpool ucp_requests
[1620375585.498508] [holy7c04310:156675:0]          mpool.c:43   UCX  WARN  object 0x410b280 was not returned to mpool ucp_requests
[1620375585.538927] [holy7c04201:100932:0]          mpool.c:43   UCX  WARN  object 0x3268440 was not returned to mpool ucp_requests
[1620375585.532787] [holy7c04304:128414:0]          mpool.c:43   UCX  WARN  object 0x424d480 was not returned to mpool ucp_requests
[1620375585.532809] [holy7c04304:128414:0]          mpool.c:43   UCX  WARN  object 0x2a63880 was not returned to mpool ucp_requests
