
     Program PWSCF v.6.5 starts on  3May2021 at 16:14: 0 

     This program is part of the open-source Quantum ESPRESSO suite
     for quantum simulation of materials; please cite
         "P. Giannozzi et al., J. Phys.:Condens. Matter 21 395502 (2009);
         "P. Giannozzi et al., J. Phys.:Condens. Matter 29 465901 (2017);
          URL http://www.quantum-espresso.org", 
     in publications or presentations arising from this work. More details at
     http://www.quantum-espresso.org/quote

     Parallel version (MPI), running on    80 processors

     MPI processes distributed on    26 nodes
     R & G space division:  proc/nbgrp/npool/nimage =      80
     Reading input from dYBCO_rt2_111_0vac_NOcleave_0sep.pwi

     Current dimensions of program PWSCF are:
     Max number of different atomic species (ntypx) = 10
     Max number of k-points (npk) =  40000
     Max angular momentum in pseudopotentials (lmaxx) =  3

     Subspace diagonalization in iterative solution of the eigenvalue problem:
     one sub-group per band group will be used
     scalapack distributed-memory algorithm (size of sub-group:  8*  8 procs)

     Message from routine setup:
     using ibrav=0 with symmetry is DISCOURAGED, use correct ibrav instead
 
     Parallelization info
     --------------------
     sticks:   dense  smooth     PW     G-vecs:    dense   smooth      PW
     Min         303     101     27                38211     7353    1013
     Max         304     102     28                38220     7358    1018
     Sum       24309    8109   2177              3057233   588385   81161
 


     bravais-lattice index     =            0
     lattice parameter (alat)  =      20.6056  a.u.
     unit-cell volume          =    9371.6055 (a.u.)^3
     number of atoms/cell      =          104
     number of atomic types    =            5
     number of electrons       =       847.00
     number of Kohn-Sham states=          509
     kinetic-energy cutoff     =      60.0000  Ry
     charge density cutoff     =     720.0000  Ry
     convergence threshold     =      1.0E-06
     mixing beta               =       0.2000
     number of iterations used =           10  local-TF  mixing
     Exchange-correlation= SLA PW PBE PBE
                           (   1   4   3   4   0   0   0)
     nstep                     =          300


     celldm(1)=  20.605642  celldm(2)=   0.000000  celldm(3)=   0.000000
     celldm(4)=   0.000000  celldm(5)=   0.000000  celldm(6)=   0.000000

     crystal axes: (cart. coord. in units of alat)
               a(1) = (   1.000000   0.000000   0.000000 )  
               a(2) = (   0.000000   1.000000   0.000000 )  
               a(3) = (   0.000000   0.000000   1.071163 )  

     reciprocal axes: (cart. coord. in units 2 pi/alat)
               b(1) = (  1.000000  0.000000  0.000000 )  
               b(2) = (  0.000000  1.000000  0.000000 )  
               b(3) = (  0.000000  0.000000  0.933565 )  


     PseudoPot. # 1 for Ba read from file:
     ./pseudo/Ba.pbe-nsp-van.UPF
     MD5 check sum: 2b9c31dd849566dd297d80989662b7a0
     Pseudo is Ultrasoft + core correction, Zval = 10.0
     Generated by new atomic code, or converted to UPF format
     Using radial grid of  907 points,  6 beta functions with: 
                l(1) =   0
                l(2) =   0
                l(3) =   1
                l(4) =   1
                l(5) =   2
                l(6) =   2
     Q(r) pseudized with  6 coefficients,  rinner =    1.200   1.200   1.200
                                                       1.200   1.200

     PseudoPot. # 2 for Ca read from file:
     ./pseudo/Ca.pbe-nsp-van.UPF
     MD5 check sum: 6471098428ff4fa451746d08035ff179
     Pseudo is Ultrasoft + core correction, Zval = 10.0
     Generated by new atomic code, or converted to UPF format
     Using radial grid of  845 points,  6 beta functions with: 
                l(1) =   0
                l(2) =   0
                l(3) =   1
                l(4) =   1
                l(5) =   2
                l(6) =   2
     Q(r) pseudized with  6 coefficients,  rinner =    1.200   1.200   1.200
                                                       1.200   1.200

     PseudoPot. # 3 for Cu read from file:
     ./pseudo/Cu.pbe-n-van_ak.UPF
     MD5 check sum: 34e3282627ffb533726feb647e090d62
     Pseudo is Ultrasoft + core correction, Zval = 11.0
     Generated by new atomic code, or converted to UPF format
     Using radial grid of  867 points,  6 beta functions with: 
                l(1) =   0
                l(2) =   0
                l(3) =   1
                l(4) =   1
                l(5) =   2
                l(6) =   2
     Q(r) pseudized with  8 coefficients,  rinner =    1.400   1.400   1.400
                                                       1.400   1.400

     PseudoPot. # 4 for O  read from file:
     ./pseudo/O.pbe-van_ak.UPF
     MD5 check sum: 783ce7fe4c79b6a4916957118fed0856
     Pseudo is Ultrasoft, Zval =  6.0
     Generated by new atomic code, or converted to UPF format
     Using radial grid of  737 points,  4 beta functions with: 
                l(1) =   0
                l(2) =   0
                l(3) =   1
                l(4) =   1
     Q(r) pseudized with  8 coefficients,  rinner =    0.800   0.800   0.800


     PseudoPot. # 5 for Y  read from file:
     ./pseudo/Y.pbe-nsp-van.UPF
     MD5 check sum: 4412fed3ab108fed87a1b7d6a69a4a38
     Pseudo is Ultrasoft + core correction, Zval = 11.0
     Generated by new atomic code, or converted to UPF format
     Using radial grid of  885 points,  6 beta functions with: 
                l(1) =   0
                l(2) =   0
                l(3) =   1
                l(4) =   1
                l(5) =   2
                l(6) =   2
     Q(r) pseudized with  6 coefficients,  rinner =    1.200   1.200   1.200
                                                       1.200   1.200

     atomic species   valence    mass     pseudopotential
        Ba            10.00   137.32700     Ba( 1.00)
        Ca            10.00    40.07800     Ca( 1.00)
        Cu            11.00    63.54600     Cu( 1.00)
        O              6.00    15.99900     O ( 1.00)
        Y             11.00    88.90584     Y ( 1.00)

      4 Sym. Ops. (no inversion) found ( 3 have fractional translation)



   Cartesian axes

     site n.     atom                  positions (alat units)
         1           Cu  tau(   1) = (   0.0000000   0.0000000   0.0000000  )
         2           Cu  tau(   2) = (   0.2500001   0.2500001   0.0000000  )
         3           O   tau(   3) = (   0.1249996   0.1249996   0.0000000  )
         4           O   tau(   4) = (   0.3749997   0.3749997   0.0000000  )
         5           O   tau(   5) = (   0.0000000   0.0000000   0.1705075  )
         6           O   tau(   6) = (   0.2500001   0.2500001   0.1705075  )
         7           Ba  tau(   7) = (   0.2500001   0.0000000   0.1934623  )
         8           Ba  tau(   8) = (   0.0000000   0.2500001   0.1934623  )
         9           Cu  tau(   9) = (   0.0000000   0.0000000   0.3784635  )
        10           Cu  tau(  10) = (   0.2500001   0.2500001   0.3784635  )
        11           O   tau(  11) = (   0.1249996   0.1249996   0.4052747  )
        12           O   tau(  12) = (   0.3749997   0.3749997   0.4052747  )
        13           O   tau(  13) = (   0.1249996   0.3749997   0.4063459  )
        14           O   tau(  14) = (   0.3749997   0.1249996   0.4063459  )
        15           Y   tau(  15) = (   0.2500001   0.0000000   0.5355815  )
        16           Ca  tau(  16) = (   0.0000000   0.2500001   0.5355815  )
        17           O   tau(  17) = (   0.1249996   0.1249996   0.6648171  )
        18           O   tau(  18) = (   0.3749997   0.3749997   0.6648171  )
        19           O   tau(  19) = (   0.1249996   0.3749997   0.6658883  )
        20           O   tau(  20) = (   0.3749997   0.1249996   0.6658883  )
        21           Cu  tau(  21) = (   0.0000000   0.0000000   0.6926995  )
        22           Cu  tau(  22) = (   0.2500001   0.2500001   0.6926995  )
        23           Ba  tau(  23) = (   0.2500001   0.0000000   0.8777007  )
        24           Ba  tau(  24) = (   0.0000000   0.2500001   0.8777007  )
        25           O   tau(  25) = (   0.0000000   0.0000000   0.9006555  )
        26           O   tau(  26) = (   0.2500001   0.2500001   0.9006555  )
        27           Cu  tau(  27) = (   0.0000000   0.5000002   0.0000000  )
        28           Cu  tau(  28) = (   0.2500001   0.7500003   0.0000000  )
        29           O   tau(  29) = (   0.1249996   0.6249998   0.0000000  )
        30           O   tau(  30) = (   0.3749997   0.8749999   0.0000000  )
        31           O   tau(  31) = (   0.0000000   0.5000002   0.1705075  )
        32           O   tau(  32) = (   0.2500001   0.7500003   0.1705075  )
        33           Ba  tau(  33) = (   0.2500001   0.5000002   0.1934623  )
        34           Ba  tau(  34) = (   0.0000000   0.7500003   0.1934623  )
        35           Cu  tau(  35) = (   0.0000000   0.5000002   0.3784635  )
        36           Cu  tau(  36) = (   0.2500001   0.7500003   0.3784635  )
        37           O   tau(  37) = (   0.1249996   0.6249998   0.4052747  )
        38           O   tau(  38) = (   0.3749997   0.8749999   0.4052747  )
        39           O   tau(  39) = (   0.1249996   0.8749999   0.4063459  )
        40           O   tau(  40) = (   0.3749997   0.6249998   0.4063459  )
        41           Y   tau(  41) = (   0.2500001   0.5000002   0.5355815  )
        42           Y   tau(  42) = (   0.0000000   0.7500003   0.5355815  )
        43           O   tau(  43) = (   0.1249996   0.6249998   0.6648171  )
        44           O   tau(  44) = (   0.3749997   0.8749999   0.6648171  )
        45           O   tau(  45) = (   0.1249996   0.8749999   0.6658883  )
        46           O   tau(  46) = (   0.3749997   0.6249998   0.6658883  )
        47           Cu  tau(  47) = (   0.0000000   0.5000002   0.6926995  )
        48           Cu  tau(  48) = (   0.2500001   0.7500003   0.6926995  )
        49           Ba  tau(  49) = (   0.2500001   0.5000002   0.8777007  )
        50           Ba  tau(  50) = (   0.0000000   0.7500003   0.8777007  )
        51           O   tau(  51) = (   0.0000000   0.5000002   0.9006555  )
        52           O   tau(  52) = (   0.2500001   0.7500003   0.9006555  )
        53           Cu  tau(  53) = (   0.5000002   0.0000000   0.0000000  )
        54           Cu  tau(  54) = (   0.7500003   0.2500001   0.0000000  )
        55           O   tau(  55) = (   0.6249998   0.1249996   0.0000000  )
        56           O   tau(  56) = (   0.8749999   0.3749997   0.0000000  )
        57           O   tau(  57) = (   0.5000002   0.0000000   0.1705075  )
        58           O   tau(  58) = (   0.7500003   0.2500001   0.1705075  )
        59           Ba  tau(  59) = (   0.7500003   0.0000000   0.1934623  )
        60           Ba  tau(  60) = (   0.5000002   0.2500001   0.1934623  )
        61           Cu  tau(  61) = (   0.5000002   0.0000000   0.3784635  )
        62           Cu  tau(  62) = (   0.7500003   0.2500001   0.3784635  )
        63           O   tau(  63) = (   0.6249998   0.1249996   0.4052747  )
        64           O   tau(  64) = (   0.8749999   0.3749997   0.4052747  )
        65           O   tau(  65) = (   0.6249998   0.3749997   0.4063459  )
        66           O   tau(  66) = (   0.8749999   0.1249996   0.4063459  )
        67           Y   tau(  67) = (   0.7500003   0.0000000   0.5355815  )
        68           Y   tau(  68) = (   0.5000002   0.2500001   0.5355815  )
        69           O   tau(  69) = (   0.6249998   0.1249996   0.6648171  )
        70           O   tau(  70) = (   0.8749999   0.3749997   0.6648171  )
        71           O   tau(  71) = (   0.6249998   0.3749997   0.6658883  )
        72           O   tau(  72) = (   0.8749999   0.1249996   0.6658883  )
        73           Cu  tau(  73) = (   0.5000002   0.0000000   0.6926995  )
        74           Cu  tau(  74) = (   0.7500003   0.2500001   0.6926995  )
        75           Ba  tau(  75) = (   0.7500003   0.0000000   0.8777007  )
        76           Ba  tau(  76) = (   0.5000002   0.2500001   0.8777007  )
        77           O   tau(  77) = (   0.5000002   0.0000000   0.9006555  )
        78           O   tau(  78) = (   0.7500003   0.2500001   0.9006555  )
        79           Cu  tau(  79) = (   0.5000002   0.5000002   0.0000000  )
        80           Cu  tau(  80) = (   0.7500003   0.7500003   0.0000000  )
        81           O   tau(  81) = (   0.6249998   0.6249998   0.0000000  )
        82           O   tau(  82) = (   0.8749999   0.8749999   0.0000000  )
        83           O   tau(  83) = (   0.5000002   0.5000002   0.1705075  )
        84           O   tau(  84) = (   0.7500003   0.7500003   0.1705075  )
        85           Ba  tau(  85) = (   0.7500003   0.5000002   0.1934623  )
        86           Ba  tau(  86) = (   0.5000002   0.7500003   0.1934623  )
        87           Cu  tau(  87) = (   0.5000002   0.5000002   0.3784635  )
        88           Cu  tau(  88) = (   0.7500003   0.7500003   0.3784635  )
        89           O   tau(  89) = (   0.6249998   0.6249998   0.4052747  )
        90           O   tau(  90) = (   0.8749999   0.8749999   0.4052747  )
        91           O   tau(  91) = (   0.6249998   0.8749999   0.4063459  )
        92           O   tau(  92) = (   0.8749999   0.6249998   0.4063459  )
        93           Y   tau(  93) = (   0.7500003   0.5000002   0.5355815  )
        94           Y   tau(  94) = (   0.5000002   0.7500003   0.5355815  )
        95           O   tau(  95) = (   0.6249998   0.6249998   0.6648171  )
        96           O   tau(  96) = (   0.8749999   0.8749999   0.6648171  )
        97           O   tau(  97) = (   0.6249998   0.8749999   0.6658883  )
        98           O   tau(  98) = (   0.8749999   0.6249998   0.6658883  )
        99           Cu  tau(  99) = (   0.5000002   0.5000002   0.6926995  )
       100           Cu  tau( 100) = (   0.7500003   0.7500003   0.6926995  )
       101           Ba  tau( 101) = (   0.7500003   0.5000002   0.8777007  )
       102           Ba  tau( 102) = (   0.5000002   0.7500003   0.8777007  )
       103           O   tau( 103) = (   0.5000002   0.5000002   0.9006555  )
       104           O   tau( 104) = (   0.7500003   0.7500003   0.9006555  )

     number of k points=   105  Gaussian smearing, width (Ry)=  0.0100

     Number of k-points >= 100: set verbosity='high' to print them.

     Dense  grid:  3057233 G-vectors     FFT dimensions: ( 180, 180, 192)

     Smooth grid:   588385 G-vectors     FFT dimensions: ( 108, 108, 120)

     Estimated max dynamical RAM per process >       1.14 GB

     Estimated total dynamical RAM >      91.00 GB

     Initial potential from superposition of free atoms

     starting charge  846.43941, renormalised to  847.00000

     negative rho (up, down):  3.034E-01 0.000E+00
     Starting wfcs are  749 randomized atomic wfcs

     total cpu time spent up to now is      138.2 secs

     Self-consistent Calculation

     iteration #  1     ecut=    60.00 Ry     beta= 0.20
     Davidson diagonalization with overlap
     ethr =  1.00E-02,  avg # of iterations =  2.0

     negative rho (up, down):  3.017E-01 0.000E+00

     total cpu time spent up to now is      414.3 secs

     total energy              =   -6851.57444615 Ry
     Harris-Foulkes estimate   =   -6857.20956643 Ry
     estimated scf accuracy    <      41.52462319 Ry

     iteration #  2     ecut=    60.00 Ry     beta= 0.20
     Davidson diagonalization with overlap
     ethr =  4.90E-03,  avg # of iterations =  1.0

     negative rho (up, down):  2.994E-01 0.000E+00

     total cpu time spent up to now is      656.2 secs

     total energy              =   -6846.73567847 Ry
     Harris-Foulkes estimate   =   -6852.66186574 Ry
     estimated scf accuracy    <      18.66043509 Ry

     iteration #  3     ecut=    60.00 Ry     beta= 0.20
     Davidson diagonalization with overlap
     ethr =  2.20E-03,  avg # of iterations =  2.0

     negative rho (up, down):  3.011E-01 0.000E+00

     total cpu time spent up to now is      949.5 secs

     total energy              =   -6849.03842041 Ry
     Harris-Foulkes estimate   =   -6849.32820426 Ry
     estimated scf accuracy    <       1.89947375 Ry

     iteration #  4     ecut=    60.00 Ry     beta= 0.20
     Davidson diagonalization with overlap
     ethr =  2.24E-04,  avg # of iterations =  4.0

     negative rho (up, down):  3.044E-01 0.000E+00

     total cpu time spent up to now is     1322.1 secs

     total energy              =   -6848.92273216 Ry
     Harris-Foulkes estimate   =   -6849.24356473 Ry
     estimated scf accuracy    <       1.08894251 Ry

     iteration #  5     ecut=    60.00 Ry     beta= 0.20
     Davidson diagonalization with overlap
     ethr =  1.29E-04,  avg # of iterations =  8.3

     negative rho (up, down):  3.089E-01 0.000E+00

     total cpu time spent up to now is     1826.0 secs

     total energy              =   -6848.96698209 Ry
     Harris-Foulkes estimate   =   -6849.01966439 Ry
     estimated scf accuracy    <       0.22909108 Ry

     iteration #  6     ecut=    60.00 Ry     beta= 0.20
     Davidson diagonalization with overlap
     c_bands:  1 eigenvalues not converged
     c_bands:  1 eigenvalues not converged
     c_bands:  1 eigenvalues not converged
     ethr =  2.70E-05,  avg # of iterations = 11.6

     negative rho (up, down):  3.111E-01 0.000E+00

     total cpu time spent up to now is     2416.6 secs

     total energy              =   -6848.98034974 Ry
     Harris-Foulkes estimate   =   -6848.98534330 Ry
     estimated scf accuracy    <       0.03894870 Ry

     iteration #  7     ecut=    60.00 Ry     beta= 0.20
     Davidson diagonalization with overlap
     c_bands:  1 eigenvalues not converged
     c_bands:  2 eigenvalues not converged
     c_bands:  2 eigenvalues not converged
     c_bands:  1 eigenvalues not converged
     c_bands:  1 eigenvalues not converged
     c_bands:  1 eigenvalues not converged
     c_bands:  1 eigenvalues not converged
     c_bands:  1 eigenvalues not converged
     c_bands:  1 eigenvalues not converged
     c_bands:  1 eigenvalues not converged
     c_bands:  2 eigenvalues not converged
     c_bands:  2 eigenvalues not converged
     c_bands:  1 eigenvalues not converged
     c_bands:  1 eigenvalues not converged
     c_bands:  1 eigenvalues not converged
     c_bands:  1 eigenvalues not converged
     ethr =  4.60E-06,  avg # of iterations = 11.9

     negative rho (up, down):  3.125E-01 0.000E+00

     total cpu time spent up to now is     3150.2 secs

     total energy              =   -6848.97969634 Ry
     Harris-Foulkes estimate   =   -6848.98578887 Ry
     estimated scf accuracy    <       0.02068861 Ry

     iteration #  8     ecut=    60.00 Ry     beta= 0.20
     Davidson diagonalization with overlap
     c_bands:  1 eigenvalues not converged
     c_bands:  1 eigenvalues not converged
     c_bands:  1 eigenvalues not converged
     c_bands:  1 eigenvalues not converged
     c_bands:  1 eigenvalues not converged
     ethr =  2.44E-06,  avg # of iterations =  5.5

     negative rho (up, down):  3.129E-01 0.000E+00

     total cpu time spent up to now is     3641.9 secs

     total energy              =   -6848.98831652 Ry
     Harris-Foulkes estimate   =   -6848.98818242 Ry
     estimated scf accuracy    <       0.03159604 Ry

     iteration #  9     ecut=    60.00 Ry     beta= 0.20
     Davidson diagonalization with overlap
     ethr =  2.44E-06,  avg # of iterations =  1.2

     negative rho (up, down):  3.137E-01 0.000E+00

     total cpu time spent up to now is     3885.4 secs

     total energy              =   -6848.98427015 Ry
     Harris-Foulkes estimate   =   -6848.98842484 Ry
     estimated scf accuracy    <       0.02782067 Ry

     iteration # 10     ecut=    60.00 Ry     beta= 0.20
     Davidson diagonalization with overlap
     ethr =  2.44E-06,  avg # of iterations =  4.2

     negative rho (up, down):  3.135E-01 0.000E+00

     total cpu time spent up to now is     4212.9 secs

     total energy              =   -6848.98407736 Ry
     Harris-Foulkes estimate   =   -6848.98527447 Ry
     estimated scf accuracy    <       0.00806153 Ry

     iteration # 11     ecut=    60.00 Ry     beta= 0.20
     Davidson diagonalization with overlap
     ethr =  9.52E-07,  avg # of iterations =  3.0

     negative rho (up, down):  3.134E-01 0.000E+00

     total cpu time spent up to now is     4533.1 secs

     total energy              =   -6848.98507452 Ry
     Harris-Foulkes estimate   =   -6848.98487690 Ry
     estimated scf accuracy    <       0.00076489 Ry

     iteration # 12     ecut=    60.00 Ry     beta= 0.20
     Davidson diagonalization with overlap
     ethr =  9.03E-08,  avg # of iterations =  3.1

     negative rho (up, down):  3.134E-01 0.000E+00

     total cpu time spent up to now is     4903.9 secs

     total energy              =   -6848.98500282 Ry
     Harris-Foulkes estimate   =   -6848.98528877 Ry
     estimated scf accuracy    <       0.00213729 Ry

     iteration # 13     ecut=    60.00 Ry     beta= 0.20
     Davidson diagonalization with overlap
     ethr =  9.03E-08,  avg # of iterations =  3.6

     negative rho (up, down):  3.132E-01 0.000E+00

     total cpu time spent up to now is     5248.6 secs

     total energy              =   -6848.98510002 Ry
     Harris-Foulkes estimate   =   -6848.98510888 Ry
     estimated scf accuracy    <       0.00043663 Ry

     iteration # 14     ecut=    60.00 Ry     beta= 0.20
     Davidson diagonalization with overlap
     ethr =  5.15E-08,  avg # of iterations =  1.7

     negative rho (up, down):  3.133E-01 0.000E+00

     total cpu time spent up to now is     5506.2 secs

     total energy              =   -6848.98517179 Ry
     Harris-Foulkes estimate   =   -6848.98513203 Ry
     estimated scf accuracy    <       0.00004841 Ry

     iteration # 15     ecut=    60.00 Ry     beta= 0.20
     Davidson diagonalization with overlap
     c_bands:  2 eigenvalues not converged
     c_bands:  1 eigenvalues not converged
     ethr =  5.72E-09,  avg # of iterations =  5.6

     negative rho (up, down):  3.133E-01 0.000E+00

     total cpu time spent up to now is     5970.8 secs

     total energy              =   -6848.98521215 Ry
     Harris-Foulkes estimate   =   -6848.98518181 Ry
     estimated scf accuracy    <       0.00001472 Ry

     iteration # 16     ecut=    60.00 Ry     beta= 0.20
     Davidson diagonalization with overlap
     ethr =  1.74E-09,  avg # of iterations =  1.4

     negative rho (up, down):  3.134E-01 0.000E+00

     total cpu time spent up to now is     6219.2 secs

     total energy              =   -6848.98523244 Ry
     Harris-Foulkes estimate   =   -6848.98521276 Ry
     estimated scf accuracy    <       0.00000710 Ry

     iteration # 17     ecut=    60.00 Ry     beta= 0.20
     Davidson diagonalization with overlap
     ethr =  8.39E-10,  avg # of iterations =  2.0

     negative rho (up, down):  3.134E-01 0.000E+00

     total cpu time spent up to now is     6492.2 secs

     total energy              =   -6848.98524511 Ry
     Harris-Foulkes estimate   =   -6848.98523299 Ry
     estimated scf accuracy    <       0.00000400 Ry

     iteration # 18     ecut=    60.00 Ry     beta= 0.20
     Davidson diagonalization with overlap
     ethr =  4.72E-10,  avg # of iterations =  2.0

     negative rho (up, down):  3.133E-01 0.000E+00

     total cpu time spent up to now is     6771.9 secs

     End of self-consistent calculation

     Number of k-points >= 100: set verbosity='high' to print the bands.

     the Fermi energy is     9.6807 ev

!    total energy              =   -6848.98526831 Ry
     Harris-Foulkes estimate   =   -6848.98524555 Ry
     estimated scf accuracy    <       0.00000046 Ry

     The total energy is the sum of the following terms:

     one-electron contribution =   -2079.32822979 Ry
     hartree contribution      =    1806.37121572 Ry
     xc contribution           =   -2361.12205070 Ry
     ewald contribution        =   -4214.88661774 Ry
     smearing contrib. (-TS)   =      -0.01958579 Ry

     convergence has been achieved in  18 iterations
