
     Program PWSCF v.6.5 starts on  4May2021 at 15:37:49 

     This program is part of the open-source Quantum ESPRESSO suite
     for quantum simulation of materials; please cite
         "P. Giannozzi et al., J. Phys.:Condens. Matter 21 395502 (2009);
         "P. Giannozzi et al., J. Phys.:Condens. Matter 29 465901 (2017);
          URL http://www.quantum-espresso.org", 
     in publications or presentations arising from this work. More details at
     http://www.quantum-espresso.org/quote

     Parallel version (MPI), running on    80 processors

     MPI processes distributed on     5 nodes
     R & G space division:  proc/nbgrp/npool/nimage =      80
     Reading input from dYBCO_rt2_111_0vac_NOcleave_0sep_333_rn2.pwi

     Current dimensions of program PWSCF are:
     Max number of different atomic species (ntypx) = 10
     Max number of k-points (npk) =  40000
     Max angular momentum in pseudopotentials (lmaxx) =  3
     Message from routine volume:
     axis vectors are left-handed

     Subspace diagonalization in iterative solution of the eigenvalue problem:
     one sub-group per band group will be used
     scalapack distributed-memory algorithm (size of sub-group:  8*  8 procs)

     Message from routine setup:
     using ibrav=0 with symmetry is DISCOURAGED, use correct ibrav instead
 
     Parallelization info
     --------------------
     sticks:   dense  smooth     PW     G-vecs:    dense   smooth      PW
     Min         300     100     26                37714     7256     966
     Max         301     101     28                37719     7260     972
     Sum       24023    8011   2085              3017255   580715   77595
 


     bravais-lattice index     =            0
     lattice parameter (alat)  =      20.4729  a.u.
     unit-cell volume          =    9248.1095 (a.u.)^3
     number of atoms/cell      =          104
     number of atomic types    =            5
     number of electrons       =       847.00
     number of Kohn-Sham states=          509
     kinetic-energy cutoff     =      60.0000  Ry
     charge density cutoff     =     720.0000  Ry
     convergence threshold     =      1.0E-08
     mixing beta               =       0.5000
     number of iterations used =           10  local-TF  mixing
     Exchange-correlation= SLA PW PBE PBE
                           (   1   4   3   4   0   0   0)
     nstep                     =          300


     celldm(1)=  20.472913  celldm(2)=   0.000000  celldm(3)=   0.000000
     celldm(4)=   0.000000  celldm(5)=   0.000000  celldm(6)=   0.000000

     crystal axes: (cart. coord. in units of alat)
               a(1) = (  -0.697816   0.716277   0.000000 )  
               a(2) = (   0.697816   0.716277   0.000000 )  
               a(3) = (   0.000000   0.000000   1.078108 )  

     reciprocal axes: (cart. coord. in units 2 pi/alat)
               b(1) = ( -0.716521  0.698054  0.000000 )  
               b(2) = (  0.716521  0.698054  0.000000 )  
               b(3) = (  0.000000  0.000000  0.927551 )  


     PseudoPot. # 1 for Ba read from file:
     ./pseudo/Ba.pbe-nsp-van.UPF
     MD5 check sum: 2b9c31dd849566dd297d80989662b7a0
     Pseudo is Ultrasoft + core correction, Zval = 10.0
     Generated by new atomic code, or converted to UPF format
     Using radial grid of  907 points,  6 beta functions with: 
                l(1) =   0
                l(2) =   0
                l(3) =   1
                l(4) =   1
                l(5) =   2
                l(6) =   2
     Q(r) pseudized with  6 coefficients,  rinner =    1.200   1.200   1.200
                                                       1.200   1.200

     PseudoPot. # 2 for Ca read from file:
     ./pseudo/Ca.pbe-nsp-van.UPF
     MD5 check sum: 6471098428ff4fa451746d08035ff179
     Pseudo is Ultrasoft + core correction, Zval = 10.0
     Generated by new atomic code, or converted to UPF format
     Using radial grid of  845 points,  6 beta functions with: 
                l(1) =   0
                l(2) =   0
                l(3) =   1
                l(4) =   1
                l(5) =   2
                l(6) =   2
     Q(r) pseudized with  6 coefficients,  rinner =    1.200   1.200   1.200
                                                       1.200   1.200

     PseudoPot. # 3 for Cu read from file:
     ./pseudo/Cu.pbe-n-van_ak.UPF
     MD5 check sum: 34e3282627ffb533726feb647e090d62
     Pseudo is Ultrasoft + core correction, Zval = 11.0
     Generated by new atomic code, or converted to UPF format
     Using radial grid of  867 points,  6 beta functions with: 
                l(1) =   0
                l(2) =   0
                l(3) =   1
                l(4) =   1
                l(5) =   2
                l(6) =   2
     Q(r) pseudized with  8 coefficients,  rinner =    1.400   1.400   1.400
                                                       1.400   1.400

     PseudoPot. # 4 for O  read from file:
     ./pseudo/O.pbe-van_ak.UPF
     MD5 check sum: 783ce7fe4c79b6a4916957118fed0856
     Pseudo is Ultrasoft, Zval =  6.0
     Generated by new atomic code, or converted to UPF format
     Using radial grid of  737 points,  4 beta functions with: 
                l(1) =   0
                l(2) =   0
                l(3) =   1
                l(4) =   1
     Q(r) pseudized with  8 coefficients,  rinner =    0.800   0.800   0.800


     PseudoPot. # 5 for Y  read from file:
     ./pseudo/Y.pbe-nsp-van.UPF
     MD5 check sum: 4412fed3ab108fed87a1b7d6a69a4a38
     Pseudo is Ultrasoft + core correction, Zval = 11.0
     Generated by new atomic code, or converted to UPF format
     Using radial grid of  885 points,  6 beta functions with: 
                l(1) =   0
                l(2) =   0
                l(3) =   1
                l(4) =   1
                l(5) =   2
                l(6) =   2
     Q(r) pseudized with  6 coefficients,  rinner =    1.200   1.200   1.200
                                                       1.200   1.200

     atomic species   valence    mass     pseudopotential
        Ba            10.00   137.32700     Ba( 1.00)
        Ca            10.00    40.07800     Ca( 1.00)
        Cu            11.00    63.54600     Cu( 1.00)
        O              6.00    15.99900     O ( 1.00)
        Y             11.00    88.90584     Y ( 1.00)

      4 Sym. Ops. (no inversion) found ( 3 have fractional translation)



   Cartesian axes

     site n.     atom                  positions (alat units)
         1           Cu  tau(   1) = (   0.0000000   0.0000000   0.0000000  )
         2           Cu  tau(   2) = (   0.0000000   0.3581385   0.0000000  )
         3           O   tau(   3) = (   0.0000000   0.1790692   0.0000000  )
         4           O   tau(   4) = (   0.0000000   0.5372077   0.0000000  )
         5           O   tau(   5) = (   0.0000000   0.0000000   0.1716129  )
         6           O   tau(   6) = (   0.0000000   0.3581385   0.1716129  )
         7           Ba  tau(   7) = (  -0.1744540   0.1790692   0.1947166  )
         8           Ba  tau(   8) = (   0.1744540   0.1790692   0.1947166  )
         9           Cu  tau(   9) = (   0.0000000   0.0000000   0.3809172  )
        10           Cu  tau(  10) = (   0.0000000   0.3581385   0.3809172  )
        11           O   tau(  11) = (   0.0000000   0.1790692   0.4079022  )
        12           O   tau(  12) = (   0.0000000   0.5372077   0.4079022  )
        13           O   tau(  13) = (   0.1744540   0.3581385   0.4089803  )
        14           O   tau(  14) = (  -0.1744540   0.3581385   0.4089803  )
        15           Y   tau(  15) = (  -0.1744540   0.1790692   0.5390538  )
        16           Ca  tau(  16) = (   0.1744540   0.1790692   0.5390538  )
        17           O   tau(  17) = (   0.0000000   0.1790692   0.6691272  )
        18           O   tau(  18) = (   0.0000000   0.5372077   0.6691272  )
        19           O   tau(  19) = (   0.1744540   0.3581385   0.6702053  )
        20           O   tau(  20) = (  -0.1744540   0.3581385   0.6702053  )
        21           Cu  tau(  21) = (   0.0000000   0.0000000   0.6971903  )
        22           Cu  tau(  22) = (   0.0000000   0.3581385   0.6971903  )
        23           Ba  tau(  23) = (  -0.1744540   0.1790692   0.8833910  )
        24           Ba  tau(  24) = (   0.1744540   0.1790692   0.8833910  )
        25           O   tau(  25) = (   0.0000000   0.0000000   0.9064946  )
        26           O   tau(  26) = (   0.0000000   0.3581385   0.9064946  )
        27           Cu  tau(  27) = (   0.3489081   0.3581385   0.0000000  )
        28           Cu  tau(  28) = (   0.3489081   0.7162769   0.0000000  )
        29           O   tau(  29) = (   0.3489081   0.5372077   0.0000000  )
        30           O   tau(  30) = (   0.3489081   0.8953461   0.0000000  )
        31           O   tau(  31) = (   0.3489081   0.3581385   0.1716129  )
        32           O   tau(  32) = (   0.3489081   0.7162769   0.1716129  )
        33           Ba  tau(  33) = (   0.1744540   0.5372077   0.1947166  )
        34           Ba  tau(  34) = (   0.5233621   0.5372077   0.1947166  )
        35           Cu  tau(  35) = (   0.3489081   0.3581385   0.3809172  )
        36           Cu  tau(  36) = (   0.3489081   0.7162769   0.3809172  )
        37           O   tau(  37) = (   0.3489081   0.5372077   0.4079022  )
        38           O   tau(  38) = (   0.3489081   0.8953461   0.4079022  )
        39           O   tau(  39) = (   0.5233621   0.7162769   0.4089803  )
        40           O   tau(  40) = (   0.1744540   0.7162769   0.4089803  )
        41           Y   tau(  41) = (   0.1744540   0.5372077   0.5390538  )
        42           Y   tau(  42) = (   0.5233621   0.5372077   0.5390538  )
        43           O   tau(  43) = (   0.3489081   0.5372077   0.6691272  )
        44           O   tau(  44) = (   0.3489081   0.8953461   0.6691272  )
        45           O   tau(  45) = (   0.5233621   0.7162769   0.6702053  )
        46           O   tau(  46) = (   0.1744540   0.7162769   0.6702053  )
        47           Cu  tau(  47) = (   0.3489081   0.3581385   0.6971903  )
        48           Cu  tau(  48) = (   0.3489081   0.7162769   0.6971903  )
        49           Ba  tau(  49) = (   0.1744540   0.5372077   0.8833910  )
        50           Ba  tau(  50) = (   0.5233621   0.5372077   0.8833910  )
        51           O   tau(  51) = (   0.3489081   0.3581385   0.9064946  )
        52           O   tau(  52) = (   0.3489081   0.7162769   0.9064946  )
        53           Cu  tau(  53) = (  -0.3489081   0.3581385   0.0000000  )
        54           Cu  tau(  54) = (  -0.3489081   0.7162769   0.0000000  )
        55           O   tau(  55) = (  -0.3489081   0.5372077   0.0000000  )
        56           O   tau(  56) = (  -0.3489081   0.8953461   0.0000000  )
        57           O   tau(  57) = (  -0.3489081   0.3581385   0.1716129  )
        58           O   tau(  58) = (  -0.3489081   0.7162769   0.1716129  )
        59           Ba  tau(  59) = (  -0.5233621   0.5372077   0.1947166  )
        60           Ba  tau(  60) = (  -0.1744540   0.5372077   0.1947166  )
        61           Cu  tau(  61) = (  -0.3489081   0.3581385   0.3809172  )
        62           Cu  tau(  62) = (  -0.3489081   0.7162769   0.3809172  )
        63           O   tau(  63) = (  -0.3489081   0.5372077   0.4079022  )
        64           O   tau(  64) = (  -0.3489081   0.8953461   0.4079022  )
        65           O   tau(  65) = (  -0.1744540   0.7162769   0.4089803  )
        66           O   tau(  66) = (  -0.5233621   0.7162769   0.4089803  )
        67           Y   tau(  67) = (  -0.5233621   0.5372077   0.5390538  )
        68           Y   tau(  68) = (  -0.1744540   0.5372077   0.5390538  )
        69           O   tau(  69) = (  -0.3489081   0.5372077   0.6691272  )
        70           O   tau(  70) = (  -0.3489081   0.8953461   0.6691272  )
        71           O   tau(  71) = (  -0.1744540   0.7162769   0.6702053  )
        72           O   tau(  72) = (  -0.5233621   0.7162769   0.6702053  )
        73           Cu  tau(  73) = (  -0.3489081   0.3581385   0.6971903  )
        74           Cu  tau(  74) = (  -0.3489081   0.7162769   0.6971903  )
        75           Ba  tau(  75) = (  -0.5233621   0.5372077   0.8833910  )
        76           Ba  tau(  76) = (  -0.1744540   0.5372077   0.8833910  )
        77           O   tau(  77) = (  -0.3489081   0.3581385   0.9064946  )
        78           O   tau(  78) = (  -0.3489081   0.7162769   0.9064946  )
        79           Cu  tau(  79) = (   0.0000000   0.7162769   0.0000000  )
        80           Cu  tau(  80) = (   0.0000000   1.0744154   0.0000000  )
        81           O   tau(  81) = (   0.0000000   0.8953461   0.0000000  )
        82           O   tau(  82) = (   0.0000000   1.2534846   0.0000000  )
        83           O   tau(  83) = (   0.0000000   0.7162769   0.1716129  )
        84           O   tau(  84) = (   0.0000000   1.0744154   0.1716129  )
        85           Ba  tau(  85) = (  -0.1744540   0.8953461   0.1947166  )
        86           Ba  tau(  86) = (   0.1744540   0.8953461   0.1947166  )
        87           Cu  tau(  87) = (   0.0000000   0.7162769   0.3809172  )
        88           Cu  tau(  88) = (   0.0000000   1.0744154   0.3809172  )
        89           O   tau(  89) = (   0.0000000   0.8953461   0.4079022  )
        90           O   tau(  90) = (   0.0000000   1.2534846   0.4079022  )
        91           O   tau(  91) = (   0.1744540   1.0744154   0.4089803  )
        92           O   tau(  92) = (  -0.1744540   1.0744154   0.4089803  )
        93           Y   tau(  93) = (  -0.1744540   0.8953461   0.5390538  )
        94           Y   tau(  94) = (   0.1744540   0.8953461   0.5390538  )
        95           O   tau(  95) = (   0.0000000   0.8953461   0.6691272  )
        96           O   tau(  96) = (   0.0000000   1.2534846   0.6691272  )
        97           O   tau(  97) = (   0.1744540   1.0744154   0.6702053  )
        98           O   tau(  98) = (  -0.1744540   1.0744154   0.6702053  )
        99           Cu  tau(  99) = (   0.0000000   0.7162769   0.6971903  )
       100           Cu  tau( 100) = (   0.0000000   1.0744154   0.6971903  )
       101           Ba  tau( 101) = (  -0.1744540   0.8953461   0.8833910  )
       102           Ba  tau( 102) = (   0.1744540   0.8953461   0.8833910  )
       103           O   tau( 103) = (   0.0000000   0.7162769   0.9064946  )
       104           O   tau( 104) = (   0.0000000   1.0744154   0.9064946  )

     number of k points=     8  Gaussian smearing, width (Ry)=  0.0100
                       cart. coord. in units 2pi/alat
        k(    1) = (   0.0000000   0.0000000   0.0000000), wk =   0.0740741
        k(    2) = (   0.0000000   0.0000000   0.3091838), wk =   0.1481481
        k(    3) = (   0.2388404   0.2326847   0.0000000), wk =   0.2962963
        k(    4) = (   0.2388404   0.2326847   0.3091838), wk =   0.5925926
        k(    5) = (   0.0000000   0.4653694   0.0000000), wk =   0.1481481
        k(    6) = (   0.0000000   0.4653694   0.3091838), wk =   0.2962963
        k(    7) = (  -0.4776807  -0.0000000   0.0000000), wk =   0.1481481
        k(    8) = (  -0.4776807  -0.0000000   0.3091838), wk =   0.2962963

     Dense  grid:  3017255 G-vectors     FFT dimensions: ( 180, 180, 192)

     Smooth grid:   580715 G-vectors     FFT dimensions: ( 108, 108, 120)

     Estimated max dynamical RAM per process >     466.80 MB

     Estimated total dynamical RAM >      36.47 GB

     Initial potential from superposition of free atoms

     starting charge  846.43941, renormalised to  847.00000

     negative rho (up, down):  3.029E-01 0.000E+00
     Starting wfcs are  749 randomized atomic wfcs

     total cpu time spent up to now is       16.0 secs

     Self-consistent Calculation

     iteration #  1     ecut=    60.00 Ry     beta= 0.50
     Davidson diagonalization with overlap
     ethr =  1.00E-02,  avg # of iterations =  2.0

     negative rho (up, down):  2.989E-01 0.000E+00

     total cpu time spent up to now is       37.8 secs

     total energy              =   -6844.01091206 Ry
     Harris-Foulkes estimate   =   -6857.24831858 Ry
     estimated scf accuracy    <      41.64394090 Ry

     iteration #  2     ecut=    60.00 Ry     beta= 0.50
     Davidson diagonalization with overlap
     ethr =  4.92E-03,  avg # of iterations =  2.0

     negative rho (up, down):  3.003E-01 0.000E+00

     total cpu time spent up to now is       61.2 secs

     total energy              =   -6848.90631591 Ry
     Harris-Foulkes estimate   =   -6849.61107172 Ry
     estimated scf accuracy    <       3.05814674 Ry

     iteration #  3     ecut=    60.00 Ry     beta= 0.50
     Davidson diagonalization with overlap
     ethr =  3.61E-04,  avg # of iterations =  3.9

     negative rho (up, down):  3.050E-01 0.000E+00

     total cpu time spent up to now is       89.2 secs

     total energy              =   -6848.94711669 Ry
     Harris-Foulkes estimate   =   -6849.21314871 Ry
     estimated scf accuracy    <       0.92166729 Ry

     iteration #  4     ecut=    60.00 Ry     beta= 0.50
     Davidson diagonalization with overlap
     ethr =  1.09E-04,  avg # of iterations =  9.0

     negative rho (up, down):  3.080E-01 0.000E+00

     total cpu time spent up to now is      129.3 secs

     total energy              =   -6848.98835161 Ry
     Harris-Foulkes estimate   =   -6849.02930354 Ry
     estimated scf accuracy    <       0.25177809 Ry

     iteration #  5     ecut=    60.00 Ry     beta= 0.50
     Davidson diagonalization with overlap
     ethr =  2.97E-05,  avg # of iterations =  8.6

     negative rho (up, down):  3.115E-01 0.000E+00

     total cpu time spent up to now is      165.0 secs

     total energy              =   -6848.98901238 Ry
     Harris-Foulkes estimate   =   -6849.00560652 Ry
     estimated scf accuracy    <       0.07729280 Ry

     iteration #  6     ecut=    60.00 Ry     beta= 0.50
     Davidson diagonalization with overlap
     c_bands:  2 eigenvalues not converged
     ethr =  9.13E-06,  avg # of iterations = 13.0

     negative rho (up, down):  3.124E-01 0.000E+00

     total cpu time spent up to now is      217.1 secs

     total energy              =   -6848.99496538 Ry
     Harris-Foulkes estimate   =   -6848.99881269 Ry
     estimated scf accuracy    <       0.03176639 Ry

     iteration #  7     ecut=    60.00 Ry     beta= 0.50
     Davidson diagonalization with overlap
     ethr =  3.75E-06,  avg # of iterations =  2.9

     negative rho (up, down):  3.134E-01 0.000E+00

     total cpu time spent up to now is      239.9 secs

     total energy              =   -6848.99561788 Ry
     Harris-Foulkes estimate   =   -6848.99760496 Ry
     estimated scf accuracy    <       0.01421962 Ry

     iteration #  8     ecut=    60.00 Ry     beta= 0.50
     Davidson diagonalization with overlap
     c_bands:  1 eigenvalues not converged
     c_bands:  1 eigenvalues not converged
     ethr =  1.68E-06,  avg # of iterations = 12.2

     negative rho (up, down):  3.134E-01 0.000E+00

     total cpu time spent up to now is      284.5 secs

     total energy              =   -6848.99609229 Ry
     Harris-Foulkes estimate   =   -6848.99648327 Ry
     estimated scf accuracy    <       0.00175473 Ry

     iteration #  9     ecut=    60.00 Ry     beta= 0.50
     Davidson diagonalization with overlap
     ethr =  2.07E-07,  avg # of iterations =  3.2

     negative rho (up, down):  3.133E-01 0.000E+00

     total cpu time spent up to now is      311.5 secs

     total energy              =   -6848.99624845 Ry
     Harris-Foulkes estimate   =   -6848.99637729 Ry
     estimated scf accuracy    <       0.00118637 Ry

     iteration # 10     ecut=    60.00 Ry     beta= 0.50
     Davidson diagonalization with overlap
     ethr =  1.40E-07,  avg # of iterations =  1.0

     negative rho (up, down):  3.131E-01 0.000E+00

     total cpu time spent up to now is      330.4 secs

     total energy              =   -6848.99625902 Ry
     Harris-Foulkes estimate   =   -6848.99630772 Ry
     estimated scf accuracy    <       0.00033771 Ry

     iteration # 11     ecut=    60.00 Ry     beta= 0.50
     Davidson diagonalization with overlap
     ethr =  3.99E-08,  avg # of iterations =  2.0

     negative rho (up, down):  3.130E-01 0.000E+00

     total cpu time spent up to now is      351.4 secs

     total energy              =   -6848.99627224 Ry
     Harris-Foulkes estimate   =   -6848.99628158 Ry
     estimated scf accuracy    <       0.00007986 Ry

     iteration # 12     ecut=    60.00 Ry     beta= 0.50
     Davidson diagonalization with overlap
     ethr =  9.43E-09,  avg # of iterations =  2.5

     negative rho (up, down):  3.130E-01 0.000E+00

     total cpu time spent up to now is      374.6 secs

     total energy              =   -6848.99627776 Ry
     Harris-Foulkes estimate   =   -6848.99628306 Ry
     estimated scf accuracy    <       0.00004972 Ry

     iteration # 13     ecut=    60.00 Ry     beta= 0.50
     Davidson diagonalization with overlap
     ethr =  5.87E-09,  avg # of iterations =  1.0

     negative rho (up, down):  3.130E-01 0.000E+00

     total cpu time spent up to now is      393.6 secs

     total energy              =   -6848.99628073 Ry
     Harris-Foulkes estimate   =   -6848.99628150 Ry
     estimated scf accuracy    <       0.00000580 Ry

     iteration # 14     ecut=    60.00 Ry     beta= 0.50
     Davidson diagonalization with overlap
     ethr =  6.85E-10,  avg # of iterations =  3.0

     negative rho (up, down):  3.130E-01 0.000E+00

     total cpu time spent up to now is      421.4 secs

     total energy              =   -6848.99628135 Ry
     Harris-Foulkes estimate   =   -6848.99628175 Ry
     estimated scf accuracy    <       0.00000225 Ry

     iteration # 15     ecut=    60.00 Ry     beta= 0.50
     Davidson diagonalization with overlap
     ethr =  2.66E-10,  avg # of iterations =  1.0

     negative rho (up, down):  3.130E-01 0.000E+00

     total cpu time spent up to now is      440.4 secs

     total energy              =   -6848.99628138 Ry
     Harris-Foulkes estimate   =   -6848.99628149 Ry
     estimated scf accuracy    <       0.00000053 Ry

     iteration # 16     ecut=    60.00 Ry     beta= 0.50
     Davidson diagonalization with overlap
     ethr =  6.22E-11,  avg # of iterations =  2.1

     negative rho (up, down):  3.130E-01 0.000E+00

     total cpu time spent up to now is      463.6 secs

     total energy              =   -6848.99628143 Ry
     Harris-Foulkes estimate   =   -6848.99628144 Ry
     estimated scf accuracy    <       0.00000011 Ry

     iteration # 17     ecut=    60.00 Ry     beta= 0.50
     Davidson diagonalization with overlap
     ethr =  1.29E-11,  avg # of iterations =  2.6

     negative rho (up, down):  3.130E-01 0.000E+00

     total cpu time spent up to now is      486.4 secs

     total energy              =   -6848.99628143 Ry
     Harris-Foulkes estimate   =   -6848.99628144 Ry
     estimated scf accuracy    <       0.00000005 Ry

     iteration # 18     ecut=    60.00 Ry     beta= 0.50
     Davidson diagonalization with overlap
     ethr =  5.65E-12,  avg # of iterations =  2.5

     negative rho (up, down):  3.130E-01 0.000E+00

     total cpu time spent up to now is      509.9 secs

     total energy              =   -6848.99628143 Ry
     Harris-Foulkes estimate   =   -6848.99628143 Ry
     estimated scf accuracy    <       0.00000001 Ry

     iteration # 19     ecut=    60.00 Ry     beta= 0.50
     Davidson diagonalization with overlap
     ethr =  1.38E-12,  avg # of iterations =  2.0

     negative rho (up, down):  3.130E-01 0.000E+00

     total cpu time spent up to now is      531.3 secs

     End of self-consistent calculation

          k = 0.0000 0.0000 0.0000 ( 72525 PWs)   bands (ev):

   -31.0207 -31.0139 -31.0127 -30.9324 -30.9313 -30.9153 -30.9144 -27.7149
   -15.4691 -15.4401 -15.3570 -15.3562 -15.3341 -15.3335 -15.3318 -15.3257
   -15.3144 -15.3095 -15.3033 -15.2940 -15.2767 -15.2565 -15.1930 -15.1751
   -11.6794 -11.5978 -11.5747 -11.5670 -11.5111 -11.3961 -11.3764 -11.3700
   -11.3610 -11.3402 -11.2965 -11.2908 -11.2788 -11.2768 -11.2613 -11.2509
   -11.0954 -11.0946 -11.0811 -10.9987 -10.9831  -9.2209  -9.1853  -9.1702
    -8.4624  -7.8387  -7.7700  -7.7429  -7.7142  -7.6909  -7.6713  -7.6606
    -7.6342  -7.5855  -7.5549  -7.5424  -7.5191  -7.4486  -7.4462  -7.3854
    -7.3570  -7.3247  -7.3155  -7.2912  -7.2899  -7.2868  -7.2859  -7.2833
    -7.2610  -7.1942  -7.1511  -7.0994  -7.0906  -7.0743  -7.0349  -7.0193
    -6.9857  -6.9596  -6.9077  -6.8720  -6.8696  -6.8268  -6.8135  -6.8126
    -6.7942  -6.7600  -6.7254  -6.6480  -6.6441  -6.6423  -6.6365  -6.6359
    -6.5453  -6.5199  -6.5179  -6.5161  -6.5153  -6.4259  -6.3758  -6.3408
    -1.3421  -1.2831  -1.2500  -1.0364  -0.9457  -0.9185  -0.9118  -0.9085
    -0.9010  -0.8674  -0.8658  -0.8658  -0.8637  -0.8585  -0.7374  -0.7176
    -0.7078  -0.7042  -0.6959  -0.6889  -0.6728  -0.6505  -0.6445  -0.6368
    -0.6200  -0.5872  -0.5445  -0.5039  -0.5009  -0.4704  -0.4514  -0.4340
    -0.3663  -0.3518  -0.3367  -0.2961  -0.2808  -0.2760  -0.2739  -0.2638
    -0.2586  -0.2584  -0.2448  -0.2382  -0.2002  -0.1775  -0.0916  -0.0298
     2.7676   3.3749   3.7972   3.9024   3.9081   3.9702   3.9764   3.9773
     4.0384   4.1767   4.1939   4.2348   4.3211   4.3578   4.3784   4.4187
     4.4496   4.5977   4.6523   4.8229   4.8411   4.8423   4.8424   4.8452
     4.8598   4.8846   4.9084   4.9422   4.9429   4.9513   4.9517   5.0052
     5.0425   5.0468   5.0941   5.1045   5.1082   5.1528   5.1639   5.1654
     5.1672   5.1691   5.2093   5.2391   5.2865   5.3323   5.3647   5.4051
     5.4484   5.4546   5.5121   5.5291   5.5343   5.5346   5.5757   5.5819
     5.6410   5.6427   5.6475   5.6656   5.6783   5.6860   5.7126   5.8128
     5.8624   5.8642   5.9209   5.9334   5.9349   5.9349   5.9558   5.9604
     5.9735   5.9838   6.0281   6.0701   6.0926   6.1182   6.1499   6.1625
     6.1868   6.2180   6.2698   6.2961   6.3355   6.3395   6.3405   6.3557
     6.3734   6.3776   6.3818   6.3865   6.4004   6.4139   6.4295   6.4577
     6.4609   6.4991   6.4991   6.5205   6.5707   6.5710   6.5717   6.5718
     6.6358   6.6604   6.6731   6.6745   6.6872   6.6902   6.7004   6.7101
     6.7359   6.7548   6.8513   6.8513   6.8610   6.8740   6.9204   6.9265
     6.9283   6.9620   7.0105   7.0433   7.0596   7.0730   7.0925   7.2124
     7.2211   7.2221   7.2572   7.2584   7.2591   7.2600   7.2718   7.2763
     7.2890   7.3158   7.3434   7.4107   7.4273   7.4640   7.4662   7.4680
     7.4722   7.4838   7.5003   7.5220   7.5276   7.5605   7.5717   7.5894
     7.6002   7.6288   7.6701   7.6722   7.7025   7.7609   7.7690   7.8066
     7.8405   7.8597   7.8699   7.8726   7.8773   7.8927   7.9112   7.9113
     7.9120   7.9223   7.9317   7.9590   7.9732   7.9867   8.0404   8.1328
     8.2124   8.2484   8.2569   8.2657   8.2815   8.2871   8.2911   8.3138
     8.3671   8.3687   8.3761   8.3819   8.3918   8.3961   8.3992   8.4242
     8.4248   8.4310   8.4686   8.4706   8.4771   8.4793   8.4808   8.4880
     8.4897   8.4939   8.5087   8.5159   8.5239   8.5412   8.5759   8.5829
     8.5858   8.6256   8.6801   8.7427   8.7557   8.7809   8.8016   8.8116
     8.8196   8.8229   8.8263   8.8345   8.8377   8.8471   8.8474   8.8527
     8.8825   8.8900   8.9104   8.9173   8.9178   8.9195   8.9215   8.9260
     8.9334   8.9343   8.9346   8.9391   8.9538   8.9584   8.9707   8.9963
     9.0440   9.0691   9.0692   9.1039   9.1373   9.1607   9.1853   9.1978
     9.2053   9.2338   9.2345   9.2896   9.2954   9.3124   9.3226   9.3825
     9.4534   9.4649   9.4656   9.4797   9.5084   9.5084   9.5738   9.5846
     9.5870   9.5949   9.5963   9.6199   9.6861   9.7076   9.7634   9.7813
    10.3527  10.3643  10.3694  10.3797  10.5601  10.5720  10.5764  10.5846
    10.8488  10.8494  10.8521  10.8528  11.3266  11.6588  11.7897  11.8711
    12.4656  12.6340  13.3753  13.7178  13.7375  13.7441  13.7530  13.8011
    14.1568  14.2783  14.3494  14.3550  14.3565  14.3665  14.3891  14.5478
    14.7189  14.7229  14.7944  14.8783  14.9335  15.0611  15.1075  15.2008
    15.2256  15.4373  15.4543  15.4712  15.5059  15.5631  15.6977  15.8645
    15.9357  15.9608  15.9866  15.9880  16.0876  16.1237  16.1340  16.1597
    16.1744  16.1746  16.1885  16.1932  16.1957  16.2706  16.3080  16.3602
    16.3798  16.4298  16.4328  16.4970  16.5088  16.5250  16.5302  16.5409
    16.6149  16.6586  16.6734  16.6784  16.7003  16.7039  16.7365  16.7662
    16.8396  16.8403  16.8435  16.8584  16.8736

          k = 0.0000 0.0000 0.3092 ( 72612 PWs)   bands (ev):

   -31.0207 -31.0139 -31.0127 -30.9324 -30.9313 -30.9153 -30.9144 -27.7149
   -15.4701 -15.4390 -15.3578 -15.3570 -15.3333 -15.3328 -15.3325 -15.3264
   -15.3151 -15.3088 -15.3026 -15.2933 -15.2772 -15.2561 -15.1933 -15.1748
   -11.6794 -11.5978 -11.5747 -11.5672 -11.5111 -11.3960 -11.3765 -11.3701
   -11.3610 -11.3401 -11.2966 -11.2908 -11.2789 -11.2768 -11.2614 -11.2509
   -11.0954 -11.0947 -11.0811 -10.9987 -10.9831  -9.2211  -9.1852  -9.1701
    -8.4595  -7.8422  -7.7693  -7.7627  -7.7417  -7.6873  -7.6686  -7.6589
    -7.5862  -7.5649  -7.5574  -7.5441  -7.5249  -7.4462  -7.4422  -7.3924
    -7.3666  -7.3208  -7.3012  -7.2947  -7.2850  -7.2827  -7.2809  -7.2738
    -7.2623  -7.1915  -7.1547  -7.1105  -7.0997  -7.0903  -7.0383  -7.0122
    -7.0015  -6.9837  -6.9181  -6.8728  -6.8628  -6.8625  -6.8299  -6.7749
    -6.7618  -6.7599  -6.7142  -6.6564  -6.6513  -6.6472  -6.6453  -6.6060
    -6.5454  -6.5180  -6.5159  -6.5143  -6.5117  -6.4288  -6.3850  -6.3355
    -1.3408  -1.2827  -1.2504  -1.0374  -0.9322  -0.9152  -0.9051  -0.9005
    -0.8974  -0.8695  -0.8694  -0.8674  -0.8621  -0.8542  -0.7636  -0.7127
    -0.7039  -0.7023  -0.6906  -0.6892  -0.6770  -0.6492  -0.6417  -0.6336
    -0.6328  -0.6075  -0.5292  -0.5166  -0.5021  -0.4691  -0.4516  -0.4326
    -0.3681  -0.3517  -0.3375  -0.2989  -0.2878  -0.2822  -0.2801  -0.2611
    -0.2583  -0.2521  -0.2396  -0.2331  -0.2009  -0.1764  -0.0928  -0.0284
     2.7822   3.3517   3.8028   3.9198   3.9341   3.9708   3.9898   3.9932
     4.0600   4.1327   4.1961   4.2505   4.2980   4.3405   4.3523   4.3920
     4.5003   4.5985   4.6505   4.8252   4.8371   4.8378   4.8395   4.8460
     4.8672   4.8881   4.9005   4.9401   4.9439   4.9480   4.9572   5.0053
     5.0413   5.0759   5.0954   5.1086   5.1096   5.1315   5.1483   5.1681
     5.1686   5.1708   5.1750   5.2390   5.2417   5.2858   5.3409   5.3636
     5.4495   5.4523   5.5241   5.5297   5.5314   5.5703   5.5884   5.6204
     5.6318   5.6467   5.6486   5.6527   5.6823   5.7248   5.7327   5.8137
     5.8196   5.8389   5.9528   5.9624   5.9750   5.9842   5.9845   6.0034
     6.0193   6.0406   6.0609   6.0744   6.1004   6.1436   6.1601   6.1814
     6.2195   6.2293   6.2891   6.3008   6.3385   6.3392   6.3503   6.3617
     6.3743   6.3846   6.3853   6.3876   6.3963   6.3990   6.4072   6.4363
     6.4517   6.4607   6.4673   6.4801   6.5036   6.5202   6.5289   6.5325
     6.5408   6.5497   6.6198   6.6205   6.6316   6.6340   6.7099   6.7313
     6.7467   6.7535   6.7736   6.7757   6.7897   6.7997   6.9018   6.9276
     6.9301   6.9612   6.9820   6.9844   7.0597   7.0612   7.0924   7.2121
     7.2474   7.2547   7.2672   7.2762   7.2922   7.2966   7.2981   7.4054
     7.4413   7.4414   7.4423   7.4464   7.4715   7.4775   7.4799   7.4833
     7.4890   7.5308   7.5353   7.5396   7.5749   7.5896   7.6042   7.6321
     7.6340   7.6619   7.6822   7.6875   7.6966   7.7169   7.7626   7.7659
     7.7775   7.7789   7.8036   7.8370   7.8712   7.9043   7.9612   7.9618
     7.9627   7.9643   7.9775   8.0079   8.0703   8.0781   8.1043   8.1446
     8.1823   8.2511   8.2610   8.2726   8.2892   8.2926   8.3165   8.3291
     8.3347   8.3360   8.3389   8.3732   8.4119   8.4125   8.4267   8.4417
     8.4654   8.4727   8.4748   8.4784   8.4800   8.4895   8.4964   8.5040
     8.5279   8.5322   8.5407   8.5432   8.5544   8.5597   8.5755   8.5835
     8.5956   8.6116   8.6364   8.6702   8.7019   8.7187   8.7225   8.7275
     8.7378   8.7556   8.7726   8.7829   8.7856   8.7975   8.8366   8.8709
     8.8785   8.8819   8.8884   8.9071   8.9132   8.9144   8.9151   8.9174
     8.9503   8.9602   8.9624   8.9715   8.9761   8.9779   8.9839   8.9890
     9.0415   9.0559   9.0696   9.0992   9.1343   9.1556   9.1869   9.2156
     9.2248   9.2281   9.2591   9.2611   9.2751   9.2854   9.3177   9.3393
     9.3503   9.3520   9.3570   9.3936   9.4602   9.5138   9.5146   9.5553
     9.5565   9.5566   9.5577   9.5720   9.6155   9.7055   9.7621   9.8697
    10.3663  10.3785  10.3828  10.3934  10.5504  10.5617  10.5664  10.5743
    10.9147  10.9149  10.9156  10.9180  11.5191  11.7101  11.7897  11.8718
    12.4780  12.8400  13.2603  13.6508  13.7851  13.7899  13.7917  13.7949
    14.1421  14.2086  14.2999  14.3035  14.3129  14.3426  14.5441  14.6384
    14.7326  14.7350  14.8032  14.8471  14.8847  14.9416  15.1079  15.2014
    15.2178  15.4339  15.5380  15.5705  15.5883  15.6123  15.6196  15.7230
    15.8578  15.8665  15.9113  15.9274  15.9987  16.0524  16.0550  16.0712
    16.0994  16.1040  16.1241  16.2005  16.3055  16.3350  16.3453  16.3564
    16.3759  16.3788  16.3864  16.4435  16.4445  16.4454  16.4650  16.4721
    16.4923  16.5649  16.5748  16.6550  16.6610  16.6637  16.6850  16.7154
    16.7173  16.7450  16.7958  16.8172  16.8511

          k = 0.2388 0.2327 0.0000 ( 72609 PWs)   bands (ev):

   -31.0207 -31.0136 -31.0130 -30.9322 -30.9316 -30.9151 -30.9146 -27.7149
   -15.4519 -15.4239 -15.4015 -15.3760 -15.3572 -15.3338 -15.3267 -15.3195
   -15.3037 -15.3028 -15.2984 -15.2836 -15.2633 -15.2444 -15.2012 -15.1823
   -11.6412 -11.5736 -11.5651 -11.5418 -11.5297 -11.5091 -11.4636 -11.4464
   -11.3717 -11.2941 -11.2814 -11.2685 -11.2635 -11.2160 -11.1892 -11.1614
   -11.1188 -11.0919 -11.0726 -11.0461 -11.0376  -9.2214  -9.1913  -9.1739
    -8.3468  -8.0508  -7.7938  -7.7628  -7.6986  -7.6749  -7.6568  -7.6552
    -7.5833  -7.5788  -7.5471  -7.5406  -7.5260  -7.4509  -7.4459  -7.4025
    -7.3556  -7.3545  -7.3390  -7.3331  -7.2597  -7.2523  -7.2460  -7.1978
    -7.1895  -7.1648  -7.1399  -7.1088  -7.0957  -7.0582  -7.0537  -7.0288
    -7.0199  -6.9710  -6.9610  -6.9305  -6.8621  -6.8210  -6.7819  -6.7747
    -6.7604  -6.7369  -6.6893  -6.6780  -6.6670  -6.6539  -6.6517  -6.6361
    -6.5830  -6.5746  -6.5719  -6.4746  -6.4523  -6.4252  -6.3837  -6.3765
    -1.2526  -1.1900  -1.1013  -1.0838  -1.0462  -0.9607  -0.9360  -0.9194
    -0.8437  -0.8029  -0.7866  -0.7556  -0.7526  -0.7493  -0.7311  -0.7115
    -0.7077  -0.6886  -0.6811  -0.6448  -0.6358  -0.6298  -0.6191  -0.6183
    -0.6044  -0.6002  -0.5856  -0.5797  -0.5652  -0.5196  -0.5161  -0.5027
    -0.4931  -0.4763  -0.4349  -0.4150  -0.2993  -0.2879  -0.2746  -0.2584
    -0.2575  -0.2521  -0.2242  -0.2189  -0.1696  -0.1613  -0.1439  -0.1206
     2.9271   3.3785   3.5184   3.8208   3.8867   3.9047   4.0005   4.0296
     4.0349   4.1817   4.2334   4.2862   4.2884   4.3836   4.4899   4.5085
     4.5587   4.5750   4.6275   4.6832   4.6886   4.7204   4.7708   4.8696
     4.8801   4.8979   4.9302   4.9628   4.9837   4.9924   5.0091   5.0550
     5.0821   5.0850   5.1005   5.1137   5.1147   5.1267   5.1325   5.1411
     5.1468   5.2186   5.2284   5.2342   5.3002   5.3076   5.3380   5.3475
     5.3740   5.4229   5.4274   5.4867   5.5321   5.5393   5.5784   5.5862
     5.5931   5.6563   5.6822   5.7015   5.7399   5.8095   5.8135   5.8297
     5.8689   5.8792   5.8858   5.8923   5.9449   5.9470   5.9515   5.9525
     6.0100   6.0116   6.0822   6.0855   6.1174   6.1471   6.1929   6.2101
     6.2180   6.2507   6.2826   6.3224   6.3298   6.3335   6.3429   6.3466
     6.3550   6.3828   6.4010   6.4099   6.4191   6.4214   6.4396   6.4549
     6.4550   6.4948   6.5003   6.5120   6.5225   6.5404   6.5471   6.5543
     6.5636   6.6181   6.6296   6.6494   6.6672   6.7065   6.7171   6.7306
     6.7460   6.7591   6.7805   6.8396   6.8535   6.8865   6.9163   7.0479
     7.0504   7.0606   7.0876   7.1194   7.1273   7.1342   7.1486   7.1823
     7.1935   7.2270   7.2553   7.2588   7.2617   7.2895   7.2981   7.3124
     7.3366   7.3506   7.3529   7.4142   7.4246   7.4259   7.4426   7.4460
     7.4838   7.4926   7.5041   7.5181   7.5359   7.5443   7.5665   7.5888
     7.5972   7.6184   7.6389   7.6566   7.6618   7.6686   7.6847   7.7015
     7.7371   7.7888   7.8424   7.8669   7.8918   7.9379   7.9459   7.9602
     7.9930   8.0184   8.0261   8.0341   8.0940   8.1099   8.1259   8.1353
     8.1458   8.1493   8.1614   8.1682   8.1743   8.2370   8.2439   8.2598
     8.2830   8.2840   8.3019   8.3134   8.3295   8.3321   8.3375   8.3423
     8.3838   8.3903   8.4181   8.4380   8.4552   8.4683   8.4781   8.4804
     8.5085   8.5271   8.5518   8.5640   8.5800   8.5895   8.6199   8.6463
     8.6573   8.6741   8.6937   8.7007   8.7072   8.7095   8.7515   8.7736
     8.7801   8.7976   8.8005   8.8058   8.8359   8.8410   8.8563   8.8719
     8.8831   8.8860   8.9018   8.9055   8.9096   8.9550   8.9606   8.9818
     8.9823   8.9911   9.0041   9.0113   9.0131   9.0204   9.0421   9.0546
     9.0623   9.1049   9.1225   9.1305   9.1590   9.1819   9.2086   9.2301
     9.2503   9.2687   9.2891   9.2936   9.3128   9.3538   9.3842   9.4112
     9.4275   9.4374   9.4736   9.5032   9.5288   9.5389   9.5502   9.5617
     9.5652   9.5783   9.6408   9.6953   9.7113   9.7126   9.8619   9.9262
     9.9415   9.9827  10.0294  10.1289  10.2920  10.3455  10.3676  10.3701
    11.0272  11.1665  11.2107  11.2657  11.3217  11.5557  11.5755  11.6636
    12.6897  12.9236  13.2400  13.5040  13.5878  13.7654  13.8169  13.8571
    13.9974  14.0317  14.1241  14.3994  14.4961  14.5140  14.5570  14.6264
    14.7511  14.7888  14.8331  14.8762  14.9520  15.0018  15.1203  15.1786
    15.1951  15.2385  15.2740  15.3896  15.4525  15.5188  15.6751  15.7169
    15.8274  16.0533  16.0805  16.0875  16.0923  16.1277  16.1397  16.1577
    16.2120  16.2392  16.2443  16.2507  16.2834  16.2889  16.3710  16.3827
    16.3931  16.4479  16.4875  16.4941  16.5076  16.5223  16.5299  16.5305
    16.5543  16.6084  16.6404  16.6498  16.6884  16.7134  16.7781  16.8026
    16.8243  16.8681  16.9114  16.9141  16.9537

          k = 0.2388 0.2327 0.3092 ( 72599 PWs)   bands (ev):

   -31.0207 -31.0136 -31.0130 -30.9322 -30.9316 -30.9151 -30.9146 -27.7149
   -15.4529 -15.4229 -15.4023 -15.3752 -15.3580 -15.3331 -15.3274 -15.3202
   -15.3034 -15.3030 -15.2977 -15.2829 -15.2638 -15.2439 -15.2015 -15.1820
   -11.6412 -11.5736 -11.5651 -11.5420 -11.5297 -11.5091 -11.4636 -11.4465
   -11.3718 -11.2941 -11.2815 -11.2685 -11.2635 -11.2161 -11.1892 -11.1614
   -11.1189 -11.0919 -11.0726 -11.0461 -11.0376  -9.2216  -9.1912  -9.1738
    -8.3443  -8.0491  -7.7968  -7.7616  -7.7085  -7.6952  -7.6654  -7.6532
    -7.5822  -7.5635  -7.5386  -7.5293  -7.5233  -7.4561  -7.4254  -7.3990
    -7.3672  -7.3438  -7.3379  -7.3244  -7.2529  -7.2469  -7.2424  -7.1921
    -7.1808  -7.1633  -7.1496  -7.1173  -7.1051  -7.0749  -7.0641  -7.0295
    -7.0175  -6.9913  -6.9615  -6.9322  -6.8813  -6.8363  -6.8048  -6.7595
    -6.7448  -6.7294  -6.6860  -6.6833  -6.6635  -6.6554  -6.6438  -6.6134
    -6.5837  -6.5765  -6.5670  -6.4784  -6.4471  -6.4264  -6.3907  -6.3708
    -1.2529  -1.1883  -1.1036  -1.0862  -1.0434  -0.9592  -0.9282  -0.9140
    -0.8305  -0.7964  -0.7775  -0.7621  -0.7536  -0.7480  -0.7438  -0.7231
    -0.6971  -0.6924  -0.6879  -0.6402  -0.6378  -0.6300  -0.6254  -0.6238
    -0.6157  -0.5962  -0.5928  -0.5712  -0.5548  -0.5234  -0.5147  -0.5103
    -0.4916  -0.4767  -0.4379  -0.4125  -0.3036  -0.2855  -0.2751  -0.2594
    -0.2554  -0.2522  -0.2285  -0.2156  -0.1691  -0.1639  -0.1432  -0.1220
     2.9418   3.3936   3.4949   3.8278   3.8813   3.8971   4.0273   4.0427
     4.0666   4.1531   4.1773   4.2909   4.3021   4.3372   4.5216   4.5322
     4.5615   4.6104   4.6298   4.6666   4.6822   4.7213   4.7688   4.8589
     4.8951   4.8993   4.9448   4.9823   4.9875   5.0025   5.0152   5.0368
     5.0620   5.0862   5.0901   5.1020   5.1125   5.1188   5.1310   5.1445
     5.1603   5.2028   5.2061   5.2116   5.2876   5.3001   5.3164   5.3386
     5.3784   5.3917   5.4394   5.4419   5.5067   5.5497   5.5627   5.5964
     5.6366   5.6723   5.6851   5.7076   5.7716   5.8161   5.8356   5.8387
     5.8518   5.8547   5.9192   5.9365   5.9608   5.9671   5.9812   5.9906
     6.0213   6.0877   6.0953   6.1436   6.1598   6.1797   6.1901   6.2054
     6.2159   6.2814   6.3031   6.3125   6.3251   6.3274   6.3346   6.3436
     6.3581   6.3688   6.3786   6.3808   6.3882   6.3981   6.4193   6.4236
     6.4430   6.4448   6.4585   6.4633   6.4958   6.5076   6.5372   6.5389
     6.5651   6.5750   6.5901   6.6304   6.6373   6.6413   6.6632   6.6921
     6.7235   6.7284   6.7337   6.8226   6.8460   6.8553   6.9757   6.9795
     7.0197   7.0453   7.0592   7.0751   7.0895   7.1082   7.1159   7.1766
     7.1922   7.2151   7.2747   7.2898   7.3040   7.3383   7.3554   7.4091
     7.4259   7.4389   7.4492   7.4499   7.4687   7.4727   7.4878   7.5042
     7.5093   7.5257   7.5400   7.5435   7.5529   7.5651   7.5807   7.5901
     7.6073   7.6178   7.6303   7.6345   7.6421   7.6585   7.6689   7.7207
     7.7378   7.7916   7.8726   7.8814   7.9091   7.9141   8.0010   8.0351
     8.0411   8.0501   8.0572   8.0724   8.0917   8.1299   8.1478   8.1623
     8.1733   8.1763   8.1862   8.2047   8.2132   8.2267   8.2529   8.2628
     8.2883   8.2975   8.2994   8.3077   8.3253   8.3302   8.3393   8.3448
     8.3562   8.3637   8.4119   8.4474   8.4530   8.4761   8.4822   8.4855
     8.5048   8.5102   8.5223   8.5383   8.5534   8.5702   8.6129   8.6349
     8.6595   8.6858   8.7052   8.7129   8.7206   8.7357   8.7391   8.7652
     8.7698   8.7811   8.7856   8.7993   8.8087   8.8295   8.8521   8.8592
     8.8828   8.9003   8.9059   8.9099   8.9116   8.9274   8.9365   8.9607
     8.9726   8.9766   8.9822   8.9910   9.0156   9.0173   9.0423   9.0631
     9.0833   9.0873   9.0992   9.1127   9.1299   9.1440   9.1594   9.1972
     9.2020   9.2540   9.2586   9.2712   9.2889   9.3009   9.3059   9.3478
     9.3556   9.3650   9.4211   9.4638   9.4839   9.5214   9.5227   9.5351
     9.5581   9.5898   9.6352   9.7074   9.7083   9.7443   9.7694   9.8825
     9.9563  10.0639  10.0717  10.1426  10.2447  10.3415  10.3572  10.4889
    11.0372  11.1586  11.3142  11.3305  11.4796  11.5770  11.6122  11.6653
    12.7114  13.0903  13.2873  13.4068  13.6433  13.7455  13.8030  13.8125
    14.0423  14.0760  14.0949  14.3827  14.4336  14.4617  14.5656  14.7268
    14.7595  14.8012  14.8099  14.8683  14.9505  14.9953  15.0556  15.0720
    15.1507  15.2318  15.3413  15.4049  15.4152  15.5613  15.7207  15.7606
    15.8364  15.8672  15.9576  15.9868  16.0050  16.0139  16.0723  16.0997
    16.1240  16.1414  16.1750  16.2112  16.2664  16.2863  16.3211  16.3779
    16.3941  16.4177  16.4467  16.4699  16.4890  16.5212  16.5282  16.5506
    16.5751  16.6104  16.6582  16.6758  16.6976  16.7116  16.7371  16.7698
    16.8246  16.8650  16.8677  16.8878  16.9434

          k = 0.0000 0.4654 0.0000 ( 72622 PWs)   bands (ev):

   -31.0207 -31.0137 -31.0130 -30.9323 -30.9314 -30.9149 -30.9148 -27.7149
   -15.4403 -15.4123 -15.3901 -15.3890 -15.3671 -15.3642 -15.3514 -15.3267
   -15.2922 -15.2907 -15.2737 -15.2693 -15.2663 -15.2478 -15.2041 -15.1851
   -11.6762 -11.5783 -11.5566 -11.5218 -11.5208 -11.4627 -11.4395 -11.4298
   -11.3988 -11.3339 -11.2885 -11.2798 -11.2656 -11.2218 -11.2059 -11.1674
   -11.1375 -11.0876 -11.0812 -11.0460 -10.9835  -9.2211  -9.1870  -9.1755
    -8.2609  -8.0560  -7.9928  -7.8052  -7.7359  -7.7138  -7.6692  -7.6136
    -7.5513  -7.5228  -7.5201  -7.5177  -7.4548  -7.4547  -7.4287  -7.4147
    -7.3476  -7.3462  -7.3141  -7.2969  -7.2380  -7.2135  -7.2103  -7.2092
    -7.1900  -7.1867  -7.1486  -7.1484  -7.1205  -7.0943  -7.0357  -7.0117
    -7.0060  -7.0024  -6.9480  -6.9399  -6.8862  -6.8506  -6.7378  -6.7376
    -6.7329  -6.7225  -6.7210  -6.6906  -6.6814  -6.6746  -6.6608  -6.6224
    -6.6131  -6.6052  -6.5279  -6.5252  -6.4597  -6.4070  -6.3916  -6.3873
    -1.1280  -1.0642  -1.0184  -0.9345  -0.9183  -0.9122  -0.9078  -0.9042
    -0.8905  -0.8875  -0.8688  -0.8418  -0.7656  -0.7446  -0.7407  -0.7155
    -0.6939  -0.6810  -0.6664  -0.6651  -0.6491  -0.6443  -0.6031  -0.5779
    -0.5713  -0.5619  -0.5385  -0.5317  -0.5286  -0.5157  -0.5093  -0.4961
    -0.4954  -0.4891  -0.4729  -0.4651  -0.4621  -0.4285  -0.4245  -0.3715
    -0.2792  -0.2383  -0.2201  -0.2136  -0.2056  -0.2016  -0.1484  -0.0928
     3.0446   3.4871   3.5128   3.5897   3.6591   3.8872   4.0121   4.0774
     4.2272   4.2374   4.2387   4.2837   4.3544   4.4305   4.4505   4.4963
     4.5246   4.5898   4.6683   4.6784   4.7272   4.7729   4.7762   4.7781
     4.7781   4.8301   4.8567   4.9871   5.0392   5.0539   5.0622   5.0754
     5.0831   5.0989   5.1005   5.1138   5.1150   5.1232   5.1354   5.1402
     5.1615   5.2395   5.2434   5.2476   5.2521   5.2718   5.3094   5.3224
     5.3322   5.3399   5.3588   5.3965   5.4117   5.4193   5.4269   5.5118
     5.5311   5.5853   5.6148   5.6186   5.7756   5.8153   5.8566   5.8694
     5.8700   5.8759   5.9102   6.0217   6.0262   6.0761   6.1299   6.1329
     6.1404   6.1521   6.1732   6.1780   6.1862   6.1993   6.2034   6.2120
     6.2824   6.2919   6.2938   6.3130   6.3211   6.3326   6.3407   6.3488
     6.3833   6.3905   6.4074   6.4136   6.4361   6.4407   6.4482   6.4580
     6.4838   6.4982   6.5132   6.5199   6.5307   6.5441   6.5488   6.5515
     6.5518   6.6200   6.6286   6.6460   6.6576   6.6671   6.6837   6.7105
     6.7521   6.7548   6.7827   6.8065   6.8158   6.8552   6.8769   6.9121
     6.9413   7.0095   7.0348   7.0716   7.0790   7.0809   7.2094   7.2488
     7.2494   7.2549   7.2828   7.2880   7.3046   7.3143   7.3188   7.3478
     7.3675   7.3713   7.3907   7.3953   7.4068   7.4085   7.4126   7.4306
     7.4441   7.4801   7.4843   7.4933   7.4941   7.4952   7.5867   7.5955
     7.6073   7.6084   7.6703   7.7134   7.7408   7.7412   7.7566   7.7997
     7.8018   7.8203   7.8984   7.9323   7.9331   7.9515   7.9792   7.9861
     8.0014   8.0104   8.0310   8.0504   8.0600   8.0868   8.1207   8.1278
     8.1486   8.1508   8.1611   8.1797   8.2012   8.2284   8.2768   8.2796
     8.2821   8.3015   8.3172   8.3290   8.3302   8.3410   8.3477   8.3637
     8.3719   8.3795   8.3949   8.4002   8.4214   8.4227   8.4640   8.4986
     8.5142   8.5153   8.5437   8.5528   8.5848   8.5955   8.5997   8.6387
     8.6413   8.6452   8.6686   8.6710   8.6808   8.7157   8.7180   8.7199
     8.7306   8.7491   8.7757   8.7850   8.8069   8.8413   8.8660   8.8845
     8.8942   8.9347   8.9401   8.9522   8.9564   8.9783   8.9845   8.9983
     9.0002   9.0140   9.0170   9.0203   9.0607   9.0873   9.0921   9.0922
     9.0941   9.1233   9.1336   9.1412   9.1580   9.1651   9.1926   9.2104
     9.2128   9.2265   9.2528   9.2549   9.2569   9.2872   9.2992   9.3494
     9.3703   9.3774   9.4144   9.4192   9.4276   9.4309   9.4414   9.4435
     9.4760   9.4905   9.5637   9.5650   9.6849   9.8081   9.8126   9.8133
     9.8971   9.9035  10.0597  10.2482  10.3650  10.3778  10.7942  10.8120
    10.9459  10.9569  11.1569  11.2902  11.3130  11.4288  11.4568  11.4629
    12.8437  13.2103  13.5413  13.5468  13.6365  13.6737  13.6881  13.7004
    13.8782  13.9633  14.0303  14.2133  14.2457  14.2795  14.4925  14.5593
    14.7598  14.7710  14.9277  15.0372  15.0524  15.0932  15.1946  15.2466
    15.2933  15.3323  15.3497  15.3523  15.4493  15.4803  15.7019  15.7390
    15.7973  15.8675  15.8874  15.9398  16.0165  16.0793  16.0881  16.1646
    16.1895  16.2275  16.2628  16.2830  16.3386  16.3418  16.3741  16.4297
    16.4830  16.5634  16.5693  16.5749  16.6091  16.6462  16.6530  16.6835
    16.6987  16.7448  16.7833  16.8289  16.8415  16.8459  16.8655  16.8788
    16.9161  16.9235  16.9255  16.9301  16.9892

          k = 0.0000 0.4654 0.3092 ( 72571 PWs)   bands (ev):

   -31.0207 -31.0137 -31.0130 -30.9323 -30.9314 -30.9149 -30.9148 -27.7149
   -15.4413 -15.4113 -15.3910 -15.3898 -15.3662 -15.3634 -15.3521 -15.3260
   -15.2928 -15.2913 -15.2731 -15.2686 -15.2668 -15.2472 -15.2044 -15.1848
   -11.6762 -11.5783 -11.5566 -11.5219 -11.5209 -11.4627 -11.4396 -11.4299
   -11.3988 -11.3339 -11.2886 -11.2798 -11.2656 -11.2219 -11.2060 -11.1674
   -11.1375 -11.0876 -11.0812 -11.0460 -10.9835  -9.2213  -9.1870  -9.1755
    -8.2584  -8.0550  -7.9914  -7.8028  -7.7384  -7.7159  -7.6951  -7.6158
    -7.5597  -7.5265  -7.5168  -7.4815  -7.4614  -7.4536  -7.4152  -7.4074
    -7.3455  -7.3427  -7.3031  -7.2942  -7.2411  -7.2085  -7.2067  -7.1908
    -7.1890  -7.1868  -7.1513  -7.1454  -7.1380  -7.1070  -7.0259  -7.0203
    -7.0047  -6.9952  -6.9884  -6.9407  -6.9031  -6.8608  -6.7628  -6.7455
    -6.7426  -6.7311  -6.7122  -6.6855  -6.6763  -6.6549  -6.6526  -6.6209
    -6.6166  -6.5664  -6.5316  -6.5289  -6.4538  -6.4127  -6.3883  -6.3876
    -1.1271  -1.0586  -1.0225  -0.9245  -0.9158  -0.9139  -0.9070  -0.9024
    -0.8840  -0.8813  -0.8637  -0.8332  -0.7610  -0.7603  -0.7394  -0.7286
    -0.7021  -0.6833  -0.6747  -0.6739  -0.6554  -0.6300  -0.6142  -0.5807
    -0.5676  -0.5648  -0.5380  -0.5345  -0.5312  -0.5164  -0.5116  -0.4910
    -0.4894  -0.4862  -0.4716  -0.4679  -0.4577  -0.4263  -0.4250  -0.3758
    -0.2805  -0.2395  -0.2221  -0.2132  -0.2035  -0.1993  -0.1492  -0.0914
     3.0568   3.5107   3.5294   3.5721   3.6761   3.8772   3.9614   4.0219
     4.2550   4.2629   4.2702   4.2999   4.3707   4.3760   4.4295   4.5141
     4.5226   4.5906   4.6798   4.7081   4.7316   4.7530   4.7660   4.7786
     4.8165   4.8341   4.8530   5.0102   5.0288   5.0372   5.0530   5.0633
     5.0831   5.0948   5.1054   5.1063   5.1113   5.1246   5.1257   5.1290
     5.1438   5.2159   5.2222   5.2287   5.2584   5.2653   5.2991   5.3219
     5.3305   5.3380   5.3697   5.3860   5.4058   5.4252   5.4391   5.4835
     5.5318   5.5842   5.6129   5.7830   5.8059   5.8283   5.8363   5.8807
     5.8875   5.9102   5.9542   6.0156   6.0177   6.0669   6.0919   6.1145
     6.1597   6.1766   6.1900   6.1998   6.2215   6.2228   6.2469   6.2563
     6.2811   6.2969   6.3005   6.3054   6.3108   6.3130   6.3132   6.3183
     6.3389   6.3578   6.3705   6.3736   6.3857   6.4146   6.4395   6.4551
     6.4808   6.4930   6.5009   6.5249   6.5353   6.5588   6.5672   6.5792
     6.5879   6.5978   6.6186   6.6190   6.6238   6.6562   6.6642   6.6814
     6.6884   6.7178   6.7244   6.7329   6.7753   6.7769   6.8131   6.8465
     6.9081   7.0065   7.0490   7.0586   7.0845   7.0887   7.2001   7.2129
     7.2352   7.2780   7.2845   7.3152   7.3551   7.3678   7.4098   7.4133
     7.4162   7.4190   7.4312   7.4368   7.4461   7.4575   7.4593   7.4608
     7.4884   7.5182   7.5254   7.5319   7.5326   7.5419   7.6016   7.6036
     7.6095   7.6211   7.6634   7.7286   7.7492   7.7631   7.7701   7.8196
     7.8418   7.8540   7.8580   7.8765   7.9073   7.9262   7.9381   7.9390
     7.9559   8.0226   8.0421   8.0778   8.1085   8.1124   8.1175   8.1334
     8.1451   8.1818   8.1832   8.2143   8.2277   8.2311   8.2638   8.3099
     8.3213   8.3246   8.3425   8.3452   8.3592   8.3598   8.3694   8.3923
     8.3973   8.4188   8.4209   8.4279   8.4365   8.4512   8.4586   8.4802
     8.4893   8.4970   8.4972   8.5318   8.5818   8.6094   8.6256   8.6300
     8.6420   8.6506   8.6541   8.6953   8.7179   8.7205   8.7265   8.7319
     8.7364   8.7426   8.7682   8.7721   8.7852   8.8121   8.8427   8.8501
     8.8966   8.9062   8.9204   8.9322   8.9596   8.9644   8.9776   8.9847
     8.9910   9.0041   9.0099   9.0181   9.0254   9.0429   9.0531   9.0565
     9.0771   9.0878   9.0976   9.0984   9.1357   9.1373   9.1509   9.1873
     9.1961   9.1965   9.2059   9.2182   9.2343   9.2358   9.2833   9.2958
     9.2962   9.3481   9.3591   9.3773   9.4014   9.4705   9.4806   9.5037
     9.5366   9.5392   9.5568   9.5573   9.5973   9.6873   9.7068   9.7222
     9.9633   9.9671  10.0791  10.2469  10.2930  10.5302  10.8004  10.8186
    10.9419  10.9527  11.2637  11.3147  11.3381  11.4450  11.5615  11.5617
    12.8769  13.3284  13.5565  13.5784  13.5881  13.7183  13.7256  13.7310
    13.8498  13.9637  14.0412  14.1596  14.2522  14.2915  14.4285  14.5735
    14.6421  14.9359  14.9905  15.0413  15.0506  15.0964  15.1914  15.1993
    15.2008  15.2270  15.2642  15.4422  15.4771  15.4856  15.6831  15.7368
    15.7406  15.8138  15.8326  15.8457  15.8835  15.9175  15.9425  16.0635
    16.0773  16.1347  16.2329  16.3061  16.3163  16.3512  16.3757  16.4363
    16.4379  16.4446  16.4681  16.4784  16.5540  16.5711  16.5814  16.6167
    16.6254  16.7199  16.7369  16.7839  16.8288  16.8488  16.8657  16.8885
    16.8909  16.9655  16.9978  17.0296  17.0488

          k =-0.4777-0.0000 0.0000 ( 72585 PWs)   bands (ev):

   -31.0207 -31.0134 -31.0133 -30.9320 -30.9317 -30.9151 -30.9147 -27.7149
   -15.4332 -15.4070 -15.4066 -15.3876 -15.3799 -15.3623 -15.3391 -15.3178
   -15.3075 -15.2846 -15.2794 -15.2642 -15.2621 -15.2458 -15.2063 -15.1866
   -11.6370 -11.5918 -11.5795 -11.5266 -11.5167 -11.5137 -11.4630 -11.4170
   -11.3652 -11.2892 -11.2842 -11.2829 -11.2581 -11.2287 -11.1965 -11.1846
   -11.1427 -11.0949 -11.0720 -11.0398 -10.9994  -9.2212  -9.1917  -9.1721
    -8.2622  -8.0361  -7.9997  -7.8257  -7.7824  -7.6601  -7.6180  -7.6117
    -7.5770  -7.5522  -7.5224  -7.4991  -7.4368  -7.4224  -7.4131  -7.4057
    -7.3598  -7.3578  -7.3116  -7.3035  -7.2853  -7.2574  -7.2383  -7.2326
    -7.2067  -7.2036  -7.1878  -7.1265  -7.1105  -7.0478  -7.0352  -7.0030
    -6.9624  -6.9521  -6.9369  -6.8717  -6.8689  -6.8613  -6.8380  -6.7797
    -6.7517  -6.7463  -6.7014  -6.6748  -6.6712  -6.6643  -6.6302  -6.6249
    -6.6125  -6.5688  -6.5678  -6.5186  -6.4631  -6.4545  -6.3792  -6.3623
    -1.0776  -1.0706  -1.0365  -0.9665  -0.9584  -0.9524  -0.9442  -0.9280
    -0.9048  -0.8079  -0.7986  -0.7803  -0.7346  -0.7282  -0.7211  -0.7051
    -0.6827  -0.6713  -0.6696  -0.6666  -0.6565  -0.6561  -0.6341  -0.6021
    -0.5993  -0.5979  -0.5855  -0.5846  -0.5734  -0.5537  -0.5418  -0.5190
    -0.4907  -0.4843  -0.4269  -0.4086  -0.3974  -0.3900  -0.3340  -0.3234
    -0.3013  -0.2816  -0.2723  -0.2557  -0.1845  -0.1570  -0.1449  -0.1234
     3.0945   3.3864   3.4514   3.6765   3.7867   3.8390   3.8806   4.0758
     4.1221   4.1638   4.1661   4.2347   4.4112   4.4764   4.5799   4.6529
     4.6559   4.6637   4.7044   4.7174   4.7251   4.7816   4.8261   4.8825
     4.8957   4.9206   4.9270   4.9463   4.9976   5.0162   5.0227   5.0353
     5.0746   5.0844   5.0943   5.0964   5.1018   5.1084   5.1290   5.1334
     5.1347   5.1516   5.1591   5.1799   5.2111   5.2124   5.2348   5.2475
     5.3116   5.3210   5.3311   5.3720   5.3933   5.4115   5.4294   5.4390
     5.4559   5.5489   5.6704   5.6843   5.7704   5.8084   5.8359   5.8430
     5.8777   5.8795   5.8972   5.9496   6.0720   6.0751   6.1308   6.1375
     6.1638   6.1747   6.2026   6.2049   6.2476   6.2543   6.2570   6.3048
     6.3058   6.3150   6.3201   6.3309   6.3427   6.3443   6.3471   6.3487
     6.3774   6.3918   6.3920   6.3979   6.4223   6.4253   6.4433   6.4517
     6.4861   6.4877   6.5093   6.5365   6.5462   6.5466   6.5509   6.5535
     6.5637   6.5693   6.6380   6.6408   6.6424   6.6504   6.6866   6.6965
     6.7266   6.7361   6.7487   6.7937   6.8222   6.8230   6.8838   6.8943
     6.9629   7.0135   7.0574   7.0607   7.2221   7.2340   7.2520   7.2545
     7.2549   7.2614   7.2651   7.2765   7.3059   7.3379   7.3414   7.3459
     7.3460   7.3478   7.3505   7.3554   7.3603   7.3908   7.3955   7.4100
     7.4241   7.4424   7.4676   7.4962   7.5946   7.6064   7.6235   7.6264
     7.6264   7.6384   7.6468   7.6883   7.6976   7.6986   7.7645   7.7656
     7.7680   7.7694   7.8860   7.9336   7.9420   7.9443   7.9612   7.9818
     7.9856   7.9973   8.0014   8.0331   8.0573   8.0896   8.1048   8.1059
     8.1184   8.1392   8.1457   8.1487   8.1777   8.1978   8.2220   8.2537
     8.2547   8.2769   8.3066   8.3196   8.3344   8.3347   8.3600   8.3702
     8.4238   8.4276   8.4325   8.4477   8.4690   8.4966   8.5042   8.5046
     8.5064   8.5300   8.5522   8.5879   8.5929   8.6211   8.6306   8.6345
     8.6665   8.6758   8.6955   8.6999   8.7095   8.7258   8.7464   8.7492
     8.7525   8.7657   8.7729   8.7957   8.8051   8.8261   8.8535   8.8597
     8.8650   8.8665   8.8911   8.9043   8.9440   8.9545   8.9606   8.9684
     8.9877   9.0054   9.0253   9.0275   9.0321   9.0343   9.0650   9.0700
     9.0762   9.0940   9.1268   9.1311   9.1395   9.1553   9.1632   9.2207
     9.2322   9.2599   9.2635   9.2855   9.2915   9.2988   9.3387   9.3428
     9.3585   9.3925   9.3942   9.4235   9.4363   9.4397   9.4806   9.4813
     9.4975   9.5119   9.5136   9.5361   9.5861   9.5939   9.6448   9.8522
     9.8967   9.8970  10.1946  10.4234  10.6916  10.7119  10.8330  10.8356
    10.8590  10.8622  10.9026  10.9178  11.3489  11.4439  11.4648  11.6000
    12.9660  13.1739  13.3257  13.3259  13.6275  13.8461  13.8757  13.8877
    13.9252  13.9605  14.0240  14.1161  14.1244  14.2642  14.4991  14.6322
    14.7196  14.7847  14.9039  15.0681  15.0720  15.1650  15.1668  15.1773
    15.2618  15.3070  15.3792  15.3957  15.4061  15.4207  15.4748  15.6829
    15.6916  15.8570  15.9250  15.9711  16.0928  16.1431  16.1579  16.1841
    16.2510  16.3582  16.3677  16.3777  16.4342  16.4576  16.4696  16.4888
    16.5312  16.5373  16.5552  16.5926  16.6170  16.6244  16.6320  16.6359
    16.6665  16.7199  16.7290  16.7572  16.7731  16.8010  16.8406  16.8482
    16.8494  16.8999  16.9137  16.9368  16.9617

          k =-0.4777-0.0000 0.3092 ( 72567 PWs)   bands (ev):

   -31.0207 -31.0134 -31.0133 -30.9320 -30.9317 -30.9151 -30.9147 -27.7149
   -15.4342 -15.4075 -15.4060 -15.3884 -15.3790 -15.3615 -15.3398 -15.3171
   -15.3082 -15.2840 -15.2800 -15.2647 -15.2614 -15.2452 -15.2066 -15.1863
   -11.6370 -11.5918 -11.5795 -11.5266 -11.5167 -11.5138 -11.4632 -11.4171
   -11.3652 -11.2892 -11.2842 -11.2830 -11.2581 -11.2288 -11.1965 -11.1846
   -11.1428 -11.0949 -11.0720 -11.0398 -10.9994  -9.2214  -9.1916  -9.1721
    -8.2604  -8.0338  -7.9980  -7.8243  -7.7850  -7.6614  -7.6404  -7.6237
    -7.5895  -7.5360  -7.5249  -7.4844  -7.4317  -7.4208  -7.4110  -7.4055
    -7.3399  -7.3378  -7.3091  -7.3024  -7.2692  -7.2479  -7.2377  -7.2291
    -7.2110  -7.2066  -7.1935  -7.1295  -7.1257  -7.0558  -7.0336  -7.0129
    -6.9580  -6.9544  -6.9380  -6.8916  -6.8713  -6.8661  -6.8564  -6.8161
    -6.7522  -6.7408  -6.7224  -6.6863  -6.6591  -6.6307  -6.6278  -6.6030
    -6.5914  -6.5657  -6.5610  -6.5227  -6.4658  -6.4606  -6.3817  -6.3576
    -1.0770  -1.0751  -1.0372  -0.9620  -0.9591  -0.9478  -0.9454  -0.9227
    -0.8978  -0.7959  -0.7922  -0.7712  -0.7477  -0.7419  -0.7182  -0.7079
    -0.6798  -0.6741  -0.6716  -0.6634  -0.6582  -0.6517  -0.6455  -0.6030
    -0.5968  -0.5940  -0.5918  -0.5803  -0.5792  -0.5497  -0.5384  -0.5254
    -0.4944  -0.4896  -0.4281  -0.4126  -0.3965  -0.3962  -0.3309  -0.3261
    -0.2959  -0.2829  -0.2703  -0.2544  -0.1844  -0.1569  -0.1460  -0.1245
     3.1125   3.3962   3.4631   3.6446   3.8263   3.8277   3.8643   4.0320
     4.0834   4.1720   4.2119   4.2290   4.4492   4.5208   4.5486   4.6216
     4.6557   4.6856   4.7104   4.7166   4.7183   4.7885   4.8359   4.8797
     4.8924   4.8966   4.9255   4.9317   5.0108   5.0216   5.0266   5.0291
     5.0621   5.0716   5.0903   5.0959   5.1003   5.1026   5.1317   5.1391
     5.1451   5.1500   5.1676   5.2069   5.2081   5.2300   5.2338   5.2431
     5.3099   5.3197   5.3259   5.3639   5.3695   5.3826   5.4118   5.4187
     5.4667   5.5066   5.6152   5.7074   5.7735   5.8619   5.8749   5.8785
     5.9111   5.9565   5.9865   6.0198   6.0554   6.0811   6.1259   6.1471
     6.1639   6.1917   6.1973   6.2204   6.2379   6.2652   6.2796   6.2864
     6.2964   6.2982   6.3038   6.3140   6.3173   6.3180   6.3337   6.3465
     6.3472   6.3592   6.3797   6.3855   6.4102   6.4118   6.4251   6.4414
     6.4713   6.4959   6.5089   6.5148   6.5416   6.5490   6.5530   6.5566
     6.5707   6.5896   6.6011   6.6230   6.6323   6.6340   6.6490   6.6518
     6.6568   6.7083   6.7301   6.7353   6.7498   6.8180   6.8255   6.8606
     6.8898   6.9914   7.0246   7.0948   7.2104   7.2150   7.2221   7.2427
     7.2546   7.2690   7.2695   7.3102   7.3474   7.3585   7.3660   7.3788
     7.3879   7.3903   7.4078   7.4267   7.4422   7.4446   7.4507   7.4659
     7.5082   7.5108   7.5246   7.5746   7.5902   7.6124   7.6233   7.6250
     7.6448   7.6472   7.6572   7.6604   7.6994   7.7267   7.7302   7.7365
     7.7875   7.7891   7.8818   7.9022   7.9298   7.9500   7.9538   7.9728
     8.0041   8.0182   8.0430   8.0458   8.0708   8.0714   8.1200   8.1302
     8.1386   8.1620   8.1805   8.1962   8.2292   8.2331   8.2362   8.2487
     8.2704   8.2895   8.3057   8.3187   8.3221   8.3860   8.4004   8.4203
     8.4255   8.4278   8.4458   8.4532   8.4650   8.5015   8.5037   8.5099
     8.5257   8.5441   8.5700   8.5918   8.5941   8.6011   8.6058   8.6293
     8.6503   8.6551   8.6598   8.6706   8.6772   8.6955   8.7110   8.7453
     8.7644   8.7720   8.7902   8.7938   8.8003   8.8430   8.8476   8.8712
     8.8760   8.8860   8.8923   8.9269   8.9320   8.9349   8.9472   8.9554
     8.9621   8.9658   8.9739   8.9817   8.9852   8.9984   9.0624   9.0730
     9.0757   9.0814   9.0946   9.0963   9.1161   9.1324   9.1338   9.1424
     9.2053   9.2604   9.2639   9.2664   9.2684   9.2735   9.2762   9.3034
     9.3333   9.3406   9.3492   9.3932   9.3934   9.3944   9.4051   9.4486
     9.4879   9.5078   9.5319   9.5913   9.6099   9.6232   9.6260   9.8273
     9.8349   9.8725  10.2042  10.4112  10.7108  10.7320  10.8242  10.8327
    10.8805  10.8829  11.0004  11.0059  11.3672  11.4552  11.5874  11.6791
    12.9837  13.3163  13.3662  13.3676  13.5525  13.8423  13.8801  13.8889
    13.9006  13.9627  14.0113  14.1249  14.1545  14.2541  14.5063  14.5865
    14.6038  14.8938  15.0026  15.0717  15.0724  15.1084  15.1772  15.2148
    15.2543  15.2759  15.3104  15.4147  15.4437  15.5695  15.5880  15.6473
    15.7067  15.7547  15.7918  15.8814  15.8885  15.9589  16.0428  16.1317
    16.1480  16.1517  16.2166  16.2541  16.3078  16.3530  16.3791  16.4000
    16.4192  16.4561  16.5279  16.5451  16.5616  16.5857  16.5859  16.6006
    16.6449  16.7004  16.7021  16.7089  16.7209  16.7428  16.7891  16.8062
    16.8101  16.8468  16.8559  16.8723  17.0212

     the Fermi energy is     9.8502 ev

!    total energy              =   -6848.99628143 Ry
     Harris-Foulkes estimate   =   -6848.99628143 Ry
     estimated scf accuracy    <          3.2E-09 Ry

     The total energy is the sum of the following terms:

     one-electron contribution =   -2046.86541071 Ry
     hartree contribution      =    1795.57518322 Ry
     xc contribution           =   -2361.85047323 Ry
     ewald contribution        =   -4235.83703209 Ry
     smearing contrib. (-TS)   =      -0.01854862 Ry

     convergence has been achieved in  19 iterations

     negative rho (up, down):  3.130E-01 0.000E+00

     Forces acting on atoms (cartesian axes, Ry/au):

     atom    1 type  3   force =    -0.00026247    0.00010246   -0.00006245
     atom    2 type  3   force =    -0.00026247   -0.00010246   -0.00006245
     atom    3 type  4   force =    -0.00110831    0.00000000   -0.00003747
     atom    4 type  4   force =    -0.00033662   -0.00039340   -0.00003922
     atom    5 type  4   force =    -0.00103639   -0.00110419    0.01020726
     atom    6 type  4   force =    -0.00103639    0.00110419    0.01020726
     atom    7 type  1   force =     0.00214060    0.00000000   -0.00199334
     atom    8 type  1   force =     0.00000000    0.00000000    0.00843610
     atom    9 type  3   force =     0.01055117    0.01071095   -0.00360870
     atom   10 type  3   force =     0.01055117   -0.01071095   -0.00360870
     atom   11 type  4   force =    -0.02122528    0.00000000   -0.01982693
     atom   12 type  4   force =    -0.00150122   -0.00033078   -0.00700496
     atom   13 type  4   force =     0.00000000    0.02101966   -0.01329006
     atom   14 type  4   force =     0.00051199    0.00165053   -0.00115325
     atom   15 type  5   force =     0.01445587    0.00000000   -0.00012035
     atom   16 type  2   force =     0.00000000    0.00000000   -0.00017309
     atom   17 type  4   force =    -0.02134742    0.00000000    0.02109649
     atom   18 type  4   force =    -0.00150298   -0.00034509    0.00824202
     atom   19 type  4   force =     0.00000000    0.02090869    0.01230504
     atom   20 type  4   force =     0.00049171    0.00165469    0.00019888
     atom   21 type  3   force =     0.01047089    0.01081821    0.00364395
     atom   22 type  3   force =     0.01047089   -0.01081821    0.00364395
     atom   23 type  1   force =     0.00213810    0.00000000    0.00195009
     atom   24 type  1   force =     0.00000000    0.00000000   -0.00846945
     atom   25 type  4   force =    -0.00103536   -0.00110274   -0.01021193
     atom   26 type  4   force =    -0.00103536    0.00110274   -0.01021193
     atom   27 type  3   force =     0.00026247   -0.00010246   -0.00006245
     atom   28 type  3   force =    -0.00000653    0.00025622   -0.00006003
     atom   29 type  4   force =     0.00033662   -0.00039340   -0.00003922
     atom   30 type  4   force =    -0.00064366    0.00000000   -0.00004079
     atom   31 type  4   force =     0.00103639    0.00110419    0.01020726
     atom   32 type  4   force =    -0.00006571   -0.00001443    0.01175495
     atom   33 type  1   force =     0.00000000   -0.00179390   -0.00213902
     atom   34 type  1   force =     0.00000000    0.00000000   -0.00373648
     atom   35 type  3   force =    -0.01055117   -0.01071095   -0.00360870
     atom   36 type  3   force =     0.00016850   -0.00003174   -0.00577540
     atom   37 type  4   force =     0.00150122   -0.00033078   -0.00700496
     atom   38 type  4   force =    -0.00169839    0.00000000   -0.00784616
     atom   39 type  4   force =     0.00051199   -0.00165053   -0.00115325
     atom   40 type  4   force =     0.00000000    0.00126883   -0.00187898
     atom   41 type  5   force =     0.00000000   -0.01236186   -0.00021104
     atom   42 type  5   force =     0.00000000    0.00000000   -0.00016881
     atom   43 type  4   force =     0.00150298   -0.00034509    0.00824202
     atom   44 type  4   force =    -0.00171002    0.00000000    0.00906754
     atom   45 type  4   force =     0.00049171   -0.00165469    0.00019888
     atom   46 type  4   force =     0.00000000    0.00126026    0.00094492
     atom   47 type  3   force =    -0.01047089   -0.01081821    0.00364395
     atom   48 type  3   force =     0.00016151   -0.00004915    0.00578040
     atom   49 type  1   force =     0.00000000   -0.00179552    0.00211772
     atom   50 type  1   force =     0.00000000    0.00000000    0.00370555
     atom   51 type  4   force =     0.00103536    0.00110274   -0.01021193
     atom   52 type  4   force =    -0.00006209   -0.00001140   -0.01175933
     atom   53 type  3   force =    -0.00000653   -0.00025622   -0.00006003
     atom   54 type  3   force =     0.00026247    0.00010246   -0.00006245
     atom   55 type  4   force =     0.00033662    0.00039340   -0.00003922
     atom   56 type  4   force =     0.00110831    0.00000000   -0.00003747
     atom   57 type  4   force =    -0.00006571    0.00001443    0.01175495
     atom   58 type  4   force =     0.00103639   -0.00110419    0.01020726
     atom   59 type  1   force =     0.00000000    0.00179390   -0.00213902
     atom   60 type  1   force =     0.00000000    0.00000000   -0.00373648
     atom   61 type  3   force =     0.00016850    0.00003174   -0.00577540
     atom   62 type  3   force =    -0.01055117    0.01071095   -0.00360870
     atom   63 type  4   force =     0.00150122    0.00033078   -0.00700496
     atom   64 type  4   force =     0.02122528    0.00000000   -0.01982693
     atom   65 type  4   force =    -0.00051199   -0.00165053   -0.00115325
     atom   66 type  4   force =     0.00000000   -0.02101966   -0.01329006
     atom   67 type  5   force =     0.00000000    0.01236186   -0.00021104
     atom   68 type  5   force =     0.00000000    0.00000000   -0.00016881
     atom   69 type  4   force =     0.00150298    0.00034509    0.00824202
     atom   70 type  4   force =     0.02134742    0.00000000    0.02109649
     atom   71 type  4   force =    -0.00049171   -0.00165469    0.00019888
     atom   72 type  4   force =     0.00000000   -0.02090869    0.01230504
     atom   73 type  3   force =     0.00016151    0.00004915    0.00578040
     atom   74 type  3   force =    -0.01047089    0.01081821    0.00364395
     atom   75 type  1   force =     0.00000000    0.00179552    0.00211772
     atom   76 type  1   force =     0.00000000    0.00000000    0.00370555
     atom   77 type  4   force =    -0.00006209    0.00001140   -0.01175933
     atom   78 type  4   force =     0.00103536   -0.00110274   -0.01021193
     atom   79 type  3   force =     0.00000653    0.00025622   -0.00006003
     atom   80 type  3   force =     0.00000653   -0.00025622   -0.00006003
     atom   81 type  4   force =     0.00064366    0.00000000   -0.00004079
     atom   82 type  4   force =    -0.00033662    0.00039340   -0.00003922
     atom   83 type  4   force =     0.00006571   -0.00001443    0.01175495
     atom   84 type  4   force =     0.00006571    0.00001443    0.01175495
     atom   85 type  1   force =    -0.00214060    0.00000000   -0.00199334
     atom   86 type  1   force =     0.00000000    0.00000000   -0.00379475
     atom   87 type  3   force =    -0.00016850   -0.00003174   -0.00577540
     atom   88 type  3   force =    -0.00016850    0.00003174   -0.00577540
     atom   89 type  4   force =     0.00169839    0.00000000   -0.00784616
     atom   90 type  4   force =    -0.00150122    0.00033078   -0.00700496
     atom   91 type  4   force =     0.00000000   -0.00126883   -0.00187898
     atom   92 type  4   force =    -0.00051199    0.00165053   -0.00115325
     atom   93 type  5   force =    -0.01445587    0.00000000   -0.00012035
     atom   94 type  5   force =     0.00000000    0.00000000   -0.00016627
     atom   95 type  4   force =     0.00171002    0.00000000    0.00906754
     atom   96 type  4   force =    -0.00150298    0.00034509    0.00824202
     atom   97 type  4   force =     0.00000000   -0.00126026    0.00094492
     atom   98 type  4   force =    -0.00049171    0.00165469    0.00019888
     atom   99 type  3   force =    -0.00016151   -0.00004915    0.00578040
     atom  100 type  3   force =    -0.00016151    0.00004915    0.00578040
     atom  101 type  1   force =    -0.00213810    0.00000000    0.00195009
     atom  102 type  1   force =     0.00000000    0.00000000    0.00376284
     atom  103 type  4   force =     0.00006209   -0.00001140   -0.01175933
     atom  104 type  4   force =     0.00006209    0.00001140   -0.01175933

     Total force =     0.109067     Total SCF correction =     0.000338


     Computing stress (Cartesian axis) and pressure


     negative rho (up, down):  3.130E-01 0.000E+00
          total   stress  (Ry/bohr**3)                   (kbar)     P=       18.07
   0.00011404   0.00000000   0.00000000           16.78        0.00        0.00
   0.00000000   0.00011787   0.00000000            0.00       17.34        0.00
   0.00000000   0.00000000   0.00013668            0.00        0.00       20.11


     BFGS Geometry Optimization

     number of scf cycles    =   1
     number of bfgs steps    =   0

     enthalpy new            =   -6848.9962814306 Ry

     new trust radius        =       0.0657204072 bohr
     Message from routine volume:
     axis vectors are left-handed
     new conv_thr            =       0.0000000100 Ry

     new unit-cell volume =   9333.58854 a.u.^3 (  1383.09511 Ang^3 )
     density =      6.33999 g/cm^3

CELL_PARAMETERS (angstrom)
  -7.581553210   7.782866274   0.000000000
   7.581553210   7.782866274   0.000000000
   0.000000000   0.000000000  11.719910449

ATOMIC_POSITIONS (angstrom)
Cu           -0.0001392882        0.0000543810       -0.0000331599
Cu           -0.0001392882        3.8913787562       -0.0000331599
O            -0.0005881670        1.9457165686       -0.0000198935
O            -0.0001786384        5.8369409137       -0.0000208260
O            -0.0005499972       -0.0005860314        1.8709928435
O            -0.0005499972        3.8920191685        1.8709928435
Ba           -1.8942523175        1.9457165686        2.1156697763
Ba            1.8953883026        1.9457165686        2.1212076568
Cu            0.0055993567        0.0056846925        4.1389649997
Cu            0.0055993567        3.8857484447        4.1389649997
O            -0.0112639574        1.9457165686        4.4237023166
O            -0.0007966763        5.8369741489        4.4305105962
O             1.8953883026        3.9025890411        4.4388932100
O            -1.8951165945        3.8923091359        4.4453376768
Y            -1.8877167781        1.9457165686        5.8598913210
Ca            1.8953883026        1.9457165686        5.8598633166
O            -0.0113287749        1.9457165686        7.2851623426
O            -0.0007976090        5.8369665527        7.2783368067
O             1.8953883026        3.9025301449        7.2922141213
O            -1.8951273578        3.8923113425        7.2857859250
Cu            0.0055567559        0.0057416169        7.5809641628
Cu            0.0055567559        3.8856915202        7.5809641628
Ba           -1.8942536405        1.9457165686        9.6042177113
Ba            1.8953883026        1.9457165686        9.5986850829
O            -0.0005494532       -0.0005852636        9.8489151240
O            -0.0005494532        3.8920184008        9.8489151240
Cu            3.7909158933        3.8913787562       -0.0000331599
Cu            3.7907731416        7.7830022594       -0.0000318755
O             3.7909552435        5.8369409137       -0.0000208260
O             3.7904350219        9.7285828429       -0.0000216565
O             3.7913266024        3.8920191685        1.8709928435
O             3.7907417364        7.7828586133        1.8718146420
Ba            1.8953883026        5.8361976166        2.1155924219
Ba            5.6861649077        5.8371497057        2.1147441934
Cu            3.7851772484        3.8857484447        4.1389649997
Cu            3.7908660255        7.7828494278        4.1378145176
O             3.7915732814        5.8369741489        4.4305105962
O             3.7898752954        9.7285828429        4.4300639288
O             5.6864366158        7.7819902755        4.4453376768
O             1.8953883026        7.7835396904        4.4449523253
Y             1.8953883026        5.8305888132        5.8598431651
Y             5.6861649077        5.8371497057        5.8598655897
O             3.7915742141        5.8369665527        7.2783368067
O             3.7898691216        9.7285828429        7.2787751422
O             5.6864258524        7.7819880689        7.2857859250
O             1.8953883026        7.7835351420        7.2861820623
Cu            3.7852198492        3.8856915202        7.5809641628
Cu            3.7908623183        7.7828401892        7.5820985900
Ba            1.8953883026        5.8361967594        9.6043067153
Ba            5.6861649077        5.8371497057        9.6051498317
O             3.7913260583        3.8920184008        9.8489151240
O             3.7907436532        7.7828602254        9.8480934802
Cu           -3.7907800686        3.8912971521       -0.0000318755
Cu           -3.7906373169        7.7829206553       -0.0000331599
O            -3.7905979667        5.8373584978       -0.0000208260
O            -3.7901884381        9.7285828429       -0.0000198935
O            -3.7908114738        3.8914407982        1.8718146420
O            -3.7902266079        7.7822802430        1.8709928435
Ba           -5.6861649077        5.8381017949        2.1155924219
Ba           -1.8953883026        5.8371497057        2.1147441934
Cu           -3.7906871848        3.8914499836        4.1378145176
Cu           -3.7963759619        7.7885509668        4.1389649997
O            -3.7899799289        5.8373252625        4.4305105962
O            -3.7795126477        9.7285828429        4.4237023166
O            -1.8956600106        7.7819902755        4.4453376768
O            -5.6861649077        7.7717103704        4.4388932100
Y            -5.6861649077        5.8437105983        5.8598431651
Y            -1.8953883026        5.8371497057        5.8598655897
O            -3.7899789962        5.8373328587        7.2783368067
O            -3.7794478302        9.7285828429        7.2851623426
O            -1.8956492473        7.7819880689        7.2857859250
O            -5.6861649077        7.7717692666        7.2922141213
Cu           -3.7906908919        3.8914592223        7.5820985900
Cu           -3.7963333610        7.7886078912        7.5809641628
Ba           -5.6861649077        5.8381026521        9.6043067153
Ba           -1.8953883026        5.8371497057        9.6051498317
O            -3.7908095570        3.8914391861        9.8480934802
O            -3.7902271520        7.7822810107        9.8489151240
Cu            0.0000034635        7.7830022594       -0.0000318755
Cu            0.0000034635       11.6741634264       -0.0000318755
O             0.0003415832        9.7285828429       -0.0000216565
O            -0.0001786384       13.6202247721       -0.0000208260
O             0.0000348687        7.7828586133        1.8718146420
O             0.0000348687       11.6743070725        1.8718146420
Ba           -1.8965242876        9.7285828429        2.1156697763
Ba            1.8953883026        9.7285828429        2.1147132554
Cu           -0.0000894204        7.7828494278        4.1378145176
Cu           -0.0000894204       11.6743162579        4.1378145176
O             0.0009013097        9.7285828429        4.4300639288
O            -0.0007966763       13.6201915368        4.4305105962
O             1.8953883026       11.6736259954        4.4449523253
O            -1.8956600106       11.6751754102        4.4453376768
Y            -1.9030598270        9.7285828429        5.8598913210
Y             1.8953883026        9.7285828429        5.8598669397
O             0.0009074835        9.7285828429        7.2787751422
O            -0.0007976090       13.6201991330        7.2783368067
O             1.8953883026       11.6736305438        7.2861820623
O            -1.8956492473       11.6751776168        7.2857859250
Cu           -0.0000857132        7.7828401892        7.5820985900
Cu           -0.0000857132       11.6743254966        7.5820985900
Ba           -1.8965229646        9.7285828429        9.6042177113
Ba            1.8953883026        9.7285828429        9.6051802552
O             0.0000329519        7.7828602254        9.8480934802
O             0.0000329519       11.6743054604        9.8480934802


     NEW-OLD atomic charge density approx. for the potential

     negative rho (up, down):  3.160E-01 0.000E+00
     extrapolated charge  854.75188, renormalised to  847.00000

     total cpu time spent up to now is      600.1 secs

     Self-consistent Calculation

     iteration #  1     ecut=    60.00 Ry     beta= 0.50
     Davidson diagonalization with overlap
     c_bands:  3 eigenvalues not converged
     c_bands:  1 eigenvalues not converged
     c_bands:  3 eigenvalues not converged
     c_bands:  5 eigenvalues not converged
     c_bands:  2 eigenvalues not converged
     c_bands:  5 eigenvalues not converged
     ethr =  1.00E-06,  avg # of iterations = 19.9

[...]
     atom  104 type  4   force =    -0.00002055    0.00005617    0.00013601

     Total force =     0.004956     Total SCF correction =     0.000052


     Computing stress (Cartesian axis) and pressure


     negative rho (up, down):  3.133E-01 0.000E+00
          total   stress  (Ry/bohr**3)                   (kbar)     P=       -0.76
  -0.00000546   0.00000000   0.00000000           -0.80        0.00        0.00
   0.00000000  -0.00000571   0.00000000            0.00       -0.84        0.00
   0.00000000   0.00000000  -0.00000429            0.00        0.00       -0.63

 
     init_run     :     27.83s CPU     28.70s WALL (       2 calls)
     electrons    :   5322.56s CPU   5438.87s WALL (      11 calls)
     update_pot   :     26.92s CPU     27.04s WALL (       9 calls)
     forces       :     74.79s CPU     76.88s WALL (      11 calls)
     stress       :    635.51s CPU    640.74s WALL (      11 calls)

     Called by init_run:
     wfcinit      :     19.44s CPU     19.90s WALL (       2 calls)
     potinit      :      1.55s CPU      1.57s WALL (       2 calls)
     hinit0       :      3.57s CPU      3.62s WALL (       2 calls)

     Called by electrons:
     c_bands      :   4626.13s CPU   4688.01s WALL (     208 calls)
     sum_band     :    574.86s CPU    605.48s WALL (     208 calls)
     v_of_rho     :     16.62s CPU     16.90s WALL (     218 calls)
     newd         :     98.49s CPU    122.84s WALL (     218 calls)
     mix_rho      :     10.29s CPU     10.42s WALL (     208 calls)

     Called by c_bands:
     init_us_2    :     29.43s CPU     29.61s WALL (    3520 calls)
     cegterg      :   4518.80s CPU   4579.05s WALL (    1664 calls)

     Called by sum_band:
     sum_band:bec :      8.07s CPU      8.11s WALL (    1664 calls)
     addusdens    :    105.21s CPU    130.52s WALL (     208 calls)

     Called by *egterg:
     h_psi        :   1820.96s CPU   1859.40s WALL (    6997 calls)
     s_psi        :    299.10s CPU    300.29s WALL (    6997 calls)
     g_psi        :      4.85s CPU      4.88s WALL (    5317 calls)
     cdiaghg      :   1426.77s CPU   1432.47s WALL (    6901 calls)

     Called by h_psi:
     h_psi:calbec :    388.53s CPU    393.64s WALL (    6997 calls)
     vloc_psi     :   1122.75s CPU   1141.88s WALL (    6997 calls)
     add_vuspsi   :    300.69s CPU    307.60s WALL (    6997 calls)

     General routines
     calbec       :    602.93s CPU    608.89s WALL (    9101 calls)
     fft          :     18.18s CPU     18.31s WALL (    3097 calls)
     ffts         :      5.54s CPU      5.60s WALL (    5786 calls)
     fftw         :   1285.60s CPU   1307.31s WALL ( 4667312 calls)
     interpolate  :      1.48s CPU      1.49s WALL (     218 calls)
 
     Parallel routines
     fft_scatt_xy :    118.38s CPU    120.28s WALL ( 4676195 calls)
     fft_scatt_yz :    901.61s CPU    917.76s WALL ( 4676195 calls)
 
     PWSCF        :      1h41m CPU      1h43m WALL

 
   This run was terminated on:  17:21:29   4May2021            

=------------------------------------------------------------------------------=
   JOB DONE.
=------------------------------------------------------------------------------=
[1620163289.658689] [holy7c08110:248742:0]          mpool.c:43   UCX  WARN  object 0x4747a80 was not returned to mpool ucp_requests
[1620163289.658716] [holy7c08110:248742:0]          mpool.c:43   UCX  WARN  object 0x474e700 was not returned to mpool ucp_requests
[1620163289.658720] [holy7c08110:248742:0]          mpool.c:43   UCX  WARN  object 0x474f500 was not returned to mpool ucp_requests
[1620163289.657630] [holy7c08102:52086:0]          mpool.c:43   UCX  WARN  object 0x4825800 was not returned to mpool ucp_requests
[1620163289.657658] [holy7c08102:52086:0]          mpool.c:43   UCX  WARN  object 0x4831180 was not returned to mpool ucp_requests
[1620163289.659426] [holy7c08102:52088:0]          mpool.c:43   UCX  WARN  object 0x3cb5700 was not returned to mpool ucp_requests
[1620163289.659453] [holy7c08102:52088:0]          mpool.c:43   UCX  WARN  object 0x3cb6500 was not returned to mpool ucp_requests
[1620163289.665639] [holy7c08203:144901:0]          mpool.c:43   UCX  WARN  object 0x429d380 was not returned to mpool ucp_requests
[1620163289.665669] [holy7c08203:144901:0]          mpool.c:43   UCX  WARN  object 0x42a1600 was not returned to mpool ucp_requests
[1620163289.667922] [holy7c08203:144897:0]          mpool.c:43   UCX  WARN  object 0x3282040 was not returned to mpool ucp_requests
[1620163289.667950] [holy7c08203:144897:0]          mpool.c:43   UCX  WARN  object 0x3289740 was not returned to mpool ucp_requests
[1620163289.666420] [holy7c08102:52090:0]          mpool.c:43   UCX  WARN  object 0x414d200 was not returned to mpool ucp_requests
[1620163289.666447] [holy7c08102:52090:0]          mpool.c:43   UCX  WARN  object 0x414fc00 was not returned to mpool ucp_requests
[1620163289.671400] [holy7c08203:144899:0]          mpool.c:43   UCX  WARN  object 0x3a83d40 was not returned to mpool ucp_requests
[1620163289.671429] [holy7c08203:144899:0]          mpool.c:43   UCX  WARN  object 0x3a8a800 was not returned to mpool ucp_requests
[1620163289.671433] [holy7c08203:144899:0]          mpool.c:43   UCX  WARN  object 0x3a8b0c0 was not returned to mpool ucp_requests
[1620163289.672466] [holy7c08203:144895:0]          mpool.c:43   UCX  WARN  object 0x370f600 was not returned to mpool ucp_requests
[1620163289.672494] [holy7c08203:144895:0]          mpool.c:43   UCX  WARN  object 0x3715100 was not returned to mpool ucp_requests
[1620163289.668693] [holy7c08102:52084:0]          mpool.c:43   UCX  WARN  object 0x421f500 was not returned to mpool ucp_requests
[1620163289.668720] [holy7c08102:52084:0]          mpool.c:43   UCX  WARN  object 0x42251c0 was not returned to mpool ucp_requests
[1620163289.664613] [holy7c08110:248740:0]          mpool.c:43   UCX  WARN  object 0x95aeac0 was not returned to mpool ucp_requests
[1620163289.664641] [holy7c08110:248740:0]          mpool.c:43   UCX  WARN  object 0x36b3880 was not returned to mpool ucp_requests
[1620163289.664646] [holy7c08110:248740:0]          mpool.c:43   UCX  WARN  object 0x36b7240 was not returned to mpool ucp_requests
[1620163289.664649] [holy7c08110:248740:0]          mpool.c:43   UCX  WARN  object 0x36b8040 was not returned to mpool ucp_requests
[1620163289.675880] [holy7c08203:144891:0]          mpool.c:43   UCX  WARN  object 0x41fcd40 was not returned to mpool ucp_requests
[1620163289.675908] [holy7c08203:144891:0]          mpool.c:43   UCX  WARN  object 0x41ffc80 was not returned to mpool ucp_requests
[1620163289.668407] [holy7c08110:248745:0]          mpool.c:43   UCX  WARN  object 0x28d35c0 was not returned to mpool ucp_requests
[1620163289.668434] [holy7c08110:248745:0]          mpool.c:43   UCX  WARN  object 0x28d7f40 was not returned to mpool ucp_requests
[1620163289.670447] [holy7c08102:52083:0]          mpool.c:43   UCX  WARN  object 0x43b17c0 was not returned to mpool ucp_requests
[1620163289.670479] [holy7c08102:52083:0]          mpool.c:43   UCX  WARN  object 0x43b7f00 was not returned to mpool ucp_requests
[1620163289.675909] [holy7c08203:144893:0]          mpool.c:43   UCX  WARN  object 0x42b0780 was not returned to mpool ucp_requests
[1620163289.675938] [holy7c08203:144893:0]          mpool.c:43   UCX  WARN  object 0x42b6980 was not returned to mpool ucp_requests
[1620163289.668793] [holy7c08110:248739:0]          mpool.c:43   UCX  WARN  object 0x348dc80 was not returned to mpool ucp_requests
[1620163289.675008] [holy7c08110:248743:0]          mpool.c:43   UCX  WARN  object 0x2c90600 was not returned to mpool ucp_requests
[1620163289.674736] [holy7c08102:52089:0]          mpool.c:43   UCX  WARN  object 0x42937c0 was not returned to mpool ucp_requests
[1620163289.674629] [holy7c08102:52085:0]          mpool.c:43   UCX  WARN  object 0xb03bb40 was not returned to mpool ucp_requests
[1620163289.674655] [holy7c08102:52085:0]          mpool.c:43   UCX  WARN  object 0x42f7ec0 was not returned to mpool ucp_requests
[1620163289.674658] [holy7c08102:52085:0]          mpool.c:43   UCX  WARN  object 0x42fb500 was not returned to mpool ucp_requests
[1620163289.675256] [holy7c08110:248741:0]          mpool.c:43   UCX  WARN  object 0x325dd80 was not returned to mpool ucp_requests
[1620163289.675278] [holy7c08110:248741:0]          mpool.c:43   UCX  WARN  object 0x3260400 was not returned to mpool ucp_requests
[1620163289.679268] [holy7c08102:52087:0]          mpool.c:43   UCX  WARN  object 0x2873e40 was not returned to mpool ucp_requests
[1620163289.679288] [holy7c08102:52087:0]          mpool.c:43   UCX  WARN  object 0x2876140 was not returned to mpool ucp_requests
[1620163289.679290] [holy7c08102:52087:0]          mpool.c:43   UCX  WARN  object 0x2876d80 was not returned to mpool ucp_requests
[1620163289.684622] [holy7c08102:52091:0]          mpool.c:43   UCX  WARN  object 0x3c97300 was not returned to mpool ucp_requests
[1620163289.685159] [holy7c08203:144892:0]          mpool.c:43   UCX  WARN  object 0x3778e40 was not returned to mpool ucp_requests
[1620163289.687131] [holy7c08203:144896:0]          mpool.c:43   UCX  WARN  object 0x432f200 was not returned to mpool ucp_requests
[1620163289.687153] [holy7c08203:144896:0]          mpool.c:43   UCX  WARN  object 0x4330540 was not returned to mpool ucp_requests
[1620163289.686221] [holy7c08203:144898:0]          mpool.c:43   UCX  WARN  object 0x3684740 was not returned to mpool ucp_requests
[1620163289.686241] [holy7c08203:144898:0]          mpool.c:43   UCX  WARN  object 0x3686180 was not returned to mpool ucp_requests
[1620163289.686153] [holy7c08203:144900:0]          mpool.c:43   UCX  WARN  object 0x42b1280 was not returned to mpool ucp_requests
[1620163289.686175] [holy7c08203:144900:0]          mpool.c:43   UCX  WARN  object 0x42ba200 was not returned to mpool ucp_requests
[1620163289.688796] [holy7c08203:144894:0]          mpool.c:43   UCX  WARN  object 0x3bf9180 was not returned to mpool ucp_requests
[1620163289.688812] [holy7c08203:144894:0]          mpool.c:43   UCX  WARN  object 0x3bfaa00 was not returned to mpool ucp_requests
[1620163289.771829] [holy7c06508:273636:0]          mpool.c:43   UCX  WARN  object 0x2acbb40 was not returned to mpool ucp_requests
[1620163289.771857] [holy7c06508:273636:0]          mpool.c:43   UCX  WARN  object 0x2acc400 was not returned to mpool ucp_requests
[1620163289.771861] [holy7c06508:273636:0]          mpool.c:43   UCX  WARN  object 0x2acce80 was not returned to mpool ucp_requests
[1620163289.771864] [holy7c06508:273636:0]          mpool.c:43   UCX  WARN  object 0x2acea80 was not returned to mpool ucp_requests
[1620163289.771501] [holy7c06508:273642:0]          mpool.c:43   UCX  WARN  object 0x322a3c0 was not returned to mpool ucp_requests
[1620163289.771532] [holy7c06508:273642:0]          mpool.c:43   UCX  WARN  object 0x3230240 was not returned to mpool ucp_requests
[1620163289.781170] [holy7c06508:273631:0]          mpool.c:43   UCX  WARN  object 0x46ac080 was not returned to mpool ucp_requests
[1620163289.781197] [holy7c06508:273631:0]          mpool.c:43   UCX  WARN  object 0x46ad040 was not returned to mpool ucp_requests
[1620163289.781201] [holy7c06508:273631:0]          mpool.c:43   UCX  WARN  object 0x46af180 was not returned to mpool ucp_requests
[1620163289.781204] [holy7c06508:273631:0]          mpool.c:43   UCX  WARN  object 0x46b04c0 was not returned to mpool ucp_requests
[1620163289.782676] [holy7c06508:273620:0]          mpool.c:43   UCX  WARN  object 0x48966c0 was not returned to mpool ucp_requests
[1620163289.782705] [holy7c06508:273620:0]          mpool.c:43   UCX  WARN  object 0x4897300 was not returned to mpool ucp_requests
[1620163289.782709] [holy7c06508:273620:0]          mpool.c:43   UCX  WARN  object 0x4897a00 was not returned to mpool ucp_requests
[1620163289.782713] [holy7c06508:273620:0]          mpool.c:43   UCX  WARN  object 0x489f2c0 was not returned to mpool ucp_requests
[1620163289.778617] [holy7c06508:273637:0]          mpool.c:43   UCX  WARN  object 0x48998c0 was not returned to mpool ucp_requests
[1620163289.788704] [holy7c06508:273625:0]          mpool.c:43   UCX  WARN  object 0x3c41340 was not returned to mpool ucp_requests
[1620163289.788731] [holy7c06508:273625:0]          mpool.c:43   UCX  WARN  object 0x3c46580 was not returned to mpool ucp_requests
[1620163289.788734] [holy7c06508:273625:0]          mpool.c:43   UCX  WARN  object 0x3c46e40 was not returned to mpool ucp_requests
[1620163289.788737] [holy7c06508:273625:0]          mpool.c:43   UCX  WARN  object 0x3c4ad40 was not returned to mpool ucp_requests
[1620163289.791269] [holy7c06508:273635:0]          mpool.c:43   UCX  WARN  object 0x443d500 was not returned to mpool ucp_requests
[1620163289.791296] [holy7c06508:273635:0]          mpool.c:43   UCX  WARN  object 0x443ff00 was not returned to mpool ucp_requests
[1620163289.791300] [holy7c06508:273635:0]          mpool.c:43   UCX  WARN  object 0x4442900 was not returned to mpool ucp_requests
[1620163289.791303] [holy7c06508:273635:0]          mpool.c:43   UCX  WARN  object 0x4443000 was not returned to mpool ucp_requests
[1620163289.790947] [holy7c06508:273626:0]          mpool.c:43   UCX  WARN  object 0x42c3580 was not returned to mpool ucp_requests
[1620163289.790975] [holy7c06508:273626:0]          mpool.c:43   UCX  WARN  object 0x42c5180 was not returned to mpool ucp_requests
[1620163289.795208] [holy7c06508:273628:0]          mpool.c:43   UCX  WARN  object 0x3a0b8c0 was not returned to mpool ucp_requests
[1620163289.795237] [holy7c06508:273628:0]          mpool.c:43   UCX  WARN  object 0x3a0ed40 was not returned to mpool ucp_requests
[1620163289.795241] [holy7c06508:273628:0]          mpool.c:43   UCX  WARN  object 0x3a0fec0 was not returned to mpool ucp_requests
[1620163289.795244] [holy7c06508:273628:0]          mpool.c:43   UCX  WARN  object 0x3a10240 was not returned to mpool ucp_requests
[1620163289.788761] [holy7c06508:273638:0]          mpool.c:43   UCX  WARN  object 0x3b55b00 was not returned to mpool ucp_requests
[1620163289.788791] [holy7c06508:273638:0]          mpool.c:43   UCX  WARN  object 0x3b56900 was not returned to mpool ucp_requests
[1620163289.788795] [holy7c06508:273638:0]          mpool.c:43   UCX  WARN  object 0x3b58880 was not returned to mpool ucp_requests
[1620163289.788799] [holy7c06508:273638:0]          mpool.c:43   UCX  WARN  object 0x3b5b600 was not returned to mpool ucp_requests
[1620163289.788801] [holy7c06508:273638:0]          mpool.c:43   UCX  WARN  object 0x3b5ea80 was not returned to mpool ucp_requests
[1620163289.801932] [holy7c06508:273623:0]          mpool.c:43   UCX  WARN  object 0x3d66400 was not returned to mpool ucp_requests
[1620163289.801960] [holy7c06508:273623:0]          mpool.c:43   UCX  WARN  object 0x3d6f380 was not returned to mpool ucp_requests
[1620163289.802774] [holy7c06508:273641:0]          mpool.c:43   UCX  WARN  object 0x484c380 was not returned to mpool ucp_requests
[1620163289.802801] [holy7c06508:273641:0]          mpool.c:43   UCX  WARN  object 0x484e300 was not returned to mpool ucp_requests
[1620163289.802805] [holy7c06508:273641:0]          mpool.c:43   UCX  WARN  object 0x4851b00 was not returned to mpool ucp_requests
[1620163289.802809] [holy7c06508:273641:0]          mpool.c:43   UCX  WARN  object 0x48546c0 was not returned to mpool ucp_requests
[1620163289.805240] [holy7c06508:273640:0]          mpool.c:43   UCX  WARN  object 0x42bea40 was not returned to mpool ucp_requests
[1620163289.808003] [holy7c06508:273651:0]          mpool.c:43   UCX  WARN  object 0x2fa4c80 was not returned to mpool ucp_requests
[1620163289.808031] [holy7c06508:273651:0]          mpool.c:43   UCX  WARN  object 0x2fa6a40 was not returned to mpool ucp_requests
[1620163289.810104] [holy7c06508:273619:0]          mpool.c:43   UCX  WARN  object 0x350c840 was not returned to mpool ucp_requests
[1620163289.810132] [holy7c06508:273619:0]          mpool.c:43   UCX  WARN  object 0x350cbc0 was not returned to mpool ucp_requests
[1620163289.810136] [holy7c06508:273619:0]          mpool.c:43   UCX  WARN  object 0x350d480 was not returned to mpool ucp_requests
[1620163289.809240] [holy7c06508:273622:0]          mpool.c:43   UCX  WARN  object 0x48a21c0 was not returned to mpool ucp_requests
[1620163289.809267] [holy7c06508:273622:0]          mpool.c:43   UCX  WARN  object 0x48a28c0 was not returned to mpool ucp_requests
[1620163289.809271] [holy7c06508:273622:0]          mpool.c:43   UCX  WARN  object 0x48a5640 was not returned to mpool ucp_requests
[1620163289.812775] [holy7c06508:273639:0]          mpool.c:43   UCX  WARN  object 0x40729c0 was not returned to mpool ucp_requests
[1620163289.812798] [holy7c06508:273639:0]          mpool.c:43   UCX  WARN  object 0x407a440 was not returned to mpool ucp_requests
[1620163289.812801] [holy7c06508:273639:0]          mpool.c:43   UCX  WARN  object 0x407a980 was not returned to mpool ucp_requests
[1620163289.813208] [holy7c06508:273632:0]          mpool.c:43   UCX  WARN  object 0x3c98c40 was not returned to mpool ucp_requests
[1620163289.814228] [holy7c06508:273649:0]          mpool.c:43   UCX  WARN  object 0x2fcbdc0 was not returned to mpool ucp_requests
[1620163289.814255] [holy7c06508:273649:0]          mpool.c:43   UCX  WARN  object 0x2fcd640 was not returned to mpool ucp_requests
[1620163289.816137] [holy7c06508:273633:0]          mpool.c:43   UCX  WARN  object 0x4579a00 was not returned to mpool ucp_requests
[1620163289.816201] [holy7c06508:273633:0]          mpool.c:43   UCX  WARN  object 0x457a2c0 was not returned to mpool ucp_requests
[1620163289.816205] [holy7c06508:273633:0]          mpool.c:43   UCX  WARN  object 0x457b440 was not returned to mpool ucp_requests
[1620163289.816208] [holy7c06508:273633:0]          mpool.c:43   UCX  WARN  object 0x457c400 was not returned to mpool ucp_requests
[1620163289.816211] [holy7c06508:273633:0]          mpool.c:43   UCX  WARN  object 0x457d200 was not returned to mpool ucp_requests
[1620163289.816345] [holy7c06508:273634:0]          mpool.c:43   UCX  WARN  object 0x3708b00 was not returned to mpool ucp_requests
[1620163289.815731] [holy7c06508:273648:0]          mpool.c:43   UCX  WARN  object 0x4680f80 was not returned to mpool ucp_requests
[1620163289.813927] [holy7c06508:273644:0]          mpool.c:43   UCX  WARN  object 0x35c7d00 was not returned to mpool ucp_requests
[1620163289.813950] [holy7c06508:273644:0]          mpool.c:43   UCX  WARN  object 0x35ca8c0 was not returned to mpool ucp_requests
[1620163289.813954] [holy7c06508:273644:0]          mpool.c:43   UCX  WARN  object 0x35cafc0 was not returned to mpool ucp_requests
[1620163289.824947] [holy7c06508:273652:0]          mpool.c:43   UCX  WARN  object 0x2b6ee00 was not returned to mpool ucp_requests
[1620163289.824971] [holy7c06508:273652:0]          mpool.c:43   UCX  WARN  object 0x2b75380 was not returned to mpool ucp_requests
[1620163289.824975] [holy7c06508:273652:0]          mpool.c:43   UCX  WARN  object 0x2b766c0 was not returned to mpool ucp_requests
[1620163289.824977] [holy7c06508:273652:0]          mpool.c:43   UCX  WARN  object 0x2b774c0 was not returned to mpool ucp_requests
[1620163289.825909] [holy7c06508:273647:0]          mpool.c:43   UCX  WARN  object 0x34f87c0 was not returned to mpool ucp_requests
[1620163289.825930] [holy7c06508:273647:0]          mpool.c:43   UCX  WARN  object 0x34fd680 was not returned to mpool ucp_requests
[1620163289.825933] [holy7c06508:273647:0]          mpool.c:43   UCX  WARN  object 0x34ff440 was not returned to mpool ucp_requests
[1620163289.825935] [holy7c06508:273647:0]          mpool.c:43   UCX  WARN  object 0x35005c0 was not returned to mpool ucp_requests
[1620163289.818660] [holy7c06508:273630:0]          mpool.c:43   UCX  WARN  object 0x42f5d40 was not returned to mpool ucp_requests
