
     Program PWSCF v.6.5 starts on  3May2021 at 23:54:52 

     This program is part of the open-source Quantum ESPRESSO suite
     for quantum simulation of materials; please cite
         "P. Giannozzi et al., J. Phys.:Condens. Matter 21 395502 (2009);
         "P. Giannozzi et al., J. Phys.:Condens. Matter 29 465901 (2017);
          URL http://www.quantum-espresso.org", 
     in publications or presentations arising from this work. More details at
     http://www.quantum-espresso.org/quote

     Parallel version (MPI), running on    80 processors

     MPI processes distributed on     5 nodes
     R & G space division:  proc/nbgrp/npool/nimage =      80
     Reading input from dYBCO_rt2_111_0vac_NOcleave_0sep_444_r2.pwi

     Current dimensions of program PWSCF are:
     Max number of different atomic species (ntypx) = 10
     Max number of k-points (npk) =  40000
     Max angular momentum in pseudopotentials (lmaxx) =  3

     Subspace diagonalization in iterative solution of the eigenvalue problem:
     one sub-group per band group will be used
     scalapack distributed-memory algorithm (size of sub-group:  8*  8 procs)

     Message from routine setup:
     using ibrav=0 with symmetry is DISCOURAGED, use correct ibrav instead
 
     Parallelization info
     --------------------
     sticks:   dense  smooth     PW     G-vecs:    dense   smooth      PW
     Min         303     101     27                38211     7353    1013
     Max         304     102     28                38220     7358    1018
     Sum       24309    8109   2177              3057233   588385   81161
 


     bravais-lattice index     =            0
     lattice parameter (alat)  =      20.6056  a.u.
     unit-cell volume          =    9371.6055 (a.u.)^3
     number of atoms/cell      =          104
     number of atomic types    =            5
     number of electrons       =       847.00
     number of Kohn-Sham states=          509
     kinetic-energy cutoff     =      60.0000  Ry
     charge density cutoff     =     720.0000  Ry
     convergence threshold     =      1.0E-06
     mixing beta               =       0.2000
     number of iterations used =           10  local-TF  mixing
     Exchange-correlation= SLA PW PBE PBE
                           (   1   4   3   4   0   0   0)
     nstep                     =          300


     celldm(1)=  20.605642  celldm(2)=   0.000000  celldm(3)=   0.000000
     celldm(4)=   0.000000  celldm(5)=   0.000000  celldm(6)=   0.000000

     crystal axes: (cart. coord. in units of alat)
               a(1) = (   1.000000   0.000000   0.000000 )  
               a(2) = (   0.000000   1.000000   0.000000 )  
               a(3) = (   0.000000   0.000000   1.071163 )  

     reciprocal axes: (cart. coord. in units 2 pi/alat)
               b(1) = (  1.000000  0.000000  0.000000 )  
               b(2) = (  0.000000  1.000000  0.000000 )  
               b(3) = (  0.000000  0.000000  0.933565 )  


     PseudoPot. # 1 for Ba read from file:
     ./pseudo/Ba.pbe-nsp-van.UPF
     MD5 check sum: 2b9c31dd849566dd297d80989662b7a0
     Pseudo is Ultrasoft + core correction, Zval = 10.0
     Generated by new atomic code, or converted to UPF format
     Using radial grid of  907 points,  6 beta functions with: 
                l(1) =   0
                l(2) =   0
                l(3) =   1
                l(4) =   1
                l(5) =   2
                l(6) =   2
     Q(r) pseudized with  6 coefficients,  rinner =    1.200   1.200   1.200
                                                       1.200   1.200

     PseudoPot. # 2 for Ca read from file:
     ./pseudo/Ca.pbe-nsp-van.UPF
     MD5 check sum: 6471098428ff4fa451746d08035ff179
     Pseudo is Ultrasoft + core correction, Zval = 10.0
     Generated by new atomic code, or converted to UPF format
     Using radial grid of  845 points,  6 beta functions with: 
                l(1) =   0
                l(2) =   0
                l(3) =   1
                l(4) =   1
                l(5) =   2
                l(6) =   2
     Q(r) pseudized with  6 coefficients,  rinner =    1.200   1.200   1.200
                                                       1.200   1.200

     PseudoPot. # 3 for Cu read from file:
     ./pseudo/Cu.pbe-n-van_ak.UPF
     MD5 check sum: 34e3282627ffb533726feb647e090d62
     Pseudo is Ultrasoft + core correction, Zval = 11.0
     Generated by new atomic code, or converted to UPF format
     Using radial grid of  867 points,  6 beta functions with: 
                l(1) =   0
                l(2) =   0
                l(3) =   1
                l(4) =   1
                l(5) =   2
                l(6) =   2
     Q(r) pseudized with  8 coefficients,  rinner =    1.400   1.400   1.400
                                                       1.400   1.400

     PseudoPot. # 4 for O  read from file:
     ./pseudo/O.pbe-van_ak.UPF
     MD5 check sum: 783ce7fe4c79b6a4916957118fed0856
     Pseudo is Ultrasoft, Zval =  6.0
     Generated by new atomic code, or converted to UPF format
     Using radial grid of  737 points,  4 beta functions with: 
                l(1) =   0
                l(2) =   0
                l(3) =   1
                l(4) =   1
     Q(r) pseudized with  8 coefficients,  rinner =    0.800   0.800   0.800


     PseudoPot. # 5 for Y  read from file:
     ./pseudo/Y.pbe-nsp-van.UPF
     MD5 check sum: 4412fed3ab108fed87a1b7d6a69a4a38
     Pseudo is Ultrasoft + core correction, Zval = 11.0
     Generated by new atomic code, or converted to UPF format
     Using radial grid of  885 points,  6 beta functions with: 
                l(1) =   0
                l(2) =   0
                l(3) =   1
                l(4) =   1
                l(5) =   2
                l(6) =   2
     Q(r) pseudized with  6 coefficients,  rinner =    1.200   1.200   1.200
                                                       1.200   1.200

     atomic species   valence    mass     pseudopotential
        Ba            10.00   137.32700     Ba( 1.00)
        Ca            10.00    40.07800     Ca( 1.00)
        Cu            11.00    63.54600     Cu( 1.00)
        O              6.00    15.99900     O ( 1.00)
        Y             11.00    88.90584     Y ( 1.00)

      4 Sym. Ops. (no inversion) found ( 3 have fractional translation)



   Cartesian axes

     site n.     atom                  positions (alat units)
         1           Cu  tau(   1) = (   0.0000000   0.0000000   0.0000000  )
         2           Cu  tau(   2) = (   0.2500001   0.2500001   0.0000000  )
         3           O   tau(   3) = (   0.1249996   0.1249996   0.0000000  )
         4           O   tau(   4) = (   0.3749997   0.3749997   0.0000000  )
         5           O   tau(   5) = (   0.0000000   0.0000000   0.1705075  )
         6           O   tau(   6) = (   0.2500001   0.2500001   0.1705075  )
         7           Ba  tau(   7) = (   0.2500001   0.0000000   0.1934623  )
         8           Ba  tau(   8) = (   0.0000000   0.2500001   0.1934623  )
         9           Cu  tau(   9) = (   0.0000000   0.0000000   0.3784635  )
        10           Cu  tau(  10) = (   0.2500001   0.2500001   0.3784635  )
        11           O   tau(  11) = (   0.1249996   0.1249996   0.4052747  )
        12           O   tau(  12) = (   0.3749997   0.3749997   0.4052747  )
        13           O   tau(  13) = (   0.1249996   0.3749997   0.4063459  )
        14           O   tau(  14) = (   0.3749997   0.1249996   0.4063459  )
        15           Y   tau(  15) = (   0.2500001   0.0000000   0.5355815  )
        16           Ca  tau(  16) = (   0.0000000   0.2500001   0.5355815  )
        17           O   tau(  17) = (   0.1249996   0.1249996   0.6648171  )
        18           O   tau(  18) = (   0.3749997   0.3749997   0.6648171  )
        19           O   tau(  19) = (   0.1249996   0.3749997   0.6658883  )
        20           O   tau(  20) = (   0.3749997   0.1249996   0.6658883  )
        21           Cu  tau(  21) = (   0.0000000   0.0000000   0.6926995  )
        22           Cu  tau(  22) = (   0.2500001   0.2500001   0.6926995  )
        23           Ba  tau(  23) = (   0.2500001   0.0000000   0.8777007  )
        24           Ba  tau(  24) = (   0.0000000   0.2500001   0.8777007  )
        25           O   tau(  25) = (   0.0000000   0.0000000   0.9006555  )
        26           O   tau(  26) = (   0.2500001   0.2500001   0.9006555  )
        27           Cu  tau(  27) = (   0.0000000   0.5000002   0.0000000  )
        28           Cu  tau(  28) = (   0.2500001   0.7500003   0.0000000  )
        29           O   tau(  29) = (   0.1249996   0.6249998   0.0000000  )
        30           O   tau(  30) = (   0.3749997   0.8749999   0.0000000  )
        31           O   tau(  31) = (   0.0000000   0.5000002   0.1705075  )
        32           O   tau(  32) = (   0.2500001   0.7500003   0.1705075  )
        33           Ba  tau(  33) = (   0.2500001   0.5000002   0.1934623  )
        34           Ba  tau(  34) = (   0.0000000   0.7500003   0.1934623  )
        35           Cu  tau(  35) = (   0.0000000   0.5000002   0.3784635  )
        36           Cu  tau(  36) = (   0.2500001   0.7500003   0.3784635  )
        37           O   tau(  37) = (   0.1249996   0.6249998   0.4052747  )
        38           O   tau(  38) = (   0.3749997   0.8749999   0.4052747  )
        39           O   tau(  39) = (   0.1249996   0.8749999   0.4063459  )
        40           O   tau(  40) = (   0.3749997   0.6249998   0.4063459  )
        41           Y   tau(  41) = (   0.2500001   0.5000002   0.5355815  )
        42           Y   tau(  42) = (   0.0000000   0.7500003   0.5355815  )
        43           O   tau(  43) = (   0.1249996   0.6249998   0.6648171  )
        44           O   tau(  44) = (   0.3749997   0.8749999   0.6648171  )
        45           O   tau(  45) = (   0.1249996   0.8749999   0.6658883  )
        46           O   tau(  46) = (   0.3749997   0.6249998   0.6658883  )
        47           Cu  tau(  47) = (   0.0000000   0.5000002   0.6926995  )
        48           Cu  tau(  48) = (   0.2500001   0.7500003   0.6926995  )
        49           Ba  tau(  49) = (   0.2500001   0.5000002   0.8777007  )
        50           Ba  tau(  50) = (   0.0000000   0.7500003   0.8777007  )
        51           O   tau(  51) = (   0.0000000   0.5000002   0.9006555  )
        52           O   tau(  52) = (   0.2500001   0.7500003   0.9006555  )
        53           Cu  tau(  53) = (   0.5000002   0.0000000   0.0000000  )
        54           Cu  tau(  54) = (   0.7500003   0.2500001   0.0000000  )
        55           O   tau(  55) = (   0.6249998   0.1249996   0.0000000  )
        56           O   tau(  56) = (   0.8749999   0.3749997   0.0000000  )
        57           O   tau(  57) = (   0.5000002   0.0000000   0.1705075  )
        58           O   tau(  58) = (   0.7500003   0.2500001   0.1705075  )
        59           Ba  tau(  59) = (   0.7500003   0.0000000   0.1934623  )
        60           Ba  tau(  60) = (   0.5000002   0.2500001   0.1934623  )
        61           Cu  tau(  61) = (   0.5000002   0.0000000   0.3784635  )
        62           Cu  tau(  62) = (   0.7500003   0.2500001   0.3784635  )
        63           O   tau(  63) = (   0.6249998   0.1249996   0.4052747  )
        64           O   tau(  64) = (   0.8749999   0.3749997   0.4052747  )
        65           O   tau(  65) = (   0.6249998   0.3749997   0.4063459  )
        66           O   tau(  66) = (   0.8749999   0.1249996   0.4063459  )
        67           Y   tau(  67) = (   0.7500003   0.0000000   0.5355815  )
        68           Y   tau(  68) = (   0.5000002   0.2500001   0.5355815  )
        69           O   tau(  69) = (   0.6249998   0.1249996   0.6648171  )
        70           O   tau(  70) = (   0.8749999   0.3749997   0.6648171  )
        71           O   tau(  71) = (   0.6249998   0.3749997   0.6658883  )
        72           O   tau(  72) = (   0.8749999   0.1249996   0.6658883  )
        73           Cu  tau(  73) = (   0.5000002   0.0000000   0.6926995  )
        74           Cu  tau(  74) = (   0.7500003   0.2500001   0.6926995  )
        75           Ba  tau(  75) = (   0.7500003   0.0000000   0.8777007  )
        76           Ba  tau(  76) = (   0.5000002   0.2500001   0.8777007  )
        77           O   tau(  77) = (   0.5000002   0.0000000   0.9006555  )
        78           O   tau(  78) = (   0.7500003   0.2500001   0.9006555  )
        79           Cu  tau(  79) = (   0.5000002   0.5000002   0.0000000  )
        80           Cu  tau(  80) = (   0.7500003   0.7500003   0.0000000  )
        81           O   tau(  81) = (   0.6249998   0.6249998   0.0000000  )
        82           O   tau(  82) = (   0.8749999   0.8749999   0.0000000  )
        83           O   tau(  83) = (   0.5000002   0.5000002   0.1705075  )
        84           O   tau(  84) = (   0.7500003   0.7500003   0.1705075  )
        85           Ba  tau(  85) = (   0.7500003   0.5000002   0.1934623  )
        86           Ba  tau(  86) = (   0.5000002   0.7500003   0.1934623  )
        87           Cu  tau(  87) = (   0.5000002   0.5000002   0.3784635  )
        88           Cu  tau(  88) = (   0.7500003   0.7500003   0.3784635  )
        89           O   tau(  89) = (   0.6249998   0.6249998   0.4052747  )
        90           O   tau(  90) = (   0.8749999   0.8749999   0.4052747  )
        91           O   tau(  91) = (   0.6249998   0.8749999   0.4063459  )
        92           O   tau(  92) = (   0.8749999   0.6249998   0.4063459  )
        93           Y   tau(  93) = (   0.7500003   0.5000002   0.5355815  )
        94           Y   tau(  94) = (   0.5000002   0.7500003   0.5355815  )
        95           O   tau(  95) = (   0.6249998   0.6249998   0.6648171  )
        96           O   tau(  96) = (   0.8749999   0.8749999   0.6648171  )
        97           O   tau(  97) = (   0.6249998   0.8749999   0.6658883  )
        98           O   tau(  98) = (   0.8749999   0.6249998   0.6658883  )
        99           Cu  tau(  99) = (   0.5000002   0.5000002   0.6926995  )
       100           Cu  tau( 100) = (   0.7500003   0.7500003   0.6926995  )
       101           Ba  tau( 101) = (   0.7500003   0.5000002   0.8777007  )
       102           Ba  tau( 102) = (   0.5000002   0.7500003   0.8777007  )
       103           O   tau( 103) = (   0.5000002   0.5000002   0.9006555  )
       104           O   tau( 104) = (   0.7500003   0.7500003   0.9006555  )

     number of k points=    21  Gaussian smearing, width (Ry)=  0.0100
                       cart. coord. in units 2pi/alat
        k(    1) = (   0.0000000   0.0000000   0.0000000), wk =   0.0312500
        k(    2) = (   0.0000000   0.0000000   0.2333912), wk =   0.0625000
        k(    3) = (   0.0000000   0.0000000  -0.4667824), wk =   0.0312500
        k(    4) = (   0.0000000   0.2500000   0.0000000), wk =   0.1250000
        k(    5) = (   0.0000000   0.2500000   0.2333912), wk =   0.2500000
        k(    6) = (   0.0000000   0.2500000  -0.4667824), wk =   0.1250000
        k(    7) = (   0.0000000  -0.5000000   0.0000000), wk =   0.0625000
        k(    8) = (   0.0000000  -0.5000000   0.2333912), wk =   0.1250000
        k(    9) = (   0.0000000  -0.5000000  -0.4667824), wk =   0.0625000
        k(   10) = (   0.2500000   0.2500000   0.0000000), wk =   0.0625000
        k(   11) = (   0.2500000   0.2500000   0.2333912), wk =   0.1250000
        k(   12) = (   0.2500000   0.2500000  -0.4667824), wk =   0.0625000
        k(   13) = (   0.2500000  -0.5000000   0.0000000), wk =   0.1250000
        k(   14) = (   0.2500000  -0.5000000   0.2333912), wk =   0.2500000
        k(   15) = (   0.2500000  -0.5000000  -0.4667824), wk =   0.1250000
        k(   16) = (  -0.5000000  -0.5000000   0.0000000), wk =   0.0312500
        k(   17) = (  -0.5000000  -0.5000000   0.2333912), wk =   0.0625000
        k(   18) = (  -0.5000000  -0.5000000  -0.4667824), wk =   0.0312500
        k(   19) = (   0.2500000  -0.2500000   0.0000000), wk =   0.0625000
        k(   20) = (   0.2500000  -0.2500000   0.2333912), wk =   0.1250000
        k(   21) = (   0.2500000  -0.2500000  -0.4667824), wk =   0.0625000

     Dense  grid:  3057233 G-vectors     FFT dimensions: ( 180, 180, 192)

     Smooth grid:   588385 G-vectors     FFT dimensions: ( 108, 108, 120)

     Estimated max dynamical RAM per process >     565.19 MB

     Estimated total dynamical RAM >      44.16 GB

     Initial potential from superposition of free atoms

     starting charge  846.43941, renormalised to  847.00000

     negative rho (up, down):  3.034E-01 0.000E+00
     Starting wfcs are  749 randomized atomic wfcs

     total cpu time spent up to now is       31.2 secs

     Self-consistent Calculation

     iteration #  1     ecut=    60.00 Ry     beta= 0.20
     Davidson diagonalization with overlap
     ethr =  1.00E-02,  avg # of iterations =  2.0

     negative rho (up, down):  3.017E-01 0.000E+00

     total cpu time spent up to now is       84.2 secs

     total energy              =   -6851.57397509 Ry
     Harris-Foulkes estimate   =   -6857.20929855 Ry
     estimated scf accuracy    <      41.52890031 Ry

     iteration #  2     ecut=    60.00 Ry     beta= 0.20
     Davidson diagonalization with overlap
     ethr =  4.90E-03,  avg # of iterations =  1.0

     negative rho (up, down):  2.994E-01 0.000E+00

     total cpu time spent up to now is      130.8 secs

     total energy              =   -6846.73188673 Ry
     Harris-Foulkes estimate   =   -6852.66095891 Ry
     estimated scf accuracy    <      18.67330702 Ry

     iteration #  3     ecut=    60.00 Ry     beta= 0.20
     Davidson diagonalization with overlap
     ethr =  2.20E-03,  avg # of iterations =  2.0

     negative rho (up, down):  3.010E-01 0.000E+00

     total cpu time spent up to now is      186.7 secs

     total energy              =   -6849.04724324 Ry
     Harris-Foulkes estimate   =   -6849.32785096 Ry
     estimated scf accuracy    <       1.89192108 Ry

     iteration #  4     ecut=    60.00 Ry     beta= 0.20
     Davidson diagonalization with overlap
     ethr =  2.23E-04,  avg # of iterations =  4.6

     negative rho (up, down):  3.043E-01 0.000E+00

     total cpu time spent up to now is      260.3 secs

     total energy              =   -6848.92854487 Ry
     Harris-Foulkes estimate   =   -6849.24634746 Ry
     estimated scf accuracy    <       1.08751305 Ry

     iteration #  5     ecut=    60.00 Ry     beta= 0.20
     Davidson diagonalization with overlap
     ethr =  1.28E-04,  avg # of iterations =  7.5

     negative rho (up, down):  3.087E-01 0.000E+00

     total cpu time spent up to now is      347.8 secs

     total energy              =   -6848.96609717 Ry
     Harris-Foulkes estimate   =   -6849.02157438 Ry
     estimated scf accuracy    <       0.24600466 Ry

     iteration #  6     ecut=    60.00 Ry     beta= 0.20
     Davidson diagonalization with overlap
     ethr =  2.90E-05,  avg # of iterations = 10.2

     negative rho (up, down):  3.110E-01 0.000E+00

     total cpu time spent up to now is      450.7 secs

     total energy              =   -6848.98018725 Ry
     Harris-Foulkes estimate   =   -6848.98579085 Ry
     estimated scf accuracy    <       0.04263250 Ry

     iteration #  7     ecut=    60.00 Ry     beta= 0.20
     Davidson diagonalization with overlap
     c_bands:  1 eigenvalues not converged
     c_bands:  2 eigenvalues not converged
     ethr =  5.03E-06,  avg # of iterations = 13.2

     negative rho (up, down):  3.124E-01 0.000E+00

     total cpu time spent up to now is      600.3 secs

     total energy              =   -6848.97734621 Ry
     Harris-Foulkes estimate   =   -6848.98665818 Ry
     estimated scf accuracy    <       0.02726588 Ry

     iteration #  8     ecut=    60.00 Ry     beta= 0.20
     Davidson diagonalization with overlap
     ethr =  3.22E-06,  avg # of iterations =  3.5

     negative rho (up, down):  3.129E-01 0.000E+00

     total cpu time spent up to now is      679.2 secs

     total energy              =   -6848.98850617 Ry
     Harris-Foulkes estimate   =   -6848.98835824 Ry
     estimated scf accuracy    <       0.03425312 Ry

     iteration #  9     ecut=    60.00 Ry     beta= 0.20
     Davidson diagonalization with overlap
     ethr =  3.22E-06,  avg # of iterations =  1.0

     negative rho (up, down):  3.136E-01 0.000E+00

     total cpu time spent up to now is      725.7 secs

     total energy              =   -6848.98493888 Ry
     Harris-Foulkes estimate   =   -6848.98865016 Ry
     estimated scf accuracy    <       0.03080498 Ry

     iteration # 10     ecut=    60.00 Ry     beta= 0.20
     Davidson diagonalization with overlap
     ethr =  3.22E-06,  avg # of iterations =  2.8

     negative rho (up, down):  3.135E-01 0.000E+00

     total cpu time spent up to now is      781.0 secs

     total energy              =   -6848.98325634 Ry
     Harris-Foulkes estimate   =   -6848.98569101 Ry
     estimated scf accuracy    <       0.01293464 Ry

     iteration # 11     ecut=    60.00 Ry     beta= 0.20
     Davidson diagonalization with overlap
     c_bands:  1 eigenvalues not converged
     ethr =  1.53E-06,  avg # of iterations =  7.1

     negative rho (up, down):  3.135E-01 0.000E+00

     total cpu time spent up to now is      865.5 secs

     total energy              =   -6848.98487394 Ry
     Harris-Foulkes estimate   =   -6848.98461265 Ry
     estimated scf accuracy    <       0.00068389 Ry

     iteration # 12     ecut=    60.00 Ry     beta= 0.20
     Davidson diagonalization with overlap
     ethr =  8.07E-08,  avg # of iterations =  3.6

     negative rho (up, down):  3.134E-01 0.000E+00

     total cpu time spent up to now is      949.8 secs

     total energy              =   -6848.98466141 Ry
     Harris-Foulkes estimate   =   -6848.98532392 Ry
     estimated scf accuracy    <       0.00380074 Ry

     iteration # 13     ecut=    60.00 Ry     beta= 0.20
     Davidson diagonalization with overlap
     ethr =  8.07E-08,  avg # of iterations =  4.4

     negative rho (up, down):  3.133E-01 0.000E+00

     total cpu time spent up to now is     1035.7 secs

     total energy              =   -6848.98487390 Ry
     Harris-Foulkes estimate   =   -6848.98488534 Ry
     estimated scf accuracy    <       0.00053752 Ry

     iteration # 14     ecut=    60.00 Ry     beta= 0.20
     Davidson diagonalization with overlap
     ethr =  6.35E-08,  avg # of iterations =  1.6

     negative rho (up, down):  3.133E-01 0.000E+00

     total cpu time spent up to now is     1085.0 secs

     total energy              =   -6848.98491982 Ry
     Harris-Foulkes estimate   =   -6848.98489660 Ry
     estimated scf accuracy    <       0.00010953 Ry

     iteration # 15     ecut=    60.00 Ry     beta= 0.20
     Davidson diagonalization with overlap
     ethr =  1.29E-08,  avg # of iterations =  3.1

     negative rho (up, down):  3.133E-01 0.000E+00

     total cpu time spent up to now is     1147.7 secs

     total energy              =   -6848.98496824 Ry
     Harris-Foulkes estimate   =   -6848.98493771 Ry
     estimated scf accuracy    <       0.00001429 Ry

     iteration # 16     ecut=    60.00 Ry     beta= 0.20
     Davidson diagonalization with overlap
     ethr =  1.69E-09,  avg # of iterations =  2.1

     negative rho (up, down):  3.134E-01 0.000E+00

     total cpu time spent up to now is     1201.6 secs

     total energy              =   -6848.98498917 Ry
     Harris-Foulkes estimate   =   -6848.98496940 Ry
     estimated scf accuracy    <       0.00000573 Ry

     iteration # 17     ecut=    60.00 Ry     beta= 0.20
     Davidson diagonalization with overlap
     ethr =  6.76E-10,  avg # of iterations =  2.0

     negative rho (up, down):  3.134E-01 0.000E+00

     total cpu time spent up to now is     1256.1 secs

     total energy              =   -6848.98500220 Ry
     Harris-Foulkes estimate   =   -6848.98498975 Ry
     estimated scf accuracy    <       0.00000260 Ry

     iteration # 18     ecut=    60.00 Ry     beta= 0.20
     Davidson diagonalization with overlap
     ethr =  3.07E-10,  avg # of iterations =  2.0

     negative rho (up, down):  3.134E-01 0.000E+00

     total cpu time spent up to now is     1310.2 secs

     End of self-consistent calculation

          k = 0.0000 0.0000 0.0000 ( 73463 PWs)   bands (ev):

   -31.2206 -31.2142 -31.2133 -31.1257 -31.1255 -31.1252 -31.1240 -27.9057
   -15.7262 -15.6990 -15.6253 -15.6223 -15.6040 -15.6015 -15.5979 -15.5974
   -15.5872 -15.5766 -15.5761 -15.5670 -15.5504 -15.5302 -15.4712 -15.4533
   -11.7839 -11.7776 -11.7106 -11.6950 -11.6891 -11.5432 -11.5401 -11.5380
   -11.5316 -11.4882 -11.4534 -11.4526 -11.4521 -11.4512 -11.4336 -11.4188
   -11.2813 -11.2704 -11.2667 -11.1834 -11.1795  -9.3686  -9.3336  -9.3292
    -8.5116  -7.8529  -7.8346  -7.8320  -7.8274  -7.8253  -7.7683  -7.7574
    -7.7565  -7.6385  -7.6276  -7.6232  -7.5981  -7.5789  -7.5314  -7.5164
    -7.5076  -7.4896  -7.4886  -7.4848  -7.4728  -7.3987  -7.3896  -7.3704
    -7.3581  -7.3106  -7.2507  -7.2195  -7.1863  -7.1794  -7.1705  -7.1537
    -7.1492  -7.0815  -7.0789  -7.0719  -6.9879  -6.9507  -6.9469  -6.9451
    -6.9222  -6.8781  -6.8563  -6.8518  -6.8033  -6.7980  -6.7977  -6.7928
    -6.7057  -6.6913  -6.6887  -6.6876  -6.6869  -6.5982  -6.5617  -6.5107
    -1.5592  -1.5259  -1.4835  -1.2061  -1.2042  -1.1658  -1.1644  -1.1525
    -1.1467  -1.1171  -1.1017  -1.0993  -1.0957  -1.0922  -0.9840  -0.9812
    -0.9771  -0.9770  -0.9607  -0.9349  -0.9282  -0.9228  -0.8964  -0.8955
    -0.8810  -0.8510  -0.8235  -0.7714  -0.7661  -0.7116  -0.7067  -0.6823
    -0.6495  -0.6432  -0.5989  -0.5625  -0.5503  -0.5487  -0.5436  -0.5368
    -0.5343  -0.5299  -0.5188  -0.5054  -0.4616  -0.4388  -0.3979  -0.3383
     2.7383   3.3569   3.7324   3.8434   3.8519   3.8756   3.9192   3.9516
     3.9877   3.9898   4.0624   4.0825   4.2839   4.3259   4.3294   4.3810
     4.3936   4.5570   4.6032   4.7209   4.7211   4.7241   4.7272   4.7755
     4.7949   4.7951   4.7968   4.8061   4.8071   4.8382   4.8599   4.8803
     4.9041   4.9246   4.9310   4.9650   4.9676   4.9677   4.9684   4.9709
     4.9724   5.0754   5.1459   5.1723   5.1939   5.2036   5.2891   5.3433
     5.3560   5.3903   5.4205   5.4289   5.4556   5.4572   5.4910   5.4919
     5.5401   5.5524   5.5744   5.5768   5.5811   5.5927   5.5957   5.6352
     5.7154   5.7415   5.7504   5.7524   5.7673   5.8185   5.8486   5.8520
     5.8786   5.8883   5.9426   5.9459   5.9839   5.9878   5.9924   6.0138
     6.0881   6.1173   6.1236   6.1341   6.1446   6.1501   6.1633   6.2129
     6.2229   6.2267   6.2275   6.2307   6.2552   6.2912   6.2937   6.2969
     6.2980   6.3512   6.3533   6.3540   6.3767   6.3771   6.3771   6.3780
     6.4249   6.4268   6.4449   6.4490   6.4711   6.4886   6.5389   6.5593
     6.6120   6.6275   6.7601   6.7701   6.7702   6.7873   6.8206   6.8214
     6.8265   6.8621   6.9571   6.9604   6.9625   6.9683   6.9895   7.0014
     7.0143   7.0246   7.0424   7.0656   7.1304   7.1351   7.1351   7.1428
     7.1621   7.1905   7.2573   7.2575   7.2588   7.2603   7.2608   7.2648
     7.3005   7.3592   7.3653   7.3988   7.4090   7.4149   7.4398   7.4516
     7.4556   7.5184   7.5500   7.5562   7.5902   7.6118   7.6121   7.6596
     7.6651   7.7297   7.7331   7.7420   7.7533   7.7546   7.7547   7.7584
     7.7660   7.7676   7.7684   7.7968   7.8028   7.8558   7.8965   7.9676
     8.1125   8.1129   8.1148   8.1161   8.1243   8.1395   8.1460   8.2008
     8.2145   8.2209   8.2278   8.2280   8.2638   8.2675   8.2862   8.2914
     8.2971   8.3022   8.3035   8.3083   8.3233   8.3278   8.3338   8.3364
     8.3462   8.3704   8.3762   8.3872   8.3899   8.3952   8.4052   8.4606
     8.4612   8.4865   8.4993   8.5552   8.5905   8.6278   8.6280   8.6361
     8.6419   8.6517   8.6604   8.6847   8.6927   8.7051   8.7062   8.7289
     8.7319   8.7360   8.7377   8.7378   8.7410   8.7422   8.7428   8.7435
     8.7471   8.7504   8.7535   8.7624   8.7812   8.8231   8.8254   8.8394
     8.8642   8.8802   8.9187   8.9635   8.9647   8.9696   9.0040   9.0470
     9.0572   9.0697   9.0923   9.1287   9.1310   9.1433   9.1616   9.2420
     9.2831   9.2899   9.2928   9.3085   9.3147   9.3280   9.4182   9.4240
     9.4303   9.4339   9.4445   9.4549   9.4954   9.5262   9.5799   9.6182
    10.1761  10.1897  10.1903  10.2026  10.3783  10.3918  10.3919  10.4023
    10.6829  10.6835  10.6862  10.6873  11.1704  11.4935  11.5873  11.6679
    12.2254  12.4103  13.1921  13.4702  13.4712  13.4795  13.4885  13.6432
    13.8506  14.0286  14.0490  14.1692  14.1709  14.1733  14.2107  14.3833
    14.5351  14.5373  14.6096  14.6168  14.6203  14.8825  14.9338  14.9576
    15.0043  15.1997  15.2154  15.2370  15.2562  15.3351  15.4643  15.6368
    15.6897  15.7176  15.7432  15.7873  15.8294  15.8324  15.8413  15.8836
    15.8996  15.9111  15.9236  15.9312  15.9364  15.9695  16.0209  16.1205
    16.1466  16.1584  16.1785  16.2250  16.2544  16.2712  16.2830  16.2923
    16.2967  16.3990  16.4134  16.4236  16.4585  16.4634  16.4967  16.5298
    16.5442  16.5533  16.5560  16.5657  16.5858

          k = 0.0000 0.0000 0.2334 ( 73574 PWs)   bands (ev):

   -31.2206 -31.2142 -31.2133 -31.1257 -31.1255 -31.1252 -31.1240 -27.9057
   -15.7269 -15.6983 -15.6257 -15.6228 -15.6036 -15.6010 -15.5984 -15.5978
   -15.5877 -15.5761 -15.5756 -15.5665 -15.5507 -15.5299 -15.4714 -15.4532
   -11.7839 -11.7776 -11.7108 -11.6950 -11.6891 -11.5432 -11.5402 -11.5380
   -11.5317 -11.4882 -11.4534 -11.4526 -11.4521 -11.4512 -11.4337 -11.4188
   -11.2813 -11.2704 -11.2667 -11.1834 -11.1795  -9.3687  -9.3336  -9.3292
    -8.5097  -7.8932  -7.8560  -7.8312  -7.8243  -7.7670  -7.7647  -7.7551
    -7.7446  -7.6399  -7.6313  -7.6256  -7.6101  -7.5723  -7.5255  -7.5198
    -7.5186  -7.4864  -7.4807  -7.4793  -7.4754  -7.3952  -7.3890  -7.3581
    -7.3502  -7.3107  -7.2791  -7.2196  -7.1955  -7.1747  -7.1685  -7.1541
    -7.1535  -7.1021  -7.0800  -7.0746  -6.9811  -6.9511  -6.9510  -6.9466
    -6.9221  -6.8765  -6.8454  -6.8396  -6.8057  -6.7984  -6.7970  -6.7959
    -6.7058  -6.6898  -6.6871  -6.6864  -6.6841  -6.6005  -6.5666  -6.5070
    -1.5592  -1.5259  -1.4834  -1.2040  -1.1975  -1.1633  -1.1558  -1.1500
    -1.1443  -1.1109  -1.1040  -1.1017  -1.0980  -1.0942  -1.0006  -0.9808
    -0.9735  -0.9638  -0.9573  -0.9442  -0.9312  -0.9129  -0.8998  -0.8989
    -0.8901  -0.8633  -0.8138  -0.7737  -0.7708  -0.7124  -0.7072  -0.6818
    -0.6503  -0.6440  -0.5987  -0.5612  -0.5548  -0.5530  -0.5476  -0.5376
    -0.5330  -0.5259  -0.5154  -0.5026  -0.4622  -0.4381  -0.3985  -0.3375
     2.7494   3.3375   3.7469   3.8532   3.8662   3.8784   3.9228   3.9624
     3.9828   4.0048   4.0572   4.0870   4.2623   4.3041   4.3064   4.3553
     4.4261   4.5570   4.6032   4.7242   4.7243   4.7266   4.7306   4.7754
     4.7947   4.7951   4.7966   4.8062   4.8075   4.8382   4.8600   4.8946
     4.9024   4.9281   4.9293   4.9444   4.9461   4.9672   4.9729   4.9953
     4.9975   5.0520   5.0950   5.1070   5.1942   5.2040   5.2929   5.3423
     5.3553   5.4217   5.4263   5.4531   5.4551   5.4843   5.4964   5.5227
     5.5295   5.5336   5.5345   5.5453   5.5824   5.6134   5.6215   5.6226
     5.6719   5.7656   5.7886   5.7905   5.8187   5.8497   5.8627   5.8679
     5.8933   5.9223   5.9460   5.9664   5.9859   5.9907   6.0148   6.0219
     6.0970   6.1164   6.1283   6.1294   6.1411   6.1507   6.1616   6.2137
     6.2237   6.2269   6.2297   6.2339   6.2441   6.2918   6.2973   6.2976
     6.3030   6.3153   6.3415   6.3481   6.3543   6.3545   6.3584   6.3596
     6.3800   6.4076   6.4084   6.4250   6.4326   6.4417   6.4886   6.5364
     6.6136   6.6330   6.6807   6.6922   6.6962   6.7139   6.8090   6.8214
     6.8256   6.8607   6.8943   6.9132   6.9531   6.9685   6.9893   7.0013
     7.0424   7.0602   7.0633   7.0673   7.1492   7.1918   7.2346   7.2362
     7.2365   7.2380   7.2416   7.2549   7.2906   7.2912   7.2934   7.2954
     7.3620   7.3976   7.4007   7.4158   7.4236   7.4353   7.4631   7.4651
     7.4711   7.5215   7.5474   7.5677   7.5865   7.6081   7.6103   7.6428
     7.6549   7.6767   7.7005   7.7031   7.7302   7.7621   7.7747   7.7923
     7.7928   7.7968   7.7982   7.8228   7.8658   7.9136   7.9268   8.0056
     8.0552   8.0994   8.1209   8.1289   8.1487   8.1496   8.2088   8.2124
     8.2176   8.2270   8.2279   8.2386   8.2469   8.2822   8.2867   8.2935
     8.2982   8.3105   8.3123   8.3143   8.3277   8.3340   8.3383   8.3514
     8.3568   8.3802   8.3859   8.3919   8.3956   8.4239   8.4261   8.4664
     8.4728   8.4846   8.4940   8.5317   8.5520   8.5721   8.5778   8.5835
     8.5948   8.6086   8.6134   8.6244   8.6628   8.6928   8.6939   8.6988
     8.7048   8.7213   8.7237   8.7307   8.7315   8.7318   8.7348   8.7534
     8.7761   8.7791   8.7935   8.7973   8.8150   8.8215   8.8232   8.8374
     8.8645   8.8786   8.8992   8.9577   8.9690   8.9697   9.0264   9.0429
     9.0626   9.0758   9.1035   9.1129   9.1210   9.1267   9.1327   9.2213
     9.2278   9.2310   9.2364   9.2633   9.3155   9.3322   9.3616   9.3826
     9.3860   9.3873   9.3883   9.4414   9.4621   9.4936   9.5791   9.6786
    10.1829  10.1967  10.1972  10.2096  10.3750  10.3883  10.3884  10.3987
    10.7287  10.7295  10.7295  10.7326  11.2991  11.5315  11.5875  11.6677
    12.2344  12.5382  13.1161  13.4902  13.4971  13.5054  13.5104  13.5683
    13.8851  13.9501  14.1432  14.1436  14.1440  14.1538  14.2033  14.4489
    14.5446  14.5459  14.6031  14.6150  14.6265  14.7262  14.9339  14.9505
    15.0046  15.2748  15.2878  15.2927  15.3170  15.3486  15.3758  15.4152
    15.6597  15.6624  15.6885  15.7055  15.7202  15.7690  15.8071  15.8705
    15.9011  15.9088  15.9359  15.9404  16.0114  16.0225  16.0504  16.0605
    16.0720  16.0864  16.1363  16.1674  16.2251  16.2268  16.2540  16.2596
    16.2622  16.2952  16.3803  16.3807  16.4016  16.4340  16.4398  16.4678
    16.4854  16.4883  16.5682  16.5702  16.5772

          k = 0.0000 0.0000-0.4668 ( 73606 PWs)   bands (ev):

   -31.2206 -31.2142 -31.2133 -31.1257 -31.1255 -31.1252 -31.1240 -27.9057
   -15.7275 -15.6977 -15.6261 -15.6232 -15.6031 -15.6006 -15.5988 -15.5982
   -15.5881 -15.5757 -15.5752 -15.5661 -15.5510 -15.5297 -15.4716 -15.4530
   -11.7839 -11.7776 -11.7109 -11.6950 -11.6891 -11.5432 -11.5402 -11.5380
   -11.5317 -11.4881 -11.4534 -11.4527 -11.4522 -11.4512 -11.4337 -11.4188
   -11.2813 -11.2704 -11.2667 -11.1834 -11.1795  -9.3688  -9.3336  -9.3291
    -8.5079  -7.9162  -7.8590  -7.8303  -7.8233  -7.7655  -7.7590  -7.7537
    -7.7085  -7.6414  -7.6348  -7.6281  -7.6186  -7.5687  -7.5269  -7.5198
    -7.5193  -7.4861  -7.4834  -7.4771  -7.4672  -7.3922  -7.3884  -7.3582
    -7.3248  -7.3109  -7.3094  -7.2198  -7.2077  -7.1714  -7.1614  -7.1595
    -7.1589  -7.1232  -7.0782  -7.0765  -6.9749  -6.9550  -6.9514  -6.9485
    -6.9221  -6.8748  -6.8383  -6.8308  -6.8081  -6.8040  -6.7947  -6.7905
    -6.7058  -6.6885  -6.6855  -6.6853  -6.6815  -6.6026  -6.5720  -6.5036
    -1.5593  -1.5258  -1.4834  -1.2037  -1.1884  -1.1608  -1.1476  -1.1474
    -1.1418  -1.1064  -1.1040  -1.1024  -1.1003  -1.0965  -1.0110  -0.9775
    -0.9699  -0.9583  -0.9537  -0.9521  -0.9345  -0.9049  -0.9034  -0.9026
    -0.8993  -0.8773  -0.8050  -0.7815  -0.7701  -0.7131  -0.7077  -0.6812
    -0.6510  -0.6448  -0.5986  -0.5599  -0.5584  -0.5562  -0.5509  -0.5406
    -0.5303  -0.5227  -0.5127  -0.5002  -0.4627  -0.4374  -0.3991  -0.3367
     2.7612   3.3175   3.7647   3.8634   3.8744   3.8820   3.9262   3.9750
     3.9820   4.0247   4.0516   4.0901   4.2394   4.2809   4.2819   4.3271
     4.4625   4.5570   4.6032   4.7271   4.7275   4.7289   4.7338   4.7753
     4.7944   4.7954   4.7965   4.8062   4.8079   4.8382   4.8602   4.9004
     4.9111   4.9260   4.9317   4.9375   4.9379   4.9690   4.9750   5.0073
     5.0086   5.0094   5.0650   5.0723   5.1944   5.2043   5.2960   5.3413
     5.3547   5.4230   5.4238   5.4505   5.4529   5.4756   5.5011   5.5098
     5.5125   5.5158   5.5444   5.5820   5.5839   5.5943   5.6283   5.6309
     5.7156   5.8134   5.8187   5.8207   5.8268   5.8473   5.8614   5.8977
     5.9362   5.9463   5.9885   5.9890   5.9944   6.0171   6.0542   6.0571
     6.1054   6.1155   6.1211   6.1224   6.1352   6.1512   6.1693   6.2123
     6.2185   6.2300   6.2448   6.2456   6.2512   6.2525   6.2569   6.2842
     6.2853   6.2972   6.3010   6.3012   6.3063   6.3065   6.3113   6.3221
     6.3395   6.3749   6.3960   6.3960   6.4073   6.4164   6.4885   6.5338
     6.6280   6.6359   6.6385   6.6455   6.6505   6.6603   6.7943   6.8222
     6.8252   6.8575   6.8602   6.8926   6.9532   6.9685   6.9891   7.0012
     7.0424   7.0686   7.0848   7.0880   7.1046   7.1935   7.2266   7.2470
     7.2507   7.2532   7.2541   7.2573   7.3642   7.3968   7.4156   7.4162
     7.4180   7.4241   7.4259   7.4277   7.4334   7.4762   7.4768   7.5218
     7.5250   7.5294   7.5596   7.5777   7.5782   7.5825   7.5997   7.6041
     7.6077   7.6106   7.6248   7.6552   7.7064   7.7719   7.8246   7.8259
     7.8267   7.8291   7.8904   7.8908   7.9075   7.9128   8.0135   8.0380
     8.0664   8.0870   8.1257   8.1306   8.1515   8.1527   8.2034   8.2038
     8.2184   8.2253   8.2262   8.2438   8.2504   8.2572   8.2585   8.2867
     8.2975   8.3129   8.3315   8.3361   8.3392   8.3431   8.3538   8.3808
     8.3816   8.3819   8.3854   8.3960   8.4353   8.4499   8.4505   8.4575
     8.4841   8.4860   8.4882   8.4913   8.5095   8.5162   8.5228   8.5228
     8.5295   8.5497   8.5951   8.6209   8.6654   8.6667   8.6936   8.6940
     8.6980   8.7010   8.7074   8.7260   8.7269   8.7284   8.7286   8.7317
     8.7429   8.8122   8.8169   8.8205   8.8209   8.8314   8.8353   8.8373
     8.8648   8.8765   8.9275   8.9505   8.9699   8.9711   9.0290   9.0474
     9.0542   9.0612   9.0923   9.1082   9.1136   9.1227   9.1326   9.1349
     9.1389   9.1522   9.1773   9.2461   9.2720   9.3195   9.3363   9.3639
     9.3652   9.3655   9.3655   9.4035   9.4388   9.4919   9.5784   9.7166
    10.1898  10.2037  10.2044  10.2167  10.3715  10.3846  10.3846  10.3948
    10.7692  10.7706  10.7716  10.7740  11.4263  11.5678  11.5879  11.6674
    12.2435  12.7787  12.9156  13.4767  13.5237  13.5255  13.5337  13.5343
    13.9024  13.9263  14.1120  14.1129  14.1160  14.1633  14.3926  14.4696
    14.5004  14.5542  14.5545  14.6204  14.6300  14.6327  14.9341  15.0050
    15.0051  15.0783  15.1617  15.4143  15.4270  15.4615  15.4644  15.5175
    15.5295  15.5848  15.6110  15.6432  15.6723  15.7209  15.7697  15.7784
    15.8025  15.8115  15.8435  15.9772  15.9985  16.0015  16.0274  16.0331
    16.0610  16.0999  16.1049  16.1303  16.1526  16.1786  16.1854  16.2236
    16.2713  16.2773  16.3580  16.3815  16.3881  16.4025  16.4133  16.4292
    16.4716  16.5065  16.5431  16.5845  16.6231

          k = 0.0000 0.2500 0.0000 ( 73539 PWs)   bands (ev):

   -31.2205 -31.2141 -31.2134 -31.1256 -31.1254 -31.1251 -31.1242 -27.9057
   -15.7173 -15.6905 -15.6525 -15.6293 -15.6230 -15.6021 -15.5961 -15.5891
   -15.5813 -15.5750 -15.5684 -15.5613 -15.5433 -15.5242 -15.4753 -15.4570
   -11.7650 -11.7587 -11.6972 -11.6943 -11.6882 -11.6242 -11.6127 -11.5815
   -11.5337 -11.4522 -11.4497 -11.4364 -11.4272 -11.4092 -11.3960 -11.3743
   -11.2942 -11.2683 -11.2616 -11.2108 -11.2055  -9.3688  -9.3363  -9.3310
    -8.4497  -8.0412  -7.8333  -7.8287  -7.8065  -7.8032  -7.7686  -7.7526
    -7.6721  -7.6513  -7.6422  -7.6312  -7.6030  -7.5985  -7.5743  -7.5447
    -7.5380  -7.4891  -7.4654  -7.4138  -7.3882  -7.3837  -7.3520  -7.3499
    -7.3471  -7.3155  -7.2600  -7.2264  -7.2003  -7.1796  -7.1754  -7.1555
    -7.1407  -7.1369  -7.1341  -7.0092  -6.9984  -6.9529  -6.9271  -6.9247
    -6.8908  -6.8859  -6.8583  -6.8499  -6.8216  -6.8195  -6.7979  -6.7805
    -6.7579  -6.7323  -6.7239  -6.6395  -6.6246  -6.6194  -6.5648  -6.5312
    -1.5009  -1.4813  -1.3987  -1.2568  -1.2562  -1.2023  -1.1815  -1.1682
    -1.1050  -1.0783  -1.0590  -1.0474  -1.0440  -1.0177  -0.9788  -0.9770
    -0.9570  -0.9348  -0.9332  -0.9207  -0.9164  -0.8942  -0.8882  -0.8836
    -0.8797  -0.8557  -0.8373  -0.8014  -0.8002  -0.7667  -0.7319  -0.7316
    -0.7216  -0.6926  -0.6775  -0.6112  -0.5890  -0.5724  -0.5503  -0.5343
    -0.5302  -0.5200  -0.4934  -0.4837  -0.4520  -0.4404  -0.4253  -0.3893
     2.8280   3.4377   3.4687   3.7760   3.8580   3.9131   3.9349   3.9766
     3.9837   4.0013   4.0896   4.1213   4.2673   4.2823   4.3148   4.3663
     4.3980   4.4630   4.5731   4.5832   4.6215   4.7018   4.7418   4.8162
     4.8319   4.8420   4.8467   4.8551   4.9023   4.9155   4.9193   4.9214
     4.9237   4.9388   4.9467   4.9618   4.9672   4.9951   5.0062   5.0298
     5.0538   5.1509   5.1601   5.1630   5.1659   5.2033   5.2205   5.2577
     5.2903   5.2959   5.3220   5.3732   5.3999   5.4344   5.4463   5.4743
     5.4776   5.5629   5.5899   5.6014   5.6312   5.6395   5.6721   5.6986
     5.7402   5.7483   5.7582   5.7689   5.7798   5.8014   5.8523   5.8733
     5.8763   5.9174   5.9185   5.9759   5.9807   5.9909   6.0469   6.0544
     6.1008   6.1065   6.1288   6.1407   6.1423   6.1431   6.1575   6.1716
     6.1875   6.2126   6.2568   6.2646   6.2757   6.2763   6.2820   6.2877
     6.3012   6.3107   6.3138   6.3452   6.3613   6.3711   6.3782   6.3970
     6.4036   6.4202   6.4635   6.4870   6.5249   6.5613   6.5813   6.6002
     6.6265   6.6355   6.6664   6.6886   6.7226   6.7419   6.8201   6.8469
     6.9292   6.9393   6.9431   6.9467   6.9520   7.0161   7.0198   7.0403
     7.0435   7.0476   7.0742   7.0965   7.0977   7.1219   7.1540   7.1568
     7.1673   7.1724   7.2044   7.2438   7.2919   7.3111   7.3314   7.3376
     7.3390   7.3792   7.3875   7.3993   7.4038   7.4184   7.4225   7.4276
     7.4395   7.4705   7.5057   7.5229   7.5387   7.5760   7.6137   7.6176
     7.6574   7.6600   7.6835   7.6889   7.6951   7.7103   7.7804   7.8099
     7.8205   7.8322   7.8538   7.9094   7.9394   7.9606   7.9641   7.9794
     7.9987   8.0005   8.0404   8.0645   8.0873   8.1047   8.1105   8.1216
     8.1282   8.1401   8.1571   8.1753   8.1824   8.2023   8.2370   8.2531
     8.2594   8.2691   8.2799   8.2931   8.3035   8.3165   8.3556   8.3600
     8.3898   8.3942   8.4169   8.4283   8.4490   8.4706   8.4842   8.5026
     8.5059   8.5064   8.5180   8.5386   8.5548   8.5578   8.5754   8.5874
     8.5906   8.6219   8.6401   8.6552   8.6661   8.6854   8.7011   8.7090
     8.7221   8.7307   8.7366   8.7458   8.7540   8.7623   8.7895   8.8053
     8.8118   8.8128   8.8233   8.8289   8.8401   8.8405   8.8563   8.8599
     8.8954   8.9302   8.9428   8.9495   8.9788   9.0258   9.0284   9.0330
     9.0629   9.0891   9.1300   9.1693   9.1873   9.1912   9.1973   9.2064
     9.2406   9.2647   9.2749   9.3019   9.3786   9.3840   9.4073   9.4102
     9.4105   9.4169   9.4219   9.4424   9.5371   9.5966   9.6689   9.7023
     9.7043   9.9495  10.0178  10.0279  10.2639  10.2696  10.2792  10.3221
    10.6845  10.8340  10.9756  11.0098  11.1696  11.4359  11.4644  11.5491
    12.3507  12.5804  13.1273  13.2679  13.4656  13.4717  13.6403  13.6795
    13.7411  13.7886  14.0531  14.1646  14.1784  14.2331  14.2615  14.3457
    14.5440  14.5770  14.6191  14.6816  14.7491  14.8101  14.9315  14.9589
    15.0133  15.0961  15.1533  15.1584  15.2926  15.3262  15.4038  15.4225
    15.6085  15.6322  15.7637  15.7791  15.8270  15.8458  15.8601  15.8754
    15.9621  15.9847  15.9949  16.0296  16.0365  16.0439  16.0862  16.1113
    16.1259  16.1667  16.1864  16.2267  16.2298  16.2400  16.2497  16.3027
    16.3267  16.3662  16.3893  16.4482  16.4536  16.5011  16.5202  16.5564
    16.5642  16.5980  16.5993  16.6099  16.6457

          k = 0.0000 0.2500 0.2334 ( 73562 PWs)   bands (ev):

   -31.2205 -31.2141 -31.2134 -31.1256 -31.1254 -31.1251 -31.1242 -27.9057
   -15.7179 -15.6899 -15.6530 -15.6288 -15.6235 -15.6016 -15.5966 -15.5895
   -15.5817 -15.5745 -15.5679 -15.5609 -15.5436 -15.5239 -15.4755 -15.4568
   -11.7650 -11.7587 -11.6973 -11.6943 -11.6882 -11.6242 -11.6127 -11.5816
   -11.5338 -11.4522 -11.4498 -11.4364 -11.4272 -11.4093 -11.3960 -11.3743
   -11.2942 -11.2683 -11.2616 -11.2108 -11.2055  -9.3689  -9.3363  -9.3310
    -8.4479  -8.0403  -7.8636  -7.8316  -7.8294  -7.7747  -7.7514  -7.7280
    -7.6771  -7.6646  -7.6355  -7.6344  -7.6097  -7.5886  -7.5702  -7.5429
    -7.5373  -7.4892  -7.4570  -7.4203  -7.3877  -7.3772  -7.3518  -7.3478
    -7.3332  -7.3149  -7.2762  -7.2331  -7.1991  -7.1885  -7.1813  -7.1617
    -7.1471  -7.1364  -7.1306  -7.0203  -6.9855  -6.9634  -6.9489  -6.9269
    -6.8849  -6.8717  -6.8551  -6.8479  -6.8187  -6.8082  -6.7941  -6.7823
    -6.7620  -6.7333  -6.7207  -6.6361  -6.6272  -6.6189  -6.5690  -6.5273
    -1.5004  -1.4816  -1.3996  -1.2591  -1.2534  -1.1954  -1.1778  -1.1657
    -1.0973  -1.0741  -1.0549  -1.0456  -1.0440  -1.0196  -0.9964  -0.9645
    -0.9604  -0.9424  -0.9284  -0.9202  -0.9159  -0.8993  -0.8926  -0.8917
    -0.8749  -0.8665  -0.8293  -0.8043  -0.8003  -0.7722  -0.7334  -0.7279
    -0.7209  -0.6923  -0.6787  -0.6114  -0.5881  -0.5722  -0.5535  -0.5340
    -0.5316  -0.5171  -0.4925  -0.4841  -0.4514  -0.4425  -0.4249  -0.3895
     2.8392   3.4179   3.4810   3.7953   3.8674   3.9224   3.9448   3.9630
     3.9806   3.9863   4.0851   4.1229   4.2378   4.2553   4.3394   4.3851
     4.4015   4.4907   4.5607   4.5731   4.6214   4.7019   4.7417   4.8068
     4.8396   4.8481   4.8534   4.8694   4.9011   4.9062   4.9207   4.9234
     4.9249   4.9335   4.9430   4.9459   4.9589   5.0054   5.0259   5.0309
     5.0421   5.1281   5.1352   5.1561   5.1635   5.1732   5.2221   5.2513
     5.2764   5.2864   5.3252   5.3638   5.4035   5.4337   5.4494   5.4853
     5.5144   5.5757   5.5854   5.6024   5.6210   5.6282   5.6576   5.7371
     5.7606   5.7710   5.7866   5.7988   5.8040   5.8345   5.8547   5.8614
     5.8972   5.9355   5.9622   5.9796   5.9882   6.0016   6.0467   6.0667
     6.0989   6.1062   6.1219   6.1279   6.1360   6.1564   6.1618   6.1813
     6.1875   6.2126   6.2301   6.2387   6.2486   6.2610   6.2701   6.2884
     6.3003   6.3027   6.3109   6.3336   6.3453   6.3708   6.3889   6.3910
     6.4018   6.4094   6.4225   6.4672   6.4775   6.5067   6.5209   6.5513
     6.5775   6.6167   6.6333   6.6553   6.7202   6.7689   6.8257   6.8449
     6.8490   6.9045   6.9192   6.9281   6.9386   6.9657   6.9763   7.0211
     7.0678   7.0757   7.0864   7.0946   7.1058   7.1628   7.1676   7.2490
     7.2626   7.2650   7.2745   7.3013   7.3191   7.3370   7.3465   7.3499
     7.3846   7.3962   7.4078   7.4123   7.4139   7.4255   7.4352   7.4418
     7.4452   7.4861   7.5128   7.5276   7.5350   7.5480   7.5842   7.5944
     7.6366   7.6654   7.6742   7.7100   7.7111   7.7351   7.8175   7.8412
     7.8501   7.8789   7.8832   7.9447   7.9477   7.9525   7.9726   7.9967
     8.0092   8.0203   8.0498   8.0818   8.0917   8.0954   8.1139   8.1174
     8.1426   8.1472   8.1688   8.1905   8.1955   8.2190   8.2363   8.2395
     8.2677   8.2767   8.2829   8.3066   8.3136   8.3278   8.3457   8.3542
     8.3647   8.3737   8.4002   8.4158   8.4225   8.4373   8.4682   8.4912
     8.5034   8.5318   8.5406   8.5487   8.5520   8.5668   8.5739   8.5866
     8.5915   8.6063   8.6230   8.6543   8.6624   8.6649   8.6736   8.7035
     8.7277   8.7292   8.7338   8.7391   8.7416   8.7615   8.7787   8.7810
     8.7937   8.8136   8.8151   8.8384   8.8462   8.8505   8.8549   8.8652
     8.8823   8.8884   8.9178   8.9371   8.9919   8.9933   9.0062   9.0424
     9.0781   9.0920   9.1127   9.1296   9.1546   9.1768   9.1892   9.1981
     9.2016   9.2181   9.2315   9.2702   9.2913   9.3461   9.3606   9.3936
     9.4051   9.4171   9.4306   9.4539   9.4986   9.5352   9.6183   9.7238
     9.7883   9.9413  10.0315  10.0374  10.2306  10.2592  10.3161  10.3866
    10.6879  10.8323  11.0381  11.0565  11.2862  11.4655  11.4760  11.5483
    12.3631  12.6937  13.1592  13.1977  13.4768  13.4909  13.6064  13.6854
    13.7468  13.8047  14.0362  14.0883  14.2255  14.2511  14.2861  14.3700
    14.5561  14.5833  14.6051  14.6625  14.7506  14.8134  14.8310  14.9634
    14.9767  15.0835  15.1372  15.1832  15.2492  15.4093  15.4400  15.4881
    15.4991  15.5842  15.6168  15.7307  15.7569  15.7990  15.8045  15.8152
    15.8704  15.9066  15.9542  15.9681  15.9901  16.0634  16.0762  16.1003
    16.1302  16.1461  16.1646  16.1739  16.2165  16.2707  16.2829  16.3009
    16.3344  16.3770  16.3902  16.4392  16.4699  16.4850  16.5074  16.5183
    16.5646  16.5884  16.6028  16.6343  16.6412

          k = 0.0000 0.2500-0.4668 ( 73576 PWs)   bands (ev):

   -31.2205 -31.2141 -31.2134 -31.1256 -31.1254 -31.1251 -31.1242 -27.9057
   -15.7185 -15.6893 -15.6535 -15.6283 -15.6239 -15.6012 -15.5970 -15.5900
   -15.5821 -15.5741 -15.5675 -15.5605 -15.5439 -15.5236 -15.4757 -15.4566
   -11.7650 -11.7587 -11.6974 -11.6943 -11.6882 -11.6242 -11.6127 -11.5816
   -11.5338 -11.4521 -11.4498 -11.4365 -11.4272 -11.4093 -11.3960 -11.3743
   -11.2943 -11.2683 -11.2616 -11.2108 -11.2055  -9.3690  -9.3363  -9.3309
    -8.4462  -8.0394  -7.8848  -7.8344  -7.8286  -7.7724  -7.7500  -7.6954
    -7.6834  -7.6678  -7.6368  -7.6326  -7.6149  -7.5842  -7.5662  -7.5405
    -7.5359  -7.4885  -7.4457  -7.4291  -7.3898  -7.3717  -7.3493  -7.3478
    -7.3145  -7.3130  -7.2957  -7.2335  -7.2154  -7.1934  -7.1836  -7.1650
    -7.1595  -7.1327  -7.1248  -7.0262  -6.9773  -6.9707  -6.9650  -6.9305
    -6.8831  -6.8650  -6.8533  -6.8418  -6.8165  -6.7964  -6.7886  -6.7856
    -6.7657  -6.7341  -6.7176  -6.6330  -6.6296  -6.6183  -6.5736  -6.5237
    -1.4998  -1.4818  -1.4004  -1.2604  -1.2515  -1.1885  -1.1743  -1.1628
    -1.0885  -1.0696  -1.0503  -1.0472  -1.0400  -1.0214  -1.0055  -0.9685
    -0.9556  -0.9487  -0.9238  -0.9233  -0.9121  -0.9044  -0.8998  -0.8978
    -0.8785  -0.8709  -0.8217  -0.8086  -0.7992  -0.7776  -0.7350  -0.7254
    -0.7193  -0.6921  -0.6799  -0.6117  -0.5871  -0.5721  -0.5560  -0.5364
    -0.5302  -0.5148  -0.4916  -0.4845  -0.4504  -0.4449  -0.4245  -0.3897
     2.8510   3.3978   3.4943   3.8234   3.8698   3.9222   3.9437   3.9589
     3.9811   3.9830   4.0785   4.1245   4.1977   4.2416   4.3712   4.3958
     4.4048   4.5215   4.5309   4.5731   4.6213   4.7020   4.7415   4.8012
     4.8387   4.8555   4.8639   4.8855   4.8911   4.9025   4.9200   4.9232
     4.9272   4.9326   4.9391   4.9475   4.9644   4.9808   5.0273   5.0384
     5.0426   5.0892   5.1010   5.1614   5.1625   5.1817   5.2209   5.2450
     5.2698   5.2759   5.3264   5.3650   5.3813   5.4311   5.4342   5.4848
     5.5332   5.5750   5.5800   5.6058   5.6245   5.6315   5.6947   5.7741
     5.7797   5.7937   5.8080   5.8135   5.8276   5.8476   5.8714   5.8804
     5.9369   5.9373   5.9532   5.9823   6.0320   6.0468   6.0747   6.0824
     6.0985   6.1043   6.1108   6.1271   6.1309   6.1583   6.1787   6.1843
     6.1847   6.1901   6.2080   6.2122   6.2412   6.2530   6.2591   6.2641
     6.2817   6.2930   6.2984   6.3122   6.3242   6.3334   6.3376   6.3668
     6.3800   6.4111   6.4158   6.4271   6.4455   6.4720   6.5003   6.5176
     6.5431   6.5778   6.6335   6.6391   6.7009   6.7864   6.8273   6.8440
     6.8517   6.8650   6.8801   6.9139   6.9282   6.9404   6.9665   7.0209
     7.0650   7.0887   7.0946   7.0991   7.1200   7.1645   7.1688   7.2399
     7.3209   7.3260   7.3280   7.3517   7.3567   7.3782   7.3855   7.3892
     7.3993   7.4029   7.4179   7.4329   7.4393   7.4619   7.4640   7.4816
     7.4938   7.5006   7.5133   7.5170   7.5320   7.5322   7.5394   7.5715
     7.6264   7.6683   7.6724   7.7263   7.7578   7.7739   7.8158   7.8516
     7.8656   7.9276   7.9393   7.9515   7.9528   7.9838   8.0005   8.0264
     8.0361   8.0451   8.0633   8.0752   8.0875   8.1056   8.1181   8.1270
     8.1350   8.1522   8.1707   8.1799   8.1820   8.2254   8.2308   8.2339
     8.2539   8.2691   8.2703   8.2777   8.3042   8.3373   8.3520   8.3581
     8.3675   8.3800   8.3896   8.4143   8.4306   8.4452   8.4732   8.5049
     8.5058   8.5196   8.5392   8.5493   8.5600   8.5789   8.5831   8.5895
     8.5955   8.6010   8.6113   8.6414   8.6588   8.6611   8.6633   8.6714
     8.6945   8.6975   8.7064   8.7123   8.7197   8.7308   8.7433   8.7828
     8.7974   8.8153   8.8232   8.8402   8.8420   8.8621   8.8641   8.8679
     8.8721   8.8923   8.8988   8.9290   8.9811   9.0020   9.0137   9.0242
     9.0554   9.0913   9.0919   9.0934   9.1044   9.1280   9.1423   9.1462
     9.1624   9.2072   9.2141   9.2404   9.2647   9.2947   9.3545   9.3761
     9.4020   9.4235   9.4295   9.4383   9.4735   9.5335   9.5680   9.7456
     9.8343   9.9318  10.0443  10.0474  10.2140  10.2493  10.3486  10.4304
    10.6913  10.8305  11.0961  11.1001  11.3999  11.4673  11.5142  11.5472
    12.3758  12.9192  13.0052  13.1963  13.4884  13.5123  13.5414  13.7211
    13.7476  13.8286  14.0145  14.0403  14.1953  14.2343  14.4272  14.4995
    14.5607  14.5801  14.5860  14.5942  14.6567  14.7520  14.8200  14.9617
    14.9961  15.0494  15.1051  15.2213  15.2274  15.3001  15.4182  15.4976
    15.5713  15.5999  15.6546  15.6809  15.7111  15.7128  15.7183  15.7568
    15.7883  15.8237  15.8846  15.9633  15.9986  16.0009  16.0781  16.0960
    16.1254  16.1529  16.1827  16.2304  16.2369  16.2447  16.2565  16.2945
    16.3216  16.3500  16.3582  16.3614  16.3867  16.4031  16.4796  16.4922
    16.5391  16.5705  16.6062  16.6499  16.6874

          k = 0.0000-0.5000 0.0000 ( 73598 PWs)   bands (ev):

   -31.2205 -31.2139 -31.2137 -31.1256 -31.1254 -31.1249 -31.1244 -27.9057
   -15.6988 -15.6814 -15.6733 -15.6562 -15.6229 -15.6019 -15.5928 -15.5923
   -15.5757 -15.5717 -15.5716 -15.5554 -15.5336 -15.5160 -15.4807 -15.4615
   -11.7184 -11.7113 -11.7073 -11.6985 -11.6890 -11.6745 -11.6735 -11.6234
   -11.5338 -11.4530 -11.4437 -11.4424 -11.4348 -11.3685 -11.3166 -11.2950
   -11.2895 -11.2778 -11.2761 -11.2608 -11.2538  -9.3690  -9.3395  -9.3322
    -8.3121  -8.2427  -7.8330  -7.7876  -7.7830  -7.7543  -7.7505  -7.7397
    -7.7182  -7.7109  -7.7006  -7.6339  -7.6093  -7.6031  -7.5667  -7.5597
    -7.5535  -7.4654  -7.4337  -7.3696  -7.3556  -7.3521  -7.3306  -7.3242
    -7.3077  -7.2772  -7.2436  -7.2418  -7.2336  -7.2292  -7.2196  -7.1998
    -7.1466  -7.1314  -7.1117  -7.0120  -6.9638  -6.9598  -6.9007  -6.8916
    -6.8827  -6.8813  -6.8747  -6.8730  -6.8603  -6.8374  -6.7871  -6.7800
    -6.7687  -6.7640  -6.6943  -6.6832  -6.5886  -6.5877  -6.5761  -6.5731
    -1.4036  -1.3865  -1.3771  -1.3642  -1.1926  -1.1778  -1.1532  -1.1343
    -1.1329  -1.1110  -1.0244  -1.0016  -0.9740  -0.9688  -0.9674  -0.9618
    -0.9566  -0.9383  -0.9304  -0.9242  -0.8939  -0.8833  -0.8806  -0.8679
    -0.8538  -0.8518  -0.8317  -0.8247  -0.8095  -0.7952  -0.7926  -0.7801
    -0.7684  -0.7664  -0.7610  -0.7453  -0.5537  -0.5415  -0.5250  -0.5153
    -0.5136  -0.4992  -0.4980  -0.4972  -0.4925  -0.4789  -0.4600  -0.4517
     3.0323   3.1482   3.6243   3.7141   3.8242   3.8658   3.9092   3.9372
     4.0964   4.1112   4.1244   4.1372   4.1438   4.1742   4.1825   4.2203
     4.6065   4.6137   4.6151   4.6417   4.6548   4.6561   4.6912   4.7012
     4.7349   4.8128   4.8587   4.8977   4.8980   4.9031   4.9047   4.9234
     4.9307   4.9624   4.9830   4.9941   5.0008   5.0231   5.0617   5.1045
     5.1122   5.1126   5.1326   5.1330   5.1392   5.1911   5.2503   5.2583
     5.2718   5.2946   5.3607   5.3838   5.4039   5.4309   5.4358   5.5450
     5.5604   5.5976   5.6114   5.6294   5.6339   5.6357   5.6440   5.6499
     5.6555   5.6584   5.7148   5.7184   5.7575   5.7739   5.7940   5.8031
     5.8393   5.8421   5.9831   5.9846   6.0016   6.0329   6.0369   6.0444
     6.1246   6.1298   6.1774   6.1909   6.2059   6.2085   6.2139   6.2151
     6.2158   6.2233   6.2301   6.2873   6.2893   6.2933   6.2937   6.2947
     6.3109   6.3244   6.3373   6.3568   6.3796   6.3805   6.4146   6.4295
     6.4334   6.4359   6.4448   6.4843   6.5132   6.5217   6.5243   6.5392
     6.5519   6.5784   6.6259   6.6572   6.6973   6.7001   6.7569   6.7606
     6.9925   7.0315   7.0382   7.0569   7.0676   7.0714   7.0780   7.0936
     7.0988   7.0995   7.1036   7.1238   7.1309   7.1369   7.1487   7.1547
     7.1800   7.2211   7.2252   7.2454   7.2472   7.2742   7.2880   7.2942
     7.3457   7.3485   7.3528   7.3566   7.3962   7.4143   7.4351   7.4630
     7.4721   7.4749   7.5047   7.5222   7.5240   7.5407   7.5561   7.5568
     7.5668   7.5754   7.5837   7.6425   7.8169   7.8181   7.8235   7.8262
     7.8391   7.8398   7.8851   7.9437   7.9548   7.9658   7.9659   7.9891
     7.9904   7.9930   8.0112   8.0653   8.0676   8.0749   8.0956   8.1085
     8.1106   8.1306   8.1413   8.1685   8.2147   8.2157   8.2174   8.2254
     8.2302   8.2445   8.2472   8.2527   8.2679   8.2695   8.2820   8.3194
     8.3210   8.3352   8.3663   8.3961   8.3990   8.4630   8.4749   8.4787
     8.4906   8.4906   8.5154   8.5743   8.5860   8.5947   8.6199   8.6326
     8.6354   8.6474   8.6523   8.6545   8.6642   8.6911   8.7095   8.7202
     8.7210   8.7318   8.7358   8.7545   8.7548   8.7718   8.7736   8.7772
     8.7931   8.8342   8.8403   8.8443   8.8546   8.8587   8.9348   8.9388
     8.9589   8.9627   8.9703   8.9746   8.9780   8.9875   9.0097   9.0162
     9.0871   9.0916   9.1327   9.1391   9.2091   9.2187   9.2233   9.2380
     9.2461   9.2856   9.3151   9.3315   9.3556   9.3694   9.3965   9.3991
     9.4831   9.4924   9.5609   9.5669   9.6015   9.6074   9.6375   9.6507
     9.8166   9.8257   9.9297   9.9412   9.9444   9.9633   9.9797   9.9964
    11.1045  11.1224  11.1336  11.1623  11.2194  11.2644  11.2660  11.2732
    12.6816  12.6903  12.9699  13.0413  13.4172  13.5093  13.5940  13.6195
    13.7523  13.8797  13.9465  13.9784  14.3973  14.4298  14.4876  14.5253
    14.5399  14.5590  14.5639  14.5760  14.6512  14.6641  14.6920  14.8308
    14.9436  14.9854  15.1578  15.1809  15.2184  15.2393  15.4887  15.6151
    15.6203  15.6937  15.7329  15.8410  15.8760  15.8964  15.9439  15.9557
    15.9650  15.9699  15.9878  16.0425  16.0793  16.0794  16.1175  16.1248
    16.1680  16.1914  16.2051  16.2205  16.2326  16.3121  16.3337  16.3345
    16.3409  16.3467  16.3664  16.3739  16.3817  16.4383  16.4416  16.4962
    16.5297  16.5560  16.5785  16.7315  16.7324

          k = 0.0000-0.5000 0.2334 ( 73548 PWs)   bands (ev):

   -31.2205 -31.2139 -31.2137 -31.1256 -31.1254 -31.1249 -31.1244 -27.9057
   -15.6994 -15.6819 -15.6727 -15.6557 -15.6233 -15.6015 -15.5932 -15.5927
   -15.5760 -15.5713 -15.5711 -15.5550 -15.5339 -15.5157 -15.4808 -15.4613
   -11.7184 -11.7113 -11.7073 -11.6985 -11.6890 -11.6745 -11.6736 -11.6234
   -11.5339 -11.4530 -11.4438 -11.4425 -11.4348 -11.3686 -11.3166 -11.2950
   -11.2895 -11.2778 -11.2761 -11.2608 -11.2538  -9.3691  -9.3395  -9.3322
    -8.3108  -8.2413  -7.8311  -7.8018  -7.7820  -7.7735  -7.7640  -7.7469
    -7.7316  -7.6766  -7.6547  -7.6357  -7.6093  -7.6055  -7.5661  -7.5601
    -7.5542  -7.4664  -7.4371  -7.3727  -7.3392  -7.3380  -7.3235  -7.3102
    -7.2990  -7.2860  -7.2563  -7.2495  -7.2438  -7.2370  -7.2260  -7.2165
    -7.1524  -7.1255  -7.1093  -7.0144  -6.9747  -6.9710  -6.9117  -6.9025
    -6.8926  -6.8831  -6.8686  -6.8651  -6.8376  -6.8141  -6.7888  -6.7869
    -6.7618  -6.7588  -6.6970  -6.6873  -6.5896  -6.5852  -6.5751  -6.5717
    -1.4045  -1.3849  -1.3782  -1.3621  -1.1875  -1.1733  -1.1560  -1.1371
    -1.1289  -1.1079  -1.0175  -0.9963  -0.9817  -0.9733  -0.9630  -0.9623
    -0.9558  -0.9354  -0.9311  -0.9218  -0.8994  -0.8873  -0.8788  -0.8640
    -0.8594  -0.8581  -0.8357  -0.8284  -0.8123  -0.7943  -0.7921  -0.7781
    -0.7694  -0.7677  -0.7621  -0.7426  -0.5557  -0.5396  -0.5272  -0.5156
    -0.5116  -0.4988  -0.4981  -0.4971  -0.4939  -0.4800  -0.4593  -0.4529
     3.0433   3.1603   3.6047   3.6923   3.8455   3.8912   3.9226   3.9482
     4.0474   4.0692   4.1262   4.1396   4.1459   4.1794   4.1880   4.2285
     4.6065   4.6327   4.6331   4.6418   4.6551   4.6838   4.6910   4.6972
     4.7525   4.7974   4.8579   4.9003   4.9031   4.9057   4.9086   4.9267
     4.9355   4.9629   4.9663   4.9837   4.9975   5.0024   5.0436   5.0930
     5.1054   5.1062   5.1215   5.1319   5.1417   5.2082   5.2331   5.2531
     5.2715   5.2789   5.3009   5.3496   5.3787   5.4797   5.5253   5.5481
     5.5543   5.5986   5.6075   5.6235   5.6236   5.6350   5.6417   5.6445
     5.6711   5.6893   5.7205   5.7234   5.7760   5.8016   5.8021   5.8038
     5.8746   5.8786   6.0098   6.0108   6.0183   6.0451   6.0719   6.0841
     6.1277   6.1322   6.1609   6.1645   6.1730   6.1765   6.1942   6.1990
     6.2040   6.2121   6.2220   6.2804   6.2859   6.2874   6.2908   6.2965
     6.3085   6.3089   6.3280   6.3409   6.3671   6.4023   6.4178   6.4265
     6.4389   6.4433   6.4445   6.4646   6.4827   6.4920   6.5028   6.5235
     6.5258   6.5309   6.5402   6.5419   6.7228   6.7270   6.7400   6.7446
     6.9464   6.9782   6.9920   7.0291   7.0350   7.0635   7.0870   7.0923
     7.1005   7.1046   7.1163   7.1198   7.1304   7.1602   7.2016   7.2044
     7.2316   7.2478   7.2763   7.2798   7.3298   7.3351   7.3589   7.3642
     7.3644   7.3697   7.3711   7.3793   7.3892   7.4061   7.4401   7.4478
     7.4566   7.4578   7.4886   7.4984   7.4990   7.5366   7.5512   7.5754
     7.5927   7.6024   7.6085   7.6553   7.8101   7.8271   7.8494   7.8594
     7.8808   7.8834   7.9060   7.9413   7.9558   7.9930   8.0047   8.0244
     8.0290   8.0349   8.0575   8.0600   8.0802   8.0830   8.1151   8.1177
     8.1216   8.1242   8.1460   8.1566   8.1627   8.1663   8.2018   8.2076
     8.2321   8.2374   8.2403   8.2411   8.2727   8.2755   8.2880   8.3196
     8.3372   8.3446   8.3507   8.3750   8.3843   8.4082   8.4626   8.4750
     8.4917   8.5026   8.5439   8.5681   8.5810   8.5944   8.6228   8.6240
     8.6474   8.6477   8.6525   8.6676   8.6752   8.6907   8.7054   8.7087
     8.7179   8.7378   8.7443   8.7534   8.7552   8.7652   8.7733   8.7892
     8.8008   8.8212   8.8219   8.8502   8.8719   8.8747   8.9302   8.9310
     8.9379   8.9445   8.9544   8.9721   8.9743   8.9782   8.9958   8.9992
     9.0559   9.0682   9.0715   9.0761   9.1092   9.1223   9.1793   9.1897
     9.2342   9.2482   9.2794   9.2850   9.3642   9.3785   9.3869   9.3873
     9.4795   9.4889   9.5378   9.5439   9.6198   9.6275   9.6549   9.6687
     9.8427   9.8511   9.8616   9.8619   9.9376   9.9546  10.0610  10.0743
    11.1128  11.1601  11.2047  11.2227  11.2232  11.2643  11.3095  11.3179
    12.7030  12.7136  13.0458  13.1153  13.3671  13.4650  13.6144  13.6285
    13.7150  13.8506  13.9945  14.0118  14.3654  14.4010  14.4609  14.4665
    14.4969  14.5882  14.5946  14.6124  14.6658  14.6741  14.7250  14.8423
    14.9495  14.9930  15.1123  15.1217  15.1735  15.1781  15.4944  15.6432
    15.6768  15.6985  15.7526  15.7651  15.7738  15.7971  15.8440  15.8719
    15.9237  15.9434  15.9495  15.9603  15.9786  15.9966  16.0093  16.0467
    16.0672  16.1020  16.1301  16.1936  16.2387  16.2761  16.3216  16.3462
    16.3913  16.3962  16.4395  16.4511  16.4591  16.4928  16.4999  16.5150
    16.5159  16.6358  16.7191  16.7250  16.7429

          k = 0.0000-0.5000-0.4668 ( 73560 PWs)   bands (ev):

   -31.2205 -31.2139 -31.2137 -31.1256 -31.1254 -31.1249 -31.1244 -27.9057
   -15.7000 -15.6824 -15.6722 -15.6551 -15.6238 -15.6010 -15.5936 -15.5931
   -15.5764 -15.5709 -15.5707 -15.5547 -15.5343 -15.5154 -15.4810 -15.4611
   -11.7184 -11.7113 -11.7073 -11.6985 -11.6890 -11.6745 -11.6737 -11.6235
   -11.5339 -11.4530 -11.4438 -11.4425 -11.4348 -11.3686 -11.3166 -11.2950
   -11.2895 -11.2778 -11.2761 -11.2608 -11.2538  -9.3692  -9.3394  -9.3322
    -8.3094  -8.2399  -7.8287  -7.8153  -7.7842  -7.7811  -7.7761  -7.7461
    -7.7354  -7.6473  -7.6367  -7.6305  -7.6115  -7.6078  -7.5655  -7.5604
    -7.5549  -7.4670  -7.4397  -7.3722  -7.3358  -7.3119  -7.3026  -7.2904
    -7.2879  -7.2854  -7.2818  -7.2761  -7.2590  -7.2429  -7.2401  -7.2264
    -7.1581  -7.1200  -7.1047  -7.0164  -6.9920  -6.9797  -6.9159  -6.9071
    -6.8977  -6.8872  -6.8627  -6.8539  -6.8245  -6.7983  -6.7919  -6.7902
    -6.7597  -6.7513  -6.6994  -6.6912  -6.5909  -6.5844  -6.5757  -6.5676
    -1.4054  -1.3833  -1.3793  -1.3601  -1.1822  -1.1685  -1.1588  -1.1396
    -1.1251  -1.1047  -1.0045  -0.9955  -0.9847  -0.9841  -0.9664  -0.9563
    -0.9510  -0.9404  -0.9246  -0.9194  -0.9052  -0.8922  -0.8770  -0.8679
    -0.8637  -0.8585  -0.8397  -0.8321  -0.8148  -0.7953  -0.7898  -0.7761
    -0.7720  -0.7705  -0.7608  -0.7402  -0.5574  -0.5379  -0.5289  -0.5158
    -0.5099  -0.4985  -0.4984  -0.4963  -0.4957  -0.4812  -0.4583  -0.4544
     3.0549   3.1733   3.5847   3.6700   3.8713   3.9250   3.9574   3.9827
     3.9834   4.0000   4.1192   4.1421   4.1496   4.1725   4.1977   4.2355
     4.6066   4.6418   4.6515   4.6551   4.6588   4.6892   4.6909   4.7398
     4.7544   4.7717   4.8572   4.9028   4.9073   4.9082   4.9159   4.9287
     4.9370   4.9500   4.9640   4.9737   4.9802   4.9944   5.0270   5.0841
     5.0938   5.1017   5.1062   5.1272   5.1544   5.2260   5.2319   5.2336
     5.2398   5.2685   5.2745   5.3350   5.3920   5.5064   5.5342   5.5390
     5.5683   5.5991   5.6039   5.6240   5.6292   5.6310   5.6337   5.6464
     5.6770   5.7117   5.7329   5.7341   5.7969   5.7984   5.8285   5.8474
     5.9160   5.9261   6.0225   6.0367   6.0545   6.0577   6.1058   6.1092
     6.1228   6.1258   6.1313   6.1382   6.1566   6.1572   6.1907   6.1918
     6.2053   6.2132   6.2220   6.2604   6.2790   6.2820   6.2888   6.2917
     6.2983   6.2984   6.3234   6.3327   6.3450   6.3565   6.3629   6.4062
     6.4369   6.4390   6.4415   6.4452   6.4586   6.4618   6.4694   6.4747
     6.4908   6.5118   6.5265   6.5442   6.7196   6.7229   6.7314   6.7346
     6.9149   6.9459   6.9538   6.9990   7.0297   7.0617   7.0825   7.1014
     7.1093   7.1157   7.1187   7.1246   7.1260   7.1666   7.2144   7.2595
     7.2613   7.2924   7.3011   7.3101   7.3600   7.3708   7.3709   7.3760
     7.4107   7.4108   7.4159   7.4231   7.4262   7.4328   7.4348   7.4378
     7.4406   7.4410   7.4561   7.4604   7.4735   7.5345   7.5487   7.6118
     7.6468   7.6488   7.6778   7.6841   7.8021   7.8269   7.8815   7.8881
     7.9096   7.9377   7.9428   7.9625   7.9776   8.0007   8.0155   8.0156
     8.0203   8.0356   8.0570   8.0705   8.0720   8.0790   8.1115   8.1191
     8.1496   8.1566   8.1631   8.1657   8.1680   8.1738   8.1775   8.1913
     8.1948   8.2006   8.2260   8.2350   8.2730   8.2816   8.2981   8.2992
     8.2992   8.3253   8.3640   8.3843   8.4500   8.4506   8.4581   8.4913
     8.5103   8.5203   8.5590   8.5663   8.5724   8.5853   8.5970   8.6162
     8.6218   8.6423   8.6443   8.6479   8.6552   8.6864   8.6916   8.6994
     8.7049   8.7079   8.7146   8.7554   8.7569   8.7885   8.7963   8.8034
     8.8093   8.8164   8.8323   8.8563   8.8826   8.8876   8.8943   8.9293
     8.9452   8.9464   8.9465   8.9474   8.9556   8.9558   8.9616   8.9853
     9.0098   9.0227   9.0436   9.0497   9.0534   9.0666   9.1385   9.1520
     9.1540   9.1616   9.2153   9.2180   9.3757   9.3794   9.4366   9.4596
     9.4770   9.4863   9.4959   9.4965   9.6389   9.6470   9.6730   9.6874
     9.8051   9.8246   9.8798   9.8893   9.9133   9.9302  10.1090  10.1217
    11.1151  11.1628  11.2157  11.2607  11.2989  11.3071  11.3508  11.3602
    12.7255  12.7382  13.2093  13.2281  13.2423  13.3625  13.6363  13.6416
    13.6750  13.8178  14.0550  14.0566  14.3235  14.3647  14.4084  14.4317
    14.4464  14.5995  14.6072  14.6795  14.6860  14.7779  14.8256  14.9035
    14.9137  14.9286  14.9708  14.9962  15.1311  15.1353  15.4910  15.5986
    15.6349  15.6714  15.7050  15.7168  15.7447  15.7996  15.8424  15.8483
    15.8598  15.9112  15.9151  15.9301  15.9390  15.9457  15.9528  16.0298
    16.1143  16.1238  16.1241  16.2388  16.2514  16.2952  16.3156  16.3519
    16.3832  16.3834  16.4262  16.4308  16.4325  16.4534  16.4546  16.4601
    16.4712  16.5626  16.6479  16.7029  16.7523

          k = 0.2500 0.2500 0.0000 ( 73554 PWs)   bands (ev):

   -31.2205 -31.2141 -31.2135 -31.1255 -31.1254 -31.1252 -31.1243 -27.9057
   -15.7093 -15.6826 -15.6527 -15.6430 -15.6309 -15.6206 -15.6056 -15.5821
   -15.5781 -15.5691 -15.5604 -15.5485 -15.5420 -15.5231 -15.4781 -15.4596
   -11.7751 -11.7182 -11.7065 -11.6903 -11.6852 -11.6840 -11.5901 -11.5626
   -11.5398 -11.4686 -11.4502 -11.4444 -11.4274 -11.4183 -11.3963 -11.3061
   -11.2882 -11.2853 -11.2656 -11.2593 -11.1798  -9.3688  -9.3382  -9.3301
    -8.3958  -8.0591  -8.0013  -7.8241  -7.7990  -7.7915  -7.7638  -7.7122
    -7.6524  -7.6508  -7.6408  -7.6348  -7.6317  -7.6152  -7.5388  -7.5374
    -7.5249  -7.4921  -7.4318  -7.4232  -7.3550  -7.3407  -7.3239  -7.3102
    -7.3063  -7.2945  -7.2894  -7.2666  -7.2305  -7.1987  -7.1978  -7.1968
    -7.1519  -7.1484  -7.1227  -7.0032  -6.9746  -6.9506  -6.9150  -6.8991
    -6.8869  -6.8862  -6.8709  -6.8452  -6.8233  -6.8154  -6.8079  -6.7834
    -6.7800  -6.7615  -6.7426  -6.6503  -6.5905  -6.5895  -6.5742  -6.5713
    -1.4285  -1.3894  -1.3644  -1.2007  -1.1983  -1.1877  -1.1857  -1.1765
    -1.1538  -1.1406  -1.1111  -1.1018  -1.0233  -1.0008  -0.9820  -0.9512
    -0.9384  -0.9308  -0.9040  -0.8992  -0.8870  -0.8640  -0.8615  -0.8533
    -0.8457  -0.8096  -0.7950  -0.7867  -0.7814  -0.7609  -0.7535  -0.7470
    -0.7227  -0.6983  -0.6940  -0.6937  -0.6747  -0.6540  -0.6468  -0.6178
    -0.6075  -0.5584  -0.4632  -0.4618  -0.4555  -0.4503  -0.4253  -0.3756
     2.9140   3.4752   3.5080   3.5336   3.7824   3.9309   3.9779   3.9836
     4.0661   4.1044   4.1075   4.1390   4.1551   4.2241   4.2353   4.3059
     4.4479   4.5208   4.5279   4.5925   4.6506   4.7121   4.7532   4.7575
     4.7717   4.8097   4.8323   4.9027   4.9125   4.9207   4.9209   4.9318
     4.9347   4.9424   4.9545   4.9884   4.9966   5.0197   5.0524   5.0580
     5.0629   5.1351   5.1475   5.1791   5.2076   5.2156   5.2287   5.2784
     5.2954   5.3065   5.3393   5.3572   5.3637   5.4108   5.4111   5.4137
     5.4977   5.5137   5.5352   5.5883   5.5957   5.6214   5.6299   5.6343
     5.6482   5.6492   5.7430   5.7713   5.8603   5.8673   5.8706   5.9527
     5.9787   6.0219   6.0319   6.0411   6.0418   6.0435   6.0527   6.0735
     6.0866   6.0927   6.1195   6.1426   6.1448   6.1703   6.1822   6.1857
     6.2150   6.2298   6.2313   6.2334   6.2490   6.2626   6.2653   6.2673
     6.2816   6.3207   6.3342   6.3446   6.3710   6.3726   6.3979   6.3984
     6.4035   6.4409   6.4438   6.4945   6.5221   6.5466   6.5701   6.5751
     6.6766   6.7203   6.7272   6.7317   6.7331   6.7419   6.7611   6.7834
     6.8072   6.8092   6.8099   6.8744   6.9495   7.0431   7.0453   7.0485
     7.0617   7.1400   7.1608   7.1647   7.1732   7.1766   7.1806   7.1929
     7.1974   7.2152   7.2190   7.2371   7.2824   7.2933   7.2998   7.3023
     7.3087   7.3123   7.3281   7.3512   7.3915   7.4156   7.4361   7.4517
     7.4675   7.4715   7.4989   7.5026   7.5130   7.5552   7.6050   7.6546
     7.6736   7.6984   7.7147   7.7176   7.8220   7.8390   7.8415   7.8425
     7.8696   7.8703   7.8723   7.9058   7.9084   7.9106   7.9144   7.9498
     7.9566   7.9634   8.0131   8.0170   8.0469   8.0841   8.0865   8.1117
     8.1189   8.1343   8.1586   8.1882   8.2113   8.2180   8.2333   8.2464
     8.2628   8.2870   8.2958   8.3067   8.3105   8.3144   8.3168   8.3481
     8.3616   8.3856   8.4030   8.4159   8.4212   8.4246   8.4293   8.4340
     8.4466   8.4590   8.5319   8.5590   8.5657   8.5704   8.5741   8.5905
     8.6106   8.6184   8.6367   8.6376   8.6799   8.6881   8.7056   8.7124
     8.7466   8.7533   8.7646   8.7674   8.7826   8.7840   8.7944   8.8278
     8.8374   8.8389   8.8496   8.8570   8.8614   8.8830   8.8950   8.9150
     8.9287   8.9436   8.9515   8.9544   8.9593   8.9659   8.9773   8.9925
     9.0000   9.0197   9.0673   9.1212   9.1360   9.1550   9.1568   9.2139
     9.2285   9.2424   9.2970   9.3246   9.3696   9.3727   9.3815   9.4157
     9.4303   9.4311   9.4885   9.5345   9.5365   9.6182   9.6491   9.7924
     9.8562   9.8562   9.8911   9.8926   9.9437   9.9611  10.5140  10.5322
    10.6908  10.7044  11.0893  11.2032  11.2095  11.2917  11.3371  11.4268
    12.4430  12.7668  13.3044  13.3104  13.3582  13.4515  13.4622  13.6150
    13.6868  13.7904  13.8951  14.0891  14.1327  14.1887  14.2995  14.3370
    14.5475  14.5574  14.7081  14.7591  14.7693  14.8423  14.9789  14.9927
    15.0477  15.1139  15.1462  15.1685  15.1865  15.2361  15.4420  15.4509
    15.6136  15.6159  15.6427  15.7562  15.7795  15.8270  15.8568  15.8699
    15.8730  15.9641  15.9731  15.9899  16.0436  16.0659  16.0816  16.0841
    16.1852  16.2640  16.2687  16.2709  16.2929  16.3204  16.3210  16.3553
    16.3946  16.4467  16.4501  16.4894  16.5068  16.5373  16.5651  16.5734
    16.5996  16.6265  16.6319  16.6567  16.6847

          k = 0.2500 0.2500 0.2334 ( 73526 PWs)   bands (ev):

   -31.2205 -31.2141 -31.2135 -31.1255 -31.1254 -31.1252 -31.1243 -27.9057
   -15.7099 -15.6820 -15.6532 -15.6435 -15.6303 -15.6201 -15.6060 -15.5816
   -15.5786 -15.5695 -15.5599 -15.5481 -15.5423 -15.5228 -15.4783 -15.4594
   -11.7751 -11.7182 -11.7065 -11.6903 -11.6852 -11.6841 -11.5902 -11.5626
   -11.5398 -11.4686 -11.4501 -11.4444 -11.4274 -11.4183 -11.3963 -11.3061
   -11.2882 -11.2853 -11.2656 -11.2593 -11.1798  -9.3689  -9.3382  -9.3300
    -8.3941  -8.0585  -8.0004  -7.8434  -7.8225  -7.7941  -7.7147  -7.7052
    -7.6642  -7.6512  -7.6453  -7.6409  -7.6245  -7.6050  -7.5379  -7.5368
    -7.5231  -7.4895  -7.4276  -7.4247  -7.3433  -7.3400  -7.3208  -7.3109
    -7.2957  -7.2886  -7.2850  -7.2791  -7.2470  -7.2160  -7.2053  -7.1973
    -7.1629  -7.1449  -7.1182  -7.0071  -6.9803  -6.9491  -6.9349  -6.9121
    -6.8875  -6.8667  -6.8492  -6.8482  -6.8350  -6.8191  -6.7892  -6.7836
    -6.7826  -6.7644  -6.7328  -6.6532  -6.5899  -6.5872  -6.5748  -6.5697
    -1.4264  -1.3911  -1.3645  -1.1985  -1.1917  -1.1888  -1.1830  -1.1775
    -1.1462  -1.1362  -1.1102  -1.0964  -1.0201  -1.0010  -0.9921  -0.9595
    -0.9447  -0.9178  -0.9103  -0.9049  -0.8941  -0.8695  -0.8636  -0.8594
    -0.8381  -0.8064  -0.7939  -0.7900  -0.7831  -0.7591  -0.7570  -0.7491
    -0.7215  -0.6955  -0.6944  -0.6903  -0.6758  -0.6532  -0.6451  -0.6197
    -0.6081  -0.5576  -0.4656  -0.4606  -0.4577  -0.4484  -0.4251  -0.3749
     2.9242   3.4909   3.4916   3.5504   3.7901   3.9355   3.9553   3.9556
     4.0375   4.1071   4.1227   4.1327   4.1578   4.2346   4.2494   4.3232
     4.4368   4.5139   4.5496   4.5929   4.6493   4.7146   4.7432   4.7604
     4.7899   4.8167   4.8223   4.9062   4.9106   4.9139   4.9213   4.9272
     4.9427   4.9437   4.9680   4.9685   5.0036   5.0153   5.0348   5.0461
     5.0635   5.1210   5.1270   5.1547   5.1667   5.2076   5.2179   5.2380
     5.2909   5.3101   5.3628   5.3684   5.3794   5.4155   5.4350   5.4881
     5.5265   5.5359   5.5707   5.5743   5.5767   5.5793   5.6191   5.6221
     5.6420   5.7171   5.7585   5.7848   5.8727   5.8891   5.9049   5.9459
     5.9724   6.0302   6.0398   6.0450   6.0599   6.0691   6.0694   6.0810
     6.0996   6.0999   6.1263   6.1442   6.1487   6.1564   6.1579   6.1681
     6.1808   6.1886   6.2110   6.2285   6.2347   6.2540   6.2560   6.2680
     6.2735   6.3305   6.3404   6.3557   6.3686   6.3775   6.3972   6.4038
     6.4089   6.4318   6.4412   6.4590   6.4715   6.4939   6.5284   6.5325
     6.6441   6.6560   6.6908   6.6999   6.7224   6.7272   6.7648   6.7686
     6.7879   6.8033   6.8229   6.8260   6.9207   7.0425   7.0433   7.0614
     7.0660   7.1290   7.1529   7.1543   7.1627   7.2145   7.2156   7.2417
     7.2426   7.2618   7.2652   7.2842   7.3183   7.3275   7.3393   7.3412
     7.3457   7.3516   7.3660   7.3999   7.4087   7.4158   7.4349   7.4449
     7.4572   7.4854   7.4856   7.4912   7.5202   7.5664   7.6043   7.6597
     7.6848   7.7074   7.7347   7.7398   7.7691   7.8031   7.8268   7.8847
     7.8894   7.8967   7.9081   7.9170   7.9229   7.9257   7.9370   7.9536
     7.9567   7.9645   8.0455   8.0528   8.0736   8.0870   8.0940   8.1131
     8.1174   8.1287   8.1751   8.1794   8.2146   8.2278   8.2358   8.2489
     8.2577   8.2685   8.2895   8.2897   8.3157   8.3212   8.3246   8.3465
     8.3736   8.3980   8.4024   8.4116   8.4159   8.4183   8.4350   8.4405
     8.4461   8.4923   8.5113   8.5472   8.5682   8.5810   8.5866   8.5974
     8.6049   8.6130   8.6192   8.6445   8.6900   8.6981   8.7004   8.7063
     8.7421   8.7438   8.7553   8.7596   8.7624   8.7769   8.8008   8.8115
     8.8129   8.8254   8.8318   8.8339   8.8518   8.8565   8.8610   8.8934
     8.9114   8.9118   8.9361   8.9443   8.9537   8.9880   8.9886   8.9999
     9.0119   9.0234   9.0626   9.0854   9.1329   9.1337   9.1472   9.1491
     9.1664   9.2130   9.2317   9.2909   9.2995   9.3503   9.3662   9.4080
     9.4201   9.4216   9.4355   9.5688   9.5689   9.5742   9.6306   9.7987
     9.8008   9.8293   9.8459   9.9615   9.9627  10.0814  10.5179  10.5363
    10.6859  10.6995  11.1892  11.2699  11.2729  11.3283  11.3382  11.4270
    12.4622  12.8620  13.2855  13.3345  13.3464  13.4679  13.4786  13.6336
    13.6499  13.7954  13.9036  14.0626  14.1697  14.1879  14.2631  14.4062
    14.5113  14.5605  14.7229  14.7268  14.7758  14.8471  14.9136  14.9930
    15.0038  15.0766  15.1098  15.1398  15.2082  15.2417  15.4703  15.4795
    15.4906  15.5318  15.5674  15.6271  15.6815  15.7423  15.7742  15.8140
    15.9180  15.9185  15.9726  16.0105  16.0108  16.0292  16.0719  16.0864
    16.1128  16.1953  16.2291  16.2648  16.3188  16.3294  16.3450  16.3529
    16.4232  16.4337  16.4484  16.5003  16.5362  16.5861  16.6024  16.6210
    16.6289  16.6545  16.6794  16.6852  16.7042

          k = 0.2500 0.2500-0.4668 ( 73560 PWs)   bands (ev):

   -31.2205 -31.2141 -31.2135 -31.1255 -31.1254 -31.1252 -31.1243 -27.9057
   -15.7105 -15.6814 -15.6537 -15.6439 -15.6298 -15.6196 -15.6064 -15.5812
   -15.5790 -15.5699 -15.5595 -15.5477 -15.5426 -15.5225 -15.4785 -15.4592
   -11.7751 -11.7182 -11.7065 -11.6903 -11.6852 -11.6842 -11.5903 -11.5627
   -11.5398 -11.4686 -11.4501 -11.4445 -11.4274 -11.4184 -11.3964 -11.3061
   -11.2882 -11.2853 -11.2656 -11.2593 -11.1798  -9.3690  -9.3382  -9.3300
    -8.3924  -8.0579  -7.9995  -7.8648  -7.8209  -7.7967  -7.7161  -7.6717
    -7.6696  -7.6550  -7.6474  -7.6443  -7.6180  -7.6002  -7.5378  -7.5330
    -7.5224  -7.4870  -7.4282  -7.4214  -7.3420  -7.3320  -7.3104  -7.3002
    -7.2968  -7.2842  -7.2806  -7.2802  -7.2785  -7.2337  -7.2122  -7.1977
    -7.1756  -7.1385  -7.1143  -7.0093  -6.9872  -6.9507  -6.9477  -6.9210
    -6.8820  -6.8570  -6.8516  -6.8452  -6.8331  -6.8154  -6.7862  -6.7830
    -6.7796  -6.7660  -6.7245  -6.6558  -6.5905  -6.5849  -6.5775  -6.5656
    -1.4242  -1.3929  -1.3646  -1.1960  -1.1902  -1.1850  -1.1799  -1.1787
    -1.1380  -1.1317  -1.1091  -1.0905  -1.0166  -1.0077  -0.9923  -0.9671
    -0.9512  -0.9168  -0.9108  -0.9080  -0.9011  -0.8782  -0.8655  -0.8629
    -0.8316  -0.8035  -0.7990  -0.7874  -0.7849  -0.7608  -0.7568  -0.7511
    -0.7204  -0.6975  -0.6908  -0.6867  -0.6769  -0.6523  -0.6433  -0.6218
    -0.6085  -0.5568  -0.4672  -0.4603  -0.4594  -0.4470  -0.4248  -0.3741
     2.9350   3.4734   3.5100   3.5695   3.7990   3.9009   3.9233   3.9867
     4.0223   4.0677   4.1344   4.1448   4.1613   4.2428   4.2652   4.3442
     4.4235   4.4961   4.5818   4.5932   4.6480   4.7175   4.7370   4.7640
     4.7912   4.8127   4.8503   4.9019   4.9029   4.9114   4.9207   4.9316
     4.9366   4.9458   4.9545   4.9822   4.9895   5.0246   5.0246   5.0353
     5.0501   5.1083   5.1088   5.1106   5.1320   5.2078   5.2153   5.2453
     5.3006   5.3127   5.3699   5.3789   5.3971   5.4231   5.4607   5.4945
     5.5368   5.5460   5.5484   5.5629   5.5631   5.5852   5.6084   5.6178
     5.7171   5.7368   5.7790   5.8335   5.8903   5.9080   5.9347   5.9420
     5.9708   6.0226   6.0424   6.0559   6.0601   6.0845   6.0857   6.0874
     6.1028   6.1108   6.1162   6.1366   6.1480   6.1511   6.1571   6.1748
     6.1806   6.2001   6.2065   6.2095   6.2254   6.2440   6.2450   6.2563
[...]
    10.6149  10.6153  10.6569  10.6632  11.1235  11.3227  11.3546  11.4031
    12.5024  12.6889  13.1511  13.1530  13.2932  13.6207  13.6230  13.6702
    13.7367  13.7405  13.8586  13.9714  14.0729  14.1430  14.2846  14.3807
    14.4255  14.5304  14.5312  14.7487  14.7968  14.8020  14.9375  14.9463
    15.0569  15.0659  15.0952  15.2739  15.3042  15.3141  15.3198  15.3997
    15.4279  15.6074  15.6720  15.7132  15.7442  15.7780  15.8223  15.8293
    15.9169  16.0852  16.1043  16.1096  16.1343  16.1408  16.1532  16.1750
    16.1859  16.2356  16.2938  16.2941  16.3088  16.3276  16.3395  16.3481
    16.3705  16.3722  16.4449  16.4900  16.5032  16.5138  16.5281  16.5997
    16.6151  16.6244  16.6433  16.6535  16.6874

          k = 0.2519-0.2519 0.2325 ( 73526 PWs)   bands (ev):

   -31.2549 -31.2405 -31.2396 -31.1822 -31.1815 -31.1760 -31.1752 -28.2940
   -15.6857 -15.6593 -15.6317 -15.6221 -15.6067 -15.5979 -15.5815 -15.5622
   -15.5611 -15.5392 -15.5384 -15.5258 -15.5211 -15.5079 -15.4810 -15.4639
   -11.7857 -11.7545 -11.7430 -11.7234 -11.7100 -11.7087 -11.6175 -11.5857
   -11.5572 -11.5086 -11.5024 -11.4880 -11.4835 -11.4603 -11.4309 -11.3456
   -11.3313 -11.3243 -11.3162 -11.3068 -11.2252  -9.6599  -9.6331  -9.6266
    -8.4309  -8.0802  -8.0424  -7.8908  -7.8719  -7.8109  -7.7161  -7.7001
    -7.6948  -7.6772  -7.6447  -7.6388  -7.6111  -7.5832  -7.5717  -7.5429
    -7.5158  -7.4888  -7.4812  -7.4554  -7.4215  -7.4160  -7.3955  -7.3818
    -7.3698  -7.3485  -7.2850  -7.2754  -7.2163  -7.2159  -7.1928  -7.1799
    -7.1612  -7.1485  -7.1181  -7.0829  -7.0654  -7.0631  -7.0627  -7.0308
    -7.0206  -6.9293  -6.9003  -6.8798  -6.8173  -6.8085  -6.7842  -6.7841
    -6.7391  -6.7214  -6.7195  -6.6488  -6.6475  -6.6456  -6.5650  -6.5212
    -1.4057  -1.3699  -1.3623  -1.1931  -1.1854  -1.1702  -1.1699  -1.1662
    -1.1461  -1.0223  -1.0186  -1.0044  -0.9905  -0.9645  -0.9630  -0.9472
    -0.9461  -0.9307  -0.9072  -0.8723  -0.8674  -0.8631  -0.8526  -0.8477
    -0.8385  -0.8291  -0.8284  -0.8266  -0.8070  -0.7849  -0.7731  -0.7687
    -0.7278  -0.7220  -0.6811  -0.6520  -0.6388  -0.5712  -0.5582  -0.5378
    -0.5094  -0.4974  -0.4969  -0.4723  -0.4320  -0.4227  -0.4112  -0.4038
     2.8997   3.4412   3.4468   3.4912   3.7402   3.8746   3.8862   3.9005
     3.9379   3.9581   4.0646   4.0856   4.2573   4.2827   4.4437   4.4653
     4.5166   4.5395   4.5854   4.6990   4.7023   4.7112   4.7160   4.7232
     4.7574   4.7750   4.7779   4.8082   4.8102   4.8767   4.9084   4.9267
     4.9346   4.9448   4.9559   4.9652   4.9678   4.9898   4.9942   4.9988
     5.0046   5.0377   5.0462   5.0505   5.0656   5.0999   5.1719   5.1850
     5.2092   5.2219   5.2740   5.2842   5.2937   5.3004   5.3475   5.3803
     5.3986   5.4551   5.4757   5.6016   5.6458   5.6815   5.6931   5.7312
     5.7364   5.7387   5.7756   5.8686   5.9049   5.9376   5.9503   5.9577
     5.9658   6.0032   6.0092   6.0303   6.0496   6.0642   6.0721   6.0985
     6.1168   6.1221   6.1238   6.1354   6.1506   6.1573   6.1594   6.1755
     6.2065   6.2131   6.2200   6.2297   6.2329   6.2431   6.2555   6.3043
     6.3089   6.3160   6.3323   6.3422   6.3467   6.3477   6.3810   6.3815
     6.3919   6.4367   6.4484   6.4485   6.4529   6.4599   6.4860   6.4991
     6.4996   6.5583   6.6642   6.6888   6.6994   6.7124   6.7258   6.7263
     6.7369   6.7757   6.8623   6.9205   7.0066   7.0403   7.0478   7.0531
     7.0588   7.0652   7.0991   7.1053   7.1056   7.1101   7.1630   7.1796
     7.2250   7.2348   7.2665   7.2709   7.2758   7.2808   7.2831   7.3042
     7.3246   7.3703   7.3717   7.3827   7.3856   7.4063   7.4229   7.4371
     7.4463   7.4522   7.4731   7.4806   7.4827   7.5272   7.5327   7.5749
     7.6043   7.6156   7.6455   7.7418   7.7619   7.8094   7.8288   7.8344
     7.8399   7.8505   7.8584   7.8840   7.8964   7.9064   7.9183   7.9213
     7.9430   7.9498   7.9754   8.0371   8.0418   8.0474   8.0593   8.0705
     8.0987   8.1089   8.1265   8.1455   8.2102   8.2212   8.2261   8.2325
     8.2507   8.2523   8.2617   8.2678   8.2772   8.3062   8.3103   8.3125
     8.3500   8.3601   8.3747   8.3870   8.4064   8.4160   8.4572   8.4850
     8.4890   8.4921   8.5142   8.5213   8.5422   8.5432   8.5584   8.5653
     8.5654   8.6011   8.6155   8.6291   8.6358   8.6440   8.6544   8.6596
     8.6698   8.6760   8.6857   8.7106   8.7182   8.7231   8.7410   8.7475
     8.7592   8.7715   8.7717   8.7787   8.7819   8.7931   8.8167   8.8375
     8.8544   8.8578   8.8622   8.9065   8.9270   8.9405   8.9441   9.0117
     9.0463   9.0610   9.0813   9.0920   9.1058   9.1125   9.1246   9.1375
     9.1672   9.1762   9.2005   9.2153   9.2372   9.2402   9.2947   9.2967
     9.3227   9.3347   9.3375   9.3694   9.4399   9.5631   9.5764   9.6324
     9.6588   9.8024   9.8215   9.9038  10.4797  10.4882  10.5993  10.6035
    10.6323  10.6350  10.7144  10.7153  11.2353  11.3252  11.4006  11.4028
    12.5119  12.7921  13.1793  13.1814  13.2322  13.6080  13.6265  13.6282
    13.7375  13.7613  13.8546  13.9707  14.0735  14.1540  14.1984  14.4134
    14.4776  14.5146  14.5938  14.7497  14.7758  14.8007  14.9092  14.9475
    14.9885  15.1196  15.1415  15.2512  15.2719  15.3818  15.3965  15.4212
    15.4662  15.5318  15.6455  15.6824  15.6999  15.7115  15.7282  15.7725
    15.7837  15.8902  15.9287  16.0184  16.0570  16.1112  16.1560  16.1638
    16.2094  16.2263  16.2283  16.2546  16.2566  16.2821  16.3054  16.3275
    16.3480  16.3617  16.3707  16.4310  16.4938  16.5315  16.5417  16.5726
    16.5895  16.5972  16.6359  16.6391  16.6545

          k = 0.2519-0.2519-0.4650 ( 73560 PWs)   bands (ev):

   -31.2549 -31.2405 -31.2396 -31.1822 -31.1815 -31.1760 -31.1752 -28.2940
   -15.6863 -15.6587 -15.6322 -15.6226 -15.6062 -15.5975 -15.5819 -15.5619
   -15.5615 -15.5395 -15.5380 -15.5261 -15.5208 -15.5076 -15.4813 -15.4636
   -11.7857 -11.7545 -11.7430 -11.7234 -11.7100 -11.7088 -11.6175 -11.5858
   -11.5572 -11.5086 -11.5024 -11.4881 -11.4835 -11.4603 -11.4310 -11.3456
   -11.3313 -11.3243 -11.3162 -11.3068 -11.2252  -9.6600  -9.6331  -9.6265
    -8.4295  -8.0790  -8.0413  -7.8894  -7.8742  -7.8308  -7.7171  -7.7023
    -7.6879  -7.6745  -7.6399  -7.6335  -7.6131  -7.5765  -7.5759  -7.5422
    -7.4967  -7.4959  -7.4790  -7.4492  -7.4186  -7.4135  -7.3889  -7.3716
    -7.3700  -7.3507  -7.2911  -7.2851  -7.2181  -7.2156  -7.2014  -7.1873
    -7.1618  -7.1508  -7.1030  -7.1028  -7.0858  -7.0662  -7.0643  -7.0345
    -7.0250  -6.9366  -6.8864  -6.8659  -6.8127  -6.8003  -6.7859  -6.7858
    -6.7359  -6.7191  -6.7170  -6.6498  -6.6498  -6.6470  -6.5674  -6.5182
    -1.4055  -1.3700  -1.3640  -1.1912  -1.1835  -1.1713  -1.1682  -1.1676
    -1.1395  -1.0152  -1.0145  -0.9963  -0.9804  -0.9743  -0.9666  -0.9520
    -0.9428  -0.9264  -0.9127  -0.8798  -0.8728  -0.8597  -0.8574  -0.8454
    -0.8352  -0.8341  -0.8299  -0.8278  -0.8132  -0.7868  -0.7755  -0.7702
    -0.7248  -0.7190  -0.6818  -0.6512  -0.6406  -0.5719  -0.5577  -0.5354
    -0.5117  -0.4981  -0.4961  -0.4715  -0.4311  -0.4218  -0.4131  -0.4056
     2.9122   3.4253   3.4495   3.5003   3.8045   3.8149   3.8632   3.8853
     3.9433   3.9626   4.0738   4.0811   4.2919   4.3211   4.4087   4.4264
     4.5350   4.5396   4.5850   4.7042   4.7069   4.7071   4.7170   4.7246
     4.7616   4.7649   4.7836   4.8114   4.8135   4.8762   4.9185   4.9291
     4.9318   4.9440   4.9549   4.9567   4.9712   4.9813   4.9873   5.0017
     5.0105   5.0402   5.0405   5.0409   5.0755   5.0881   5.1725   5.1837
     5.2020   5.2263   5.2470   5.2786   5.2878   5.3043   5.3259   5.3790
     5.3957   5.4103   5.4765   5.6040   5.6416   5.6668   5.7486   5.7604
     5.8021   5.8240   5.8520   5.8529   5.9236   5.9278   5.9541   5.9592
     5.9691   6.0113   6.0340   6.0489   6.0536   6.0728   6.0735   6.0799
     6.1005   6.1037   6.1201   6.1275   6.1483   6.1522   6.1603   6.1686
     6.2077   6.2217   6.2234   6.2302   6.2327   6.2333   6.2598   6.2764
     6.2870   6.2947   6.3075   6.3083   6.3125   6.3581   6.3621   6.3686
     6.3806   6.3858   6.3998   6.4064   6.4605   6.4659   6.4716   6.4784
     6.5012   6.5541   6.6058   6.6546   6.6669   6.6860   6.7096   6.7252
     6.7314   6.8270   6.8443   6.8823   7.0065   7.0375   7.0431   7.0463
     7.0486   7.0611   7.0969   7.1040   7.1080   7.1102   7.1615   7.2216
     7.2789   7.2818   7.2825   7.3046   7.3167   7.3358   7.3396   7.3421
     7.3754   7.3816   7.3828   7.3887   7.3905   7.4165   7.4234   7.4366
     7.4370   7.4624   7.4713   7.4751   7.5093   7.5289   7.5617   7.5798
     7.6068   7.6719   7.6922   7.7131   7.7258   7.8082   7.8567   7.8613
     7.8736   7.8795   7.8805   7.8977   7.8979   7.9115   7.9330   7.9413
     7.9500   7.9856   8.0163   8.0316   8.0401   8.0455   8.0614   8.0875
     8.0906   8.1317   8.1376   8.1491   8.1566   8.1827   8.1980   8.2137
     8.2340   8.2428   8.2630   8.2907   8.3365   8.3377   8.3507   8.3520
     8.3621   8.3827   8.3918   8.4203   8.4323   8.4389   8.4409   8.4424
     8.4546   8.4576   8.4780   8.5095   8.5231   8.5316   8.5529   8.5543
     8.5790   8.5984   8.6052   8.6114   8.6279   8.6313   8.6410   8.6750
     8.6760   8.6773   8.6835   8.6858   8.6961   8.6984   8.6985   8.7188
     8.7203   8.7467   8.7496   8.7705   8.8055   8.8126   8.8137   8.8252
     8.8273   8.8678   8.8822   8.8851   8.9090   8.9384   8.9540   9.0047
     9.0149   9.0531   9.0640   9.0666   9.0702   9.0719   9.0787   9.0898
     9.1255   9.2042   9.2044   9.2251   9.2271   9.2278   9.2400   9.2545
     9.2669   9.2914   9.3316   9.3673   9.4387   9.5978   9.6073   9.6456
     9.6743   9.7757   9.7952   9.8856  10.4909  10.4995  10.5912  10.5964
    10.6652  10.6674  10.7608  10.7619  11.3216  11.3506  11.3993  11.4472
    12.5219  13.0152  13.0453  13.2105  13.2116  13.5450  13.6300  13.6317
    13.7354  13.7894  13.8480  13.9681  14.0715  14.1319  14.1668  14.4112
    14.4973  14.6471  14.6839  14.7166  14.7494  14.7506  14.8024  14.9484
    15.0093  15.1814  15.2007  15.2235  15.3226  15.3342  15.4155  15.4162
    15.4898  15.5190  15.5489  15.5619  15.5718  15.6806  15.6879  15.8410
    15.8490  15.8509  15.8544  15.9133  15.9779  16.0211  16.0896  16.0934
    16.1280  16.1640  16.1988  16.2287  16.2376  16.2621  16.2706  16.2723
    16.3281  16.3422  16.3936  16.4308  16.4493  16.4565  16.4692  16.4741
    16.5271  16.5582  16.5797  16.6197  16.6544

     the Fermi energy is     9.6406 ev

!    total energy              =   -6849.01419612 Ry
     Harris-Foulkes estimate   =   -6849.01416591 Ry
     estimated scf accuracy    <       0.00000032 Ry

     The total energy is the sum of the following terms:

     one-electron contribution =   -2073.79165699 Ry
     hartree contribution      =    1802.85263817 Ry
     xc contribution           =   -2360.99821573 Ry
     ewald contribution        =   -4217.05712721 Ry
     smearing contrib. (-TS)   =      -0.01983436 Ry

     convergence has been achieved in  12 iterations

     negative rho (up, down):  3.132E-01 0.000E+00

     Forces acting on atoms (cartesian axes, Ry/au):

     atom    1 type  3   force =     0.00014229    0.00023216   -0.00000557
     atom    2 type  3   force =    -0.00023216   -0.00014229   -0.00000557
     atom    3 type  4   force =     0.00039210   -0.00039210   -0.00002962
     atom    4 type  4   force =     0.00016520   -0.00029988   -0.00002842
     atom    5 type  4   force =     0.00003800   -0.00051679    0.00209351
     atom    6 type  4   force =     0.00051679   -0.00003800    0.00209351
     atom    7 type  1   force =    -0.00074861    0.00074861    0.00015714
     atom    8 type  1   force =     0.00000000    0.00000000    0.00458246
     atom    9 type  3   force =     0.00058209    0.00142192   -0.00344316
     atom   10 type  3   force =    -0.00142192   -0.00058209   -0.00344316
     atom   11 type  4   force =     0.00756863   -0.00756863   -0.01060088
     atom   12 type  4   force =    -0.00007578   -0.00145547   -0.00213414
     atom   13 type  4   force =     0.00774972    0.00774972   -0.00941274
     atom   14 type  4   force =    -0.00031820    0.00174586   -0.00103029
     atom   15 type  5   force =    -0.00314118    0.00314118   -0.00008930
     atom   16 type  2   force =     0.00000000    0.00000000   -0.00006320
     atom   17 type  4   force =     0.00749319   -0.00749319    0.01153126
     atom   18 type  4   force =    -0.00009799   -0.00144398    0.00304041
     atom   19 type  4   force =     0.00782558    0.00782558    0.00863369
     atom   20 type  4   force =    -0.00029606    0.00176122    0.00024744
     atom   21 type  3   force =     0.00066616    0.00143583    0.00345227
     atom   22 type  3   force =    -0.00143583   -0.00066616    0.00345227
     atom   23 type  1   force =    -0.00074798    0.00074798   -0.00017545
     atom   24 type  1   force =     0.00000000    0.00000000   -0.00458550
     atom   25 type  4   force =     0.00004915   -0.00051481   -0.00212560
     atom   26 type  4   force =     0.00051481   -0.00004915   -0.00212560
     atom   27 type  3   force =    -0.00014229   -0.00023216   -0.00000557
     atom   28 type  3   force =     0.00000873    0.00006021   -0.00000445
     atom   29 type  4   force =    -0.00029988    0.00016520   -0.00002842
     atom   30 type  4   force =     0.00049283   -0.00049283   -0.00003370
     atom   31 type  4   force =    -0.00003800    0.00051679    0.00209351
     atom   32 type  4   force =    -0.00003082   -0.00004466    0.00274730
     atom   33 type  1   force =    -0.00065652   -0.00065652    0.00021510
     atom   34 type  1   force =     0.00000000    0.00000000   -0.00031717
     atom   35 type  3   force =    -0.00058209   -0.00142192   -0.00344316
     atom   36 type  3   force =    -0.00012088    0.00007483   -0.00402066
     atom   37 type  4   force =    -0.00145547   -0.00007578   -0.00213414
     atom   38 type  4   force =     0.00026037   -0.00026037   -0.00226053
     atom   39 type  4   force =    -0.00174586    0.00031820   -0.00103029
     atom   40 type  4   force =     0.00015722    0.00015722   -0.00112213
     atom   41 type  5   force =    -0.00313990   -0.00313990   -0.00005402
     atom   42 type  5   force =     0.00000000    0.00000000   -0.00006866
     atom   43 type  4   force =    -0.00144398   -0.00009799    0.00304041
     atom   44 type  4   force =     0.00023597   -0.00023597    0.00312234
     atom   45 type  4   force =    -0.00176122    0.00029606    0.00024744
     atom   46 type  4   force =     0.00018178    0.00018178    0.00038826
     atom   47 type  3   force =    -0.00066616   -0.00143583    0.00345227
     atom   48 type  3   force =    -0.00012078    0.00005906    0.00403822
     atom   49 type  1   force =    -0.00065476   -0.00065476   -0.00021445
     atom   50 type  1   force =     0.00000000    0.00000000    0.00030767
     atom   51 type  4   force =    -0.00004915    0.00051481   -0.00212560
     atom   52 type  4   force =    -0.00003280   -0.00003369   -0.00277927
     atom   53 type  3   force =    -0.00006021   -0.00000873   -0.00000445
     atom   54 type  3   force =     0.00023216    0.00014229   -0.00000557
     atom   55 type  4   force =    -0.00016520    0.00029988   -0.00002842
     atom   56 type  4   force =    -0.00039210    0.00039210   -0.00002962
     atom   57 type  4   force =     0.00004466    0.00003082    0.00274730
     atom   58 type  4   force =    -0.00051679    0.00003800    0.00209351
     atom   59 type  1   force =     0.00065652    0.00065652    0.00021510
     atom   60 type  1   force =     0.00000000    0.00000000   -0.00031717
     atom   61 type  3   force =    -0.00007483    0.00012088   -0.00402066
     atom   62 type  3   force =     0.00142192    0.00058209   -0.00344316
     atom   63 type  4   force =     0.00007578    0.00145547   -0.00213414
     atom   64 type  4   force =    -0.00756863    0.00756863   -0.01060088
     atom   65 type  4   force =     0.00031820   -0.00174586   -0.00103029
     atom   66 type  4   force =    -0.00774972   -0.00774972   -0.00941274
     atom   67 type  5   force =     0.00313990    0.00313990   -0.00005402
     atom   68 type  5   force =     0.00000000    0.00000000   -0.00006866
     atom   69 type  4   force =     0.00009799    0.00144398    0.00304041
     atom   70 type  4   force =    -0.00749319    0.00749319    0.01153126
     atom   71 type  4   force =     0.00029606   -0.00176122    0.00024744
     atom   72 type  4   force =    -0.00782558   -0.00782558    0.00863369
     atom   73 type  3   force =    -0.00005906    0.00012078    0.00403822
     atom   74 type  3   force =     0.00143583    0.00066616    0.00345227
     atom   75 type  1   force =     0.00065476    0.00065476   -0.00021445
     atom   76 type  1   force =     0.00000000    0.00000000    0.00030767
     atom   77 type  4   force =     0.00003369    0.00003280   -0.00277927
     atom   78 type  4   force =    -0.00051481    0.00004915   -0.00212560
     atom   79 type  3   force =     0.00006021    0.00000873   -0.00000445
     atom   80 type  3   force =    -0.00000873   -0.00006021   -0.00000445
     atom   81 type  4   force =    -0.00049283    0.00049283   -0.00003370
     atom   82 type  4   force =     0.00029988   -0.00016520   -0.00002842
     atom   83 type  4   force =    -0.00004466   -0.00003082    0.00274730
     atom   84 type  4   force =     0.00003082    0.00004466    0.00274730
     atom   85 type  1   force =     0.00074861   -0.00074861    0.00015714
     atom   86 type  1   force =     0.00000000    0.00000000   -0.00090273
     atom   87 type  3   force =     0.00007483   -0.00012088   -0.00402066
     atom   88 type  3   force =     0.00012088   -0.00007483   -0.00402066
     atom   89 type  4   force =    -0.00026037    0.00026037   -0.00226053
     atom   90 type  4   force =     0.00145547    0.00007578   -0.00213414
     atom   91 type  4   force =    -0.00015722   -0.00015722   -0.00112213
     atom   92 type  4   force =     0.00174586   -0.00031820   -0.00103029
     atom   93 type  5   force =     0.00314118   -0.00314118   -0.00008930
     atom   94 type  5   force =     0.00000000    0.00000000   -0.00006953
     atom   95 type  4   force =    -0.00023597    0.00023597    0.00312234
     atom   96 type  4   force =     0.00144398    0.00009799    0.00304041
     atom   97 type  4   force =    -0.00018178   -0.00018178    0.00038826
     atom   98 type  4   force =     0.00176122   -0.00029606    0.00024744
     atom   99 type  3   force =     0.00005906   -0.00012078    0.00403822
     atom  100 type  3   force =     0.00012078   -0.00005906    0.00403822
     atom  101 type  1   force =     0.00074798   -0.00074798   -0.00017545
     atom  102 type  1   force =     0.00000000    0.00000000    0.00089448
     atom  103 type  4   force =    -0.00003369   -0.00003280   -0.00277927
     atom  104 type  4   force =     0.00003280    0.00003369   -0.00277927

     Total force =     0.048663     Total SCF correction =     0.002463


     Computing stress (Cartesian axis) and pressure


     negative rho (up, down):  3.132E-01 0.000E+00
          total   stress  (Ry/bohr**3)                   (kbar)     P=       -1.63
  -0.00001634   0.00005492   0.00000000           -2.40        8.08        0.00
   0.00005492  -0.00001634   0.00000000            8.08       -2.40        0.00
   0.00000000   0.00000000  -0.00000060            0.00        0.00       -0.09


     number of scf cycles    =   4
     number of bfgs steps    =   3

     enthalpy old            =   -6849.0252751660 Ry
     enthalpy new            =   -6849.0141961211 Ry

     CASE: enthalpy_new > enthalpy_old


 %%%%%%%%%%%%%%%%%%%%%%%%%%%%%%%%%%%%%%%%%%%%%%%%%%%%%%%%%%%%%%%%%%%%%%%%%%%%%%
     Error in routine bfgs (1):
     dE0s is positive which should never happen
 %%%%%%%%%%%%%%%%%%%%%%%%%%%%%%%%%%%%%%%%%%%%%%%%%%%%%%%%%%%%%%%%%%%%%%%%%%%%%%

     stopping ...
