
     Program PWSCF v.6.5 starts on  4May2021 at 15:14:40 

     This program is part of the open-source Quantum ESPRESSO suite
     for quantum simulation of materials; please cite
         "P. Giannozzi et al., J. Phys.:Condens. Matter 21 395502 (2009);
         "P. Giannozzi et al., J. Phys.:Condens. Matter 29 465901 (2017);
          URL http://www.quantum-espresso.org", 
     in publications or presentations arising from this work. More details at
     http://www.quantum-espresso.org/quote

     Parallel version (MPI), running on    80 processors

     MPI processes distributed on     5 nodes
     R & G space division:  proc/nbgrp/npool/nimage =      80
     Reading input from dYBCO_rt2_111_0vac_NOcleave_0sep_333.pwi

     Current dimensions of program PWSCF are:
     Max number of different atomic species (ntypx) = 10
     Max number of k-points (npk) =  40000
     Max angular momentum in pseudopotentials (lmaxx) =  3
     Message from routine volume:
     axis vectors are left-handed

     Subspace diagonalization in iterative solution of the eigenvalue problem:
     one sub-group per band group will be used
     scalapack distributed-memory algorithm (size of sub-group:  8*  8 procs)

     Message from routine setup:
     using ibrav=0 with symmetry is DISCOURAGED, use correct ibrav instead
 
     Parallelization info
     --------------------
     sticks:   dense  smooth     PW     G-vecs:    dense   smooth      PW
     Min         300     100     26                37714     7256     966
     Max         301     101     28                37719     7260     972
     Sum       24023    8011   2085              3017255   580715   77595
 


     bravais-lattice index     =            0
     lattice parameter (alat)  =      20.4729  a.u.
     unit-cell volume          =    9248.1095 (a.u.)^3
     number of atoms/cell      =          104
     number of atomic types    =            5
     number of electrons       =       847.00
     number of Kohn-Sham states=          509
     kinetic-energy cutoff     =      60.0000  Ry
     charge density cutoff     =     720.0000  Ry
     convergence threshold     =      1.0E-08
     mixing beta               =       0.2000
     number of iterations used =           10  local-TF  mixing
     Exchange-correlation= SLA PW PBE PBE
                           (   1   4   3   4   0   0   0)
     nstep                     =          300


     celldm(1)=  20.472913  celldm(2)=   0.000000  celldm(3)=   0.000000
     celldm(4)=   0.000000  celldm(5)=   0.000000  celldm(6)=   0.000000

     crystal axes: (cart. coord. in units of alat)
               a(1) = (  -0.697816   0.716277   0.000000 )  
               a(2) = (   0.697816   0.716277   0.000000 )  
               a(3) = (   0.000000   0.000000   1.078108 )  

     reciprocal axes: (cart. coord. in units 2 pi/alat)
               b(1) = ( -0.716521  0.698054  0.000000 )  
               b(2) = (  0.716521  0.698054  0.000000 )  
               b(3) = (  0.000000  0.000000  0.927551 )  


     PseudoPot. # 1 for Ba read from file:
     ./pseudo/Ba.pbe-nsp-van.UPF
     MD5 check sum: 2b9c31dd849566dd297d80989662b7a0
     Pseudo is Ultrasoft + core correction, Zval = 10.0
     Generated by new atomic code, or converted to UPF format
     Using radial grid of  907 points,  6 beta functions with: 
                l(1) =   0
                l(2) =   0
                l(3) =   1
                l(4) =   1
                l(5) =   2
                l(6) =   2
     Q(r) pseudized with  6 coefficients,  rinner =    1.200   1.200   1.200
                                                       1.200   1.200

     PseudoPot. # 2 for Ca read from file:
     ./pseudo/Ca.pbe-nsp-van.UPF
     MD5 check sum: 6471098428ff4fa451746d08035ff179
     Pseudo is Ultrasoft + core correction, Zval = 10.0
     Generated by new atomic code, or converted to UPF format
     Using radial grid of  845 points,  6 beta functions with: 
                l(1) =   0
                l(2) =   0
                l(3) =   1
                l(4) =   1
                l(5) =   2
                l(6) =   2
     Q(r) pseudized with  6 coefficients,  rinner =    1.200   1.200   1.200
                                                       1.200   1.200

     PseudoPot. # 3 for Cu read from file:
     ./pseudo/Cu.pbe-n-van_ak.UPF
     MD5 check sum: 34e3282627ffb533726feb647e090d62
     Pseudo is Ultrasoft + core correction, Zval = 11.0
     Generated by new atomic code, or converted to UPF format
     Using radial grid of  867 points,  6 beta functions with: 
                l(1) =   0
                l(2) =   0
                l(3) =   1
                l(4) =   1
                l(5) =   2
                l(6) =   2
     Q(r) pseudized with  8 coefficients,  rinner =    1.400   1.400   1.400
                                                       1.400   1.400

     PseudoPot. # 4 for O  read from file:
     ./pseudo/O.pbe-van_ak.UPF
     MD5 check sum: 783ce7fe4c79b6a4916957118fed0856
     Pseudo is Ultrasoft, Zval =  6.0
     Generated by new atomic code, or converted to UPF format
     Using radial grid of  737 points,  4 beta functions with: 
                l(1) =   0
                l(2) =   0
                l(3) =   1
                l(4) =   1
     Q(r) pseudized with  8 coefficients,  rinner =    0.800   0.800   0.800


     PseudoPot. # 5 for Y  read from file:
     ./pseudo/Y.pbe-nsp-van.UPF
     MD5 check sum: 4412fed3ab108fed87a1b7d6a69a4a38
     Pseudo is Ultrasoft + core correction, Zval = 11.0
     Generated by new atomic code, or converted to UPF format
     Using radial grid of  885 points,  6 beta functions with: 
                l(1) =   0
                l(2) =   0
                l(3) =   1
                l(4) =   1
                l(5) =   2
                l(6) =   2
     Q(r) pseudized with  6 coefficients,  rinner =    1.200   1.200   1.200
                                                       1.200   1.200

     atomic species   valence    mass     pseudopotential
        Ba            10.00   137.32700     Ba( 1.00)
        Ca            10.00    40.07800     Ca( 1.00)
        Cu            11.00    63.54600     Cu( 1.00)
        O              6.00    15.99900     O ( 1.00)
        Y             11.00    88.90584     Y ( 1.00)

      4 Sym. Ops. (no inversion) found ( 3 have fractional translation)



   Cartesian axes

     site n.     atom                  positions (alat units)
         1           Cu  tau(   1) = (   0.0000000   0.0000000   0.0000000  )
         2           Cu  tau(   2) = (   0.0000000   0.3581385   0.0000000  )
         3           O   tau(   3) = (   0.0000000   0.1790692   0.0000000  )
         4           O   tau(   4) = (   0.0000000   0.5372077   0.0000000  )
         5           O   tau(   5) = (   0.0000000   0.0000000   0.1716129  )
         6           O   tau(   6) = (   0.0000000   0.3581385   0.1716129  )
         7           Ba  tau(   7) = (  -0.1744540   0.1790692   0.1947166  )
         8           Ba  tau(   8) = (   0.1744540   0.1790692   0.1947166  )
         9           Cu  tau(   9) = (   0.0000000   0.0000000   0.3809172  )
        10           Cu  tau(  10) = (   0.0000000   0.3581385   0.3809172  )
        11           O   tau(  11) = (   0.0000000   0.1790692   0.4079022  )
        12           O   tau(  12) = (   0.0000000   0.5372077   0.4079022  )
        13           O   tau(  13) = (   0.1744540   0.3581385   0.4089803  )
        14           O   tau(  14) = (  -0.1744540   0.3581385   0.4089803  )
        15           Y   tau(  15) = (  -0.1744540   0.1790692   0.5390538  )
        16           Ca  tau(  16) = (   0.1744540   0.1790692   0.5390538  )
        17           O   tau(  17) = (   0.0000000   0.1790692   0.6691272  )
        18           O   tau(  18) = (   0.0000000   0.5372077   0.6691272  )
        19           O   tau(  19) = (   0.1744540   0.3581385   0.6702053  )
        20           O   tau(  20) = (  -0.1744540   0.3581385   0.6702053  )
        21           Cu  tau(  21) = (   0.0000000   0.0000000   0.6971903  )
        22           Cu  tau(  22) = (   0.0000000   0.3581385   0.6971903  )
        23           Ba  tau(  23) = (  -0.1744540   0.1790692   0.8833910  )
        24           Ba  tau(  24) = (   0.1744540   0.1790692   0.8833910  )
        25           O   tau(  25) = (   0.0000000   0.0000000   0.9064946  )
        26           O   tau(  26) = (   0.0000000   0.3581385   0.9064946  )
        27           Cu  tau(  27) = (   0.3489081   0.3581385   0.0000000  )
        28           Cu  tau(  28) = (   0.3489081   0.7162769   0.0000000  )
        29           O   tau(  29) = (   0.3489081   0.5372077   0.0000000  )
        30           O   tau(  30) = (   0.3489081   0.8953461   0.0000000  )
        31           O   tau(  31) = (   0.3489081   0.3581385   0.1716129  )
        32           O   tau(  32) = (   0.3489081   0.7162769   0.1716129  )
        33           Ba  tau(  33) = (   0.1744540   0.5372077   0.1947166  )
        34           Ba  tau(  34) = (   0.5233621   0.5372077   0.1947166  )
        35           Cu  tau(  35) = (   0.3489081   0.3581385   0.3809172  )
        36           Cu  tau(  36) = (   0.3489081   0.7162769   0.3809172  )
        37           O   tau(  37) = (   0.3489081   0.5372077   0.4079022  )
        38           O   tau(  38) = (   0.3489081   0.8953461   0.4079022  )
        39           O   tau(  39) = (   0.5233621   0.7162769   0.4089803  )
        40           O   tau(  40) = (   0.1744540   0.7162769   0.4089803  )
        41           Y   tau(  41) = (   0.1744540   0.5372077   0.5390538  )
        42           Y   tau(  42) = (   0.5233621   0.5372077   0.5390538  )
        43           O   tau(  43) = (   0.3489081   0.5372077   0.6691272  )
        44           O   tau(  44) = (   0.3489081   0.8953461   0.6691272  )
        45           O   tau(  45) = (   0.5233621   0.7162769   0.6702053  )
        46           O   tau(  46) = (   0.1744540   0.7162769   0.6702053  )
        47           Cu  tau(  47) = (   0.3489081   0.3581385   0.6971903  )
        48           Cu  tau(  48) = (   0.3489081   0.7162769   0.6971903  )
        49           Ba  tau(  49) = (   0.1744540   0.5372077   0.8833910  )
        50           Ba  tau(  50) = (   0.5233621   0.5372077   0.8833910  )
        51           O   tau(  51) = (   0.3489081   0.3581385   0.9064946  )
        52           O   tau(  52) = (   0.3489081   0.7162769   0.9064946  )
        53           Cu  tau(  53) = (  -0.3489081   0.3581385   0.0000000  )
        54           Cu  tau(  54) = (  -0.3489081   0.7162769   0.0000000  )
        55           O   tau(  55) = (  -0.3489081   0.5372077   0.0000000  )
        56           O   tau(  56) = (  -0.3489081   0.8953461   0.0000000  )
        57           O   tau(  57) = (  -0.3489081   0.3581385   0.1716129  )
        58           O   tau(  58) = (  -0.3489081   0.7162769   0.1716129  )
        59           Ba  tau(  59) = (  -0.5233621   0.5372077   0.1947166  )
        60           Ba  tau(  60) = (  -0.1744540   0.5372077   0.1947166  )
        61           Cu  tau(  61) = (  -0.3489081   0.3581385   0.3809172  )
        62           Cu  tau(  62) = (  -0.3489081   0.7162769   0.3809172  )
        63           O   tau(  63) = (  -0.3489081   0.5372077   0.4079022  )
        64           O   tau(  64) = (  -0.3489081   0.8953461   0.4079022  )
        65           O   tau(  65) = (  -0.1744540   0.7162769   0.4089803  )
        66           O   tau(  66) = (  -0.5233621   0.7162769   0.4089803  )
        67           Y   tau(  67) = (  -0.5233621   0.5372077   0.5390538  )
        68           Y   tau(  68) = (  -0.1744540   0.5372077   0.5390538  )
        69           O   tau(  69) = (  -0.3489081   0.5372077   0.6691272  )
        70           O   tau(  70) = (  -0.3489081   0.8953461   0.6691272  )
        71           O   tau(  71) = (  -0.1744540   0.7162769   0.6702053  )
        72           O   tau(  72) = (  -0.5233621   0.7162769   0.6702053  )
        73           Cu  tau(  73) = (  -0.3489081   0.3581385   0.6971903  )
        74           Cu  tau(  74) = (  -0.3489081   0.7162769   0.6971903  )
        75           Ba  tau(  75) = (  -0.5233621   0.5372077   0.8833910  )
        76           Ba  tau(  76) = (  -0.1744540   0.5372077   0.8833910  )
        77           O   tau(  77) = (  -0.3489081   0.3581385   0.9064946  )
        78           O   tau(  78) = (  -0.3489081   0.7162769   0.9064946  )
        79           Cu  tau(  79) = (   0.0000000   0.7162769   0.0000000  )
        80           Cu  tau(  80) = (   0.0000000   1.0744154   0.0000000  )
        81           O   tau(  81) = (   0.0000000   0.8953461   0.0000000  )
        82           O   tau(  82) = (   0.0000000   1.2534846   0.0000000  )
        83           O   tau(  83) = (   0.0000000   0.7162769   0.1716129  )
        84           O   tau(  84) = (   0.0000000   1.0744154   0.1716129  )
        85           Ba  tau(  85) = (  -0.1744540   0.8953461   0.1947166  )
        86           Ba  tau(  86) = (   0.1744540   0.8953461   0.1947166  )
        87           Cu  tau(  87) = (   0.0000000   0.7162769   0.3809172  )
        88           Cu  tau(  88) = (   0.0000000   1.0744154   0.3809172  )
        89           O   tau(  89) = (   0.0000000   0.8953461   0.4079022  )
        90           O   tau(  90) = (   0.0000000   1.2534846   0.4079022  )
        91           O   tau(  91) = (   0.1744540   1.0744154   0.4089803  )
        92           O   tau(  92) = (  -0.1744540   1.0744154   0.4089803  )
        93           Y   tau(  93) = (  -0.1744540   0.8953461   0.5390538  )
        94           Y   tau(  94) = (   0.1744540   0.8953461   0.5390538  )
        95           O   tau(  95) = (   0.0000000   0.8953461   0.6691272  )
        96           O   tau(  96) = (   0.0000000   1.2534846   0.6691272  )
        97           O   tau(  97) = (   0.1744540   1.0744154   0.6702053  )
        98           O   tau(  98) = (  -0.1744540   1.0744154   0.6702053  )
        99           Cu  tau(  99) = (   0.0000000   0.7162769   0.6971903  )
       100           Cu  tau( 100) = (   0.0000000   1.0744154   0.6971903  )
       101           Ba  tau( 101) = (  -0.1744540   0.8953461   0.8833910  )
       102           Ba  tau( 102) = (   0.1744540   0.8953461   0.8833910  )
       103           O   tau( 103) = (   0.0000000   0.7162769   0.9064946  )
       104           O   tau( 104) = (   0.0000000   1.0744154   0.9064946  )

     number of k points=     8  Gaussian smearing, width (Ry)=  0.0100
                       cart. coord. in units 2pi/alat
        k(    1) = (   0.0000000   0.0000000   0.0000000), wk =   0.0740741
        k(    2) = (   0.0000000   0.0000000   0.3091838), wk =   0.1481481
        k(    3) = (   0.2388404   0.2326847   0.0000000), wk =   0.2962963
        k(    4) = (   0.2388404   0.2326847   0.3091838), wk =   0.5925926
        k(    5) = (   0.0000000   0.4653694   0.0000000), wk =   0.1481481
        k(    6) = (   0.0000000   0.4653694   0.3091838), wk =   0.2962963
        k(    7) = (  -0.4776807  -0.0000000   0.0000000), wk =   0.1481481
        k(    8) = (  -0.4776807  -0.0000000   0.3091838), wk =   0.2962963

     Dense  grid:  3017255 G-vectors     FFT dimensions: ( 180, 180, 192)

     Smooth grid:   580715 G-vectors     FFT dimensions: ( 108, 108, 120)

     Estimated max dynamical RAM per process >     466.80 MB

     Estimated total dynamical RAM >      36.47 GB

     Initial potential from superposition of free atoms

     starting charge  846.43941, renormalised to  847.00000

     negative rho (up, down):  3.029E-01 0.000E+00
     Starting wfcs are  749 randomized atomic wfcs
