
     Program PWSCF v.6.5 starts on  3May2021 at 16:14: 0 

     This program is part of the open-source Quantum ESPRESSO suite
     for quantum simulation of materials; please cite
         "P. Giannozzi et al., J. Phys.:Condens. Matter 21 395502 (2009);
         "P. Giannozzi et al., J. Phys.:Condens. Matter 29 465901 (2017);
          URL http://www.quantum-espresso.org", 
     in publications or presentations arising from this work. More details at
     http://www.quantum-espresso.org/quote

     Parallel version (MPI), running on    80 processors

     MPI processes distributed on    26 nodes
     R & G space division:  proc/nbgrp/npool/nimage =      80
     Reading input from dYBCO_rt2_111_0vac_NOcleave_0sep.pwi

     Current dimensions of program PWSCF are:
     Max number of different atomic species (ntypx) = 10
     Max number of k-points (npk) =  40000
     Max angular momentum in pseudopotentials (lmaxx) =  3

     Subspace diagonalization in iterative solution of the eigenvalue problem:
     one sub-group per band group will be used
     scalapack distributed-memory algorithm (size of sub-group:  8*  8 procs)

     Message from routine setup:
     using ibrav=0 with symmetry is DISCOURAGED, use correct ibrav instead
 
     Parallelization info
     --------------------
     sticks:   dense  smooth     PW     G-vecs:    dense   smooth      PW
     Min         303     101     27                38211     7353    1013
     Max         304     102     28                38220     7358    1018
     Sum       24309    8109   2177              3057233   588385   81161
 


     bravais-lattice index     =            0
     lattice parameter (alat)  =      20.6056  a.u.
     unit-cell volume          =    9371.6055 (a.u.)^3
     number of atoms/cell      =          104
     number of atomic types    =            5
     number of electrons       =       847.00
     number of Kohn-Sham states=          509
     kinetic-energy cutoff     =      60.0000  Ry
     charge density cutoff     =     720.0000  Ry
     convergence threshold     =      1.0E-06
     mixing beta               =       0.2000
     number of iterations used =           10  local-TF  mixing
     Exchange-correlation= SLA PW PBE PBE
                           (   1   4   3   4   0   0   0)
     nstep                     =          300


     celldm(1)=  20.605642  celldm(2)=   0.000000  celldm(3)=   0.000000
     celldm(4)=   0.000000  celldm(5)=   0.000000  celldm(6)=   0.000000

     crystal axes: (cart. coord. in units of alat)
               a(1) = (   1.000000   0.000000   0.000000 )  
               a(2) = (   0.000000   1.000000   0.000000 )  
               a(3) = (   0.000000   0.000000   1.071163 )  

     reciprocal axes: (cart. coord. in units 2 pi/alat)
               b(1) = (  1.000000  0.000000  0.000000 )  
               b(2) = (  0.000000  1.000000  0.000000 )  
               b(3) = (  0.000000  0.000000  0.933565 )  


     PseudoPot. # 1 for Ba read from file:
     ./pseudo/Ba.pbe-nsp-van.UPF
     MD5 check sum: 2b9c31dd849566dd297d80989662b7a0
     Pseudo is Ultrasoft + core correction, Zval = 10.0
     Generated by new atomic code, or converted to UPF format
     Using radial grid of  907 points,  6 beta functions with: 
                l(1) =   0
                l(2) =   0
                l(3) =   1
                l(4) =   1
                l(5) =   2
                l(6) =   2
     Q(r) pseudized with  6 coefficients,  rinner =    1.200   1.200   1.200
                                                       1.200   1.200

     PseudoPot. # 2 for Ca read from file:
     ./pseudo/Ca.pbe-nsp-van.UPF
     MD5 check sum: 6471098428ff4fa451746d08035ff179
     Pseudo is Ultrasoft + core correction, Zval = 10.0
     Generated by new atomic code, or converted to UPF format
     Using radial grid of  845 points,  6 beta functions with: 
                l(1) =   0
                l(2) =   0
                l(3) =   1
                l(4) =   1
                l(5) =   2
                l(6) =   2
     Q(r) pseudized with  6 coefficients,  rinner =    1.200   1.200   1.200
                                                       1.200   1.200

     PseudoPot. # 3 for Cu read from file:
     ./pseudo/Cu.pbe-n-van_ak.UPF
     MD5 check sum: 34e3282627ffb533726feb647e090d62
     Pseudo is Ultrasoft + core correction, Zval = 11.0
     Generated by new atomic code, or converted to UPF format
     Using radial grid of  867 points,  6 beta functions with: 
                l(1) =   0
                l(2) =   0
                l(3) =   1
                l(4) =   1
                l(5) =   2
                l(6) =   2
     Q(r) pseudized with  8 coefficients,  rinner =    1.400   1.400   1.400
                                                       1.400   1.400

     PseudoPot. # 4 for O  read from file:
     ./pseudo/O.pbe-van_ak.UPF
     MD5 check sum: 783ce7fe4c79b6a4916957118fed0856
     Pseudo is Ultrasoft, Zval =  6.0
     Generated by new atomic code, or converted to UPF format
     Using radial grid of  737 points,  4 beta functions with: 
                l(1) =   0
                l(2) =   0
                l(3) =   1
                l(4) =   1
     Q(r) pseudized with  8 coefficients,  rinner =    0.800   0.800   0.800


     PseudoPot. # 5 for Y  read from file:
     ./pseudo/Y.pbe-nsp-van.UPF
     MD5 check sum: 4412fed3ab108fed87a1b7d6a69a4a38
     Pseudo is Ultrasoft + core correction, Zval = 11.0
     Generated by new atomic code, or converted to UPF format
     Using radial grid of  885 points,  6 beta functions with: 
                l(1) =   0
                l(2) =   0
                l(3) =   1
                l(4) =   1
                l(5) =   2
                l(6) =   2
     Q(r) pseudized with  6 coefficients,  rinner =    1.200   1.200   1.200
                                                       1.200   1.200

     atomic species   valence    mass     pseudopotential
        Ba            10.00   137.32700     Ba( 1.00)
        Ca            10.00    40.07800     Ca( 1.00)
        Cu            11.00    63.54600     Cu( 1.00)
        O              6.00    15.99900     O ( 1.00)
        Y             11.00    88.90584     Y ( 1.00)

      4 Sym. Ops. (no inversion) found ( 3 have fractional translation)



   Cartesian axes

     site n.     atom                  positions (alat units)
         1           Cu  tau(   1) = (   0.0000000   0.0000000   0.0000000  )
         2           Cu  tau(   2) = (   0.2500001   0.2500001   0.0000000  )
         3           O   tau(   3) = (   0.1249996   0.1249996   0.0000000  )
         4           O   tau(   4) = (   0.3749997   0.3749997   0.0000000  )
         5           O   tau(   5) = (   0.0000000   0.0000000   0.1705075  )
         6           O   tau(   6) = (   0.2500001   0.2500001   0.1705075  )
         7           Ba  tau(   7) = (   0.2500001   0.0000000   0.1934623  )
         8           Ba  tau(   8) = (   0.0000000   0.2500001   0.1934623  )
         9           Cu  tau(   9) = (   0.0000000   0.0000000   0.3784635  )
        10           Cu  tau(  10) = (   0.2500001   0.2500001   0.3784635  )
        11           O   tau(  11) = (   0.1249996   0.1249996   0.4052747  )
        12           O   tau(  12) = (   0.3749997   0.3749997   0.4052747  )
        13           O   tau(  13) = (   0.1249996   0.3749997   0.4063459  )
        14           O   tau(  14) = (   0.3749997   0.1249996   0.4063459  )
        15           Y   tau(  15) = (   0.2500001   0.0000000   0.5355815  )
        16           Ca  tau(  16) = (   0.0000000   0.2500001   0.5355815  )
        17           O   tau(  17) = (   0.1249996   0.1249996   0.6648171  )
        18           O   tau(  18) = (   0.3749997   0.3749997   0.6648171  )
        19           O   tau(  19) = (   0.1249996   0.3749997   0.6658883  )
        20           O   tau(  20) = (   0.3749997   0.1249996   0.6658883  )
        21           Cu  tau(  21) = (   0.0000000   0.0000000   0.6926995  )
        22           Cu  tau(  22) = (   0.2500001   0.2500001   0.6926995  )
        23           Ba  tau(  23) = (   0.2500001   0.0000000   0.8777007  )
        24           Ba  tau(  24) = (   0.0000000   0.2500001   0.8777007  )
        25           O   tau(  25) = (   0.0000000   0.0000000   0.9006555  )
        26           O   tau(  26) = (   0.2500001   0.2500001   0.9006555  )
        27           Cu  tau(  27) = (   0.0000000   0.5000002   0.0000000  )
        28           Cu  tau(  28) = (   0.2500001   0.7500003   0.0000000  )
        29           O   tau(  29) = (   0.1249996   0.6249998   0.0000000  )
        30           O   tau(  30) = (   0.3749997   0.8749999   0.0000000  )
        31           O   tau(  31) = (   0.0000000   0.5000002   0.1705075  )
        32           O   tau(  32) = (   0.2500001   0.7500003   0.1705075  )
        33           Ba  tau(  33) = (   0.2500001   0.5000002   0.1934623  )
        34           Ba  tau(  34) = (   0.0000000   0.7500003   0.1934623  )
        35           Cu  tau(  35) = (   0.0000000   0.5000002   0.3784635  )
        36           Cu  tau(  36) = (   0.2500001   0.7500003   0.3784635  )
        37           O   tau(  37) = (   0.1249996   0.6249998   0.4052747  )
        38           O   tau(  38) = (   0.3749997   0.8749999   0.4052747  )
        39           O   tau(  39) = (   0.1249996   0.8749999   0.4063459  )
        40           O   tau(  40) = (   0.3749997   0.6249998   0.4063459  )
        41           Y   tau(  41) = (   0.2500001   0.5000002   0.5355815  )
        42           Y   tau(  42) = (   0.0000000   0.7500003   0.5355815  )
        43           O   tau(  43) = (   0.1249996   0.6249998   0.6648171  )
        44           O   tau(  44) = (   0.3749997   0.8749999   0.6648171  )
        45           O   tau(  45) = (   0.1249996   0.8749999   0.6658883  )
        46           O   tau(  46) = (   0.3749997   0.6249998   0.6658883  )
        47           Cu  tau(  47) = (   0.0000000   0.5000002   0.6926995  )
        48           Cu  tau(  48) = (   0.2500001   0.7500003   0.6926995  )
        49           Ba  tau(  49) = (   0.2500001   0.5000002   0.8777007  )
        50           Ba  tau(  50) = (   0.0000000   0.7500003   0.8777007  )
        51           O   tau(  51) = (   0.0000000   0.5000002   0.9006555  )
        52           O   tau(  52) = (   0.2500001   0.7500003   0.9006555  )
        53           Cu  tau(  53) = (   0.5000002   0.0000000   0.0000000  )
        54           Cu  tau(  54) = (   0.7500003   0.2500001   0.0000000  )
        55           O   tau(  55) = (   0.6249998   0.1249996   0.0000000  )
        56           O   tau(  56) = (   0.8749999   0.3749997   0.0000000  )
        57           O   tau(  57) = (   0.5000002   0.0000000   0.1705075  )
        58           O   tau(  58) = (   0.7500003   0.2500001   0.1705075  )
        59           Ba  tau(  59) = (   0.7500003   0.0000000   0.1934623  )
        60           Ba  tau(  60) = (   0.5000002   0.2500001   0.1934623  )
        61           Cu  tau(  61) = (   0.5000002   0.0000000   0.3784635  )
        62           Cu  tau(  62) = (   0.7500003   0.2500001   0.3784635  )
        63           O   tau(  63) = (   0.6249998   0.1249996   0.4052747  )
        64           O   tau(  64) = (   0.8749999   0.3749997   0.4052747  )
        65           O   tau(  65) = (   0.6249998   0.3749997   0.4063459  )
        66           O   tau(  66) = (   0.8749999   0.1249996   0.4063459  )
        67           Y   tau(  67) = (   0.7500003   0.0000000   0.5355815  )
        68           Y   tau(  68) = (   0.5000002   0.2500001   0.5355815  )
        69           O   tau(  69) = (   0.6249998   0.1249996   0.6648171  )
        70           O   tau(  70) = (   0.8749999   0.3749997   0.6648171  )
        71           O   tau(  71) = (   0.6249998   0.3749997   0.6658883  )
        72           O   tau(  72) = (   0.8749999   0.1249996   0.6658883  )
        73           Cu  tau(  73) = (   0.5000002   0.0000000   0.6926995  )
        74           Cu  tau(  74) = (   0.7500003   0.2500001   0.6926995  )
        75           Ba  tau(  75) = (   0.7500003   0.0000000   0.8777007  )
        76           Ba  tau(  76) = (   0.5000002   0.2500001   0.8777007  )
        77           O   tau(  77) = (   0.5000002   0.0000000   0.9006555  )
        78           O   tau(  78) = (   0.7500003   0.2500001   0.9006555  )
        79           Cu  tau(  79) = (   0.5000002   0.5000002   0.0000000  )
        80           Cu  tau(  80) = (   0.7500003   0.7500003   0.0000000  )
        81           O   tau(  81) = (   0.6249998   0.6249998   0.0000000  )
        82           O   tau(  82) = (   0.8749999   0.8749999   0.0000000  )
        83           O   tau(  83) = (   0.5000002   0.5000002   0.1705075  )
        84           O   tau(  84) = (   0.7500003   0.7500003   0.1705075  )
        85           Ba  tau(  85) = (   0.7500003   0.5000002   0.1934623  )
        86           Ba  tau(  86) = (   0.5000002   0.7500003   0.1934623  )
        87           Cu  tau(  87) = (   0.5000002   0.5000002   0.3784635  )
        88           Cu  tau(  88) = (   0.7500003   0.7500003   0.3784635  )
        89           O   tau(  89) = (   0.6249998   0.6249998   0.4052747  )
        90           O   tau(  90) = (   0.8749999   0.8749999   0.4052747  )
        91           O   tau(  91) = (   0.6249998   0.8749999   0.4063459  )
        92           O   tau(  92) = (   0.8749999   0.6249998   0.4063459  )
        93           Y   tau(  93) = (   0.7500003   0.5000002   0.5355815  )
        94           Y   tau(  94) = (   0.5000002   0.7500003   0.5355815  )
        95           O   tau(  95) = (   0.6249998   0.6249998   0.6648171  )
        96           O   tau(  96) = (   0.8749999   0.8749999   0.6648171  )
        97           O   tau(  97) = (   0.6249998   0.8749999   0.6658883  )
        98           O   tau(  98) = (   0.8749999   0.6249998   0.6658883  )
        99           Cu  tau(  99) = (   0.5000002   0.5000002   0.6926995  )
       100           Cu  tau( 100) = (   0.7500003   0.7500003   0.6926995  )
       101           Ba  tau( 101) = (   0.7500003   0.5000002   0.8777007  )
       102           Ba  tau( 102) = (   0.5000002   0.7500003   0.8777007  )
       103           O   tau( 103) = (   0.5000002   0.5000002   0.9006555  )
       104           O   tau( 104) = (   0.7500003   0.7500003   0.9006555  )

     number of k points=   105  Gaussian smearing, width (Ry)=  0.0100

     Number of k-points >= 100: set verbosity='high' to print them.

     Dense  grid:  3057233 G-vectors     FFT dimensions: ( 180, 180, 192)

     Smooth grid:   588385 G-vectors     FFT dimensions: ( 108, 108, 120)

     Estimated max dynamical RAM per process >       1.14 GB

     Estimated total dynamical RAM >      91.00 GB

     Initial potential from superposition of free atoms

     starting charge  846.43941, renormalised to  847.00000

     negative rho (up, down):  3.034E-01 0.000E+00
     Starting wfcs are  749 randomized atomic wfcs

     total cpu time spent up to now is      138.2 secs

     Self-consistent Calculation

     iteration #  1     ecut=    60.00 Ry     beta= 0.20
     Davidson diagonalization with overlap
     ethr =  1.00E-02,  avg # of iterations =  2.0

     negative rho (up, down):  3.017E-01 0.000E+00

     total cpu time spent up to now is      414.3 secs

     total energy              =   -6851.57444615 Ry
     Harris-Foulkes estimate   =   -6857.20956643 Ry
     estimated scf accuracy    <      41.52462319 Ry

     iteration #  2     ecut=    60.00 Ry     beta= 0.20
     Davidson diagonalization with overlap
     ethr =  4.90E-03,  avg # of iterations =  1.0

     negative rho (up, down):  2.994E-01 0.000E+00

     total cpu time spent up to now is      656.2 secs

     total energy              =   -6846.73567847 Ry
     Harris-Foulkes estimate   =   -6852.66186574 Ry
     estimated scf accuracy    <      18.66043509 Ry

     iteration #  3     ecut=    60.00 Ry     beta= 0.20
     Davidson diagonalization with overlap
     ethr =  2.20E-03,  avg # of iterations =  2.0

     negative rho (up, down):  3.011E-01 0.000E+00

     total cpu time spent up to now is      949.5 secs

     total energy              =   -6849.03842041 Ry
     Harris-Foulkes estimate   =   -6849.32820426 Ry
     estimated scf accuracy    <       1.89947375 Ry

     iteration #  4     ecut=    60.00 Ry     beta= 0.20
     Davidson diagonalization with overlap
     ethr =  2.24E-04,  avg # of iterations =  4.0

     negative rho (up, down):  3.044E-01 0.000E+00

     total cpu time spent up to now is     1322.1 secs

     total energy              =   -6848.92273216 Ry
     Harris-Foulkes estimate   =   -6849.24356473 Ry
     estimated scf accuracy    <       1.08894251 Ry

     iteration #  5     ecut=    60.00 Ry     beta= 0.20
     Davidson diagonalization with overlap
     ethr =  1.29E-04,  avg # of iterations =  8.3

     negative rho (up, down):  3.089E-01 0.000E+00

     total cpu time spent up to now is     1826.0 secs

     total energy              =   -6848.96698209 Ry
     Harris-Foulkes estimate   =   -6849.01966439 Ry
     estimated scf accuracy    <       0.22909108 Ry

     iteration #  6     ecut=    60.00 Ry     beta= 0.20
     Davidson diagonalization with overlap
     c_bands:  1 eigenvalues not converged
     c_bands:  1 eigenvalues not converged
     c_bands:  1 eigenvalues not converged
     ethr =  2.70E-05,  avg # of iterations = 11.6

     negative rho (up, down):  3.111E-01 0.000E+00

     total cpu time spent up to now is     2416.6 secs

     total energy              =   -6848.98034974 Ry
     Harris-Foulkes estimate   =   -6848.98534330 Ry
     estimated scf accuracy    <       0.03894870 Ry

     iteration #  7     ecut=    60.00 Ry     beta= 0.20
     Davidson diagonalization with overlap
     c_bands:  1 eigenvalues not converged
     c_bands:  2 eigenvalues not converged
     c_bands:  2 eigenvalues not converged
     c_bands:  1 eigenvalues not converged
     c_bands:  1 eigenvalues not converged
     c_bands:  1 eigenvalues not converged
     c_bands:  1 eigenvalues not converged
     c_bands:  1 eigenvalues not converged
     c_bands:  1 eigenvalues not converged
     c_bands:  1 eigenvalues not converged
     c_bands:  2 eigenvalues not converged
     c_bands:  2 eigenvalues not converged
     c_bands:  1 eigenvalues not converged
     c_bands:  1 eigenvalues not converged
     c_bands:  1 eigenvalues not converged
     c_bands:  1 eigenvalues not converged
     ethr =  4.60E-06,  avg # of iterations = 11.9

     negative rho (up, down):  3.125E-01 0.000E+00

     total cpu time spent up to now is     3150.2 secs

     total energy              =   -6848.97969634 Ry
     Harris-Foulkes estimate   =   -6848.98578887 Ry
     estimated scf accuracy    <       0.02068861 Ry

     iteration #  8     ecut=    60.00 Ry     beta= 0.20
     Davidson diagonalization with overlap
     c_bands:  1 eigenvalues not converged
     c_bands:  1 eigenvalues not converged
     c_bands:  1 eigenvalues not converged
     c_bands:  1 eigenvalues not converged
     c_bands:  1 eigenvalues not converged
     ethr =  2.44E-06,  avg # of iterations =  5.5

     negative rho (up, down):  3.129E-01 0.000E+00

     total cpu time spent up to now is     3641.9 secs

     total energy              =   -6848.98831652 Ry
     Harris-Foulkes estimate   =   -6848.98818242 Ry
     estimated scf accuracy    <       0.03159604 Ry

     iteration #  9     ecut=    60.00 Ry     beta= 0.20
     Davidson diagonalization with overlap
     ethr =  2.44E-06,  avg # of iterations =  1.2

     negative rho (up, down):  3.137E-01 0.000E+00

     total cpu time spent up to now is     3885.4 secs

     total energy              =   -6848.98427015 Ry
     Harris-Foulkes estimate   =   -6848.98842484 Ry
     estimated scf accuracy    <       0.02782067 Ry

     iteration # 10     ecut=    60.00 Ry     beta= 0.20
     Davidson diagonalization with overlap
     ethr =  2.44E-06,  avg # of iterations =  4.2

     negative rho (up, down):  3.135E-01 0.000E+00

     total cpu time spent up to now is     4212.9 secs

     total energy              =   -6848.98407736 Ry
     Harris-Foulkes estimate   =   -6848.98527447 Ry
     estimated scf accuracy    <       0.00806153 Ry

     iteration # 11     ecut=    60.00 Ry     beta= 0.20
     Davidson diagonalization with overlap
     ethr =  9.52E-07,  avg # of iterations =  3.0

     negative rho (up, down):  3.134E-01 0.000E+00

     total cpu time spent up to now is     4533.1 secs

     total energy              =   -6848.98507452 Ry
     Harris-Foulkes estimate   =   -6848.98487690 Ry
     estimated scf accuracy    <       0.00076489 Ry

     iteration # 12     ecut=    60.00 Ry     beta= 0.20
     Davidson diagonalization with overlap
     ethr =  9.03E-08,  avg # of iterations =  3.1

     negative rho (up, down):  3.134E-01 0.000E+00

     total cpu time spent up to now is     4903.9 secs

     total energy              =   -6848.98500282 Ry
     Harris-Foulkes estimate   =   -6848.98528877 Ry
     estimated scf accuracy    <       0.00213729 Ry

     iteration # 13     ecut=    60.00 Ry     beta= 0.20
     Davidson diagonalization with overlap
     ethr =  9.03E-08,  avg # of iterations =  3.6

     negative rho (up, down):  3.132E-01 0.000E+00

     total cpu time spent up to now is     5248.6 secs

     total energy              =   -6848.98510002 Ry
     Harris-Foulkes estimate   =   -6848.98510888 Ry
     estimated scf accuracy    <       0.00043663 Ry

     iteration # 14     ecut=    60.00 Ry     beta= 0.20
     Davidson diagonalization with overlap
     ethr =  5.15E-08,  avg # of iterations =  1.7

     negative rho (up, down):  3.133E-01 0.000E+00

     total cpu time spent up to now is     5506.2 secs

     total energy              =   -6848.98517179 Ry
     Harris-Foulkes estimate   =   -6848.98513203 Ry
     estimated scf accuracy    <       0.00004841 Ry

     iteration # 15     ecut=    60.00 Ry     beta= 0.20
     Davidson diagonalization with overlap
     c_bands:  2 eigenvalues not converged
     c_bands:  1 eigenvalues not converged
     ethr =  5.72E-09,  avg # of iterations =  5.6

     negative rho (up, down):  3.133E-01 0.000E+00

     total cpu time spent up to now is     5970.8 secs

     total energy              =   -6848.98521215 Ry
     Harris-Foulkes estimate   =   -6848.98518181 Ry
     estimated scf accuracy    <       0.00001472 Ry

     iteration # 16     ecut=    60.00 Ry     beta= 0.20
     Davidson diagonalization with overlap
     ethr =  1.74E-09,  avg # of iterations =  1.4

     negative rho (up, down):  3.134E-01 0.000E+00

     total cpu time spent up to now is     6219.2 secs

     total energy              =   -6848.98523244 Ry
     Harris-Foulkes estimate   =   -6848.98521276 Ry
     estimated scf accuracy    <       0.00000710 Ry

     iteration # 17     ecut=    60.00 Ry     beta= 0.20
     Davidson diagonalization with overlap
     ethr =  8.39E-10,  avg # of iterations =  2.0

     negative rho (up, down):  3.134E-01 0.000E+00

     total cpu time spent up to now is     6492.2 secs

     total energy              =   -6848.98524511 Ry
     Harris-Foulkes estimate   =   -6848.98523299 Ry
     estimated scf accuracy    <       0.00000400 Ry

     iteration # 18     ecut=    60.00 Ry     beta= 0.20
     Davidson diagonalization with overlap
     ethr =  4.72E-10,  avg # of iterations =  2.0

     negative rho (up, down):  3.133E-01 0.000E+00

     total cpu time spent up to now is     6771.9 secs

     End of self-consistent calculation

     Number of k-points >= 100: set verbosity='high' to print the bands.

     the Fermi energy is     9.6807 ev

!    total energy              =   -6848.98526831 Ry
     Harris-Foulkes estimate   =   -6848.98524555 Ry
     estimated scf accuracy    <       0.00000046 Ry

     The total energy is the sum of the following terms:

     one-electron contribution =   -2079.32822979 Ry
     hartree contribution      =    1806.37121572 Ry
     xc contribution           =   -2361.12205070 Ry
     ewald contribution        =   -4214.88661774 Ry
     smearing contrib. (-TS)   =      -0.01958579 Ry

     convergence has been achieved in  18 iterations

     negative rho (up, down):  3.133E-01 0.000E+00

     Forces acting on atoms (cartesian axes, Ry/au):

     atom    1 type  3   force =     0.00024122   -0.00030718   -0.00004851
     atom    2 type  3   force =     0.00030718   -0.00024122   -0.00004851
     atom    3 type  4   force =     0.00077883   -0.00077883   -0.00002894
     atom    4 type  4   force =     0.00005518   -0.00045811   -0.00002992
     atom    5 type  4   force =     0.00005119   -0.00150961    0.01159296
     atom    6 type  4   force =     0.00150961   -0.00005119    0.01159296
     atom    7 type  1   force =    -0.00143548    0.00143548    0.00042766
     atom    8 type  1   force =     0.00000000    0.00000000    0.01104718
     atom    9 type  3   force =    -0.00000385    0.01493633   -0.00188178
     atom   10 type  3   force =    -0.01493633    0.00000385   -0.00188178
     atom   11 type  4   force =     0.01527359   -0.01527359   -0.01530757
     atom   12 type  4   force =     0.00083186   -0.00136794   -0.00279225
     atom   13 type  4   force =     0.01527108    0.01527108   -0.01923268
     atom   14 type  4   force =     0.00083854    0.00134755   -0.00655704
     atom   15 type  5   force =    -0.00911102    0.00911102    0.00002692
     atom   16 type  2   force =     0.00000000    0.00000000   -0.00001009
     atom   17 type  4   force =     0.01535953   -0.01535953    0.01639621
     atom   18 type  4   force =     0.00082404   -0.00137488    0.00384808
     atom   19 type  4   force =     0.01518448    0.01518448    0.01826923
     atom   20 type  4   force =     0.00084723    0.00134019    0.00561724
     atom   21 type  3   force =     0.00013022    0.01494102    0.00185298
     atom   22 type  3   force =    -0.01494102   -0.00013022    0.00185298
     atom   23 type  1   force =    -0.00143317    0.00143317   -0.00042392
     atom   24 type  1   force =     0.00000000    0.00000000   -0.01103393
     atom   25 type  4   force =     0.00005251   -0.00150736   -0.01160662
     atom   26 type  4   force =     0.00150736   -0.00005251   -0.01160662
     atom   27 type  3   force =    -0.00024122    0.00030718   -0.00004851
     atom   28 type  3   force =     0.00024390    0.00012836   -0.00004765
     atom   29 type  4   force =    -0.00045811    0.00005518   -0.00002992
     atom   30 type  4   force =     0.00042080   -0.00042080   -0.00003286
     atom   31 type  4   force =    -0.00005119    0.00150961    0.01159296
     atom   32 type  4   force =     0.00004060    0.00000021    0.01298774
     atom   33 type  1   force =    -0.00135688   -0.00135688    0.00056045
     atom   34 type  1   force =     0.00000000    0.00000000   -0.00116788
     atom   35 type  3   force =     0.00000385   -0.01493633   -0.00188178
     atom   36 type  3   force =    -0.00011434   -0.00002498   -0.00405355
     atom   37 type  4   force =    -0.00136794    0.00083186   -0.00279225
     atom   38 type  4   force =     0.00104122   -0.00104122   -0.00358839
     atom   39 type  4   force =    -0.00134755   -0.00083854   -0.00655704
     atom   40 type  4   force =     0.00104625    0.00104625   -0.00730562
     atom   41 type  5   force =    -0.00927077   -0.00927077   -0.00006089
     atom   42 type  5   force =     0.00000000    0.00000000   -0.00001686
     atom   43 type  4   force =    -0.00137488    0.00082404    0.00384808
     atom   44 type  4   force =     0.00104790   -0.00104790    0.00462478
     atom   45 type  4   force =    -0.00134019   -0.00084723    0.00561724
     atom   46 type  4   force =     0.00103970    0.00103970    0.00638461
     atom   47 type  3   force =    -0.00013022   -0.01494102    0.00185298
     atom   48 type  3   force =    -0.00011729   -0.00004665    0.00403002
     atom   49 type  1   force =    -0.00135837   -0.00135837   -0.00053564
     atom   50 type  1   force =     0.00000000    0.00000000    0.00118232
     atom   51 type  4   force =    -0.00005251    0.00150736   -0.01160662
     atom   52 type  4   force =     0.00003980    0.00000564   -0.01299769
     atom   53 type  3   force =    -0.00012836   -0.00024390   -0.00004765
     atom   54 type  3   force =    -0.00030718    0.00024122   -0.00004851
     atom   55 type  4   force =    -0.00005518    0.00045811   -0.00002992
     atom   56 type  4   force =    -0.00077883    0.00077883   -0.00002894
     atom   57 type  4   force =    -0.00000021   -0.00004060    0.01298774
     atom   58 type  4   force =    -0.00150961    0.00005119    0.01159296
     atom   59 type  1   force =     0.00135688    0.00135688    0.00056045
     atom   60 type  1   force =     0.00000000    0.00000000   -0.00116788
     atom   61 type  3   force =     0.00002498    0.00011434   -0.00405355
     atom   62 type  3   force =     0.01493633   -0.00000385   -0.00188178
     atom   63 type  4   force =    -0.00083186    0.00136794   -0.00279225
     atom   64 type  4   force =    -0.01527359    0.01527359   -0.01530757
     atom   65 type  4   force =    -0.00083854   -0.00134755   -0.00655704
     atom   66 type  4   force =    -0.01527108   -0.01527108   -0.01923268
     atom   67 type  5   force =     0.00927077    0.00927077   -0.00006089
     atom   68 type  5   force =     0.00000000    0.00000000   -0.00001686
     atom   69 type  4   force =    -0.00082404    0.00137488    0.00384808
     atom   70 type  4   force =    -0.01535953    0.01535953    0.01639621
     atom   71 type  4   force =    -0.00084723   -0.00134019    0.00561724
     atom   72 type  4   force =    -0.01518448   -0.01518448    0.01826923
     atom   73 type  3   force =     0.00004665    0.00011729    0.00403002
     atom   74 type  3   force =     0.01494102    0.00013022    0.00185298
     atom   75 type  1   force =     0.00135837    0.00135837   -0.00053564
     atom   76 type  1   force =     0.00000000    0.00000000    0.00118232
     atom   77 type  4   force =    -0.00000564   -0.00003980   -0.01299769
     atom   78 type  4   force =    -0.00150736    0.00005251   -0.01160662
     atom   79 type  3   force =     0.00012836    0.00024390   -0.00004765
     atom   80 type  3   force =    -0.00024390   -0.00012836   -0.00004765
     atom   81 type  4   force =    -0.00042080    0.00042080   -0.00003286
     atom   82 type  4   force =     0.00045811   -0.00005518   -0.00002992
     atom   83 type  4   force =     0.00000021    0.00004060    0.01298774
     atom   84 type  4   force =    -0.00004060   -0.00000021    0.01298774
     atom   85 type  1   force =     0.00143548   -0.00143548    0.00042766
     atom   86 type  1   force =     0.00000000    0.00000000   -0.00121094
     atom   87 type  3   force =    -0.00002498   -0.00011434   -0.00405355
     atom   88 type  3   force =     0.00011434    0.00002498   -0.00405355
     atom   89 type  4   force =    -0.00104122    0.00104122   -0.00358839
     atom   90 type  4   force =     0.00136794   -0.00083186   -0.00279225
     atom   91 type  4   force =    -0.00104625   -0.00104625   -0.00730562
     atom   92 type  4   force =     0.00134755    0.00083854   -0.00655704
     atom   93 type  5   force =     0.00911102   -0.00911102    0.00002692
     atom   94 type  5   force =     0.00000000    0.00000000   -0.00001609
     atom   95 type  4   force =    -0.00104790    0.00104790    0.00462478
     atom   96 type  4   force =     0.00137488   -0.00082404    0.00384808
     atom   97 type  4   force =    -0.00103970   -0.00103970    0.00638461
     atom   98 type  4   force =     0.00134019    0.00084723    0.00561724
     atom   99 type  3   force =    -0.00004665   -0.00011729    0.00403002
     atom  100 type  3   force =     0.00011729    0.00004665    0.00403002
     atom  101 type  1   force =     0.00143317   -0.00143317   -0.00042392
     atom  102 type  1   force =     0.00000000    0.00000000    0.00122585
     atom  103 type  4   force =     0.00000564    0.00003980   -0.01299769
     atom  104 type  4   force =    -0.00003980   -0.00000564   -0.01299769

     Total force =     0.110474     Total SCF correction =     0.002397


     Computing stress (Cartesian axis) and pressure


     negative rho (up, down):  3.133E-01 0.000E+00
          total   stress  (Ry/bohr**3)                   (kbar)     P=        2.10
  -0.00002474   0.00011817   0.00000000           -3.64       17.38        0.00
   0.00011817  -0.00002474   0.00000000           17.38       -3.64        0.00
   0.00000000   0.00000000   0.00009225            0.00        0.00       13.57


     BFGS Geometry Optimization

     number of scf cycles    =   1
     number of bfgs steps    =   0

     enthalpy new            =   -6848.9852683060 Ry

     new trust radius        =       0.0584365317 bohr
     new conv_thr            =       0.0000010000 Ry

     new unit-cell volume =   9381.52115 a.u.^3 (  1390.19799 Ang^3 )
     density =      6.30760 g/cm^3

CELL_PARAMETERS (angstrom)
  10.897292208   0.032212174   0.000000000
   0.032212174  10.897292208   0.000000000
   0.000000000   0.000000000  11.706936338

ATOMIC_POSITIONS (angstrom)
Cu            0.0001270892       -0.0001620746       -0.0000257276
Cu            2.7325391850        2.7322500212       -0.0000257276
O             1.3665942080        1.3657728790       -0.0000153515
O             4.0985891199        4.0983184663       -0.0000158670
O             0.0000247108       -0.0007982747        1.8696565997
O             2.7331753851        2.7323523996        1.8696565997
Ba            2.7235671521        0.0088099583        2.1146117905
Ba            0.0080530464        2.7243240640        2.1202443611
Cu            0.0000213122        0.0078990689        4.1352990618
Cu            2.7244780415        2.7323557981        4.1352990618
O             1.3742371054        1.3581299816        4.4212022724
O             4.0989984422        4.0978385179        4.4278403646
O             1.3823365698        4.0986075873        4.4308273381
O             4.0909531760        1.3749505543        4.4375504679
Y             2.7195199455        0.0128571649        5.8534824472
Ca            0.0080530464        2.7243240640        5.8534628161
O             1.3742824193        1.3580846677        7.2746045435
O             4.0989943000        4.0978348361        7.2679490457
O             1.3822906407        4.0985616582        7.2873049263
O             4.0909577627        1.3749466742        7.2805943430
Cu            0.0000922233        0.0079017620        7.5716220025
Cu            2.7244753484        2.7322848871        7.5716220025
Ba            2.7235683743        0.0088087361        9.5923265324
Ba            0.0080530464        2.7243240640        9.5866990098
O             0.0000254152       -0.0007970844        9.8372724942
O             2.7331741948        2.7323516952        9.8372724942
Cu            0.0159790036        5.4488102025       -0.0000257276
Cu            2.7486123885        8.1810935013       -0.0000252711
O             1.3820474488        6.8148601374       -0.0000158670
O             4.1148886272        9.5469869014       -0.0000174289
O             0.0160813820        5.4494464026        1.8696565997
O             2.7485046756        8.1810254123        1.8703963874
Ba            2.7397104476        5.4559814652        2.1146822239
Ba            0.0241591393        8.1729721919        2.1137655223
Cu            0.0160847806        5.4407490590        4.1352990618
Cu            2.7484226939        8.1810118477        4.1341471573
O             1.3815675004        6.8152694597        4.4278403646
O             4.1152157697        9.5466597588        4.4274180956
O             1.3896287184        9.5387101668        4.4375504679
O             4.1071686461        6.8234396636        4.4371534227
Y             2.7355128185        5.4517838360        5.8534358742
Y             0.0241591393        8.1729721919        5.8534592248
O             1.3815638185        6.8152653175        7.2679490457
O             4.1152192928        9.5466562358        7.2683610062
O             1.3896325985        9.5387055802        7.2805943430
O             4.1071651687        6.8234361863        7.2810013507
Cu            0.0160138695        5.4407463660        7.5716220025
Cu            2.7484210990        8.1810003858        7.5727767004
Ba            2.7397096614        5.4559806789        9.5922672768
Ba            0.0241591393        8.1729721919        9.5931784771
O             0.0160806777        5.4494452123        9.8372724942
O             2.7485042600        8.1810282857        9.8365346736
Cu            5.4485798649        0.0159769076       -0.0000252711
Cu            8.1808631637        2.7486102925       -0.0000257276
O             6.8148032055        1.3825318239       -0.0000158670
O             9.5467981173        4.1150774113       -0.0000153515
O             5.4486479539        0.0160846205        1.8703963874
O             8.1802269636        2.7485079141        1.8696565997
Ba            8.1736919011        0.0248788485        2.1146822239
Ba            5.4567011743        2.7404301568        2.1137655223
Cu            5.4486615185        0.0161666021        4.1341471573
Cu            8.1889243072        2.7485045155        4.1352990618
O             6.8143938832        1.3830117723        4.4278403646
O             9.5391552199        4.1227203086        4.4212022724
O             6.8224391493        4.1058997360        4.4375504679
O             9.5310557555        1.3822427029        4.4308273381
Y             8.1778895302        0.0290764776        5.8534358742
Y             5.4567011743        2.7404301568        5.8534592248
O             6.8143980254        1.3830154542        7.2679490457
O             9.5391099060        4.1227656225        7.2746045435
O             6.8224345627        4.1059036161        7.2805943430
O             9.5311016846        1.3822886320        7.2873049263
Cu            5.4486729804        0.0161681971        7.5727767004
Cu            8.1889270003        2.7485754266        7.5716220025
Ba            8.1736926873        0.0248796347        9.5922672768
Ba            5.4567011743        2.7404301568        9.5931784771
O             5.4486450805        0.0160850361        9.8365346736
O             8.1802281539        2.7485086184        9.8372724942
Cu            5.4648224838        5.4648834060       -0.0000252711
Cu            8.1970021459        8.1970630681       -0.0000252711
O             6.8307158839        6.8311596447       -0.0000174289
O             9.5635570623        9.5632864087       -0.0000158670
O             5.4647543948        5.4647756931        1.8703963874
O             8.1971098588        8.1971311571        1.8703963874
Ba            8.1898351966        5.4720503554        2.1146117905
Ba            5.4728072672        8.1890782847        2.1137426834
Cu            5.4647408302        5.4646937115        4.1341471573
Cu            8.1971918405        8.1971447217        4.1341471573
O             6.8303887413        6.8314867873        4.4274180956
O             9.5640370107        9.5628770864        4.4278403646
O             6.8384358650        9.5547068825        4.4371534227
O             9.5559757926        6.8394363793        4.4375504679
Y             8.1938824032        5.4680031488        5.8534824472
Y             5.4728072672        8.1890782847        5.8534596353
O             6.8303852183        6.8314903103        7.2683610062
O             9.5640406925        9.5628812286        7.2679490457
O             6.8384393423        9.5547103599        7.2810013507
O             9.5559719125        6.8394409659        7.2805943430
Cu            5.4647293683        5.4646921166        7.5727767004
Cu            8.1971934354        8.1971561837        7.5727767004
Ba            8.1898339744        5.4720515776        9.5923265324
Ba            5.4728072672        8.1890782847        9.5932015669
O             5.4647572682        5.4647752775        9.8365346736
O             8.1971102744        8.1971282837        9.8365346736


     NEW-OLD atomic charge density approx. for the potential

     negative rho (up, down):  3.136E-01 0.000E+00
     extrapolated charge  847.89463, renormalised to  847.00000

     total cpu time spent up to now is     7481.8 secs

     Self-consistent Calculation

     iteration #  1     ecut=    60.00 Ry     beta= 0.20
     Davidson diagonalization with overlap
     c_bands:  1 eigenvalues not converged
     c_bands:  1 eigenvalues not converged
     c_bands:  1 eigenvalues not converged
     c_bands:  1 eigenvalues not converged
     c_bands:  1 eigenvalues not converged
     ethr =  1.00E-06,  avg # of iterations =  6.5

     negative rho (up, down):  3.132E-01 0.000E+00

     total cpu time spent up to now is     8219.2 secs

     total energy              =   -6848.98941352 Ry
     Harris-Foulkes estimate   =   -6846.70448540 Ry
     estimated scf accuracy    <       0.06752275 Ry

     iteration #  2     ecut=    60.00 Ry     beta= 0.20
     Davidson diagonalization with overlap
     ethr =  7.97E-06,  avg # of iterations =  2.7

     negative rho (up, down):  3.132E-01 0.000E+00

     total cpu time spent up to now is     8523.8 secs

     total energy              =   -6849.00156831 Ry
     Harris-Foulkes estimate   =   -6849.00146072 Ry
     estimated scf accuracy    <       0.00889844 Ry

     iteration #  3     ecut=    60.00 Ry     beta= 0.20
     Davidson diagonalization with overlap
     c_bands:  1 eigenvalues not converged
     c_bands:  1 eigenvalues not converged
     c_bands:  2 eigenvalues not converged
     c_bands:  1 eigenvalues not converged
     c_bands:  1 eigenvalues not converged
     c_bands:  1 eigenvalues not converged
     c_bands:  2 eigenvalues not converged
     ethr =  1.05E-06,  avg # of iterations =  8.1

     negative rho (up, down):  3.132E-01 0.000E+00

     total cpu time spent up to now is     8970.8 secs

     total energy              =   -6849.00179213 Ry
     Harris-Foulkes estimate   =   -6849.00195017 Ry
     estimated scf accuracy    <       0.00333877 Ry

     iteration #  4     ecut=    60.00 Ry     beta= 0.20
     Davidson diagonalization with overlap
     c_bands:  1 eigenvalues not converged
     c_bands:  1 eigenvalues not converged
     c_bands:  1 eigenvalues not converged
     ethr =  3.94E-07,  avg # of iterations =  2.9

     negative rho (up, down):  3.132E-01 0.000E+00

     total cpu time spent up to now is     9260.5 secs

     total energy              =   -6849.00232050 Ry
     Harris-Foulkes estimate   =   -6849.00211696 Ry
     estimated scf accuracy    <       0.00117051 Ry

     iteration #  5     ecut=    60.00 Ry     beta= 0.20
     Davidson diagonalization with overlap
     ethr =  1.38E-07,  avg # of iterations =  2.2

     negative rho (up, down):  3.132E-01 0.000E+00

     total cpu time spent up to now is     9533.7 secs

     total energy              =   -6849.00249803 Ry
     Harris-Foulkes estimate   =   -6849.00237332 Ry
     estimated scf accuracy    <       0.00066756 Ry

     iteration #  6     ecut=    60.00 Ry     beta= 0.20
     Davidson diagonalization with overlap
     ethr =  7.88E-08,  avg # of iterations =  2.1

     negative rho (up, down):  3.132E-01 0.000E+00

     total cpu time spent up to now is     9801.6 secs

     total energy              =   -6849.00260743 Ry
     Harris-Foulkes estimate   =   -6849.00252831 Ry
     estimated scf accuracy    <       0.00045306 Ry

     iteration #  7     ecut=    60.00 Ry     beta= 0.20
     Davidson diagonalization with overlap
     ethr =  5.35E-08,  avg # of iterations =  2.1

     negative rho (up, down):  3.132E-01 0.000E+00

     total cpu time spent up to now is    10069.8 secs

     total energy              =   -6849.00271720 Ry
     Harris-Foulkes estimate   =   -6849.00262859 Ry
     estimated scf accuracy    <       0.00015915 Ry

     iteration #  8     ecut=    60.00 Ry     beta= 0.20
     Davidson diagonalization with overlap
     ethr =  1.88E-08,  avg # of iterations =  1.5

     negative rho (up, down):  3.133E-01 0.000E+00

     total cpu time spent up to now is    10322.0 secs

     total energy              =   -6849.00276957 Ry
     Harris-Foulkes estimate   =   -6849.00272076 Ry
     estimated scf accuracy    <       0.00009890 Ry

     iteration #  9     ecut=    60.00 Ry     beta= 0.20
     Davidson diagonalization with overlap
     ethr =  1.17E-08,  avg # of iterations =  2.1

     negative rho (up, down):  3.133E-01 0.000E+00

     total cpu time spent up to now is    10607.4 secs

     total energy              =   -6849.00281923 Ry
     Harris-Foulkes estimate   =   -6849.00278186 Ry
     estimated scf accuracy    <       0.00001244 Ry

     iteration # 10     ecut=    60.00 Ry     beta= 0.20
     Davidson diagonalization with overlap
     ethr =  1.47E-09,  avg # of iterations =  2.0

     negative rho (up, down):  3.133E-01 0.000E+00

     total cpu time spent up to now is    10885.6 secs

     total energy              =   -6849.00284247 Ry
     Harris-Foulkes estimate   =   -6849.00281995 Ry
     estimated scf accuracy    <       0.00000847 Ry

     iteration # 11     ecut=    60.00 Ry     beta= 0.20
     Davidson diagonalization with overlap
     ethr =  1.00E-09,  avg # of iterations =  3.0

     negative rho (up, down):  3.133E-01 0.000E+00

     total cpu time spent up to now is    11206.5 secs

     total energy              =   -6849.00285887 Ry
     Harris-Foulkes estimate   =   -6849.00284332 Ry
     estimated scf accuracy    <       0.00000232 Ry

     iteration # 12     ecut=    60.00 Ry     beta= 0.20
     Davidson diagonalization with overlap
     ethr =  2.74E-10,  avg # of iterations =  1.7

     negative rho (up, down):  3.133E-01 0.000E+00

     total cpu time spent up to now is    11465.9 secs

     End of self-consistent calculation

     Number of k-points >= 100: set verbosity='high' to print the bands.

     the Fermi energy is     9.6534 ev

!    total energy              =   -6849.00288647 Ry
     Harris-Foulkes estimate   =   -6849.00285901 Ry
     estimated scf accuracy    <       0.00000082 Ry

     The total energy is the sum of the following terms:

     one-electron contribution =   -2078.11701855 Ry
     hartree contribution      =    1805.20893720 Ry
     xc contribution           =   -2361.04008362 Ry
     ewald contribution        =   -4215.03520583 Ry
     smearing contrib. (-TS)   =      -0.01951568 Ry

     convergence has been achieved in  12 iterations

     negative rho (up, down):  3.133E-01 0.000E+00

     Forces acting on atoms (cartesian axes, Ry/au):

     atom    1 type  3   force =     0.00034193    0.00027095   -0.00002192
     atom    2 type  3   force =    -0.00027095   -0.00034193   -0.00002192
     atom    3 type  4   force =     0.00057644   -0.00057644   -0.00002886
     atom    4 type  4   force =     0.00012093   -0.00035998   -0.00002892
     atom    5 type  4   force =     0.00003146   -0.00098988    0.00622700
     atom    6 type  4   force =     0.00098988   -0.00003146    0.00622700
     atom    7 type  1   force =    -0.00104179    0.00104179    0.00026326
     atom    8 type  1   force =     0.00000000    0.00000000    0.00738942
     atom    9 type  3   force =     0.00023711    0.00721260   -0.00284134
     atom   10 type  3   force =    -0.00721260   -0.00023711   -0.00284134
     atom   11 type  4   force =     0.01156501   -0.01156501   -0.01294039
     atom   12 type  4   force =     0.00012959   -0.00159702   -0.00238239
     atom   13 type  4   force =     0.01154070    0.01154070   -0.01421411
     atom   14 type  4   force =     0.00004920    0.00170860   -0.00364982
     atom   15 type  5   force =    -0.00616313    0.00616313   -0.00003723
     atom   16 type  2   force =     0.00000000    0.00000000   -0.00004358
     atom   17 type  4   force =     0.01156296   -0.01156296    0.01396616
     atom   18 type  4   force =     0.00011540   -0.00158949    0.00338541
     atom   19 type  4   force =     0.01154163    0.01154163    0.01333263
     atom   20 type  4   force =     0.00006345    0.00171801    0.00277926
     atom   21 type  3   force =     0.00037363    0.00721657    0.00283154
     atom   22 type  3   force =    -0.00721657   -0.00037363    0.00283154
     atom   23 type  1   force =    -0.00104130    0.00104130   -0.00027262
     atom   24 type  1   force =     0.00000000    0.00000000   -0.00738725
     atom   25 type  4   force =     0.00003684   -0.00098765   -0.00625631
     atom   26 type  4   force =     0.00098765   -0.00003684   -0.00625631
     atom   27 type  3   force =    -0.00034193   -0.00027095   -0.00002192
     atom   28 type  3   force =    -0.00002135    0.00010497   -0.00002147
     atom   29 type  4   force =    -0.00035998    0.00012093   -0.00002892
     atom   30 type  4   force =     0.00044423   -0.00044423   -0.00003274
     atom   31 type  4   force =    -0.00003146    0.00098988    0.00622700
     atom   32 type  4   force =     0.00000856   -0.00002647    0.00718878
     atom   33 type  1   force =    -0.00094827   -0.00094827    0.00033268
     atom   34 type  1   force =     0.00000000    0.00000000   -0.00066172
     atom   35 type  3   force =    -0.00023711   -0.00721260   -0.00284134
     atom   36 type  3   force =    -0.00014968    0.00003596   -0.00380706
     atom   37 type  4   force =    -0.00159702    0.00012959   -0.00238239
     atom   38 type  4   force =     0.00065945   -0.00065945   -0.00280626
     atom   39 type  4   force =    -0.00170860   -0.00004920   -0.00364982
     atom   40 type  4   force =     0.00057846    0.00057846   -0.00401218
     atom   41 type  5   force =    -0.00607933   -0.00607933   -0.00006418
     atom   42 type  5   force =     0.00000000    0.00000000   -0.00005017
     atom   43 type  4   force =    -0.00158949    0.00011540    0.00338541
     atom   44 type  4   force =     0.00064802   -0.00064802    0.00377568
     atom   45 type  4   force =    -0.00171801   -0.00006345    0.00277926
     atom   46 type  4   force =     0.00059023    0.00059023    0.00317692
     atom   47 type  3   force =    -0.00037363   -0.00721657    0.00283154
     atom   48 type  3   force =    -0.00015037    0.00001558    0.00380137
     atom   49 type  1   force =    -0.00094717   -0.00094717   -0.00032065
     atom   50 type  1   force =     0.00000000    0.00000000    0.00066306
     atom   51 type  4   force =    -0.00003684    0.00098765   -0.00625631
     atom   52 type  4   force =     0.00000733   -0.00001851   -0.00721650
     atom   53 type  3   force =    -0.00010497    0.00002135   -0.00002147
     atom   54 type  3   force =     0.00027095    0.00034193   -0.00002192
     atom   55 type  4   force =    -0.00012093    0.00035998   -0.00002892
     atom   56 type  4   force =    -0.00057644    0.00057644   -0.00002886
     atom   57 type  4   force =     0.00002647   -0.00000856    0.00718878
     atom   58 type  4   force =    -0.00098988    0.00003146    0.00622700
     atom   59 type  1   force =     0.00094827    0.00094827    0.00033268
     atom   60 type  1   force =     0.00000000    0.00000000   -0.00066172
     atom   61 type  3   force =    -0.00003596    0.00014968   -0.00380706
     atom   62 type  3   force =     0.00721260    0.00023711   -0.00284134
     atom   63 type  4   force =    -0.00012959    0.00159702   -0.00238239
     atom   64 type  4   force =    -0.01156501    0.01156501   -0.01294039
     atom   65 type  4   force =    -0.00004920   -0.00170860   -0.00364982
     atom   66 type  4   force =    -0.01154070   -0.01154070   -0.01421411
     atom   67 type  5   force =     0.00607933    0.00607933   -0.00006418
     atom   68 type  5   force =     0.00000000    0.00000000   -0.00005017
     atom   69 type  4   force =    -0.00011540    0.00158949    0.00338541
     atom   70 type  4   force =    -0.01156296    0.01156296    0.01396616
     atom   71 type  4   force =    -0.00006345   -0.00171801    0.00277926
     atom   72 type  4   force =    -0.01154163   -0.01154163    0.01333263
     atom   73 type  3   force =    -0.00001558    0.00015037    0.00380137
     atom   74 type  3   force =     0.00721657    0.00037363    0.00283154
     atom   75 type  1   force =     0.00094717    0.00094717   -0.00032065
     atom   76 type  1   force =     0.00000000    0.00000000    0.00066306
     atom   77 type  4   force =     0.00001851   -0.00000733   -0.00721650
     atom   78 type  4   force =    -0.00098765    0.00003684   -0.00625631
     atom   79 type  3   force =     0.00010497   -0.00002135   -0.00002147
     atom   80 type  3   force =     0.00002135   -0.00010497   -0.00002147
     atom   81 type  4   force =    -0.00044423    0.00044423   -0.00003274
     atom   82 type  4   force =     0.00035998   -0.00012093   -0.00002892
     atom   83 type  4   force =    -0.00002647    0.00000856    0.00718878
     atom   84 type  4   force =    -0.00000856    0.00002647    0.00718878
     atom   85 type  1   force =     0.00104179   -0.00104179    0.00026326
     atom   86 type  1   force =     0.00000000    0.00000000   -0.00108283
     atom   87 type  3   force =     0.00003596   -0.00014968   -0.00380706
     atom   88 type  3   force =     0.00014968   -0.00003596   -0.00380706
     atom   89 type  4   force =    -0.00065945    0.00065945   -0.00280626
     atom   90 type  4   force =     0.00159702   -0.00012959   -0.00238239
     atom   91 type  4   force =    -0.00057846   -0.00057846   -0.00401218
     atom   92 type  4   force =     0.00170860    0.00004920   -0.00364982
     atom   93 type  5   force =     0.00616313   -0.00616313   -0.00003723
     atom   94 type  5   force =     0.00000000    0.00000000   -0.00004936
     atom   95 type  4   force =    -0.00064802    0.00064802    0.00377568
     atom   96 type  4   force =     0.00158949   -0.00011540    0.00338541
     atom   97 type  4   force =    -0.00059023   -0.00059023    0.00317692
     atom   98 type  4   force =     0.00171801    0.00006345    0.00277926
     atom   99 type  3   force =     0.00001558   -0.00015037    0.00380137
     atom  100 type  3   force =     0.00015037   -0.00001558    0.00380137
     atom  101 type  1   force =     0.00104130   -0.00104130   -0.00027262
     atom  102 type  1   force =     0.00000000    0.00000000    0.00108454
     atom  103 type  4   force =    -0.00001851    0.00000733   -0.00721650
     atom  104 type  4   force =    -0.00000733    0.00001851   -0.00721650

     Total force =     0.075397     Total SCF correction =     0.002420


     Computing stress (Cartesian axis) and pressure


     negative rho (up, down):  3.133E-01 0.000E+00
          total   stress  (Ry/bohr**3)                   (kbar)     P=        0.57
  -0.00001733   0.00008728   0.00000000           -2.55       12.84        0.00
   0.00008728  -0.00001733   0.00000000           12.84       -2.55        0.00
   0.00000000   0.00000000   0.00004632            0.00        0.00        6.81


     number of scf cycles    =   2
     number of bfgs steps    =   1

     enthalpy old            =   -6848.9852683060 Ry
     enthalpy new            =   -6849.0028864730 Ry

     CASE: enthalpy_new < enthalpy_old

     new trust radius        =       0.0644310869 bohr
     new conv_thr            =       0.0000010000 Ry

     new unit-cell volume =   9385.44694 a.u.^3 (  1390.77973 Ang^3 )
     density =      6.30496 g/cm^3

CELL_PARAMETERS (angstrom)
  10.890128758   0.067699365   0.000000000
   0.067699365  10.890128758   0.000000000
   0.000000000   0.000000000  11.727598978

ATOMIC_POSITIONS (angstrom)
Cu            0.0003894773        0.0000308032       -0.0000437941
Cu            2.7394272452        2.7390685710       -0.0000437941
O             1.3705820654        1.3688659336       -0.0000379002
O             4.1092985249        4.1086589631       -0.0000384983
O             0.0000400759       -0.0015813733        1.8779998616
O             2.7410394216        2.7394179724        1.8779998616
Ba            2.7209668223        0.0184912261        2.1185551378
Ba            0.0169248476        2.7225332007        2.1298783546
Cu            0.0002744554        0.0137419135        4.1404135623
Cu            2.7257161348        2.7391835930        4.1404135623
O             1.3867424617        1.3527055373        4.4188265438
O             4.1097303423        4.1072345610        4.4337823321
O             1.4039115516        4.1095199047        4.4273836604
O             4.0927817068        1.3886744769        4.4424348314
Y             2.7129206305        0.0265374178        5.8637869443
Ca            0.0169248476        2.7225332007        5.8637612669
O             1.3867890120        1.3526589870        7.2984258701
O             4.1097154746        4.1072361032        7.2834345488
O             1.4038632198        4.1094715729        7.3107403413
O             4.0927971803        1.3886774244        7.2957106947
Cu            0.0004509445        0.0137488888        7.5871618189
Cu            2.7257091596        2.7390071038        7.5871618189
Ba            2.7209684789        0.0184895694        9.6090389734
Ba            0.0169248476        2.7225332007        9.5977297397
O             0.0000448294       -0.0015784222        9.8495695226
O             2.7410364706        2.7394132189        9.8495695226
Cu            0.0334602179        5.4450355983       -0.0000437941
Cu            2.7734303341        8.1846750424       -0.0000429668
O             1.4030506100        6.8149068780       -0.0000384983
O             4.1435926970        9.5536874954       -0.0000430108
O             0.0338096193        5.4466477747        1.8779998616
O             2.7733367455        8.1845051843        1.8795063334
Ba            2.7549066591        5.4605150122        2.1186820414
Ba            0.0507745428        8.1675996022        2.1169625620
Cu            0.0335752399        5.4313244879        4.1404135623
Cu            2.7731328180        8.1845355817        4.1384646406
O             1.4016262079        6.8153386954        4.4337823321
O             4.1440973798        9.5531828125        4.4330157752
O             1.4184729126        9.5367990951        4.4424348314
O             4.1271311439        6.8327394971        4.4417410669
Y             2.7465950670        5.4522034201        5.8637171705
Y             0.0507745428        8.1675996022        5.8637525258
O             1.4016277501        6.8153238277        7.2834345488
O             4.1440927388        9.5531874535        7.2841650443
O             1.4184699651        9.5367836216        7.2957106947
O             4.1271362214        6.8327445745        7.2964414188
Cu            0.0333987507        5.4313175127        7.5871618189
Cu            2.7731304368        8.1845083009        7.5891167805
Ba            2.7549066417        5.4605149948        9.6089399465
Ba            0.0507745428        8.1675996022        9.6106455871
O             0.0338048658        5.4466448237        9.8495695226
O             2.7733354534        8.1845141221        9.8480663369
Cu            5.4449158089        0.0337271047       -0.0000429668
Cu            8.1845552530        2.7736972209       -0.0000437941
O             6.8146739239        1.4040967795       -0.0000384983
O             9.5533903834        4.1438898090       -0.0000379002
O             5.4450856669        0.0338206933        1.8795063334
O             8.1829430765        2.7733478195        1.8779998616
Ba            8.1690758391        0.0522507797        2.1186820414
Ba            5.4619912491        2.7563828960        2.1169625620
Cu            5.4450552696        0.0340246208        4.1384646406
Cu            8.1982663633        2.7735821989        4.1404135623
O             6.8142421065        1.4055211815        4.4337823321
O             9.5372299871        4.1600502052        4.4188265438
O             6.8311907420        4.1240812657        4.4424348314
O             9.5200608972        1.4032358379        4.4273836604
Y             8.1773874311        0.0605623718        5.8637171705
Y             5.4619912491        2.7563828960        5.8637525258
O             6.8142569742        1.4055196393        7.2834345488
O             9.5371834368        4.1600967556        7.2984258701
O             6.8311752685        4.1240783182        7.2957106947
O             9.5201092290        1.4032841697        7.3107403413
Cu            5.4450825504        0.0340270020        7.5891167805
Cu            8.1982733386        2.7737586881        7.5871618189
Ba            8.1690758564        0.0522507971        9.6089399465
Ba            5.4619912491        2.7563828960        9.6106455871
O             5.4450767292        0.0338219854        9.8480663369
O             8.1829460276        2.7733525730        9.8495695226
Cu            5.4790666892        5.4790386872       -0.0000429668
Cu            8.2182515545        8.2182235525       -0.0000429668
O             6.8480791423        6.8492010501       -0.0000430108
O             9.5886212293        9.5879816674       -0.0000384983
O             5.4788968312        5.4789450986        1.8795063334
O             8.2183451431        8.2183934105        1.8795063334
Ba            8.2030156758        5.4942745658        2.1185551378
Ba            5.4958409443        8.2014492974        2.1166240512
Cu            5.4789272286        5.4787411711        4.1384646406
Cu            8.2185490706        8.2183630131        4.1384646406
O             6.8475744594        6.8497057329        4.4330157752
O             9.5900456313        9.5875498501        4.4337823321
O             6.8645406953        9.5701490484        4.4417410669
O             9.5731989266        6.8660894504        4.4424348314
Y             8.2110618676        5.4862283741        5.8637869443
Y             5.4958409443        8.2014492974        5.8637535667
O             6.8475791004        6.8497010920        7.2841650443
O             9.5900440891        9.5875647178        7.2834345488
O             6.8645356178        9.5701439709        7.2964414188
O             9.5732018742        6.8661049239        7.2957106947
Cu            5.4788999478        5.4787387899        7.5891167805
Cu            8.2185514518        8.2183902939        7.5891167805
Ba            8.2030140192        5.4942762225        9.6090389734
Ba            5.4958409443        8.2014492974        9.6109846398
O             5.4789057689        5.4789438065        9.8480663369
O             8.2183464352        8.2183844728        9.8480663369


     NEW-OLD atomic charge density approx. for the potential

     negative rho (up, down):  3.134E-01 0.000E+00
     extrapolated charge  847.35405, renormalised to  847.00000

     total cpu time spent up to now is    12178.2 secs

     Self-consistent Calculation

     iteration #  1     ecut=    60.00 Ry     beta= 0.20
     Davidson diagonalization with overlap
     c_bands:  2 eigenvalues not converged
     c_bands:  1 eigenvalues not converged
     c_bands:  1 eigenvalues not converged
     ethr =  1.00E-06,  avg # of iterations =  5.6

     negative rho (up, down):  3.132E-01 0.000E+00

     total cpu time spent up to now is    12895.6 secs

     total energy              =   -6849.01048782 Ry
     Harris-Foulkes estimate   =   -6848.10363746 Ry
     estimated scf accuracy    <       0.02004327 Ry

     iteration #  2     ecut=    60.00 Ry     beta= 0.20
     Davidson diagonalization with overlap
     c_bands:  1 eigenvalues not converged
     c_bands:  1 eigenvalues not converged
     c_bands:  1 eigenvalues not converged
     c_bands:  1 eigenvalues not converged
     c_bands:  1 eigenvalues not converged
     c_bands:  1 eigenvalues not converged
     c_bands:  1 eigenvalues not converged
     ethr =  2.37E-06,  avg # of iterations =  5.0

     negative rho (up, down):  3.132E-01 0.000E+00

     total cpu time spent up to now is    13239.2 secs

     total energy              =   -6849.01338876 Ry
     Harris-Foulkes estimate   =   -6849.01263947 Ry
     estimated scf accuracy    <       0.00266807 Ry

     iteration #  3     ecut=    60.00 Ry     beta= 0.20
     Davidson diagonalization with overlap
     c_bands:  1 eigenvalues not converged
     ethr =  3.15E-07,  avg # of iterations =  2.0

     negative rho (up, down):  3.132E-01 0.000E+00

     total cpu time spent up to now is    13504.1 secs

     total energy              =   -6849.01353926 Ry
     Harris-Foulkes estimate   =   -6849.01347993 Ry
     estimated scf accuracy    <       0.00179326 Ry

     iteration #  4     ecut=    60.00 Ry     beta= 0.20
     Davidson diagonalization with overlap
     ethr =  2.12E-07,  avg # of iterations =  4.5

     negative rho (up, down):  3.132E-01 0.000E+00

     total cpu time spent up to now is    13885.3 secs

     total energy              =   -6849.01411553 Ry
     Harris-Foulkes estimate   =   -6849.01380879 Ry
     estimated scf accuracy    <       0.00141579 Ry

     iteration #  5     ecut=    60.00 Ry     beta= 0.20
     Davidson diagonalization with overlap
     c_bands:  2 eigenvalues not converged
     ethr =  1.67E-07,  avg # of iterations =  2.5

     negative rho (up, down):  3.132E-01 0.000E+00

     total cpu time spent up to now is    14163.8 secs

     total energy              =   -6849.01421443 Ry
     Harris-Foulkes estimate   =   -6849.01413231 Ry
     estimated scf accuracy    <       0.00076467 Ry

     iteration #  6     ecut=    60.00 Ry     beta= 0.20
     Davidson diagonalization with overlap
     c_bands:  1 eigenvalues not converged
     ethr =  9.03E-08,  avg # of iterations =  2.6

     negative rho (up, down):  3.132E-01 0.000E+00

     total cpu time spent up to now is    14448.6 secs

     total energy              =   -6849.01443515 Ry
     Harris-Foulkes estimate   =   -6849.01426951 Ry
     estimated scf accuracy    <       0.00010980 Ry

     iteration #  7     ecut=    60.00 Ry     beta= 0.20
     Davidson diagonalization with overlap
     ethr =  1.30E-08,  avg # of iterations =  1.4

     negative rho (up, down):  3.132E-01 0.000E+00

     total cpu time spent up to now is    14697.0 secs

     total energy              =   -6849.01453658 Ry
     Harris-Foulkes estimate   =   -6849.01444036 Ry
     estimated scf accuracy    <       0.00011307 Ry

     iteration #  8     ecut=    60.00 Ry     beta= 0.20
     Davidson diagonalization with overlap
     ethr =  1.30E-08,  avg # of iterations =  2.6

     negative rho (up, down):  3.132E-01 0.000E+00

     total cpu time spent up to now is    14987.5 secs

     total energy              =   -6849.01461322 Ry
     Harris-Foulkes estimate   =   -6849.01454690 Ry
     estimated scf accuracy    <       0.00001260 Ry

     iteration #  9     ecut=    60.00 Ry     beta= 0.20
     Davidson diagonalization with overlap
     ethr =  1.49E-09,  avg # of iterations =  2.1

     negative rho (up, down):  3.132E-01 0.000E+00

     total cpu time spent up to now is    15269.9 secs

     total energy              =   -6849.01465489 Ry
     Harris-Foulkes estimate   =   -6849.01461418 Ry
     estimated scf accuracy    <       0.00000594 Ry

     iteration # 10     ecut=    60.00 Ry     beta= 0.20
     Davidson diagonalization with overlap
     ethr =  7.02E-10,  avg # of iterations =  2.1

     negative rho (up, down):  3.132E-01 0.000E+00

     total cpu time spent up to now is    15555.7 secs

     total energy              =   -6849.01468234 Ry
     Harris-Foulkes estimate   =   -6849.01465553 Ry
     estimated scf accuracy    <       0.00000133 Ry

     iteration # 11     ecut=    60.00 Ry     beta= 0.20
     Davidson diagonalization with overlap
     ethr =  1.57E-10,  avg # of iterations =  2.7

     negative rho (up, down):  3.132E-01 0.000E+00

     total cpu time spent up to now is    15843.4 secs

     End of self-consistent calculation

     Number of k-points >= 100: set verbosity='high' to print the bands.

     the Fermi energy is     9.6371 ev

!    total energy              =   -6849.01472970 Ry
     Harris-Foulkes estimate   =   -6849.01468242 Ry
     estimated scf accuracy    <       0.00000093 Ry

     The total energy is the sum of the following terms:

     one-electron contribution =   -2074.14851547 Ry
     hartree contribution      =    1802.91311855 Ry
     xc contribution           =   -2360.98673833 Ry
     ewald contribution        =   -4216.77316540 Ry
     smearing contrib. (-TS)   =      -0.01942905 Ry

     convergence has been achieved in  11 iterations

     negative rho (up, down):  3.132E-01 0.000E+00

     Forces acting on atoms (cartesian axes, Ry/au):

     atom    1 type  3   force =     0.00018857    0.00031581   -0.00000998
     atom    2 type  3   force =    -0.00031581   -0.00018857   -0.00000998
     atom    3 type  4   force =     0.00039085   -0.00039085   -0.00002762
     atom    4 type  4   force =     0.00015832   -0.00030833   -0.00002684
     atom    5 type  4   force =     0.00004020   -0.00050419    0.00209907
     atom    6 type  4   force =     0.00050419   -0.00004020    0.00209907
     atom    7 type  1   force =    -0.00071100    0.00071100   -0.00001051
     atom    8 type  1   force =     0.00000000    0.00000000    0.00426209
     atom    9 type  3   force =     0.00053422    0.00174140   -0.00348380
     atom   10 type  3   force =    -0.00174140   -0.00053422   -0.00348380
     atom   11 type  4   force =     0.00758711   -0.00758711   -0.01056024
     atom   12 type  4   force =    -0.00004418   -0.00142914   -0.00209479
     atom   13 type  4   force =     0.00772917    0.00772917   -0.00935889
     atom   14 type  4   force =    -0.00027649    0.00170347   -0.00097181
     atom   15 type  5   force =    -0.00314528    0.00314528   -0.00008043
     atom   16 type  2   force =     0.00000000    0.00000000   -0.00005597
     atom   17 type  4   force =     0.00751282   -0.00751282    0.01150852
     atom   18 type  4   force =    -0.00006673   -0.00141842    0.00301925
     atom   19 type  4   force =     0.00780317    0.00780317    0.00855619
     atom   20 type  4   force =    -0.00025119    0.00171696    0.00016884
     atom   21 type  3   force =     0.00061901    0.00175778    0.00349467
     atom   22 type  3   force =    -0.00175778   -0.00061901    0.00349467
     atom   23 type  1   force =    -0.00071058    0.00071058   -0.00001455
     atom   24 type  1   force =     0.00000000    0.00000000   -0.00427426
     atom   25 type  4   force =     0.00005097   -0.00050243   -0.00212669
     atom   26 type  4   force =     0.00050243   -0.00005097   -0.00212669
     atom   27 type  3   force =    -0.00018857   -0.00031581   -0.00000998
     atom   28 type  3   force =    -0.00003597    0.00007571   -0.00000792
     atom   29 type  4   force =    -0.00030833    0.00015832   -0.00002684
     atom   30 type  4   force =     0.00048817   -0.00048817   -0.00003147
     atom   31 type  4   force =    -0.00004020    0.00050419    0.00209907
     atom   32 type  4   force =    -0.00003472   -0.00004418    0.00273674
     atom   33 type  1   force =    -0.00062916   -0.00062916    0.00004871
     atom   34 type  1   force =     0.00000000    0.00000000   -0.00046455
     atom   35 type  3   force =    -0.00053422   -0.00174140   -0.00348380
     atom   36 type  3   force =    -0.00015323    0.00006847   -0.00407043
     atom   37 type  4   force =    -0.00142914   -0.00004418   -0.00209479
     atom   38 type  4   force =     0.00026359   -0.00026359   -0.00224194
     atom   39 type  4   force =    -0.00170347    0.00027649   -0.00097181
     atom   40 type  4   force =     0.00016409    0.00016409   -0.00107671
     atom   41 type  5   force =    -0.00312306   -0.00312306   -0.00004395
     atom   42 type  5   force =     0.00000000    0.00000000   -0.00006017
     atom   43 type  4   force =    -0.00141842   -0.00006673    0.00301925
     atom   44 type  4   force =     0.00023829   -0.00023829    0.00312400
     atom   45 type  4   force =    -0.00171696    0.00025119    0.00016884
     atom   46 type  4   force =     0.00018945    0.00018945    0.00032108
     atom   47 type  3   force =    -0.00061901   -0.00175778    0.00349467
     atom   48 type  3   force =    -0.00015369    0.00005419    0.00408411
     atom   49 type  1   force =    -0.00062737   -0.00062737   -0.00005581
     atom   50 type  1   force =     0.00000000    0.00000000    0.00044826
     atom   51 type  4   force =    -0.00005097    0.00050243   -0.00212669
     atom   52 type  4   force =    -0.00003656   -0.00003324   -0.00276436
     atom   53 type  3   force =    -0.00007571    0.00003597   -0.00000792
     atom   54 type  3   force =     0.00031581    0.00018857   -0.00000998
     atom   55 type  4   force =    -0.00015832    0.00030833   -0.00002684
     atom   56 type  4   force =    -0.00039085    0.00039085   -0.00002762
     atom   57 type  4   force =     0.00004418    0.00003472    0.00273674
     atom   58 type  4   force =    -0.00050419    0.00004020    0.00209907
     atom   59 type  1   force =     0.00062916    0.00062916    0.00004871
     atom   60 type  1   force =     0.00000000    0.00000000   -0.00046455
     atom   61 type  3   force =    -0.00006847    0.00015323   -0.00407043
     atom   62 type  3   force =     0.00174140    0.00053422   -0.00348380
     atom   63 type  4   force =     0.00004418    0.00142914   -0.00209479
     atom   64 type  4   force =    -0.00758711    0.00758711   -0.01056024
     atom   65 type  4   force =     0.00027649   -0.00170347   -0.00097181
     atom   66 type  4   force =    -0.00772917   -0.00772917   -0.00935889
     atom   67 type  5   force =     0.00312306    0.00312306   -0.00004395
     atom   68 type  5   force =     0.00000000    0.00000000   -0.00006017
     atom   69 type  4   force =     0.00006673    0.00141842    0.00301925
     atom   70 type  4   force =    -0.00751282    0.00751282    0.01150852
     atom   71 type  4   force =     0.00025119   -0.00171696    0.00016884
     atom   72 type  4   force =    -0.00780317   -0.00780317    0.00855619
     atom   73 type  3   force =    -0.00005419    0.00015369    0.00408411
     atom   74 type  3   force =     0.00175778    0.00061901    0.00349467
     atom   75 type  1   force =     0.00062737    0.00062737   -0.00005581
     atom   76 type  1   force =     0.00000000    0.00000000    0.00044826
     atom   77 type  4   force =     0.00003324    0.00003656   -0.00276436
     atom   78 type  4   force =    -0.00050243    0.00005097   -0.00212669
     atom   79 type  3   force =     0.00007571   -0.00003597   -0.00000792
     atom   80 type  3   force =     0.00003597   -0.00007571   -0.00000792
     atom   81 type  4   force =    -0.00048817    0.00048817   -0.00003147
     atom   82 type  4   force =     0.00030833   -0.00015832   -0.00002684
     atom   83 type  4   force =    -0.00004418   -0.00003472    0.00273674
     atom   84 type  4   force =     0.00003472    0.00004418    0.00273674
     atom   85 type  1   force =     0.00071100   -0.00071100   -0.00001051
     atom   86 type  1   force =     0.00000000    0.00000000   -0.00104106
     atom   87 type  3   force =     0.00006847   -0.00015323   -0.00407043
     atom   88 type  3   force =     0.00015323   -0.00006847   -0.00407043
     atom   89 type  4   force =    -0.00026359    0.00026359   -0.00224194
     atom   90 type  4   force =     0.00142914    0.00004418   -0.00209479
     atom   91 type  4   force =    -0.00016409   -0.00016409   -0.00107671
     atom   92 type  4   force =     0.00170347   -0.00027649   -0.00097181
     atom   93 type  5   force =     0.00314528   -0.00314528   -0.00008043
     atom   94 type  5   force =     0.00000000    0.00000000   -0.00006042
     atom   95 type  4   force =    -0.00023829    0.00023829    0.00312400
     atom   96 type  4   force =     0.00141842    0.00006673    0.00301925
     atom   97 type  4   force =    -0.00018945   -0.00018945    0.00032108
     atom   98 type  4   force =     0.00171696   -0.00025119    0.00016884
     atom   99 type  3   force =     0.00005419   -0.00015369    0.00408411
     atom  100 type  3   force =     0.00015369   -0.00005419    0.00408411
     atom  101 type  1   force =     0.00071058   -0.00071058   -0.00001455
     atom  102 type  1   force =     0.00000000    0.00000000    0.00102559
     atom  103 type  4   force =    -0.00003324   -0.00003656   -0.00276436
     atom  104 type  4   force =     0.00003656    0.00003324   -0.00276436

     Total force =     0.048610     Total SCF correction =     0.003128


     Computing stress (Cartesian axis) and pressure


     negative rho (up, down):  3.132E-01 0.000E+00
          total   stress  (Ry/bohr**3)                   (kbar)     P=       -1.65
  -0.00001682   0.00005504   0.00000000           -2.47        8.10        0.00
   0.00005504  -0.00001682   0.00000000            8.10       -2.47        0.00
   0.00000000   0.00000000  -0.00000006            0.00        0.00       -0.01


     BFGS Geometry Optimization

     number of scf cycles    =   1
     number of bfgs steps    =   0

     enthalpy new            =   -6849.0147296987 Ry

     new trust radius        =       0.0278770053 bohr
     new conv_thr            =       0.0000010000 Ry

     new unit-cell volume =   9377.52214 a.u.^3 (  1389.60539 Ang^3 )
     density =      6.31028 g/cm^3

CELL_PARAMETERS (angstrom)
  10.885641815   0.082654822   0.000000000
   0.082654822  10.885641815   0.000000000
   0.000000000   0.000000000  11.727581255

ATOMIC_POSITIONS (angstrom)
Cu            0.0004893288        0.0001985142       -0.0000490755
Cu            2.7418766636        2.7415858490       -0.0000490755
O             1.3720955406        1.3699695783       -0.0000525144
O             4.1133069649        4.1124220539       -0.0000527010
O             0.0000587806       -0.0018473166        1.8791078027
O             2.7439224944        2.7420163972        1.8791078027
Ba            2.7194723307        0.0226028472        2.1185463743
Ba            0.0206637132        2.7214114646        2.1321305311
Cu            0.0005770944        0.0146580235        4.1385637602
Cu            2.7274171543        2.7414980834        4.1385637602
O             1.3920281611        1.3500369578        4.4132316375
O             4.1136287143        4.1104058392        4.4326671175
O             1.4130694797        4.1138172311        4.4224244679
O             4.0928260843        1.3946226293        4.4419138563
Y             2.7101547416        0.0319204363        5.8637355187
Ca            0.0206637132        2.7214114646        5.8637227870
O             1.3920353864        1.3500297325        7.3045048798
O             4.1136019314        4.1104130170        7.2850212571
O             1.4130602980        4.1138080494        7.3152570270
O             4.0928549484        1.3946327499        7.2957890139
Cu            0.0007983782        0.0146739645        7.5889996481
Cu            2.7274012133        2.7412767996        7.5889996481
Ba            2.7194742071        0.0226009707        9.6090167498
Ba            0.0206637132        2.7214114646        9.5954533987
O             0.0000692339       -0.0018434237        9.8484292409
O             2.7439186015        2.7420059439        9.8484292409
Cu            0.0408380976        5.4426244150       -0.0000490755
[...]

     total cpu time spent up to now is   101289.3 secs

     total energy              =   -6849.00055391 Ry
     Harris-Foulkes estimate   =   -6849.00051552 Ry
     estimated scf accuracy    <       0.00000838 Ry

     iteration # 17     ecut=    60.00 Ry     beta= 0.20
     Davidson diagonalization with overlap
     ethr =  9.90E-10,  avg # of iterations =  3.0

     negative rho (up, down):  3.133E-01 0.000E+00

     total cpu time spent up to now is   101647.5 secs

     total energy              =   -6849.00058108 Ry
     Harris-Foulkes estimate   =   -6849.00055626 Ry
     estimated scf accuracy    <       0.00001163 Ry

     iteration # 18     ecut=    60.00 Ry     beta= 0.20
     Davidson diagonalization with overlap
     ethr =  9.90E-10,  avg # of iterations =  1.1

     negative rho (up, down):  3.133E-01 0.000E+00

     total cpu time spent up to now is   101884.6 secs

     total energy              =   -6849.00059855 Ry
     Harris-Foulkes estimate   =   -6849.00058183 Ry
     estimated scf accuracy    <       0.00000077 Ry

     iteration # 19     ecut=    60.00 Ry     beta= 0.20
     Davidson diagonalization with overlap
     ethr =  9.09E-11,  avg # of iterations =  2.8

     negative rho (up, down):  3.133E-01 0.000E+00

     total cpu time spent up to now is   102247.0 secs

     total energy              =   -6849.00060935 Ry
     Harris-Foulkes estimate   =   -6849.00059880 Ry
     estimated scf accuracy    <       0.00000122 Ry

     iteration # 20     ecut=    60.00 Ry     beta= 0.20
     Davidson diagonalization with overlap
     ethr =  9.09E-11,  avg # of iterations =  2.0

     negative rho (up, down):  3.133E-01 0.000E+00

     total cpu time spent up to now is   102534.3 secs

     total energy              =   -6849.00061641 Ry
     Harris-Foulkes estimate   =   -6849.00060949 Ry
     estimated scf accuracy    <       0.00000009 Ry

     iteration # 21     ecut=    60.00 Ry     beta= 0.20
     Davidson diagonalization with overlap
     ethr =  1.04E-11,  avg # of iterations =  3.0

     negative rho (up, down):  3.133E-01 0.000E+00

     total cpu time spent up to now is   102889.9 secs

     End of self-consistent calculation

     Number of k-points >= 100: set verbosity='high' to print the bands.

     the Fermi energy is     9.2753 ev

!    total energy              =   -6849.00062875 Ry
     Harris-Foulkes estimate   =   -6849.00061643 Ry
     estimated scf accuracy    <       0.00000004 Ry

     The total energy is the sum of the following terms:

     one-electron contribution =   -2084.11820988 Ry
     hartree contribution      =    1797.52057283 Ry
     xc contribution           =   -2359.62242103 Ry
     ewald contribution        =   -4202.75989725 Ry
     smearing contrib. (-TS)   =      -0.02067343 Ry

     convergence has been achieved in  21 iterations

     negative rho (up, down):  3.133E-01 0.000E+00

     Forces acting on atoms (cartesian axes, Ry/au):

     atom    1 type  3   force =    -0.00000270   -0.00010141   -0.00000128
     atom    2 type  3   force =     0.00010141    0.00000270   -0.00000128
     atom    3 type  4   force =     0.00043912   -0.00043912    0.00001199
     atom    4 type  4   force =     0.00015118   -0.00015962    0.00000539
     atom    5 type  4   force =     0.00004790    0.00014004   -0.00076967
     atom    6 type  4   force =    -0.00014004   -0.00004790   -0.00076967
     atom    7 type  1   force =    -0.00004058    0.00004058   -0.00071738
     atom    8 type  1   force =     0.00000000    0.00000000   -0.00092718
     atom    9 type  3   force =    -0.00008568   -0.00064268    0.00175165
     atom   10 type  3   force =     0.00064268    0.00008568    0.00175165
     atom   11 type  4   force =    -0.00040661    0.00040661    0.00153333
     atom   12 type  4   force =     0.00000207   -0.00000795    0.00148294
     atom   13 type  4   force =    -0.00042938   -0.00042938    0.00053776
     atom   14 type  4   force =    -0.00003019    0.00002643    0.00034236
     atom   15 type  5   force =     0.00035308   -0.00035308    0.00000524
     atom   16 type  2   force =     0.00000000    0.00000000    0.00001489
     atom   17 type  4   force =    -0.00037741    0.00037741   -0.00146390
     atom   18 type  4   force =     0.00001468   -0.00001970   -0.00140390
     atom   19 type  4   force =    -0.00046869   -0.00046869   -0.00064129
     atom   20 type  4   force =    -0.00004235    0.00001118   -0.00044660
     atom   21 type  3   force =    -0.00008301   -0.00064723   -0.00175183
     atom   22 type  3   force =     0.00064723    0.00008301   -0.00175183
     atom   23 type  1   force =    -0.00004092    0.00004092    0.00074415
     atom   24 type  1   force =     0.00000000    0.00000000    0.00093560
     atom   25 type  4   force =     0.00004261    0.00014162    0.00077098
     atom   26 type  4   force =    -0.00014162   -0.00004261    0.00077098
     atom   27 type  3   force =     0.00000270    0.00010141   -0.00000128
     atom   28 type  3   force =    -0.00001719   -0.00005331   -0.00000186
     atom   29 type  4   force =    -0.00015962    0.00015118    0.00000539
     atom   30 type  4   force =     0.00067283   -0.00067283    0.00001116
     atom   31 type  4   force =    -0.00004790   -0.00014004   -0.00076967
     atom   32 type  4   force =    -0.00009167   -0.00000551   -0.00090508
     atom   33 type  1   force =     0.00004663    0.00004663   -0.00063705
     atom   34 type  1   force =     0.00000000    0.00000000   -0.00100721
     atom   35 type  3   force =     0.00008568    0.00064268    0.00175165
     atom   36 type  3   force =     0.00001265    0.00006178    0.00197983
     atom   37 type  4   force =    -0.00000795    0.00000207    0.00148294
     atom   38 type  4   force =    -0.00003724    0.00003724    0.00156682
     atom   39 type  4   force =    -0.00002643    0.00003019    0.00034236
     atom   40 type  4   force =    -0.00005225   -0.00005225    0.00039491
     atom   41 type  5   force =     0.00028278    0.00028278    0.00000191
     atom   42 type  5   force =     0.00000000    0.00000000    0.00000129
     atom   43 type  4   force =    -0.00001970    0.00001468   -0.00140390
     atom   44 type  4   force =    -0.00002916    0.00002916   -0.00147055
     atom   45 type  4   force =    -0.00001118    0.00004235   -0.00044660
     atom   46 type  4   force =    -0.00006160   -0.00006160   -0.00051383
     atom   47 type  3   force =     0.00008301    0.00064723   -0.00175183
     atom   48 type  3   force =     0.00001426    0.00006935   -0.00198467
     atom   49 type  1   force =     0.00004712    0.00004712    0.00064393
     atom   50 type  1   force =     0.00000000    0.00000000    0.00102539
     atom   51 type  4   force =    -0.00004261   -0.00014162    0.00077098
     atom   52 type  4   force =    -0.00009041   -0.00000933    0.00090772
     atom   53 type  3   force =     0.00005331    0.00001719   -0.00000186
     atom   54 type  3   force =    -0.00010141   -0.00000270   -0.00000128
     atom   55 type  4   force =    -0.00015118    0.00015962    0.00000539
     atom   56 type  4   force =    -0.00043912    0.00043912    0.00001199
     atom   57 type  4   force =     0.00000551    0.00009167   -0.00090508
     atom   58 type  4   force =     0.00014004    0.00004790   -0.00076967
     atom   59 type  1   force =    -0.00004663   -0.00004663   -0.00063705
     atom   60 type  1   force =     0.00000000    0.00000000   -0.00100721
     atom   61 type  3   force =    -0.00006178   -0.00001265    0.00197983
     atom   62 type  3   force =    -0.00064268   -0.00008568    0.00175165
     atom   63 type  4   force =    -0.00000207    0.00000795    0.00148294
     atom   64 type  4   force =     0.00040661   -0.00040661    0.00153333
     atom   65 type  4   force =     0.00003019   -0.00002643    0.00034236
     atom   66 type  4   force =     0.00042938    0.00042938    0.00053776
     atom   67 type  5   force =    -0.00028278   -0.00028278    0.00000191
     atom   68 type  5   force =     0.00000000    0.00000000    0.00000129
     atom   69 type  4   force =    -0.00001468    0.00001970   -0.00140390
     atom   70 type  4   force =     0.00037741   -0.00037741   -0.00146390
     atom   71 type  4   force =     0.00004235   -0.00001118   -0.00044660
     atom   72 type  4   force =     0.00046869    0.00046869   -0.00064129
     atom   73 type  3   force =    -0.00006935   -0.00001426   -0.00198467
     atom   74 type  3   force =    -0.00064723   -0.00008301   -0.00175183
     atom   75 type  1   force =    -0.00004712   -0.00004712    0.00064393
     atom   76 type  1   force =     0.00000000    0.00000000    0.00102539
     atom   77 type  4   force =     0.00000933    0.00009041    0.00090772
     atom   78 type  4   force =     0.00014162    0.00004261    0.00077098
     atom   79 type  3   force =    -0.00005331   -0.00001719   -0.00000186
     atom   80 type  3   force =     0.00001719    0.00005331   -0.00000186
     atom   81 type  4   force =    -0.00067283    0.00067283    0.00001116
     atom   82 type  4   force =     0.00015962   -0.00015118    0.00000539
     atom   83 type  4   force =    -0.00000551   -0.00009167   -0.00090508
     atom   84 type  4   force =     0.00009167    0.00000551   -0.00090508
     atom   85 type  1   force =     0.00004058   -0.00004058   -0.00071738
     atom   86 type  1   force =     0.00000000    0.00000000   -0.00113918
     atom   87 type  3   force =     0.00006178    0.00001265    0.00197983
     atom   88 type  3   force =    -0.00001265   -0.00006178    0.00197983
     atom   89 type  4   force =     0.00003724   -0.00003724    0.00156682
     atom   90 type  4   force =     0.00000795   -0.00000207    0.00148294
     atom   91 type  4   force =     0.00005225    0.00005225    0.00039491
     atom   92 type  4   force =     0.00002643   -0.00003019    0.00034236
     atom   93 type  5   force =    -0.00035308    0.00035308    0.00000524
     atom   94 type  5   force =     0.00000000    0.00000000    0.00000516
     atom   95 type  4   force =     0.00002916   -0.00002916   -0.00147055
     atom   96 type  4   force =     0.00001970   -0.00001468   -0.00140390
     atom   97 type  4   force =     0.00006160    0.00006160   -0.00051383
     atom   98 type  4   force =     0.00001118   -0.00004235   -0.00044660
     atom   99 type  3   force =     0.00006935    0.00001426   -0.00198467
     atom  100 type  3   force =    -0.00001426   -0.00006935   -0.00198467
     atom  101 type  1   force =     0.00004092   -0.00004092    0.00074415
     atom  102 type  1   force =     0.00000000    0.00000000    0.00115352
     atom  103 type  4   force =    -0.00000933   -0.00009041    0.00090772
     atom  104 type  4   force =     0.00009041    0.00000933    0.00090772

     Total force =     0.011324     Total SCF correction =     0.001075


     Computing stress (Cartesian axis) and pressure


     negative rho (up, down):  3.133E-01 0.000E+00
          total   stress  (Ry/bohr**3)                   (kbar)     P=      -30.93
  -0.00021757   0.00000217   0.00000000          -32.01        0.32        0.00
   0.00000217  -0.00021757   0.00000000            0.32      -32.01        0.00
   0.00000000   0.00000000  -0.00019554            0.00        0.00      -28.76


     number of scf cycles    =   2
     number of bfgs steps    =   1

     enthalpy old            =   -6848.8899104089 Ry
     enthalpy new            =   -6849.0006287508 Ry

     CASE: enthalpy_new < enthalpy_old

     new trust radius        =       0.1957080031 bohr
     new conv_thr            =       0.0000001985 Ry

     new unit-cell volume =   9341.31554 a.u.^3 (  1384.24013 Ang^3 )
     density =      6.33474 g/cm^3

CELL_PARAMETERS (angstrom)
  10.861314494   0.149922202   0.000000000
   0.149922202  10.861314494   0.000000000
   0.000000000   0.000000000  11.736251628

ATOMIC_POSITIONS (angstrom)
Cu            0.0014565003        0.0004481218       -0.0001160645
Cu            2.7523620745        2.7513536960       -0.0001160645
O             1.3834172389        1.3693828591       -0.0001263839
O             4.1332888475        4.1246487460       -0.0001986052
O             0.0014526203       -0.0056318062        1.8683356308
O             2.7584420025        2.7513575759        1.8683356308
Ba            2.7075385964        0.0452715999        2.1103137093
Ba            0.0374805643        2.7153296319        2.1475425453
Cu            0.0020917798        0.0048498695        4.1112244964
Cu            2.7479603268        2.7507184164        4.1112244964
O             1.4184220254        1.3343780725        4.3621409000
O             4.1357775969        4.1236441220        4.4248770768
O             1.4602439459        4.1380930135        4.3923461309
O             4.0951416622        1.4191352573        4.4587106872
Y             2.7001236715        0.0526865248        5.8681102917
Ca            0.0374805643        2.7153296319        5.8680390264
O             1.4179820853        1.3348180126        7.3730187821
O             4.1358855195        4.1237107586        7.3103926954
O             1.4607967365        4.1386458042        7.3456132330
O             4.0950604035        1.4192166950        7.2789460856
Cu            0.0020113385        0.0048641046        7.6252516310
Cu            2.7479460917        2.7507988578        7.6252516310
Ba            2.7075040705        0.0453061258        9.6255832495
Ba            0.0374805643        2.7153296319        9.5884910319
O             0.0015695657       -0.0056431674        9.8677263675
O             2.7584533637        2.7512406306        9.8677263675
Cu            0.0735046284        5.4302111421       -0.0001160645
Cu            2.8283865420        8.1828221978       -0.0001224134
O             1.4467996784        6.8111379151       -0.0001986052
O             4.2172412701        9.5467996130       -0.0001925893
O             0.0735085083        5.4362910701        1.8683356308
O             2.8265549163        8.1828481258        1.8732836263
Ba            2.7833022095        5.4611512771        2.1148683736
Ba            0.1124416930        8.1459888958        2.1047728308
Cu            0.0728693488        5.4258093944        4.1112244964
Cu            2.8279519907        8.1844500789        4.1102542444
O             1.4457950543        6.8136266645        4.4248770768
O             4.2048564188        9.5591844642        4.4243462618
O             1.4835870980        9.5189769636        4.4587106872
O             4.1666193942        6.8444684619        4.4560329180
Y             2.7753000211        5.4531490887        5.8681960722
Y             0.1124416930        8.1459888958        5.8681395847
O             1.4458616910        6.8137345871        7.3103926954
O             4.2047418861        9.5592989969        7.3107430381
O             1.4835056603        9.5190582223        7.2789460856
O             4.1667364257        6.8445854933        7.2819855860
Cu            0.0729497902        5.4257951593        7.6252516310
Cu            2.8279330400        8.1845273463        7.6262538462
Ba            2.7833455414        5.4611946090        9.6211938029
Ba            0.1124416930        8.1459888958        9.6311911940
O             0.0733915630        5.4363024313        9.8677263675
O             2.8265106167        8.1829600759        9.8627616472
Cu            5.4313065263        0.0743459116       -0.0001224134
Cu            8.1839175819        2.8292278252       -0.0001160645
O             6.8029807106        1.4559226769       -0.0001986052
O             9.5528523193        4.2111885638       -0.0001263839
O             5.4312805983        0.0761775373        1.8732836263
O             8.1778376540        2.8292239453        1.8683356308
Ba            8.1529774469        0.1194302441        2.1148683736
Ba            5.4681398282        2.7902907606        2.1047728308
Cu            5.4296786452        0.0747804629        4.1102542444
Cu            8.1883193297        2.8298631048        4.1112244964
O             6.8004919613        1.4569273009        4.4248770768
O             9.5178475327        4.2461933504        4.3621409000
O             6.8411278960        4.1614361656        4.4587106872
O             9.4760256122        1.4424784094        4.3923461309
Y             8.1609796353        0.1274324325        5.8681960722
Y             5.4681398282        2.7902907606        5.8681395847
O             6.8003840387        1.4568606643        7.3103926954
O             9.5182874728        4.2457534103        7.3730187821
O             6.8412091547        4.1613547279        7.2789460856
O             9.4754728216        1.4419256188        7.3456132330
Cu            5.4296013777        0.0747994137        7.6262538462
Cu            8.1883335647        2.8297826634        7.6252516310
Ba            8.1529341151        0.1193869122        9.6211938029
Ba            5.4681398282        2.7902907606        9.6311911940
O             5.4311686482        0.0762218369        9.8627616472
O             8.1778262928        2.8293408907        9.8677263675
Cu            5.5049731302        5.5062356096       -0.0001224134
Cu            8.2578153718        8.2590778512       -0.0001224134
O             6.8689505454        6.8950903377       -0.0001925893
O             9.6393921370        9.6307520356       -0.0001986052
O             5.5049990582        5.5044039840        1.8732836263
O             8.2596469974        8.2590519232        1.8732836263
Ba            8.2287410600        5.5353099214        2.1103137093
Ba            5.5431009569        8.2209500245        2.0999361876
Cu            5.5066010113        5.5058010583        4.1102542444
Cu            8.2582499231        8.2574499701        4.1102542444
O             6.8813353966        6.8827054864        4.4243462618
O             9.6403967611        9.6282632862        4.4248770768
O             6.9195724212        9.5974214888        4.4560329180
O             9.6026047175        6.9229129871        4.4587106872
Y             8.2361559849        5.5278949965        5.8681102917
Y             5.5431009569        8.2209500245        5.8681652895
O             6.8814499293        6.8825909537        7.3107430381
O             9.6403301245        9.6281553636        7.3103926954
O             6.9194553898        9.5973044574        7.2819855860
O             9.6026861551        6.9228317284        7.2789460856
Cu            5.5066782787        5.5057821076        7.6262538462
Cu            8.2582688738        8.2573727027        7.6262538462
Ba            8.2287755859        5.5352753954        9.6255832495
Ba            5.5431009569        8.2209500245        9.6360197916
O             5.5051110082        5.5043596844        9.8627616472
O             8.2596912970        8.2589399731        9.8627616472


     NEW-OLD atomic charge density approx. for the potential

     negative rho (up, down):  3.043E-01 0.000E+00
     extrapolated charge  822.06527, renormalised to  847.00000

     total cpu time spent up to now is   103584.3 secs

     Self-consistent Calculation

     iteration #  1     ecut=    60.00 Ry     beta= 0.20
     Davidson diagonalization with overlap
     c_bands:  1 eigenvalues not converged
     c_bands:  1 eigenvalues not converged
     c_bands:  1 eigenvalues not converged
     c_bands:  1 eigenvalues not converged
     c_bands:  1 eigenvalues not converged
     c_bands:  1 eigenvalues not converged
     ethr =  1.00E-06,  avg # of iterations = 17.5

     negative rho (up, down):  3.159E-01 0.000E+00

     total cpu time spent up to now is   105091.0 secs

     total energy              =   -6840.43205957 Ry
     Harris-Foulkes estimate   =   -6917.15855534 Ry
     estimated scf accuracy    <      56.35659047 Ry

     iteration #  2     ecut=    60.00 Ry     beta= 0.20
     Davidson diagonalization with overlap
