
     Program PWSCF v.6.5 starts on  4May2021 at 10:31:22 

     This program is part of the open-source Quantum ESPRESSO suite
     for quantum simulation of materials; please cite
         "P. Giannozzi et al., J. Phys.:Condens. Matter 21 395502 (2009);
         "P. Giannozzi et al., J. Phys.:Condens. Matter 29 465901 (2017);
          URL http://www.quantum-espresso.org", 
     in publications or presentations arising from this work. More details at
     http://www.quantum-espresso.org/quote

     Parallel version (MPI), running on    80 processors

     MPI processes distributed on     5 nodes
     R & G space division:  proc/nbgrp/npool/nimage =      80
     Reading input from dYBCO_rt2_111_0vac_NOcleave_0sep_444_r6.pwi
Warning: card &CELL ignored
Warning: card     CELL_DYNAMICS = 'BFGS' ignored
Warning: card     PRESS_CONV_THR = 2 ignored
Warning: card / ignored

     Current dimensions of program PWSCF are:
     Max number of different atomic species (ntypx) = 10
     Max number of k-points (npk) =  40000
     Max angular momentum in pseudopotentials (lmaxx) =  3

     Subspace diagonalization in iterative solution of the eigenvalue problem:
     one sub-group per band group will be used
     scalapack distributed-memory algorithm (size of sub-group:  8*  8 procs)

     Message from routine setup:
     using ibrav=0 with symmetry is DISCOURAGED, use correct ibrav instead
 
     Parallelization info
     --------------------
     sticks:   dense  smooth     PW     G-vecs:    dense   smooth      PW
     Min         202     101     27                20800     7353    1013
     Max         203     102     28                20807     7358    1018
     Sum       16221    8109   2177              1664213   588385   81161
 


     bravais-lattice index     =            0
     lattice parameter (alat)  =      20.6056  a.u.
     unit-cell volume          =    9371.6055 (a.u.)^3
     number of atoms/cell      =          104
     number of atomic types    =            5
     number of electrons       =       847.00
     number of Kohn-Sham states=          509
     kinetic-energy cutoff     =      60.0000  Ry
     charge density cutoff     =     480.0000  Ry
     convergence threshold     =      1.0E-06
     mixing beta               =       0.2000
     number of iterations used =           10  local-TF  mixing
     Exchange-correlation= SLA PW PBE PBE
                           (   1   4   3   4   0   0   0)
     nstep                     =          300


     celldm(1)=  20.605642  celldm(2)=   0.000000  celldm(3)=   0.000000
     celldm(4)=   0.000000  celldm(5)=   0.000000  celldm(6)=   0.000000

     crystal axes: (cart. coord. in units of alat)
               a(1) = (   1.000000   0.000000   0.000000 )  
               a(2) = (   0.000000   1.000000   0.000000 )  
               a(3) = (   0.000000   0.000000   1.071163 )  

     reciprocal axes: (cart. coord. in units 2 pi/alat)
               b(1) = (  1.000000  0.000000  0.000000 )  
               b(2) = (  0.000000  1.000000  0.000000 )  
               b(3) = (  0.000000  0.000000  0.933565 )  


     PseudoPot. # 1 for Ba read from file:
     ./pseudo/Ba.pbe-nsp-van.UPF
     MD5 check sum: 2b9c31dd849566dd297d80989662b7a0
     Pseudo is Ultrasoft + core correction, Zval = 10.0
     Generated by new atomic code, or converted to UPF format
     Using radial grid of  907 points,  6 beta functions with: 
                l(1) =   0
                l(2) =   0
                l(3) =   1
                l(4) =   1
                l(5) =   2
                l(6) =   2
     Q(r) pseudized with  6 coefficients,  rinner =    1.200   1.200   1.200
                                                       1.200   1.200

     PseudoPot. # 2 for Ca read from file:
     ./pseudo/Ca.pbe-nsp-van.UPF
     MD5 check sum: 6471098428ff4fa451746d08035ff179
     Pseudo is Ultrasoft + core correction, Zval = 10.0
     Generated by new atomic code, or converted to UPF format
     Using radial grid of  845 points,  6 beta functions with: 
                l(1) =   0
                l(2) =   0
                l(3) =   1
                l(4) =   1
                l(5) =   2
                l(6) =   2
     Q(r) pseudized with  6 coefficients,  rinner =    1.200   1.200   1.200
                                                       1.200   1.200

     PseudoPot. # 3 for Cu read from file:
     ./pseudo/Cu.pbe-n-van_ak.UPF
     MD5 check sum: 34e3282627ffb533726feb647e090d62
     Pseudo is Ultrasoft + core correction, Zval = 11.0
     Generated by new atomic code, or converted to UPF format
     Using radial grid of  867 points,  6 beta functions with: 
                l(1) =   0
                l(2) =   0
                l(3) =   1
                l(4) =   1
                l(5) =   2
                l(6) =   2
     Q(r) pseudized with  8 coefficients,  rinner =    1.400   1.400   1.400
                                                       1.400   1.400

     PseudoPot. # 4 for O  read from file:
     ./pseudo/O.pbe-van_ak.UPF
     MD5 check sum: 783ce7fe4c79b6a4916957118fed0856
     Pseudo is Ultrasoft, Zval =  6.0
     Generated by new atomic code, or converted to UPF format
     Using radial grid of  737 points,  4 beta functions with: 
                l(1) =   0
                l(2) =   0
                l(3) =   1
                l(4) =   1
     Q(r) pseudized with  8 coefficients,  rinner =    0.800   0.800   0.800


     PseudoPot. # 5 for Y  read from file:
     ./pseudo/Y.pbe-nsp-van.UPF
     MD5 check sum: 4412fed3ab108fed87a1b7d6a69a4a38
     Pseudo is Ultrasoft + core correction, Zval = 11.0
     Generated by new atomic code, or converted to UPF format
     Using radial grid of  885 points,  6 beta functions with: 
                l(1) =   0
                l(2) =   0
                l(3) =   1
                l(4) =   1
                l(5) =   2
                l(6) =   2
     Q(r) pseudized with  6 coefficients,  rinner =    1.200   1.200   1.200
                                                       1.200   1.200

     atomic species   valence    mass     pseudopotential
        Ba            10.00   137.32700     Ba( 1.00)
        Ca            10.00    40.07800     Ca( 1.00)
        Cu            11.00    63.54600     Cu( 1.00)
        O              6.00    15.99900     O ( 1.00)
        Y             11.00    88.90584     Y ( 1.00)

      4 Sym. Ops. (no inversion) found ( 3 have fractional translation)



   Cartesian axes

     site n.     atom                  positions (alat units)
         1           Cu  tau(   1) = (   0.0000000   0.0000000   0.0000000  )
         2           Cu  tau(   2) = (   0.2500001   0.2500001   0.0000000  )
         3           O   tau(   3) = (   0.1249996   0.1249996   0.0000000  )
         4           O   tau(   4) = (   0.3749997   0.3749997   0.0000000  )
         5           O   tau(   5) = (   0.0000000   0.0000000   0.1705075  )
         6           O   tau(   6) = (   0.2500001   0.2500001   0.1705075  )
         7           Ba  tau(   7) = (   0.2500001   0.0000000   0.1934623  )
         8           Ba  tau(   8) = (   0.0000000   0.2500001   0.1934623  )
         9           Cu  tau(   9) = (   0.0000000   0.0000000   0.3784635  )
        10           Cu  tau(  10) = (   0.2500001   0.2500001   0.3784635  )
        11           O   tau(  11) = (   0.1249996   0.1249996   0.4052747  )
        12           O   tau(  12) = (   0.3749997   0.3749997   0.4052747  )
        13           O   tau(  13) = (   0.1249996   0.3749997   0.4063459  )
        14           O   tau(  14) = (   0.3749997   0.1249996   0.4063459  )
        15           Y   tau(  15) = (   0.2500001   0.0000000   0.5355815  )
        16           Ca  tau(  16) = (   0.0000000   0.2500001   0.5355815  )
        17           O   tau(  17) = (   0.1249996   0.1249996   0.6648171  )
        18           O   tau(  18) = (   0.3749997   0.3749997   0.6648171  )
        19           O   tau(  19) = (   0.1249996   0.3749997   0.6658883  )
        20           O   tau(  20) = (   0.3749997   0.1249996   0.6658883  )
        21           Cu  tau(  21) = (   0.0000000   0.0000000   0.6926995  )
        22           Cu  tau(  22) = (   0.2500001   0.2500001   0.6926995  )
        23           Ba  tau(  23) = (   0.2500001   0.0000000   0.8777007  )
        24           Ba  tau(  24) = (   0.0000000   0.2500001   0.8777007  )
        25           O   tau(  25) = (   0.0000000   0.0000000   0.9006555  )
        26           O   tau(  26) = (   0.2500001   0.2500001   0.9006555  )
        27           Cu  tau(  27) = (   0.0000000   0.5000002   0.0000000  )
        28           Cu  tau(  28) = (   0.2500001   0.7500003   0.0000000  )
        29           O   tau(  29) = (   0.1249996   0.6249998   0.0000000  )
        30           O   tau(  30) = (   0.3749997   0.8749999   0.0000000  )
        31           O   tau(  31) = (   0.0000000   0.5000002   0.1705075  )
        32           O   tau(  32) = (   0.2500001   0.7500003   0.1705075  )
        33           Ba  tau(  33) = (   0.2500001   0.5000002   0.1934623  )
        34           Ba  tau(  34) = (   0.0000000   0.7500003   0.1934623  )
        35           Cu  tau(  35) = (   0.0000000   0.5000002   0.3784635  )
        36           Cu  tau(  36) = (   0.2500001   0.7500003   0.3784635  )
        37           O   tau(  37) = (   0.1249996   0.6249998   0.4052747  )
        38           O   tau(  38) = (   0.3749997   0.8749999   0.4052747  )
        39           O   tau(  39) = (   0.1249996   0.8749999   0.4063459  )
        40           O   tau(  40) = (   0.3749997   0.6249998   0.4063459  )
        41           Y   tau(  41) = (   0.2500001   0.5000002   0.5355815  )
        42           Y   tau(  42) = (   0.0000000   0.7500003   0.5355815  )
        43           O   tau(  43) = (   0.1249996   0.6249998   0.6648171  )
        44           O   tau(  44) = (   0.3749997   0.8749999   0.6648171  )
        45           O   tau(  45) = (   0.1249996   0.8749999   0.6658883  )
        46           O   tau(  46) = (   0.3749997   0.6249998   0.6658883  )
        47           Cu  tau(  47) = (   0.0000000   0.5000002   0.6926995  )
        48           Cu  tau(  48) = (   0.2500001   0.7500003   0.6926995  )
        49           Ba  tau(  49) = (   0.2500001   0.5000002   0.8777007  )
        50           Ba  tau(  50) = (   0.0000000   0.7500003   0.8777007  )
        51           O   tau(  51) = (   0.0000000   0.5000002   0.9006555  )
        52           O   tau(  52) = (   0.2500001   0.7500003   0.9006555  )
        53           Cu  tau(  53) = (   0.5000002   0.0000000   0.0000000  )
        54           Cu  tau(  54) = (   0.7500003   0.2500001   0.0000000  )
        55           O   tau(  55) = (   0.6249998   0.1249996   0.0000000  )
        56           O   tau(  56) = (   0.8749999   0.3749997   0.0000000  )
        57           O   tau(  57) = (   0.5000002   0.0000000   0.1705075  )
        58           O   tau(  58) = (   0.7500003   0.2500001   0.1705075  )
        59           Ba  tau(  59) = (   0.7500003   0.0000000   0.1934623  )
        60           Ba  tau(  60) = (   0.5000002   0.2500001   0.1934623  )
        61           Cu  tau(  61) = (   0.5000002   0.0000000   0.3784635  )
        62           Cu  tau(  62) = (   0.7500003   0.2500001   0.3784635  )
        63           O   tau(  63) = (   0.6249998   0.1249996   0.4052747  )
        64           O   tau(  64) = (   0.8749999   0.3749997   0.4052747  )
        65           O   tau(  65) = (   0.6249998   0.3749997   0.4063459  )
        66           O   tau(  66) = (   0.8749999   0.1249996   0.4063459  )
        67           Y   tau(  67) = (   0.7500003   0.0000000   0.5355815  )
        68           Y   tau(  68) = (   0.5000002   0.2500001   0.5355815  )
        69           O   tau(  69) = (   0.6249998   0.1249996   0.6648171  )
        70           O   tau(  70) = (   0.8749999   0.3749997   0.6648171  )
        71           O   tau(  71) = (   0.6249998   0.3749997   0.6658883  )
        72           O   tau(  72) = (   0.8749999   0.1249996   0.6658883  )
        73           Cu  tau(  73) = (   0.5000002   0.0000000   0.6926995  )
        74           Cu  tau(  74) = (   0.7500003   0.2500001   0.6926995  )
        75           Ba  tau(  75) = (   0.7500003   0.0000000   0.8777007  )
        76           Ba  tau(  76) = (   0.5000002   0.2500001   0.8777007  )
        77           O   tau(  77) = (   0.5000002   0.0000000   0.9006555  )
        78           O   tau(  78) = (   0.7500003   0.2500001   0.9006555  )
        79           Cu  tau(  79) = (   0.5000002   0.5000002   0.0000000  )
        80           Cu  tau(  80) = (   0.7500003   0.7500003   0.0000000  )
        81           O   tau(  81) = (   0.6249998   0.6249998   0.0000000  )
        82           O   tau(  82) = (   0.8749999   0.8749999   0.0000000  )
        83           O   tau(  83) = (   0.5000002   0.5000002   0.1705075  )
        84           O   tau(  84) = (   0.7500003   0.7500003   0.1705075  )
        85           Ba  tau(  85) = (   0.7500003   0.5000002   0.1934623  )
        86           Ba  tau(  86) = (   0.5000002   0.7500003   0.1934623  )
        87           Cu  tau(  87) = (   0.5000002   0.5000002   0.3784635  )
        88           Cu  tau(  88) = (   0.7500003   0.7500003   0.3784635  )
        89           O   tau(  89) = (   0.6249998   0.6249998   0.4052747  )
        90           O   tau(  90) = (   0.8749999   0.8749999   0.4052747  )
        91           O   tau(  91) = (   0.6249998   0.8749999   0.4063459  )
        92           O   tau(  92) = (   0.8749999   0.6249998   0.4063459  )
        93           Y   tau(  93) = (   0.7500003   0.5000002   0.5355815  )
        94           Y   tau(  94) = (   0.5000002   0.7500003   0.5355815  )
        95           O   tau(  95) = (   0.6249998   0.6249998   0.6648171  )
        96           O   tau(  96) = (   0.8749999   0.8749999   0.6648171  )
        97           O   tau(  97) = (   0.6249998   0.8749999   0.6658883  )
        98           O   tau(  98) = (   0.8749999   0.6249998   0.6658883  )
        99           Cu  tau(  99) = (   0.5000002   0.5000002   0.6926995  )
       100           Cu  tau( 100) = (   0.7500003   0.7500003   0.6926995  )
       101           Ba  tau( 101) = (   0.7500003   0.5000002   0.8777007  )
       102           Ba  tau( 102) = (   0.5000002   0.7500003   0.8777007  )
       103           O   tau( 103) = (   0.5000002   0.5000002   0.9006555  )
       104           O   tau( 104) = (   0.7500003   0.7500003   0.9006555  )

     number of k points=    21  Gaussian smearing, width (Ry)=  0.0100
                       cart. coord. in units 2pi/alat
        k(    1) = (   0.0000000   0.0000000   0.0000000), wk =   0.0312500
        k(    2) = (   0.0000000   0.0000000   0.2333912), wk =   0.0625000
        k(    3) = (   0.0000000   0.0000000  -0.4667824), wk =   0.0312500
        k(    4) = (   0.0000000   0.2500000   0.0000000), wk =   0.1250000
        k(    5) = (   0.0000000   0.2500000   0.2333912), wk =   0.2500000
        k(    6) = (   0.0000000   0.2500000  -0.4667824), wk =   0.1250000
        k(    7) = (   0.0000000  -0.5000000   0.0000000), wk =   0.0625000
        k(    8) = (   0.0000000  -0.5000000   0.2333912), wk =   0.1250000
        k(    9) = (   0.0000000  -0.5000000  -0.4667824), wk =   0.0625000
        k(   10) = (   0.2500000   0.2500000   0.0000000), wk =   0.0625000
        k(   11) = (   0.2500000   0.2500000   0.2333912), wk =   0.1250000
        k(   12) = (   0.2500000   0.2500000  -0.4667824), wk =   0.0625000
        k(   13) = (   0.2500000  -0.5000000   0.0000000), wk =   0.1250000
        k(   14) = (   0.2500000  -0.5000000   0.2333912), wk =   0.2500000
        k(   15) = (   0.2500000  -0.5000000  -0.4667824), wk =   0.1250000
        k(   16) = (  -0.5000000  -0.5000000   0.0000000), wk =   0.0312500
        k(   17) = (  -0.5000000  -0.5000000   0.2333912), wk =   0.0625000
        k(   18) = (  -0.5000000  -0.5000000  -0.4667824), wk =   0.0312500
        k(   19) = (   0.2500000  -0.2500000   0.0000000), wk =   0.0625000
        k(   20) = (   0.2500000  -0.2500000   0.2333912), wk =   0.1250000
        k(   21) = (   0.2500000  -0.2500000  -0.4667824), wk =   0.0625000

     Dense  grid:  1664213 G-vectors     FFT dimensions: ( 144, 144, 160)

     Smooth grid:   588385 G-vectors     FFT dimensions: ( 108, 108, 120)

     Estimated max dynamical RAM per process >     377.44 MB

     Estimated total dynamical RAM >      29.49 GB

     Initial potential from superposition of free atoms

     starting charge  846.43941, renormalised to  847.00000

     negative rho (up, down):  3.039E-01 0.000E+00
     Starting wfcs are  749 randomized atomic wfcs

     total cpu time spent up to now is       28.2 secs

     Self-consistent Calculation

     iteration #  1     ecut=    60.00 Ry     beta= 0.20
     Davidson diagonalization with overlap
     ethr =  1.00E-02,  avg # of iterations =  2.0

     negative rho (up, down):  3.022E-01 0.000E+00

     total cpu time spent up to now is       79.1 secs

     total energy              =   -6851.58037583 Ry
     Harris-Foulkes estimate   =   -6857.21798070 Ry
     estimated scf accuracy    <      41.53608838 Ry

     iteration #  2     ecut=    60.00 Ry     beta= 0.20
     Davidson diagonalization with overlap
     ethr =  4.90E-03,  avg # of iterations =  1.0

     negative rho (up, down):  2.999E-01 0.000E+00

     total cpu time spent up to now is      123.9 secs

     total energy              =   -6846.74367370 Ry
     Harris-Foulkes estimate   =   -6852.66806875 Ry
     estimated scf accuracy    <      18.67123163 Ry

     iteration #  3     ecut=    60.00 Ry     beta= 0.20
     Davidson diagonalization with overlap
     ethr =  2.20E-03,  avg # of iterations =  2.0

     negative rho (up, down):  3.014E-01 0.000E+00

     total cpu time spent up to now is      177.7 secs

     total energy              =   -6849.05517731 Ry
     Harris-Foulkes estimate   =   -6849.33621944 Ry
     estimated scf accuracy    <       1.89212413 Ry

     iteration #  4     ecut=    60.00 Ry     beta= 0.20
     Davidson diagonalization with overlap
     ethr =  2.23E-04,  avg # of iterations =  4.4

     negative rho (up, down):  3.047E-01 0.000E+00

     total cpu time spent up to now is      247.6 secs

     total energy              =   -6848.93548066 Ry
     Harris-Foulkes estimate   =   -6849.25351433 Ry
     estimated scf accuracy    <       1.08731594 Ry

     iteration #  5     ecut=    60.00 Ry     beta= 0.20
     Davidson diagonalization with overlap
     ethr =  1.28E-04,  avg # of iterations =  7.9

     negative rho (up, down):  3.090E-01 0.000E+00

     total cpu time spent up to now is      335.1 secs

     total energy              =   -6848.97284817 Ry
     Harris-Foulkes estimate   =   -6849.02868687 Ry
     estimated scf accuracy    <       0.24612766 Ry

     iteration #  6     ecut=    60.00 Ry     beta= 0.20
     Davidson diagonalization with overlap
     c_bands:  1 eigenvalues not converged
     ethr =  2.91E-05,  avg # of iterations = 10.6

     negative rho (up, down):  3.113E-01 0.000E+00

     total cpu time spent up to now is      436.6 secs

     total energy              =   -6848.98595736 Ry
     Harris-Foulkes estimate   =   -6848.99236102 Ry
     estimated scf accuracy    <       0.04270499 Ry

     iteration #  7     ecut=    60.00 Ry     beta= 0.20
     Davidson diagonalization with overlap
     c_bands:  1 eigenvalues not converged
     c_bands:  1 eigenvalues not converged
     c_bands:  2 eigenvalues not converged
     ethr =  5.04E-06,  avg # of iterations = 13.5

     negative rho (up, down):  3.127E-01 0.000E+00

     total cpu time spent up to now is      582.8 secs

     total energy              =   -6848.98238038 Ry
     Harris-Foulkes estimate   =   -6848.99247525 Ry
     estimated scf accuracy    <       0.02738289 Ry

     iteration #  8     ecut=    60.00 Ry     beta= 0.20
     Davidson diagonalization with overlap
     ethr =  3.23E-06,  avg # of iterations =  4.0

     negative rho (up, down):  3.132E-01 0.000E+00

     total cpu time spent up to now is      662.4 secs

     total energy              =   -6848.99315914 Ry
     Harris-Foulkes estimate   =   -6848.99341849 Ry
     estimated scf accuracy    <       0.03415054 Ry

     iteration #  9     ecut=    60.00 Ry     beta= 0.20
     Davidson diagonalization with overlap
     ethr =  3.23E-06,  avg # of iterations =  1.0

     negative rho (up, down):  3.139E-01 0.000E+00

     total cpu time spent up to now is      706.9 secs

     total energy              =   -6848.98934383 Ry
     Harris-Foulkes estimate   =   -6848.99330482 Ry
     estimated scf accuracy    <       0.03070748 Ry

     iteration # 10     ecut=    60.00 Ry     beta= 0.20
     Davidson diagonalization with overlap
     ethr =  3.23E-06,  avg # of iterations =  2.7

     negative rho (up, down):  3.139E-01 0.000E+00

     total cpu time spent up to now is      759.9 secs

     total energy              =   -6848.98746373 Ry
     Harris-Foulkes estimate   =   -6848.99009202 Ry
     estimated scf accuracy    <       0.01297454 Ry

     iteration # 11     ecut=    60.00 Ry     beta= 0.20
     Davidson diagonalization with overlap
     ethr =  1.53E-06,  avg # of iterations =  6.1

     negative rho (up, down):  3.138E-01 0.000E+00

     total cpu time spent up to now is      836.2 secs

     total energy              =   -6848.98896887 Ry
     Harris-Foulkes estimate   =   -6848.98883136 Ry
     estimated scf accuracy    <       0.00067710 Ry

     iteration # 12     ecut=    60.00 Ry     beta= 0.20
     Davidson diagonalization with overlap
     ethr =  7.99E-08,  avg # of iterations =  3.0

     negative rho (up, down):  3.137E-01 0.000E+00

     total cpu time spent up to now is      912.6 secs

     total energy              =   -6848.98868555 Ry
     Harris-Foulkes estimate   =   -6848.98941592 Ry
     estimated scf accuracy    <       0.00374795 Ry

     iteration # 13     ecut=    60.00 Ry     beta= 0.20
     Davidson diagonalization with overlap
     ethr =  7.99E-08,  avg # of iterations =  4.7

     negative rho (up, down):  3.136E-01 0.000E+00

     total cpu time spent up to now is      997.3 secs

     total energy              =   -6848.98885095 Ry
     Harris-Foulkes estimate   =   -6848.98890855 Ry
     estimated scf accuracy    <       0.00052532 Ry

     iteration # 14     ecut=    60.00 Ry     beta= 0.20
     Davidson diagonalization with overlap
     ethr =  6.20E-08,  avg # of iterations =  1.6

     negative rho (up, down):  3.136E-01 0.000E+00

     total cpu time spent up to now is     1044.6 secs

     total energy              =   -6848.98886588 Ry
     Harris-Foulkes estimate   =   -6848.98887317 Ry
     estimated scf accuracy    <       0.00010827 Ry

     iteration # 15     ecut=    60.00 Ry     beta= 0.20
     Davidson diagonalization with overlap
     ethr =  1.28E-08,  avg # of iterations =  3.0

     negative rho (up, down):  3.136E-01 0.000E+00

     total cpu time spent up to now is     1104.2 secs

     total energy              =   -6848.98889415 Ry
     Harris-Foulkes estimate   =   -6848.98888359 Ry
     estimated scf accuracy    <       0.00001442 Ry

     iteration # 16     ecut=    60.00 Ry     beta= 0.20
     Davidson diagonalization with overlap
     ethr =  1.70E-09,  avg # of iterations =  2.1

     negative rho (up, down):  3.137E-01 0.000E+00

     total cpu time spent up to now is     1156.0 secs

     total energy              =   -6848.98890251 Ry
     Harris-Foulkes estimate   =   -6848.98889534 Ry
     estimated scf accuracy    <       0.00000565 Ry

     iteration # 17     ecut=    60.00 Ry     beta= 0.20
     Davidson diagonalization with overlap
     ethr =  6.67E-10,  avg # of iterations =  2.0

     negative rho (up, down):  3.137E-01 0.000E+00

     total cpu time spent up to now is     1207.9 secs

     total energy              =   -6848.98890742 Ry
     Harris-Foulkes estimate   =   -6848.98890309 Ry
     estimated scf accuracy    <       0.00000279 Ry

     iteration # 18     ecut=    60.00 Ry     beta= 0.20
     Davidson diagonalization with overlap
     ethr =  3.29E-10,  avg # of iterations =  2.0

     negative rho (up, down):  3.137E-01 0.000E+00

     total cpu time spent up to now is     1259.6 secs

     End of self-consistent calculation

          k = 0.0000 0.0000 0.0000 ( 73463 PWs)   bands (ev):

   -31.2208 -31.2145 -31.2135 -31.1259 -31.1257 -31.1254 -31.1242 -27.9058
   -15.7264 -15.6991 -15.6254 -15.6225 -15.6042 -15.6016 -15.5981 -15.5975
   -15.5874 -15.5767 -15.5762 -15.5671 -15.5506 -15.5304 -15.4713 -15.4535
   -11.7840 -11.7777 -11.7107 -11.6951 -11.6892 -11.5433 -11.5403 -11.5381
   -11.5318 -11.4883 -11.4535 -11.4527 -11.4522 -11.4513 -11.4338 -11.4189
   -11.2815 -11.2705 -11.2668 -11.1835 -11.1797  -9.3685  -9.3336  -9.3292
    -8.5112  -7.8525  -7.8340  -7.8317  -7.8270  -7.8250  -7.7679  -7.7571
    -7.7561  -7.6381  -7.6273  -7.6228  -7.5978  -7.5783  -7.5309  -7.5160
    -7.5072  -7.4890  -7.4880  -7.4842  -7.4722  -7.3984  -7.3892  -7.3700
    -7.3577  -7.3102  -7.2504  -7.2192  -7.1859  -7.1790  -7.1700  -7.1534
    -7.1489  -7.0810  -7.0783  -7.0714  -6.9875  -6.9503  -6.9462  -6.9444
    -6.9215  -6.8776  -6.8559  -6.8514  -6.8026  -6.7973  -6.7970  -6.7921
    -6.7050  -6.6906  -6.6881  -6.6870  -6.6863  -6.5975  -6.5610  -6.5100
    -1.5591  -1.5259  -1.4834  -1.2061  -1.2042  -1.1658  -1.1644  -1.1525
    -1.1467  -1.1172  -1.1018  -1.0993  -1.0957  -1.0922  -0.9840  -0.9812
    -0.9771  -0.9770  -0.9607  -0.9350  -0.9283  -0.9228  -0.8965  -0.8955
    -0.8811  -0.8511  -0.8235  -0.7713  -0.7662  -0.7117  -0.7067  -0.6824
    -0.6496  -0.6431  -0.5990  -0.5624  -0.5503  -0.5487  -0.5436  -0.5368
    -0.5343  -0.5299  -0.5188  -0.5054  -0.4617  -0.4389  -0.3980  -0.3384
     2.7391   3.3578   3.7335   3.8442   3.8528   3.8765   3.9203   3.9524
     3.9885   3.9908   4.0632   4.0834   4.2847   4.3268   4.3302   4.3818
     4.3937   4.5579   4.6041   4.7221   4.7223   4.7254   4.7284   4.7763
     4.7957   4.7958   4.7975   4.8069   4.8079   4.8390   4.8607   4.8812
     4.9051   4.9256   4.9320   4.9661   4.9686   4.9687   4.9691   4.9719
     4.9730   5.0757   5.1461   5.1727   5.1947   5.2044   5.2891   5.3441
     5.3568   5.3904   5.4207   5.4291   5.4558   5.4574   5.4912   5.4925
     5.5404   5.5525   5.5746   5.5771   5.5814   5.5928   5.5958   5.6356
     5.7158   5.7418   5.7507   5.7527   5.7675   5.8196   5.8489   5.8530
     5.8794   5.8895   5.9428   5.9460   5.9841   5.9880   5.9928   6.0137
     6.0883   6.1177   6.1237   6.1342   6.1447   6.1516   6.1634   6.2138
     6.2236   6.2274   6.2283   6.2314   6.2562   6.2913   6.2938   6.2973
     6.2984   6.3513   6.3536   6.3550   6.3774   6.3777   6.3777   6.3787
     6.4251   6.4271   6.4451   6.4492   6.4713   6.4891   6.5394   6.5593
     6.6123   6.6274   6.7605   6.7704   6.7705   6.7876   6.8209   6.8217
     6.8268   6.8624   6.9573   6.9607   6.9626   6.9688   6.9901   7.0019
     7.0150   7.0252   7.0430   7.0658   7.1308   7.1355   7.1355   7.1433
     7.1621   7.1907   7.2578   7.2579   7.2594   7.2609   7.2611   7.2653
     7.3010   7.3598   7.3656   7.3986   7.4094   7.4152   7.4397   7.4518
     7.4559   7.5191   7.5498   7.5564   7.5908   7.6114   7.6128   7.6596
     7.6650   7.7302   7.7335   7.7422   7.7535   7.7549   7.7550   7.7587
     7.7663   7.7679   7.7685   7.7965   7.8026   7.8563   7.8970   7.9677
     8.1131   8.1135   8.1153   8.1165   8.1246   8.1398   8.1463   8.2011
     8.2148   8.2211   8.2281   8.2283   8.2640   8.2675   8.2864   8.2915
     8.2973   8.3024   8.3038   8.3084   8.3236   8.3279   8.3339   8.3362
     8.3464   8.3705   8.3765   8.3873   8.3900   8.3955   8.4052   8.4606
     8.4612   8.4866   8.4994   8.5557   8.5902   8.6280   8.6281   8.6360
     8.6418   8.6516   8.6609   8.6848   8.6928   8.7052   8.7064   8.7298
     8.7320   8.7363   8.7378   8.7380   8.7413   8.7422   8.7429   8.7435
     8.7471   8.7505   8.7535   8.7625   8.7813   8.8231   8.8258   8.8396
     8.8643   8.8803   8.9191   8.9641   8.9652   8.9692   9.0041   9.0469
     9.0571   9.0696   9.0928   9.1291   9.1307   9.1434   9.1625   9.2425
     9.2834   9.2902   9.2930   9.3087   9.3148   9.3282   9.4184   9.4243
     9.4306   9.4342   9.4444   9.4557   9.4953   9.5270   9.5799   9.6191
    10.1769  10.1906  10.1911  10.2035  10.3791  10.3926  10.3928  10.4032
    10.6842  10.6849  10.6875  10.6886  11.1717  11.4950  11.5886  11.6691
    12.2264  12.4112  13.1931  13.4713  13.4724  13.4807  13.4896  13.6441
    13.8516  14.0293  14.0498  14.1699  14.1716  14.1740  14.2114  14.3839
    14.5356  14.5378  14.6113  14.6173  14.6207  14.8834  14.9342  14.9582
    15.0045  15.2005  15.2162  15.2378  15.2569  15.3355  15.4651  15.6376
    15.6903  15.7185  15.7440  15.7882  15.8301  15.8331  15.8419  15.8843
    15.9003  15.9118  15.9243  15.9319  15.9368  15.9698  16.0215  16.1212
    16.1471  16.1591  16.1790  16.2254  16.2549  16.2718  16.2835  16.2927
    16.2974  16.3994  16.4138  16.4241  16.4590  16.4639  16.4974  16.5303
    16.5447  16.5541  16.5565  16.5663  16.5864

          k = 0.0000 0.0000 0.2334 ( 73574 PWs)   bands (ev):

   -31.2208 -31.2145 -31.2135 -31.1259 -31.1257 -31.1254 -31.1242 -27.9058
   -15.7270 -15.6985 -15.6259 -15.6229 -15.6037 -15.6012 -15.5985 -15.5980
   -15.5878 -15.5763 -15.5758 -15.5667 -15.5508 -15.5301 -15.4715 -15.4533
   -11.7840 -11.7777 -11.7109 -11.6951 -11.6892 -11.5433 -11.5403 -11.5381
   -11.5318 -11.4883 -11.4535 -11.4528 -11.4522 -11.4513 -11.4338 -11.4189
   -11.2815 -11.2705 -11.2668 -11.1835 -11.1797  -9.3687  -9.3336  -9.3292
    -8.5093  -7.8927  -7.8556  -7.8308  -7.8240  -7.7665  -7.7644  -7.7548
    -7.7442  -7.6396  -7.6310  -7.6253  -7.6097  -7.5717  -7.5250  -7.5194
    -7.5182  -7.4858  -7.4801  -7.4788  -7.4749  -7.3949  -7.3886  -7.3577
    -7.3497  -7.3103  -7.2787  -7.2193  -7.1950  -7.1743  -7.1681  -7.1537
    -7.1531  -7.1016  -7.0794  -7.0741  -6.9808  -6.9506  -6.9505  -6.9460
    -6.9214  -6.8760  -6.8450  -6.8392  -6.8050  -6.7977  -6.7963  -6.7952
    -6.7051  -6.6892  -6.6864  -6.6858  -6.6835  -6.5998  -6.5660  -6.5064
    -1.5592  -1.5259  -1.4834  -1.2039  -1.1975  -1.1634  -1.1559  -1.1500
    -1.1443  -1.1109  -1.1041  -1.1017  -1.0980  -1.0942  -1.0007  -0.9808
    -0.9736  -0.9638  -0.9573  -0.9443  -0.9313  -0.9130  -0.8998  -0.8990
    -0.8901  -0.8634  -0.8138  -0.7737  -0.7707  -0.7125  -0.7071  -0.6818
    -0.6504  -0.6439  -0.5988  -0.5612  -0.5548  -0.5530  -0.5476  -0.5376
    -0.5330  -0.5259  -0.5154  -0.5026  -0.4622  -0.4382  -0.3986  -0.3376
     2.7503   3.3383   3.7480   3.8540   3.8670   3.8792   3.9240   3.9632
     3.9837   4.0056   4.0581   4.0879   4.2631   4.3050   4.3072   4.3561
     4.4263   4.5579   4.6040   4.7254   4.7255   4.7278   4.7318   4.7762
     4.7954   4.7959   4.7973   4.8070   4.8083   4.8390   4.8608   4.8955
     4.9033   4.9292   4.9302   4.9452   4.9469   4.9682   4.9739   4.9962
     4.9983   5.0522   5.0952   5.1072   5.1950   5.2048   5.2930   5.3431
     5.3561   5.4218   5.4265   5.4533   5.4553   5.4847   5.4968   5.5229
     5.5297   5.5339   5.5348   5.5456   5.5826   5.6137   5.6217   5.6228
     5.6722   5.7659   5.7889   5.7909   5.8197   5.8508   5.8634   5.8682
     5.8945   5.9226   5.9461   5.9666   5.9861   5.9912   6.0148   6.0221
     6.0972   6.1168   6.1284   6.1294   6.1413   6.1521   6.1617   6.2145
     6.2246   6.2276   6.2304   6.2346   6.2449   6.2920   6.2978   6.2978
     6.3032   6.3164   6.3417   6.3483   6.3548   6.3550   6.3589   6.3601
     6.3804   6.4079   6.4087   6.4253   6.4328   6.4420   6.4890   6.5368
     6.6136   6.6330   6.6810   6.6925   6.6965   6.7141   6.8092   6.8217
     6.8258   6.8610   6.8946   6.9135   6.9533   6.9690   6.9899   7.0018
     7.0430   7.0606   7.0638   7.0675   7.1492   7.1920   7.2352   7.2368
     7.2371   7.2386   7.2420   7.2552   7.2911   7.2917   7.2938   7.2959
     7.3625   7.3979   7.4005   7.4162   7.4239   7.4359   7.4634   7.4654
     7.4710   7.5223   7.5472   7.5679   7.5872   7.6087   7.6099   7.6428
     7.6549   7.6770   7.7008   7.7033   7.7304   7.7627   7.7745   7.7925
     7.7930   7.7971   7.7985   7.8229   7.8655   7.9139   7.9273   8.0059
     8.0555   8.1000   8.1213   8.1292   8.1490   8.1500   8.2091   8.2128
     8.2178   8.2273   8.2282   8.2389   8.2471   8.2825   8.2868   8.2935
     8.2984   8.3106   8.3124   8.3144   8.3278   8.3339   8.3384   8.3516
     8.3570   8.3804   8.3860   8.3921   8.3958   8.4241   8.4261   8.4664
     8.4729   8.4847   8.4941   8.5325   8.5524   8.5722   8.5777   8.5835
     8.5948   8.6086   8.6133   8.6246   8.6634   8.6927   8.6938   8.6987
     8.7049   8.7213   8.7237   8.7309   8.7318   8.7321   8.7351   8.7535
     8.7762   8.7792   8.7936   8.7975   8.8154   8.8215   8.8235   8.8376
     8.8646   8.8787   8.8993   8.9583   8.9693   8.9697   9.0265   9.0428
     9.0626   9.0756   9.1041   9.1133   9.1213   9.1265   9.1330   9.2217
     9.2284   9.2314   9.2368   9.2638   9.3155   9.3324   9.3622   9.3827
     9.3861   9.3875   9.3884   9.4413   9.4628   9.4936   9.5791   9.6795
    10.1837  10.1975  10.1981  10.2105  10.3758  10.3891  10.3892  10.3995
    10.7300  10.7308  10.7309  10.7339  11.3005  11.5330  11.5887  11.6689
    12.2355  12.5390  13.1171  13.4914  13.4983  13.5066  13.5116  13.5692
    13.8861  13.9509  14.1439  14.1442  14.1446  14.1546  14.2040  14.4495
    14.5451  14.5463  14.6037  14.6166  14.6269  14.7271  14.9343  14.9511
    15.0049  15.2755  15.2885  15.2934  15.3178  15.3495  15.3767  15.4156
    15.6604  15.6630  15.6888  15.7064  15.7210  15.7696  15.8078  15.8712
    15.9018  15.9095  15.9366  15.9411  16.0121  16.0231  16.0511  16.0611
    16.0725  16.0869  16.1368  16.1680  16.2256  16.2273  16.2545  16.2601
    16.2626  16.2957  16.3808  16.3810  16.4023  16.4347  16.4405  16.4685
    16.4861  16.4890  16.5690  16.5710  16.5777

          k = 0.0000 0.0000-0.4668 ( 73606 PWs)   bands (ev):

   -31.2208 -31.2145 -31.2135 -31.1259 -31.1257 -31.1254 -31.1242 -27.9058
   -15.7276 -15.6978 -15.6263 -15.6234 -15.6033 -15.6007 -15.5989 -15.5984
   -15.5882 -15.5758 -15.5753 -15.5662 -15.5511 -15.5298 -15.4717 -15.4531
   -11.7840 -11.7777 -11.7110 -11.6951 -11.6892 -11.5433 -11.5404 -11.5381
   -11.5319 -11.4882 -11.4535 -11.4528 -11.4523 -11.4513 -11.4339 -11.4189
   -11.2815 -11.2705 -11.2668 -11.1835 -11.1797  -9.3688  -9.3336  -9.3291
    -8.5075  -7.9157  -7.8586  -7.8300  -7.8230  -7.7651  -7.7587  -7.7534
    -7.7080  -7.6411  -7.6345  -7.6277  -7.6182  -7.5682  -7.5265  -7.5194
    -7.5188  -7.4855  -7.4828  -7.4765  -7.4667  -7.3919  -7.3880  -7.3578
    -7.3244  -7.3105  -7.3091  -7.2194  -7.2072  -7.1710  -7.1610  -7.1591
    -7.1586  -7.1226  -7.0777  -7.0760  -6.9745  -6.9545  -6.9510  -6.9479
    -6.9214  -6.8743  -6.8378  -6.8303  -6.8074  -6.8033  -6.7940  -6.7899
    -6.7051  -6.6878  -6.6849  -6.6847  -6.6809  -6.6019  -6.5714  -6.5029
    -1.5593  -1.5258  -1.4833  -1.2036  -1.1884  -1.1608  -1.1476  -1.1474
    -1.1418  -1.1064  -1.1040  -1.1024  -1.1003  -1.0965  -1.0111  -0.9776
    -0.9700  -0.9584  -0.9537  -0.9522  -0.9345  -0.9049  -0.9035  -0.9026
    -0.8994  -0.8774  -0.8050  -0.7815  -0.7701  -0.7132  -0.7077  -0.6813
    -0.6511  -0.6447  -0.5987  -0.5598  -0.5584  -0.5562  -0.5509  -0.5406
    -0.5303  -0.5227  -0.5127  -0.5002  -0.4628  -0.4375  -0.3992  -0.3368
     2.7620   3.3184   3.7659   3.8642   3.8752   3.8828   3.9274   3.9759
     3.9829   4.0255   4.0525   4.0910   4.2402   4.2818   4.2827   4.3280
     4.4626   4.5579   4.6040   4.7284   4.7287   4.7301   4.7350   4.7761
     4.7951   4.7961   4.7971   4.8070   4.8087   4.8390   4.8609   4.9014
     4.9121   4.9269   4.9327   4.9384   4.9387   4.9700   4.9759   5.0082
     5.0089   5.0103   5.0652   5.0725   5.1952   5.2051   5.2961   5.3420
     5.3555   5.4232   5.4240   5.4507   5.4531   5.4759   5.5015   5.5101
     5.5128   5.5160   5.5447   5.5823   5.5842   5.5947   5.6285   5.6311
     5.7158   5.8137   5.8198   5.8212   5.8271   5.8484   5.8619   5.8989
     5.9365   5.9464   5.9887   5.9895   5.9947   6.0171   6.0544   6.0573
     6.1056   6.1159   6.1212   6.1225   6.1353   6.1527   6.1694   6.2132
     6.2193   6.2305   6.2457   6.2465   6.2521   6.2534   6.2572   6.2852
     6.2855   6.2977   6.3012   6.3014   6.3065   6.3068   6.3114   6.3223
     6.3397   6.3751   6.3965   6.3965   6.4078   6.4168   6.4889   6.5342
     6.6283   6.6358   6.6387   6.6458   6.6505   6.6606   6.7945   6.8225
     6.8254   6.8578   6.8605   6.8929   6.9534   6.9691   6.9897   7.0018
     7.0430   7.0688   7.0852   7.0885   7.1046   7.1937   7.2269   7.2474
     7.2513   7.2538   7.2547   7.2578   7.3648   7.3967   7.4162   7.4168
     7.4186   7.4245   7.4262   7.4282   7.4337   7.4765   7.4771   7.5218
     7.5257   7.5294   7.5602   7.5778   7.5784   7.5832   7.5998   7.6048
     7.6072   7.6107   7.6250   7.6551   7.7064   7.7718   7.8248   7.8261
     7.8270   7.8293   7.8910   7.8913   7.9072   7.9130   8.0138   8.0385
     8.0668   8.0876   8.1261   8.1309   8.1518   8.1530   8.2037   8.2039
     8.2186   8.2256   8.2264   8.2441   8.2510   8.2574   8.2587   8.2869
     8.2977   8.3131   8.3314   8.3361   8.3394   8.3432   8.3541   8.3809
     8.3816   8.3819   8.3856   8.3964   8.4353   8.4501   8.4507   8.4576
     8.4843   8.4861   8.4883   8.4914   8.5096   8.5164   8.5230   8.5230
     8.5296   8.5502   8.5949   8.6211   8.6660   8.6667   8.6938   8.6939
     8.6980   8.7009   8.7073   8.7264   8.7272   8.7286   8.7290   8.7320
     8.7428   8.8124   8.8171   8.8205   8.8213   8.8315   8.8355   8.8375
     8.8648   8.8765   8.9276   8.9510   8.9695   8.9718   9.0296   9.0473
     9.0542   9.0611   9.0921   9.1083   9.1139   9.1224   9.1331   9.1353
     9.1394   9.1526   9.1780   9.2469   9.2726   9.3195   9.3364   9.3640
     9.3653   9.3655   9.3655   9.4042   9.4387   9.4918   9.5784   9.7175
    10.1906  10.2046  10.2053  10.2176  10.3723  10.3854  10.3855  10.3957
    10.7705  10.7719  10.7730  10.7753  11.4278  11.5693  11.5892  11.6686
    12.2445  12.7792  12.9168  13.4774  13.5250  13.5267  13.5349  13.5355
    13.9032  13.9272  14.1127  14.1135  14.1166  14.1639  14.3933  14.4705
    14.5009  14.5547  14.5550  14.6220  14.6305  14.6332  14.9345  15.0053
    15.0055  15.0795  15.1627  15.4150  15.4277  15.4623  15.4652  15.5181
    15.5300  15.5854  15.6112  15.6441  15.6730  15.7217  15.7703  15.7793
    15.8032  15.8122  15.8442  15.9778  15.9991  16.0021  16.0279  16.0337
    16.0615  16.1004  16.1057  16.1309  16.1532  16.1791  16.1858  16.2241
    16.2717  16.2781  16.3584  16.3824  16.3889  16.4033  16.4140  16.4299
    16.4721  16.5439  16.5853  16.6907  16.7201

          k = 0.0000 0.2500 0.0000 ( 73539 PWs)   bands (ev):

   -31.2208 -31.2143 -31.2136 -31.1258 -31.1256 -31.1254 -31.1244 -27.9058
   -15.7174 -15.6907 -15.6526 -15.6294 -15.6232 -15.6022 -15.5963 -15.5892
   -15.5815 -15.5751 -15.5685 -15.5614 -15.5434 -15.5243 -15.4755 -15.4571
   -11.7651 -11.7588 -11.6973 -11.6944 -11.6883 -11.6243 -11.6128 -11.5816
   -11.5339 -11.4522 -11.4498 -11.4365 -11.4273 -11.4094 -11.3962 -11.3744
   -11.2944 -11.2684 -11.2617 -11.2109 -11.2057  -9.3688  -9.3363  -9.3310
    -8.4493  -8.0409  -7.8329  -7.8283  -7.8060  -7.8028  -7.7682  -7.7523
    -7.6717  -7.6509  -7.6418  -7.6309  -7.6027  -7.5979  -7.5737  -7.5443
    -7.5374  -7.4887  -7.4649  -7.4134  -7.3876  -7.3831  -7.3516  -7.3495
    -7.3467  -7.3151  -7.2596  -7.2261  -7.1998  -7.1792  -7.1750  -7.1551
    -7.1403  -7.1365  -7.1337  -7.0086  -6.9980  -6.9525  -6.9264  -6.9240
    -6.8904  -6.8855  -6.8579  -6.8493  -6.8210  -6.8188  -6.7972  -6.7799
    -6.7572  -6.7316  -6.7232  -6.6389  -6.6238  -6.6188  -6.5641  -6.5305
    -1.5009  -1.4813  -1.3987  -1.2568  -1.2562  -1.2023  -1.1815  -1.1682
    -1.1049  -1.0783  -1.0590  -1.0474  -1.0440  -1.0177  -0.9789  -0.9770
    -0.9570  -0.9349  -0.9333  -0.9207  -0.9165  -0.8942  -0.8883  -0.8837
    -0.8798  -0.8558  -0.8373  -0.8013  -0.8002  -0.7668  -0.7319  -0.7316
    -0.7217  -0.6926  -0.6775  -0.6113  -0.5890  -0.5725  -0.5503  -0.5344
    -0.5302  -0.5201  -0.4935  -0.4838  -0.4521  -0.4405  -0.4254  -0.3893
     2.8288   3.4385   3.4696   3.7771   3.8589   3.9140   3.9358   3.9778
     3.9845   4.0023   4.0905   4.1221   4.2682   4.2831   4.3156   4.3675
     4.3992   4.4632   4.5739   4.5839   4.6223   4.7027   4.7426   4.8170
     4.8325   4.8426   4.8475   4.8560   4.9033   4.9162   4.9202   4.9224
     4.9246   4.9398   4.9478   4.9628   4.9682   4.9957   5.0069   5.0301
     5.0543   5.1521   5.1602   5.1638   5.1671   5.2037   5.2210   5.2586
     5.2905   5.2967   5.3221   5.3735   5.4000   5.4346   5.4467   5.4746
     5.4779   5.5631   5.5901   5.6017   5.6313   5.6399   5.6725   5.6991
     5.7407   5.7487   5.7587   5.7691   5.7804   5.8026   5.8526   5.8740
     5.8765   5.9175   5.9189   5.9768   5.9813   5.9912   6.0471   6.0546
     6.1009   6.1071   6.1289   6.1409   6.1427   6.1436   6.1576   6.1717
     6.1882   6.2134   6.2577   6.2655   6.2759   6.2771   6.2821   6.2884
     6.3016   6.3112   6.3142   6.3454   6.3619   6.3716   6.3788   6.3977
     6.4042   6.4204   6.4640   6.4872   6.5254   6.5616   6.5815   6.6005
     6.6268   6.6358   6.6667   6.6889   6.7227   6.7422   6.8201   6.8473
     6.9294   6.9396   6.9436   6.9469   6.9523   7.0164   7.0200   7.0410
     7.0441   7.0479   7.0745   7.0966   7.0979   7.1223   7.1545   7.1572
     7.1679   7.1729   7.2049   7.2439   7.2925   7.3116   7.3318   7.3382
     7.3390   7.3795   7.3878   7.3998   7.4042   7.4188   7.4229   7.4279
     7.4394   7.4704   7.5063   7.5236   7.5393   7.5764   7.6138   7.6178
     7.6576   7.6597   7.6841   7.6890   7.6953   7.7105   7.7806   7.8100
     7.8207   7.8324   7.8539   7.9093   7.9398   7.9609   7.9644   7.9797
     7.9990   8.0008   8.0407   8.0647   8.0871   8.1049   8.1107   8.1217
     8.1285   8.1402   8.1573   8.1754   8.1827   8.2025   8.2370   8.2533
     8.2596   8.2694   8.2801   8.2933   8.3038   8.3168   8.3558   8.3600
     8.3900   8.3944   8.4170   8.4283   8.4491   8.4707   8.4842   8.5030
     8.5060   8.5064   8.5181   8.5385   8.5549   8.5578   8.5754   8.5877
     8.5910   8.6224   8.6401   8.6553   8.6664   8.6854   8.7014   8.7094
     8.7223   8.7309   8.7369   8.7459   8.7542   8.7624   8.7897   8.8055
     8.8117   8.8126   8.8234   8.8291   8.8401   8.8406   8.8560   8.8600
     8.8956   8.9305   8.9429   8.9497   8.9789   9.0261   9.0282   9.0332
     9.0630   9.0888   9.1301   9.1696   9.1879   9.1918   9.1976   9.2068
     9.2409   9.2649   9.2753   9.3023   9.3789   9.3845   9.4073   9.4104
     9.4111   9.4173   9.4222   9.4425   9.5371   9.5976   9.6696   9.7031
     9.7051   9.9502  10.0187  10.0287  10.2647  10.2704  10.2804  10.3233
    10.6855  10.8350  10.9770  11.0112  11.1709  11.4374  11.4656  11.5503
    12.3517  12.5812  13.1284  13.2689  13.4668  13.4728  13.6414  13.6805
    13.7418  13.7894  14.0538  14.1654  14.1793  14.2339  14.2622  14.3466
    14.5446  14.5777  14.6197  14.6821  14.7495  14.8106  14.9321  14.9594
    15.0141  15.0967  15.1540  15.1592  15.2933  15.3270  15.4045  15.4229
    15.6092  15.6330  15.7645  15.7798  15.8277  15.8464  15.8607  15.8760
    15.9625  15.9854  15.9954  16.0303  16.0368  16.0444  16.0867  16.1119
    16.1263  16.1672  16.1870  16.2273  16.2304  16.2406  16.2503  16.3033
    16.3271  16.3667  16.3900  16.4487  16.4543  16.5013  16.5208  16.5572
    16.5650  16.5985  16.5999  16.6093  16.6460

          k = 0.0000 0.2500 0.2334 ( 73562 PWs)   bands (ev):

   -31.2208 -31.2143 -31.2136 -31.1258 -31.1256 -31.1254 -31.1244 -27.9058
   -15.7180 -15.6900 -15.6531 -15.6289 -15.6236 -15.6018 -15.5967 -15.5897
   -15.5818 -15.5747 -15.5680 -15.5611 -15.5437 -15.5240 -15.4756 -15.4569
   -11.7651 -11.7588 -11.6974 -11.6944 -11.6883 -11.6243 -11.6128 -11.5817
   -11.5339 -11.4522 -11.4499 -11.4366 -11.4273 -11.4094 -11.3962 -11.3744
   -11.2944 -11.2684 -11.2617 -11.2109 -11.2057  -9.3689  -9.3363  -9.3309
    -8.4476  -8.0399  -7.8631  -7.8313  -7.8290  -7.7743  -7.7511  -7.7276
    -7.6767  -7.6642  -7.6351  -7.6340  -7.6093  -7.5881  -7.5696  -7.5425
    -7.5367  -7.4888  -7.4566  -7.4199  -7.3871  -7.3767  -7.3514  -7.3475
    -7.3328  -7.3145  -7.2758  -7.2327  -7.1987  -7.1880  -7.1809  -7.1613
    -7.1466  -7.1360  -7.1301  -7.0198  -6.9850  -6.9629  -6.9483  -6.9263
    -6.8845  -6.8711  -6.8546  -6.8473  -6.8180  -6.8075  -6.7935  -6.7817
    -6.7613  -6.7326  -6.7200  -6.6355  -6.6265  -6.6182  -6.5683  -6.5267
    -1.5004  -1.4815  -1.3995  -1.2591  -1.2534  -1.1954  -1.1778  -1.1657
    -1.0973  -1.0741  -1.0549  -1.0456  -1.0440  -1.0196  -0.9965  -0.9645
    -0.9604  -0.9425  -0.9284  -0.9202  -0.9160  -0.8994  -0.8927  -0.8918
    -0.8750  -0.8666  -0.8293  -0.8043  -0.8003  -0.7722  -0.7334  -0.7279
    -0.7209  -0.6924  -0.6787  -0.6115  -0.5880  -0.5723  -0.5535  -0.5340
    -0.5317  -0.5171  -0.4925  -0.4842  -0.4514  -0.4426  -0.4249  -0.3896
     2.8400   3.4188   3.4819   3.7964   3.8683   3.9232   3.9457   3.9639
     3.9817   3.9872   4.0860   4.1237   4.2387   4.2562   4.3402   4.3862
     4.4027   4.4908   4.5615   4.5740   4.6222   4.7027   4.7424   4.8075
     4.8403   4.8488   4.8542   4.8702   4.9021   4.9070   4.9216   4.9243
     4.9259   4.9345   4.9440   4.9468   4.9598   5.0060   5.0265   5.0315
     5.0424   5.1283   5.1356   5.1573   5.1643   5.1744   5.2226   5.2522
     5.2766   5.2872   5.3253   5.3641   5.4037   5.4340   5.4496   5.4856
     5.5146   5.5760   5.5857   5.6026   5.6213   5.6285   5.6580   5.7376
     5.7610   5.7717   5.7871   5.7992   5.8051   5.8347   5.8553   5.8618
     5.8974   5.9356   5.9625   5.9809   5.9886   6.0018   6.0468   6.0670
     6.0993   6.1064   6.1221   6.1281   6.1364   6.1565   6.1623   6.1815
     6.1882   6.2134   6.2304   6.2389   6.2495   6.2618   6.2710   6.2886
     6.3009   6.3034   6.3114   6.3339   6.3458   6.3710   6.3895   6.3913
     6.4023   6.4098   6.4228   6.4676   6.4778   6.5069   6.5214   6.5515
     6.5778   6.6170   6.6336   6.6555   6.7205   6.7690   6.8257   6.8452
     6.8495   6.9048   6.9195   6.9285   6.9390   6.9661   6.9768   7.0213
     7.0681   7.0762   7.0867   7.0948   7.1060   7.1634   7.1682   7.2493
     7.2630   7.2654   7.2749   7.3019   7.3197   7.3372   7.3469   7.3504
     7.3850   7.3965   7.4082   7.4127   7.4145   7.4260   7.4355   7.4419
     7.4454   7.4862   7.5133   7.5281   7.5356   7.5484   7.5845   7.5947
     7.6366   7.6651   7.6741   7.7102   7.7117   7.7353   7.8177   7.8414
     7.8502   7.8790   7.8834   7.9450   7.9479   7.9528   7.9729   7.9970
     8.0096   8.0206   8.0500   8.0819   8.0918   8.0957   8.1141   8.1176
     8.1427   8.1474   8.1689   8.1907   8.1957   8.2193   8.2364   8.2394
     8.2679   8.2769   8.2831   8.3068   8.3138   8.3280   8.3459   8.3545
     8.3651   8.3739   8.4002   8.4160   8.4226   8.4374   8.4682   8.4913
     8.5035   8.5318   8.5407   8.5488   8.5521   8.5669   8.5739   8.5871
     8.5917   8.6064   8.6231   8.6548   8.6627   8.6650   8.6738   8.7038
     8.7278   8.7294   8.7341   8.7393   8.7418   8.7616   8.7789   8.7812
     8.7939   8.8135   8.8154   8.8385   8.8460   8.8505   8.8550   8.8653
     8.8824   8.8886   8.9179   8.9373   8.9920   8.9934   9.0062   9.0422
     9.0784   9.0918   9.1128   9.1299   9.1551   9.1772   9.1895   9.1985
     9.2022   9.2186   9.2320   9.2705   9.2917   9.3464   9.3608   9.3937
     9.4051   9.4171   9.4306   9.4547   9.4994   9.5352   9.6190   9.7246
     9.7892   9.9420  10.0323  10.0382  10.2315  10.2600  10.3173  10.3877
    10.6889  10.8333  11.0395  11.0579  11.2875  11.4667  11.4775  11.5495
    12.3642  12.6945  13.1603  13.1986  13.4781  13.4920  13.6072  13.6867
    13.7474  13.8056  14.0369  14.0891  14.2262  14.2518  14.2870  14.3712
    14.5567  14.5838  14.6058  14.6631  14.7511  14.8138  14.8319  14.9638
    14.9773  15.0843  15.1378  15.1840  15.2501  15.4100  15.4407  15.4887
    15.4998  15.5849  15.6175  15.7313  15.7576  15.7996  15.8050  15.8158
    15.8710  15.9072  15.9548  15.9687  15.9906  16.0641  16.0768  16.1009
    16.1308  16.1466  16.1652  16.1745  16.2171  16.2713  16.2835  16.3013
    16.3349  16.3775  16.3908  16.4397  16.4706  16.4856  16.5078  16.5189
    16.5651  16.5890  16.6033  16.6357  16.6427

          k = 0.0000 0.2500-0.4668 ( 73576 PWs)   bands (ev):

   -31.2208 -31.2143 -31.2136 -31.1258 -31.1256 -31.1254 -31.1244 -27.9058
   -15.7186 -15.6894 -15.6536 -15.6284 -15.6241 -15.6013 -15.5971 -15.5901
   -15.5822 -15.5742 -15.5676 -15.5607 -15.5440 -15.5237 -15.4758 -15.4567
   -11.7651 -11.7588 -11.6975 -11.6944 -11.6883 -11.6243 -11.6128 -11.5818
   -11.5340 -11.4522 -11.4500 -11.4366 -11.4273 -11.4094 -11.3961 -11.3744
   -11.2944 -11.2684 -11.2617 -11.2109 -11.2057  -9.3690  -9.3363  -9.3309
    -8.4458  -8.0390  -7.8843  -7.8340  -7.8282  -7.7720  -7.7497  -7.6949
    -7.6830  -7.6674  -7.6364  -7.6322  -7.6145  -7.5837  -7.5656  -7.5400
    -7.5354  -7.4882  -7.4453  -7.4287  -7.3892  -7.3711  -7.3490  -7.3474
    -7.3141  -7.3126  -7.2954  -7.2331  -7.2148  -7.1930  -7.1832  -7.1645
    -7.1591  -7.1322  -7.1244  -7.0257  -6.9769  -6.9702  -6.9645  -6.9300
    -6.8826  -6.8643  -6.8527  -6.8412  -6.8159  -6.7959  -6.7880  -6.7850
    -6.7650  -6.7335  -6.7169  -6.6323  -6.6289  -6.6176  -6.5729  -6.5230
    -1.4998  -1.4818  -1.4003  -1.2604  -1.2515  -1.1885  -1.1743  -1.1628
    -1.0885  -1.0696  -1.0503  -1.0472  -1.0400  -1.0214  -1.0056  -0.9686
    -0.9557  -0.9487  -0.9239  -0.9234  -0.9121  -0.9045  -0.8999  -0.8979
    -0.8785  -0.8710  -0.8217  -0.8086  -0.7992  -0.7776  -0.7350  -0.7254
    -0.7193  -0.6922  -0.6798  -0.6117  -0.5871  -0.5722  -0.5561  -0.5364
    -0.5302  -0.5149  -0.4916  -0.4846  -0.4504  -0.4450  -0.4245  -0.3898
     2.8518   3.3986   3.4951   3.8246   3.8706   3.9231   3.9446   3.9598
     3.9819   3.9842   4.0793   4.1254   4.1987   4.2424   4.3719   4.3969
     4.4060   4.5217   4.5316   4.5740   4.6221   4.7028   4.7423   4.8019
     4.8394   4.8563   4.8647   4.8864   4.8920   4.9035   4.9210   4.9240
     4.9282   4.9335   4.9398   4.9485   4.9653   4.9812   5.0279   5.0385
     5.0434   5.0895   5.1013   5.1627   5.1633   5.1829   5.2214   5.2459
     5.2700   5.2767   5.3266   5.3653   5.3815   5.4313   5.4344   5.4850
     5.5334   5.5754   5.5803   5.6062   5.6249   5.6319   5.6949   5.7750
     5.7805   5.7940   5.8085   5.8146   5.8281   5.8480   5.8716   5.8806
     5.9371   5.9376   5.9533   5.9838   6.0321   6.0469   6.0752   6.0827
     6.0987   6.1045   6.1110   6.1274   6.1311   6.1584   6.1789   6.1845
     6.1854   6.1903   6.2087   6.2131   6.2420   6.2538   6.2598   6.2647
     6.2826   6.2938   6.2988   6.3124   6.3244   6.3337   6.3380   6.3669
     6.3802   6.4116   6.4162   6.4276   6.4457   6.4724   6.5006   6.5181
     6.5433   6.5780   6.6337   6.6394   6.7012   6.7867   6.8273   6.8441
     6.8521   6.8653   6.8803   6.9143   6.9285   6.9407   6.9670   7.0212
     7.0653   7.0889   7.0950   7.0994   7.1204   7.1651   7.1694   7.2401
     7.3215   7.3264   7.3282   7.3521   7.3573   7.3787   7.3859   7.3897
     7.3999   7.4033   7.4183   7.4333   7.4393   7.4622   7.4644   7.4818
     7.4940   7.5011   7.5139   7.5176   7.5326   7.5328   7.5397   7.5716
     7.6264   7.6681   7.6722   7.7264   7.7580   7.7740   7.8166   7.8519
     7.8658   7.9274   7.9395   7.9517   7.9532   7.9840   8.0008   8.0267
     8.0363   8.0453   8.0635   8.0754   8.0874   8.1058   8.1182   8.1271
     8.1353   8.1523   8.1709   8.1801   8.1825   8.2255   8.2310   8.2340
     8.2539   8.2693   8.2704   8.2780   8.3044   8.3375   8.3521   8.3583
     8.3678   8.3801   8.3899   8.4146   8.4307   8.4454   8.4732   8.5049
     8.5058   8.5199   8.5392   8.5493   8.5601   8.5789   8.5836   8.5898
     8.5954   8.6011   8.6116   8.6415   8.6591   8.6612   8.6632   8.6715
     8.6950   8.6979   8.7067   8.7128   8.7198   8.7311   8.7436   8.7830
     8.7977   8.8152   8.8234   8.8402   8.8419   8.8622   8.8642   8.8682
     8.8720   8.8924   8.8990   8.9290   8.9812   9.0020   9.0143   9.0243
     9.0552   9.0916   9.0920   9.0932   9.1046   9.1286   9.1425   9.1468
     9.1628   9.2074   9.2147   9.2410   9.2649   9.2950   9.3546   9.3761
     9.4020   9.4235   9.4294   9.4390   9.4743   9.5335   9.5687   9.7463
     9.8352   9.9324  10.0452  10.0482  10.2148  10.2501  10.3498  10.4316
    10.6923  10.8315  11.0975  11.1015  11.4013  11.4685  11.5156  11.5484
    12.3769  12.9198  13.0064  13.1974  13.4897  13.5135  13.5422  13.7224
    13.7482  13.8295  14.0152  14.0411  14.1959  14.2349  14.4288  14.5002
    14.5612  14.5806  14.5868  14.5947  14.6572  14.7524  14.8205  14.9620
    14.9966  15.0502  15.1061  15.2222  15.2280  15.3010  15.4189  15.4982
    15.5720  15.6004  15.6554  15.6816  15.7117  15.7132  15.7191  15.7574
    15.7890  15.8243  15.8851  15.9638  15.9991  16.0014  16.0788  16.0966
    16.1260  16.1535  16.1832  16.2309  16.2375  16.2452  16.2571  16.2950
    16.3223  16.3506  16.3586  16.3621  16.3874  16.4035  16.4803  16.4927
    16.5397  16.5711  16.6067  16.6507  16.6874

          k = 0.0000-0.5000 0.0000 ( 73598 PWs)   bands (ev):

   -31.2207 -31.2141 -31.2139 -31.1258 -31.1256 -31.1251 -31.1246 -27.9058
   -15.6989 -15.6815 -15.6735 -15.6563 -15.6230 -15.6021 -15.5929 -15.5924
   -15.5758 -15.5719 -15.5717 -15.5555 -15.5338 -15.5162 -15.4808 -15.4616
   -11.7185 -11.7114 -11.7074 -11.6986 -11.6890 -11.6746 -11.6736 -11.6235
   -11.5340 -11.4531 -11.4439 -11.4426 -11.4349 -11.3687 -11.3167 -11.2951
   -11.2897 -11.2779 -11.2763 -11.2609 -11.2539  -9.3690  -9.3395  -9.3322
    -8.3117  -8.2423  -7.8326  -7.7872  -7.7826  -7.7539  -7.7501  -7.7393
    -7.7177  -7.7103  -7.7002  -7.6336  -7.6088  -7.6028  -7.5662  -7.5591
    -7.5531  -7.4650  -7.4333  -7.3691  -7.3551  -7.3516  -7.3302  -7.3237
    -7.3071  -7.2768  -7.2432  -7.2413  -7.2332  -7.2289  -7.2192  -7.1994
    -7.1462  -7.1310  -7.1113  -7.0116  -6.9633  -6.9594  -6.9002  -6.8910
    -6.8821  -6.8808  -6.8740  -6.8723  -6.8597  -6.8369  -6.7864  -6.7793
    -6.7680  -6.7633  -6.6936  -6.6825  -6.5879  -6.5870  -6.5754  -6.5725
    -1.4036  -1.3865  -1.3771  -1.3642  -1.1926  -1.1778  -1.1532  -1.1343
    -1.1329  -1.1110  -1.0244  -1.0016  -0.9741  -0.9688  -0.9674  -0.9618
    -0.9567  -0.9384  -0.9305  -0.9242  -0.8940  -0.8834  -0.8806  -0.8679
    -0.8539  -0.8519  -0.8317  -0.8248  -0.8095  -0.7952  -0.7927  -0.7802
    -0.7685  -0.7664  -0.7611  -0.7453  -0.5537  -0.5416  -0.5251  -0.5154
    -0.5136  -0.4992  -0.4981  -0.4973  -0.4925  -0.4789  -0.4601  -0.4518
     3.0331   3.1490   3.6252   3.7150   3.8250   3.8667   3.9101   3.9381
     4.0975   4.1123   4.1252   4.1384   4.1450   4.1750   4.1833   4.2211
     4.6073   4.6144   4.6154   4.6425   4.6556   4.6568   4.6920   4.7018
     4.7350   4.8134   4.8594   4.8987   4.8989   4.9041   4.9056   4.9244
     4.9318   4.9631   4.9840   4.9950   5.0016   5.0240   5.0625   5.1050
     5.1130   5.1134   5.1329   5.1335   5.1400   5.1917   5.2505   5.2588
     5.2721   5.2948   5.3608   5.3843   5.4044   5.4310   5.4361   5.5459
     5.5615   5.5987   5.6127   5.6299   5.6341   5.6362   5.6444   5.6503
     5.6559   5.6587   5.7150   5.7188   5.7578   5.7742   5.7946   5.8037
     5.8394   5.8423   5.9836   5.9851   6.0017   6.0334   6.0370   6.0449
     6.1246   6.1299   6.1775   6.1910   6.2065   6.2091   6.2140   6.2153
     6.2166   6.2241   6.2303   6.2880   6.2900   6.2940   6.2940   6.2953
     6.3116   6.3253   6.3375   6.3573   6.3800   6.3809   6.4150   6.4296
     6.4337   6.4364   6.4453   6.4846   6.5137   6.5221   6.5247   6.5396
     6.5522   6.5787   6.6262   6.6576   6.6976   6.7004   6.7572   6.7609
     6.9927   7.0317   7.0384   7.0573   7.0679   7.0718   7.0782   7.0942
     7.0995   7.0997   7.1037   7.1240   7.1311   7.1372   7.1489   7.1550
     7.1802   7.2215   7.2256   7.2459   7.2474   7.2748   7.2884   7.2947
     7.3461   7.3490   7.3534   7.3571   7.3967   7.4148   7.4351   7.4635
     7.4726   7.4754   7.5050   7.5227   7.5245   7.5406   7.5565   7.5569
     7.5674   7.5758   7.5840   7.6424   7.8171   7.8181   7.8237   7.8261
     7.8393   7.8400   7.8852   7.9438   7.9549   7.9661   7.9662   7.9893
     7.9906   7.9932   8.0113   8.0652   8.0679   8.0748   8.0957   8.1085
     8.1106   8.1306   8.1413   8.1684   8.2149   8.2161   8.2176   8.2256
     8.2306   8.2447   8.2474   8.2529   8.2681   8.2698   8.2823   8.3195
     8.3214   8.3356   8.3667   8.3960   8.3991   8.4632   8.4749   8.4787
     8.4906   8.4908   8.5153   8.5742   8.5860   8.5947   8.6202   8.6328
     8.6357   8.6477   8.6527   8.6547   8.6645   8.6912   8.7098   8.7205
     8.7212   8.7320   8.7360   8.7546   8.7547   8.7718   8.7739   8.7772
     8.7931   8.8343   8.8404   8.8445   8.8548   8.8588   8.9346   8.9386
     8.9590   8.9629   8.9700   8.9744   8.9782   8.9877   9.0098   9.0162
     9.0874   9.0919   9.1330   9.1394   9.2092   9.2188   9.2235   9.2383
     9.2466   9.2862   9.3157   9.3320   9.3561   9.3699   9.3966   9.3992
     9.4831   9.4924   9.5613   9.5673   9.6022   9.6081   9.6383   9.6514
     9.8177   9.8268   9.9308   9.9423   9.9451   9.9641   9.9805   9.9972
    11.1057  11.1236  11.1350  11.1635  11.2205  11.2656  11.2674  11.2746
    12.6826  12.6914  12.9708  13.0423  13.4181  13.5102  13.5950  13.6205
    13.7531  13.8805  13.9478  13.9797  14.3980  14.4305  14.4883  14.5261
    14.5407  14.5597  14.5647  14.5765  14.6517  14.6646  14.6926  14.8313
    14.9439  14.9859  15.1587  15.1817  15.2192  15.2402  15.4894  15.6157
    15.6207  15.6942  15.7335  15.8417  15.8767  15.8970  15.9444  15.9562
    15.9656  15.9705  15.9885  16.0432  16.0797  16.0801  16.1178  16.1253
    16.1686  16.1918  16.2057  16.2212  16.2334  16.3127  16.3344  16.3353
    16.3417  16.3472  16.3670  16.3745  16.3823  16.4390  16.4421  16.4967
    16.5301  16.5564  16.5791  16.7321  16.7330

          k = 0.0000-0.5000 0.2334 ( 73548 PWs)   bands (ev):

   -31.2207 -31.2141 -31.2139 -31.1258 -31.1256 -31.1251 -31.1246 -27.9058
   -15.6995 -15.6820 -15.6729 -15.6558 -15.6235 -15.6016 -15.5934 -15.5929
   -15.5762 -15.5714 -15.5713 -15.5552 -15.5341 -15.5159 -15.4809 -15.4614
   -11.7185 -11.7114 -11.7074 -11.6986 -11.6890 -11.6746 -11.6737 -11.6236
   -11.5340 -11.4531 -11.4439 -11.4426 -11.4349 -11.3687 -11.3168 -11.2951
   -11.2897 -11.2779 -11.2763 -11.2609 -11.2539  -9.3691  -9.3394  -9.3322
    -8.3104  -8.2409  -7.8307  -7.8014  -7.7817  -7.7731  -7.7635  -7.7465
    -7.7312  -7.6761  -7.6542  -7.6354  -7.6089  -7.6052  -7.5655  -7.5595
    -7.5538  -7.4661  -7.4368  -7.3723  -7.3388  -7.3375  -7.3230  -7.3097
    -7.2984  -7.2856  -7.2558  -7.2490  -7.2435  -7.2366  -7.2256  -7.2161
    -7.1520  -7.1251  -7.1089  -7.0140  -6.9742  -6.9705  -6.9112  -6.9020
    -6.8921  -6.8825  -6.8680  -6.8645  -6.8370  -6.8136  -6.7881  -6.7862
    -6.7610  -6.7581  -6.6963  -6.6866  -6.5890  -6.5846  -6.5744  -6.5711
    -1.4045  -1.3849  -1.3782  -1.3621  -1.1875  -1.1733  -1.1560  -1.1371
    -1.1290  -1.1079  -1.0176  -0.9963  -0.9818  -0.9733  -0.9631  -0.9622
    -0.9558  -0.9355  -0.9311  -0.9218  -0.8994  -0.8874  -0.8788  -0.8641
    -0.8595  -0.8582  -0.8357  -0.8285  -0.8122  -0.7944  -0.7922  -0.7781
    -0.7695  -0.7678  -0.7621  -0.7426  -0.5558  -0.5396  -0.5272  -0.5156
    -0.5116  -0.4989  -0.4982  -0.4972  -0.4940  -0.4801  -0.4593  -0.4530
     3.0441   3.1611   3.6056   3.6932   3.8463   3.8921   3.9235   3.9491
     4.0484   4.0703   4.1271   4.1408   4.1471   4.1803   4.1889   4.2294
     4.6074   4.6328   4.6338   4.6426   4.6559   4.6845   4.6919   4.6978
     4.7527   4.7981   4.8586   4.9012   4.9040   4.9067   4.9096   4.9277
     4.9365   4.9635   4.9672   4.9846   4.9983   5.0033   5.0444   5.0937
     5.1062   5.1068   5.1218   5.1324   5.1421   5.2088   5.2334   5.2536
     5.2719   5.2792   5.3013   5.3500   5.3789   5.4801   5.5256   5.5493
     5.5553   5.5997   5.6088   5.6239   5.6240   5.6354   5.6421   5.6449
     5.6713   5.6896   5.7208   5.7238   5.7763   5.8022   5.8026   5.8040
     5.8747   5.8787   6.0100   6.0112   6.0187   6.0452   6.0724   6.0846
     6.1277   6.1323   6.1611   6.1647   6.1732   6.1767   6.1945   6.1997
     6.2046   6.2129   6.2227   6.2810   6.2865   6.2879   6.2915   6.2969
     6.3094   6.3097   6.3282   6.3413   6.3675   6.4025   6.4181   6.4267
     6.4393   6.4437   6.4450   6.4649   6.4830   6.4925   6.5031   6.5239
     6.5261   6.5312   6.5405   6.5423   6.7231   6.7274   6.7403   6.7449
     6.9467   6.9785   6.9924   7.0295   7.0352   7.0637   7.0873   7.0926
     7.1010   7.1049   7.1167   7.1204   7.1307   7.1604   7.2017   7.2046
     7.2318   7.2479   7.2767   7.2802   7.3302   7.3355   7.3595   7.3647
     7.3649   7.3702   7.3716   7.3799   7.3897   7.4066   7.4403   7.4483
     7.4571   7.4583   7.4888   7.4989   7.4995   7.5365   7.5512   7.5760
     7.5933   7.6026   7.6088   7.6552   7.8100   7.8270   7.8496   7.8597
     7.8809   7.8837   7.9061   7.9415   7.9559   7.9932   8.0048   8.0247
     8.0293   8.0350   8.0575   8.0601   8.0803   8.0832   8.1152   8.1178
     8.1217   8.1243   8.1460   8.1570   8.1630   8.1665   8.2018   8.2078
     8.2322   8.2375   8.2405   8.2412   8.2729   8.2759   8.2882   8.3197
     8.3375   8.3448   8.3508   8.3753   8.3847   8.4084   8.4628   8.4750
     8.4917   8.5026   8.5439   8.5680   8.5810   8.5943   8.6231   8.6241
     8.6477   8.6481   8.6527   8.6679   8.6755   8.6909   8.7055   8.7090
     8.7182   8.7380   8.7446   8.7536   8.7552   8.7654   8.7734   8.7893
     8.8008   8.8213   8.8220   8.8503   8.8720   8.8748   8.9304   8.9312
     8.9378   8.9443   8.9545   8.9720   8.9742   8.9784   8.9960   8.9993
     9.0561   9.0685   9.0717   9.0764   9.1096   9.1226   9.1794   9.1898
     9.2349   9.2488   9.2800   9.2855   9.3645   9.3788   9.3869   9.3873
     9.4795   9.4889   9.5382   9.5444   9.6205   9.6282   9.6556   9.6695
     9.8435   9.8522   9.8625   9.8630   9.9383   9.9554  10.0619  10.0753
    11.1139  11.1612  11.2060  11.2238  11.2246  11.2655  11.3109  11.3193
    12.7041  12.7146  13.0467  13.1164  13.3681  13.4658  13.6154  13.6295
    13.7157  13.8513  13.9959  14.0131  14.3661  14.4016  14.4616  14.4672
    14.4977  14.5886  14.5953  14.6132  14.6663  14.6746  14.7256  14.8427
    14.9498  14.9934  15.1131  15.1226  15.1744  15.1790  15.4951  15.6437
    15.6774  15.6990  15.7533  15.7659  15.7745  15.7979  15.8447  15.8726
    15.9243  15.9439  15.9500  15.9609  15.9790  15.9971  16.0099  16.0473
    16.0679  16.1024  16.1308  16.1944  16.2393  16.2766  16.3223  16.3467
    16.3919  16.3968  16.4401  16.4517  16.4597  16.4934  16.5005  16.5156
    16.5165  16.6364  16.7194  16.7253  16.7434

          k = 0.0000-0.5000-0.4668 ( 73560 PWs)   bands (ev):

   -31.2207 -31.2141 -31.2139 -31.1258 -31.1256 -31.1251 -31.1246 -27.9058
   -15.7001 -15.6826 -15.6723 -15.6553 -15.6239 -15.6012 -15.5938 -15.5933
   -15.5765 -15.5710 -15.5708 -15.5548 -15.5344 -15.5155 -15.4811 -15.4613
   -11.7185 -11.7114 -11.7073 -11.6986 -11.6890 -11.6746 -11.6738 -11.6237
   -11.5341 -11.4530 -11.4440 -11.4427 -11.4349 -11.3688 -11.3168 -11.2951
   -11.2896 -11.2779 -11.2763 -11.2609 -11.2539  -9.3692  -9.3394  -9.3322
    -8.3091  -8.2396  -7.8283  -7.8148  -7.7838  -7.7806  -7.7757  -7.7457
    -7.7350  -7.6468  -7.6364  -7.6300  -7.6111  -7.6075  -7.5649  -7.5598
    -7.5545  -7.4667  -7.4393  -7.3718  -7.3354  -7.3116  -7.3023  -7.2901
    -7.2873  -7.2848  -7.2812  -7.2755  -7.2586  -7.2426  -7.2397  -7.2260
    -7.1578  -7.1195  -7.1042  -7.0161  -6.9915  -6.9792  -6.9154  -6.9066
    -6.8971  -6.8867  -6.8620  -6.8533  -6.8239  -6.7978  -6.7912  -6.7896
    -6.7590  -6.7507  -6.6987  -6.6905  -6.5902  -6.5838  -6.5751  -6.5669
    -1.4054  -1.3833  -1.3792  -1.3601  -1.1823  -1.1685  -1.1588  -1.1395
    -1.1252  -1.1048  -1.0046  -0.9955  -0.9847  -0.9842  -0.9665  -0.9563
    -0.9510  -0.9404  -0.9246  -0.9194  -0.9053  -0.8923  -0.8770  -0.8680
    -0.8638  -0.8585  -0.8398  -0.8321  -0.8147  -0.7954  -0.7899  -0.7761
    -0.7720  -0.7706  -0.7608  -0.7402  -0.5575  -0.5379  -0.5289  -0.5159
    -0.5099  -0.4986  -0.4985  -0.4964  -0.4958  -0.4812  -0.4584  -0.4544
     3.0557   3.1741   3.5855   3.6709   3.8721   3.9258   3.9582   3.9836
     3.9845   4.0011   4.1200   4.1433   4.1508   4.1734   4.1986   4.2364
     4.6074   4.6427   4.6517   4.6559   4.6594   4.6898   4.6917   4.7406
     4.7551   4.7719   4.8578   4.9038   4.9082   4.9092   4.9169   4.9297
     4.9380   4.9509   4.9646   4.9746   4.9810   4.9952   5.0277   5.0849
     5.0946   5.1025   5.1064   5.1275   5.1549   5.2263   5.2321   5.2344
     5.2401   5.2689   5.2751   5.3353   5.3922   5.5066   5.5355   5.5402
     5.5685   5.6005   5.6052   5.6243   5.6295   5.6315   5.6341   5.6470
     5.6773   5.7122   5.7332   5.7344   5.7975   5.7989   5.8287   5.8476
     5.9161   5.9264   6.0226   6.0372   6.0550   6.0579   6.1060   6.1093
     6.1230   6.1260   6.1314   6.1383   6.1572   6.1576   6.1914   6.1925
     6.2057   6.2141   6.2228   6.2606   6.2792   6.2827   6.2895   6.2924
     6.2987   6.2994   6.3236   6.3330   6.3453   6.3569   6.3633   6.4063
     6.4372   6.4394   6.4417   6.4457   6.4588   6.4621   6.4699   6.4752
     6.4911   6.5120   6.5268   6.5446   6.7198   6.7232   6.7317   6.7350
     6.9153   6.9463   6.9542   6.9994   7.0299   7.0619   7.0828   7.1017
     7.1098   7.1161   7.1188   7.1250   7.1265   7.1667   7.2145   7.2596
     7.2615   7.2926   7.3015   7.3105   7.3605   7.3713   7.3714   7.3764
     7.4112   7.4113   7.4165   7.4237   7.4268   7.4332   7.4353   7.4383
     7.4410   7.4415   7.4567   7.4610   7.4735   7.5344   7.5487   7.6118
     7.6475   7.6490   7.6784   7.6841   7.8021   7.8268   7.8817   7.8883
     7.9096   7.9379   7.9429   7.9627   7.9777   8.0009   8.0156   8.0158
     8.0205   8.0359   8.0573   8.0707   8.0723   8.0791   8.1117   8.1192
     8.1499   8.1565   8.1632   8.1659   8.1682   8.1739   8.1775   8.1915
     8.1950   8.2007   8.2261   8.2352   8.2732   8.2819   8.2983   8.2993
     8.2994   8.3253   8.3644   8.3845   8.4502   8.4510   8.4583   8.4914
     8.5103   8.5204   8.5591   8.5664   8.5724   8.5856   8.5969   8.6165
     8.6216   8.6427   8.6447   8.6480   8.6555   8.6866   8.6920   8.6998
     8.7052   8.7080   8.7148   8.7553   8.7569   8.7885   8.7963   8.8036
     8.8095   8.8165   8.8325   8.8563   8.8830   8.8879   8.8944   8.9294
     8.9454   8.9465   8.9466   8.9474   8.9555   8.9560   8.9619   8.9853
     9.0097   9.0225   9.0440   9.0500   9.0536   9.0669   9.1391   9.1525
     9.1541   9.1617   9.2158   9.2185   9.3757   9.3794   9.4369   9.4600
     9.4770   9.4863   9.4965   9.4969   9.6396   9.6478   9.6738   9.6881
     9.8058   9.8254   9.8808   9.8904   9.9140   9.9310  10.1100  10.1227
    11.1161  11.1639  11.2168  11.2618  11.3004  11.3085  11.3522  11.3616
    12.7265  12.7393  13.2099  13.2293  13.2436  13.3631  13.6373  13.6427
    13.6756  13.8185  14.0565  14.0581  14.3241  14.3653  14.4092  14.4323
    14.4473  14.6000  14.6078  14.6799  14.6865  14.7787  14.8260  14.9043
    14.9144  14.9294  14.9710  14.9967  15.1321  15.1363  15.4917  15.5995
    15.6358  15.6719  15.7057  15.7176  15.7453  15.8003  15.8430  15.8489
    15.8603  15.9117  15.9156  15.9306  15.9393  15.9462  15.9533  16.0301
    16.1149  16.1245  16.1248  16.2393  16.2522  16.2959  16.3161  16.3526
    16.3838  16.3840  16.4267  16.4314  16.4332  16.4542  16.4551  16.4606
    16.4718  16.5630  16.6483  16.7034  16.7517

          k = 0.2500 0.2500 0.0000 ( 73554 PWs)   bands (ev):

   -31.2207 -31.2143 -31.2137 -31.1257 -31.1256 -31.1254 -31.1245 -27.9058
   -15.7095 -15.6828 -15.6529 -15.6431 -15.6310 -15.6207 -15.6057 -15.5822
   -15.5783 -15.5693 -15.5605 -15.5487 -15.5421 -15.5233 -15.4782 -15.4597
   -11.7752 -11.7183 -11.7066 -11.6904 -11.6853 -11.6841 -11.5903 -11.5627
   -11.5399 -11.4687 -11.4502 -11.4445 -11.4275 -11.4185 -11.3964 -11.3063
   -11.2883 -11.2855 -11.2658 -11.2594 -11.1800  -9.3688  -9.3382  -9.3300
    -8.3954  -8.0588  -8.0009  -7.8237  -7.7986  -7.7911  -7.7632  -7.7119
    -7.6521  -7.6504  -7.6405  -7.6342  -7.6312  -7.6148  -7.5385  -7.5368
    -7.5245  -7.4918  -7.4314  -7.4228  -7.3545  -7.3403  -7.3235  -7.3096
    -7.3060  -7.2940  -7.2888  -7.2663  -7.2301  -7.1984  -7.1974  -7.1965
    -7.1514  -7.1481  -7.1222  -7.0028  -6.9741  -6.9501  -6.9143  -6.8985
    -6.8864  -6.8856  -6.8705  -6.8445  -6.8227  -6.8147  -6.8074  -6.7827
    -6.7793  -6.7608  -6.7419  -6.6495  -6.5898  -6.5888  -6.5735  -6.5707
    -1.4285  -1.3894  -1.3643  -1.2007  -1.1983  -1.1877  -1.1857  -1.1765
    -1.1538  -1.1406  -1.1110  -1.1019  -1.0233  -1.0008  -0.9821  -0.9513
    -0.9385  -0.9308  -0.9041  -0.8993  -0.8871  -0.8641  -0.8615  -0.8533
    -0.8458  -0.8096  -0.7951  -0.7867  -0.7814  -0.7609  -0.7535  -0.7469
    -0.7228  -0.6983  -0.6940  -0.6937  -0.6747  -0.6540  -0.6468  -0.6179
    -0.6076  -0.5585  -0.4632  -0.4618  -0.4555  -0.4503  -0.4254  -0.3757
     2.9148   3.4761   3.5089   3.5344   3.7832   3.9320   3.9787   3.9844
     4.0670   4.1056   4.1087   4.1400   4.1563   4.2249   4.2361   4.3067
     4.4487   4.5210   4.5287   4.5933   4.6514   4.7129   4.7540   4.7583
     4.7723   4.8104   4.8330   4.9036   4.9134   4.9217   4.9219   4.9328
     4.9357   4.9434   4.9551   4.9893   4.9972   5.0205   5.0530   5.0582
     5.0636   5.1353   5.1484   5.1793   5.2084   5.2159   5.2290   5.2786
     5.2957   5.3072   5.3394   5.3578   5.3643   5.4111   5.4115   5.4139
     5.4980   5.5139   5.5365   5.5895   5.5967   5.6227   5.6301   5.6347
     5.6486   5.6496   5.7432   5.7720   5.8604   5.8677   5.8710   5.9532
     5.9791   6.0222   6.0321   6.0414   6.0425   6.0436   6.0528   6.0735
     6.0868   6.0929   6.1196   6.1432   6.1455   6.1704   6.1824   6.1861
     6.2157   6.2299   6.2315   6.2344   6.2492   6.2630   6.2659   6.2682
     6.2826   6.3209   6.3346   6.3451   6.3714   6.3733   6.3985   6.3990
     6.4036   6.4413   6.4442   6.4950   6.5224   6.5469   6.5704   6.5754
     6.6769   6.7206   6.7275   6.7321   6.7335   6.7421   6.7616   6.7835
     6.8076   6.8094   6.8100   6.8746   6.9496   7.0438   7.0459   7.0488
     7.0618   7.1401   7.1610   7.1650   7.1737   7.1770   7.1810   7.1932
     7.1978   7.2158   7.2196   7.2377   7.2829   7.2938   7.3003   7.3023
     7.3090   7.3125   7.3285   7.3517   7.3915   7.4157   7.4365   7.4521
     7.4680   7.4720   7.4993   7.5031   7.5137   7.5554   7.6056   7.6544
     7.6737   7.6990   7.7149   7.7177   7.8222   7.8392   7.8418   7.8424
     7.8698   7.8704   7.8725   7.9059   7.9087   7.9109   7.9146   7.9499
     7.9565   7.9635   8.0134   8.0174   8.0468   8.0840   8.0863   8.1120
     8.1192   8.1348   8.1589   8.1884   8.2116   8.2183   8.2335   8.2467
     8.2629   8.2871   8.2960   8.3070   8.3107   8.3146   8.3168   8.3485
     8.3615   8.3859   8.4030   8.4161   8.4213   8.4248   8.4293   8.4342
     8.4466   8.4590   8.5320   8.5593   8.5658   8.5709   8.5745   8.5905
     8.6107   8.6186   8.6368   8.6377   8.6801   8.6882   8.7055   8.7125
     8.7468   8.7536   8.7649   8.7672   8.7828   8.7842   8.7946   8.8278
     8.8377   8.8392   8.8496   8.8571   8.8617   8.8831   8.8952   8.9152
     8.9285   8.9437   8.9513   8.9546   8.9593   8.9660   8.9774   8.9922
     9.0001   9.0203   9.0674   9.1216   9.1362   9.1552   9.1570   9.2142
     9.2286   9.2428   9.2976   9.3246   9.3696   9.3733   9.3820   9.4158
     9.4304   9.4311   9.4889   9.5353   9.5372   9.6190   9.6497   9.7935
     9.8568   9.8569   9.8921   9.8937   9.9448   9.9620  10.5149  10.5332
    10.6918  10.7054  11.0906  11.2045  11.2109  11.2931  11.3383  11.4280
    12.4440  12.7676  13.3056  13.3116  13.3592  13.4527  13.4633  13.6159
    13.6876  13.7910  13.8957  14.0898  14.1338  14.1893  14.3003  14.3378
    14.5480  14.5583  14.7087  14.7596  14.7697  14.8428  14.9796  14.9929
    15.0486  15.1149  15.1469  15.1692  15.1872  15.2367  15.4426  15.4515
    15.6140  15.6167  15.6435  15.7567  15.7803  15.8275  15.8576  15.8707
    15.8736  15.9646  15.9736  15.9906  16.0439  16.0666  16.0823  16.0847
    16.1858  16.2646  16.2693  16.2714  16.2934  16.3209  16.3217  16.3559
    16.3950  16.4472  16.4507  16.4898  16.5073  16.5380  16.5658  16.5740
    16.6003  16.6269  16.6323  16.6574  16.6852

          k = 0.2500 0.2500 0.2334 ( 73526 PWs)   bands (ev):

   -31.2207 -31.2143 -31.2137 -31.1257 -31.1256 -31.1254 -31.1245 -27.9058
   -15.7101 -15.6822 -15.6534 -15.6436 -15.6305 -15.6202 -15.6062 -15.5818
   -15.5787 -15.5697 -15.5601 -15.5483 -15.5424 -15.5229 -15.4784 -15.4595
   -11.7752 -11.7183 -11.7066 -11.6904 -11.6853 -11.6842 -11.5903 -11.5628
   -11.5399 -11.4687 -11.4502 -11.4446 -11.4275 -11.4185 -11.3965 -11.3063
   -11.2883 -11.2855 -11.2658 -11.2594 -11.1800  -9.3689  -9.3382  -9.3300
    -8.3937  -8.0581  -8.0000  -7.8429  -7.8221  -7.7937  -7.7143  -7.7047
    -7.6638  -7.6508  -7.6449  -7.6405  -7.6240  -7.6047  -7.5373  -7.5364
    -7.5228  -7.4892  -7.4272  -7.4243  -7.3429  -7.3396  -7.3204  -7.3105
    -7.2952  -7.2880  -7.2844  -7.2787  -7.2465  -7.2156  -7.2050  -7.1969
    -7.1626  -7.1444  -7.1177  -7.0067  -6.9798  -6.9486  -6.9343  -6.9115
    -6.8870  -6.8661  -6.8486  -6.8476  -6.8343  -6.8184  -6.7886  -6.7830
    -6.7820  -6.7638  -6.7322  -6.6525  -6.5892  -6.5865  -6.5741  -6.5691
    -1.4264  -1.3911  -1.3644  -1.1985  -1.1917  -1.1888  -1.1830  -1.1775
    -1.1463  -1.1362  -1.1102  -1.0965  -1.0201  -1.0011  -0.9921  -0.9596
    -0.9448  -0.9178  -0.9104  -0.9050  -0.8942  -0.8695  -0.8637  -0.8594
    -0.8382  -0.8064  -0.7940  -0.7901  -0.7831  -0.7591  -0.7570  -0.7491
    -0.7216  -0.6955  -0.6944  -0.6903  -0.6758  -0.6531  -0.6452  -0.6198
    -0.6081  -0.5577  -0.4656  -0.4607  -0.4578  -0.4484  -0.4251  -0.3750
     2.9250   3.4918   3.4925   3.5513   3.7910   3.9365   3.9563   3.9566
     4.0384   4.1080   4.1238   4.1339   4.1590   4.2355   4.2502   4.3240
     4.4376   4.5146   4.5497   4.5937   4.6501   4.7154   4.7440   4.7613
     4.7906   4.8173   4.8231   4.9071   4.9116   4.9147   4.9222   4.9281
     4.9436   4.9446   4.9687   4.9694   5.0044   5.0161   5.0354   5.0463
     5.0640   5.1212   5.1278   5.1550   5.1670   5.2084   5.2182   5.2383
     5.2911   5.3107   5.3633   5.3685   5.3799   5.4157   5.4358   5.4884
     5.5267   5.5372   5.5710   5.5752   5.5778   5.5800   5.6204   5.6225
     5.6423   5.7173   5.7592   5.7850   5.8729   5.8896   5.9053   5.9464
     5.9728   6.0304   6.0404   6.0454   6.0601   6.0692   6.0697   6.0813
     6.0999   6.1001   6.1264   6.1447   6.1494   6.1567   6.1581   6.1683
     6.1810   6.1889   6.2117   6.2293   6.2349   6.2549   6.2569   6.2685
     6.2741   6.3307   6.3413   6.3561   6.3690   6.3778   6.3975   6.4044
     6.4094   6.4321   6.4416   6.4593   6.4717   6.4944   6.5287   6.5328
     6.6444   6.6562   6.6911   6.7002   6.7226   6.7275   6.7650   6.7690
     6.7883   6.8038   6.8232   6.8260   6.9209   7.0428   7.0439   7.0620
     7.0660   7.1292   7.1533   7.1546   7.1629   7.2151   7.2162   7.2423
     7.2432   7.2621   7.2654   7.2846   7.3184   7.3276   7.3398   7.3416
     7.3461   7.3520   7.3665   7.3999   7.4091   7.4164   7.4350   7.4454
     7.4577   7.4858   7.4860   7.4916   7.5209   7.5666   7.6049   7.6595
     7.6849   7.7080   7.7348   7.7399   7.7694   7.8033   7.8267   7.8849
     7.8895   7.8970   7.9082   7.9171   7.9231   7.9259   7.9372   7.9536
     7.9569   7.9647   8.0454   8.0530   8.0739   8.0873   8.0938   8.1131
     8.1177   8.1290   8.1754   8.1796   8.2147   8.2281   8.2360   8.2491
     8.2581   8.2687   8.2896   8.2900   8.3157   8.3213   8.3248   8.3466
     8.3738   8.3982   8.4024   8.4117   8.4159   8.4184   8.4352   8.4407
     8.4462   8.4925   8.5114   8.5473   8.5686   8.5811   8.5867   8.5977
     8.6051   8.6130   8.6193   8.6449   8.6901   8.6983   8.7005   8.7063
     8.7423   8.7441   8.7556   8.7598   8.7627   8.7768   8.8011   8.8117
     8.8131   8.8255   8.8320   8.8342   8.8521   8.8567   8.8612   8.8935
     8.9115   8.9120   8.9362   8.9441   8.9538   8.9880   8.9883   8.9999
     9.0120   9.0239   9.0629   9.0856   9.1332   9.1339   9.1475   9.1494
     9.1668   9.2136   9.2318   9.2915   9.3000   9.3503   9.3662   9.4081
     9.4200   9.4216   9.4358   9.5695   9.5696   9.5747   9.6313   9.7994
     9.8015   9.8303   9.8467   9.9625   9.9637  10.0825  10.5188  10.5373
    10.6868  10.7004  11.1906  11.2713  11.2743  11.3298  11.3394  11.4282
    12.4632  12.8628  13.2864  13.3357  13.3476  13.4691  13.4798  13.6345
    13.6507  13.7960  13.9042  14.0633  14.1704  14.1891  14.2639  14.4070
    14.5122  14.5610  14.7235  14.7273  14.7762  14.8475  14.9144  14.9933
    15.0044  15.0773  15.1105  15.1408  15.2088  15.2424  15.4709  15.4802
    15.4913  15.5326  15.5682  15.6278  15.6822  15.7428  15.7745  15.8146
    15.9187  15.9192  15.9732  16.0112  16.0114  16.0299  16.0725  16.0870
    16.1134  16.1958  16.2297  16.2655  16.3194  16.3300  16.3457  16.3536
    16.4238  16.4341  16.4488  16.5010  16.5368  16.5866  16.6030  16.6215
    16.6294  16.6550  16.6798  16.6857  16.7047

          k = 0.2500 0.2500-0.4668 ( 73560 PWs)   bands (ev):

   -31.2207 -31.2143 -31.2137 -31.1257 -31.1256 -31.1254 -31.1245 -27.9058
   -15.7106 -15.6816 -15.6539 -15.6441 -15.6300 -15.6197 -15.6066 -15.5814
   -15.5791 -15.5700 -15.5597 -15.5479 -15.5427 -15.5226 -15.4786 -15.4594
   -11.7752 -11.7183 -11.7066 -11.6904 -11.6853 -11.6843 -11.5904 -11.5629
   -11.5399 -11.4687 -11.4502 -11.4446 -11.4275 -11.4185 -11.3965 -11.3063
   -11.2883 -11.2855 -11.2658 -11.2594 -11.1800  -9.3690  -9.3382  -9.3300
    -8.3920  -8.0575  -7.9991  -7.8644  -7.8205  -7.7963  -7.7157  -7.6713
    -7.6691  -7.6545  -7.6470  -7.6439  -7.6175  -7.5998  -7.5373  -7.5326
    -7.5220  -7.4867  -7.4278  -7.4210  -7.3417  -7.3316  -7.3100  -7.2998
    -7.2964  -7.2836  -7.2800  -7.2796  -7.2779  -7.2333  -7.2119  -7.1973
    -7.1752  -7.1380  -7.1139  -7.0089  -6.9867  -6.9501  -6.9472  -6.9204
    -6.8816  -6.8564  -6.8509  -6.8445  -6.8325  -6.8147  -6.7856  -6.7824
    -6.7790  -6.7653  -6.7238  -6.6551  -6.5899  -6.5843  -6.5768  -6.5649
    -1.4242  -1.3929  -1.3645  -1.1960  -1.1902  -1.1850  -1.1799  -1.1787
    -1.1380  -1.1317  -1.1091  -1.0905  -1.0166  -1.0078  -0.9924  -0.9672
    -0.9513  -0.9169  -0.9109  -0.9080  -0.9011  -0.8782  -0.8655  -0.8630
    -0.8316  -0.8035  -0.7990  -0.7874  -0.7849  -0.7608  -0.7567  -0.7511
    -0.7205  -0.6975  -0.6908  -0.6868  -0.6770  -0.6523  -0.6434  -0.6219
    -0.6086  -0.5569  -0.4672  -0.4603  -0.4594  -0.4471  -0.4248  -0.3742
     2.9358   3.4743   3.5109   3.5704   3.7999   3.9019   3.9242   3.9879
     4.0232   4.0685   4.1356   4.1459   4.1625   4.2437   4.2660   4.3449
     4.4243   4.4968   4.5819   4.5940   4.6488   4.7183   4.7377   4.7648
     4.7920   4.8135   4.8510   4.9028   4.9039   4.9123   4.9216   4.9325
     4.9375   4.9467   4.9555   4.9829   4.9903   5.0253   5.0253   5.0355
     5.0505   5.1090   5.1092   5.1108   5.1324   5.2086   5.2156   5.2455
     5.3007   5.3134   5.3703   5.3790   5.3975   5.4233   5.4615   5.4947
     5.5381   5.5461   5.5487   5.5642   5.5644   5.5855   5.6088   5.6192
     5.7173   5.7374   5.7792   5.8337   5.8905   5.9085   5.9351   5.9424
[...]
    10.6851  10.6898  10.6985  10.7085  11.2299  11.3348  11.4268  11.4615
    12.5033  12.7199  13.1547  13.1556  13.3279  13.6421  13.6491  13.7300
    13.7320  13.8150  13.9255  14.0362  14.1105  14.1702  14.2597  14.3242
    14.4257  14.5352  14.6002  14.7850  14.7888  14.8512  14.9367  14.9930
    15.0494  15.0658  15.1306  15.2893  15.3294  15.3389  15.3539  15.4046
    15.4528  15.6206  15.6761  15.7184  15.7294  15.7646  15.8628  15.8656
    15.9168  16.0906  16.1076  16.1077  16.1134  16.1275  16.1429  16.1847
    16.2261  16.2336  16.2826  16.2893  16.3202  16.3422  16.3508  16.3631
    16.3828  16.3881  16.4390  16.4785  16.4913  16.5104  16.5458  16.6182
    16.6256  16.6361  16.6421  16.6444  16.6600

          k = 0.2500-0.2500 0.2334 ( 73526 PWs)   bands (ev):

   -31.2207 -31.2143 -31.2137 -31.1258 -31.1256 -31.1252 -31.1246 -27.9058
   -15.7092 -15.6822 -15.6559 -15.6438 -15.6305 -15.6200 -15.6027 -15.5825
   -15.5820 -15.5676 -15.5597 -15.5488 -15.5419 -15.5228 -15.4789 -15.4595
   -11.7815 -11.7122 -11.7026 -11.6943 -11.6844 -11.6794 -11.5897 -11.5631
   -11.5451 -11.4742 -11.4480 -11.4449 -11.4297 -11.4182 -11.3967 -11.3062
   -11.2840 -11.2815 -11.2690 -11.2557 -11.1839  -9.3689  -9.3345  -9.3336
    -8.3959  -8.0503  -8.0020  -7.8380  -7.8265  -7.8228  -7.7139  -7.7016
    -7.6749  -7.6377  -7.6308  -7.6211  -7.6060  -7.5622  -7.5514  -7.5303
    -7.4968  -7.4931  -7.4503  -7.4440  -7.4195  -7.4040  -7.3399  -7.3328
    -7.3247  -7.3032  -7.2769  -7.2447  -7.1970  -7.1907  -7.1742  -7.1658
    -7.1104  -7.0856  -7.0788  -7.0714  -6.9989  -6.9752  -6.9746  -6.9230
    -6.9209  -6.8898  -6.8654  -6.8458  -6.8194  -6.7925  -6.7822  -6.7815
    -6.7335  -6.7195  -6.7184  -6.6528  -6.6525  -6.6481  -6.5632  -6.5216
    -1.4473  -1.4097  -1.3470  -1.2160  -1.2065  -1.1840  -1.1725  -1.1683
    -1.1630  -1.0439  -1.0414  -1.0196  -1.0148  -0.9856  -0.9855  -0.9757
    -0.9647  -0.9518  -0.9222  -0.8978  -0.8971  -0.8923  -0.8876  -0.8703
    -0.8584  -0.8544  -0.8523  -0.8482  -0.8292  -0.7951  -0.7859  -0.7658
    -0.7385  -0.7241  -0.6774  -0.6481  -0.6348  -0.5998  -0.5927  -0.5400
    -0.5300  -0.5198  -0.5064  -0.4813  -0.4652  -0.4425  -0.4393  -0.4250
     2.9244   3.4887   3.4944   3.5521   3.7301   3.8688   3.9124   3.9532
     3.9807   4.0410   4.0731   4.1994   4.2460   4.3138   4.4380   4.5093
     4.5527   4.5921   4.6466   4.6916   4.7097   4.7184   4.7466   4.7582
     4.7635   4.7738   4.7955   4.8135   4.8310   4.8862   4.9240   4.9247
     4.9358   4.9461   4.9521   4.9543   4.9741   4.9847   5.0081   5.0210
     5.0271   5.0488   5.0603   5.1189   5.1228   5.1456   5.1955   5.2184
     5.2190   5.2427   5.3021   5.3191   5.3226   5.3631   5.3883   5.4167
     5.4385   5.4746   5.5110   5.6267   5.6326   5.6531   5.6725   5.7030
     5.7142   5.7143   5.8098   5.8743   5.9027   5.9294   5.9790   6.0096
     6.0125   6.0251   6.0271   6.0434   6.0621   6.0797   6.0879   6.1009
     6.1189   6.1229   6.1233   6.1252   6.1326   6.1436   6.1734   6.1847
     6.2342   6.2417   6.2524   6.2584   6.2593   6.2606   6.2726   6.3097
     6.3351   6.3357   6.3375   6.3535   6.3570   6.3599   6.3677   6.4023
     6.4032   6.4067   6.4199   6.4222   6.4332   6.4434   6.5017   6.5159
     6.5392   6.5396   6.7018   6.7138   6.7221   6.7574   6.7631   6.7765
     6.7934   6.8091   6.9346   6.9692   6.9948   7.0326   7.0513   7.0625
     7.0845   7.0882   7.1128   7.1284   7.1414   7.1539   7.1853   7.2079
     7.2683   7.2822   7.3050   7.3086   7.3123   7.3193   7.3200   7.3357
     7.3497   7.3725   7.3856   7.4272   7.4321   7.4356   7.4563   7.4802
     7.4804   7.4840   7.4846   7.5029   7.5311   7.5491   7.5537   7.5888
     7.6269   7.6356   7.6700   7.7761   7.7985   7.8493   7.8556   7.8606
     7.8650   7.8739   7.8955   7.9166   7.9173   7.9248   7.9284   7.9370
     7.9517   7.9720   7.9883   8.0799   8.0930   8.0935   8.1018   8.1168
     8.1221   8.1305   8.1496   8.2004   8.2280   8.2417   8.2566   8.2582
     8.2730   8.2771   8.2786   8.3072   8.3078   8.3272   8.3284   8.3637
     8.3912   8.4026   8.4175   8.4231   8.4358   8.4419   8.4937   8.4993
     8.5033   8.5101   8.5432   8.5618   8.5643   8.5682   8.5768   8.5880
     8.6057   8.6218   8.6371   8.6539   8.6651   8.6687   8.6778   8.6887
     8.7029   8.7042   8.7266   8.7400   8.7596   8.7616   8.7792   8.7813
     8.7927   8.7951   8.8122   8.8196   8.8199   8.8539   8.8632   8.8690
     8.8847   8.8978   8.9050   8.9400   8.9664   8.9794   9.0096   9.0431
     9.0827   9.0909   9.1159   9.1189   9.1412   9.1495   9.1571   9.1830
     9.1975   9.2108   9.2434   9.2566   9.2813   9.2836   9.3229   9.3275
     9.3522   9.3639   9.3813   9.4206   9.4895   9.5978   9.5985   9.6303
     9.6860   9.8557   9.8558   9.9297  10.5199  10.5385  10.6628  10.6723
    10.7158  10.7183  10.7697  10.7725  11.3281  11.3504  11.4264  11.5102
    12.5132  12.8244  13.1826  13.1844  13.2670  13.6462  13.6531  13.6733
    13.7571  13.8094  13.9205  14.0367  14.1243  14.1650  14.1832  14.3914
    14.4515  14.5870  14.6026  14.7631  14.7864  14.8546  14.9259  14.9938
    14.9947  15.1108  15.1396  15.2641  15.2937  15.3988  15.4174  15.4404
    15.4642  15.5438  15.6399  15.6700  15.7047  15.7049  15.7209  15.7650
    15.7742  15.9185  15.9664  15.9980  16.0449  16.1004  16.1559  16.1647
    16.2216  16.2392  16.2414  16.2644  16.2713  16.2922  16.2934  16.3426
    16.3518  16.3621  16.3971  16.4261  16.5091  16.5339  16.5434  16.5637
    16.5884  16.6244  16.6291  16.6427  16.6605

          k = 0.2500-0.2500-0.4668 ( 73560 PWs)   bands (ev):

   -31.2207 -31.2143 -31.2137 -31.1258 -31.1256 -31.1252 -31.1246 -27.9058
   -15.7098 -15.6816 -15.6564 -15.6442 -15.6300 -15.6196 -15.6031 -15.5829
   -15.5815 -15.5680 -15.5592 -15.5484 -15.5422 -15.5225 -15.4790 -15.4593
   -11.7815 -11.7122 -11.7026 -11.6943 -11.6845 -11.6794 -11.5898 -11.5632
   -11.5451 -11.4742 -11.4480 -11.4450 -11.4297 -11.4183 -11.3967 -11.3062
   -11.2840 -11.2815 -11.2690 -11.2557 -11.1839  -9.3690  -9.3345  -9.3336
    -8.3944  -8.0491  -8.0007  -7.8481  -7.8315  -7.8291  -7.7108  -7.6882
    -7.6760  -7.6410  -7.6297  -7.6238  -7.6056  -7.5601  -7.5298  -7.5211
    -7.5058  -7.4916  -7.4487  -7.4412  -7.4251  -7.3998  -7.3410  -7.3304
    -7.3102  -7.3045  -7.2923  -7.2392  -7.1991  -7.1954  -7.1792  -7.1752
    -7.1092  -7.0979  -7.0787  -7.0698  -6.9958  -6.9840  -6.9591  -6.9554
    -6.9399  -6.8883  -6.8544  -6.8378  -6.8154  -6.7846  -6.7823  -6.7746
    -6.7257  -6.7187  -6.7151  -6.6556  -6.6533  -6.6501  -6.5660  -6.5181
    -1.4473  -1.4098  -1.3490  -1.2136  -1.2035  -1.1779  -1.1741  -1.1700
    -1.1586  -1.0374  -1.0372  -1.0081  -1.0037  -1.0003  -0.9862  -0.9742
    -0.9703  -0.9477  -0.9282  -0.9052  -0.8978  -0.8967  -0.8832  -0.8798
    -0.8591  -0.8560  -0.8554  -0.8427  -0.8304  -0.7994  -0.7884  -0.7705
    -0.7354  -0.7211  -0.6781  -0.6473  -0.6367  -0.6006  -0.5922  -0.5375
    -0.5321  -0.5191  -0.5071  -0.4807  -0.4644  -0.4416  -0.4409  -0.4268
     2.9378   3.4645   3.5040   3.5642   3.7746   3.8161   3.9162   3.9391
     3.9717   4.0488   4.0741   4.1924   4.2805   4.3587   4.4020   4.4609
     4.5717   4.5926   4.6447   4.6945   4.7147   4.7224   4.7403   4.7641
     4.7645   4.7696   4.8011   4.8233   4.8410   4.8890   4.9233   4.9238
     4.9260   4.9340   4.9521   4.9607   4.9766   4.9796   5.0080   5.0170
     5.0320   5.0580   5.0590   5.1043   5.1291   5.1400   5.1824   5.2179
     5.2200   5.2327   5.2921   5.2959   5.2997   5.3501   5.3872   5.4127
     5.4434   5.4475   5.5122   5.6179   5.6184   5.6422   5.7435   5.7514
     5.7779   5.7853   5.8594   5.8804   5.9284   5.9604   5.9678   5.9950
     6.0157   6.0264   6.0278   6.0399   6.0616   6.0693   6.0729   6.1150
     6.1241   6.1254   6.1276   6.1313   6.1397   6.1655   6.1766   6.1783
     6.2426   6.2435   6.2520   6.2540   6.2583   6.2594   6.2662   6.2850
     6.2878   6.2920   6.3023   6.3444   6.3478   6.3520   6.3560   6.3568
     6.3799   6.3873   6.3913   6.4197   6.4290   6.4306   6.4588   6.5105
     6.5142   6.5247   6.6497   6.6700   6.7102   6.7224   6.7626   6.7672
     6.7762   6.8516   6.9150   6.9288   6.9947   7.0326   7.0545   7.0717
     7.0719   7.0818   7.1171   7.1185   7.1392   7.1436   7.1736   7.2652
     7.3120   7.3165   7.3333   7.3556   7.3591   7.3681   7.3704   7.3833
     7.3966   7.4208   7.4238   7.4297   7.4307   7.4352   7.4363   7.4591
     7.4602   7.4662   7.5115   7.5130   7.5323   7.5640   7.5855   7.5889
     7.6327   7.7003   7.7245   7.7525   7.7557   7.8661   7.8705   7.8898
     7.8966   7.9047   7.9082   7.9119   7.9178   7.9206   7.9328   7.9511
     7.9758   8.0072   8.0390   8.0642   8.0823   8.0869   8.1070   8.1328
     8.1340   8.1363   8.1887   8.1912   8.2045   8.2218   8.2238   8.2532
     8.2653   8.2742   8.2918   8.3028   8.3403   8.3790   8.3868   8.3913
     8.4016   8.4189   8.4315   8.4453   8.4564   8.4660   8.4673   8.4694
     8.4748   8.4992   8.5080   8.5291   8.5315   8.5708   8.5709   8.5845
     8.6065   8.6077   8.6222   8.6301   8.6606   8.6763   8.7013   8.7018
     8.7054   8.7070   8.7123   8.7236   8.7275   8.7278   8.7347   8.7388
     8.7470   8.7863   8.7891   8.8329   8.8385   8.8395   8.8468   8.8655
     8.8673   8.9146   8.9198   8.9224   8.9622   8.9932   9.0077   9.0345
     9.0373   9.0814   9.0880   9.0909   9.0940   9.1001   9.1067   9.1308
     9.1723   9.2202   9.2476   9.2645   9.2689   9.2693   9.2829   9.2965
     9.3015   9.3327   9.3605   9.4177   9.4881   9.6294   9.6357   9.6489
     9.7053   9.8250   9.8263   9.9099  10.5263  10.5452  10.6564  10.6662
    10.7493  10.7519  10.8215  10.8218  11.3367  11.4179  11.4615  11.5567
    12.5237  13.0542  13.0737  13.2140  13.2150  13.6051  13.6536  13.6570
    13.7881  13.8058  13.9123  14.0349  14.1267  14.1472  14.1494  14.4053
    14.5725  14.6225  14.6992  14.7050  14.7352  14.7870  14.8571  14.9954
    15.0177  15.2026  15.2184  15.2439  15.3041  15.3264  15.4032  15.4085
    15.4818  15.5253  15.5454  15.5483  15.5757  15.6167  15.7110  15.8371
    15.8419  15.8931  15.9000  15.9301  15.9423  16.0195  16.1115  16.1132
    16.1189  16.1839  16.1886  16.2181  16.2506  16.2555  16.2803  16.2853
    16.3228  16.3922  16.4045  16.4090  16.4131  16.4464  16.4997  16.5268
    16.5471  16.5921  16.6030  16.6698  16.6721

     the Fermi energy is     9.6791 ev

!    total energy              =   -6848.98891590 Ry
     Harris-Foulkes estimate   =   -6848.98890778 Ry
     estimated scf accuracy    <       0.00000062 Ry

     The total energy is the sum of the following terms:

     one-electron contribution =   -2079.36794070 Ry
     hartree contribution      =    1806.41300858 Ry
     xc contribution           =   -2361.12772600 Ry
     ewald contribution        =   -4214.88661774 Ry
     smearing contrib. (-TS)   =      -0.01964004 Ry

     convergence has been achieved in  18 iterations

     negative rho (up, down):  3.137E-01 0.000E+00

     Forces acting on atoms (cartesian axes, Ry/au):

     atom    1 type  3   force =     0.00023798   -0.00029576   -0.00004444
     atom    2 type  3   force =     0.00029576   -0.00023798   -0.00004444
     atom    3 type  4   force =     0.00077675   -0.00077675   -0.00002594
     atom    4 type  4   force =     0.00007458   -0.00043932   -0.00002621
     atom    5 type  4   force =     0.00005419   -0.00150291    0.01144327
     atom    6 type  4   force =     0.00150291   -0.00005419    0.01144327
     atom    7 type  1   force =    -0.00143099    0.00143099    0.00062399
     atom    8 type  1   force =     0.00000000    0.00000000    0.01123245
     atom    9 type  3   force =    -0.00000333    0.01492794   -0.00164167
     atom   10 type  3   force =    -0.01492794    0.00000333   -0.00164167
     atom   11 type  4   force =     0.01526893   -0.01526893   -0.01522673
     atom   12 type  4   force =     0.00082509   -0.00136745   -0.00270943
     atom   13 type  4   force =     0.01527284    0.01527284   -0.01930888
     atom   14 type  4   force =     0.00081656    0.00135808   -0.00661563
     atom   15 type  5   force =    -0.00909068    0.00909068    0.00001972
     atom   16 type  2   force =     0.00000000    0.00000000   -0.00001409
     atom   17 type  4   force =     0.01535412   -0.01535412    0.01626036
     atom   18 type  4   force =     0.00081946   -0.00137253    0.00371378
     atom   19 type  4   force =     0.01518526    0.01518526    0.01838841
     atom   20 type  4   force =     0.00082253    0.00135268    0.00571697
     atom   21 type  3   force =     0.00013183    0.01493056    0.00162141
     atom   22 type  3   force =    -0.01493056   -0.00013183    0.00162141
     atom   23 type  1   force =    -0.00142850    0.00142850   -0.00061375
     atom   24 type  1   force =     0.00000000    0.00000000   -0.01121238
     atom   25 type  4   force =     0.00005575   -0.00150067   -0.01146151
     atom   26 type  4   force =     0.00150067   -0.00005575   -0.01146151
     atom   27 type  3   force =    -0.00023798    0.00029576   -0.00004444
     atom   28 type  3   force =     0.00024311    0.00012286   -0.00004264
     atom   29 type  4   force =    -0.00043932    0.00007458   -0.00002621
     atom   30 type  4   force =     0.00042007   -0.00042007   -0.00002930
     atom   31 type  4   force =    -0.00005419    0.00150291    0.01144327
     atom   32 type  4   force =     0.00003481   -0.00000154    0.01281666
     atom   33 type  1   force =    -0.00135435   -0.00135435    0.00075850
     atom   34 type  1   force =     0.00000000    0.00000000   -0.00097005
     atom   35 type  3   force =     0.00000333   -0.01492794   -0.00164167
     atom   36 type  3   force =    -0.00013648   -0.00003323   -0.00381641
     atom   37 type  4   force =    -0.00136745    0.00082509   -0.00270943
     atom   38 type  4   force =     0.00102785   -0.00102785   -0.00347934
     atom   39 type  4   force =    -0.00135808   -0.00081656   -0.00661563
     atom   40 type  4   force =     0.00103422    0.00103422   -0.00735263
     atom   41 type  5   force =    -0.00925284   -0.00925284   -0.00006884
     atom   42 type  5   force =     0.00000000    0.00000000   -0.00002438
     atom   43 type  4   force =    -0.00137253    0.00081946    0.00371378
     atom   44 type  4   force =     0.00103439   -0.00103439    0.00446068
     atom   45 type  4   force =    -0.00135268   -0.00082253    0.00571697
     atom   46 type  4   force =     0.00102764    0.00102764    0.00647519
     atom   47 type  3   force =    -0.00013183   -0.01493056    0.00162141
     atom   48 type  3   force =    -0.00013737   -0.00005943    0.00380045
     atom   49 type  1   force =    -0.00135575   -0.00135575   -0.00072719
     atom   50 type  1   force =     0.00000000    0.00000000    0.00099084
     atom   51 type  4   force =    -0.00005575    0.00150067   -0.01146151
     atom   52 type  4   force =     0.00003371    0.00000385   -0.01283096
     atom   53 type  3   force =    -0.00012286   -0.00024311   -0.00004264
     atom   54 type  3   force =    -0.00029576    0.00023798   -0.00004444
     atom   55 type  4   force =    -0.00007458    0.00043932   -0.00002621
     atom   56 type  4   force =    -0.00077675    0.00077675   -0.00002594
     atom   57 type  4   force =     0.00000154   -0.00003481    0.01281666
     atom   58 type  4   force =    -0.00150291    0.00005419    0.01144327
     atom   59 type  1   force =     0.00135435    0.00135435    0.00075850
     atom   60 type  1   force =     0.00000000    0.00000000   -0.00097005
     atom   61 type  3   force =     0.00003323    0.00013648   -0.00381641
     atom   62 type  3   force =     0.01492794   -0.00000333   -0.00164167
     atom   63 type  4   force =    -0.00082509    0.00136745   -0.00270943
     atom   64 type  4   force =    -0.01526893    0.01526893   -0.01522673
     atom   65 type  4   force =    -0.00081656   -0.00135808   -0.00661563
     atom   66 type  4   force =    -0.01527284   -0.01527284   -0.01930888
     atom   67 type  5   force =     0.00925284    0.00925284   -0.00006884
     atom   68 type  5   force =     0.00000000    0.00000000   -0.00002438
     atom   69 type  4   force =    -0.00081946    0.00137253    0.00371378
     atom   70 type  4   force =    -0.01535412    0.01535412    0.01626036
     atom   71 type  4   force =    -0.00082253   -0.00135268    0.00571697
     atom   72 type  4   force =    -0.01518526   -0.01518526    0.01838841
     atom   73 type  3   force =     0.00005943    0.00013737    0.00380045
     atom   74 type  3   force =     0.01493056    0.00013183    0.00162141
     atom   75 type  1   force =     0.00135575    0.00135575   -0.00072719
     atom   76 type  1   force =     0.00000000    0.00000000    0.00099084
     atom   77 type  4   force =    -0.00000385   -0.00003371   -0.01283096
     atom   78 type  4   force =    -0.00150067    0.00005575   -0.01146151
     atom   79 type  3   force =     0.00012286    0.00024311   -0.00004264
     atom   80 type  3   force =    -0.00024311   -0.00012286   -0.00004264
     atom   81 type  4   force =    -0.00042007    0.00042007   -0.00002930
     atom   82 type  4   force =     0.00043932   -0.00007458   -0.00002621
     atom   83 type  4   force =    -0.00000154    0.00003481    0.01281666
     atom   84 type  4   force =    -0.00003481    0.00000154    0.01281666
     atom   85 type  1   force =     0.00143099   -0.00143099    0.00062399
     atom   86 type  1   force =     0.00000000    0.00000000   -0.00100415
     atom   87 type  3   force =    -0.00003323   -0.00013648   -0.00381641
     atom   88 type  3   force =     0.00013648    0.00003323   -0.00381641
     atom   89 type  4   force =    -0.00102785    0.00102785   -0.00347934
     atom   90 type  4   force =     0.00136745   -0.00082509   -0.00270943
     atom   91 type  4   force =    -0.00103422   -0.00103422   -0.00735263
     atom   92 type  4   force =     0.00135808    0.00081656   -0.00661563
     atom   93 type  5   force =     0.00909068   -0.00909068    0.00001972
     atom   94 type  5   force =     0.00000000    0.00000000   -0.00002333
     atom   95 type  4   force =    -0.00103439    0.00103439    0.00446068
     atom   96 type  4   force =     0.00137253   -0.00081946    0.00371378
     atom   97 type  4   force =    -0.00102764   -0.00102764    0.00647519
     atom   98 type  4   force =     0.00135268    0.00082253    0.00571697
     atom   99 type  3   force =    -0.00005943   -0.00013737    0.00380045
     atom  100 type  3   force =     0.00013737    0.00005943    0.00380045
     atom  101 type  1   force =     0.00142850   -0.00142850   -0.00061375
     atom  102 type  1   force =     0.00000000    0.00000000    0.00102561
     atom  103 type  4   force =     0.00000385    0.00003371   -0.01283096
     atom  104 type  4   force =    -0.00003371   -0.00000385   -0.01283096

     Total force =     0.110105     Total SCF correction =     0.003158


     Computing stress (Cartesian axis) and pressure


     negative rho (up, down):  3.137E-01 0.000E+00
          total   stress  (Ry/bohr**3)                   (kbar)     P=        1.75
  -0.00002615   0.00011696   0.00000000           -3.85       17.21        0.00
   0.00011696  -0.00002615   0.00000000           17.21       -3.85        0.00
   0.00000000   0.00000000   0.00008798            0.00        0.00       12.94


     number of scf cycles    =   2
     number of bfgs steps    =   1

     energy   old            =   -6849.0292119827 Ry
     energy   new            =   -6848.9889159028 Ry

     CASE: energy  _new > energy  _old


 %%%%%%%%%%%%%%%%%%%%%%%%%%%%%%%%%%%%%%%%%%%%%%%%%%%%%%%%%%%%%%%%%%%%%%%%%%%%%%
     Error in routine bfgs (1):
     dE0s is positive which should never happen
 %%%%%%%%%%%%%%%%%%%%%%%%%%%%%%%%%%%%%%%%%%%%%%%%%%%%%%%%%%%%%%%%%%%%%%%%%%%%%%

     stopping ...
