
     Program PWSCF v.6.5 starts on  3May2021 at 21:34:37 

     This program is part of the open-source Quantum ESPRESSO suite
     for quantum simulation of materials; please cite
         "P. Giannozzi et al., J. Phys.:Condens. Matter 21 395502 (2009);
         "P. Giannozzi et al., J. Phys.:Condens. Matter 29 465901 (2017);
          URL http://www.quantum-espresso.org", 
     in publications or presentations arising from this work. More details at
     http://www.quantum-espresso.org/quote

     Parallel version (MPI), running on    80 processors

     MPI processes distributed on     5 nodes
     R & G space division:  proc/nbgrp/npool/nimage =      80
     Reading input from dYBCO_rt2_111_0vac_NOcleave_0sep_555.pwi

     Current dimensions of program PWSCF are:
     Max number of different atomic species (ntypx) = 10
     Max number of k-points (npk) =  40000
     Max angular momentum in pseudopotentials (lmaxx) =  3

     Subspace diagonalization in iterative solution of the eigenvalue problem:
     one sub-group per band group will be used
     scalapack distributed-memory algorithm (size of sub-group:  8*  8 procs)

     Message from routine setup:
     using ibrav=0 with symmetry is DISCOURAGED, use correct ibrav instead
 
     Parallelization info
     --------------------
     sticks:   dense  smooth     PW     G-vecs:    dense   smooth      PW
     Min         303     101     26                38211     7353     990
     Max         304     102     27                38220     7358     997
     Sum       24309    8109   2145              3057233   588385   79471
 


     bravais-lattice index     =            0
     lattice parameter (alat)  =      20.6056  a.u.
     unit-cell volume          =    9371.6055 (a.u.)^3
     number of atoms/cell      =          104
     number of atomic types    =            5
     number of electrons       =       847.00
     number of Kohn-Sham states=          509
     kinetic-energy cutoff     =      60.0000  Ry
     charge density cutoff     =     720.0000  Ry
     convergence threshold     =      1.0E-06
     mixing beta               =       0.2000
     number of iterations used =           10  local-TF  mixing
     Exchange-correlation= SLA PW PBE PBE
                           (   1   4   3   4   0   0   0)
     nstep                     =          300


     celldm(1)=  20.605642  celldm(2)=   0.000000  celldm(3)=   0.000000
     celldm(4)=   0.000000  celldm(5)=   0.000000  celldm(6)=   0.000000

     crystal axes: (cart. coord. in units of alat)
               a(1) = (   1.000000   0.000000   0.000000 )  
               a(2) = (   0.000000   1.000000   0.000000 )  
               a(3) = (   0.000000   0.000000   1.071163 )  

     reciprocal axes: (cart. coord. in units 2 pi/alat)
               b(1) = (  1.000000  0.000000  0.000000 )  
               b(2) = (  0.000000  1.000000  0.000000 )  
               b(3) = (  0.000000  0.000000  0.933565 )  


     PseudoPot. # 1 for Ba read from file:
     ./pseudo/Ba.pbe-nsp-van.UPF
     MD5 check sum: 2b9c31dd849566dd297d80989662b7a0
     Pseudo is Ultrasoft + core correction, Zval = 10.0
     Generated by new atomic code, or converted to UPF format
     Using radial grid of  907 points,  6 beta functions with: 
                l(1) =   0
                l(2) =   0
                l(3) =   1
                l(4) =   1
                l(5) =   2
                l(6) =   2
     Q(r) pseudized with  6 coefficients,  rinner =    1.200   1.200   1.200
                                                       1.200   1.200

     PseudoPot. # 2 for Ca read from file:
     ./pseudo/Ca.pbe-nsp-van.UPF
     MD5 check sum: 6471098428ff4fa451746d08035ff179
     Pseudo is Ultrasoft + core correction, Zval = 10.0
     Generated by new atomic code, or converted to UPF format
     Using radial grid of  845 points,  6 beta functions with: 
                l(1) =   0
                l(2) =   0
                l(3) =   1
                l(4) =   1
                l(5) =   2
                l(6) =   2
     Q(r) pseudized with  6 coefficients,  rinner =    1.200   1.200   1.200
                                                       1.200   1.200

     PseudoPot. # 3 for Cu read from file:
     ./pseudo/Cu.pbe-n-van_ak.UPF
     MD5 check sum: 34e3282627ffb533726feb647e090d62
     Pseudo is Ultrasoft + core correction, Zval = 11.0
     Generated by new atomic code, or converted to UPF format
     Using radial grid of  867 points,  6 beta functions with: 
                l(1) =   0
                l(2) =   0
                l(3) =   1
                l(4) =   1
                l(5) =   2
                l(6) =   2
     Q(r) pseudized with  8 coefficients,  rinner =    1.400   1.400   1.400
                                                       1.400   1.400

     PseudoPot. # 4 for O  read from file:
     ./pseudo/O.pbe-van_ak.UPF
     MD5 check sum: 783ce7fe4c79b6a4916957118fed0856
     Pseudo is Ultrasoft, Zval =  6.0
     Generated by new atomic code, or converted to UPF format
     Using radial grid of  737 points,  4 beta functions with: 
                l(1) =   0
                l(2) =   0
                l(3) =   1
                l(4) =   1
     Q(r) pseudized with  8 coefficients,  rinner =    0.800   0.800   0.800


     PseudoPot. # 5 for Y  read from file:
     ./pseudo/Y.pbe-nsp-van.UPF
     MD5 check sum: 4412fed3ab108fed87a1b7d6a69a4a38
     Pseudo is Ultrasoft + core correction, Zval = 11.0
     Generated by new atomic code, or converted to UPF format
     Using radial grid of  885 points,  6 beta functions with: 
                l(1) =   0
                l(2) =   0
                l(3) =   1
                l(4) =   1
                l(5) =   2
                l(6) =   2
     Q(r) pseudized with  6 coefficients,  rinner =    1.200   1.200   1.200
                                                       1.200   1.200

     atomic species   valence    mass     pseudopotential
        Ba            10.00   137.32700     Ba( 1.00)
        Ca            10.00    40.07800     Ca( 1.00)
        Cu            11.00    63.54600     Cu( 1.00)
        O              6.00    15.99900     O ( 1.00)
        Y             11.00    88.90584     Y ( 1.00)

      4 Sym. Ops. (no inversion) found ( 3 have fractional translation)



   Cartesian axes

     site n.     atom                  positions (alat units)
         1           Cu  tau(   1) = (   0.0000000   0.0000000   0.0000000  )
         2           Cu  tau(   2) = (   0.2500001   0.2500001   0.0000000  )
         3           O   tau(   3) = (   0.1249996   0.1249996   0.0000000  )
         4           O   tau(   4) = (   0.3749997   0.3749997   0.0000000  )
         5           O   tau(   5) = (   0.0000000   0.0000000   0.1705075  )
         6           O   tau(   6) = (   0.2500001   0.2500001   0.1705075  )
         7           Ba  tau(   7) = (   0.2500001   0.0000000   0.1934623  )
         8           Ba  tau(   8) = (   0.0000000   0.2500001   0.1934623  )
         9           Cu  tau(   9) = (   0.0000000   0.0000000   0.3784635  )
        10           Cu  tau(  10) = (   0.2500001   0.2500001   0.3784635  )
        11           O   tau(  11) = (   0.1249996   0.1249996   0.4052747  )
        12           O   tau(  12) = (   0.3749997   0.3749997   0.4052747  )
        13           O   tau(  13) = (   0.1249996   0.3749997   0.4063459  )
        14           O   tau(  14) = (   0.3749997   0.1249996   0.4063459  )
        15           Y   tau(  15) = (   0.2500001   0.0000000   0.5355815  )
        16           Ca  tau(  16) = (   0.0000000   0.2500001   0.5355815  )
        17           O   tau(  17) = (   0.1249996   0.1249996   0.6648171  )
        18           O   tau(  18) = (   0.3749997   0.3749997   0.6648171  )
        19           O   tau(  19) = (   0.1249996   0.3749997   0.6658883  )
        20           O   tau(  20) = (   0.3749997   0.1249996   0.6658883  )
        21           Cu  tau(  21) = (   0.0000000   0.0000000   0.6926995  )
        22           Cu  tau(  22) = (   0.2500001   0.2500001   0.6926995  )
        23           Ba  tau(  23) = (   0.2500001   0.0000000   0.8777007  )
        24           Ba  tau(  24) = (   0.0000000   0.2500001   0.8777007  )
        25           O   tau(  25) = (   0.0000000   0.0000000   0.9006555  )
        26           O   tau(  26) = (   0.2500001   0.2500001   0.9006555  )
        27           Cu  tau(  27) = (   0.0000000   0.5000002   0.0000000  )
        28           Cu  tau(  28) = (   0.2500001   0.7500003   0.0000000  )
        29           O   tau(  29) = (   0.1249996   0.6249998   0.0000000  )
        30           O   tau(  30) = (   0.3749997   0.8749999   0.0000000  )
        31           O   tau(  31) = (   0.0000000   0.5000002   0.1705075  )
        32           O   tau(  32) = (   0.2500001   0.7500003   0.1705075  )
        33           Ba  tau(  33) = (   0.2500001   0.5000002   0.1934623  )
        34           Ba  tau(  34) = (   0.0000000   0.7500003   0.1934623  )
        35           Cu  tau(  35) = (   0.0000000   0.5000002   0.3784635  )
        36           Cu  tau(  36) = (   0.2500001   0.7500003   0.3784635  )
        37           O   tau(  37) = (   0.1249996   0.6249998   0.4052747  )
        38           O   tau(  38) = (   0.3749997   0.8749999   0.4052747  )
        39           O   tau(  39) = (   0.1249996   0.8749999   0.4063459  )
        40           O   tau(  40) = (   0.3749997   0.6249998   0.4063459  )
        41           Y   tau(  41) = (   0.2500001   0.5000002   0.5355815  )
        42           Y   tau(  42) = (   0.0000000   0.7500003   0.5355815  )
        43           O   tau(  43) = (   0.1249996   0.6249998   0.6648171  )
        44           O   tau(  44) = (   0.3749997   0.8749999   0.6648171  )
        45           O   tau(  45) = (   0.1249996   0.8749999   0.6658883  )
        46           O   tau(  46) = (   0.3749997   0.6249998   0.6658883  )
        47           Cu  tau(  47) = (   0.0000000   0.5000002   0.6926995  )
        48           Cu  tau(  48) = (   0.2500001   0.7500003   0.6926995  )
        49           Ba  tau(  49) = (   0.2500001   0.5000002   0.8777007  )
        50           Ba  tau(  50) = (   0.0000000   0.7500003   0.8777007  )
        51           O   tau(  51) = (   0.0000000   0.5000002   0.9006555  )
        52           O   tau(  52) = (   0.2500001   0.7500003   0.9006555  )
        53           Cu  tau(  53) = (   0.5000002   0.0000000   0.0000000  )
        54           Cu  tau(  54) = (   0.7500003   0.2500001   0.0000000  )
        55           O   tau(  55) = (   0.6249998   0.1249996   0.0000000  )
        56           O   tau(  56) = (   0.8749999   0.3749997   0.0000000  )
        57           O   tau(  57) = (   0.5000002   0.0000000   0.1705075  )
        58           O   tau(  58) = (   0.7500003   0.2500001   0.1705075  )
        59           Ba  tau(  59) = (   0.7500003   0.0000000   0.1934623  )
        60           Ba  tau(  60) = (   0.5000002   0.2500001   0.1934623  )
        61           Cu  tau(  61) = (   0.5000002   0.0000000   0.3784635  )
        62           Cu  tau(  62) = (   0.7500003   0.2500001   0.3784635  )
        63           O   tau(  63) = (   0.6249998   0.1249996   0.4052747  )
        64           O   tau(  64) = (   0.8749999   0.3749997   0.4052747  )
        65           O   tau(  65) = (   0.6249998   0.3749997   0.4063459  )
        66           O   tau(  66) = (   0.8749999   0.1249996   0.4063459  )
        67           Y   tau(  67) = (   0.7500003   0.0000000   0.5355815  )
        68           Y   tau(  68) = (   0.5000002   0.2500001   0.5355815  )
        69           O   tau(  69) = (   0.6249998   0.1249996   0.6648171  )
        70           O   tau(  70) = (   0.8749999   0.3749997   0.6648171  )
        71           O   tau(  71) = (   0.6249998   0.3749997   0.6658883  )
        72           O   tau(  72) = (   0.8749999   0.1249996   0.6658883  )
        73           Cu  tau(  73) = (   0.5000002   0.0000000   0.6926995  )
        74           Cu  tau(  74) = (   0.7500003   0.2500001   0.6926995  )
        75           Ba  tau(  75) = (   0.7500003   0.0000000   0.8777007  )
        76           Ba  tau(  76) = (   0.5000002   0.2500001   0.8777007  )
        77           O   tau(  77) = (   0.5000002   0.0000000   0.9006555  )
        78           O   tau(  78) = (   0.7500003   0.2500001   0.9006555  )
        79           Cu  tau(  79) = (   0.5000002   0.5000002   0.0000000  )
        80           Cu  tau(  80) = (   0.7500003   0.7500003   0.0000000  )
        81           O   tau(  81) = (   0.6249998   0.6249998   0.0000000  )
        82           O   tau(  82) = (   0.8749999   0.8749999   0.0000000  )
        83           O   tau(  83) = (   0.5000002   0.5000002   0.1705075  )
        84           O   tau(  84) = (   0.7500003   0.7500003   0.1705075  )
        85           Ba  tau(  85) = (   0.7500003   0.5000002   0.1934623  )
        86           Ba  tau(  86) = (   0.5000002   0.7500003   0.1934623  )
        87           Cu  tau(  87) = (   0.5000002   0.5000002   0.3784635  )
        88           Cu  tau(  88) = (   0.7500003   0.7500003   0.3784635  )
        89           O   tau(  89) = (   0.6249998   0.6249998   0.4052747  )
        90           O   tau(  90) = (   0.8749999   0.8749999   0.4052747  )
        91           O   tau(  91) = (   0.6249998   0.8749999   0.4063459  )
        92           O   tau(  92) = (   0.8749999   0.6249998   0.4063459  )
        93           Y   tau(  93) = (   0.7500003   0.5000002   0.5355815  )
        94           Y   tau(  94) = (   0.5000002   0.7500003   0.5355815  )
        95           O   tau(  95) = (   0.6249998   0.6249998   0.6648171  )
        96           O   tau(  96) = (   0.8749999   0.8749999   0.6648171  )
        97           O   tau(  97) = (   0.6249998   0.8749999   0.6658883  )
        98           O   tau(  98) = (   0.8749999   0.6249998   0.6658883  )
        99           Cu  tau(  99) = (   0.5000002   0.5000002   0.6926995  )
       100           Cu  tau( 100) = (   0.7500003   0.7500003   0.6926995  )
       101           Ba  tau( 101) = (   0.7500003   0.5000002   0.8777007  )
       102           Ba  tau( 102) = (   0.5000002   0.7500003   0.8777007  )
       103           O   tau( 103) = (   0.5000002   0.5000002   0.9006555  )
       104           O   tau( 104) = (   0.7500003   0.7500003   0.9006555  )

     number of k points=    27  Gaussian smearing, width (Ry)=  0.0100
                       cart. coord. in units 2pi/alat
        k(    1) = (   0.0000000   0.0000000   0.0000000), wk =   0.0160000
        k(    2) = (   0.0000000   0.0000000   0.1867129), wk =   0.0320000
        k(    3) = (   0.0000000   0.0000000   0.3734259), wk =   0.0320000
        k(    4) = (   0.0000000   0.2000000   0.0000000), wk =   0.0640000
        k(    5) = (   0.0000000   0.2000000   0.1867129), wk =   0.1280000
        k(    6) = (   0.0000000   0.2000000   0.3734259), wk =   0.1280000
        k(    7) = (   0.0000000   0.4000000   0.0000000), wk =   0.0640000
        k(    8) = (   0.0000000   0.4000000   0.1867129), wk =   0.1280000
        k(    9) = (   0.0000000   0.4000000   0.3734259), wk =   0.1280000
        k(   10) = (   0.2000000   0.2000000   0.0000000), wk =   0.0320000
        k(   11) = (   0.2000000   0.2000000   0.1867129), wk =   0.0640000
        k(   12) = (   0.2000000   0.2000000   0.3734259), wk =   0.0640000
        k(   13) = (   0.2000000   0.4000000   0.0000000), wk =   0.0640000
        k(   14) = (   0.2000000   0.4000000   0.1867129), wk =   0.1280000
        k(   15) = (   0.2000000   0.4000000   0.3734259), wk =   0.1280000
        k(   16) = (   0.4000000   0.4000000   0.0000000), wk =   0.0320000
        k(   17) = (   0.4000000   0.4000000   0.1867129), wk =   0.0640000
        k(   18) = (   0.4000000   0.4000000   0.3734259), wk =   0.0640000
        k(   19) = (   0.2000000  -0.2000000   0.0000000), wk =   0.0320000
        k(   20) = (   0.2000000  -0.2000000   0.1867129), wk =   0.0640000
        k(   21) = (   0.2000000  -0.2000000   0.3734259), wk =   0.0640000
        k(   22) = (   0.4000000  -0.2000000   0.0000000), wk =   0.0640000
        k(   23) = (   0.4000000  -0.2000000   0.1867129), wk =   0.1280000
        k(   24) = (   0.4000000  -0.2000000   0.3734259), wk =   0.1280000
        k(   25) = (   0.4000000  -0.4000000   0.0000000), wk =   0.0320000
        k(   26) = (   0.4000000  -0.4000000   0.1867129), wk =   0.0640000
        k(   27) = (   0.4000000  -0.4000000   0.3734259), wk =   0.0640000

     Dense  grid:  3057233 G-vectors     FFT dimensions: ( 180, 180, 192)

     Smooth grid:   588385 G-vectors     FFT dimensions: ( 108, 108, 120)

     Estimated max dynamical RAM per process >     608.02 MB

     Estimated total dynamical RAM >      47.50 GB

     Initial potential from superposition of free atoms

     starting charge  846.43941, renormalised to  847.00000

     negative rho (up, down):  3.034E-01 0.000E+00
     Starting wfcs are  749 randomized atomic wfcs

     total cpu time spent up to now is       37.6 secs

     Self-consistent Calculation

     iteration #  1     ecut=    60.00 Ry     beta= 0.20
     Davidson diagonalization with overlap
     ethr =  1.00E-02,  avg # of iterations =  2.0

     negative rho (up, down):  3.017E-01 0.000E+00

     total cpu time spent up to now is      103.5 secs

     total energy              =   -6851.57461616 Ry
     Harris-Foulkes estimate   =   -6857.20962214 Ry
     estimated scf accuracy    <      41.52361686 Ry

     iteration #  2     ecut=    60.00 Ry     beta= 0.20
     Davidson diagonalization with overlap
     ethr =  4.90E-03,  avg # of iterations =  1.0

     negative rho (up, down):  2.994E-01 0.000E+00

     total cpu time spent up to now is      160.9 secs

     total energy              =   -6846.73481885 Ry
     Harris-Foulkes estimate   =   -6852.66203679 Ry
     estimated scf accuracy    <      18.65627240 Ry

     iteration #  3     ecut=    60.00 Ry     beta= 0.20
     Davidson diagonalization with overlap
     ethr =  2.20E-03,  avg # of iterations =  2.0

     negative rho (up, down):  3.011E-01 0.000E+00

     total cpu time spent up to now is      230.3 secs

     total energy              =   -6849.03359593 Ry
     Harris-Foulkes estimate   =   -6849.32825107 Ry
     estimated scf accuracy    <       1.90432153 Ry

     iteration #  4     ecut=    60.00 Ry     beta= 0.20
     Davidson diagonalization with overlap
     ethr =  2.25E-04,  avg # of iterations =  4.0

     negative rho (up, down):  3.044E-01 0.000E+00

     total cpu time spent up to now is      317.1 secs

     total energy              =   -6848.91909729 Ry
     Harris-Foulkes estimate   =   -6849.24210512 Ry
     estimated scf accuracy    <       1.08972684 Ry

     iteration #  5     ecut=    60.00 Ry     beta= 0.20
     Davidson diagonalization with overlap
     ethr =  1.29E-04,  avg # of iterations =  8.3

     negative rho (up, down):  3.090E-01 0.000E+00

     total cpu time spent up to now is      433.6 secs

     total energy              =   -6848.96749183 Ry
     Harris-Foulkes estimate   =   -6849.01887063 Ry
     estimated scf accuracy    <       0.22278076 Ry

     iteration #  6     ecut=    60.00 Ry     beta= 0.20
     Davidson diagonalization with overlap
     c_bands:  1 eigenvalues not converged
     ethr =  2.63E-05,  avg # of iterations = 10.4

     negative rho (up, down):  3.112E-01 0.000E+00

     total cpu time spent up to now is      564.0 secs

     total energy              =   -6848.97995416 Ry
     Harris-Foulkes estimate   =   -6848.98470688 Ry
     estimated scf accuracy    <       0.03769351 Ry

     iteration #  7     ecut=    60.00 Ry     beta= 0.20
     Davidson diagonalization with overlap
     c_bands:  1 eigenvalues not converged
     c_bands:  1 eigenvalues not converged
     c_bands:  1 eigenvalues not converged
     ethr =  4.45E-06,  avg # of iterations = 13.0

     negative rho (up, down):  3.124E-01 0.000E+00

     total cpu time spent up to now is      748.8 secs

     total energy              =   -6848.98028723 Ry
     Harris-Foulkes estimate   =   -6848.98542077 Ry
     estimated scf accuracy    <       0.01908433 Ry

     iteration #  8     ecut=    60.00 Ry     beta= 0.20
     Davidson diagonalization with overlap
     ethr =  2.25E-06,  avg # of iterations =  4.9

     negative rho (up, down):  3.128E-01 0.000E+00

     total cpu time spent up to now is      858.8 secs

     total energy              =   -6848.98793072 Ry
     Harris-Foulkes estimate   =   -6848.98775188 Ry
     estimated scf accuracy    <       0.02965249 Ry

     iteration #  9     ecut=    60.00 Ry     beta= 0.20
     Davidson diagonalization with overlap
     ethr =  2.25E-06,  avg # of iterations =  1.0

     negative rho (up, down):  3.137E-01 0.000E+00

     total cpu time spent up to now is      916.3 secs

     total energy              =   -6848.98412651 Ry
     Harris-Foulkes estimate   =   -6848.98803683 Ry
     estimated scf accuracy    <       0.02602587 Ry

     iteration # 10     ecut=    60.00 Ry     beta= 0.20
     Davidson diagonalization with overlap
     ethr =  2.25E-06,  avg # of iterations =  4.1

     negative rho (up, down):  3.135E-01 0.000E+00

     total cpu time spent up to now is      994.1 secs

     total energy              =   -6848.98408253 Ry
     Harris-Foulkes estimate   =   -6848.98510673 Ry
     estimated scf accuracy    <       0.00725472 Ry

     iteration # 11     ecut=    60.00 Ry     beta= 0.20
     Davidson diagonalization with overlap
     ethr =  8.57E-07,  avg # of iterations =  2.1

     negative rho (up, down):  3.134E-01 0.000E+00

     total cpu time spent up to now is     1063.0 secs

     total energy              =   -6848.98493676 Ry
     Harris-Foulkes estimate   =   -6848.98478474 Ry
     estimated scf accuracy    <       0.00080916 Ry

     iteration # 12     ecut=    60.00 Ry     beta= 0.20
     Davidson diagonalization with overlap
     ethr =  9.55E-08,  avg # of iterations =  3.0

     negative rho (up, down):  3.133E-01 0.000E+00

     total cpu time spent up to now is     1145.7 secs

     total energy              =   -6848.98493830 Ry
     Harris-Foulkes estimate   =   -6848.98509021 Ry
     estimated scf accuracy    <       0.00156274 Ry

     iteration # 13     ecut=    60.00 Ry     beta= 0.20
     Davidson diagonalization with overlap
     ethr =  9.55E-08,  avg # of iterations =  2.5

     negative rho (up, down):  3.132E-01 0.000E+00

     total cpu time spent up to now is     1213.4 secs

     total energy              =   -6848.98498744 Ry
     Harris-Foulkes estimate   =   -6848.98500083 Ry
     estimated scf accuracy    <       0.00044640 Ry

     iteration # 14     ecut=    60.00 Ry     beta= 0.20
     Davidson diagonalization with overlap
     ethr =  5.27E-08,  avg # of iterations =  2.0

     negative rho (up, down):  3.133E-01 0.000E+00

     total cpu time spent up to now is     1281.6 secs

     total energy              =   -6848.98507670 Ry
     Harris-Foulkes estimate   =   -6848.98503385 Ry
     estimated scf accuracy    <       0.00003882 Ry

     iteration # 15     ecut=    60.00 Ry     beta= 0.20
     Davidson diagonalization with overlap
     ethr =  4.58E-09,  avg # of iterations =  3.0

     negative rho (up, down):  3.133E-01 0.000E+00

     total cpu time spent up to now is     1364.9 secs

     total energy              =   -6848.98511208 Ry
     Harris-Foulkes estimate   =   -6848.98508357 Ry
     estimated scf accuracy    <       0.00002038 Ry

     iteration # 16     ecut=    60.00 Ry     beta= 0.20
     Davidson diagonalization with overlap
     ethr =  2.41E-09,  avg # of iterations =  1.7

     negative rho (up, down):  3.134E-01 0.000E+00

     total cpu time spent up to now is     1427.6 secs

     total energy              =   -6848.98513289 Ry
     Harris-Foulkes estimate   =   -6848.98511315 Ry
     estimated scf accuracy    <       0.00000899 Ry

     iteration # 17     ecut=    60.00 Ry     beta= 0.20
     Davidson diagonalization with overlap
     ethr =  1.06E-09,  avg # of iterations =  1.9

     negative rho (up, down):  3.134E-01 0.000E+00

     total cpu time spent up to now is     1491.9 secs

     total energy              =   -6848.98514491 Ry
     Harris-Foulkes estimate   =   -6848.98513334 Ry
     estimated scf accuracy    <       0.00000615 Ry

     iteration # 18     ecut=    60.00 Ry     beta= 0.20
     Davidson diagonalization with overlap
     ethr =  7.26E-10,  avg # of iterations =  2.9

     negative rho (up, down):  3.133E-01 0.000E+00

     total cpu time spent up to now is     1570.0 secs

     End of self-consistent calculation

          k = 0.0000 0.0000 0.0000 ( 73463 PWs)   bands (ev):

   -31.2272 -31.2206 -31.2197 -31.1318 -31.1316 -31.1314 -31.1301 -27.9114
   -15.7230 -15.6958 -15.6221 -15.6192 -15.6009 -15.5983 -15.5947 -15.5941
   -15.5840 -15.5734 -15.5728 -15.5638 -15.5471 -15.5270 -15.4678 -15.4500
   -11.7904 -11.7840 -11.7167 -11.7016 -11.6957 -11.5497 -11.5463 -11.5444
   -11.5380 -11.4944 -11.4597 -11.4585 -11.4580 -11.4574 -11.4395 -11.4250
   -11.2873 -11.2768 -11.2730 -11.1898 -11.1858  -9.3740  -9.3395  -9.3349
    -8.5177  -7.8592  -7.8385  -7.8337  -7.8314  -7.8275  -7.7744  -7.7628
    -7.7624  -7.6450  -7.6337  -7.6292  -7.6043  -7.5712  -7.5339  -7.5226
    -7.5134  -7.4819  -7.4810  -7.4771  -7.4673  -7.4046  -7.3958  -7.3727
    -7.3645  -7.3170  -7.2562  -7.2258  -7.1918  -7.1851  -7.1752  -7.1585
    -7.1555  -7.0820  -7.0709  -7.0630  -6.9930  -6.9561  -6.9424  -6.9406
    -6.9168  -6.8834  -6.8614  -6.8563  -6.7982  -6.7930  -6.7928  -6.7882
    -6.7004  -6.6845  -6.6821  -6.6811  -6.6802  -6.5930  -6.5552  -6.5044
    -1.5560  -1.5228  -1.4800  -1.2031  -1.2009  -1.1626  -1.1614  -1.1493
    -1.1435  -1.1140  -1.0985  -1.0960  -1.0924  -1.0889  -0.9809  -0.9784
    -0.9741  -0.9740  -0.9576  -0.9321  -0.9254  -0.9197  -0.8936  -0.8926
    -0.8782  -0.8482  -0.8204  -0.7681  -0.7631  -0.7084  -0.7034  -0.6791
    -0.6462  -0.6397  -0.5956  -0.5592  -0.5470  -0.5454  -0.5402  -0.5335
    -0.5309  -0.5266  -0.5154  -0.5020  -0.4584  -0.4356  -0.3945  -0.3350
     2.7317   3.3501   3.7366   3.8366   3.8458   3.8715   3.9283   3.9451
     3.9823   3.9858   4.0546   4.0751   4.2772   4.3193   4.3228   4.3746
     4.3877   4.5485   4.5947   4.7288   4.7292   4.7320   4.7353   4.7675
     4.7869   4.7875   4.7891   4.7984   4.7995   4.8303   4.8521   4.8847
     4.9094   4.9300   4.9360   4.9616   4.9657   4.9708   4.9732   4.9733
     4.9764   5.0710   5.1391   5.1791   5.1871   5.1970   5.2841   5.3361
     5.3491   5.3853   5.4136   5.4223   5.4491   5.4508   5.4854   5.4868
     5.5380   5.5472   5.5678   5.5756   5.5798   5.5876   5.5906   5.6428
     5.7197   5.7440   5.7517   5.7535   5.7635   5.8114   5.8454   5.8512
     5.8818   5.8964   5.9386   5.9397   5.9761   5.9821   5.9996   6.0075
     6.0964   6.1184   6.1238   6.1285   6.1412   6.1591   6.1666   6.2148
     6.2252   6.2290   6.2300   6.2317   6.2581   6.2860   6.2898   6.2930
     6.3061   6.3484   6.3485   6.3556   6.3823   6.3827   6.3827   6.3835
     6.4326   6.4344   6.4512   6.4534   6.4668   6.4963   6.5460   6.5552
     6.6104   6.6217   6.7564   6.7660   6.7661   6.7830   6.8141   6.8149
     6.8201   6.8556   6.9510   6.9546   6.9574   6.9588   6.9918   6.9988
     7.0230   7.0323   7.0518   7.0660   7.1281   7.1319   7.1319   7.1397
     7.1651   7.1826   7.2503   7.2538   7.2640   7.2657   7.2672   7.2718
     7.2975   7.3604   7.3682   7.3928   7.4023   7.4084   7.4343   7.4451
     7.4487   7.5144   7.5438   7.5498   7.5858   7.6075   7.6178   7.6534
     7.6588   7.7265   7.7349   7.7445   7.7483   7.7544   7.7560   7.7597
     7.7599   7.7611   7.7713   7.7964   7.8031   7.8543   7.8943   7.9714
     8.1065   8.1071   8.1104   8.1128   8.1175   8.1330   8.1394   8.1957
     8.2128   8.2190   8.2228   8.2260   8.2572   8.2650   8.2783   8.2885
     8.2897   8.2942   8.2977   8.3017   8.3165   8.3238   8.3291   8.3301
     8.3396   8.3698   8.3702   8.3804   8.3833   8.3879   8.4001   8.4555
     8.4569   8.4802   8.4937   8.5612   8.5851   8.6325   8.6327   8.6401
     8.6461   8.6558   8.6633   8.6877   8.6947   8.7054   8.7064   8.7250
     8.7317   8.7401   8.7405   8.7409   8.7430   8.7462   8.7467   8.7468
     8.7499   8.7518   8.7530   8.7593   8.7793   8.8164   8.8293   8.8434
     8.8569   8.8741   8.9142   8.9548   8.9561   8.9639   9.0073   9.0417
     9.0641   9.0658   9.0908   9.1321   9.1395   9.1496   9.1666   9.2419
     9.2855   9.2925   9.2959   9.3110   9.3190   9.3328   9.4210   9.4264
     9.4327   9.4360   9.4518   9.4595   9.5004   9.5187   9.5850   9.6135
    10.1679  10.1816  10.1821  10.1944  10.3705  10.3839  10.3841  10.3944
    10.6901  10.6907  10.6934  10.6945  11.1769  11.5007  11.5789  11.6595
    12.2308  12.4090  13.1923  13.4747  13.4761  13.4845  13.4935  13.6398
    13.8557  14.0315  14.0487  14.1643  14.1659  14.1683  14.2058  14.3802
    14.5305  14.5327  14.6134  14.6146  14.6155  14.8820  14.9273  14.9552
    14.9978  15.2000  15.2160  15.2376  15.2553  15.3350  15.4648  15.6365
    15.6875  15.7120  15.7432  15.7826  15.8290  15.8314  15.8403  15.8839
    15.9027  15.9137  15.9266  15.9344  15.9380  15.9665  16.0224  16.1215
    16.1450  16.1566  16.1752  16.2279  16.2518  16.2690  16.2804  16.2929
    16.2973  16.3980  16.4138  16.4251  16.4610  16.4651  16.4980  16.5311
    16.5458  16.5556  16.5577  16.5668  16.5871

          k = 0.0000 0.0000 0.1867 ( 73535 PWs)   bands (ev):

   -31.2272 -31.2206 -31.2197 -31.1318 -31.1316 -31.1314 -31.1301 -27.9114
   -15.7234 -15.6953 -15.6224 -15.6195 -15.6005 -15.5980 -15.5950 -15.5944
   -15.5843 -15.5731 -15.5725 -15.5634 -15.5473 -15.5268 -15.4680 -15.4499
   -11.7904 -11.7840 -11.7168 -11.7016 -11.6957 -11.5497 -11.5463 -11.5444
   -11.5380 -11.4944 -11.4597 -11.4585 -11.4580 -11.4574 -11.4396 -11.4250
   -11.2873 -11.2768 -11.2730 -11.1898 -11.1858  -9.3741  -9.3394  -9.3348
    -8.5165  -7.8828  -7.8613  -7.8379  -7.8307  -7.7752  -7.7735  -7.7615
    -7.7546  -7.6459  -7.6360  -7.6308  -7.6110  -7.5679  -7.5306  -7.5236
    -7.5203  -7.4800  -7.4749  -7.4735  -7.4719  -7.4016  -7.3954  -7.3645
    -7.3597  -7.3170  -7.2752  -7.2259  -7.1975  -7.1817  -7.1741  -7.1584
    -7.1583  -7.0952  -7.0715  -7.0661  -6.9877  -6.9563  -6.9472  -6.9436
    -6.9167  -6.8822  -6.8516  -6.8461  -6.7999  -6.7930  -6.7924  -6.7919
    -6.7004  -6.6836  -6.6809  -6.6803  -6.6784  -6.5945  -6.5584  -6.5019
    -1.5561  -1.5227  -1.4800  -1.2007  -1.1972  -1.1610  -1.1554  -1.1476
    -1.1418  -1.1098  -1.1001  -1.0977  -1.0940  -1.0903  -0.9939  -0.9787
    -0.9716  -0.9630  -0.9553  -0.9388  -0.9275  -0.9126  -0.8959  -0.8950
    -0.8845  -0.8566  -0.8136  -0.7683  -0.7677  -0.7089  -0.7038  -0.6787
    -0.6467  -0.6403  -0.5955  -0.5583  -0.5503  -0.5486  -0.5431  -0.5333
    -0.5307  -0.5237  -0.5130  -0.5000  -0.4588  -0.4351  -0.3949  -0.3345
     2.7393   3.3369   3.7471   3.8431   3.8553   3.8735   3.9309   3.9523
     3.9792   3.9935   4.0512   4.0791   4.2629   4.3048   4.3076   4.3576
     4.4097   4.5485   4.5947   4.7310   4.7313   4.7335   4.7375   4.7674
     4.7871   4.7872   4.7891   4.7984   4.7996   4.8303   4.8522   4.8947
     4.9082   4.9324   4.9345   4.9470   4.9492   4.9722   4.9776   4.9906
     4.9922   5.0587   5.1118   5.1134   5.1872   5.1972   5.2871   5.3354
     5.3486   5.4143   5.4204   5.4475   5.4493   5.4816   5.4883   5.4901
     5.5305   5.5412   5.5423   5.5424   5.5720   5.6112   5.6135   5.6267
     5.6811   5.7539   5.7785   5.7799   5.8116   5.8444   5.8450   5.8698
     5.8983   5.8990   5.9398   5.9539   5.9775   5.9986   6.0070   6.0083
     6.1024   6.1224   6.1233   6.1253   6.1461   6.1594   6.1595   6.2142
     6.2271   6.2275   6.2303   6.2334   6.2494   6.2868   6.2927   6.2956
     6.3060   6.3275   6.3408   6.3496   6.3686   6.3691   6.3710   6.3712
     6.4028   6.4196   6.4207   6.4370   6.4433   6.4831   6.4962   6.5444
     6.6009   6.6259   6.6984   6.7095   6.7126   6.7302   6.8071   6.8147
     6.8195   6.8546   6.9074   6.9187   6.9482   6.9589   6.9917   6.9987
     7.0518   7.0551   7.0588   7.0673   7.1582   7.1836   7.2150   7.2159
     7.2165   7.2197   7.2393   7.2480   7.2739   7.2773   7.2783   7.2814
     7.3700   7.3828   7.3920   7.3951   7.4070   7.4146   7.4527   7.4539
     7.4551   7.5166   7.5424   7.5577   7.5833   7.6046   7.6171   7.6460
     7.6505   7.6893   7.7127   7.7172   7.7342   7.7527   7.7735   7.7812
     7.7824   7.7862   7.7874   7.8076   7.8531   7.9014   7.9116   7.9920
     8.0653   8.0977   8.1162   8.1204   8.1397   8.1407   8.1781   8.2007
     8.2140   8.2221   8.2237   8.2308   8.2463   8.2785   8.2839   8.2900
     8.2970   8.3024   8.3037   8.3053   8.3146   8.3281   8.3309   8.3391
     8.3506   8.3730   8.3758   8.3796   8.3839   8.4077   8.4135   8.4594
     8.4653   8.4794   8.4891   8.5588   8.5793   8.5901   8.5950   8.6021
     8.6124   8.6252   8.6304   8.6320   8.6649   8.6971   8.6989   8.7021
     8.7051   8.7261   8.7317   8.7375   8.7383   8.7384   8.7411   8.7564
     8.7688   8.7711   8.7841   8.7890   8.8149   8.8152   8.8278   8.8420
     8.8572   8.8727   8.8948   8.9516   8.9594   8.9640   9.0220   9.0386
     9.0595   9.0779   9.1062   9.1248   9.1269   9.1367   9.1416   9.2369
     9.2453   9.2547   9.2597   9.2798   9.3191   9.3356   9.3867   9.3951
     9.4006   9.4015   9.4029   9.4498   9.4736   9.4993   9.5845   9.6617
    10.1727  10.1865  10.1870  10.1993  10.3682  10.3815  10.3816  10.3919
    10.7220  10.7228  10.7236  10.7261  11.2662  11.5270  11.5790  11.6594
    12.2370  12.4927  13.1455  13.4886  13.4941  13.5024  13.5087  13.5882
    13.8793  13.9716  14.1235  14.1466  14.1468  14.1480  14.1978  14.4242
    14.5369  14.5385  14.6030  14.6188  14.6192  14.7764  14.9274  14.9458
    14.9980  15.2488  15.2663  15.2857  15.2896  15.3844  15.3882  15.4461
    15.6697  15.6928  15.7121  15.7189  15.7285  15.7823  15.8150  15.8885
    15.9098  15.9135  15.9240  15.9455  15.9589  16.0469  16.0485  16.0560
    16.1155  16.1225  16.1628  16.1629  16.2507  16.2662  16.2722  16.2736
    16.2831  16.3101  16.3182  16.3851  16.4027  16.4565  16.4579  16.4623
    16.4773  16.4932  16.5613  16.5638  16.6921

          k = 0.0000 0.0000 0.3734 ( 73610 PWs)   bands (ev):

   -31.2272 -31.2206 -31.2197 -31.1318 -31.1316 -31.1314 -31.1301 -27.9114
   -15.7241 -15.6946 -15.6229 -15.6200 -15.6000 -15.5975 -15.5955 -15.5949
   -15.5848 -15.5726 -15.5720 -15.5630 -15.5476 -15.5264 -15.4682 -15.4497
   -11.7904 -11.7840 -11.7170 -11.7016 -11.6957 -11.5497 -11.5464 -11.5444
   -11.5380 -11.4944 -11.4597 -11.4586 -11.4581 -11.4574 -11.4396 -11.4250
   -11.2873 -11.2768 -11.2730 -11.1898 -11.1858  -9.3743  -9.3394  -9.3348
    -8.5144  -7.9118  -7.8646  -7.8370  -7.8296  -7.7719  -7.7657  -7.7600
    -7.7146  -7.6474  -7.6396  -7.6333  -7.6199  -7.5642  -7.5279  -7.5254
    -7.5245  -7.4787  -7.4770  -7.4717  -7.4648  -7.3977  -7.3946  -7.3646
    -7.3347  -7.3171  -7.3078  -7.2260  -7.2079  -7.1782  -7.1691  -7.1629
    -7.1622  -7.1177  -7.0699  -7.0699  -6.9802  -6.9568  -6.9541  -6.9470
    -6.9167  -6.8802  -6.8406  -6.8325  -6.8025  -6.7979  -6.7918  -6.7892
    -6.7005  -6.6821  -6.6792  -6.6790  -6.6755  -6.5969  -6.5641  -6.4980
    -1.5561  -1.5227  -1.4800  -1.2004  -1.1871  -1.1582  -1.1461  -1.1447
    -1.1390  -1.1027  -1.1011  -1.1003  -1.0966  -1.0927  -1.0065  -0.9751
    -0.9676  -0.9563  -0.9513  -0.9478  -0.9311  -0.9033  -0.8999  -0.8990
    -0.8947  -0.8717  -0.8036  -0.7769  -0.7669  -0.7098  -0.7044  -0.6781
    -0.6475  -0.6412  -0.5953  -0.5568  -0.5545  -0.5523  -0.5470  -0.5366
    -0.5275  -0.5200  -0.5099  -0.4972  -0.4594  -0.4344  -0.3956  -0.3336
     2.7521   3.3152   3.7680   3.8541   3.8693   3.8722   3.9347   3.9656
     3.9749   4.0143   4.0452   4.0838   4.2384   4.2802   4.2815   4.3279
     4.4490   4.5485   4.5947   4.7344   4.7346   4.7359   4.7408   4.7673
     4.7868   4.7875   4.7890   4.7982   4.7999   4.8303   4.8524   4.9058
     4.9131   4.9292   4.9362   4.9391   4.9399   4.9740   4.9797   5.0051
     5.0068   5.0177   5.0674   5.0725   5.1874   5.1976   5.2911   5.3343
     5.3479   5.4156   5.4175   5.4446   5.4468   5.4740   5.4957   5.5119
     5.5137   5.5164   5.5403   5.5677   5.5903   5.6037   5.6213   5.6231
     5.6961   5.8062   5.8119   5.8190   5.8205   5.8427   5.8613   5.9029
     5.9217   5.9402   5.9803   5.9816   5.9969   6.0104   6.0157   6.0446
     6.1116   6.1185   6.1223   6.1290   6.1348   6.1601   6.1626   6.2172
     6.2190   6.2401   6.2417   6.2454   6.2477   6.2785   6.2806   6.2840
     6.2890   6.2976   6.3019   6.3061   6.3164   6.3212   6.3239   6.3390
     6.3425   6.3751   6.4045   6.4046   6.4157   6.4224   6.4961   6.5418
     6.6288   6.6349   6.6376   6.6452   6.6522   6.6674   6.7927   6.8158
     6.8191   6.8540   6.8626   6.8920   6.9473   6.9590   6.9917   6.9985
     7.0518   7.0688   7.0854   7.0876   7.1140   7.1854   7.2232   7.2433
     7.2573   7.2594   7.2596   7.2610   7.3727   7.3804   7.3811   7.3814
     7.3865   7.3929   7.4135   7.4146   7.4245   7.4664   7.4668   7.5120
     7.5205   7.5330   7.5444   7.5697   7.5789   7.5939   7.6001   7.6141
     7.6152   7.6277   7.6397   7.6528   7.7048   7.7686   7.8185   7.8196
     7.8199   7.8227   7.8447   7.8801   7.9020   7.9167   8.0055   8.0200
     8.0530   8.0837   8.1216   8.1224   8.1431   8.1444   8.1976   8.2169
     8.2222   8.2232   8.2289   8.2359   8.2507   8.2605   8.2789   8.2886
     8.3033   8.3181   8.3189   8.3261   8.3288   8.3290   8.3366   8.3619
     8.3661   8.3742   8.3788   8.3875   8.4051   8.4387   8.4443   8.4611
     8.4633   8.4722   8.4784   8.5012   8.5141   8.5285   8.5408   8.5431
     8.5452   8.5562   8.5929   8.6264   8.6678   8.6732   8.6913   8.6990
     8.7045   8.7049   8.7133   8.7331   8.7337   8.7343   8.7377   8.7468
     8.7502   8.8052   8.8093   8.8135   8.8234   8.8253   8.8281   8.8398
     8.8573   8.8704   8.9167   8.9440   8.9623   8.9641   9.0378   9.0437
     9.0491   9.0588   9.0957   9.1188   9.1203   9.1324   9.1415   9.1562
     9.1622   9.1751   9.1795   9.2506   9.2896   9.3233   9.3400   9.3714
     9.3730   9.3731   9.3734   9.4060   9.4469   9.4974   9.5837   9.7095
    10.1806  10.1945  10.1951  10.2074  10.3643  10.3774  10.3774  10.3876
    10.7687  10.7697  10.7707  10.7732  11.4090  11.5679  11.5794  11.6591
    12.2471  12.6980  12.9885  13.4846  13.5256  13.5281  13.5338  13.5353
    13.9123  13.9242  14.1125  14.1131  14.1158  14.1614  14.3091  14.4906
    14.5474  14.5479  14.5579  14.6124  14.6253  14.6256  14.9276  14.9737
    14.9984  15.1434  15.2043  15.3751  15.3924  15.4150  15.4239  15.5046
    15.5611  15.6100  15.6197  15.6579  15.6913  15.7306  15.7847  15.7930
    15.8209  15.8467  15.8586  15.9826  15.9881  16.0086  16.0370  16.0383
    16.0718  16.0978  16.1227  16.1447  16.1698  16.1752  16.1940  16.2301
    16.2318  16.3257  16.3539  16.3877  16.3917  16.3978  16.4203  16.4362
    16.4757  16.4871  16.5200  16.6163  16.6281

          k = 0.0000 0.2000 0.0000 ( 73553 PWs)   bands (ev):

   -31.2272 -31.2206 -31.2198 -31.1318 -31.1316 -31.1313 -31.1302 -27.9114
   -15.7172 -15.6903 -15.6419 -15.6199 -15.6192 -15.5990 -15.5934 -15.5855
   -15.5809 -15.5722 -15.5647 -15.5611 -15.5425 -15.5231 -15.4706 -15.4525
   -11.7782 -11.7718 -11.7080 -11.7011 -11.6950 -11.6116 -11.6007 -11.5757
   -11.5400 -11.4581 -11.4566 -11.4413 -11.4310 -11.4269 -11.4246 -11.4013
   -11.2957 -11.2751 -11.2697 -11.2074 -11.2028  -9.3742  -9.3412  -9.3362
    -8.4776  -7.9980  -7.8435  -7.8385  -7.8180  -7.8089  -7.7744  -7.7597
    -7.6648  -7.6593  -7.6498  -7.6351  -7.6088  -7.5740  -7.5659  -7.5443
    -7.5227  -7.5016  -7.4903  -7.4148  -7.4038  -7.3946  -7.3606  -7.3597
    -7.3575  -7.3287  -7.2622  -7.2304  -7.1923  -7.1817  -7.1708  -7.1661
    -7.1495  -7.1273  -7.1179  -7.0171  -7.0000  -6.9576  -6.9294  -6.9273
    -6.8901  -6.8887  -6.8627  -6.8561  -6.8096  -6.8072  -6.7954  -6.7635
    -6.7560  -6.7168  -6.7125  -6.6435  -6.6239  -6.6102  -6.5571  -6.5177
    -1.5176  -1.4911  -1.4281  -1.2319  -1.2232  -1.2011  -1.1841  -1.1662
    -1.1150  -1.0950  -1.0709  -1.0599  -1.0404  -1.0315  -0.9784  -0.9724
    -0.9681  -0.9406  -0.9338  -0.9307  -0.9234  -0.8912  -0.8907  -0.8883
    -0.8789  -0.8507  -0.8301  -0.7868  -0.7666  -0.7429  -0.7160  -0.7136
    -0.6817  -0.6816  -0.6588  -0.6194  -0.5794  -0.5718  -0.5462  -0.5306
    -0.5268  -0.5180  -0.4844  -0.4697  -0.4490  -0.4426  -0.4142  -0.3697
     2.7896   3.4022   3.5437   3.7659   3.8514   3.9070   3.9289   3.9660
     3.9915   4.0295   4.0771   4.1170   4.2379   4.2781   4.2912   4.4316
     4.4400   4.4680   4.5361   4.5589   4.6068   4.7108   4.7465   4.8182
     4.8199   4.8266   4.8271   4.8543   4.8896   4.8933   4.9068   4.9214
     4.9279   4.9390   4.9471   4.9540   4.9690   4.9751   4.9856   5.0527
     5.0880   5.1060   5.1099   5.1482   5.1682   5.2006   5.2060   5.2807
     5.3065   5.3121   5.3191   5.3858   5.3921   5.4449   5.4636   5.4666
     5.4882   5.5484   5.5831   5.5891   5.6152   5.6454   5.6838   5.7060
     5.7183   5.7455   5.7604   5.7655   5.7830   5.8394   5.8801   5.8838
     5.8922   5.8956   5.9247   5.9302   5.9449   5.9718   6.0177   6.0596
     6.0775   6.0997   6.1299   6.1325   6.1394   6.1530   6.1601   6.1646
     6.2112   6.2191   6.2493   6.2684   6.2714   6.2764   6.2855   6.2861
     6.3052   6.3221   6.3319   6.3575   6.3599   6.3687   6.3707   6.4037
     6.4070   6.4120   6.4746   6.4802   6.5366   6.5425   6.5576   6.6064
     6.6482   6.6611   6.6768   6.6872   6.7029   6.7542   6.7880   6.8799
     6.8964   6.9133   6.9246   6.9526   6.9810   6.9830   6.9965   7.0155
     7.0381   7.0402   7.0442   7.0878   7.1045   7.1230   7.1362   7.1479
     7.1872   7.1908   7.1936   7.2247   7.2921   7.3293   7.3325   7.3399
     7.3407   7.3731   7.3766   7.3801   7.3832   7.3946   7.4225   7.4358
     7.4393   7.4550   7.5063   7.5385   7.5568   7.5930   7.6293   7.6365
     7.6455   7.6498   7.6759   7.7030   7.7052   7.7237   7.7752   7.7914
     7.8041   7.8240   7.8278   7.8866   7.9240   7.9253   7.9701   7.9936
     8.0012   8.0199   8.0417   8.0573   8.0954   8.1022   8.1074   8.1300
     8.1379   8.1669   8.1697   8.1949   8.2003   8.2040   8.2552   8.2592
     8.2633   8.2649   8.2755   8.2916   8.2954   8.3175   8.3481   8.3580
     8.3797   8.3887   8.4054   8.4381   8.4404   8.4629   8.4711   8.5010
     8.5028   8.5118   8.5234   8.5317   8.5378   8.5605   8.5836   8.5883
     8.6036   8.6256   8.6306   8.6462   8.6588   8.6956   8.7069   8.7170
     8.7282   8.7394   8.7422   8.7458   8.7464   8.7516   8.7727   8.7898
     8.7981   8.8030   8.8137   8.8205   8.8263   8.8414   8.8621   8.8637
     8.8867   8.9035   8.9219   8.9647   8.9731   9.0185   9.0324   9.0473
     9.0479   9.1060   9.1126   9.1140   9.1379   9.1747   9.1999   9.2370
     9.2573   9.2764   9.2838   9.3070   9.3491   9.3660   9.3910   9.4211
     9.4241   9.4295   9.4412   9.4476   9.5526   9.5527   9.6170   9.6667
     9.7892  10.0284  10.0692  10.0760  10.2997  10.3045  10.3741  10.4033
    10.5790  10.7390  10.9356  10.9565  11.1773  11.4637  11.4993  11.5823
    12.3119  12.5202  13.2144  13.2460  13.4649  13.5157  13.6039  13.6616
    13.7936  13.8404  14.0963  14.1191  14.1342  14.2181  14.2423  14.3571
    14.5398  14.5689  14.6180  14.6678  14.7090  14.8414  14.9176  14.9649
    14.9913  15.1429  15.1704  15.2981  15.3123  15.3557  15.3925  15.4082
    15.5216  15.6239  15.7194  15.7671  15.8136  15.8418  15.8586  15.8633
    15.9540  15.9705  15.9836  16.0149  16.0267  16.0481  16.1171  16.1361
    16.1449  16.1588  16.1931  16.2032  16.2232  16.2354  16.2642  16.3027
    16.3290  16.3596  16.4225  16.4337  16.4776  16.4891  16.5249  16.5604
    16.5660  16.5725  16.5847  16.6150  16.6431

          k = 0.0000 0.2000 0.1867 ( 73564 PWs)   bands (ev):

   -31.2272 -31.2206 -31.2198 -31.1318 -31.1316 -31.1313 -31.1302 -27.9114
   -15.7176 -15.6899 -15.6422 -15.6202 -15.6188 -15.5987 -15.5937 -15.5858
   -15.5812 -15.5719 -15.5644 -15.5608 -15.5427 -15.5228 -15.4707 -15.4523
   -11.7782 -11.7718 -11.7081 -11.7011 -11.6950 -11.6116 -11.6007 -11.5758
   -11.5400 -11.4581 -11.4566 -11.4414 -11.4310 -11.4269 -11.4246 -11.4013
   -11.2957 -11.2751 -11.2697 -11.2074 -11.2028  -9.3743  -9.3412  -9.3362
    -8.4764  -7.9974  -7.8642  -7.8455  -7.8360  -7.7805  -7.7599  -7.7467
    -7.6670  -7.6589  -7.6529  -7.6378  -7.6134  -7.5735  -7.5626  -7.5405
    -7.5233  -7.5009  -7.4857  -7.4226  -7.4008  -7.3895  -7.3607  -7.3578
    -7.3480  -7.3280  -7.2752  -7.2339  -7.1938  -7.1837  -7.1785  -7.1643
    -7.1476  -7.1305  -7.1216  -7.0254  -6.9911  -6.9630  -6.9427  -6.9308
    -6.8879  -6.8791  -6.8573  -6.8501  -6.8096  -6.8030  -6.7936  -6.7664
    -6.7563  -6.7171  -6.7110  -6.6413  -6.6232  -6.6119  -6.5600  -6.5151
    -1.5174  -1.4912  -1.4284  -1.2307  -1.2241  -1.1962  -1.1820  -1.1642
    -1.1094  -1.0925  -1.0682  -1.0610  -1.0418  -1.0294  -0.9918  -0.9720
    -0.9606  -0.9402  -0.9377  -0.9275  -0.9246  -0.8946  -0.8912  -0.8879
    -0.8840  -0.8584  -0.8240  -0.7862  -0.7715  -0.7449  -0.7170  -0.7138
    -0.6814  -0.6786  -0.6596  -0.6197  -0.5792  -0.5709  -0.5488  -0.5333
    -0.5248  -0.5157  -0.4841  -0.4699  -0.4487  -0.4436  -0.4142  -0.3696
     2.7971   3.3889   3.5521   3.7780   3.8574   3.9132   3.9357   3.9678
     3.9801   4.0204   4.0755   4.1146   4.2520   4.2667   4.2697   4.4471
     4.4522   4.4703   4.5213   4.5589   4.6067   4.7109   4.7463   4.8084
     4.8241   4.8274   4.8309   4.8679   4.8854   4.8935   4.9067   4.9205
     4.9294   4.9319   4.9418   4.9485   4.9590   4.9923   5.0039   5.0411
     5.0907   5.1078   5.1105   5.1253   5.1393   5.1687   5.2077   5.2776
     5.3037   5.3101   5.3148   5.3788   5.4259   5.4533   5.4612   5.4818
     5.4930   5.5571   5.5710   5.5868   5.6153   5.6314   5.6674   5.7294
     5.7460   5.7574   5.7809   5.7855   5.8164   5.8402   5.8699   5.8857
     5.9001   5.9060   5.9324   5.9438   5.9673   5.9914   6.0219   6.0568
     6.0734   6.1035   6.1268   6.1278   6.1380   6.1503   6.1641   6.1767
     6.2098   6.2168   6.2434   6.2520   6.2582   6.2783   6.2815   6.2873
     6.2986   6.3053   6.3220   6.3423   6.3454   6.3583   6.3901   6.3995
     6.4024   6.4083   6.4274   6.4804   6.5045   6.5170   6.5343   6.5370
     6.6114   6.6497   6.6616   6.6707   6.7097   6.7572   6.7705   6.8405
     6.8808   6.8860   6.9039   6.9399   6.9530   6.9601   6.9877   6.9936
     7.0317   7.0656   7.0746   7.0904   7.1028   7.1817   7.1873   7.2213
     7.2283   7.2319   7.2392   7.2603   7.3345   7.3375   7.3389   7.3474
     7.3645   7.3775   7.3818   7.3892   7.3986   7.4023   7.4315   7.4356
     7.4469   7.4722   7.5112   7.5371   7.5542   7.5741   7.6165   7.6222
     7.6465   7.6570   7.6591   7.6854   7.7203   7.7435   7.8026   7.8147
     7.8214   7.8482   7.8615   7.9038   7.9175   7.9417   7.9801   7.9961
     8.0178   8.0299   8.0374   8.0611   8.0870   8.1025   8.1225   8.1335
     8.1565   8.1703   8.1777   8.2026   8.2084   8.2107   8.2526   8.2574
     8.2647   8.2721   8.2848   8.2916   8.3174   8.3229   8.3357   8.3438
     8.3719   8.3913   8.4084   8.4289   8.4407   8.4596   8.4729   8.4756
     8.4829   8.5092   8.5196   8.5402   8.5473   8.5504   8.5798   8.5835
     8.6064   8.6170   8.6214   8.6466   8.6553   8.6580   8.6836   8.7130
     8.7190   8.7301   8.7338   8.7413   8.7494   8.7609   8.7696   8.7820
     8.7920   8.7976   8.8166   8.8263   8.8306   8.8418   8.8581   8.8631
     8.8676   8.8915   8.9104   8.9405   8.9939   9.0079   9.0191   9.0576
     9.0588   9.1089   9.1133   9.1168   9.1302   9.1508   9.1731   9.2158
     9.2268   9.2382   9.2487   9.2887   9.3309   9.3498   9.3748   9.3910
     9.4093   9.4256   9.4293   9.4456   9.4744   9.5516   9.5789   9.7303
     9.8009  10.0237  10.0772  10.0821  10.2846  10.2987  10.4006  10.4425
    10.5817  10.7377  10.9762  10.9889  11.2612  11.4910  11.4998  11.5818
    12.3197  12.5976  13.1942  13.2439  13.4782  13.5206  13.6025  13.6378
    13.8100  13.8442  14.0602  14.0856  14.2007  14.2067  14.2390  14.3890
    14.5481  14.5690  14.6153  14.6486  14.7106  14.8380  14.8441  14.9670
    14.9680  15.1693  15.1931  15.2451  15.3058  15.4006  15.4325  15.4463
    15.5022  15.5287  15.6279  15.7419  15.7718  15.7926  15.8198  15.8366
    15.8783  15.9434  15.9719  15.9816  16.0107  16.0333  16.0648  16.1053
    16.1197  16.1283  16.1880  16.2077  16.2406  16.2719  16.2787  16.2910
    16.3343  16.3734  16.3885  16.4300  16.4768  16.4949  16.5128  16.5376
    16.5597  16.5798  16.5901  16.6125  16.6257

          k = 0.0000 0.2000 0.3734 ( 73576 PWs)   bands (ev):

   -31.2272 -31.2206 -31.2198 -31.1318 -31.1316 -31.1313 -31.1302 -27.9114
   -15.7183 -15.6892 -15.6428 -15.6207 -15.6183 -15.5982 -15.5942 -15.5863
   -15.5817 -15.5714 -15.5639 -15.5603 -15.5431 -15.5225 -15.4710 -15.4521
   -11.7782 -11.7718 -11.7082 -11.7011 -11.6950 -11.6116 -11.6007 -11.5759
   -11.5400 -11.4581 -11.4567 -11.4414 -11.4310 -11.4270 -11.4246 -11.4013
   -11.2958 -11.2751 -11.2697 -11.2074 -11.2028  -9.3744  -9.3412  -9.3361
    -8.4744  -7.9964  -7.8917  -7.8486  -7.8351  -7.7774  -7.7580  -7.7039
    -7.6709  -7.6613  -7.6541  -7.6408  -7.6196  -7.5737  -7.5595  -7.5333
    -7.5240  -7.4983  -7.4796  -7.4308  -7.3997  -7.3830  -7.3592  -7.3584
    -7.3281  -7.3246  -7.3007  -7.2360  -7.2019  -7.1895  -7.1842  -7.1663
    -7.1506  -7.1344  -7.1198  -7.0336  -6.9820  -6.9696  -6.9582  -6.9351
    -6.8858  -6.8748  -6.8493  -6.8394  -6.8099  -6.7953  -6.7897  -6.7703
    -6.7570  -6.7174  -6.7087  -6.6380  -6.6221  -6.6145  -6.5651  -6.5111
    -1.5170  -1.4914  -1.4290  -1.2282  -1.2261  -1.1890  -1.1780  -1.1607
    -1.0991  -1.0883  -1.0635  -1.0625  -1.0441  -1.0256  -1.0035  -0.9756
    -0.9537  -0.9481  -0.9332  -0.9307  -0.9196  -0.9006  -0.8962  -0.8933
    -0.8824  -0.8722  -0.8150  -0.7850  -0.7797  -0.7480  -0.7186  -0.7141
    -0.6810  -0.6743  -0.6607  -0.6202  -0.5789  -0.5696  -0.5521  -0.5367
    -0.5225  -0.5129  -0.4836  -0.4702  -0.4478  -0.4457  -0.4141  -0.3694
     2.8100   3.3670   3.5668   3.8039   3.8627   3.9148   3.9499   3.9703
     3.9726   4.0021   4.0695   4.1139   4.2284   4.2525   4.2807   4.4555
     4.4736   4.4871   4.4942   4.5589   4.6066   4.7109   4.7461   4.8015
     4.8233   4.8308   4.8366   4.8769   4.8841   4.8938   4.9065   4.9202
     4.9290   4.9309   4.9343   4.9507   4.9621   5.0004   5.0156   5.0215
     5.0804   5.0871   5.0957   5.1079   5.1164   5.1680   5.2072   5.2726
     5.2998   5.3047   5.3142   5.3795   5.4042   5.4487   5.4567   5.4747
     5.5222   5.5600   5.5677   5.6108   5.6164   5.6213   5.6825   5.7750
     5.7793   5.7893   5.8072   5.8184   5.8369   5.8484   5.8681   5.8756
     5.8926   5.9340   5.9410   5.9942   6.0241   6.0340   6.0459   6.0504
     6.0787   6.1081   6.1148   6.1176   6.1261   6.1493   6.1723   6.2014
     6.2080   6.2152   6.2170   6.2257   6.2375   6.2634   6.2767   6.2835
     6.2897   6.2930   6.2975   6.3105   6.3135   6.3266   6.3517   6.3540
     6.3842   6.4087   6.4126   6.4322   6.4452   6.4815   6.4839   6.5314
     6.5668   6.6030   6.6376   6.6642   6.7354   6.7562   6.7668   6.7823
     6.8558   6.8826   6.8925   6.9085   6.9276   6.9371   6.9868   6.9904
     7.0285   7.0884   7.0920   7.0999   7.1044   7.1875   7.1899   7.2124
     7.3137   7.3292   7.3367   7.3402   7.3485   7.3570   7.3601   7.3652
     7.3736   7.3841   7.4143   7.4198   7.4314   7.4539   7.4572   7.4648
     7.5005   7.5169   7.5281   7.5308   7.5421   7.5502   7.5533   7.5806
     7.6339   7.6565   7.6694   7.6766   7.7572   7.7710   7.8010   7.8419
     7.8465   7.9058   7.9120   7.9195   7.9556   7.9615   8.0000   8.0077
     8.0305   8.0509   8.0546   8.0689   8.1005   8.1081   8.1194   8.1402
     8.1492   8.1772   8.1924   8.1944   8.2183   8.2412   8.2485   8.2549
     8.2639   8.2685   8.2740   8.2867   8.3135   8.3189   8.3541   8.3611
     8.3728   8.3828   8.4034   8.4110   8.4186   8.4276   8.4706   8.4848
     8.4897   8.5080   8.5222   8.5346   8.5474   8.5644   8.5778   8.5874
     8.5977   8.6015   8.6096   8.6357   8.6438   8.6522   8.6597   8.6733
     8.6797   8.6891   8.7149   8.7198   8.7345   8.7370   8.7419   8.7821
     8.7984   8.7988   8.8269   8.8353   8.8416   8.8427   8.8495   8.8615
     8.8705   8.8848   8.9034   8.9242   9.0019   9.0081   9.0272   9.0377
     9.0725   9.0951   9.0974   9.1109   9.1173   9.1254   9.1307   9.1402
     9.1644   9.1799   9.1985   9.2616   9.2849   9.3209   9.3504   9.3864
     9.3919   9.4096   9.4186   9.4351   9.4429   9.5169   9.5500   9.7861
     9.8202  10.0151  10.0895  10.0923  10.2695  10.2899  10.4393  10.4925
    10.5860  10.7354  11.0369  11.0385  11.3944  11.5011  11.5333  11.5809
    12.3323  12.7898  13.0470  13.2824  13.5012  13.5271  13.5315  13.6685
    13.8279  13.8617  13.9998  14.0648  14.1672  14.2095  14.3826  14.4746
    14.5460  14.5728  14.6009  14.6186  14.6416  14.7134  14.8464  14.9655
    14.9849  15.1419  15.1960  15.2409  15.2778  15.2920  15.4904  15.5169
    15.5357  15.5582  15.6093  15.6284  15.6920  15.6961  15.7264  15.7838
    15.8052  15.8421  15.8906  15.9659  15.9896  16.0122  16.0710  16.0974
    16.1422  16.1586  16.1958  16.2211  16.2440  16.2558  16.2593  16.2805
    16.2837  16.3076  16.3468  16.3807  16.4059  16.4332  16.4524  16.5009
    16.5196  16.5370  16.6044  16.6197  16.6439

          k = 0.0000 0.4000 0.0000 ( 73613 PWs)   bands (ev):

   -31.2272 -31.2204 -31.2200 -31.1317 -31.1315 -31.1311 -31.1305 -27.9114
   -15.7016 -15.6757 -15.6704 -15.6458 -15.6197 -15.5988 -15.5909 -15.5877
   -15.5732 -15.5699 -15.5670 -15.5530 -15.5324 -15.5146 -15.4761 -15.4572
   -11.7434 -11.7371 -11.7022 -11.6961 -11.6862 -11.6819 -11.6682 -11.6199
   -11.5401 -11.4590 -11.4519 -11.4460 -11.4396 -11.3836 -11.3374 -11.3198
   -11.3165 -11.2764 -11.2642 -11.2555 -11.2484  -9.3744  -9.3447  -9.3377
    -8.3685  -8.1882  -7.8390  -7.8031  -7.7928  -7.7775  -7.7565  -7.7423
    -7.7241  -7.6925  -7.6708  -7.6400  -7.6151  -7.6094  -7.5615  -7.5590
    -7.5467  -7.4768  -7.4346  -7.3879  -7.3715  -7.3571  -7.3465  -7.3299
    -7.2896  -7.2751  -7.2745  -7.2658  -7.2292  -7.2144  -7.1981  -7.1871
    -7.1506  -7.1420  -7.1218  -7.0140  -6.9729  -6.9599  -6.9041  -6.8987
    -6.8917  -6.8906  -6.8680  -6.8464  -6.8425  -6.8285  -6.8016  -6.7770
    -6.7550  -6.7444  -6.7123  -6.6550  -6.5997  -6.5879  -6.5640  -6.5523
    -1.4307  -1.4252  -1.3366  -1.3212  -1.2566  -1.1920  -1.1735  -1.1453
    -1.0922  -1.0338  -1.0255  -1.0164  -0.9973  -0.9816  -0.9761  -0.9698
    -0.9537  -0.9304  -0.9161  -0.9143  -0.8855  -0.8752  -0.8658  -0.8647
    -0.8624  -0.8553  -0.8473  -0.8315  -0.8308  -0.8053  -0.7871  -0.7620
    -0.7515  -0.7465  -0.7322  -0.6804  -0.5502  -0.5443  -0.5364  -0.5234
    -0.5161  -0.5119  -0.4970  -0.4964  -0.4729  -0.4542  -0.4465  -0.4323
     2.9512   3.2353   3.5479   3.7914   3.8119   3.8593   3.9054   3.9308
     4.0466   4.0716   4.1071   4.1421   4.1986   4.2048   4.2279   4.2422
     4.5086   4.5634   4.5871   4.6362   4.6488   4.6702   4.6964   4.7217
     4.8082   4.8159   4.8489   4.8846   4.8901   4.9061   4.9167   4.9280
     4.9375   4.9488   4.9708   4.9799   4.9939   5.0004   5.0368   5.0582
     5.0761   5.1147   5.1493   5.1566   5.1780   5.2068   5.2304   5.2471
     5.2994   5.3005   5.3400   5.3852   5.3987   5.4196   5.4284   5.4584
     5.4876   5.5983   5.6031   5.6191   5.6412   5.6515   5.6559   5.6659
     5.6832   5.7191   5.7424   5.7525   5.7766   5.7798   5.7855   5.8143
     5.8336   5.8691   5.8935   5.9889   5.9934   6.0377   6.0833   6.0859
     6.1063   6.1313   6.1697   6.1728   6.1833   6.1859   6.1952   6.2238
     6.2380   6.2382   6.2480   6.2546   6.2589   6.2864   6.2903   6.2986
     6.3053   6.3238   6.3282   6.3534   6.3537   6.3734   6.3981   6.4066
     6.4236   6.4288   6.4456   6.4993   6.5174   6.5220   6.5234   6.5665
     6.5981   6.6244   6.6510   6.6616   6.6708   6.6928   6.7509   6.8441
     6.9763   6.9947   7.0099   7.0153   7.0281   7.0557   7.0625   7.0797
     7.0875   7.0951   7.1032   7.1088   7.1175   7.1250   7.1311   7.1418
     7.1787   7.2225   7.2336   7.2536   7.2715   7.2788   7.2950   7.3247
     7.3386   7.3427   7.3436   7.3632   7.3699   7.4310   7.4337   7.4597
     7.4719   7.4956   7.5046   7.5066   7.5102   7.5232   7.5320   7.5349
     7.5844   7.6220   7.6403   7.6443   7.7592   7.8016   7.8147   7.8320
     7.8459   7.8649   7.8694   7.9209   7.9610   7.9708   7.9729   7.9790
     7.9949   7.9995   8.0059   8.0235   8.0580   8.0802   8.0860   8.0951
     8.1205   8.1259   8.1454   8.1608   8.1754   8.1825   8.2047   8.2177
     8.2544   8.2580   8.2679   8.2740   8.2934   8.2992   8.3132   8.3140
     8.3365   8.3432   8.3800   8.3928   8.4157   8.4445   8.4508   8.4729
     8.4736   8.5049   8.5114   8.5700   8.5768   8.5886   8.5958   8.6205
     8.6359   8.6459   8.6578   8.6723   8.6841   8.6848   8.7036   8.7079
     8.7225   8.7231   8.7290   8.7299   8.7381   8.7462   8.7901   8.7994
     8.8150   8.8224   8.8373   8.8495   8.8677   8.8888   8.8898   8.8964
     8.9197   8.9379   8.9641   8.9875   9.0016   9.0188   9.0349   9.0553
     9.0821   9.0998   9.1222   9.1292   9.1632   9.1765   9.2402   9.2421
     9.2844   9.2906   9.3171   9.3600   9.3886   9.4038   9.4078   9.4172
     9.4348   9.4431   9.4621   9.4736   9.5134   9.6511   9.6960   9.7840
     9.7898   9.8023   9.8325   9.8403  10.0120  10.0874  10.0956  10.0995
    10.9544  11.0714  11.0937  11.1584  11.1850  11.2800  11.3554  11.3745
    12.5372  12.8114  12.8646  13.2108  13.3690  13.5344  13.5756  13.6819
    13.7249  13.8325  13.9200  14.0956  14.3604  14.3714  14.3722  14.3854
    14.5369  14.5629  14.6216  14.6500  14.7028  14.7722  14.7768  14.8137
    14.9378  14.9797  15.1068  15.1771  15.2282  15.2805  15.4635  15.5452
    15.5930  15.7770  15.7806  15.8366  15.8867  15.8877  15.9019  15.9287
    15.9305  15.9880  15.9983  16.0158  16.0164  16.0798  16.0932  16.1476
    16.1505  16.1837  16.1870  16.2078  16.2177  16.2845  16.3070  16.3316
    16.3342  16.3546  16.3607  16.3821  16.4275  16.4445  16.5032  16.5191
    16.5362  16.5902  16.6009  16.6918  16.7502

          k = 0.0000 0.4000 0.1867 ( 73561 PWs)   bands (ev):

   -31.2272 -31.2204 -31.2200 -31.1317 -31.1315 -31.1311 -31.1305 -27.9114
   -15.7020 -15.6753 -15.6708 -15.6455 -15.6201 -15.5985 -15.5912 -15.5880
   -15.5734 -15.5696 -15.5667 -15.5527 -15.5327 -15.5143 -15.4763 -15.4571
   -11.7434 -11.7371 -11.7022 -11.6961 -11.6862 -11.6819 -11.6682 -11.6199
   -11.5401 -11.4590 -11.4520 -11.4460 -11.4396 -11.3836 -11.3374 -11.3198
   -11.3166 -11.2764 -11.2642 -11.2555 -11.2484  -9.3745  -9.3446  -9.3377
    -8.3675  -8.1874  -7.8381  -7.8144  -7.8037  -7.7831  -7.7551  -7.7308
    -7.7214  -7.6978  -7.6452  -7.6403  -7.6145  -7.6110  -7.5612  -7.5593
    -7.5467  -7.4774  -7.4372  -7.3822  -7.3686  -7.3501  -7.3407  -7.3245
    -7.2972  -7.2781  -7.2750  -7.2609  -7.2386  -7.2164  -7.2063  -7.1978
    -7.1558  -7.1366  -7.1199  -7.0162  -6.9745  -6.9680  -6.9252  -6.9038
    -6.8983  -6.8711  -6.8616  -6.8461  -6.8332  -6.8178  -6.8041  -6.7740
    -6.7563  -6.7413  -6.7146  -6.6572  -6.5972  -6.5884  -6.5660  -6.5496
    -1.4312  -1.4243  -1.3376  -1.3196  -1.2581  -1.1881  -1.1707  -1.1426
    -1.0900  -1.0297  -1.0212  -1.0193  -0.9964  -0.9829  -0.9763  -0.9700
    -0.9575  -0.9342  -0.9178  -0.9108  -0.8903  -0.8731  -0.8695  -0.8689
    -0.8582  -0.8541  -0.8521  -0.8324  -0.8286  -0.8031  -0.7891  -0.7646
    -0.7507  -0.7486  -0.7325  -0.6789  -0.5519  -0.5444  -0.5352  -0.5243
    -0.5169  -0.5102  -0.4989  -0.4950  -0.4726  -0.4550  -0.4461  -0.4331
     2.9588   3.2433   3.5344   3.7768   3.8269   3.8721   3.9140   3.9379
     4.0213   4.0736   4.1030   4.1437   4.1597   4.2029   4.2447   4.2518
     4.5255   4.5779   4.5872   4.6361   4.6488   4.6608   4.6963   4.7350
     4.8068   4.8237   4.8483   4.8899   4.8944   4.9071   4.9176   4.9302
     4.9407   4.9489   4.9663   4.9733   4.9792   4.9884   5.0140   5.0709
     5.0856   5.1139   5.1385   5.1487   5.1688   5.1976   5.2209   5.2465
     5.2796   5.3071   5.3344   5.3528   5.3748   5.4196   5.4573   5.4973
     5.5007   5.5987   5.6062   5.6292   5.6319   5.6443   5.6581   5.6777
     5.6898   5.7297   5.7390   5.7681   5.7775   5.7902   5.7968   5.8280
     5.8432   5.8874   5.9258   5.9975   6.0235   6.0421   6.0951   6.1020
     6.1123   6.1321   6.1613   6.1673   6.1716   6.1777   6.1848   6.2097
     6.2180   6.2248   6.2334   6.2415   6.2460   6.2817   6.2843   6.3038
     6.3067   6.3148   6.3227   6.3485   6.3546   6.3871   6.3956   6.4138
     6.4201   6.4336   6.4482   6.4699   6.4980   6.5097   6.5109   6.5366
     6.5508   6.5627   6.5777   6.6710   6.6788   6.6850   6.7702   6.8340
     6.9360   6.9720   6.9926   7.0046   7.0144   7.0337   7.0402   7.0584
     7.0850   7.1010   7.1043   7.1104   7.1266   7.1407   7.1554   7.2129
     7.2466   7.2710   7.2776   7.2829   7.3020   7.3097   7.3320   7.3409
     7.3499   7.3554   7.3585   7.3716   7.3810   7.4262   7.4394   7.4544
     7.4668   7.4867   7.4949   7.5019   7.5088   7.5135   7.5168   7.5548
     7.5801   7.6344   7.6404   7.6629   7.7560   7.8237   7.8286   7.8636
     7.8668   7.8732   7.8973   7.9186   7.9750   7.9940   8.0010   8.0026
     8.0073   8.0165   8.0271   8.0360   8.0715   8.0764   8.0820   8.0934
     8.1046   8.1153   8.1525   8.1671   8.1768   8.1841   8.2009   8.2182
     8.2455   8.2582   8.2599   8.2708   8.2757   8.3090   8.3164   8.3211
     8.3266   8.3446   8.3537   8.3885   8.3903   8.4129   8.4424   8.4654
     8.4894   8.5097   8.5278   8.5603   8.5780   8.5837   8.6009   8.6299
     8.6352   8.6490   8.6570   8.6692   8.6745   8.6843   8.7024   8.7090
     8.7152   8.7205   8.7310   8.7455   8.7616   8.7667   8.7879   8.7923
     8.8014   8.8130   8.8289   8.8539   8.8594   8.8721   8.8880   8.8991
     8.9281   8.9337   8.9564   8.9814   8.9982   9.0125   9.0169   9.0295
     9.0411   9.0657   9.0779   9.1098   9.1273   9.1914   9.1990   9.2429
     9.2448   9.2732   9.2747   9.3006   9.3320   9.3913   9.3950   9.4432
     9.4446   9.4569   9.4692   9.4750   9.5115   9.6777   9.6841   9.7150
     9.7973   9.8081   9.8088   9.9211  10.0251  10.0371  10.0823  10.1773
    10.9564  11.0744  11.1446  11.2117  11.2327  11.2817  11.3738  11.3849
    12.5494  12.8705  12.8849  13.2436  13.3334  13.5348  13.5667  13.6926
    13.6952  13.8560  13.9036  14.1283  14.3165  14.3419  14.3552  14.4427
    14.5242  14.5697  14.6258  14.6514  14.7080  14.7207  14.8067  14.8284
    14.9392  14.9842  15.0484  15.1649  15.2081  15.2641  15.4792  15.5703
    15.6243  15.7272  15.7533  15.7900  15.8065  15.8397  15.8710  15.8802
    15.8944  15.9227  15.9406  15.9689  15.9742  16.0307  16.0435  16.0728
    16.0940  16.1347  16.1415  16.1887  16.2454  16.2594  16.3012  16.3270
    16.3625  16.4104  16.4564  16.4646  16.4801  16.4890  16.5043  16.5269
    16.5495  16.6117  16.6661  16.6723  16.7133

          k = 0.0000 0.4000 0.3734 ( 73541 PWs)   bands (ev):

   -31.2272 -31.2204 -31.2200 -31.1317 -31.1315 -31.1311 -31.1305 -27.9114
   -15.7027 -15.6746 -15.6713 -15.6449 -15.6205 -15.5980 -15.5917 -15.5885
   -15.5738 -15.5691 -15.5662 -15.5523 -15.5330 -15.5140 -15.4765 -15.4569
   -11.7434 -11.7371 -11.7022 -11.6961 -11.6864 -11.6819 -11.6682 -11.6200
   -11.5402 -11.4590 -11.4520 -11.4461 -11.4396 -11.3837 -11.3374 -11.3198
   -11.3166 -11.2764 -11.2642 -11.2555 -11.2484  -9.3746  -9.3446  -9.3377
    -8.3658  -8.1861  -7.8384  -7.8342  -7.8072  -7.7820  -7.7535  -7.7465
    -7.7236  -7.6656  -7.6436  -7.6218  -7.6152  -7.6114  -7.5608  -7.5595
    -7.5466  -7.4778  -7.4401  -7.3757  -7.3587  -7.3459  -7.3218  -7.3180
    -7.3093  -7.2847  -7.2737  -7.2551  -7.2447  -7.2348  -7.2207  -7.2113
    -7.1630  -7.1297  -7.1153  -7.0187  -6.9841  -6.9799  -6.9367  -6.9173
    -6.8956  -6.8595  -6.8508  -6.8472  -6.8218  -6.8110  -6.8001  -6.7687
    -6.7591  -6.7368  -6.7176  -6.6605  -6.5937  -6.5890  -6.5694  -6.5453
    -1.4319  -1.4229  -1.3391  -1.3171  -1.2603  -1.1816  -1.1659  -1.1381
    -1.0863  -1.0241  -1.0213  -1.0130  -0.9973  -0.9825  -0.9813  -0.9684
    -0.9623  -0.9400  -0.9197  -0.9061  -0.8979  -0.8786  -0.8756  -0.8671
    -0.8606  -0.8527  -0.8513  -0.8341  -0.8253  -0.7994  -0.7926  -0.7695
    -0.7517  -0.7493  -0.7330  -0.6768  -0.5542  -0.5448  -0.5335  -0.5257
    -0.5174  -0.5081  -0.5007  -0.4939  -0.4722  -0.4563  -0.4454  -0.4346
     2.9717   3.2571   3.5121   3.7530   3.8574   3.9014   3.9275   3.9523
     3.9788   4.0766   4.0799   4.1131   4.1570   4.1947   4.2485   4.2692
     4.5626   4.5872   4.6055   4.6352   4.6361   4.6489   4.6961   4.7551
     4.8029   4.8444   4.8479   4.9030   4.9040   4.9096   4.9196   4.9329
     4.9394   4.9429   4.9526   4.9545   4.9740   4.9759   4.9803   5.0710
     5.1020   5.1111   5.1248   5.1412   5.1516   5.1827   5.1936   5.2444
     5.2708   5.3031   5.3231   5.3421   5.3810   5.4100   5.4420   5.5003
     5.5480   5.6027   5.6139   5.6285   5.6372   5.6465   5.6631   5.6705
     5.7196   5.7351   5.7557   5.7763   5.7997   5.8056   5.8243   5.8277
     5.8967   5.9218   5.9787   6.0161   6.0508   6.1059   6.1075   6.1141
     6.1201   6.1255   6.1425   6.1518   6.1582   6.1601   6.1665   6.1743
     6.1933   6.2135   6.2212   6.2250   6.2360   6.2762   6.2814   6.2948
     6.3013   6.3052   6.3204   6.3301   6.3560   6.3603   6.3771   6.4059
     6.4144   6.4206   6.4386   6.4438   6.4562   6.4632   6.4738   6.4975
     6.5017   6.5288   6.5414   6.6483   6.6740   6.6902   6.7880   6.8148
     6.8844   6.9382   6.9599   6.9912   7.0028   7.0230   7.0445   7.0561
     7.0790   7.0999   7.1092   7.1175   7.1310   7.1465   7.1909   7.2839
     7.2957   7.3058   7.3143   7.3212   7.3277   7.3547   7.3655   7.3769
     7.3816   7.3898   7.4003   7.4147   7.4225   7.4318   7.4441   7.4558
     7.4571   7.4590   7.4623   7.4821   7.4845   7.5074   7.5707   7.5739
     7.5915   7.6510   7.6944   7.6998   7.7496   7.8474   7.8595   7.8702
     7.9043   7.9154   7.9368   7.9396   7.9696   7.9934   8.0070   8.0200
     8.0409   8.0462   8.0574   8.0717   8.0762   8.0822   8.1017   8.1056
     8.1078   8.1232   8.1383   8.1509   8.1595   8.1733   8.1841   8.1895
     8.2344   8.2518   8.2643   8.2674   8.2694   8.2776   8.2969   8.3200
     8.3325   8.3567   8.3600   8.3730   8.4089   8.4201   8.4436   8.4760
     8.5095   8.5260   8.5532   8.5578   8.5644   8.5765   8.5979   8.6086
     8.6274   8.6343   8.6524   8.6548   8.6671   8.6818   8.6931   8.7001
     8.7095   8.7166   8.7212   8.7277   8.7638   8.7761   8.7802   8.7885
     8.8000   8.8299   8.8325   8.8346   8.8669   8.8716   8.8866   8.9030
     8.9270   8.9279   8.9430   8.9490   8.9624   8.9754   8.9887   9.0023
     9.0086   9.0366   9.0586   9.0663   9.0851   9.1198   9.1472   9.1609
     9.1762   9.2326   9.2458   9.2651   9.3158   9.3786   9.3821   9.4086
     9.4639   9.4690   9.4890   9.5086   9.5264   9.6499   9.6690   9.7094
     9.7692   9.8177   9.8244   9.9812   9.9890  10.0625  10.0716  10.2349
    10.9592  11.0735  11.2277  11.2622  11.2814  11.3423  11.3728  11.4305
    12.5698  12.9145  13.0267  13.2052  13.3296  13.4885  13.5771  13.6401
    13.7161  13.8696  13.9073  14.1978  14.2538  14.3062  14.3100  14.4912
    14.5630  14.5886  14.6358  14.6556  14.6701  14.7207  14.8190  14.8401
    14.9266  14.9647  15.0056  15.1381  15.1540  15.1604  15.4842  15.5177
    15.6362  15.6957  15.7277  15.7342  15.7503  15.7607  15.7915  15.8136
    15.8553  15.8653  15.8884  15.9384  15.9671  16.0123  16.0292  16.0458
    16.1010  16.1341  16.1856  16.2054  16.2340  16.2550  16.3087  16.3147
    16.3480  16.3824  16.4139  16.4251  16.4326  16.4504  16.4938  16.5060
    16.5477  16.5775  16.6317  16.6727  16.7044

          k = 0.2000 0.2000 0.0000 ( 73548 PWs)   bands (ev):

   -31.2272 -31.2205 -31.2199 -31.1317 -31.1316 -31.1313 -31.1303 -27.9114
   -15.7120 -15.6851 -15.6434 -15.6343 -15.6217 -15.6122 -15.5979 -15.5791
   -15.5747 -15.5722 -15.5610 -15.5515 -15.5406 -15.5213 -15.4727 -15.4544
   -11.7823 -11.7456 -11.6994 -11.6984 -11.6968 -11.6801 -11.5844 -11.5593
   -11.5457 -11.4750 -11.4577 -11.4481 -11.4337 -11.4316 -11.4160 -11.3298
   -11.3037 -11.2737 -11.2726 -11.2530 -11.1861  -9.3742  -9.3434  -9.3354
    -8.4407  -8.0199  -7.9657  -7.8179  -7.8145  -7.8001  -7.7809  -7.6960
    -7.6935  -7.6482  -7.6428  -7.6191  -7.6045  -7.6033  -7.5776  -7.5432
    -7.5400  -7.4999  -7.4638  -7.4270  -7.3576  -7.3531  -7.3323  -7.3296
    -7.3232  -7.3187  -7.2689  -7.2500  -7.2165  -7.2120  -7.1915  -7.1774
    -7.1629  -7.1470  -7.1369  -7.0050  -6.9781  -6.9570  -6.9215  -6.9094
    -6.8908  -6.8819  -6.8695  -6.8141  -6.8069  -6.8050  -6.7909  -6.7851
    -6.7806  -6.7776  -6.7248  -6.6271  -6.5971  -6.5961  -6.5619  -6.5469
    -1.4711  -1.4342  -1.4024  -1.1979  -1.1956  -1.1821  -1.1815  -1.1721
    -1.1511  -1.1468  -1.1268  -1.0999  -1.0146  -0.9930  -0.9792  -0.9433
    -0.9329  -0.9316  -0.9134  -0.9101  -0.8979  -0.8907  -0.8803  -0.8514
    -0.8514  -0.8491  -0.8194  -0.7703  -0.7616  -0.7343  -0.7228  -0.7149
    -0.7023  -0.6923  -0.6695  -0.6636  -0.6589  -0.6290  -0.6010  -0.5839
    -0.5665  -0.5571  -0.4594  -0.4549  -0.4523  -0.4476  -0.4130  -0.3594
     2.8462   3.4496   3.5342   3.5920   3.8233   3.8683   4.0106   4.0262
     4.0724   4.0809   4.1008   4.1757   4.1778   4.2135   4.2138   4.2485
     4.4295   4.4697   4.5055   4.5709   4.6241   4.7156   4.7573   4.7721
     4.8019   4.8107   4.8121   4.8975   4.9127   4.9178   4.9196   4.9213
     4.9307   4.9427   4.9499   4.9800   4.9859   4.9892   5.0198   5.0424
     5.1122   5.1616   5.1863   5.1934   5.1985   5.1998   5.2569   5.2637
     5.3048   5.3087   5.3186   5.3545   5.3903   5.4043   5.4174   5.4329
     5.4778   5.5065   5.5389   5.6201   5.6268   5.6421   5.6621   5.6641
     5.6656   5.7408   5.7927   5.7950   5.8091   5.8146   5.8804   5.8891
     5.9176   5.9294   5.9705   5.9720   5.9784   6.0230   6.0321   6.0438
     6.0868   6.1069   6.1217   6.1494   6.1496   6.1598   6.1681   6.1707
     6.1726   6.2211   6.2312   6.2498   6.2633   6.2699   6.2742   6.2836
     6.2909   6.3109   6.3257   6.3336   6.3588   6.3679   6.4073   6.4091
     6.4133   6.4136   6.4658   6.5168   6.5183   6.5804   6.5819   6.5829
     6.6723   6.6742   6.7187   6.7279   6.7470   6.7575   6.7904   6.8015
     6.8047   6.8215   6.8686   6.8784   6.9430   6.9718   7.0337   7.0444
     7.0467   7.1080   7.1284   7.1355   7.1405   7.1607   7.1650   7.1670
     7.1724   7.2375   7.2409   7.2627   7.2825   7.2893   7.2959   7.3091
     7.3273   7.3285   7.3295   7.3522   7.3650   7.4081   7.4194   7.4372
     7.4567   7.4689   7.5076   7.5358   7.5367   7.5384   7.5851   7.6029
     7.6523   7.7159   7.7445   7.7468   7.7832   7.8072   7.8144   7.8300
     7.8419   7.8483   7.8560   7.8978   7.9045   7.9345   7.9416   7.9544
     7.9681   8.0014   8.0039   8.0268   8.0284   8.0448   8.1111   8.1170
     8.1326   8.1349   8.1381   8.1392   8.2041   8.2154   8.2479   8.2573
     8.2851   8.2887   8.3098   8.3111   8.3247   8.3315   8.3431   8.3591
     8.3712   8.3870   8.3987   8.4037   8.4119   8.4164   8.4258   8.4358
     8.4672   8.4929   8.5212   8.5552   8.5581   8.5606   8.5741   8.5849
     8.6132   8.6208   8.6247   8.6541   8.6586   8.6594   8.6893   8.7098
     8.7220   8.7493   8.7582   8.7651   8.7667   8.7979   8.8149   8.8186
     8.8305   8.8340   8.8387   8.8534   8.8574   8.8795   8.9011   8.9054
     8.9067   8.9248   8.9342   8.9460   8.9461   8.9589   8.9829   8.9830
     8.9985   9.0489   9.0508   9.1232   9.1665   9.1991   9.1999   9.2359
     9.2584   9.2637   9.2808   9.3581   9.3896   9.3997   9.4190   9.4217
     9.4375   9.4384   9.4501   9.4754   9.6205   9.6298   9.6764   9.6791
     9.7983   9.8183   9.9566   9.9631  10.0609  10.0611  10.4640  10.4815
    10.6440  10.6577  11.1220  11.1381  11.1511  11.3719  11.4187  11.5038
    12.3722  12.6429  13.2957  13.3431  13.3579  13.4849  13.4942  13.6642
    13.7063  13.8363  13.9402  14.1109  14.1721  14.2091  14.2312  14.2499
    14.6185  14.6258  14.6806  14.7022  14.7318  14.8117  14.9543  14.9857
    15.0247  15.1652  15.2393  15.2655  15.2852  15.2899  15.4062  15.4455
    15.4869  15.5193  15.5360  15.7326  15.7858  15.8367  15.8421  15.8776
    15.9522  15.9583  15.9749  16.0105  16.0160  16.0356  16.0456  16.1546
    16.2203  16.2204  16.2435  16.2534  16.2537  16.2822  16.2958  16.3684
    16.3713  16.3880  16.4518  16.4883  16.5105  16.5166  16.5168  16.5282
    16.5476  16.5718  16.5847  16.5987  16.7059

          k = 0.2000 0.2000 0.1867 ( 73579 PWs)   bands (ev):

   -31.2272 -31.2205 -31.2199 -31.1317 -31.1316 -31.1313 -31.1303 -27.9114
   -15.7124 -15.6846 -15.6438 -15.6346 -15.6214 -15.6118 -15.5982 -15.5794
   -15.5744 -15.5725 -15.5607 -15.5512 -15.5408 -15.5211 -15.4728 -15.4543
   -11.7823 -11.7456 -11.6995 -11.6984 -11.6968 -11.6801 -11.5844 -11.5593
   -11.5457 -11.4750 -11.4577 -11.4482 -11.4337 -11.4316 -11.4160 -11.3298
   -11.3037 -11.2737 -11.2726 -11.2530 -11.1861  -9.3743  -9.3434  -9.3354
    -8.4395  -8.0194  -7.9650  -7.8515  -7.8198  -7.7990  -7.7340  -7.6973
    -7.6930  -7.6531  -7.6442  -7.6289  -7.6007  -7.5968  -7.5768  -7.5429
    -7.5380  -7.4978  -7.4610  -7.4289  -7.3533  -7.3468  -7.3332  -7.3286
    -7.3208  -7.3170  -7.2780  -7.2463  -7.2226  -7.2201  -7.1927  -7.1881
    -7.1577  -7.1564  -7.1320  -7.0091  -6.9777  -6.9567  -6.9323  -6.9228
    -6.8908  -6.8680  -6.8541  -6.8132  -6.8057  -6.8052  -6.7923  -6.7849
    -6.7807  -6.7797  -6.7210  -6.6289  -6.5960  -6.5943  -6.5649  -6.5440
    -1.4702  -1.4350  -1.4025  -1.1940  -1.1929  -1.1829  -1.1795  -1.1728
    -1.1458  -1.1456  -1.1249  -1.0964  -1.0127  -0.9953  -0.9850  -0.9493
    -0.9367  -0.9218  -0.9147  -0.9115  -0.9021  -0.8943  -0.8853  -0.8586
    -0.8487  -0.8450  -0.8149  -0.7750  -0.7604  -0.7357  -0.7249  -0.7146
    -0.7039  -0.6933  -0.6701  -0.6610  -0.6561  -0.6290  -0.6006  -0.5832
    -0.5659  -0.5579  -0.4616  -0.4545  -0.4535  -0.4457  -0.4130  -0.3589
     2.8534   3.4375   3.5448   3.6029   3.8281   3.8808   4.0010   4.0042
     4.0560   4.0782   4.0836   4.1777   4.1863   4.2248   4.2253   4.2596
     4.4212   4.4900   4.4952   4.5710   4.6236   4.7162   4.7586   4.7653
     4.7955   4.8083   4.8364   4.8989   4.9021   4.9194   4.9194   4.9265
     4.9357   4.9441   4.9468   4.9729   4.9819   4.9964   5.0094   5.0421
     5.1051   5.1399   5.1635   5.1797   5.1857   5.1962   5.2011   5.2695
     5.3112   5.3149   5.3357   5.3586   5.4092   5.4106   5.4375   5.4613
     5.4952   5.5242   5.5443   5.5843   5.6257   5.6309   5.6530   5.6662
     5.7100   5.7704   5.7922   5.7935   5.8198   5.8355   5.8808   5.8882
     5.9074   5.9422   5.9764   5.9864   6.0071   6.0374   6.0398   6.0467
     6.0809   6.1117   6.1330   6.1503   6.1524   6.1563   6.1636   6.1684
     6.1808   6.2086   6.2129   6.2169   6.2274   6.2605   6.2695   6.2760
     6.2837   6.3124   6.3380   6.3475   6.3577   6.3673   6.4011   6.4046
     6.4145   6.4155   6.4632   6.4655   6.5005   6.5163   6.5626   6.5658
     6.6334   6.6403   6.7064   6.7343   6.7447   6.7564   6.7671   6.7685
     6.8002   6.8232   6.8371   6.8680   6.9161   6.9671   7.0328   7.0506
     7.0590   7.0874   7.1109   7.1299   7.1348   7.2266   7.2277   7.2288
     7.2312   7.2592   7.2629   7.2754   7.3067   7.3075   7.3196   7.3289
     7.3304   7.3411   7.3644   7.3729   7.3812   7.3967   7.4217   7.4505
     7.4581   7.4620   7.5107   7.5237   7.5259   7.5460   7.5923   7.6016
     7.6604   7.7238   7.7608   7.7646   7.7720   7.7791   7.8033   7.8556
     7.8565   7.8717   7.8826   7.8961   7.9045   7.9550   7.9592   7.9733
     7.9785   7.9960   8.0071   8.0342   8.0422   8.0738   8.0884   8.1131
     8.1321   8.1345   8.1462   8.1524   8.2091   8.2168   8.2536   8.2602
     8.2779   8.2890   8.3027   8.3167   8.3266   8.3366   8.3478   8.3553
     8.3644   8.3789   8.3894   8.4096   8.4162   8.4174   8.4220   8.4611
     8.4655   8.4850   8.5088   8.5409   8.5673   8.5719   8.5775   8.5842
     8.5876   8.6187   8.6218   8.6340   8.6761   8.6783   8.6846   8.7072
     8.7085   8.7467   8.7509   8.7840   8.7849   8.7919   8.7992   8.8101
     8.8121   8.8258   8.8310   8.8310   8.8373   8.8652   8.8712   8.8723
     8.8929   8.8949   8.9348   8.9371   8.9580   8.9830   8.9913   9.0015
     9.0103   9.0462   9.0717   9.1072   9.1273   9.1858   9.1876   9.1882
     9.2112   9.2330   9.2632   9.3316   9.3420   9.3669   9.4116   9.4173
     9.4288   9.4321   9.4339   9.4722   9.5722   9.6577   9.6925   9.6957
     9.7007   9.9209   9.9348   9.9421  10.0998  10.0999  10.4669  10.4845
    10.6409  10.6546  11.1789  11.1814  11.2116  11.3976  11.4192  11.5036
    12.3834  12.7124  13.2534  13.3661  13.3781  13.4922  13.5022  13.6297
    13.7212  13.8406  13.9457  14.0949  14.1725  14.1962  14.2326  14.3098
    14.6019  14.6252  14.6806  14.6980  14.7124  14.8158  14.8898  14.9861
    15.0014  15.1570  15.2046  15.2359  15.2595  15.2941  15.4307  15.4770
    15.4819  15.4993  15.5412  15.5940  15.7083  15.7695  15.8123  15.8747
    15.8750  15.9195  15.9547  15.9903  16.0094  16.0521  16.0541  16.0593
    16.1279  16.1732  16.1928  16.3093  16.3120  16.3556  16.3739  16.3784
    16.3955  16.4191  16.4686  16.4730  16.5008  16.5404  16.5520  16.5576
    16.5642  16.6109  16.6413  16.6596  16.6619

          k = 0.2000 0.2000 0.3734 ( 73555 PWs)   bands (ev):

   -31.2272 -31.2205 -31.2199 -31.1317 -31.1316 -31.1313 -31.1303 -27.9114
   -15.7130 -15.6840 -15.6443 -15.6351 -15.6208 -15.6113 -15.5986 -15.5798
   -15.5740 -15.5729 -15.5602 -15.5508 -15.5411 -15.5208 -15.4730 -15.4541
   -11.7823 -11.7456 -11.6996 -11.6984 -11.6968 -11.6801 -11.5845 -11.5594
   -11.5457 -11.4750 -11.4577 -11.4482 -11.4338 -11.4316 -11.4161 -11.3298
   -11.3037 -11.2737 -11.2725 -11.2530 -11.1861  -9.3745  -9.3434  -9.3354
    -8.4376  -8.0187  -7.9640  -7.8790  -7.8227  -7.7973  -7.7000  -7.6921
    -7.6881  -7.6597  -7.6464  -7.6387  -7.5959  -7.5929  -7.5758  -7.5415
    -7.5340  -7.4946  -7.4564  -7.4318  -7.3536  -7.3341  -7.3340  -7.3167
    -7.3161  -7.3142  -7.2997  -7.2421  -7.2389  -7.2290  -7.2016  -7.1928
    -7.1714  -7.1487  -7.1269  -7.0128  -6.9825  -6.9507  -6.9464  -6.9399
    -6.8866  -6.8565  -6.8353  -6.8110  -6.8075  -6.8028  -6.7941  -6.7855
    -6.7818  -6.7803  -6.7150  -6.6317  -6.5942  -6.5915  -6.5701  -6.5397
    -1.4686  -1.4364  -1.4025  -1.1910  -1.1847  -1.1846  -1.1761  -1.1741
    -1.1443  -1.1359  -1.1212  -1.0901  -1.0093  -1.0047  -0.9846  -0.9579
    -0.9431  -0.9167  -0.9141  -0.9101  -0.9087  -0.9003  -0.8931  -0.8714
    -0.8449  -0.8397  -0.8076  -0.7830  -0.7584  -0.7380  -0.7282  -0.7142
    -0.7061  -0.6950  -0.6709  -0.6573  -0.6520  -0.6292  -0.5997  -0.5820
    -0.5651  -0.5593  -0.4641  -0.4568  -0.4523  -0.4439  -0.4130  -0.3580
     2.8655   3.4175   3.5637   3.6224   3.8368   3.9056   3.9735   3.9803
     4.0206   4.0525   4.0850   4.1825   4.2033   4.2371   4.2389   4.2805
     4.4059   4.4755   4.5263   4.5712   4.6227   4.7173   4.7578   4.7611
     4.7920   4.8021   4.8798   4.8906   4.9008   4.9190   4.9209   4.9318
     4.9408   4.9440   4.9455   4.9576   4.9732   4.9827   5.0117   5.0359
[...]
    10.6485  10.6502  10.7232  10.7298  10.9267  11.0452  11.2522  11.3502
    12.8942  13.0227  13.0236  13.0793  13.4855  13.5310  13.5784  13.5869
    13.6045  13.6780  13.7654  13.8357  13.8995  14.0200  14.0655  14.2993
    14.6133  14.6545  14.7351  14.8656  14.8862  14.9052  14.9237  14.9530
    14.9671  14.9842  15.1472  15.1531  15.1995  15.2157  15.2555  15.2562
    15.3494  15.4885  15.6145  15.6650  15.8316  15.8828  16.0045  16.0116
    16.0267  16.0714  16.0970  16.1650  16.1653  16.1752  16.1762  16.2439
    16.2969  16.3003  16.3052  16.3212  16.3547  16.3592  16.3987  16.4620
    16.4848  16.5022  16.5086  16.5145  16.5307  16.5482  16.6075  16.6487
    16.6491  16.6774  16.6931  16.7069  16.7605

          k = 0.4014-0.4014 0.1863 ( 73502 PWs)   bands (ev):

   -31.2557 -31.2444 -31.2438 -31.1713 -31.1706 -31.1674 -31.1670 -28.1094
   -15.6788 -15.6633 -15.6544 -15.6522 -15.6373 -15.6285 -15.6187 -15.5964
   -15.5594 -15.5444 -15.5385 -15.5370 -15.5276 -15.5187 -15.4961 -15.4777
   -11.7981 -11.7957 -11.7314 -11.7221 -11.6755 -11.6439 -11.6326 -11.6223
   -11.5683 -11.5035 -11.4903 -11.4833 -11.4749 -11.4411 -11.4208 -11.3984
   -11.3729 -11.3172 -11.3076 -11.2319 -11.2212  -9.5229  -9.4909  -9.4897
    -8.2909  -8.1706  -8.1388  -7.9814  -7.8193  -7.7540  -7.7481  -7.7466
    -7.6960  -7.6907  -7.6282  -7.6178  -7.6139  -7.5609  -7.5425  -7.5264
    -7.4974  -7.4632  -7.4257  -7.4204  -7.4101  -7.4012  -7.3631  -7.3407
    -7.3386  -7.3190  -7.2919  -7.2886  -7.2761  -7.2666  -7.1840  -7.1740
    -7.1658  -7.1111  -7.0976  -7.0698  -7.0689  -7.0615  -7.0157  -6.9876
    -6.9813  -6.9532  -6.8571  -6.8306  -6.8251  -6.8060  -6.7909  -6.7772
    -6.7719  -6.7323  -6.7307  -6.7200  -6.6361  -6.6312  -6.5570  -6.5391
    -1.2764  -1.2341  -1.1915  -1.1817  -1.1634  -1.1454  -1.1323  -1.1225
    -1.0971  -1.0795  -1.0473  -1.0361  -1.0209  -0.9876  -0.9781  -0.9759
    -0.9717  -0.9683  -0.9614  -0.9502  -0.9210  -0.9060  -0.9045  -0.8925
    -0.8727  -0.8641  -0.8559  -0.8486  -0.8442  -0.7993  -0.7729  -0.7641
    -0.7440  -0.7137  -0.7102  -0.6688  -0.6364  -0.6279  -0.6082  -0.6048
    -0.5570  -0.5467  -0.5365  -0.5304  -0.5010  -0.4775  -0.4518  -0.4335
     3.1357   3.3197   3.3723   3.5558   3.6561   3.7761   3.8007   3.8569
     3.9220   3.9726   4.1718   4.3069   4.3214   4.3610   4.4551   4.5087
     4.5089   4.5814   4.6131   4.6860   4.6862   4.6915   4.7064   4.7127
     4.7146   4.7815   4.7932   4.7994   4.8155   4.8332   4.8805   4.9098
     4.9398   4.9420   4.9476   4.9572   4.9621   4.9795   4.9800   5.0021
     5.0170   5.0219   5.0362   5.0595   5.1072   5.1221   5.1358   5.1484
     5.1690   5.2084   5.2233   5.2400   5.2470   5.2676   5.2836   5.2943
     5.3018   5.4077   5.5285   5.6204   5.6519   5.6664   5.6712   5.6851
     5.6951   5.7130   5.7219   5.7834   5.9363   6.0015   6.0042   6.0083
     6.0318   6.0881   6.0935   6.1036   6.1183   6.1249   6.1259   6.1455
     6.1737   6.1807   6.2028   6.2094   6.2193   6.2249   6.2287   6.2312
     6.2413   6.2468   6.2490   6.2592   6.2602   6.2824   6.2920   6.3115
     6.3206   6.3294   6.3511   6.3512   6.3617   6.3666   6.3711   6.3885
     6.3979   6.4164   6.4227   6.4500   6.4576   6.4661   6.4749   6.4866
     6.5124   6.5328   6.5362   6.5969   6.6320   6.6618   6.6715   6.6968
     6.7259   6.8050   6.9224   6.9990   7.0126   7.0300   7.0322   7.0346
     7.0446   7.0850   7.1013   7.1207   7.1697   7.1753   7.1801   7.1959
     7.2064   7.2079   7.2177   7.2338   7.2619   7.2639   7.2690   7.2917
     7.2921   7.2993   7.2997   7.3931   7.4166   7.4390   7.4646   7.4934
     7.4973   7.5004   7.5057   7.5216   7.5338   7.5423   7.5733   7.5738
     7.6242   7.6358   7.7174   7.7253   7.7547   7.7977   7.8050   7.8384
     7.8660   7.8737   7.8817   7.8889   7.9065   7.9548   7.9549   7.9602
     7.9864   8.0055   8.0195   8.0263   8.0443   8.0564   8.0803   8.0815
     8.1124   8.1215   8.1348   8.1515   8.1613   8.1713   8.1834   8.2028
     8.2239   8.2333   8.2440   8.2854   8.2970   8.2999   8.3162   8.3345
     8.3416   8.3526   8.3533   8.3762   8.3909   8.4101   8.4528   8.4677
     8.4744   8.4789   8.4931   8.4947   8.5176   8.5315   8.5365   8.5391
     8.5487   8.5651   8.5776   8.6005   8.6180   8.6190   8.6622   8.6682
     8.6784   8.7161   8.7190   8.7262   8.7546   8.7649   8.8012   8.8123
     8.8186   8.8419   8.8488   8.8507   8.8576   8.8656   8.8687   8.9096
     8.9221   8.9312   8.9346   8.9395   8.9504   8.9630   8.9730   8.9831
     9.0154   9.0392   9.0414   9.0503   9.0849   9.1011   9.1016   9.1134
     9.1136   9.1317   9.1322   9.1342   9.1360   9.1733   9.1848   9.1926
     9.2705   9.2806   9.2881   9.3544   9.3746   9.3858   9.4855   9.6073
     9.6134   9.6285  10.2083  10.4057  10.5498  10.5630  10.6477  10.6505
    10.6554  10.6585  10.7563  10.7600  10.9294  11.0426  11.3160  11.3946
    12.9025  13.0400  13.0410  13.1258  13.4667  13.5476  13.5891  13.5976
    13.6112  13.6708  13.7618  13.8086  13.9057  14.0135  14.0689  14.2861
    14.5575  14.7015  14.7723  14.8940  14.8942  14.9104  14.9296  14.9526
    14.9745  15.0191  15.0842  15.1010  15.2064  15.2464  15.2733  15.2907
    15.3048  15.5165  15.5827  15.6619  15.7181  15.7899  15.8125  15.9214
    15.9641  15.9648  16.0022  16.0540  16.0734  16.1231  16.2308  16.2491
    16.2584  16.2860  16.2862  16.3171  16.3419  16.3437  16.3732  16.4042
    16.4181  16.4326  16.4675  16.5003  16.5187  16.5409  16.5723  16.5907
    16.6189  16.6499  16.6514  16.7397  16.7900

          k = 0.4014-0.4014 0.3725 ( 73503 PWs)   bands (ev):

   -31.2557 -31.2444 -31.2438 -31.1713 -31.1706 -31.1674 -31.1670 -28.1094
   -15.6794 -15.6638 -15.6538 -15.6528 -15.6368 -15.6279 -15.6192 -15.5959
   -15.5598 -15.5448 -15.5381 -15.5374 -15.5272 -15.5183 -15.4963 -15.4775
   -11.7981 -11.7957 -11.7314 -11.7221 -11.6756 -11.6440 -11.6326 -11.6224
   -11.5683 -11.5035 -11.4904 -11.4833 -11.4749 -11.4411 -11.4209 -11.3984
   -11.3729 -11.3172 -11.3076 -11.2319 -11.2212  -9.5231  -9.4909  -9.4897
    -8.2898  -8.1689  -8.1377  -7.9803  -7.8213  -7.7650  -7.7637  -7.7481
    -7.7014  -7.6853  -7.6276  -7.6158  -7.6116  -7.5625  -7.5120  -7.5065
    -7.4911  -7.4663  -7.4222  -7.4171  -7.4090  -7.4024  -7.3584  -7.3470
    -7.3401  -7.3206  -7.3015  -7.2796  -7.2793  -7.2668  -7.2057  -7.1727
    -7.1617  -7.0990  -7.0835  -7.0721  -7.0691  -7.0648  -7.0483  -7.0164
    -6.9858  -6.9795  -6.8419  -6.8261  -6.8141  -6.7862  -6.7861  -6.7782
    -6.7670  -6.7301  -6.7276  -6.7225  -6.6385  -6.6351  -6.5568  -6.5362
    -1.2761  -1.2343  -1.1859  -1.1763  -1.1673  -1.1379  -1.1333  -1.1240
    -1.0927  -1.0693  -1.0447  -1.0318  -1.0192  -0.9927  -0.9856  -0.9812
    -0.9739  -0.9654  -0.9644  -0.9592  -0.9276  -0.9128  -0.8967  -0.8856
    -0.8712  -0.8581  -0.8568  -0.8519  -0.8514  -0.8050  -0.7704  -0.7615
    -0.7492  -0.7164  -0.7128  -0.6655  -0.6373  -0.6307  -0.6073  -0.6070
    -0.5578  -0.5448  -0.5332  -0.5295  -0.5014  -0.4776  -0.4517  -0.4334
     3.1525   3.3285   3.3841   3.5858   3.6226   3.7641   3.7712   3.8171
     3.9346   3.9916   4.1823   4.2994   4.3590   4.4040   4.4212   4.4682
     4.5309   4.5697   4.6145   4.6805   4.6897   4.6911   4.7094   4.7159
     4.7185   4.7816   4.7897   4.7907   4.8110   4.8223   4.8724   4.9046
     4.9404   4.9490   4.9534   4.9538   4.9595   4.9788   4.9936   5.0149
     5.0200   5.0263   5.0642   5.0669   5.0966   5.1186   5.1318   5.1431
     5.1530   5.2076   5.2108   5.2243   5.2324   5.2639   5.2712   5.2863
     5.3193   5.3870   5.4885   5.6357   5.6578   5.6639   5.6868   5.6996
     5.7467   5.7851   5.8004   5.8588   5.9009   5.9822   6.0093   6.0115
     6.0320   6.0490   6.0663   6.0910   6.0953   6.1192   6.1240   6.1673
     6.1719   6.1945   6.1992   6.2056   6.2112   6.2117   6.2162   6.2300
     6.2353   6.2463   6.2477   6.2547   6.2660   6.2733   6.2981   6.3089
     6.3182   6.3254   6.3343   6.3808   6.3828   6.3910   6.3916   6.3962
     6.4061   6.4187   6.4243   6.4280   6.4305   6.4435   6.4536   6.4629
     6.4856   6.5018   6.5136   6.5229   6.5327   6.6120   6.6338   6.6601
     6.7101   6.7652   6.9078   7.0126   7.0230   7.0240   7.0301   7.0371
     7.0483   7.0785   7.1079   7.1301   7.1615   7.1814   7.1941   7.2134
     7.2240   7.2260   7.2382   7.2882   7.3026   7.3041   7.3118   7.3459
     7.3461   7.3934   7.4055   7.4090   7.4546   7.4747   7.4907   7.5058
     7.5067   7.5164   7.5201   7.5261   7.5323   7.5410   7.5432   7.5449
     7.5591   7.6409   7.7093   7.7355   7.7650   7.7672   7.7817   7.8101
     7.8733   7.8793   7.8921   7.8964   7.9027   7.9222   7.9560   7.9629
     7.9925   7.9963   8.0324   8.0453   8.0765   8.1053   8.1123   8.1159
     8.1237   8.1423   8.1538   8.1748   8.1806   8.2041   8.2182   8.2190
     8.2577   8.2602   8.2634   8.2783   8.2837   8.3024   8.3406   8.3466
     8.3539   8.3671   8.3788   8.3953   8.4021   8.4346   8.4408   8.4414
     8.4538   8.4595   8.4816   8.4844   8.4979   8.5074   8.5078   8.5513
     8.5650   8.5726   8.5820   8.5945   8.5993   8.6302   8.6453   8.6781
     8.6891   8.6997   8.7112   8.7262   8.7518   8.7565   8.7584   8.7725
     8.7803   8.7864   8.7916   8.8008   8.8140   8.8223   8.9000   8.9063
     8.9088   8.9175   8.9235   8.9374   8.9425   8.9467   8.9550   8.9588
     8.9636   8.9880   8.9909   9.0204   9.0503   9.0605   9.0883   9.0954
     9.1003   9.1097   9.1202   9.1299   9.1321   9.1756   9.1938   9.2127
     9.2655   9.2953   9.3685   9.3797   9.3838   9.3875   9.4653   9.5070
     9.5144   9.6277  10.2141  10.3966  10.5606  10.5746  10.6447  10.6475
    10.6905  10.6931  10.8096  10.8101  10.9333  11.0393  11.4158  11.4635
    12.9170  13.0685  13.0704  13.2324  13.4047  13.5757  13.6129  13.6176
    13.6240  13.6512  13.7537  13.7592  13.9158  14.0029  14.0739  14.2659
    14.4799  14.8003  14.8580  14.8730  14.9005  14.9016  14.9531  14.9659
    15.0206  15.0363  15.0855  15.1256  15.1368  15.1752  15.2773  15.3733
    15.3856  15.4561  15.5107  15.5145  15.5728  15.5870  15.6663  15.8171
    15.9301  15.9343  15.9595  15.9607  16.0027  16.0247  16.1298  16.1299
    16.1486  16.1912  16.2478  16.2861  16.3389  16.3492  16.3619  16.3823
    16.3832  16.4233  16.4386  16.4915  16.4934  16.5163  16.5181  16.5335
    16.5661  16.5893  16.6158  16.7204  16.8587

     the Fermi energy is     9.6539 ev

!    total energy              =   -6849.00290140 Ry
     Harris-Foulkes estimate   =   -6849.00287337 Ry
     estimated scf accuracy    <       0.00000066 Ry

     The total energy is the sum of the following terms:

     one-electron contribution =   -2078.32659834 Ry
     hartree contribution      =    1805.24513181 Ry
     xc contribution           =   -2361.03078070 Ry
     ewald contribution        =   -4214.87104624 Ry
     smearing contrib. (-TS)   =      -0.01960793 Ry

     convergence has been achieved in  12 iterations

     negative rho (up, down):  3.133E-01 0.000E+00

     Forces acting on atoms (cartesian axes, Ry/au):

     atom    1 type  3   force =     0.00033533    0.00023330   -0.00002488
     atom    2 type  3   force =    -0.00023330   -0.00033533   -0.00002488
     atom    3 type  4   force =     0.00057987   -0.00057987   -0.00002942
     atom    4 type  4   force =     0.00011984   -0.00036221   -0.00002953
     atom    5 type  4   force =     0.00003021   -0.00099701    0.00622111
     atom    6 type  4   force =     0.00099701   -0.00003021    0.00622111
     atom    7 type  1   force =    -0.00104355    0.00104355    0.00018361
     atom    8 type  1   force =     0.00000000    0.00000000    0.00731265
     atom    9 type  3   force =     0.00022757    0.00715883   -0.00286079
     atom   10 type  3   force =    -0.00715883   -0.00022757   -0.00286079
     atom   11 type  4   force =     0.01159979   -0.01159979   -0.01301111
     atom   12 type  4   force =     0.00013332   -0.00160365   -0.00242884
     atom   13 type  4   force =     0.01156536    0.01156536   -0.01424553
     atom   14 type  4   force =     0.00005792    0.00170849   -0.00366074
     atom   15 type  5   force =    -0.00617903    0.00617903   -0.00003357
     atom   16 type  2   force =     0.00000000    0.00000000   -0.00004115
     atom   17 type  4   force =     0.01159746   -0.01159746    0.01405422
     atom   18 type  4   force =     0.00011784   -0.00159711    0.00344866
     atom   19 type  4   force =     0.01156694    0.01156694    0.01334512
     atom   20 type  4   force =     0.00007396    0.00171678    0.00277159
     atom   21 type  3   force =     0.00036425    0.00716427    0.00285254
     atom   22 type  3   force =    -0.00716427   -0.00036425    0.00285254
     atom   23 type  1   force =    -0.00104291    0.00104291   -0.00019535
     atom   24 type  1   force =     0.00000000    0.00000000   -0.00731343
     atom   25 type  4   force =     0.00003572   -0.00099477   -0.00624785
     atom   26 type  4   force =     0.00099477   -0.00003572   -0.00624785
     atom   27 type  3   force =    -0.00033533   -0.00023330   -0.00002488
     atom   28 type  3   force =     0.00000172    0.00011139   -0.00002425
     atom   29 type  4   force =    -0.00036221    0.00011984   -0.00002953
     atom   30 type  4   force =     0.00044569   -0.00044569   -0.00003315
     atom   31 type  4   force =    -0.00003021    0.00099701    0.00622111
     atom   32 type  4   force =     0.00001079   -0.00002531    0.00719121
     atom   33 type  1   force =    -0.00094939   -0.00094939    0.00025185
     atom   34 type  1   force =     0.00000000    0.00000000   -0.00074365
     atom   35 type  3   force =    -0.00022757   -0.00715883   -0.00286079
     atom   36 type  3   force =    -0.00013127    0.00003695   -0.00388265
     atom   37 type  4   force =    -0.00160365    0.00013332   -0.00242884
     atom   38 type  4   force =     0.00066553   -0.00066553   -0.00286264
     atom   39 type  4   force =    -0.00170849   -0.00005792   -0.00366074
     atom   40 type  4   force =     0.00058519    0.00058519   -0.00402899
     atom   41 type  5   force =    -0.00608679   -0.00608679   -0.00005938
     atom   42 type  5   force =     0.00000000    0.00000000   -0.00004602
     atom   43 type  4   force =    -0.00159711    0.00011784    0.00344866
     atom   44 type  4   force =     0.00065376   -0.00065376    0.00385034
     atom   45 type  4   force =    -0.00171678   -0.00007396    0.00277159
     atom   46 type  4   force =     0.00059697    0.00059697    0.00317391
     atom   47 type  3   force =    -0.00036425   -0.00716427    0.00285254
     atom   48 type  3   force =    -0.00013238    0.00001789    0.00387783
     atom   49 type  1   force =    -0.00094819   -0.00094819   -0.00024286
     atom   50 type  1   force =     0.00000000    0.00000000    0.00074233
     atom   51 type  4   force =    -0.00003572    0.00099477   -0.00624785
     atom   52 type  4   force =     0.00000957   -0.00001729   -0.00721625
     atom   53 type  3   force =    -0.00011139   -0.00000172   -0.00002425
     atom   54 type  3   force =     0.00023330    0.00033533   -0.00002488
     atom   55 type  4   force =    -0.00011984    0.00036221   -0.00002953
     atom   56 type  4   force =    -0.00057987    0.00057987   -0.00002942
     atom   57 type  4   force =     0.00002531   -0.00001079    0.00719121
     atom   58 type  4   force =    -0.00099701    0.00003021    0.00622111
     atom   59 type  1   force =     0.00094939    0.00094939    0.00025185
     atom   60 type  1   force =     0.00000000    0.00000000   -0.00074365
     atom   61 type  3   force =    -0.00003695    0.00013127   -0.00388265
     atom   62 type  3   force =     0.00715883    0.00022757   -0.00286079
     atom   63 type  4   force =    -0.00013332    0.00160365   -0.00242884
     atom   64 type  4   force =    -0.01159979    0.01159979   -0.01301111
     atom   65 type  4   force =    -0.00005792   -0.00170849   -0.00366074
     atom   66 type  4   force =    -0.01156536   -0.01156536   -0.01424553
     atom   67 type  5   force =     0.00608679    0.00608679   -0.00005938
     atom   68 type  5   force =     0.00000000    0.00000000   -0.00004602
     atom   69 type  4   force =    -0.00011784    0.00159711    0.00344866
     atom   70 type  4   force =    -0.01159746    0.01159746    0.01405422
     atom   71 type  4   force =    -0.00007396   -0.00171678    0.00277159
     atom   72 type  4   force =    -0.01156694   -0.01156694    0.01334512
     atom   73 type  3   force =    -0.00001789    0.00013238    0.00387783
     atom   74 type  3   force =     0.00716427    0.00036425    0.00285254
     atom   75 type  1   force =     0.00094819    0.00094819   -0.00024286
     atom   76 type  1   force =     0.00000000    0.00000000    0.00074233
     atom   77 type  4   force =     0.00001729   -0.00000957   -0.00721625
     atom   78 type  4   force =    -0.00099477    0.00003572   -0.00624785
     atom   79 type  3   force =     0.00011139    0.00000172   -0.00002425
     atom   80 type  3   force =    -0.00000172   -0.00011139   -0.00002425
     atom   81 type  4   force =    -0.00044569    0.00044569   -0.00003315
     atom   82 type  4   force =     0.00036221   -0.00011984   -0.00002953
     atom   83 type  4   force =    -0.00002531    0.00001079    0.00719121
     atom   84 type  4   force =    -0.00001079    0.00002531    0.00719121
     atom   85 type  1   force =     0.00104355   -0.00104355    0.00018361
     atom   86 type  1   force =     0.00000000    0.00000000   -0.00116018
     atom   87 type  3   force =     0.00003695   -0.00013127   -0.00388265
     atom   88 type  3   force =     0.00013127   -0.00003695   -0.00388265
     atom   89 type  4   force =    -0.00066553    0.00066553   -0.00286264
     atom   90 type  4   force =     0.00160365   -0.00013332   -0.00242884
     atom   91 type  4   force =    -0.00058519   -0.00058519   -0.00402899
     atom   92 type  4   force =     0.00170849    0.00005792   -0.00366074
     atom   93 type  5   force =     0.00617903   -0.00617903   -0.00003357
     atom   94 type  5   force =     0.00000000    0.00000000   -0.00004500
     atom   95 type  4   force =    -0.00065376    0.00065376    0.00385034
     atom   96 type  4   force =     0.00159711   -0.00011784    0.00344866
     atom   97 type  4   force =    -0.00059697   -0.00059697    0.00317391
     atom   98 type  4   force =     0.00171678    0.00007396    0.00277159
     atom   99 type  3   force =     0.00001789   -0.00013238    0.00387783
     atom  100 type  3   force =     0.00013238   -0.00001789    0.00387783
     atom  101 type  1   force =     0.00104291   -0.00104291   -0.00019535
     atom  102 type  1   force =     0.00000000    0.00000000    0.00115903
     atom  103 type  4   force =    -0.00001729    0.00000957   -0.00721625
     atom  104 type  4   force =    -0.00000957    0.00001729   -0.00721625

     Total force =     0.075566     Total SCF correction =     0.002553


     Computing stress (Cartesian axis) and pressure


     negative rho (up, down):  3.133E-01 0.000E+00
          total   stress  (Ry/bohr**3)                   (kbar)     P=       -0.02
  -0.00002174   0.00008745   0.00000000           -3.20       12.86        0.00
   0.00008745  -0.00002174   0.00000000           12.86       -3.20        0.00
   0.00000000   0.00000000   0.00004316            0.00        0.00        6.35


     number of scf cycles    =   3
     number of bfgs steps    =   2

     enthalpy old            =   -6849.0182806726 Ry
     enthalpy new            =   -6849.0029013997 Ry

     CASE: enthalpy_new > enthalpy_old


 %%%%%%%%%%%%%%%%%%%%%%%%%%%%%%%%%%%%%%%%%%%%%%%%%%%%%%%%%%%%%%%%%%%%%%%%%%%%%%
     Error in routine bfgs (1):
     dE0s is positive which should never happen
 %%%%%%%%%%%%%%%%%%%%%%%%%%%%%%%%%%%%%%%%%%%%%%%%%%%%%%%%%%%%%%%%%%%%%%%%%%%%%%

     stopping ...
