
     Program PWSCF v.6.5 starts on  3May2021 at 22:52:54 

     This program is part of the open-source Quantum ESPRESSO suite
     for quantum simulation of materials; please cite
         "P. Giannozzi et al., J. Phys.:Condens. Matter 21 395502 (2009);
         "P. Giannozzi et al., J. Phys.:Condens. Matter 29 465901 (2017);
          URL http://www.quantum-espresso.org", 
     in publications or presentations arising from this work. More details at
     http://www.quantum-espresso.org/quote

     Parallel version (MPI), running on    20 processors

     MPI processes distributed on     8 nodes
     R & G space division:  proc/nbgrp/npool/nimage =      20
     Reading input from YBCO_BaO_cleave_6_sep.pwi
Warning: card &CELL ignored
Warning: card     CELL_DYNAMICS = 'BFGS' ignored
Warning: card / ignored

     Current dimensions of program PWSCF are:
     Max number of different atomic species (ntypx) = 10
     Max number of k-points (npk) =  40000
     Max angular momentum in pseudopotentials (lmaxx) =  3

     Subspace diagonalization in iterative solution of the eigenvalue problem:
     one sub-group per band group will be used
     scalapack distributed-memory algorithm (size of sub-group:  4*  4 procs)

     Message from routine setup:
     using ibrav=0 with symmetry is DISCOURAGED, use correct ibrav instead
 
     Parallelization info
     --------------------
     sticks:   dense  smooth     PW     G-vecs:    dense   smooth      PW
     Min         150      50     14                80800    15544    2422
     Max         151      51     15                80843    15571    2473
     Sum        3015    1011    293              1616397   311077   48995
 


     bravais-lattice index     =            0
     lattice parameter (alat)  =       7.3477  a.u.
     unit-cell volume          =    4953.9607 (a.u.)^3
     number of atoms/cell      =           28
     number of atomic types    =            4
     number of electrons       =       229.00
     number of Kohn-Sham states=          138
     kinetic-energy cutoff     =      60.0000  Ry
     charge density cutoff     =     720.0000  Ry
     convergence threshold     =      1.0E-06
     mixing beta               =       0.2000
     number of iterations used =           10  local-TF  mixing
     Exchange-correlation= SLA PW PBE PBE
                           (   1   4   3   4   0   0   0)
     nstep                     =          300


     celldm(1)=   7.347715  celldm(2)=   0.000000  celldm(3)=   0.000000
     celldm(4)=   0.000000  celldm(5)=   0.000000  celldm(6)=   0.000000

     crystal axes: (cart. coord. in units of alat)
               a(1) = (   1.000000   0.000000   0.000000 )  
               a(2) = (   0.000000   0.975577   0.000000 )  
               a(3) = (   0.000000   0.000000  12.800707 )  

     reciprocal axes: (cart. coord. in units 2 pi/alat)
               b(1) = (  1.000000  0.000000  0.000000 )  
               b(2) = (  0.000000  1.025034  0.000000 )  
               b(3) = (  0.000000  0.000000  0.078121 )  


     PseudoPot. # 1 for Ba read from file:
     /n/holyscratch01/hoffman_lab/ruizhe/YBCO_Project/pseudo/Ba.pbe-nsp-van.UPF
     MD5 check sum: 2b9c31dd849566dd297d80989662b7a0
     Pseudo is Ultrasoft + core correction, Zval = 10.0
     Generated by new atomic code, or converted to UPF format
     Using radial grid of  907 points,  6 beta functions with: 
                l(1) =   0
                l(2) =   0
                l(3) =   1
                l(4) =   1
                l(5) =   2
                l(6) =   2
     Q(r) pseudized with  6 coefficients,  rinner =    1.200   1.200   1.200
                                                       1.200   1.200

     PseudoPot. # 2 for Cu read from file:
     /n/holyscratch01/hoffman_lab/ruizhe/YBCO_Project/pseudo/Cu.pbe-n-van_ak.UPF
     MD5 check sum: 34e3282627ffb533726feb647e090d62
     Pseudo is Ultrasoft + core correction, Zval = 11.0
     Generated by new atomic code, or converted to UPF format
     Using radial grid of  867 points,  6 beta functions with: 
                l(1) =   0
                l(2) =   0
                l(3) =   1
                l(4) =   1
                l(5) =   2
                l(6) =   2
     Q(r) pseudized with  8 coefficients,  rinner =    1.400   1.400   1.400
                                                       1.400   1.400

     PseudoPot. # 3 for O  read from file:
     /n/holyscratch01/hoffman_lab/ruizhe/YBCO_Project/pseudo/O.pbe-van_ak.UPF
     MD5 check sum: 783ce7fe4c79b6a4916957118fed0856
     Pseudo is Ultrasoft, Zval =  6.0
     Generated by new atomic code, or converted to UPF format
     Using radial grid of  737 points,  4 beta functions with: 
                l(1) =   0
                l(2) =   0
                l(3) =   1
                l(4) =   1
     Q(r) pseudized with  8 coefficients,  rinner =    0.800   0.800   0.800


     PseudoPot. # 4 for Y  read from file:
     /n/holyscratch01/hoffman_lab/ruizhe/YBCO_Project/pseudo/Y.pbe-nsp-van.UPF
     MD5 check sum: 4412fed3ab108fed87a1b7d6a69a4a38
     Pseudo is Ultrasoft + core correction, Zval = 11.0
     Generated by new atomic code, or converted to UPF format
     Using radial grid of  885 points,  6 beta functions with: 
                l(1) =   0
                l(2) =   0
                l(3) =   1
                l(4) =   1
                l(5) =   2
                l(6) =   2
     Q(r) pseudized with  6 coefficients,  rinner =    1.200   1.200   1.200
                                                       1.200   1.200

     atomic species   valence    mass     pseudopotential
        Ba            10.00   137.32700     Ba( 1.00)
        Cu            11.00    63.54600     Cu( 1.00)
        O              6.00    15.99900     O ( 1.00)
        Y             11.00    88.90584     Y ( 1.00)

      4 Sym. Ops. (no inversion) found



   Cartesian axes

     site n.     atom                  positions (alat units)
         1           O   tau(   1) = (   0.0000000   0.4877884  -0.0257983  )
         2           Cu  tau(   2) = (   0.0000000   0.0000000   0.0215779  )
         3           O   tau(   3) = (   0.0000000   0.0000000   0.5073114  )
         4           Ba  tau(   4) = (   0.4999996   0.4877884   0.5319677  )
         5           Cu  tau(   5) = (   0.0000000   0.0000000   1.0495845  )
         6           O   tau(   6) = (   0.4999996   0.0000000   1.1181579  )
         7           O   tau(   7) = (   0.0000000   0.4877884   1.1273137  )
         8           Y   tau(   8) = (   0.4999996   0.4877884   1.4938777  )
         9           O   tau(   9) = (   0.0000000   0.4877884   1.8497402  )
        10           O   tau(  10) = (   0.4999996   0.0000000   1.8692709  )
        11           Cu  tau(  11) = (   0.0000000   0.0000000   1.9417560  )
        12           Ba  tau(  12) = (   0.4999996   0.4877884   2.4526063  )
        13           O   tau(  13) = (   0.0000000   0.0000000   2.5103470  )
        14           O   tau(  14) = (   0.0000000   0.4877884   2.9968469  )
        15           Cu  tau(  15) = (   0.0000000   0.0000000   2.9968521  )
        16           O   tau(  16) = (   0.0000000   0.0000000   3.4833288  )
        17           Ba  tau(  17) = (   0.4999996   0.4877884   3.5410618  )
        18           Cu  tau(  18) = (   0.0000000   0.0000000   5.7107820  )
        19           O   tau(  19) = (   0.4999996   0.0000000   5.6675208  )
        20           O   tau(  20) = (   0.0000000   0.4877884   5.6870335  )
        21           Y   tau(  21) = (   0.4999996   0.4877884   6.0428986  )
        22           O   tau(  22) = (   0.0000000   0.4877884   6.4094625  )
        23           O   tau(  23) = (   0.4999996   0.0000000   6.4186312  )
        24           Cu  tau(  24) = (   0.0000000   0.0000000   6.4872097  )
        25           Ba  tau(  25) = (   0.4999996   0.4877884   7.0048111  )
        26           O   tau(  26) = (   0.0000000   0.0000000   7.0294675  )
        27           Cu  tau(  27) = (   0.0000000   0.0000000   7.5151727  )
        28           O   tau(  28) = (   0.0000000   0.4877884   7.5625540  )

     number of k points=    25  Gaussian smearing, width (Ry)=  0.0100
                       cart. coord. in units 2pi/alat
        k(    1) = (   0.0000000   0.0000000   0.0000000), wk =   0.0312500
        k(    2) = (   0.0000000   0.1281293   0.0000000), wk =   0.0625000
        k(    3) = (   0.0000000   0.2562585   0.0000000), wk =   0.0625000
        k(    4) = (   0.0000000   0.3843878   0.0000000), wk =   0.0625000
        k(    5) = (   0.0000000  -0.5125170   0.0000000), wk =   0.0312500
        k(    6) = (   0.1250000   0.0000000   0.0000000), wk =   0.0625000
        k(    7) = (   0.1250000   0.1281293   0.0000000), wk =   0.1250000
        k(    8) = (   0.1250000   0.2562585   0.0000000), wk =   0.1250000
        k(    9) = (   0.1250000   0.3843878   0.0000000), wk =   0.1250000
        k(   10) = (   0.1250000  -0.5125170   0.0000000), wk =   0.0625000
        k(   11) = (   0.2500000   0.0000000   0.0000000), wk =   0.0625000
        k(   12) = (   0.2500000   0.1281293   0.0000000), wk =   0.1250000
        k(   13) = (   0.2500000   0.2562585   0.0000000), wk =   0.1250000
        k(   14) = (   0.2500000   0.3843878   0.0000000), wk =   0.1250000
        k(   15) = (   0.2500000  -0.5125170   0.0000000), wk =   0.0625000
        k(   16) = (   0.3750000   0.0000000   0.0000000), wk =   0.0625000
        k(   17) = (   0.3750000   0.1281293   0.0000000), wk =   0.1250000
        k(   18) = (   0.3750000   0.2562585   0.0000000), wk =   0.1250000
        k(   19) = (   0.3750000   0.3843878   0.0000000), wk =   0.1250000
        k(   20) = (   0.3750000  -0.5125170   0.0000000), wk =   0.0625000
        k(   21) = (  -0.5000000   0.0000000   0.0000000), wk =   0.0312500
        k(   22) = (  -0.5000000   0.1281293   0.0000000), wk =   0.0625000
        k(   23) = (  -0.5000000   0.2562585   0.0000000), wk =   0.0625000
        k(   24) = (  -0.5000000   0.3843878   0.0000000), wk =   0.0625000
        k(   25) = (  -0.5000000  -0.5125170   0.0000000), wk =   0.0312500

     Dense  grid:  1616397 G-vectors     FFT dimensions: (  64,  64, 810)

     Smooth grid:   311077 G-vectors     FFT dimensions: (  40,  36, 480)

     Estimated max dynamical RAM per process >     515.30 MB

     Estimated total dynamical RAM >      10.06 GB

     Initial potential from superposition of free atoms

     starting charge  228.84827, renormalised to  229.00000

     negative rho (up, down):  8.950E-02 0.000E+00
     Starting wfcs are  201 randomized atomic wfcs

     total cpu time spent up to now is       10.7 secs

     Self-consistent Calculation

     iteration #  1     ecut=    60.00 Ry     beta= 0.20
     Davidson diagonalization with overlap
     ethr =  1.00E-02,  avg # of iterations =  2.0

     negative rho (up, down):  8.740E-02 0.000E+00

     total cpu time spent up to now is       27.6 secs

     total energy              =   -1869.52767555 Ry
     Harris-Foulkes estimate   =   -1871.12738123 Ry
     estimated scf accuracy    <      14.63020902 Ry

     iteration #  2     ecut=    60.00 Ry     beta= 0.20
     Davidson diagonalization with overlap
     ethr =  6.39E-03,  avg # of iterations =  1.0

     negative rho (up, down):  8.630E-02 0.000E+00

     total cpu time spent up to now is       42.8 secs

     total energy              =   -1869.08941829 Ry
     Harris-Foulkes estimate   =   -1869.89097699 Ry
     estimated scf accuracy    <       5.95788753 Ry

     iteration #  3     ecut=    60.00 Ry     beta= 0.20
     Davidson diagonalization with overlap
     ethr =  2.60E-03,  avg # of iterations =  1.0

     negative rho (up, down):  8.586E-02 0.000E+00

     total cpu time spent up to now is       57.7 secs

     total energy              =   -1868.71197357 Ry
     Harris-Foulkes estimate   =   -1869.28058268 Ry
     estimated scf accuracy    <       4.20935865 Ry

     iteration #  4     ecut=    60.00 Ry     beta= 0.20
     Davidson diagonalization with overlap
     ethr =  1.84E-03,  avg # of iterations =  1.3

     negative rho (up, down):  8.608E-02 0.000E+00

     total cpu time spent up to now is       73.3 secs

     total energy              =   -1868.88814944 Ry
     Harris-Foulkes estimate   =   -1868.95045784 Ry
     estimated scf accuracy    <       2.65152908 Ry

     iteration #  5     ecut=    60.00 Ry     beta= 0.20
     Davidson diagonalization with overlap
     ethr =  1.16E-03,  avg # of iterations =  1.0

     negative rho (up, down):  8.664E-02 0.000E+00

     total cpu time spent up to now is       88.5 secs

     total energy              =   -1868.83842079 Ry
     Harris-Foulkes estimate   =   -1868.92459109 Ry
     estimated scf accuracy    <       1.44029754 Ry

     iteration #  6     ecut=    60.00 Ry     beta= 0.20
     Davidson diagonalization with overlap
     ethr =  6.29E-04,  avg # of iterations =  1.0

     negative rho (up, down):  8.770E-02 0.000E+00

     total cpu time spent up to now is      103.8 secs

     total energy              =   -1868.79526838 Ry
     Harris-Foulkes estimate   =   -1868.85772252 Ry
     estimated scf accuracy    <       0.81173743 Ry

     iteration #  7     ecut=    60.00 Ry     beta= 0.20
     Davidson diagonalization with overlap
     ethr =  3.54E-04,  avg # of iterations =  2.5

     negative rho (up, down):  8.921E-02 0.000E+00

     total cpu time spent up to now is      120.7 secs

     total energy              =   -1868.76722212 Ry
     Harris-Foulkes estimate   =   -1868.80859304 Ry
     estimated scf accuracy    <       0.42554548 Ry

     iteration #  8     ecut=    60.00 Ry     beta= 0.20
     Davidson diagonalization with overlap
     ethr =  1.86E-04,  avg # of iterations =  6.0

     negative rho (up, down):  9.071E-02 0.000E+00

     total cpu time spent up to now is      142.5 secs

     total energy              =   -1868.75387082 Ry
     Harris-Foulkes estimate   =   -1868.78407492 Ry
     estimated scf accuracy    <       0.27793806 Ry

     iteration #  9     ecut=    60.00 Ry     beta= 0.20
     Davidson diagonalization with overlap
     ethr =  1.21E-04,  avg # of iterations =  3.7

     negative rho (up, down):  9.138E-02 0.000E+00

     total cpu time spent up to now is      160.7 secs

     total energy              =   -1868.76062757 Ry
     Harris-Foulkes estimate   =   -1868.77426260 Ry
     estimated scf accuracy    <       0.72974323 Ry

     iteration # 10     ecut=    60.00 Ry     beta= 0.20
     Davidson diagonalization with overlap
     ethr =  1.21E-04,  avg # of iterations =  2.2

     negative rho (up, down):  9.132E-02 0.000E+00

     total cpu time spent up to now is      177.2 secs

     total energy              =   -1868.74986464 Ry
     Harris-Foulkes estimate   =   -1868.76639499 Ry
     estimated scf accuracy    <       0.37555391 Ry

     iteration # 11     ecut=    60.00 Ry     beta= 0.20
     Davidson diagonalization with overlap
     ethr =  1.21E-04,  avg # of iterations =  1.3

     negative rho (up, down):  9.212E-02 0.000E+00

     total cpu time spent up to now is      192.9 secs

     total energy              =   -1868.73915487 Ry
     Harris-Foulkes estimate   =   -1868.75365234 Ry
     estimated scf accuracy    <       0.13464559 Ry

     iteration # 12     ecut=    60.00 Ry     beta= 0.20
     Davidson diagonalization with overlap
     ethr =  5.88E-05,  avg # of iterations =  7.0

     negative rho (up, down):  1.103E-01 0.000E+00

     total cpu time spent up to now is      216.8 secs

     total energy              =   -1868.73714303 Ry
     Harris-Foulkes estimate   =   -1868.74246976 Ry
     estimated scf accuracy    <       0.05047330 Ry

     iteration # 13     ecut=    60.00 Ry     beta= 0.20
     Davidson diagonalization with overlap
     ethr =  2.20E-05,  avg # of iterations =  6.9

     negative rho (up, down):  1.066E-01 0.000E+00

     total cpu time spent up to now is      239.8 secs

     total energy              =   -1868.73634906 Ry
     Harris-Foulkes estimate   =   -1868.73898331 Ry
     estimated scf accuracy    <       0.04290507 Ry

     iteration # 14     ecut=    60.00 Ry     beta= 0.20
     Davidson diagonalization with overlap
     ethr =  1.87E-05,  avg # of iterations =  1.3

     negative rho (up, down):  9.643E-02 0.000E+00

     total cpu time spent up to now is      255.1 secs

     total energy              =   -1868.73646087 Ry
     Harris-Foulkes estimate   =   -1868.73779852 Ry
     estimated scf accuracy    <       0.02867533 Ry

     iteration # 15     ecut=    60.00 Ry     beta= 0.20
     Davidson diagonalization with overlap
     ethr =  1.25E-05,  avg # of iterations =  3.3

     negative rho (up, down):  9.715E-02 0.000E+00

     total cpu time spent up to now is      273.1 secs

     total energy              =   -1868.73627068 Ry
     Harris-Foulkes estimate   =   -1868.73691680 Ry
     estimated scf accuracy    <       0.01285129 Ry

     iteration # 16     ecut=    60.00 Ry     beta= 0.20
     Davidson diagonalization with overlap
     c_bands:  1 eigenvalues not converged
     ethr =  5.61E-06,  avg # of iterations =  7.9

     negative rho (up, down):  1.026E-01 0.000E+00

     total cpu time spent up to now is      297.1 secs

     total energy              =   -1868.73629346 Ry
     Harris-Foulkes estimate   =   -1868.73658461 Ry
     estimated scf accuracy    <       0.00793454 Ry

     iteration # 17     ecut=    60.00 Ry     beta= 0.20
     Davidson diagonalization with overlap
     c_bands:  1 eigenvalues not converged
     ethr =  3.46E-06,  avg # of iterations =  7.7

     negative rho (up, down):  1.063E-01 0.000E+00

     total cpu time spent up to now is      320.9 secs

     total energy              =   -1868.73603587 Ry
     Harris-Foulkes estimate   =   -1868.73640613 Ry
     estimated scf accuracy    <       0.00511696 Ry

     iteration # 18     ecut=    60.00 Ry     beta= 0.20
     Davidson diagonalization with overlap
     ethr =  2.23E-06,  avg # of iterations =  6.6

     negative rho (up, down):  1.016E-01 0.000E+00

     total cpu time spent up to now is      343.5 secs

     total energy              =   -1868.73558814 Ry
     Harris-Foulkes estimate   =   -1868.73608895 Ry
     estimated scf accuracy    <       0.00440510 Ry

     iteration # 19     ecut=    60.00 Ry     beta= 0.20
     Davidson diagonalization with overlap
     c_bands:  1 eigenvalues not converged
     c_bands:  1 eigenvalues not converged
     ethr =  1.92E-06,  avg # of iterations =  6.5

     negative rho (up, down):  9.666E-02 0.000E+00

     total cpu time spent up to now is      364.7 secs

     total energy              =   -1868.73539151 Ry
     Harris-Foulkes estimate   =   -1868.73565685 Ry
     estimated scf accuracy    <       0.00557975 Ry

     iteration # 20     ecut=    60.00 Ry     beta= 0.20
     Davidson diagonalization with overlap
     ethr =  1.92E-06,  avg # of iterations =  5.6

     negative rho (up, down):  9.095E-02 0.000E+00

     total cpu time spent up to now is      385.2 secs

     total energy              =   -1868.73495605 Ry
     Harris-Foulkes estimate   =   -1868.73540367 Ry
     estimated scf accuracy    <       0.00580490 Ry

     iteration # 21     ecut=    60.00 Ry     beta= 0.20
     Davidson diagonalization with overlap
     c_bands:  1 eigenvalues not converged
     c_bands:  1 eigenvalues not converged
     ethr =  1.92E-06,  avg # of iterations =  9.3

     negative rho (up, down):  8.953E-02 0.000E+00

     total cpu time spent up to now is      411.1 secs

     total energy              =   -1868.73464117 Ry
     Harris-Foulkes estimate   =   -1868.73498528 Ry
     estimated scf accuracy    <       0.00504965 Ry

     iteration # 22     ecut=    60.00 Ry     beta= 0.20
     Davidson diagonalization with overlap
     ethr =  1.92E-06,  avg # of iterations =  3.8

     negative rho (up, down):  8.961E-02 0.000E+00

     total cpu time spent up to now is      429.2 secs

     total energy              =   -1868.73372656 Ry
     Harris-Foulkes estimate   =   -1868.73465986 Ry
     estimated scf accuracy    <       0.00412990 Ry

     iteration # 23     ecut=    60.00 Ry     beta= 0.20
     Davidson diagonalization with overlap
     c_bands:  1 eigenvalues not converged
     ethr =  1.80E-06,  avg # of iterations =  8.4

     negative rho (up, down):  8.971E-02 0.000E+00

     total cpu time spent up to now is      454.7 secs

     total energy              =   -1868.73331975 Ry
     Harris-Foulkes estimate   =   -1868.73377129 Ry
     estimated scf accuracy    <       0.00277822 Ry

     iteration # 24     ecut=    60.00 Ry     beta= 0.20
     Davidson diagonalization with overlap
     ethr =  1.21E-06,  avg # of iterations =  5.6

     negative rho (up, down):  8.950E-02 0.000E+00

     total cpu time spent up to now is      475.3 secs

     total energy              =   -1868.73320659 Ry
     Harris-Foulkes estimate   =   -1868.73334462 Ry
     estimated scf accuracy    <       0.00272587 Ry

     iteration # 25     ecut=    60.00 Ry     beta= 0.20
     Davidson diagonalization with overlap
     ethr =  1.19E-06,  avg # of iterations =  4.1

     negative rho (up, down):  8.957E-02 0.000E+00

     total cpu time spent up to now is      493.9 secs

     total energy              =   -1868.73318418 Ry
     Harris-Foulkes estimate   =   -1868.73323276 Ry
     estimated scf accuracy    <       0.00147786 Ry

     iteration # 26     ecut=    60.00 Ry     beta= 0.20
     Davidson diagonalization with overlap
     ethr =  6.45E-07,  avg # of iterations =  5.3

     negative rho (up, down):  9.002E-02 0.000E+00

     total cpu time spent up to now is      514.3 secs

     total energy              =   -1868.73323824 Ry
     Harris-Foulkes estimate   =   -1868.73319829 Ry
     estimated scf accuracy    <       0.00092317 Ry

     iteration # 27     ecut=    60.00 Ry     beta= 0.20
     Davidson diagonalization with overlap
     ethr =  4.03E-07,  avg # of iterations =  5.2

     negative rho (up, down):  9.206E-02 0.000E+00

     total cpu time spent up to now is      534.9 secs

     total energy              =   -1868.73334123 Ry
     Harris-Foulkes estimate   =   -1868.73325619 Ry
     estimated scf accuracy    <       0.00052823 Ry

     iteration # 28     ecut=    60.00 Ry     beta= 0.20
     Davidson diagonalization with overlap
     ethr =  2.31E-07,  avg # of iterations =  4.0

     negative rho (up, down):  9.266E-02 0.000E+00

     total cpu time spent up to now is      553.5 secs

     total energy              =   -1868.73334417 Ry
     Harris-Foulkes estimate   =   -1868.73335258 Ry
     estimated scf accuracy    <       0.00031568 Ry

     iteration # 29     ecut=    60.00 Ry     beta= 0.20
     Davidson diagonalization with overlap
     ethr =  1.38E-07,  avg # of iterations =  2.6

     negative rho (up, down):  9.134E-02 0.000E+00

     total cpu time spent up to now is      570.5 secs

     total energy              =   -1868.73333018 Ry
     Harris-Foulkes estimate   =   -1868.73334974 Ry
     estimated scf accuracy    <       0.00021060 Ry

     iteration # 30     ecut=    60.00 Ry     beta= 0.20
     Davidson diagonalization with overlap
     ethr =  9.20E-08,  avg # of iterations =  3.6

     negative rho (up, down):  9.028E-02 0.000E+00

     total cpu time spent up to now is      589.0 secs

     total energy              =   -1868.73331600 Ry
     Harris-Foulkes estimate   =   -1868.73333335 Ry
     estimated scf accuracy    <       0.00007793 Ry

     iteration # 31     ecut=    60.00 Ry     beta= 0.20
     Davidson diagonalization with overlap
     ethr =  3.40E-08,  avg # of iterations =  6.2

     negative rho (up, down):  9.036E-02 0.000E+00

     total cpu time spent up to now is      610.9 secs

     total energy              =   -1868.73332158 Ry
     Harris-Foulkes estimate   =   -1868.73332048 Ry
     estimated scf accuracy    <       0.00004090 Ry

     iteration # 32     ecut=    60.00 Ry     beta= 0.20
     Davidson diagonalization with overlap
     ethr =  1.79E-08,  avg # of iterations =  1.1

     negative rho (up, down):  9.086E-02 0.000E+00

     total cpu time spent up to now is      626.7 secs

     total energy              =   -1868.73331529 Ry
     Harris-Foulkes estimate   =   -1868.73332216 Ry
     estimated scf accuracy    <       0.00003552 Ry

     iteration # 33     ecut=    60.00 Ry     beta= 0.20
     Davidson diagonalization with overlap
     ethr =  1.55E-08,  avg # of iterations =  3.7

     negative rho (up, down):  9.083E-02 0.000E+00

     total cpu time spent up to now is      645.3 secs

     total energy              =   -1868.73331270 Ry
     Harris-Foulkes estimate   =   -1868.73331625 Ry
     estimated scf accuracy    <       0.00001586 Ry

     iteration # 34     ecut=    60.00 Ry     beta= 0.20
     Davidson diagonalization with overlap
     ethr =  6.92E-09,  avg # of iterations =  1.0

     negative rho (up, down):  9.055E-02 0.000E+00

     total cpu time spent up to now is      660.7 secs

     total energy              =   -1868.73331617 Ry
     Harris-Foulkes estimate   =   -1868.73331301 Ry
     estimated scf accuracy    <       0.00000657 Ry

     iteration # 35     ecut=    60.00 Ry     beta= 0.20
     Davidson diagonalization with overlap
     ethr =  2.87E-09,  avg # of iterations =  1.2

     negative rho (up, down):  9.051E-02 0.000E+00

     total cpu time spent up to now is      676.3 secs

     total energy              =   -1868.73331815 Ry
     Harris-Foulkes estimate   =   -1868.73331637 Ry
     estimated scf accuracy    <       0.00000326 Ry

     iteration # 36     ecut=    60.00 Ry     beta= 0.20
     Davidson diagonalization with overlap
     ethr =  1.42E-09,  avg # of iterations =  1.2

     negative rho (up, down):  9.052E-02 0.000E+00

     total cpu time spent up to now is      691.9 secs

     total energy              =   -1868.73332116 Ry
     Harris-Foulkes estimate   =   -1868.73331824 Ry
     estimated scf accuracy    <       0.00000149 Ry

     iteration # 37     ecut=    60.00 Ry     beta= 0.20
     Davidson diagonalization with overlap
     ethr =  6.52E-10,  avg # of iterations =  1.9

     negative rho (up, down):  9.057E-02 0.000E+00

     total cpu time spent up to now is      707.8 secs

     End of self-consistent calculation

          k = 0.0000 0.0000 0.0000 ( 38797 PWs)   bands (ev):

   -38.7138 -38.1895 -24.6600 -23.3675 -23.3159 -23.2741 -19.2489 -18.7310
   -18.7181 -18.7088 -18.2444 -18.2261 -16.0446 -15.7090 -15.3491 -15.0852
   -14.8548 -14.8521 -14.8299 -14.6051 -14.5687 -14.5301 -14.3502 -14.3312
   -14.3012 -14.0966 -13.9929  -9.9745  -9.4905  -9.4673  -8.5925  -8.5490
    -8.5298  -8.3597  -8.3332  -8.3116  -8.2836  -8.2275  -8.2047  -2.6731
    -2.6389  -2.5069  -2.4520  -2.4516  -2.4147  -2.4121  -2.4119  -2.3831
    -2.3082  -2.1953  -1.5762  -1.5636  -1.5515  -1.4751  -1.1477  -1.1080
    -1.0542  -1.0500  -1.0204  -0.9768  -0.7018  -0.6609  -0.6538  -0.6243
    -0.6199  -0.5254  -0.5216  -0.4630  -0.4585  -0.4471  -0.3607  -0.3075
    -0.3019  -0.2633  -0.2538  -0.2522  -0.2276  -0.1950  -0.1925  -0.1830
    -0.0769  -0.0583  -0.0515  -0.0493  -0.0465  -0.0333   0.0576   0.0703
     0.3422   0.4072   0.4520   0.4828   0.6380   0.6654   0.6661   0.6936
     0.7531   0.7621   0.7876   0.8131   0.8381   0.8850   0.9118   0.9309
     1.1524   1.1843   1.3641   1.3782   1.3939   1.4358   1.5017   1.5566
     1.5925   1.6141   1.6271   1.7550   1.7933   2.0776   2.0812   3.6868
     4.6825   4.7093   4.7452   5.2329   5.3298   5.7866   6.0907   6.1523
     6.4775   6.8503   7.0802   7.2348   7.4121   7.5781   7.5849   7.7689
     7.9231   8.0066

          k = 0.0000 0.1281 0.0000 ( 38797 PWs)   bands (ev):

   -38.7115 -38.1870 -24.6419 -23.3459 -23.2943 -23.2534 -19.2129 -18.8132
   -18.7149 -18.6928 -18.3391 -18.2410 -15.9357 -15.6058 -15.3034 -15.0937
   -14.8681 -14.8615 -14.7993 -14.6146 -14.6041 -14.4996 -14.3701 -14.3555
   -14.3376 -14.1616 -14.0138  -9.9603  -9.5023  -9.4346  -8.5745  -8.5384
    -8.5133  -8.3527  -8.3185  -8.3033  -8.2703  -8.2246  -8.1888  -2.7749
    -2.7485  -2.6800  -2.6237  -2.4532  -2.4334  -2.4329  -2.3799  -2.3131
    -2.2927  -2.1082  -2.0645  -1.9591  -1.5709  -1.5699  -1.5697  -1.4799
    -1.4210  -1.0765  -1.0253  -1.0100  -0.9977  -0.9296  -0.8772  -0.7731
    -0.7125  -0.7092  -0.6979  -0.6930  -0.6036  -0.5630  -0.5087  -0.4261
    -0.3426  -0.3001  -0.2970  -0.2213  -0.1531  -0.1501  -0.0654  -0.0513
    -0.0465  -0.0273  -0.0152  -0.0064   0.0327   0.1170   0.1646   0.2563
     0.2676   0.3262   0.4454   0.5395   0.5578   0.6109   0.6355   0.7274
     0.7769   0.8617   0.8940   0.9114   0.9327   0.9983   1.0570   1.0806
     1.1285   1.2490   1.3657   1.3695   1.3700   1.3980   1.5259   1.5474
     1.5834   1.6105   1.7627   1.8537   2.2823   2.3988   2.4087   3.8737
     5.0165   5.0657   5.0776   5.5078   5.6086   5.9515   6.4073   6.4670
     6.7412   7.0972   7.2168   7.3601   7.5244   7.5847   7.7300   7.8585
     7.8600   7.9278

          k = 0.0000 0.2563 0.0000 ( 38804 PWs)   bands (ev):

   -38.7059 -38.1812 -24.5978 -23.2929 -23.2412 -23.2023 -19.1218 -19.0383
   -18.7072 -18.6031 -18.5724 -18.2328 -15.6874 -15.3873 -15.1841 -15.1692
   -14.9449 -14.9192 -14.7338 -14.6803 -14.6635 -14.5402 -14.3818 -14.3327
   -14.3247 -14.3143 -14.0297  -9.9203  -9.5302  -9.3534  -8.5327  -8.5098
    -8.4731  -8.3938  -8.3447  -8.2680  -8.2153  -8.1667  -8.0922  -3.2054
    -3.1057  -3.0932  -2.9751  -2.6776  -2.6014  -2.5906  -2.4821  -2.4108
    -2.3324  -2.3309  -2.2834  -2.2542  -2.2398  -2.0720  -1.9197  -1.5951
    -1.4703  -1.3701  -1.3539  -1.2847  -1.2189  -1.0828  -1.0760  -1.0406
    -0.9937  -0.9915  -0.9408  -0.9334  -0.8867  -0.7125  -0.6753  -0.6424
    -0.6408  -0.5231  -0.4613  -0.3232  -0.2699  -0.2084  -0.1811  -0.1018
    -0.0197  -0.0114   0.0074   0.0077   0.0172   0.1720   0.1827   0.3308
     0.4187   0.5753   0.5948   0.6175   0.7461   0.7711   0.8339   0.8863
     0.9142   0.9168   0.9260   0.9709   1.0207   1.1281   1.1635   1.2168
     1.2248   1.2306   1.3642   1.4233   1.4690   1.6679   1.6706   1.6716
     1.6860   1.8822   1.9571   2.0241   2.6918   2.6990   3.1218   4.3579
     5.7730   5.9538   5.9621   6.1742   6.2050   6.3367   7.1124   7.2616
     7.3114   7.3943   7.4438   7.6408   7.7287   7.8487   8.0179   8.0753
     8.1821   8.2599

          k = 0.0000 0.3844 0.0000 ( 38732 PWs)   bands (ev):

   -38.7003 -38.1753 -24.5527 -23.2383 -23.1865 -23.1500 -19.2362 -19.0235
   -18.7912 -18.6994 -18.4884 -18.2246 -15.4375 -15.3123 -15.2311 -15.0488
   -15.0275 -15.0101 -14.7708 -14.7299 -14.7091 -14.6761 -14.4521 -14.2770
   -14.2737 -14.2257 -14.0324  -9.8688  -9.5622  -9.2691  -8.4941  -8.4746
    -8.4327  -8.4268  -8.3782  -8.3076  -8.1062  -8.0572  -7.9907  -3.7261
    -3.5594  -3.5066  -3.3348  -3.2407  -3.1576  -3.1520  -2.5094  -2.5035
    -2.4609  -2.4066  -2.2753  -2.1960  -2.1828  -2.1452  -2.1243  -1.6881
    -1.6468  -1.5958  -1.5394  -1.4339  -1.4029  -1.3393  -1.3381  -1.3050
    -1.1821  -1.1735  -1.0928  -1.0308  -0.9983  -0.8858  -0.8845  -0.8805
    -0.8394  -0.6892  -0.6388  -0.5095  -0.4530  -0.4373  -0.1624  -0.0958
    -0.0476  -0.0170   0.0288   0.0301   0.0312   0.0313   0.3110   0.4223
     0.4523   0.6255   0.6797   0.7205   0.7642   0.7961   0.8687   0.9445
     0.9592   0.9899   0.9988   1.1118   1.1327   1.1546   1.3139   1.3885
     1.4068   1.5263   1.6067   1.6356   1.6584   1.7158   1.8129   2.0047
     2.0175   2.0789   2.0791   2.1536   2.6642   2.6807   3.6680   4.9884
     5.9194   6.6899   6.8311   6.8952   7.0433   7.2078   7.2818   7.4454
     7.6201   7.7060   8.0288   8.0796   8.2206   8.2350   8.3878   8.4732
     8.6161   8.6866

          k = 0.0000-0.5125 0.0000 ( 38850 PWs)   bands (ev):

   -38.6979 -38.1728 -24.5338 -23.2153 -23.1634 -23.1278 -19.3122 -18.9803
   -18.8711 -18.6962 -18.4420 -18.2211 -15.3926 -15.3058 -15.2306 -15.0952
   -15.0037 -14.9202 -14.8454 -14.8304 -14.7291 -14.6643 -14.4956 -14.2454
   -14.2424 -14.1252 -14.0665  -9.8423  -9.5789  -9.2331  -8.4794  -8.4564
    -8.4384  -8.4159  -8.3899  -8.3247  -8.0592  -8.0099  -7.9470  -3.9685
    -3.7068  -3.6747  -3.4684  -3.4540  -3.3893  -3.3787  -2.5441  -2.5376
    -2.5151  -2.4804  -2.2760  -2.2702  -2.1288  -2.0747  -1.9488  -1.8597
    -1.7125  -1.6799  -1.6407  -1.6226  -1.5232  -1.4585  -1.3781  -1.2864
    -1.2782  -1.2016  -1.1207  -1.0318  -1.0107  -0.9803  -0.9728  -0.9715
    -0.9121  -0.8888  -0.6868  -0.5741  -0.5015  -0.4966  -0.1014  -0.0970
    -0.0879  -0.0767  -0.0439   0.0369   0.0373   0.0431   0.2971   0.5075
     0.5704   0.6038   0.6839   0.7631   0.7713   0.8240   0.9381   0.9427
     0.9457   0.9524   1.0645   1.1145   1.1346   1.1488   1.4424   1.4639
     1.5479   1.5627   1.6122   1.7956   1.8659   1.8771   1.9388   1.9430
     2.0951   2.1914   2.2408   2.2415   2.5280   2.5773   3.8541   5.4883
     5.6204   7.0130   7.1496   7.2392   7.3349   7.3446   7.4547   7.5802
     7.7794   7.8442   8.2270   8.2908   8.3698   8.5882   8.6039   8.6154
     8.7543   8.7933

          k = 0.1250 0.0000 0.0000 ( 38782 PWs)   bands (ev):

   -38.7120 -38.1876 -24.6450 -23.3491 -23.2975 -23.2564 -19.2164 -18.8182
   -18.7063 -18.6958 -18.3552 -18.2235 -15.9292 -15.5952 -15.3743 -15.1113
   -14.9087 -14.9000 -14.8079 -14.6183 -14.5983 -14.5185 -14.3570 -14.3506
   -14.3361 -14.1320 -13.9927  -9.9955  -9.4640  -9.4263  -8.6026  -8.5680
    -8.5403  -8.3247  -8.2989  -8.2766  -8.2492  -8.1902  -8.1725  -2.7630
    -2.6767  -2.6369  -2.5895  -2.4411  -2.4102  -2.4039  -2.3805  -2.3724
    -2.3298  -2.1256  -1.8772  -1.5769  -1.5751  -1.4635  -1.1873  -1.1867
    -1.0765  -1.0487  -1.0445  -1.0349  -0.9009  -0.7455  -0.7344  -0.7337
    -0.7047  -0.7033  -0.6477  -0.6407  -0.5608  -0.5134  -0.4730  -0.4118
    -0.3434  -0.2370  -0.1887  -0.1851  -0.1648  -0.1482  -0.1174  -0.0793
    -0.0633  -0.0498  -0.0464  -0.0222  -0.0009   0.0490   0.0645   0.0861
     0.1723   0.3706   0.4112   0.4259   0.4766   0.5597   0.6132   0.6544
     0.6558   0.6571   0.7875   0.8492   0.8918   0.9264   1.0307   1.0965
     1.1271   1.1947   1.2952   1.3641   1.4698   1.5038   1.5392   1.5953
     1.6439   1.6793   1.7450   1.7492   1.8415   2.1213   2.1213   3.8564
     4.8766   4.8970   4.9421   5.4597   5.5674   5.9105   6.3309   6.3853
     6.7063   7.0583   7.3158   7.4063   7.5655   7.5761   7.7373   7.9006
     7.9280   8.0395

          k = 0.1250 0.1281 0.0000 ( 38802 PWs)   bands (ev):

   -38.7097 -38.1851 -24.6275 -23.3283 -23.2766 -23.2363 -19.1809 -18.8222
   -18.8012 -18.6582 -18.3570 -18.3280 -15.8213 -15.4966 -15.3260 -15.1093
   -14.9080 -14.8966 -14.7801 -14.6515 -14.5911 -14.5145 -14.4063 -14.3500
   -14.3360 -14.1853 -14.0131  -9.9749  -9.6127  -9.3108  -8.5875  -8.5558
    -8.5287  -8.4725  -8.4231  -8.3432  -8.1750  -8.1261  -8.0524  -2.8694
    -2.8133  -2.7663  -2.6216  -2.4750  -2.4721  -2.4378  -2.4060  -2.4057
    -2.2527  -2.0787  -2.0632  -1.9886  -1.8381  -1.5667  -1.5639  -1.5327
    -1.3742  -1.2278  -1.1582  -1.0727  -1.0369  -0.9980  -0.9865  -0.9334
    -0.9210  -0.8976  -0.7453  -0.7070  -0.6842  -0.5234  -0.4576  -0.4528
    -0.4245  -0.3238  -0.3127  -0.2234  -0.1663  -0.1431  -0.1267  -0.1212
    -0.0754   0.0015   0.0030   0.0198   0.1245   0.1618   0.2302   0.2370
     0.2562   0.3962   0.4229   0.4826   0.5518   0.6070   0.6430   0.7140
     0.7878   0.8019   0.8680   0.9378   0.9494   0.9579   0.9664   1.1917
     1.1981   1.2518   1.2952   1.3093   1.3201   1.4377   1.4851   1.5727
     1.8889   2.0100   2.0632   2.0986   2.2990   2.4095   2.4203   4.0238
     5.1909   5.2129   5.2188   5.6939   5.7967   6.0340   6.6367   6.6902
     6.9533   7.2277   7.2776   7.4270   7.4856   7.7064   7.7814   7.8503
     7.9243   8.0764

          k = 0.1250 0.2563 0.0000 ( 38854 PWs)   bands (ev):

   -38.7041 -38.1793 -24.5846 -23.2771 -23.2253 -23.1870 -19.0910 -19.0338
   -18.8025 -18.5841 -18.5530 -18.3370 -15.5755 -15.2951 -15.1979 -15.1542
   -14.9341 -14.9203 -14.7366 -14.7168 -14.6401 -14.5355 -14.4117 -14.3241
   -14.3182 -14.3140 -14.0250  -9.9260  -9.7184  -9.2765  -8.5964  -8.5469
    -8.5325  -8.5192  -8.4742  -8.4538  -8.1309  -8.0821  -8.0158  -3.3051
    -3.1807  -3.1099  -2.9827  -2.6903  -2.6211  -2.5965  -2.5294  -2.4573
    -2.4119  -2.3866  -2.3247  -2.3204  -2.1930  -2.0299  -1.9251  -1.8561
    -1.5512  -1.4095  -1.3970  -1.3908  -1.3404  -1.3234  -1.2787  -1.1975
    -1.1753  -0.9847  -0.9524  -0.8783  -0.8362  -0.7871  -0.7346  -0.6376
    -0.6158  -0.4549  -0.4098  -0.3782  -0.2587  -0.2041  -0.1469  -0.1277
    -0.1029  -0.0604   0.0393   0.0475   0.1938   0.2026   0.3610   0.3921
     0.6107   0.6116   0.6564   0.7070   0.7265   0.7988   0.8017   0.8463
     0.8510   0.9406   1.0041   1.0299   1.0528   1.1257   1.1258   1.1908
     1.2623   1.2831   1.3764   1.4674   1.6216   1.6280   1.6431   1.6924
     2.1301   2.2763   2.3709   2.4384   2.6965   2.7044   3.1250   4.4885
     5.8150   6.0073   6.0172   6.1574   6.3058   6.4224   7.1931   7.2430
     7.4607   7.4801   7.5053   7.5381   7.7371   7.8636   7.9873   8.1869
     8.2316   8.2428

          k = 0.1250 0.3844 0.0000 ( 38857 PWs)   bands (ev):

   -38.6985 -38.1734 -24.5408 -23.2245 -23.1727 -23.1364 -19.2302 -18.9941
   -18.7926 -18.7838 -18.4571 -18.3258 -15.3356 -15.2677 -15.1783 -15.0363
   -14.9889 -14.9472 -14.7492 -14.7438 -14.6952 -14.6862 -14.4332 -14.2722
   -14.2697 -14.2534 -14.0195  -9.8754  -9.7278  -9.3306  -8.6012  -8.5524
    -8.5022  -8.4859  -8.4709  -8.4428  -8.1788  -8.1300  -8.0630  -3.7309
    -3.6541  -3.6031  -3.3873  -3.2611  -3.1474  -3.1432  -2.5415  -2.5227
    -2.4872  -2.3704  -2.3580  -2.2822  -2.2745  -2.1039  -2.0956  -1.9054
    -1.8554  -1.7654  -1.6698  -1.6196  -1.5235  -1.5086  -1.4022  -1.3208
    -1.2448  -1.0868  -1.0690  -1.0286  -0.9679  -0.9678  -0.9184  -0.8839
    -0.8392  -0.5467  -0.4532  -0.3859  -0.3574  -0.3347  -0.1527  -0.1061
    -0.1035   0.0008   0.0410   0.0619   0.1467   0.2248   0.3448   0.5360
     0.6248   0.6773   0.6830   0.8213   0.8586   0.8950   0.9252   0.9677
     0.9940   1.0040   1.0562   1.1203   1.1700   1.2287   1.3001   1.3444
     1.4334   1.6464   1.6539   1.7082   1.7135   2.0056   2.0531   2.0649
     2.1583   2.2818   2.3915   2.5483   2.6885   2.7622   3.6669   5.0893
     5.7521   6.6346   6.7345   6.7440   6.9392   6.9498   7.1803   7.2853
     7.5958   7.8667   8.0134   8.0546   8.3331   8.3489   8.4672   8.5110
     8.6158   8.7730

          k = 0.1250-0.5125 0.0000 ( 38824 PWs)   bands (ev):

   -38.6962 -38.1710 -24.5224 -23.2024 -23.1505 -23.1150 -19.3058 -18.9516
   -18.8632 -18.7885 -18.4114 -18.3211 -15.3519 -15.1884 -15.1853 -15.0600
   -14.9051 -14.8754 -14.8441 -14.8098 -14.7255 -14.7000 -14.4701 -14.2427
   -14.2412 -14.1616 -14.0375  -9.8504  -9.7078  -9.3785  -8.5759  -8.5274
    -8.4899  -8.4689  -8.4550  -8.4285  -8.2268  -8.1780  -8.1058  -3.9589
    -3.8205  -3.7780  -3.5274  -3.4742  -3.3837  -3.3768  -2.5592  -2.5467
    -2.4955  -2.3908  -2.3105  -2.2369  -2.1595  -2.1535  -2.1106  -2.0460
    -2.0074  -1.9807  -1.7011  -1.6926  -1.5807  -1.5671  -1.4954  -1.3842
    -1.2062  -1.1627  -1.1397  -1.0829  -1.0505  -0.9747  -0.9628  -0.9284
    -0.9084  -0.5835  -0.4703  -0.4561  -0.3557  -0.3548  -0.1540  -0.1446
    -0.0862   0.0135   0.0214   0.0884   0.1153   0.2072   0.2388   0.6049
     0.6846   0.7461   0.7873   0.8386   0.8406   0.8767   0.9377   0.9786
     1.0391   1.0454   1.0718   1.0839   1.1728   1.2657   1.3996   1.5199
     1.5601   1.7699   1.8387   1.9358   1.9361   2.1233   2.1764   2.2139
     2.2205   2.2290   2.3088   2.4285   2.5851   2.7726   3.8513   5.3834
     5.7418   6.6548   6.8909   6.9068   7.0081   7.0439   7.1412   7.4141
     7.8675   8.2274   8.4141   8.4635   8.5231   8.7055   8.7170   8.8382
     8.8413   8.9446

          k = 0.2500 0.0000 0.0000 ( 38902 PWs)   bands (ev):

   -38.7076 -38.1829 -24.6084 -23.3039 -23.2522 -23.2130 -19.1347 -19.0330
   -18.7003 -18.6072 -18.5892 -18.2170 -15.6653 -15.4484 -15.3661 -15.2186
   -15.0340 -15.0110 -14.7708 -14.7262 -14.6339 -14.4909 -14.4251 -14.3450
   -14.3402 -14.1989 -13.9803 -10.0233  -9.3985  -9.3513  -8.6126  -8.5904
    -8.5515  -8.2547  -8.2136  -8.2070  -8.1634  -8.1274  -8.0927  -3.0709
    -2.9827  -2.9810  -2.4887  -2.4829  -2.4451  -2.4450  -2.4304  -2.3371
    -2.2882  -2.2457  -2.0355  -1.6499  -1.5841  -1.5560  -1.3667  -1.2915
    -1.2699  -1.2113  -1.1302  -1.1212  -1.0380  -1.0312  -1.0076  -1.0074
    -0.9461  -0.9391  -0.9068  -0.7499  -0.7296  -0.5465  -0.4949  -0.4849
    -0.4566  -0.3355  -0.3136  -0.2975  -0.2204  -0.1521  -0.1445  -0.1370
    -0.0751  -0.0703   0.0426   0.0803   0.0826   0.0983   0.1122   0.1954
     0.2126   0.2169   0.2782   0.4461   0.5000   0.5177   0.5628   0.6339
     0.7033   0.8080   0.8730   0.8762   0.9501   1.0003   1.0020   1.0169
     1.0882   1.1428   1.3201   1.3864   1.4234   1.4303   1.5249   1.6258
     1.6556   1.8698   1.8877   1.9952   2.0306   2.2497   2.2581   4.2930
     5.3315   5.3409   5.4483   6.0562   6.1861   6.2339   6.9636   7.0054
     7.1919   7.3395   7.5199   7.5693   7.7631   7.8511   7.9025   8.1061
     8.1874   8.3510

          k = 0.2500 0.1281 0.0000 ( 38874 PWs)   bands (ev):

   -38.7053 -38.1805 -24.5921 -23.2849 -23.2332 -23.1946 -19.1006 -19.0273
   -18.8004 -18.5841 -18.5694 -18.3242 -15.5601 -15.3919 -15.2884 -15.1913
   -14.9936 -14.9862 -14.7411 -14.6993 -14.6830 -14.4987 -14.4304 -14.3346
   -14.3288 -14.2279 -13.9997 -10.0037  -9.6507  -9.2477  -8.6164  -8.5901
    -8.5613  -8.4999  -8.4490  -8.3750  -8.1008  -8.0519  -7.9887  -3.2096
    -3.0790  -3.0263  -2.5654  -2.5292  -2.5264  -2.4665  -2.4567  -2.4218
    -2.4208  -2.1735  -2.1048  -1.9944  -1.9023  -1.6510  -1.5739  -1.5623
    -1.5593  -1.4191  -1.3908  -1.3608  -1.3040  -1.2461  -1.2348  -1.1123
    -1.0170  -1.0153  -0.9635  -0.8333  -0.7703  -0.5956  -0.5323  -0.4146
    -0.3767  -0.3686  -0.3585  -0.3278  -0.2509  -0.2037  -0.1719  -0.1193
    -0.0956  -0.0917   0.1280   0.1290   0.1372   0.2091   0.2644   0.2738
     0.3678   0.4011   0.4519   0.5792   0.6423   0.6896   0.7287   0.7389
     0.7600   0.8372   0.8492   0.9160   0.9361   0.9621   1.0767   1.1040
     1.1546   1.1582   1.3637   1.3765   1.4094   1.4672   1.6009   1.6176
     2.1836   2.3186   2.3407   2.4143   2.4314   2.5089   2.5091   4.4363
     5.5738   5.5823   5.6193   6.1768   6.2015   6.3219   7.2110   7.2127
     7.2662   7.3037   7.4311   7.5102   7.6618   7.7813   8.0702   8.1616
     8.2587   8.3958

          k = 0.2500 0.2563 0.0000 ( 38887 PWs)   bands (ev):

   -38.6998 -38.1747 -24.5523 -23.2384 -23.1866 -23.1494 -19.0341 -19.0144
   -18.9974 -18.5824 -18.5431 -18.4754 -15.3276 -15.2381 -15.1507 -15.1394
   -14.9363 -14.8982 -14.8421 -14.6747 -14.6292 -14.5307 -14.4171 -14.3084
   -14.3019 -14.2986 -14.0004  -9.9669  -9.8960  -9.3369  -8.8026  -8.7537
    -8.6691  -8.5491  -8.5255  -8.4922  -8.1981  -8.1494  -8.0853  -3.6300
    -3.4641  -3.2528  -2.9737  -2.7840  -2.7053  -2.6508  -2.6355  -2.5538
    -2.5388  -2.4150  -2.3351  -2.3333  -2.3298  -2.0719  -2.0015  -1.9683
    -1.9196  -1.8721  -1.8280  -1.5036  -1.4413  -1.3284  -1.3236  -1.3080
    -1.1903  -1.1666  -0.9704  -0.9083  -0.8188  -0.7582  -0.7466  -0.6595
    -0.6425  -0.6111  -0.5564  -0.2993  -0.2711  -0.2711  -0.0424  -0.0067
     0.1219   0.1403   0.1699   0.1873   0.2656   0.4061   0.6179   0.6530
     0.6909   0.7118   0.7732   0.7836   0.7989   0.8095   0.8136   0.8976
     0.9305   0.9654   0.9767   1.0750   1.1270   1.2242   1.2247   1.2927
     1.3700   1.3988   1.5123   1.5514   1.5627   1.5862   1.6950   1.7211
     2.6660   2.6739   2.7965   2.9123   2.9855   3.1349   3.1738   4.8550
     5.5478   6.0867   6.0981   6.3020   6.5452   6.5560   7.0384   7.3218
     7.4128   7.6690   7.7454   7.7788   7.9639   8.1848   8.2110   8.3652
     8.4194   8.4893

          k = 0.2500 0.3844 0.0000 ( 38919 PWs)   bands (ev):

   -38.6942 -38.1689 -24.5116 -23.1909 -23.1390 -23.1032 -19.2157 -18.9975
   -18.9190 -18.7661 -18.5450 -18.3777 -15.2043 -15.0782 -15.0753 -15.0219
   -14.9152 -14.8923 -14.8103 -14.7054 -14.6313 -14.6186 -14.3876 -14.2735
   -14.2585 -14.2584 -13.9705 -10.0283  -9.8938  -9.5549  -8.9093  -8.8605
    -8.7677  -8.5285  -8.5126  -8.4703  -8.4348  -8.3865  -8.3083  -4.0443
    -3.9178  -3.6762  -3.5602  -3.3513  -3.1210  -3.1195  -2.7312  -2.6783
    -2.6340  -2.4430  -2.4385  -2.4346  -2.4237  -2.3327  -2.2429  -2.2188
    -2.0401  -1.9370  -1.9069  -1.7543  -1.5817  -1.4463  -1.4376  -1.3088
    -1.1976  -1.1835  -1.1009  -1.0159  -0.9484  -0.9076  -0.8928  -0.8773
    -0.7520  -0.6594  -0.6270  -0.2816  -0.2725  -0.1772   0.0342   0.0809
     0.1575   0.1855   0.3555   0.3697   0.4713   0.4871   0.7059   0.7282
     0.7713   0.7749   0.8648   0.9791   1.0098   1.0331   1.0946   1.1174
     1.1664   1.1767   1.1848   1.2286   1.2318   1.3199   1.3905   1.4483
     1.5002   1.6608   1.6713   1.6744   1.7216   1.9809   1.9870   2.0392
     2.5957   2.6043   3.0743   3.1894   3.2532   3.5943   3.6588   5.0592
     5.5137   6.2450   6.2514   6.4294   6.4941   6.6013   7.1680   7.3435
     7.8066   8.1020   8.1563   8.1835   8.3308   8.6238   8.7127   8.8371
     8.8693   9.0318

          k = 0.2500-0.5125 0.0000 ( 38962 PWs)   bands (ev):

   -38.6919 -38.1665 -24.4946 -23.1708 -23.1189 -23.0837 -19.2902 -18.9917
   -18.8783 -18.8441 -18.5382 -18.3340 -15.2486 -15.0658 -14.9726 -14.9270
   -14.8770 -14.8399 -14.7651 -14.7608 -14.7586 -14.6283 -14.4058 -14.2384
   -14.2377 -14.1826 -13.9652 -10.0162  -9.8753  -9.6938  -8.8940  -8.8451
    -8.7596  -8.5941  -8.5456  -8.5181  -8.5037  -8.4562  -8.4449  -4.2080
    -4.1054  -3.9122  -3.7252  -3.5737  -3.3599  -3.3588  -2.7244  -2.6762
    -2.6040  -2.6006  -2.4481  -2.4414  -2.4056  -2.4022  -2.3360  -2.2783
    -2.0680  -2.0024  -1.9235  -1.8272  -1.6511  -1.4670  -1.4629  -1.2845
    -1.2249  -1.1853  -1.1837  -1.0974  -1.0006  -0.9668  -0.9465  -0.8780
    -0.7422  -0.6748  -0.6408  -0.2790  -0.2702  -0.1169   0.0907   0.1264
     0.1639   0.2049   0.3819   0.4465   0.4954   0.5389   0.6061   0.8080
     0.8148   0.8964   0.9372   1.0089   1.0846   1.0867   1.1509   1.1579
     1.1965   1.2259   1.2834   1.2924   1.3183   1.3755   1.3849   1.4925
     1.5281   1.7183   1.8110   1.9258   1.9309   2.1563   2.1656   2.1839
     2.4380   2.4515   3.1318   3.2423   3.3075   3.7132   3.8348   4.8869
     6.0168   6.1836   6.2046   6.3246   6.3424   6.4877   6.9723   7.5489
     8.0592   8.0941   8.7136   8.7300   8.7501   8.7726   9.0225   9.0741
     9.1184   9.1712

          k = 0.3750 0.0000 0.0000 ( 38920 PWs)   bands (ev):

   -38.7032 -38.1783 -24.5712 -23.2576 -23.2057 -23.1686 -19.2222 -19.0460
   -18.7924 -18.6942 -18.5101 -18.2106 -15.5417 -15.4233 -15.3379 -15.3036
   -15.1273 -15.0298 -14.8573 -14.7809 -14.6277 -14.6115 -14.3419 -14.3334
   -14.3053 -14.2423 -13.9689 -10.0300  -9.3309  -9.2998  -8.6133  -8.5918
    -8.5528  -8.1954  -8.1483  -8.1243  -8.0879  -8.0736  -8.0094  -3.3944
    -3.3111  -3.2453  -2.9292  -2.5510  -2.5393  -2.4417  -2.2824  -2.2189
    -2.2172  -2.1442  -2.0621  -1.7403  -1.6701  -1.6028  -1.5388  -1.5178
    -1.4417  -1.4086  -1.3178  -1.3067  -1.2621  -1.1919  -1.1698  -1.1567
    -1.1320  -1.0202  -1.0158  -0.9110  -0.8131  -0.7921  -0.6935  -0.5611
    -0.5170  -0.5139  -0.5122  -0.2169  -0.1774  -0.1614  -0.1351  -0.1120
    -0.0885  -0.0838   0.0129   0.0812   0.1396   0.1409   0.1596   0.1612
     0.1917   0.3170   0.3208   0.3947   0.5049   0.5659   0.6639   0.6976
     0.8051   0.8063   0.8903   0.9014   0.9490   0.9728   0.9928   1.0561
     1.2258   1.2742   1.3342   1.3384   1.3589   1.4002   1.6730   1.6890
     1.7629   1.9147   1.9177   2.0685   2.0948   2.3641   2.3771   4.8966
     5.8747   5.9698   5.9763   6.4242   6.6790   6.9452   7.0526   7.4696
     7.4761   7.4931   7.8076   7.8987   7.9156   8.0708   8.1985   8.2102
     8.3886   8.5869

          k = 0.3750 0.1281 0.0000 ( 38880 PWs)   bands (ev):

   -38.7010 -38.1759 -24.5562 -23.2406 -23.1887 -23.1519 -19.2149 -19.0131
   -18.7926 -18.7833 -18.4760 -18.3151 -15.4748 -15.3586 -15.2545 -15.2535
   -15.0836 -14.9620 -14.7991 -14.7458 -14.6941 -14.5874 -14.3209 -14.3170
   -14.2931 -14.2518 -13.9932 -10.0122  -9.5904  -9.3053  -8.6118  -8.5930
    -8.5547  -8.4423  -8.3929  -8.3180  -8.1568  -8.1079  -8.0500  -3.5424
    -3.4239  -3.3004  -2.9567  -2.5832  -2.5525  -2.5013  -2.4283  -2.3662
    -2.3531  -2.1549  -2.1007  -1.9772  -1.8960  -1.8786  -1.8170  -1.7175
    -1.6621  -1.5637  -1.5610  -1.4567  -1.4267  -1.3695  -1.3162  -1.2236
    -1.1176  -1.0931  -1.0881  -0.9629  -0.9316  -0.6784  -0.5851  -0.5073
    -0.4526  -0.4131  -0.4129  -0.3421  -0.2758  -0.1987  -0.1955  -0.1488
    -0.0908   0.0152   0.0891   0.1917   0.2073   0.2681   0.2969   0.3197
     0.3321   0.5294   0.5882   0.5889   0.6251   0.6790   0.7638   0.8112
     0.8167   0.8408   0.8794   0.9153   1.0336   1.0389   1.0590   1.1138
     1.2040   1.2487   1.3274   1.3665   1.3884   1.5903   1.6577   1.8772
     2.2925   2.3629   2.3692   2.4423   2.4797   2.6634   2.7306   5.0231
     5.8002   6.0925   6.1015   6.2088   6.7620   6.8348   7.1226   7.1789
     7.4504   7.5444   7.5864   7.9494   8.2033   8.2377   8.3454   8.3539
     8.5138   8.6176

          k = 0.3750 0.2563 0.0000 ( 38879 PWs)   bands (ev):

   -38.6955 -38.1702 -24.5195 -23.1990 -23.1471 -23.1111 -19.1974 -19.0078
   -18.9298 -18.7616 -18.5453 -18.3863 -15.2921 -15.2333 -15.1278 -15.0671
   -14.9458 -14.8595 -14.8497 -14.6935 -14.6614 -14.5326 -14.2909 -14.2793
   -14.2789 -14.2559 -13.9904 -10.0070  -9.9239  -9.5414  -8.8517  -8.8026
    -8.7225  -8.5676  -8.5402  -8.5102  -8.4255  -8.3773  -8.3063  -3.9820
    -3.8240  -3.5308  -3.1198  -2.9448  -2.7690  -2.7141  -2.6652  -2.5585
    -2.5550  -2.4831  -2.4408  -2.4238  -2.3426  -2.3397  -2.2453  -2.1890
    -1.9133  -1.8877  -1.8320  -1.6516  -1.4104  -1.3705  -1.2790  -1.2789
    -1.2282  -1.1760  -1.0549  -0.9304  -0.8916  -0.8103  -0.7759  -0.7505
    -0.7130  -0.6039  -0.5897  -0.3277  -0.1926  -0.0923   0.0162   0.1307
     0.2636   0.2862   0.3664   0.3833   0.4923   0.5079   0.6677   0.7096
     0.7474   0.7713   0.8252   0.8573   0.8702   0.9316   0.9338   0.9340
     0.9752   1.0875   1.1087   1.1531   1.1963   1.2018   1.2973   1.4147
     1.4314   1.4657   1.4801   1.5053   1.5826   1.6479   1.6500   1.8880
     2.6672   2.6742   3.1354   3.1943   3.2778   3.3401   3.6157   5.1182
     5.3861   6.0661   6.0764   6.2920   6.3889   6.5448   7.2160   7.4726
     7.6903   7.7863   7.8341   8.1211   8.3522   8.4915   8.5828   8.6382
     8.7543   8.8961

          k = 0.3750 0.3844 0.0000 ( 38979 PWs)   bands (ev):

   -38.6899 -38.1644 -24.4821 -23.1566 -23.1047 -23.0694 -19.2025 -19.1770
   -18.8404 -18.7522 -18.7339 -18.2926 -15.1324 -15.0311 -15.0197 -14.9856
   -14.9327 -14.7763 -14.7574 -14.7167 -14.5865 -14.5317 -14.3387 -14.2462
   -14.2457 -14.1411 -13.9248 -10.2437  -9.9179  -9.8345  -9.1182  -9.0689
    -8.9735  -8.7543  -8.7066  -8.6140  -8.5581  -8.5353  -8.4976  -4.4340
    -4.2989  -3.8936  -3.6031  -3.5666  -3.0939  -3.0933  -2.8669  -2.8388
    -2.8256  -2.7533  -2.7084  -2.6140  -2.4493  -2.4441  -2.4287  -2.3373
    -2.0171  -1.9808  -1.7122  -1.5982  -1.5505  -1.4855  -1.4241  -1.3203
    -1.3045  -1.1611  -1.0971  -1.0453  -1.0174  -0.9789  -0.9304  -0.8847
    -0.8380  -0.5561  -0.5515  -0.3190  -0.0777  -0.0278   0.2989   0.3095
     0.3884   0.4428   0.6811   0.6999   0.7421   0.8463   0.8667   0.9254
     0.9289   0.9624   0.9757   1.0635   1.1246   1.1495   1.1560   1.1651
     1.2220   1.2948   1.3394   1.3853   1.3860   1.4662   1.4718   1.5386
     1.6845   1.7075   1.7629   1.7927   1.7931   1.9082   1.9113   2.0031
     2.5892   2.5944   3.6359   3.7427   3.8350   3.8369   4.2957   4.5017
     5.7019   5.7169   5.8627   5.9737   6.2323   6.4009   7.1813   7.5766
     8.0424   8.0944   8.3604   8.4359   8.4473   8.7697   8.8029   8.8549
     8.9911   9.0556

          k = 0.3750-0.5125 0.0000 ( 39018 PWs)   bands (ev):

   -38.6877 -38.1621 -24.4665 -23.1388 -23.0868 -23.0520 -19.2747 -19.1717
   -18.8249 -18.8013 -18.7295 -18.2512 -15.1368 -15.0346 -14.9193 -14.8821
   -14.8426 -14.7712 -14.7396 -14.6805 -14.6344 -14.5573 -14.3356 -14.2348
   -14.2340 -14.0725 -13.8894 -10.3242  -9.9984  -9.8799  -9.1972  -9.1477
    -9.0542  -8.9094  -8.8620  -8.7547  -8.5562  -8.5280  -8.4920  -4.6150
    -4.4971  -4.0627  -3.8465  -3.7853  -3.3326  -3.3314  -2.9796  -2.8830
    -2.8527  -2.7660  -2.7473  -2.7308  -2.4451  -2.4399  -2.4283  -2.3869
    -2.0697  -2.0018  -1.7322  -1.6543  -1.6200  -1.4489  -1.3748  -1.3738
    -1.3716  -1.1867  -1.1716  -1.0942  -1.0613  -1.0586  -1.0031  -0.8641
    -0.8385  -0.5232  -0.5181  -0.3150  -0.0539   0.0015   0.3155   0.3637
     0.5399   0.5703   0.7657   0.7970   0.8187   0.8918   0.9291   0.9860
     1.0260   1.0763   1.0773   1.1357   1.1968   1.2089   1.2567   1.3062
     1.3603   1.3654   1.3693   1.4289   1.4915   1.5367   1.5581   1.6586
     1.7685   1.7835   1.9113   1.9497   1.9564   2.1047   2.1051   2.1458
     2.4197   2.4258   3.7802   3.9102   4.0001   4.0062   4.2666   4.5220
     5.5048   5.5226   5.8169   6.1563   6.1874   6.3332   6.9915   7.7237
     7.8892   8.2516   8.4120   8.6669   8.6766   8.6876   8.8661   8.9927
     9.0441   9.0637

          k =-0.5000 0.0000 0.0000 ( 38882 PWs)   bands (ev):

   -38.7014 -38.1764 -24.5556 -23.2381 -23.1861 -23.1498 -19.2943 -19.0077
   -18.8694 -18.6917 -18.4678 -18.2079 -15.5861 -15.4498 -15.3490 -15.2372
   -15.1919 -14.9730 -14.9047 -14.8168 -14.6527 -14.6150 -14.3394 -14.3278
   -14.2543 -14.2502 -13.9710 -10.0282  -9.3023  -9.2841  -8.6127  -8.5874
    -8.5518  -8.1727  -8.1258  -8.0860  -8.0764  -8.0351  -7.9737  -3.5179
    -3.4443  -3.3600  -3.1014  -2.5777  -2.5669  -2.4380  -2.2488  -2.2486
    -2.1118  -2.0247  -1.9979  -1.7921  -1.7915  -1.7818  -1.6642  -1.5586
    -1.4591  -1.4389  -1.4324  -1.3932  -1.2656  -1.2553  -1.2310  -1.2019
    -1.2018  -1.0281  -1.0144  -1.0099  -1.0062  -0.8315  -0.7208  -0.6644
    -0.5773  -0.5758  -0.5177  -0.1940  -0.1658  -0.1520  -0.1266  -0.1003
    -0.0940  -0.0893  -0.0273   0.0949   0.1539   0.1576   0.1747   0.2000
     0.2344   0.2414   0.2453   0.5231   0.5722   0.6004   0.6435   0.6954
     0.8313   0.8450   0.8658   0.9397   0.9854   1.0052   1.0106   1.0179
     1.2875   1.2947   1.3152   1.3388   1.3768   1.4542   1.6728   1.7370
     1.8069   1.9186   2.0006   2.0566   2.0755   2.3771   2.4089   5.4798
     5.6527   6.3400   6.7132   6.7559   6.8190   6.8229   6.9927   7.2688
     7.4584   7.5244   7.6252   7.7910   8.0959   8.2626   8.5442   8.5728
     8.6440   8.7941

          k =-0.5000 0.1281 0.0000 ( 38856 PWs)   bands (ev):

   -38.6992 -38.1740 -24.5411 -23.2219 -23.1699 -23.1339 -19.2865 -18.9753
   -18.8597 -18.7893 -18.4347 -18.3112 -15.5147 -15.3996 -15.2931 -15.1504
   -15.1212 -14.9389 -14.8151 -14.7806 -14.6816 -14.6174 -14.3165 -14.3094
   -14.2567 -14.2187 -14.0052 -10.0097  -9.4947  -9.4073  -8.6068  -8.5857
    -8.5480  -8.3078  -8.2973  -8.2610  -8.2466  -8.2018  -8.1776  -3.6713
    -3.5659  -3.4232  -3.1333  -2.5973  -2.5744  -2.4956  -2.4197  -2.3166
    -2.1621  -2.1443  -2.1245  -2.1070  -1.9857  -1.9749  -1.9611  -1.7520
    -1.6608  -1.5754  -1.5665  -1.5654  -1.4837  -1.3370  -1.3223  -1.1860
    -1.1842  -1.1414  -1.1085  -1.0748  -0.9598  -0.7279  -0.6244  -0.5236
    -0.4862  -0.4523  -0.4359  -0.4022  -0.2849  -0.1986  -0.1778  -0.1370
    -0.1272   0.0590   0.1010   0.1643   0.2011   0.2872   0.3100   0.4008
     0.4031   0.5011   0.5345   0.5435   0.7139   0.7328   0.7817   0.8355
     0.8458   0.8767   0.9437   0.9559   1.0000   1.0434   1.0494   1.0762
     1.2484   1.2944   1.3260   1.3665   1.4412   1.5691   1.7697   1.9996
     2.3172   2.3606   2.3681   2.4362   2.4650   2.6865   2.7784   5.5472
     5.7408   5.8948   6.5410   6.5699   6.8812   6.9480   7.0886   7.1707
     7.1715   7.3711   7.6512   8.3126   8.4515   8.4932   8.5762   8.6065
     8.8108   8.8297

          k =-0.5000 0.2563 0.0000 ( 38902 PWs)   bands (ev):

   -38.6937 -38.1683 -24.5057 -23.1825 -23.1305 -23.0950 -19.2678 -19.0034
   -18.8936 -18.8362 -18.5398 -18.3470 -15.3243 -15.2659 -15.1441 -15.0414
   -14.8627 -14.8586 -14.8453 -14.6939 -14.6915 -14.5323 -14.2802 -14.2708
   -14.2692 -14.1349 -14.0219  -9.9749  -9.9087  -9.6993  -8.7740  -8.7237
    -8.6601  -8.6190  -8.5737  -8.5722  -8.5367  -8.5162  -8.4912  -4.1237
    -3.9774  -3.6664  -3.2961  -2.9316  -2.7839  -2.7309  -2.6558  -2.5955
    -2.5610  -2.5524  -2.4766  -2.4215  -2.3864  -2.3431  -2.3410  -2.2721
    -1.9263  -1.9077  -1.8107  -1.6792  -1.3917  -1.3699  -1.2692  -1.2365
    -1.1782  -1.1756  -1.0983  -0.9485  -0.9280  -0.8102  -0.7936  -0.7926
    -0.7394  -0.6102  -0.5734  -0.3513  -0.1543   0.0110   0.0957   0.2125
     0.2515   0.3346   0.4029   0.4512   0.5083   0.6100   0.6488   0.7483
     0.8032   0.8145   0.8151   0.8914   0.9553   0.9593   0.9689   0.9777
     1.0046   1.0608   1.1194   1.1852   1.2666   1.3220   1.3830   1.4155
     1.4238   1.4401   1.4738   1.4782   1.4862   1.6083   1.7240   1.9920
     2.6642   2.6707   3.1432   3.3017   3.3766   3.4354   3.7428   4.9282
     5.9243   5.9482   6.0256   6.0476   6.2606   6.4568   7.3292   7.5863
     7.8824   7.8969   7.9568   8.2482   8.4177   8.6361   8.7832   8.8429
     8.8725   8.9556

          k =-0.5000 0.3844 0.0000 ( 39038 PWs)   bands (ev):

   -38.6882 -38.1626 -24.4698 -23.1423 -23.0903 -23.0553 -19.2490 -19.1944
   -18.8128 -18.8060 -18.7398 -18.2553 -15.1577 -15.0300 -15.0154 -14.9583
   -14.9105 -14.7935 -14.7145 -14.6253 -14.6129 -14.4932 -14.3153 -14.2403
   -14.2400 -14.0417 -13.9219 -10.3053  -9.9863  -9.9130  -9.1675  -9.1177
    -9.0265  -8.9129  -8.8658  -8.7637  -8.5728  -8.5454  -8.5106  -4.5944
    -4.4626  -4.0335  -3.7007  -3.5910  -3.0830  -3.0816  -2.9821  -2.9001
    -2.8700  -2.7930  -2.7817  -2.7462  -2.4483  -2.4444  -2.4242  -2.3740
    -2.0504  -1.9739  -1.6354  -1.5409  -1.5408  -1.5077  -1.5075  -1.2794
    -1.2776  -1.2290  -1.0859  -1.0183  -1.0160  -1.0140  -0.9508  -0.9053
    -0.8850  -0.4987  -0.4918  -0.3367  -0.0375   0.0808   0.3660   0.4177
     0.5184   0.6637   0.7883   0.8079   0.8635   0.8816   0.9086   0.9784
     1.0173   1.0207   1.0240   1.0979   1.1630   1.1984   1.2275   1.2526
     1.3099   1.3299   1.3405   1.3555   1.3998   1.5019   1.5639   1.6787
     1.7054   1.7157   1.7525   1.8660   1.8703   1.8858   1.9288   1.9716
     2.5873   2.5890   3.6344   3.9647   4.0416   4.0550   4.2582   4.5350
     5.4635   5.4862   5.8075   6.0938   6.1794   6.2347   7.2106   7.7045
     7.9211   8.2249   8.2555   8.4254   8.6205   8.6975   8.8375   8.9443
     9.0248   9.0600

          k =-0.5000-0.5125 0.0000 ( 39028 PWs)   bands (ev):

   -38.6859 -38.1602 -24.4547 -23.1254 -23.0734 -23.0387 -19.2682 -19.2412
   -18.8170 -18.8030 -18.7677 -18.2150 -15.1002 -15.0875 -14.8440 -14.8438
   -14.8301 -14.8094 -14.7550 -14.5849 -14.5745 -14.5325 -14.3036 -14.2335
   -14.2322 -14.0007 -13.8570 -10.4530 -10.1047  -9.8937  -9.3196  -9.2698
    -9.1742  -9.0303  -8.9831  -8.8720  -8.5738  -8.5389  -8.5070  -4.7838
    -4.6654  -4.2020  -3.9105  -3.8377  -3.3210  -3.3193  -3.1135  -2.9280
    -2.9095  -2.8771  -2.8352  -2.8052  -2.4366  -2.4333  -2.4211  -2.4093
    -2.0918  -1.9919  -1.6563  -1.6195  -1.6010  -1.5175  -1.4475  -1.3342
    -1.3290  -1.2581  -1.1758  -1.0973  -1.0971  -1.0246  -0.9732  -0.9055
    -0.8930  -0.4557  -0.4524  -0.3317   0.0053   0.1002   0.3741   0.4858
     0.7090   0.8154   0.9163   0.9451   0.9496   0.9746   1.0150   1.0164
     1.0261   1.1045   1.1228   1.1778   1.2411   1.2500   1.2674   1.4387
     1.4487   1.4527   1.4666   1.4809   1.4899   1.5475   1.6045   1.7980
     1.8918   1.9354   1.9658   1.9697   2.0665   2.0774   2.0778   2.1167
     2.4111   2.4145   3.7683   4.0014   4.1810   4.2684   4.2873   4.8089
     5.2141   5.2370   5.6480   6.0421   6.1951   6.3511   7.1209   7.7630
     7.8184   8.1343   8.3807   8.4363   8.5794   8.5964   8.6496   8.7359
     8.9040   9.1309

     the Fermi energy is     2.3756 ev

!    total energy              =   -1868.73332255 Ry
     Harris-Foulkes estimate   =   -1868.73332123 Ry
     estimated scf accuracy    <       0.00000079 Ry

     The total energy is the sum of the following terms:

     one-electron contribution =  -24045.18159925 Ry
     hartree contribution      =   12171.69159418 Ry
     xc contribution           =    -642.25740658 Ry
     ewald contribution        =   10647.02301486 Ry
     smearing contrib. (-TS)   =      -0.00892577 Ry

     convergence has been achieved in  37 iterations

     negative rho (up, down):  9.057E-02 0.000E+00

     Forces acting on atoms (cartesian axes, Ry/au):

     atom    1 type  3   force =     0.00000000    0.00000000    0.00002404
     atom    2 type  2   force =     0.00000000    0.00000000    0.00022971
     atom    3 type  3   force =     0.00000000    0.00000000   -0.00009870
     atom    4 type  1   force =     0.00000000    0.00000000   -0.00016455
     atom    5 type  2   force =     0.00000000    0.00000000   -0.00064026
     atom    6 type  3   force =     0.00000000    0.00000000    0.00048968
     atom    7 type  3   force =     0.00000000    0.00000000    0.00000512
     atom    8 type  4   force =     0.00000000    0.00000000   -0.00082598
     atom    9 type  3   force =     0.00000000    0.00000000    0.00119966
     atom   10 type  3   force =     0.00000000    0.00000000    0.00152042
     atom   11 type  2   force =     0.00000000    0.00000000   -0.00161755
     atom   12 type  1   force =     0.00000000    0.00000000   -0.00525634
     atom   13 type  3   force =     0.00000000    0.00000000    0.00299494
     atom   14 type  3   force =     0.00000000    0.00000000    0.01674251
     atom   15 type  2   force =     0.00000000    0.00000000   -0.01620064
     atom   16 type  3   force =     0.00000000    0.00000000    0.04076663
     atom   17 type  1   force =     0.00000000    0.00000000   -0.03912145
     atom   18 type  2   force =     0.00000000    0.00000000   -0.05943841
     atom   19 type  3   force =     0.00000000    0.00000000    0.04261887
     atom   20 type  3   force =     0.00000000    0.00000000    0.03235704
     atom   21 type  4   force =     0.00000000    0.00000000   -0.04024122
     atom   22 type  3   force =     0.00000000    0.00000000    0.01361263
     atom   23 type  3   force =     0.00000000    0.00000000    0.01568849
     atom   24 type  2   force =     0.00000000    0.00000000   -0.00196561
     atom   25 type  1   force =     0.00000000    0.00000000   -0.00310645
     atom   26 type  3   force =     0.00000000    0.00000000    0.00063407
     atom   27 type  2   force =     0.00000000    0.00000000   -0.00098286
     atom   28 type  3   force =     0.00000000    0.00000000    0.00077620

     Total force =     0.108401     Total SCF correction =     0.003178


     Computing stress (Cartesian axis) and pressure


     negative rho (up, down):  9.057E-02 0.000E+00
          total   stress  (Ry/bohr**3)                   (kbar)     P=       -3.40
  -0.00005399   0.00000000   0.00000000           -7.94        0.00        0.00
   0.00000000  -0.00000597   0.00000000            0.00       -0.88        0.00
   0.00000000   0.00000000  -0.00000935            0.00        0.00       -1.38


     BFGS Geometry Optimization

     number of scf cycles    =   1
     number of bfgs steps    =   0

     energy   new            =   -1868.7333225538 Ry

     new trust radius        =       0.0594384050 bohr
     new conv_thr            =       0.0000010000 Ry


ATOMIC_POSITIONS (angstrom)
O             0.0000000000        1.8966400000       -0.1003100000    0   0   0
Cu            0.0000000000        0.0000000000        0.0839000000    0   0   0
O             0.0000000000        0.0000000000        1.9725500000    0   0   0
Ba            1.9441200000        1.8966400000        2.0684200000    0   0   0
Cu            0.0000000000        0.0000000000        4.0810400000    0   0   0
O             1.9441200000        0.0000000000        4.3476700000    0   0   0
O             0.0000000000        1.8966400000        4.3832700000    0   0   0
Y             1.9441200000        1.8966400000        5.8085600000    0   0   0
O             0.0000000000        1.8966400000        7.1922400000    0   0   0
O             1.9441200000        0.0000000000        7.2681800000    0   0   0
Cu            0.0000000000        0.0000000000        7.5500200000    0   0   0
Ba            1.9441200000        1.8966400000        9.5363300000    0   0   0
O             0.0000000000        0.0000000000        9.7608400000    0   0   0
O             0.0000000000        1.8966400000       11.6613297552
Cu            0.0000000000        0.0000000000       11.6439169927
O             0.0000000000        0.0000000000       13.5656027697
Ba            1.9441200000        1.8966400000       13.7478078193
Cu            0.0000000000        0.0000000000       22.1734565508
O             1.9441200000        0.0000000000       22.0592529344
O             0.0000000000        1.8966400000       22.1296926075
Y             1.9441200000        1.8966400000       23.4749652634
O             0.0000000000        1.8966400000       24.9215500000    0   0   0
O             1.9441200000        0.0000000000       24.9572000000    0   0   0
Cu            0.0000000000        0.0000000000       25.2238500000    0   0   0
Ba            1.9441200000        1.8966400000       27.2364100000    0   0   0
O             0.0000000000        0.0000000000       27.3322800000    0   0   0
Cu            0.0000000000        0.0000000000       29.2208200000    0   0   0
O             0.0000000000        1.8966400000       29.4050500000    0   0   0


     NEW-OLD atomic charge density approx. for the potential

     negative rho (up, down):  9.537E-02 0.000E+00

     total cpu time spent up to now is      741.3 secs

     Self-consistent Calculation

     iteration #  1     ecut=    60.00 Ry     beta= 0.20
     Davidson diagonalization with overlap
     c_bands:  1 eigenvalues not converged
     c_bands:  1 eigenvalues not converged
     ethr =  1.00E-06,  avg # of iterations =  7.7

     negative rho (up, down):  9.411E-02 0.000E+00

     total cpu time spent up to now is      777.3 secs

     total energy              =   -1868.74371076 Ry
     Harris-Foulkes estimate   =   -1868.74406543 Ry
     estimated scf accuracy    <       0.02408942 Ry

     iteration #  2     ecut=    60.00 Ry     beta= 0.20
     Davidson diagonalization with overlap
     ethr =  1.05E-05,  avg # of iterations =  1.0

     negative rho (up, down):  9.318E-02 0.000E+00

     total cpu time spent up to now is      792.4 secs

     total energy              =   -1868.74400176 Ry
     Harris-Foulkes estimate   =   -1868.74395824 Ry
     estimated scf accuracy    <       0.00290311 Ry

     iteration #  3     ecut=    60.00 Ry     beta= 0.20
     Davidson diagonalization with overlap
     ethr =  1.27E-06,  avg # of iterations =  4.1

     negative rho (up, down):  9.242E-02 0.000E+00

     total cpu time spent up to now is      811.5 secs

     total energy              =   -1868.74398950 Ry
     Harris-Foulkes estimate   =   -1868.74402314 Ry
     estimated scf accuracy    <       0.00136765 Ry

     iteration #  4     ecut=    60.00 Ry     beta= 0.20
     Davidson diagonalization with overlap
     ethr =  5.97E-07,  avg # of iterations =  2.0

     negative rho (up, down):  9.189E-02 0.000E+00

     total cpu time spent up to now is      827.8 secs

     total energy              =   -1868.74395606 Ry
     Harris-Foulkes estimate   =   -1868.74401003 Ry
     estimated scf accuracy    <       0.00093215 Ry

     iteration #  5     ecut=    60.00 Ry     beta= 0.20
     Davidson diagonalization with overlap
     ethr =  4.07E-07,  avg # of iterations =  3.5

     negative rho (up, down):  9.147E-02 0.000E+00

     total cpu time spent up to now is      846.1 secs

     total energy              =   -1868.74398428 Ry
     Harris-Foulkes estimate   =   -1868.74398508 Ry
     estimated scf accuracy    <       0.00058755 Ry

     iteration #  6     ecut=    60.00 Ry     beta= 0.20
     Davidson diagonalization with overlap
     ethr =  2.57E-07,  avg # of iterations =  1.9

     negative rho (up, down):  9.115E-02 0.000E+00

     total cpu time spent up to now is      862.3 secs

     total energy              =   -1868.74398126 Ry
     Harris-Foulkes estimate   =   -1868.74399346 Ry
     estimated scf accuracy    <       0.00036227 Ry

     iteration #  7     ecut=    60.00 Ry     beta= 0.20
     Davidson diagonalization with overlap
     ethr =  1.58E-07,  avg # of iterations =  2.8

     negative rho (up, down):  9.089E-02 0.000E+00

     total cpu time spent up to now is      880.0 secs

     total energy              =   -1868.74401904 Ry
     Harris-Foulkes estimate   =   -1868.74399804 Ry
     estimated scf accuracy    <       0.00024610 Ry

     iteration #  8     ecut=    60.00 Ry     beta= 0.20
     Davidson diagonalization with overlap
     ethr =  1.07E-07,  avg # of iterations =  1.6

     negative rho (up, down):  9.058E-02 0.000E+00

     total cpu time spent up to now is      895.8 secs

     total energy              =   -1868.74402555 Ry
     Harris-Foulkes estimate   =   -1868.74402331 Ry
     estimated scf accuracy    <       0.00018168 Ry

     iteration #  9     ecut=    60.00 Ry     beta= 0.20
     Davidson diagonalization with overlap
     ethr =  7.93E-08,  avg # of iterations =  3.5

     negative rho (up, down):  9.049E-02 0.000E+00

     total cpu time spent up to now is      914.0 secs

     total energy              =   -1868.74404476 Ry
     Harris-Foulkes estimate   =   -1868.74403412 Ry
     estimated scf accuracy    <       0.00006043 Ry

     iteration # 10     ecut=    60.00 Ry     beta= 0.20
     Davidson diagonalization with overlap
     ethr =  2.64E-08,  avg # of iterations =  1.5

     negative rho (up, down):  9.047E-02 0.000E+00

     total cpu time spent up to now is      930.3 secs

     total energy              =   -1868.74405461 Ry
     Harris-Foulkes estimate   =   -1868.74404668 Ry
     estimated scf accuracy    <       0.00004760 Ry

     iteration # 11     ecut=    60.00 Ry     beta= 0.20
     Davidson diagonalization with overlap
     ethr =  2.08E-08,  avg # of iterations =  1.7

     negative rho (up, down):  9.053E-02 0.000E+00

     total cpu time spent up to now is      946.4 secs

     total energy              =   -1868.74405989 Ry
     Harris-Foulkes estimate   =   -1868.74405538 Ry
     estimated scf accuracy    <       0.00002851 Ry

     iteration # 12     ecut=    60.00 Ry     beta= 0.20
     Davidson diagonalization with overlap
     ethr =  1.24E-08,  avg # of iterations =  3.0

     negative rho (up, down):  9.053E-02 0.000E+00

     total cpu time spent up to now is      964.3 secs

     total energy              =   -1868.74406344 Ry
     Harris-Foulkes estimate   =   -1868.74406127 Ry
     estimated scf accuracy    <       0.00000813 Ry

     iteration # 13     ecut=    60.00 Ry     beta= 0.20
     Davidson diagonalization with overlap
     ethr =  3.55E-09,  avg # of iterations =  2.0

     negative rho (up, down):  9.053E-02 0.000E+00

     total cpu time spent up to now is      980.9 secs

     total energy              =   -1868.74406630 Ry
     Harris-Foulkes estimate   =   -1868.74406391 Ry
     estimated scf accuracy    <       0.00000491 Ry

     iteration # 14     ecut=    60.00 Ry     beta= 0.20
     Davidson diagonalization with overlap
     ethr =  2.15E-09,  avg # of iterations =  1.9

     negative rho (up, down):  9.052E-02 0.000E+00

     total cpu time spent up to now is      997.4 secs

     total energy              =   -1868.74406828 Ry
     Harris-Foulkes estimate   =   -1868.74406645 Ry
     estimated scf accuracy    <       0.00000374 Ry

     iteration # 15     ecut=    60.00 Ry     beta= 0.20
     Davidson diagonalization with overlap
     ethr =  1.63E-09,  avg # of iterations =  1.0

     negative rho (up, down):  9.051E-02 0.000E+00

     total cpu time spent up to now is     1012.6 secs

     total energy              =   -1868.74406976 Ry
     Harris-Foulkes estimate   =   -1868.74406833 Ry
     estimated scf accuracy    <       0.00000239 Ry

     iteration # 16     ecut=    60.00 Ry     beta= 0.20
     Davidson diagonalization with overlap
     ethr =  1.04E-09,  avg # of iterations =  1.0

     negative rho (up, down):  9.051E-02 0.000E+00

     total cpu time spent up to now is     1028.0 secs

     total energy              =   -1868.74407075 Ry
     Harris-Foulkes estimate   =   -1868.74406981 Ry
     estimated scf accuracy    <       0.00000101 Ry

     iteration # 17     ecut=    60.00 Ry     beta= 0.20
     Davidson diagonalization with overlap
     ethr =  4.42E-10,  avg # of iterations =  1.0

     negative rho (up, down):  9.058E-02 0.000E+00

     total cpu time spent up to now is     1042.6 secs

     End of self-consistent calculation

          k = 0.0000 0.0000 0.0000 ( 38797 PWs)   bands (ev):

   -38.7334 -38.1378 -24.5126 -23.3827 -23.3215 -23.3108 -19.2683 -18.7376
   -18.7284 -18.6990 -18.1975 -18.1767 -16.0629 -15.7110 -15.3481 -15.1039
   -14.8674 -14.8672 -14.8481 -14.5870 -14.5719 -14.5336 -14.3654 -14.3424
   -14.2065 -14.1328 -14.0476  -9.8375  -9.3478  -9.3251  -8.6173  -8.5862
    -8.5199  -8.3750  -8.3484  -8.3084  -8.2797  -8.2752  -8.2521  -2.6914
    -2.6570  -2.5237  -2.4670  -2.4649  -2.4016  -2.4006  -2.3833  -2.3810
    -2.3263  -2.1809  -1.6302  -1.6040  -1.5556  -1.4936  -1.1201  -1.0705
    -1.0650  -1.0552  -0.9846  -0.9581  -0.7184  -0.6760  -0.6665  -0.6394
    -0.6325  -0.5361  -0.5181  -0.4748  -0.4737  -0.4515  -0.3765  -0.3243
    -0.3190  -0.2683  -0.2248  -0.2231  -0.2226  -0.2100  -0.1982  -0.1465
    -0.0953  -0.0765  -0.0688  -0.0670  -0.0616  -0.0479   0.0542   0.0552
     0.3362   0.3486   0.4712   0.5026   0.6215   0.6328   0.6585   0.6617
     0.7471   0.7630   0.7894   0.8008   0.8402   0.8685   0.8961   0.9333
     1.1243   1.2222   1.3323   1.3455   1.3695   1.3787   1.4659   1.5274
     1.5772   1.5911   1.6189   1.7269   1.7873   2.0627   2.0703   3.8034
     4.6714   4.7064   4.8699   5.2250   5.3703   5.7866   6.0755   6.1562
     6.4625   6.8639   7.1885   7.2336   7.4262   7.5659   7.5739   7.7610
     7.9648   7.9907

          k = 0.0000 0.1281 0.0000 ( 38797 PWs)   bands (ev):

   -38.7311 -38.1353 -24.4945 -23.3611 -23.3007 -23.2892 -19.2324 -18.8327
   -18.7344 -18.6599 -18.2942 -18.1941 -15.9540 -15.6049 -15.3015 -15.1125
   -14.8800 -14.8770 -14.8174 -14.6329 -14.5770 -14.4941 -14.3708 -14.3486
   -14.2689 -14.2066 -14.0702  -9.8209  -9.3579  -9.2919  -8.6001  -8.5748
    -8.5035  -8.3679  -8.3338  -8.2995  -8.2723  -8.2670  -8.2365  -2.7912
    -2.7669  -2.6627  -2.6419  -2.4683  -2.4390  -2.4196  -2.3488  -2.3314
    -2.3107  -2.1069  -2.0738  -1.9864  -1.6108  -1.5868  -1.5848  -1.4587
    -1.4380  -1.0406  -1.0399  -0.9833  -0.9475  -0.9352  -0.8941  -0.7894
    -0.7276  -0.7197  -0.7084  -0.6994  -0.6203  -0.5429  -0.5185  -0.4265
    -0.3604  -0.3165  -0.3121  -0.2290  -0.1658  -0.1483  -0.0804  -0.0660
    -0.0616  -0.0484  -0.0128   0.0168   0.0570   0.1060   0.1657   0.2413
     0.2550   0.3095   0.4274   0.5334   0.5351   0.5425   0.6759   0.7290
     0.7802   0.8562   0.9018   0.9164   0.9290   0.9820   1.0466   1.0656
     1.1158   1.2247   1.3488   1.3547   1.3668   1.3832   1.4925   1.4978
     1.5031   1.5926   1.7557   1.8293   2.2703   2.3888   2.3942   3.9964
     5.0433   5.0686   5.1431   5.5004   5.6615   5.9703   6.3915   6.4698
     6.7215   7.1028   7.2639   7.4598   7.5054   7.6179   7.7331   7.9065
     7.9205   7.9268

          k = 0.0000 0.2563 0.0000 ( 38804 PWs)   bands (ev):

   -38.7255 -38.1294 -24.4500 -23.3081 -23.2497 -23.2359 -19.1413 -19.0578
   -18.7266 -18.5611 -18.5424 -18.1858 -15.7057 -15.3826 -15.1884 -15.1781
   -14.9537 -14.9357 -14.7523 -14.6981 -14.6453 -14.4334 -14.3750 -14.3720
   -14.3478 -14.3354 -14.0770  -9.7763  -9.3805  -9.2095  -8.5632  -8.5414
    -8.4634  -8.4090  -8.3411  -8.3161  -8.2306  -8.1632  -8.1397  -3.2219
    -3.1077  -3.0924  -2.9899  -2.7097  -2.6167  -2.6024  -2.5001  -2.4013
    -2.3481  -2.3460  -2.2711  -2.2579  -2.2531  -2.0625  -1.9018  -1.6331
    -1.4862  -1.3852  -1.3695  -1.2988  -1.1862  -1.0917  -1.0750  -1.0302
    -1.0069  -0.9559  -0.9454  -0.9369  -0.8958  -0.6994  -0.6793  -0.6578
    -0.6559  -0.5356  -0.4764  -0.2994  -0.2866  -0.2244  -0.1674  -0.1223
    -0.0264  -0.0236  -0.0077  -0.0074   0.0517   0.1570   0.2107   0.3392
     0.4401   0.5255   0.5796   0.5962   0.7309   0.7556   0.7828   0.8827
     0.9013   0.9089   0.9128   0.9455   1.0050   1.1103   1.1585   1.2058
     1.2082   1.2144   1.3431   1.4535   1.4678   1.6383   1.6513   1.6565
     1.6598   1.8065   1.9539   2.0040   2.6764   2.6899   3.1002   4.4937
     5.8426   5.9390   5.9506   6.1837   6.2993   6.4195   7.1944   7.2466
     7.3114   7.3753   7.4316   7.6316   7.7851   7.9246   8.0267   8.0999
     8.1753   8.2551

          k = 0.0000 0.3844 0.0000 ( 38732 PWs)   bands (ev):

   -38.7199 -38.1234 -24.4045 -23.2536 -23.1973 -23.1812 -19.2556 -19.0430
   -18.7588 -18.7189 -18.4519 -18.1775 -15.4553 -15.3314 -15.2297 -15.0538
   -15.0271 -15.0058 -14.7639 -14.7316 -14.6988 -14.6378 -14.4996 -14.2916
   -14.2889 -14.2266 -14.0566  -9.7235  -9.4040  -9.1239  -8.5292  -8.5018
    -8.4420  -8.4228  -8.3749  -8.3563  -8.1215  -8.0535  -8.0380  -3.7412
    -3.5757  -3.5026  -3.3534  -3.2729  -3.1728  -3.1646  -2.5247  -2.5169
    -2.4534  -2.4067  -2.2930  -2.1897  -2.1814  -2.1633  -2.0994  -1.7030
    -1.6592  -1.6101  -1.5567  -1.4493  -1.3962  -1.3549  -1.3259  -1.3025
    -1.1973  -1.1849  -1.0839  -1.0408  -0.9448  -0.9014  -0.8996  -0.8959
    -0.8390  -0.7036  -0.6590  -0.5212  -0.4325  -0.3969  -0.1807  -0.1262
    -0.0571  -0.0324   0.0161   0.0171   0.0588   0.0936   0.3069   0.4014
     0.4383   0.5973   0.6644   0.6903   0.7482   0.7806   0.8528   0.9342
     0.9423   0.9744   0.9779   1.0935   1.1318   1.1344   1.2962   1.3712
     1.3857   1.5111   1.5898   1.6205   1.6448   1.6979   1.7829   1.9870
     2.0443   2.0639   2.0640   2.1076   2.6489   2.6724   3.6386   5.1383
     6.0250   6.7591   6.8558   6.8958   7.0321   7.2628   7.3011   7.4865
     7.6848   7.8001   8.0162   8.0980   8.2090   8.2523   8.3702   8.4434
     8.6323   8.6988

          k = 0.0000-0.5125 0.0000 ( 38850 PWs)   bands (ev):

   -38.7176 -38.1209 -24.3854 -23.2305 -23.1752 -23.1581 -19.3316 -18.9998
   -18.8409 -18.7156 -18.4041 -18.1740 -15.4109 -15.3238 -15.2344 -15.1140
   -14.9951 -14.8687 -14.8293 -14.8248 -14.7288 -14.6827 -14.5342 -14.2603
   -14.2576 -14.1466 -14.0650  -9.6980  -9.4155  -9.0874  -8.5143  -8.4837
    -8.4536  -8.4059  -8.3867  -8.3737  -8.0745  -8.0062  -7.9943  -3.9850
    -3.7231  -3.6764  -3.4867  -3.4845  -3.4049  -3.3907  -2.5594  -2.5508
    -2.5093  -2.4741  -2.2748  -2.2705  -2.1463  -2.0925  -1.9431  -1.8369
    -1.7242  -1.6922  -1.6579  -1.6403  -1.5407  -1.4192  -1.3892  -1.3015
    -1.2896  -1.2188  -1.1335  -1.0173  -1.0008  -0.9884  -0.9866  -0.9550
    -0.9313  -0.8951  -0.7043  -0.5532  -0.5084  -0.4700  -0.1293  -0.1115
    -0.0841  -0.0668  -0.0590   0.0221   0.0241   0.1082   0.2897   0.4930
     0.5534   0.5901   0.6362   0.7476   0.7555   0.8118   0.9203   0.9264
[...]
    -0.5929  -0.5605  -0.4932  -0.1755  -0.1351  -0.1045   0.1132   0.1649
     0.1936   0.3058   0.3171   0.3864   0.3869   0.4914   0.6870   0.7310
     0.7314   0.7777   0.8282   0.8436   0.8673   0.9237   0.9495   0.9601
     1.0080   1.0820   1.0890   1.1042   1.1421   1.1503   1.2066   1.2953
     1.4017   1.4137   1.4535   1.4730   1.4980   1.6039   1.6279   1.6394
     2.6742   2.6860   3.0850   3.1958   3.2933   3.3418   3.4578   5.0092
     6.0733   6.0941   6.1168   6.5285   6.5899   7.0510   7.2325   7.5441
     7.7908   7.8228   8.0151   8.1643   8.3852   8.4530   8.6204   8.6503
     8.8286   8.9346

          k = 0.3750 0.3844 0.0000 ( 38979 PWs)   bands (ev):

   -38.6933 -38.2102 -23.7550 -23.2014 -23.1500 -23.0506 -19.2054 -19.1796
   -18.8441 -18.8101 -18.7755 -18.3406 -15.1474 -15.1212 -15.0234 -14.9671
   -14.9321 -14.7584 -14.7557 -14.6817 -14.5887 -14.3880 -14.3133 -14.2388
   -14.2381 -14.1285 -14.1024  -9.5908  -9.3348  -9.1637  -9.1115  -9.0372
    -9.0206  -8.7477  -8.7082  -8.6598  -8.6280  -8.5477  -8.4295  -4.4328
    -4.1631  -3.8947  -3.6809  -3.5779  -3.0878  -3.0857  -2.8615  -2.8387
    -2.7514  -2.7511  -2.5508  -2.5455  -2.4415  -2.4287  -2.3365  -2.2875
    -2.0241  -1.8367  -1.7095  -1.5615  -1.4828  -1.4796  -1.3593  -1.3139
    -1.2537  -1.1644  -1.0790  -0.9911  -0.9726  -0.9089  -0.8296  -0.7231
    -0.6881  -0.5422  -0.5280  -0.1680  -0.0967  -0.0261   0.2527   0.3367
     0.4309   0.5799   0.5808   0.6410   0.7458   0.8599   0.8746   0.9067
     0.9413   0.9853   1.0629   1.0784   1.1194   1.1570   1.1635   1.2246
     1.2498   1.2751   1.3230   1.3544   1.3681   1.3954   1.4273   1.4616
     1.4784   1.5138   1.5223   1.7182   1.7348   1.8082   1.9159   1.9165
     2.5970   2.6037   3.5743   3.7428   3.8413   3.8514   3.9598   4.4171
     5.7091   5.7487   6.2382   6.2417   6.5832   7.1003   7.5852   7.6820
     8.0646   8.2480   8.3492   8.3979   8.4717   8.6563   8.7951   8.8351
     8.9433   9.0447

          k = 0.3750-0.5125 0.0000 ( 39018 PWs)   bands (ev):

   -38.6910 -38.2077 -23.7388 -23.1841 -23.1322 -23.0328 -19.2776 -19.1742
   -18.8869 -18.8050 -18.7701 -18.3008 -15.1392 -15.0383 -15.0219 -14.9028
   -14.8763 -14.7451 -14.7255 -14.6823 -14.5698 -14.4087 -14.2559 -14.2264
   -14.2262 -14.1261 -14.0434  -9.6739  -9.3645  -9.2371  -9.1906  -9.1637
    -9.0996  -8.9028  -8.8331  -8.8154  -8.6251  -8.5413  -8.4239  -4.6135
    -4.3461  -4.0660  -3.9191  -3.7484  -3.3267  -3.3238  -2.9809  -2.8766
    -2.7707  -2.7636  -2.6911  -2.5584  -2.4371  -2.4239  -2.3849  -2.2829
    -2.0738  -1.8772  -1.7272  -1.6294  -1.5259  -1.4480  -1.3675  -1.3626
    -1.2774  -1.1903  -1.1691  -1.0680  -1.0543  -0.9012  -0.8890  -0.7336
    -0.6661  -0.5094  -0.5041  -0.1607  -0.0808   0.0125   0.2651   0.3798
     0.5410   0.6488   0.7190   0.7741   0.8773   0.9100   1.0068   1.0141
     1.0238   1.0712   1.1235   1.1660   1.2399   1.2609   1.2619   1.2979
     1.3239   1.3686   1.3713   1.4257   1.4308   1.4352   1.4598   1.5154
     1.5565   1.6776   1.6784   1.7664   1.9574   1.9576   2.1112   2.1124
     2.4278   2.4330   3.7206   3.9056   4.0039   4.0205   4.1237   4.1763
     5.5117   5.5474   6.1271   6.1483   6.9187   7.0424   7.4620   7.8148
     8.3001   8.3663   8.4094   8.6114   8.6149   8.7048   8.7870   8.8794
     9.0179   9.0713

          k =-0.5000 0.0000 0.0000 ( 38882 PWs)   bands (ev):

   -38.7048 -38.2224 -23.8294 -23.2816 -23.2315 -23.1321 -19.2968 -19.0114
   -18.8993 -18.6948 -18.5256 -18.2378 -15.6287 -15.4486 -15.3322 -15.2404
   -15.1909 -14.9620 -14.8877 -14.8081 -14.6183 -14.4989 -14.3895 -14.3199
   -14.3012 -14.1792 -14.1268  -9.4599  -8.6701  -8.6116  -8.6008  -8.4957
    -8.4815  -8.1832  -8.1660  -8.0933  -8.0797  -8.0792  -7.9840  -3.5141
    -3.3600  -3.3340  -3.0292  -2.5705  -2.5503  -2.3281  -2.2493  -2.2461
    -2.0550  -1.9982  -1.9839  -1.8743  -1.7883  -1.7076  -1.6450  -1.6029
    -1.4797  -1.4313  -1.3143  -1.3011  -1.2583  -1.2404  -1.2298  -1.1994
    -1.1952  -1.1744  -1.0260  -1.0123  -1.0021  -0.7972  -0.7175  -0.6866
    -0.5527  -0.5469  -0.5464  -0.4561  -0.1864  -0.1609  -0.0987  -0.0942
    -0.0924  -0.0815   0.0220   0.0778   0.1617   0.1861   0.1914   0.2386
     0.2409   0.2493   0.3598   0.6144   0.6540   0.7046   0.7081   0.8009
     0.8456   0.8496   0.8747   0.9434   0.9451   0.9962   0.9993   1.0670
     1.2801   1.2962   1.3113   1.3383   1.3404   1.4546   1.6002   1.6797
     1.7294   1.7342   1.9268   2.0670   2.0867   2.3836   2.3847   5.6524
     6.5909   6.6062   6.7224   6.7810   6.8305   6.8308   6.9868   7.4570
     7.4632   7.6964   7.8633   8.0924   8.1212   8.3240   8.4914   8.5625
     8.6499   8.6526

          k =-0.5000 0.1281 0.0000 ( 38856 PWs)   bands (ev):

   -38.7025 -38.2200 -23.8144 -23.2657 -23.2153 -23.1159 -19.2890 -18.9791
   -18.8910 -18.7924 -18.4984 -18.3406 -15.5614 -15.3996 -15.2765 -15.1490
   -15.1244 -14.9289 -14.7745 -14.7721 -14.6849 -14.4661 -14.3587 -14.3015
   -14.2843 -14.2304 -14.1200  -9.4414  -8.8145  -8.6655  -8.6346  -8.5976
    -8.4787  -8.3057  -8.3011  -8.2961  -8.2898  -8.2151  -8.1955  -3.6689
    -3.4483  -3.4225  -3.1011  -2.5906  -2.5525  -2.4800  -2.3261  -2.3050
    -2.2464  -2.1428  -2.1243  -2.1071  -1.9861  -1.9750  -1.8922  -1.8180
    -1.6027  -1.5622  -1.5609  -1.5538  -1.4628  -1.3188  -1.1767  -1.1732
    -1.1616  -1.0766  -1.0692  -1.0213  -0.9628  -0.7146  -0.6203  -0.5213
    -0.4817  -0.4423  -0.3967  -0.2668  -0.1855  -0.1682  -0.1345  -0.1317
    -0.0895   0.0552   0.1132   0.2055   0.2089   0.2736   0.3046   0.4011
     0.4110   0.4170   0.5432   0.5971   0.6410   0.7023   0.7933   0.8131
     0.8701   0.8820   0.8978   0.9033   1.0075   1.0230   1.0504   1.0570
     1.2375   1.2956   1.3330   1.3986   1.4422   1.5577   1.5636   1.7177
     2.3194   2.3487   2.3777   2.4419   2.4881   2.6885   2.7473   5.4809
     6.4544   6.5478   6.5967   6.6826   6.9479   7.0363   7.0844   7.1765
     7.1880   7.8092   7.8392   8.1857   8.4162   8.4568   8.6072   8.6500
     8.7454   8.7460

          k =-0.5000 0.2563 0.0000 ( 38902 PWs)   bands (ev):

   -38.6970 -38.2141 -23.7779 -23.2270 -23.1759 -23.0764 -19.2703 -19.0064
   -18.8974 -18.8712 -18.5988 -18.3914 -15.3811 -15.2757 -15.1280 -15.0387
   -14.8663 -14.8505 -14.8480 -14.6934 -14.6054 -14.3943 -14.2837 -14.2715
   -14.2620 -14.2476 -14.1076  -9.3983  -9.2570  -8.9609  -8.7698  -8.7610
    -8.6735  -8.6245  -8.6124  -8.5869  -8.5665  -8.5264  -8.4481  -4.1225
    -3.8544  -3.6660  -3.3442  -3.0224  -2.7783  -2.6573  -2.6520  -2.5957
    -2.5448  -2.5362  -2.4504  -2.3370  -2.3337  -2.3049  -2.2918  -2.2714
    -1.9416  -1.8097  -1.7201  -1.5588  -1.3851  -1.3665  -1.2151  -1.1774
    -1.1705  -1.1636  -0.9732  -0.9100  -0.8370  -0.7871  -0.7859  -0.7476
    -0.6026  -0.5675  -0.5299  -0.1484  -0.1348  -0.0276   0.1494   0.2179
     0.2588   0.3830   0.3995   0.4110   0.4188   0.6475   0.7216   0.7706
     0.8029   0.8274   0.8467   0.8709   0.9646   0.9655   0.9788   0.9936
     1.0109   1.0216   1.0439   1.0882   1.1520   1.1870   1.3386   1.3772
     1.4105   1.4216   1.4407   1.4878   1.4974   1.5209   1.6161   1.6798
     2.6712   2.6802   3.0835   3.3062   3.3989   3.4372   3.5425   4.8043
     6.0321   6.0759   6.4503   6.4971   6.5708   6.8898   7.3717   7.8848
     7.8899   8.0688   8.0979   8.1864   8.4074   8.5726   8.7565   8.8739
     8.9028   8.9068

          k =-0.5000 0.3844 0.0000 ( 39038 PWs)   bands (ev):

   -38.6916 -38.2083 -23.7409 -23.1877 -23.1357 -23.0362 -19.2515 -19.1974
   -18.8512 -18.8098 -18.8010 -18.3060 -15.1703 -15.1340 -15.0185 -14.9437
   -14.9052 -14.7854 -14.6761 -14.6285 -14.6156 -14.3632 -14.2327 -14.2324
   -14.1958 -14.1075 -14.0871  -9.6580  -9.3476  -9.2787  -9.1609  -9.1364
    -9.0690  -8.9063  -8.8497  -8.8198  -8.6286  -8.5601  -8.4425  -4.5933
    -4.3194  -4.0334  -3.7127  -3.6721  -3.0777  -3.0739  -2.9829  -2.8937
    -2.7912  -2.7796  -2.6885  -2.5837  -2.4406  -2.4307  -2.3723  -2.2809
    -2.0607  -1.8237  -1.6316  -1.5420  -1.5341  -1.4048  -1.3998  -1.2723
    -1.2553  -1.2336  -1.0877  -1.0093  -1.0064  -0.8738  -0.8425  -0.7861
    -0.6758  -0.4911  -0.4863  -0.1692  -0.0214   0.0381   0.2928   0.4292
     0.5902   0.6955   0.7999   0.8197   0.8586   0.8933   0.9280   0.9820
     1.0153   1.0234   1.0963   1.1334   1.1927   1.1958   1.2862   1.2936
     1.2973   1.3136   1.3396   1.3527   1.4065   1.4075   1.4158   1.4914
     1.5705   1.6177   1.6970   1.7258   1.7358   1.7581   1.8780   1.8802
     2.5952   2.5986   3.5691   3.9680   4.0465   4.0703   4.1281   4.1568
     5.4706   5.5105   6.1214   6.1300   6.8375   7.0132   7.6859   7.7622
     8.1659   8.3039   8.4012   8.4464   8.5188   8.7400   8.7649   8.9217
     9.0122   9.0414

          k =-0.5000-0.5125 0.0000 ( 39028 PWs)   bands (ev):

   -38.6893 -38.2059 -23.7253 -23.1711 -23.1188 -23.0194 -19.2712 -19.2438
   -18.8801 -18.8430 -18.7715 -18.2668 -15.1018 -15.0905 -15.0313 -14.8365
   -14.8185 -14.7984 -14.7356 -14.5869 -14.5357 -14.3837 -14.2278 -14.2246
   -14.1631 -14.0677 -14.0173  -9.8108  -9.4092  -9.3277  -9.3130  -9.2847
    -9.2214  -9.0237  -8.9533  -8.9370  -8.6271  -8.5551  -8.4391  -4.7825
    -4.5097  -4.2021  -3.9155  -3.8835  -3.3160  -3.3116  -3.1145  -2.9214
    -2.8251  -2.8217  -2.8029  -2.6052  -2.4288  -2.4194  -2.4072  -2.2715
    -2.1007  -1.8631  -1.6551  -1.6113  -1.5164  -1.5012  -1.3511  -1.3278
    -1.2993  -1.2617  -1.1764  -1.0914  -1.0896  -0.8906  -0.8342  -0.8246
    -0.6606  -0.4480  -0.4477  -0.1603   0.0251   0.0620   0.3089   0.5028
     0.8079   0.8141   0.8956   0.9286   0.9785   1.0068   1.0181   1.0406
     1.0457   1.0690   1.1960   1.1982   1.2505   1.3163   1.4235   1.4242
     1.4276   1.4395   1.4501   1.4712   1.4744   1.4824   1.5233   1.5331
     1.5566   1.8029   1.8252   1.8965   1.9756   1.9775   2.0839   2.0851
     2.4228   2.4239   3.7112   3.8518   4.1837   4.2740   4.2876   4.3845
     5.2211   5.2576   5.9902   6.0311   6.9124   7.0470   7.6739   7.8712
     8.1111   8.3964   8.4370   8.5041   8.5456   8.5810   8.6434   8.6590
     8.8476   9.0587

     the Fermi energy is     2.3832 ev

!    total energy              =   -1868.78315798 Ry
     Harris-Foulkes estimate   =   -1868.78315799 Ry
     estimated scf accuracy    <          4.9E-09 Ry

     The total energy is the sum of the following terms:

     one-electron contribution =  -24084.03820169 Ry
     hartree contribution      =   12191.34744990 Ry
     xc contribution           =    -642.26028325 Ry
     ewald contribution        =   10666.17642890 Ry
     smearing contrib. (-TS)   =      -0.00855183 Ry

     convergence has been achieved in  11 iterations

     negative rho (up, down):  9.064E-02 0.000E+00

     Forces acting on atoms (cartesian axes, Ry/au):

     atom    1 type  3   force =     0.00000000    0.00000000    0.00003329
     atom    2 type  2   force =     0.00000000    0.00000000   -0.00019973
     atom    3 type  3   force =     0.00000000    0.00000000    0.00003060
     atom    4 type  1   force =     0.00000000    0.00000000   -0.00017807
     atom    5 type  2   force =     0.00000000    0.00000000   -0.00018005
     atom    6 type  3   force =     0.00000000    0.00000000    0.00076059
     atom    7 type  3   force =     0.00000000    0.00000000    0.00013643
     atom    8 type  4   force =     0.00000000    0.00000000   -0.00165500
     atom    9 type  3   force =     0.00000000    0.00000000    0.00252618
     atom   10 type  3   force =     0.00000000    0.00000000    0.00285154
     atom   11 type  2   force =     0.00000000    0.00000000   -0.00318317
     atom   12 type  1   force =     0.00000000    0.00000000   -0.01031831
     atom   13 type  3   force =     0.00000000    0.00000000    0.01001648
     atom   14 type  3   force =     0.00000000    0.00000000   -0.00002637
     atom   15 type  2   force =     0.00000000    0.00000000   -0.00006903
     atom   16 type  3   force =     0.00000000    0.00000000    0.00000019
     atom   17 type  1   force =     0.00000000    0.00000000   -0.00026294
     atom   18 type  2   force =     0.00000000    0.00000000    0.00010762
     atom   19 type  3   force =     0.00000000    0.00000000    0.00002020
     atom   20 type  3   force =     0.00000000    0.00000000    0.00003266
     atom   21 type  4   force =     0.00000000    0.00000000    0.00000704
     atom   22 type  3   force =     0.00000000    0.00000000    0.00035552
     atom   23 type  3   force =     0.00000000    0.00000000    0.00512517
     atom   24 type  2   force =     0.00000000    0.00000000    0.00088073
     atom   25 type  1   force =     0.00000000    0.00000000   -0.00873881
     atom   26 type  3   force =     0.00000000    0.00000000    0.00231408
     atom   27 type  2   force =     0.00000000    0.00000000   -0.00181284
     atom   28 type  3   force =     0.00000000    0.00000000    0.00142603

     Total force =     0.000296     Total SCF correction =     0.000122
     SCF correction compared to forces is large: reduce conv_thr to get better values


     Computing stress (Cartesian axis) and pressure


     negative rho (up, down):  9.064E-02 0.000E+00
          total   stress  (Ry/bohr**3)                   (kbar)     P=       -4.42
  -0.00005899   0.00000000   0.00000000           -8.68        0.00        0.00
   0.00000000  -0.00002181   0.00000000            0.00       -3.21        0.00
   0.00000000   0.00000000  -0.00000940            0.00        0.00       -1.38

     Message from routine bfgs:
     history already reset at previous step: stopping

     bfgs converged in  48 scf cycles and  45 bfgs steps
     (criteria: energy <  1.0E-05 Ry, force <  1.0E-04 Ry/Bohr)

     End of BFGS Geometry Optimization

     Final energy   =   -1868.7831579809 Ry
Begin final coordinates

ATOMIC_POSITIONS (angstrom)
O             0.0000000000        1.8966400000       -0.1003100000    0   0   0
Cu            0.0000000000        0.0000000000        0.0839000000    0   0   0
O             0.0000000000        0.0000000000        1.9725500000    0   0   0
Ba            1.9441200000        1.8966400000        2.0684200000    0   0   0
Cu            0.0000000000        0.0000000000        4.0810400000    0   0   0
O             1.9441200000        0.0000000000        4.3476700000    0   0   0
O             0.0000000000        1.8966400000        4.3832700000    0   0   0
Y             1.9441200000        1.8966400000        5.8085600000    0   0   0
O             0.0000000000        1.8966400000        7.1922400000    0   0   0
O             1.9441200000        0.0000000000        7.2681800000    0   0   0
Cu            0.0000000000        0.0000000000        7.5500200000    0   0   0
Ba            1.9441200000        1.8966400000        9.5363300000    0   0   0
O             0.0000000000        0.0000000000        9.7608400000    0   0   0
O             0.0000000000        1.8966400000       11.7364221725
Cu            0.0000000000        0.0000000000       11.6696130754
O             0.0000000000        0.0000000000       13.6140560141
Ba            1.9441200000        1.8966400000       13.6069284641
Cu            0.0000000000        0.0000000000       21.7668655906
O             1.9441200000        0.0000000000       22.0818717099
O             0.0000000000        1.8966400000       22.1209783140
Y             1.9441200000        1.8966400000       23.4061027159
O             0.0000000000        1.8966400000       24.9215500000    0   0   0
O             1.9441200000        0.0000000000       24.9572000000    0   0   0
Cu            0.0000000000        0.0000000000       25.2238500000    0   0   0
Ba            1.9441200000        1.8966400000       27.2364100000    0   0   0
O             0.0000000000        0.0000000000       27.3322800000    0   0   0
Cu            0.0000000000        0.0000000000       29.2208200000    0   0   0
O             0.0000000000        1.8966400000       29.4050500000    0   0   0
End final coordinates


 
     init_run     :      9.15s CPU      9.68s WALL (       1 calls)
     electrons    :  10599.77s CPU  11001.27s WALL (      51 calls)
     update_pot   :     94.89s CPU     95.35s WALL (      50 calls)
     forces       :    205.81s CPU    217.38s WALL (      51 calls)
     stress       :   1337.12s CPU   1368.35s WALL (      51 calls)

     Called by init_run:
     wfcinit      :      6.50s CPU      6.67s WALL (       1 calls)
     potinit      :      0.68s CPU      0.69s WALL (       1 calls)
     hinit0       :      1.02s CPU      1.03s WALL (       1 calls)

     Called by electrons:
     c_bands      :   7935.34s CPU   8052.57s WALL (     678 calls)
     sum_band     :   1727.82s CPU   1883.42s WALL (     678 calls)
     v_of_rho     :     70.27s CPU     70.84s WALL (     711 calls)
     newd         :    488.52s CPU    620.94s WALL (     711 calls)
     mix_rho      :    409.91s CPU    413.46s WALL (     678 calls)

     Called by c_bands:
     init_us_2    :     76.43s CPU     76.92s WALL (   36475 calls)
     cegterg      :   7342.77s CPU   7453.54s WALL (   16950 calls)

     Called by sum_band:
     sum_band:bec :      4.55s CPU      4.60s WALL (   16950 calls)
     addusdens    :    468.78s CPU    609.54s WALL (     678 calls)

     Called by *egterg:
     h_psi        :   4130.11s CPU   4208.64s WALL (   46059 calls)
     s_psi        :    421.18s CPU    423.39s WALL (   46059 calls)
     g_psi        :     13.59s CPU     13.71s WALL (   29084 calls)
     cdiaghg      :   1216.12s CPU   1222.17s WALL (   44334 calls)

     Called by h_psi:
     h_psi:calbec :    482.22s CPU    487.99s WALL (   46059 calls)
     vloc_psi     :   3199.42s CPU   3251.21s WALL (   46059 calls)
     add_vuspsi   :    427.88s CPU    440.13s WALL (   46059 calls)

     General routines
     calbec       :   1205.24s CPU   1213.79s WALL (   69384 calls)
     fft          :     66.26s CPU     66.68s WALL (   10484 calls)
     ffts         :    223.09s CPU    225.04s WALL (  317578 calls)
     fftw         :   3699.12s CPU   3758.53s WALL (11974916 calls)
     interpolate  :      5.04s CPU      5.06s WALL (     711 calls)
 
     Parallel routines
     fft_scatt_xy :    486.81s CPU    493.86s WALL (12302978 calls)
     fft_scatt_yz :   2325.20s CPU   2361.27s WALL (12302978 calls)
 
     PWSCF        :      3h24m CPU      3h32m WALL

 
   This run was terminated on:   2:25:13   4May2021            

=------------------------------------------------------------------------------=
   JOB DONE.
=------------------------------------------------------------------------------=
[1620109513.368039] [holy7c04206:236957:0]          mpool.c:43   UCX  WARN  object 0x2d108c0 was not returned to mpool ucp_requests
[1620109513.368059] [holy7c04206:236957:0]          mpool.c:43   UCX  WARN  object 0x2d10fc0 was not returned to mpool ucp_requests
[1620109513.371776] [holy7c02602:217815:0]          mpool.c:43   UCX  WARN  object 0x2b85100 was not returned to mpool ucp_requests
[1620109513.371808] [holy7c02602:217815:0]          mpool.c:43   UCX  WARN  object 0x2b852c0 was not returned to mpool ucp_requests
[1620109513.371928] [holy7c04102:112659:0]          mpool.c:43   UCX  WARN  object 0x4389540 was not returned to mpool ucp_requests
[1620109513.376117] [holy7c04207:137676:0]          mpool.c:43   UCX  WARN  object 0x45efe80 was not returned to mpool ucp_requests
[1620109513.374679] [holy7c04108:144707:0]          mpool.c:43   UCX  WARN  object 0x4612dc0 was not returned to mpool ucp_requests
[1620109513.376085] [holy7c04207:137677:0]          mpool.c:43   UCX  WARN  object 0x2c49f00 was not returned to mpool ucp_requests
[1620109513.377518] [holy7c04107:15981:0]          mpool.c:43   UCX  WARN  object 0x43d9780 was not returned to mpool ucp_requests
[1620109513.377543] [holy7c04107:15981:0]          mpool.c:43   UCX  WARN  object 0x43d9e80 was not returned to mpool ucp_requests
