
     Program PWSCF v.6.5 starts on  2May2021 at 10:57:56 

     This program is part of the open-source Quantum ESPRESSO suite
     for quantum simulation of materials; please cite
         "P. Giannozzi et al., J. Phys.:Condens. Matter 21 395502 (2009);
         "P. Giannozzi et al., J. Phys.:Condens. Matter 29 465901 (2017);
          URL http://www.quantum-espresso.org", 
     in publications or presentations arising from this work. More details at
     http://www.quantum-espresso.org/quote

     Parallel version (MPI), running on    20 processors

     MPI processes distributed on     8 nodes
     R & G space division:  proc/nbgrp/npool/nimage =      20
     Reading input from YBCO_BaO_cleave_5_sep.pwi
Warning: card &CELL ignored
Warning: card     CELL_DYNAMICS = 'BFGS' ignored
Warning: card / ignored

     Current dimensions of program PWSCF are:
     Max number of different atomic species (ntypx) = 10
     Max number of k-points (npk) =  40000
     Max angular momentum in pseudopotentials (lmaxx) =  3

     Subspace diagonalization in iterative solution of the eigenvalue problem:
     one sub-group per band group will be used
     scalapack distributed-memory algorithm (size of sub-group:  4*  4 procs)

     Message from routine setup:
     using ibrav=0 with symmetry is DISCOURAGED, use correct ibrav instead
 
     Parallelization info
     --------------------
     sticks:   dense  smooth     PW     G-vecs:    dense   smooth      PW
     Min         150      50     14                79178    15233    2374
     Max         151      51     15                79221    15259    2425
     Sum        3015    1011    293              1583993   304845   48017
 


     bravais-lattice index     =            0
     lattice parameter (alat)  =       7.3477  a.u.
     unit-cell volume          =    4854.4281 (a.u.)^3
     number of atoms/cell      =           28
     number of atomic types    =            4
     number of electrons       =       229.00
     number of Kohn-Sham states=          138
     kinetic-energy cutoff     =      60.0000  Ry
     charge density cutoff     =     720.0000  Ry
     convergence threshold     =      1.0E-06
     mixing beta               =       0.2000
     number of iterations used =           10  local-TF  mixing
     Exchange-correlation= SLA PW PBE PBE
                           (   1   4   3   4   0   0   0)
     nstep                     =          300


     celldm(1)=   7.347715  celldm(2)=   0.000000  celldm(3)=   0.000000
     celldm(4)=   0.000000  celldm(5)=   0.000000  celldm(6)=   0.000000

     crystal axes: (cart. coord. in units of alat)
               a(1) = (   1.000000   0.000000   0.000000 )  
               a(2) = (   0.000000   0.975577   0.000000 )  
               a(3) = (   0.000000   0.000000  12.543521 )  

     reciprocal axes: (cart. coord. in units 2 pi/alat)
               b(1) = (  1.000000  0.000000  0.000000 )  
               b(2) = (  0.000000  1.025034  0.000000 )  
               b(3) = (  0.000000  0.000000  0.079722 )  


     PseudoPot. # 1 for Ba read from file:
     /n/holyscratch01/hoffman_lab/ruizhe/YBCO_Project/pseudo/Ba.pbe-nsp-van.UPF
     MD5 check sum: 2b9c31dd849566dd297d80989662b7a0
     Pseudo is Ultrasoft + core correction, Zval = 10.0
     Generated by new atomic code, or converted to UPF format
     Using radial grid of  907 points,  6 beta functions with: 
                l(1) =   0
                l(2) =   0
                l(3) =   1
                l(4) =   1
                l(5) =   2
                l(6) =   2
     Q(r) pseudized with  6 coefficients,  rinner =    1.200   1.200   1.200
                                                       1.200   1.200

     PseudoPot. # 2 for Cu read from file:
     /n/holyscratch01/hoffman_lab/ruizhe/YBCO_Project/pseudo/Cu.pbe-n-van_ak.UPF
     MD5 check sum: 34e3282627ffb533726feb647e090d62
     Pseudo is Ultrasoft + core correction, Zval = 11.0
     Generated by new atomic code, or converted to UPF format
     Using radial grid of  867 points,  6 beta functions with: 
                l(1) =   0
                l(2) =   0
                l(3) =   1
                l(4) =   1
                l(5) =   2
                l(6) =   2
     Q(r) pseudized with  8 coefficients,  rinner =    1.400   1.400   1.400
                                                       1.400   1.400

     PseudoPot. # 3 for O  read from file:
     /n/holyscratch01/hoffman_lab/ruizhe/YBCO_Project/pseudo/O.pbe-van_ak.UPF
     MD5 check sum: 783ce7fe4c79b6a4916957118fed0856
     Pseudo is Ultrasoft, Zval =  6.0
     Generated by new atomic code, or converted to UPF format
     Using radial grid of  737 points,  4 beta functions with: 
                l(1) =   0
                l(2) =   0
                l(3) =   1
                l(4) =   1
     Q(r) pseudized with  8 coefficients,  rinner =    0.800   0.800   0.800


     PseudoPot. # 4 for Y  read from file:
     /n/holyscratch01/hoffman_lab/ruizhe/YBCO_Project/pseudo/Y.pbe-nsp-van.UPF
     MD5 check sum: 4412fed3ab108fed87a1b7d6a69a4a38
     Pseudo is Ultrasoft + core correction, Zval = 11.0
     Generated by new atomic code, or converted to UPF format
     Using radial grid of  885 points,  6 beta functions with: 
                l(1) =   0
                l(2) =   0
                l(3) =   1
                l(4) =   1
                l(5) =   2
                l(6) =   2
     Q(r) pseudized with  6 coefficients,  rinner =    1.200   1.200   1.200
                                                       1.200   1.200

     atomic species   valence    mass     pseudopotential
        Ba            10.00   137.32700     Ba( 1.00)
        Cu            11.00    63.54600     Cu( 1.00)
        O              6.00    15.99900     O ( 1.00)
        Y             11.00    88.90584     Y ( 1.00)

      4 Sym. Ops. (no inversion) found



   Cartesian axes

     site n.     atom                  positions (alat units)
         1           O   tau(   1) = (   0.0000000   0.4877884  -0.0257983  )
         2           Cu  tau(   2) = (   0.0000000   0.0000000   0.0215779  )
         3           O   tau(   3) = (   0.0000000   0.0000000   0.5073114  )
         4           Ba  tau(   4) = (   0.4999996   0.4877884   0.5319677  )
         5           Cu  tau(   5) = (   0.0000000   0.0000000   1.0495845  )
         6           O   tau(   6) = (   0.4999996   0.0000000   1.1181579  )
         7           O   tau(   7) = (   0.0000000   0.4877884   1.1273137  )
         8           Y   tau(   8) = (   0.4999996   0.4877884   1.4938777  )
         9           O   tau(   9) = (   0.0000000   0.4877884   1.8497402  )
        10           O   tau(  10) = (   0.4999996   0.0000000   1.8692709  )
        11           Cu  tau(  11) = (   0.0000000   0.0000000   1.9417560  )
        12           Ba  tau(  12) = (   0.4999996   0.4877884   2.4526063  )
        13           O   tau(  13) = (   0.0000000   0.0000000   2.5103470  )
        14           O   tau(  14) = (   0.0000000   0.4877884   2.9968469  )
        15           Cu  tau(  15) = (   0.0000000   0.0000000   2.9968521  )
        16           O   tau(  16) = (   0.0000000   0.0000000   3.4833288  )
        17           Ba  tau(  17) = (   0.4999996   0.4877884   3.5410618  )
        18           Cu  tau(  18) = (   0.0000000   0.0000000   5.3378629  )
        19           O   tau(  19) = (   0.4999996   0.0000000   5.4103353  )
        20           O   tau(  20) = (   0.0000000   0.4877884   5.4298479  )
        21           Y   tau(  21) = (   0.4999996   0.4877884   5.8757279  )
        22           O   tau(  22) = (   0.0000000   0.4877884   6.1522770  )
        23           O   tau(  23) = (   0.4999996   0.0000000   6.1614457  )
        24           Cu  tau(  24) = (   0.0000000   0.0000000   6.2300242  )
        25           Ba  tau(  25) = (   0.4999996   0.4877884   6.7476255  )
        26           O   tau(  26) = (   0.0000000   0.0000000   6.7722819  )
        27           Cu  tau(  27) = (   0.0000000   0.0000000   7.2579871  )
        28           O   tau(  28) = (   0.0000000   0.4877884   7.3053684  )

     number of k points=    25  Gaussian smearing, width (Ry)=  0.0100
                       cart. coord. in units 2pi/alat
        k(    1) = (   0.0000000   0.0000000   0.0000000), wk =   0.0312500
        k(    2) = (   0.0000000   0.1281293   0.0000000), wk =   0.0625000
        k(    3) = (   0.0000000   0.2562585   0.0000000), wk =   0.0625000
        k(    4) = (   0.0000000   0.3843878   0.0000000), wk =   0.0625000
        k(    5) = (   0.0000000  -0.5125170   0.0000000), wk =   0.0312500
        k(    6) = (   0.1250000   0.0000000   0.0000000), wk =   0.0625000
        k(    7) = (   0.1250000   0.1281293   0.0000000), wk =   0.1250000
        k(    8) = (   0.1250000   0.2562585   0.0000000), wk =   0.1250000
        k(    9) = (   0.1250000   0.3843878   0.0000000), wk =   0.1250000
        k(   10) = (   0.1250000  -0.5125170   0.0000000), wk =   0.0625000
        k(   11) = (   0.2500000   0.0000000   0.0000000), wk =   0.0625000
        k(   12) = (   0.2500000   0.1281293   0.0000000), wk =   0.1250000
        k(   13) = (   0.2500000   0.2562585   0.0000000), wk =   0.1250000
        k(   14) = (   0.2500000   0.3843878   0.0000000), wk =   0.1250000
        k(   15) = (   0.2500000  -0.5125170   0.0000000), wk =   0.0625000
        k(   16) = (   0.3750000   0.0000000   0.0000000), wk =   0.0625000
        k(   17) = (   0.3750000   0.1281293   0.0000000), wk =   0.1250000
        k(   18) = (   0.3750000   0.2562585   0.0000000), wk =   0.1250000
        k(   19) = (   0.3750000   0.3843878   0.0000000), wk =   0.1250000
        k(   20) = (   0.3750000  -0.5125170   0.0000000), wk =   0.0625000
        k(   21) = (  -0.5000000   0.0000000   0.0000000), wk =   0.0312500
        k(   22) = (  -0.5000000   0.1281293   0.0000000), wk =   0.0625000
        k(   23) = (  -0.5000000   0.2562585   0.0000000), wk =   0.0625000
        k(   24) = (  -0.5000000   0.3843878   0.0000000), wk =   0.0625000
        k(   25) = (  -0.5000000  -0.5125170   0.0000000), wk =   0.0312500

     Dense  grid:  1583993 G-vectors     FFT dimensions: (  64,  64, 800)

     Smooth grid:   304845 G-vectors     FFT dimensions: (  40,  36, 480)

     Estimated max dynamical RAM per process >     504.94 MB

     Estimated total dynamical RAM >       9.86 GB

     Initial potential from superposition of free atoms

     starting charge  228.84827, renormalised to  229.00000

     negative rho (up, down):  8.923E-02 0.000E+00
     Starting wfcs are  201 randomized atomic wfcs

     total cpu time spent up to now is       10.2 secs

     Self-consistent Calculation

     iteration #  1     ecut=    60.00 Ry     beta= 0.20
     Davidson diagonalization with overlap
     ethr =  1.00E-02,  avg # of iterations =  2.0

     negative rho (up, down):  8.720E-02 0.000E+00

     total cpu time spent up to now is       26.2 secs

     total energy              =   -1869.30824017 Ry
     Harris-Foulkes estimate   =   -1871.12645542 Ry
     estimated scf accuracy    <      20.29213267 Ry

     iteration #  2     ecut=    60.00 Ry     beta= 0.20
     Davidson diagonalization with overlap
     ethr =  8.86E-03,  avg # of iterations =  1.0

     negative rho (up, down):  8.632E-02 0.000E+00

     total cpu time spent up to now is       40.2 secs

     total energy              =   -1869.24077410 Ry
     Harris-Foulkes estimate   =   -1869.89782270 Ry
     estimated scf accuracy    <       7.71798546 Ry

     iteration #  3     ecut=    60.00 Ry     beta= 0.20
     Davidson diagonalization with overlap
     ethr =  3.37E-03,  avg # of iterations =  1.0

     negative rho (up, down):  8.576E-02 0.000E+00

     total cpu time spent up to now is       55.1 secs

     total energy              =   -1868.63850965 Ry
     Harris-Foulkes estimate   =   -1869.38604417 Ry
     estimated scf accuracy    <       3.93479509 Ry

     iteration #  4     ecut=    60.00 Ry     beta= 0.20
     Davidson diagonalization with overlap
     ethr =  1.72E-03,  avg # of iterations =  1.6

     negative rho (up, down):  8.586E-02 0.000E+00

     total cpu time spent up to now is       70.4 secs

     total energy              =   -1868.86720611 Ry
     Harris-Foulkes estimate   =   -1868.92635217 Ry
     estimated scf accuracy    <       4.12577412 Ry

     iteration #  5     ecut=    60.00 Ry     beta= 0.20
     Davidson diagonalization with overlap
     ethr =  1.72E-03,  avg # of iterations =  1.0

     negative rho (up, down):  8.685E-02 0.000E+00

     total cpu time spent up to now is       84.8 secs

     total energy              =   -1868.74759065 Ry
     Harris-Foulkes estimate   =   -1868.90021421 Ry
     estimated scf accuracy    <       2.62407774 Ry

     iteration #  6     ecut=    60.00 Ry     beta= 0.20
     Davidson diagonalization with overlap
     ethr =  1.15E-03,  avg # of iterations =  1.0

     negative rho (up, down):  8.751E-02 0.000E+00

     total cpu time spent up to now is       99.2 secs

     total energy              =   -1868.75806644 Ry
     Harris-Foulkes estimate   =   -1868.80388637 Ry
     estimated scf accuracy    <       0.95357570 Ry

     iteration #  7     ecut=    60.00 Ry     beta= 0.20
     Davidson diagonalization with overlap
     ethr =  4.16E-04,  avg # of iterations =  2.3

     negative rho (up, down):  8.892E-02 0.000E+00

     total cpu time spent up to now is      115.1 secs

     total energy              =   -1868.72442427 Ry
     Harris-Foulkes estimate   =   -1868.77521093 Ry
     estimated scf accuracy    <       0.50588813 Ry

     iteration #  8     ecut=    60.00 Ry     beta= 0.20
     Davidson diagonalization with overlap
     ethr =  2.21E-04,  avg # of iterations =  6.7

     negative rho (up, down):  8.988E-02 0.000E+00

     total cpu time spent up to now is      136.8 secs

     total energy              =   -1868.72374734 Ry
     Harris-Foulkes estimate   =   -1868.74284787 Ry
     estimated scf accuracy    <       0.27206417 Ry

     iteration #  9     ecut=    60.00 Ry     beta= 0.20
     Davidson diagonalization with overlap
     ethr =  1.19E-04,  avg # of iterations =  4.1

     negative rho (up, down):  9.013E-02 0.000E+00

     total cpu time spent up to now is      155.0 secs

     total energy              =   -1868.72541281 Ry
     Harris-Foulkes estimate   =   -1868.73030898 Ry
     estimated scf accuracy    <       0.34259563 Ry

     iteration # 10     ecut=    60.00 Ry     beta= 0.20
     Davidson diagonalization with overlap
     ethr =  1.19E-04,  avg # of iterations =  1.0

     negative rho (up, down):  9.087E-02 0.000E+00

     total cpu time spent up to now is      169.7 secs

     total energy              =   -1868.70947604 Ry
     Harris-Foulkes estimate   =   -1868.72700150 Ry
     estimated scf accuracy    <       0.24413452 Ry

     iteration # 11     ecut=    60.00 Ry     beta= 0.20
     Davidson diagonalization with overlap
     ethr =  1.07E-04,  avg # of iterations =  4.4

     negative rho (up, down):  9.132E-02 0.000E+00

     total cpu time spent up to now is      187.7 secs

     total energy              =   -1868.70419978 Ry
     Harris-Foulkes estimate   =   -1868.71461059 Ry
     estimated scf accuracy    <       0.20222868 Ry

     iteration # 12     ecut=    60.00 Ry     beta= 0.20
     Davidson diagonalization with overlap
     ethr =  8.83E-05,  avg # of iterations =  5.4

     negative rho (up, down):  9.089E-02 0.000E+00

     total cpu time spent up to now is      207.1 secs

     total energy              =   -1868.69923735 Ry
     Harris-Foulkes estimate   =   -1868.70905280 Ry
     estimated scf accuracy    <       0.08764626 Ry

     iteration # 13     ecut=    60.00 Ry     beta= 0.20
     Davidson diagonalization with overlap
     c_bands:  2 eigenvalues not converged
     ethr =  3.83E-05,  avg # of iterations =  5.6

     negative rho (up, down):  9.093E-02 0.000E+00

     total cpu time spent up to now is      226.4 secs

     total energy              =   -1868.69958732 Ry
     Harris-Foulkes estimate   =   -1868.70162713 Ry
     estimated scf accuracy    <       0.05084622 Ry

     iteration # 14     ecut=    60.00 Ry     beta= 0.20
     Davidson diagonalization with overlap
     ethr =  2.22E-05,  avg # of iterations =  4.1

     negative rho (up, down):  9.176E-02 0.000E+00

     total cpu time spent up to now is      244.5 secs

     total energy              =   -1868.69839075 Ry
     Harris-Foulkes estimate   =   -1868.70024815 Ry
     estimated scf accuracy    <       0.02770777 Ry

     iteration # 15     ecut=    60.00 Ry     beta= 0.20
     Davidson diagonalization with overlap
     ethr =  1.21E-05,  avg # of iterations =  6.1

     negative rho (up, down):  9.808E-02 0.000E+00

     total cpu time spent up to now is      265.2 secs

     total energy              =   -1868.69893380 Ry
     Harris-Foulkes estimate   =   -1868.69905700 Ry
     estimated scf accuracy    <       0.02246457 Ry

     iteration # 16     ecut=    60.00 Ry     beta= 0.20
     Davidson diagonalization with overlap
     c_bands:  1 eigenvalues not converged
     ethr =  9.81E-06,  avg # of iterations =  5.4

     negative rho (up, down):  9.826E-02 0.000E+00

     total cpu time spent up to now is      284.4 secs

     total energy              =   -1868.69871665 Ry
     Harris-Foulkes estimate   =   -1868.69947190 Ry
     estimated scf accuracy    <       0.01719304 Ry

     iteration # 17     ecut=    60.00 Ry     beta= 0.20
     Davidson diagonalization with overlap
     ethr =  7.51E-06,  avg # of iterations =  1.6

     negative rho (up, down):  9.499E-02 0.000E+00

     total cpu time spent up to now is      299.5 secs

     total energy              =   -1868.69810922 Ry
     Harris-Foulkes estimate   =   -1868.69885814 Ry
     estimated scf accuracy    <       0.01040171 Ry

     iteration # 18     ecut=    60.00 Ry     beta= 0.20
     Davidson diagonalization with overlap
     c_bands:  1 eigenvalues not converged
     c_bands:  1 eigenvalues not converged
     ethr =  4.54E-06,  avg # of iterations =  6.4

     negative rho (up, down):  9.469E-02 0.000E+00

     total cpu time spent up to now is      319.7 secs

     total energy              =   -1868.69781886 Ry
     Harris-Foulkes estimate   =   -1868.69821804 Ry
     estimated scf accuracy    <       0.00739611 Ry

     iteration # 19     ecut=    60.00 Ry     beta= 0.20
     Davidson diagonalization with overlap
     ethr =  3.23E-06,  avg # of iterations =  3.6

     negative rho (up, down):  8.979E-02 0.000E+00

     total cpu time spent up to now is      337.2 secs

     total energy              =   -1868.69730860 Ry
     Harris-Foulkes estimate   =   -1868.69785684 Ry
     estimated scf accuracy    <       0.00638525 Ry

     iteration # 20     ecut=    60.00 Ry     beta= 0.20
     Davidson diagonalization with overlap
     ethr =  2.79E-06,  avg # of iterations =  6.1

     negative rho (up, down):  8.923E-02 0.000E+00

     total cpu time spent up to now is      358.1 secs

     total energy              =   -1868.69704991 Ry
     Harris-Foulkes estimate   =   -1868.69735733 Ry
     estimated scf accuracy    <       0.00536689 Ry

     iteration # 21     ecut=    60.00 Ry     beta= 0.20
     Davidson diagonalization with overlap
     c_bands:  1 eigenvalues not converged
     ethr =  2.34E-06,  avg # of iterations =  5.2

     negative rho (up, down):  8.938E-02 0.000E+00

     total cpu time spent up to now is      377.5 secs

     total energy              =   -1868.69650888 Ry
     Harris-Foulkes estimate   =   -1868.69706883 Ry
     estimated scf accuracy    <       0.00509784 Ry

     iteration # 22     ecut=    60.00 Ry     beta= 0.20
     Davidson diagonalization with overlap
     c_bands:  1 eigenvalues not converged
     ethr =  2.23E-06,  avg # of iterations =  5.6

     negative rho (up, down):  8.961E-02 0.000E+00

     total cpu time spent up to now is      397.1 secs

     total energy              =   -1868.69560971 Ry
     Harris-Foulkes estimate   =   -1868.69652729 Ry
     estimated scf accuracy    <       0.00470301 Ry

     iteration # 23     ecut=    60.00 Ry     beta= 0.20
     Davidson diagonalization with overlap
     ethr =  2.05E-06,  avg # of iterations =  7.0

     negative rho (up, down):  8.965E-02 0.000E+00

     total cpu time spent up to now is      418.5 secs

     total energy              =   -1868.69528860 Ry
     Harris-Foulkes estimate   =   -1868.69568303 Ry
     estimated scf accuracy    <       0.00296910 Ry

     iteration # 24     ecut=    60.00 Ry     beta= 0.20
     Davidson diagonalization with overlap
     ethr =  1.30E-06,  avg # of iterations =  4.6

     negative rho (up, down):  8.933E-02 0.000E+00

     total cpu time spent up to now is      436.9 secs

     total energy              =   -1868.69507269 Ry
     Harris-Foulkes estimate   =   -1868.69531943 Ry
     estimated scf accuracy    <       0.00227812 Ry

     iteration # 25     ecut=    60.00 Ry     beta= 0.20
     Davidson diagonalization with overlap
     ethr =  9.95E-07,  avg # of iterations =  7.4

     negative rho (up, down):  8.954E-02 0.000E+00

     total cpu time spent up to now is      459.8 secs

     total energy              =   -1868.69507801 Ry
     Harris-Foulkes estimate   =   -1868.69515470 Ry
     estimated scf accuracy    <       0.00111464 Ry

     iteration # 26     ecut=    60.00 Ry     beta= 0.20
     Davidson diagonalization with overlap
     ethr =  4.87E-07,  avg # of iterations =  5.1

     negative rho (up, down):  8.969E-02 0.000E+00

     total cpu time spent up to now is      479.5 secs

     total energy              =   -1868.69508218 Ry
     Harris-Foulkes estimate   =   -1868.69510332 Ry
     estimated scf accuracy    <       0.00081384 Ry

     iteration # 27     ecut=    60.00 Ry     beta= 0.20
     Davidson diagonalization with overlap
     ethr =  3.55E-07,  avg # of iterations =  2.2

     negative rho (up, down):  9.100E-02 0.000E+00

     total cpu time spent up to now is      495.3 secs

     total energy              =   -1868.69502570 Ry
     Harris-Foulkes estimate   =   -1868.69508702 Ry
     estimated scf accuracy    <       0.00057420 Ry

     iteration # 28     ecut=    60.00 Ry     beta= 0.20
     Davidson diagonalization with overlap
     ethr =  2.51E-07,  avg # of iterations =  6.3

     negative rho (up, down):  9.103E-02 0.000E+00

     total cpu time spent up to now is      516.1 secs

     total energy              =   -1868.69506751 Ry
     Harris-Foulkes estimate   =   -1868.69506161 Ry
     estimated scf accuracy    <       0.00019566 Ry

     iteration # 29     ecut=    60.00 Ry     beta= 0.20
     Davidson diagonalization with overlap
     ethr =  8.54E-08,  avg # of iterations =  1.6

     negative rho (up, down):  9.075E-02 0.000E+00

     total cpu time spent up to now is      531.5 secs

     total energy              =   -1868.69510417 Ry
     Harris-Foulkes estimate   =   -1868.69507055 Ry
     estimated scf accuracy    <       0.00020091 Ry

     iteration # 30     ecut=    60.00 Ry     beta= 0.20
     Davidson diagonalization with overlap
     ethr =  8.54E-08,  avg # of iterations =  2.0

     negative rho (up, down):  8.972E-02 0.000E+00

     total cpu time spent up to now is      547.1 secs

     total energy              =   -1868.69515610 Ry
     Harris-Foulkes estimate   =   -1868.69510664 Ry
     estimated scf accuracy    <       0.00013140 Ry

     iteration # 31     ecut=    60.00 Ry     beta= 0.20
     Davidson diagonalization with overlap
     ethr =  5.74E-08,  avg # of iterations =  4.4

     negative rho (up, down):  8.980E-02 0.000E+00

     total cpu time spent up to now is      565.4 secs

     total energy              =   -1868.69518259 Ry
     Harris-Foulkes estimate   =   -1868.69515877 Ry
     estimated scf accuracy    <       0.00008186 Ry

     iteration # 32     ecut=    60.00 Ry     beta= 0.20
     Davidson diagonalization with overlap
     ethr =  3.57E-08,  avg # of iterations =  3.8

     negative rho (up, down):  9.050E-02 0.000E+00

     total cpu time spent up to now is      583.1 secs

     total energy              =   -1868.69518714 Ry
     Harris-Foulkes estimate   =   -1868.69518497 Ry
     estimated scf accuracy    <       0.00002116 Ry

     iteration # 33     ecut=    60.00 Ry     beta= 0.20
     Davidson diagonalization with overlap
     ethr =  9.24E-09,  avg # of iterations =  2.6

     negative rho (up, down):  9.057E-02 0.000E+00

     total cpu time spent up to now is      599.0 secs

     total energy              =   -1868.69518948 Ry
     Harris-Foulkes estimate   =   -1868.69518848 Ry
     estimated scf accuracy    <       0.00000708 Ry

     iteration # 34     ecut=    60.00 Ry     beta= 0.20
     Davidson diagonalization with overlap
     ethr =  3.09E-09,  avg # of iterations =  1.1

     negative rho (up, down):  9.049E-02 0.000E+00

     total cpu time spent up to now is      613.2 secs

     total energy              =   -1868.69519020 Ry
     Harris-Foulkes estimate   =   -1868.69518971 Ry
     estimated scf accuracy    <       0.00000658 Ry

     iteration # 35     ecut=    60.00 Ry     beta= 0.20
     Davidson diagonalization with overlap
     ethr =  2.87E-09,  avg # of iterations =  1.4

     negative rho (up, down):  9.050E-02 0.000E+00

     total cpu time spent up to now is      628.1 secs

     total energy              =   -1868.69519004 Ry
     Harris-Foulkes estimate   =   -1868.69519037 Ry
     estimated scf accuracy    <       0.00000359 Ry

     iteration # 36     ecut=    60.00 Ry     beta= 0.20
     Davidson diagonalization with overlap
     ethr =  1.57E-09,  avg # of iterations =  1.0

     negative rho (up, down):  9.044E-02 0.000E+00

     total cpu time spent up to now is      642.5 secs

     total energy              =   -1868.69518971 Ry
     Harris-Foulkes estimate   =   -1868.69519011 Ry
     estimated scf accuracy    <       0.00000257 Ry

     iteration # 37     ecut=    60.00 Ry     beta= 0.20
     Davidson diagonalization with overlap
     ethr =  1.12E-09,  avg # of iterations =  1.0

     negative rho (up, down):  9.029E-02 0.000E+00

     total cpu time spent up to now is      656.9 secs

     total energy              =   -1868.69518966 Ry
     Harris-Foulkes estimate   =   -1868.69518974 Ry
     estimated scf accuracy    <       0.00000182 Ry

     iteration # 38     ecut=    60.00 Ry     beta= 0.20
     Davidson diagonalization with overlap
     ethr =  7.93E-10,  avg # of iterations =  1.8

     negative rho (up, down):  9.020E-02 0.000E+00

     total cpu time spent up to now is      671.7 secs

     End of self-consistent calculation

          k = 0.0000 0.0000 0.0000 ( 37989 PWs)   bands (ev):

   -38.4977 -38.3659 -24.4276 -23.4792 -23.1515 -23.0578 -19.0951 -19.0327
   -18.5020 -18.4927 -18.4613 -18.4563 -15.8279 -15.7683 -15.3892 -15.1282
   -14.8687 -14.7158 -14.6356 -14.6133 -14.4597 -14.3520 -14.1788 -14.1337
   -14.0747 -13.8790 -13.4951  -9.7411  -9.2584  -9.2354  -8.7863  -8.4401
    -8.4191  -8.3763  -8.3324  -8.1437  -8.1171  -8.0110  -7.9882  -2.8714
    -2.8513  -2.4564  -2.4373  -2.4222  -2.2900  -2.2591  -2.2349  -2.1953
    -2.1664  -2.0914  -1.5604  -1.4813  -1.4142  -1.3312  -1.2584  -0.9294
    -0.8851  -0.8352  -0.8332  -0.8004  -0.5527  -0.4847  -0.4766  -0.4728
    -0.4442  -0.4076  -0.3784  -0.3159  -0.3071  -0.3052  -0.2453  -0.2414
    -0.1437  -0.0907  -0.0851  -0.0320   0.0107   0.0179   0.0218   0.0341
     0.1584   0.1703   0.1839   0.1842   0.2439   0.2590   0.2870   0.3273
     0.4352   0.5618   0.6579   0.7006   0.7862   0.8319   0.8548   0.8843
     0.9058   0.9426   0.9790   1.0071   1.0351   1.1021   1.1288   1.1501
     1.3735   1.4102   1.4953   1.5814   1.6105   1.7059   1.8091   1.8326
     1.9722   1.9986   2.0107   2.1315   2.1372   2.2380   2.2945   3.8870
     4.8326   4.8971   4.9497   5.4441   5.6146   5.9897   6.0786   6.3045
     6.5066   6.8414   7.1074   7.3025   7.3829   7.7736   7.7826   7.8012
     7.9673   8.2232

          k = 0.0000 0.1281 0.0000 ( 38019 PWs)   bands (ev):

   -38.4954 -38.3629 -24.4096 -23.4579 -23.1299 -23.0370 -19.0984 -18.9967
   -18.5970 -18.5724 -18.4988 -18.4575 -15.7191 -15.6902 -15.2967 -15.0824
   -14.8771 -14.7331 -14.6450 -14.5826 -14.4307 -14.3979 -14.1802 -14.1435
   -14.1390 -13.9441 -13.5275  -9.7270  -9.2702  -9.2026  -8.7676  -8.4377
    -8.3998  -8.3583  -8.3218  -8.1366  -8.1024  -8.0082  -7.9723  -3.0533
    -2.8444  -2.5582  -2.5316  -2.4070  -2.3461  -2.2425  -2.2363  -2.2132
    -2.0964  -2.0759  -1.8452  -1.8374  -1.5003  -1.4215  -1.3530  -1.3476
    -1.2604  -1.2043  -0.8563  -0.8167  -0.8086  -0.7874  -0.7763  -0.6585
    -0.6361  -0.5619  -0.5563  -0.4958  -0.4760  -0.3866  -0.2900  -0.1258
    -0.0975  -0.0819  -0.0803  -0.0424   0.0337   0.0550   0.0668   0.1516
     0.1702   0.1742   0.2117   0.2496   0.3843   0.4001   0.4108   0.4497
     0.4731   0.5429   0.5667   0.6622   0.7204   0.7587   0.7757   0.9306
     0.9485   1.0592   1.0815   1.1154   1.1293   1.1701   1.2120   1.2973
     1.3457   1.4687   1.4970   1.5866   1.6053   1.6160   1.7443   1.7816
     1.8279   2.0187   2.0714   2.4021   2.5004   2.5523   2.6257   4.0718
     5.1995   5.2342   5.2820   5.7213   5.8750   6.1707   6.3999   6.6197
     6.7127   7.0648   7.3291   7.4056   7.5807   7.7408   7.7650   7.9333
     8.0377   8.1171

          k = 0.0000 0.2563 0.0000 ( 38042 PWs)   bands (ev):

   -38.4898 -38.3559 -24.3654 -23.4055 -23.0768 -22.9859 -19.1737 -18.9056
   -18.8221 -18.7363 -18.4910 -18.4483 -15.5550 -15.4708 -15.1198 -14.9628
   -14.9525 -14.7759 -14.7028 -14.5172 -14.4636 -14.3321 -14.3137 -14.1510
   -14.1162 -14.0970 -13.6121  -9.6870  -9.2982  -9.1214  -8.7252  -8.4740
    -8.3166  -8.2991  -8.2932  -8.1776  -8.0515  -7.9992  -7.8757  -3.4262
    -2.9884  -2.8752  -2.7587  -2.7568  -2.4625  -2.3848  -2.2736  -2.2654
    -2.1915  -2.1434  -2.1198  -2.1141  -2.0372  -2.0230  -1.7001  -1.6306
    -1.5856  -1.2536  -1.1533  -1.1390  -1.0922  -1.0655  -0.9986  -0.8591
    -0.8002  -0.7744  -0.7708  -0.7242  -0.6951  -0.6697  -0.4341  -0.4241
    -0.3325  -0.3046  -0.2909  -0.2441  -0.0532   0.0087   0.0392   0.1502
     0.1774   0.2053   0.2148   0.2244   0.2660   0.3890   0.5512   0.6429
     0.6576   0.7646   0.8117   0.8137   0.8264   0.9631   0.9881   1.0466
     1.1078   1.1321   1.1335   1.1912   1.2070   1.2376   1.3166   1.3456
     1.4424   1.4477   1.5154   1.5821   1.6881   1.7225   1.8626   1.8881
     1.8887   2.0689   2.2416   2.4912   2.8525   2.9087   3.3411   4.5529
     5.9694   6.0826   6.1700   6.3942   6.4203   6.5682   6.9923   7.2892
     7.4777   7.5218   7.6107   7.7015   7.7513   7.8059   8.0748   8.1948
     8.2810   8.4196

          k = 0.0000 0.3844 0.0000 ( 37942 PWs)   bands (ev):

   -38.4842 -38.3489 -24.3204 -23.3517 -23.0223 -22.9336 -19.3416 -19.0200
   -18.8073 -18.7601 -18.4833 -18.4390 -15.4438 -15.2209 -15.1043 -15.0956
   -14.8288 -14.7910 -14.7622 -14.5051 -14.4924 -14.4590 -14.2348 -14.1402
   -14.0885 -14.0572 -13.7369  -9.6355  -9.3303  -9.0370  -8.6868  -8.4999
    -8.2779  -8.2581  -8.2106  -8.1929  -8.0911  -7.8902  -7.7742  -3.7742
    -3.5070  -3.3425  -3.1179  -2.9772  -2.9409  -2.6050  -2.5880  -2.3493
    -2.2927  -2.2867  -2.2414  -2.1879  -2.0586  -1.9656  -1.9648  -1.9284
    -1.4510  -1.4298  -1.3601  -1.3205  -1.2168  -1.1833  -1.1212  -1.1210
    -1.0693  -1.0091  -0.9656  -0.8704  -0.8129  -0.7762  -0.6789  -0.6678
    -0.5954  -0.4721  -0.4574  -0.4220  -0.2909  -0.2317   0.0091   0.0542
     0.1782   0.1884   0.1997   0.2482   0.2553   0.5308   0.5497   0.6696
     0.7975   0.8497   0.8964   0.9199   0.9306   0.9882   1.0129   1.0856
     1.1132   1.1262   1.1772   1.2067   1.3295   1.3732   1.5308   1.6056
     1.6256   1.6721   1.7408   1.7434   1.8527   1.8625   1.9358   2.1209
     2.2219   2.2767   2.2957   2.3764   2.8262   2.8810   3.8880   5.1898
     6.1505   6.8087   6.9030   7.0489   7.2495   7.2806   7.3909   7.4982
     7.7459   7.7545   8.0455   8.1668   8.2330   8.3139   8.4966   8.5811
     8.6868   8.8002

          k = 0.0000-0.5125 0.0000 ( 38102 PWs)   bands (ev):

   -38.4819 -38.3459 -24.3014 -23.3290 -22.9993 -22.9115 -19.4213 -19.0960
   -18.7641 -18.7496 -18.4800 -18.4352 -15.3975 -15.1760 -15.1412 -15.0892
   -14.8786 -14.7478 -14.6931 -14.6252 -14.5118 -14.4477 -14.2783 -14.0562
   -14.0259 -13.9213 -13.9088  -9.6090  -9.3470  -9.0011  -8.6721  -8.5079
    -8.2631  -8.2398  -8.2223  -8.1471  -8.1082  -7.8431  -7.7305  -3.9163
    -3.7494  -3.4900  -3.2515  -3.2142  -3.1726  -2.7225  -2.4397  -2.3843
    -2.3677  -2.3274  -2.2957  -2.2609  -2.2274  -2.0527  -1.9121  -1.8579
    -1.4955  -1.4370  -1.4222  -1.4057  -1.3059  -1.2372  -1.1669  -1.1643
    -1.0971  -1.0699  -0.9847  -0.9035  -0.8450  -0.8295  -0.7876  -0.7632
    -0.7548  -0.6955  -0.5272  -0.4694  -0.3527  -0.2781  -0.0553   0.1203
     0.1314   0.1728   0.1823   0.1849   0.2542   0.5167   0.5904   0.7244
     0.8524   0.8954   0.9415   0.9800   0.9819   0.9887   1.0393   1.0893
     1.1095   1.1557   1.1596   1.1625   1.3329   1.3665   1.6302   1.6592
     1.6810   1.7647   1.7819   2.0049   2.0161   2.0942   2.1440   2.1457
     2.1597   2.1979   2.4402   2.4581   2.6863   2.7448   4.0745   5.7091
     5.8431   7.1078   7.1808   7.3642   7.4447   7.4556   7.5512   7.6775
     7.7456   7.8394   8.1793   8.4209   8.5035   8.6704   8.7498   8.8155
     8.8815   9.0253

          k = 0.1250 0.0000 0.0000 ( 38032 PWs)   bands (ev):

   -38.4959 -38.3636 -24.4126 -23.4611 -23.1331 -23.0401 -19.0914 -19.0002
   -18.6020 -18.5784 -18.4902 -18.4534 -15.7126 -15.6619 -15.3290 -15.1532
   -14.8948 -14.7702 -14.6835 -14.5913 -14.4421 -14.3816 -14.1774 -14.1344
   -14.1307 -13.9140 -13.5210  -9.7622  -9.2318  -9.1944  -8.7933  -8.4062
    -8.3864  -8.3859  -8.3514  -8.1086  -8.0828  -7.9737  -7.9561  -3.0403
    -2.8261  -2.5462  -2.4597  -2.3728  -2.3523  -2.2412  -2.2240  -2.1848
    -2.1556  -2.1130  -1.7273  -1.5631  -1.4710  -1.3565  -1.2469  -0.9683
    -0.9649  -0.9074  -0.8560  -0.8277  -0.8250  -0.6835  -0.5906  -0.5708
    -0.5288  -0.5168  -0.4856  -0.4305  -0.4238  -0.2949  -0.2552  -0.1948
    -0.1436  -0.1156  -0.0287  -0.0170   0.0316   0.0329   0.0677   0.0996
     0.1376   0.1676   0.1705   0.1782   0.2664   0.2812   0.3030   0.4036
     0.4696   0.5258   0.5880   0.6290   0.6441   0.8197   0.8361   0.8589
     0.8713   0.8724   0.9226   1.0565   1.0662   1.1441   1.2236   1.3217
     1.3439   1.4158   1.4842   1.5822   1.6535   1.6868   1.7217   1.7559
     1.8965   1.9620   2.0589   2.1403   2.2566   2.3381   2.4405   4.0555
     5.0291   5.0911   5.1441   5.6729   5.8486   6.1277   6.3224   6.5446
     6.6928   7.0341   7.3068   7.5205   7.5748   7.7819   7.7943   7.9388
     8.1212   8.2743

          k = 0.1250 0.1281 0.0000 ( 38036 PWs)   bands (ev):

   -38.4936 -38.3607 -24.3951 -23.4406 -23.1122 -23.0200 -19.0939 -18.9647
   -18.6140 -18.6060 -18.5850 -18.5285 -15.6047 -15.5706 -15.2507 -15.1049
   -14.8927 -14.7780 -14.6801 -14.5635 -14.4349 -14.4129 -14.1801 -14.1734
   -14.1336 -13.9675 -13.5508  -9.7416  -9.3807  -9.0789  -8.7757  -8.5610
    -8.3714  -8.3391  -8.2580  -8.2564  -8.1267  -7.9589  -7.8359  -3.1999
    -2.8291  -2.6527  -2.5964  -2.4049  -2.3259  -2.2552  -2.2197  -2.1873
    -2.1865  -2.0360  -1.8593  -1.8472  -1.7188  -1.4444  -1.3503  -1.3471
    -1.3131  -1.2758  -1.1576  -1.0105  -0.9372  -0.9077  -0.8201  -0.7650
    -0.7039  -0.6789  -0.5588  -0.4903  -0.3522  -0.3060  -0.2347  -0.2227
    -0.2075  -0.1193  -0.0959  -0.0763   0.0188   0.0742   0.0912   0.1073
     0.1420   0.2198   0.2202   0.2370   0.3436   0.3807   0.4100   0.4730
     0.4815   0.5225   0.6129   0.7033   0.7564   0.7688   0.8239   0.8606
     0.9338   0.9718   1.0848   1.0913   1.1598   1.1669   1.1696   1.3726
     1.4171   1.4351   1.4684   1.5260   1.6806   1.7048   1.7651   1.7912
     1.9459   2.1059   2.3155   2.5172   2.5513   2.6373   2.7599   4.2210
     5.3561   5.3960   5.4268   5.9093   6.0558   6.2693   6.6299   6.8337
     6.8635   7.2372   7.4564   7.4860   7.6490   7.7065   7.7447   8.0278
     8.1058   8.2517

          k = 0.1250 0.2563 0.0000 ( 38078 PWs)   bands (ev):

   -38.4880 -38.3537 -24.3522 -23.3900 -23.0611 -22.9706 -19.1652 -18.8748
   -18.8176 -18.7663 -18.5863 -18.5299 -15.4239 -15.3589 -15.0853 -14.9765
   -14.9376 -14.7919 -14.7038 -14.5199 -14.5002 -14.3149 -14.3092 -14.1418
   -14.1076 -14.0966 -13.6277  -9.6927  -9.4864  -9.0446  -8.7375  -8.6630
    -8.3803  -8.3163  -8.3026  -8.2373  -8.2133  -7.9148  -7.7993  -3.5673
    -3.0883  -2.8924  -2.8044  -2.7640  -2.4415  -2.4044  -2.3125  -2.2575
    -2.2400  -2.1678  -2.1262  -2.1079  -2.1060  -1.9759  -1.8380  -1.7056
    -1.6861  -1.3768  -1.3342  -1.1926  -1.1898  -1.1739  -1.1061  -1.0602
    -0.9774  -0.7619  -0.7369  -0.6615  -0.6112  -0.5700  -0.4811  -0.4267
    -0.4207  -0.2362  -0.2171  -0.1920  -0.0394   0.0127   0.0795   0.0893
     0.1567   0.2255   0.2483   0.2560   0.3540   0.4224   0.4388   0.6089
     0.6648   0.8043   0.8281   0.8798   0.9238   1.0042   1.0187   1.0609
     1.0629   1.1606   1.2227   1.2472   1.2530   1.2655   1.2713   1.3424
     1.4147   1.4794   1.5390   1.6859   1.8237   1.8478   1.8599   1.8895
     2.1631   2.3471   2.5879   2.8202   2.9134   2.9806   3.3443   4.6832
     6.0153   6.1290   6.2236   6.3924   6.5225   6.6564   7.0372   7.4594
     7.4983   7.5841   7.6145   7.6788   7.7645   7.9122   8.0785   8.1816
     8.2003   8.4515

          k = 0.1250 0.3844 0.0000 ( 38067 PWs)   bands (ev):

   -38.4824 -38.3467 -24.3084 -23.3381 -23.0085 -22.9200 -19.3324 -19.0140
   -18.7974 -18.7780 -18.5765 -18.5099 -15.3110 -15.1190 -15.0648 -15.0510
   -14.8149 -14.7715 -14.7516 -14.5269 -14.4703 -14.4690 -14.2159 -14.1280
   -14.0838 -14.0532 -13.7401  -9.6421  -9.4959  -9.0987  -8.7002  -8.6686
    -8.3850  -8.2860  -8.2692  -8.2617  -8.2544  -7.9627  -7.8465  -3.9315
    -3.5126  -3.4365  -3.1704  -2.9649  -2.9308  -2.7372  -2.5992  -2.3250
    -2.3247  -2.2684  -2.2208  -2.1525  -2.1505  -2.1407  -2.0563  -1.8862
    -1.6386  -1.5484  -1.5066  -1.4018  -1.3383  -1.2906  -1.2472  -1.0998
    -1.0281  -0.9515  -0.8908  -0.8520  -0.8117  -0.7454  -0.7207  -0.6671
    -0.6456  -0.4239  -0.3288  -0.2340  -0.1383  -0.1173   0.0318   0.1135
     0.1944   0.2176   0.2554   0.2786   0.3671   0.4536   0.5680   0.6422
     0.7536   0.8140   0.8940   0.9023   1.0587   1.0754   1.1267   1.1421
     1.1850   1.1995   1.2219   1.2470   1.3382   1.4468   1.5169   1.5628
     1.6514   1.8075   1.8312   1.8708   1.9338   2.0608   2.2343   2.2552
     2.2697   2.3753   2.6085   2.7598   2.9054   2.9607   3.8870   5.2922
     5.9810   6.7385   6.8565   6.9530   7.1560   7.2382   7.2646   7.4063
     7.5087   7.6509   8.1161   8.2294   8.3174   8.4678   8.5682   8.6527
     8.7253   8.8230

          k = 0.1250-0.5125 0.0000 ( 38044 PWs)   bands (ev):

   -38.4801 -38.3438 -24.2900 -23.3161 -22.9864 -22.8986 -19.4124 -19.0895
   -18.7909 -18.7355 -18.5723 -18.5002 -15.2622 -15.1352 -15.0975 -14.9718
   -14.8434 -14.7305 -14.6484 -14.6240 -14.5089 -14.4826 -14.2527 -14.0538
   -14.0247 -13.9380 -13.8796  -9.6171  -9.4760  -9.1465  -8.6805  -8.6452
    -8.3597  -8.3117  -8.2737  -8.2523  -8.2385  -8.0108  -7.8893  -4.0812
    -3.7400  -3.6036  -3.3106  -3.2002  -3.1670  -2.7698  -2.6343  -2.3806
    -2.3431  -2.3425  -2.2763  -2.2226  -2.1714  -2.0933  -2.0203  -1.8935
    -1.7904  -1.7637  -1.4744  -1.3902  -1.3494  -1.2614  -1.2047  -1.1629
    -1.1378  -0.9896  -0.9306  -0.9228  -0.8662  -0.8319  -0.7617  -0.7580
    -0.7401  -0.5236  -0.3658  -0.2536  -0.2367  -0.1361   0.0141   0.1309
     0.1915   0.2381   0.2573   0.3110   0.3340   0.4270   0.4592   0.6853
     0.8218   0.8810   0.9629   0.9859   1.0495   1.0557   1.0869   1.1546
     1.1955   1.2110   1.2376   1.2571   1.2908   1.4834   1.6164   1.7376
     1.7784   1.9903   2.0010   2.1345   2.1529   2.1708   2.2148   2.3402
     2.4174   2.4371   2.5257   2.6014   2.8020   2.8733   4.0717   5.6092
     5.9651   6.8416   7.0840   7.1225   7.1514   7.2243   7.3031   7.3644
     7.6369   7.9113   8.5393   8.5420   8.6910   8.7297   8.7624   8.9272
     9.0276   9.1025

          k = 0.2500 0.0000 0.0000 ( 38112 PWs)   bands (ev):

   -38.4915 -38.3582 -24.3761 -23.4168 -23.0879 -22.9966 -19.1330 -18.9185
   -18.8169 -18.7636 -18.4841 -18.4462 -15.4916 -15.4486 -15.2270 -15.1914
   -15.0020 -14.8785 -14.7945 -14.5542 -14.4172 -14.3729 -14.2660 -14.1687
   -14.1285 -13.9801 -13.5881  -9.7901  -9.1663  -9.1195  -8.8027  -8.3963
    -8.3738  -8.3335  -8.3031  -8.0386  -7.9975  -7.9108  -7.8763  -3.3525
    -2.8541  -2.7641  -2.7480  -2.3632  -2.2662  -2.2283  -2.2109  -2.1808
    -2.1203  -2.0683  -2.0290  -1.6895  -1.6643  -1.4292  -1.3391  -1.2040
    -1.1452  -1.0729  -1.0503  -0.9133  -0.9008  -0.8196  -0.8145  -0.8009
    -0.7905  -0.7904  -0.7295  -0.6229  -0.5327  -0.3351  -0.3281  -0.2771
    -0.2536  -0.2391  -0.1185  -0.0968  -0.0015   0.0565   0.0797   0.0996
     0.1466   0.1526   0.1961   0.2712   0.2973   0.2977   0.3151   0.4125
     0.4366   0.4985   0.5938   0.6683   0.7165   0.7741   0.7814   0.9207
     0.9717   0.9856   1.0248   1.0978   1.1511   1.1672   1.1837   1.2169
     1.3053   1.3620   1.5319   1.5415   1.5485   1.6470   1.7194   1.7419
     1.8428   2.1049   2.1642   2.2476   2.3452   2.4750   2.6087   4.4910
     5.4831   5.5476   5.6470   6.2713   6.3712   6.5298   6.9595   7.0895
     7.1818   7.4260   7.6216   7.7276   7.7363   7.8419   7.9121   8.3404
     8.3950   8.5343

          k = 0.2500 0.1281 0.0000 ( 38100 PWs)   bands (ev):

   -38.4892 -38.3553 -24.3598 -23.3980 -23.0689 -22.9782 -19.1279 -18.8844
   -18.8111 -18.7949 -18.5842 -18.5284 -15.3748 -15.3435 -15.1705 -15.1373
   -14.9747 -14.8648 -14.7697 -14.5245 -14.4826 -14.3439 -14.2736 -14.1559
   -14.1181 -14.0093 -13.6109  -9.7705  -9.4186  -9.0158  -8.7927  -8.5994
    -8.4003  -8.3734  -8.2838  -8.1832  -8.1585  -7.8847  -7.7722  -3.5138
    -2.9928  -2.8095  -2.8022  -2.3491  -2.3486  -2.3123  -2.2400  -2.2022
    -2.1098  -2.0880  -1.9565  -1.8923  -1.8856  -1.7463  -1.4875  -1.4317
    -1.3566  -1.3457  -1.3425  -1.2023  -1.1740  -1.0830  -1.0319  -1.0172
    -0.7939  -0.7450  -0.6741  -0.6160  -0.5825  -0.3784  -0.3539  -0.2265
    -0.1978  -0.1406  -0.1280  -0.1099  -0.0328   0.0135   0.0184   0.0983
     0.1257   0.1778   0.3067   0.3459   0.3551   0.3597   0.4572   0.4812
     0.5388   0.5888   0.6409   0.6688   0.8594   0.8739   0.9085   0.9557
     0.9867   1.0509   1.0550   1.0728   1.1530   1.1795   1.2851   1.2955
     1.3177   1.3712   1.5062   1.5635   1.5807   1.6869   1.8195   1.9537
     2.2119   2.4007   2.5589   2.6066   2.6311   2.7259   3.0463   4.6334
     5.7210   5.7898   5.8157   6.3935   6.4181   6.5984   7.0714   7.2748
     7.4291   7.4454   7.5212   7.5895   7.7249   7.8788   7.9804   8.3346
     8.3861   8.4732

          k = 0.2500 0.2563 0.0000 ( 38113 PWs)   bands (ev):

   -38.4837 -38.3484 -24.3199 -23.3519 -23.0224 -22.9330 -19.1585 -18.9336
   -18.8179 -18.7983 -18.7812 -18.5751 -15.1952 -15.1110 -15.0167 -14.9883
   -14.9227 -14.8243 -14.7199 -14.6254 -14.4581 -14.3049 -14.2504 -14.1189
   -14.0907 -14.0853 -13.6648  -9.7341  -9.6636  -9.1051  -8.8876  -8.7326
    -8.5865  -8.4525  -8.3330  -8.3087  -8.2773  -7.9820  -7.8688  -3.9289
    -3.4132  -3.0359  -2.8722  -2.7545  -2.4884  -2.4280  -2.4186  -2.3469
    -2.3372  -2.2370  -2.1954  -2.1270  -2.1165  -1.9715  -1.9139  -1.8552
    -1.7829  -1.7515  -1.6094  -1.5725  -1.2242  -1.1483  -1.1065  -1.0894
    -1.0000  -0.9701  -0.7491  -0.6901  -0.6731  -0.5415  -0.5265  -0.4427
    -0.4207  -0.3938  -0.2382  -0.0801  -0.0519   0.0346   0.1123   0.1760
     0.2107   0.3386   0.3591   0.3870   0.3985   0.4833   0.5229   0.7678
     0.8380   0.8699   0.9294   0.9774   0.9929   1.0156   1.0268   1.1145
     1.1488   1.1871   1.1964   1.3109   1.3453   1.3994   1.4385   1.4416
     1.5386   1.5872   1.6003   1.7486   1.7688   1.8043   1.9141   1.9630
     2.7683   2.8430   2.8829   3.0134   3.2025   3.3543   3.5498   5.0512
     5.7696   6.1829   6.3029   6.5279   6.7727   6.9227   7.0890   7.2549
     7.5068   7.6466   7.8051   7.9614   8.0017   8.2222   8.2754   8.3492
     8.4276   8.6169

          k = 0.2500 0.3844 0.0000 ( 38127 PWs)   bands (ev):

   -38.4781 -38.3414 -24.2793 -23.3047 -22.9749 -22.8868 -19.3103 -18.9995
   -18.9805 -18.7813 -18.7029 -18.5472 -15.0727 -14.9877 -14.9440 -14.8614
   -14.8003 -14.7315 -14.6987 -14.6757 -14.4145 -14.3926 -14.1702 -14.0859
   -14.0706 -14.0420 -13.7362  -9.7963  -9.6605  -9.3231  -8.9852  -8.7120
    -8.6932  -8.5511  -8.5118  -8.3124  -8.2959  -8.2187  -8.0917  -4.3434
    -3.8275  -3.4577  -3.3429  -2.9422  -2.9044  -2.8961  -2.7059  -2.5391
    -2.5143  -2.4170  -2.3011  -2.2257  -2.2216  -2.2048  -2.0015  -1.9355
    -1.8639  -1.8211  -1.6897  -1.4524  -1.3631  -1.3189  -1.2293  -1.2023
    -1.0920  -0.9773  -0.8834  -0.7517  -0.7297  -0.6892  -0.6779  -0.6744
    -0.5473  -0.4424  -0.3775  -0.1091  -0.0626   0.0417   0.0986   0.2541
     0.2981   0.3734   0.4027   0.4745   0.5877   0.6881   0.7957   0.8853
     0.9240   0.9453   0.9848   0.9978   1.1788   1.1962   1.2270   1.3129
     1.3441   1.3839   1.3936   1.4485   1.4661   1.5388   1.5451   1.6083
     1.7185   1.7991   1.8658   1.8917   1.9413   2.1748   2.1909   2.2036
     2.7655   2.8125   3.0814   3.2912   3.4702   3.7627   3.8787   5.2846
     5.7198   6.3278   6.4678   6.7186   6.8258   6.8721   7.2284   7.3973
     7.5579   7.8129   8.2661   8.3263   8.4775   8.6891   8.7643   8.8438
     9.0163   9.0938

          k = 0.2500-0.5125 0.0000 ( 38142 PWs)   bands (ev):

   -38.4758 -38.3385 -24.2622 -23.2848 -22.9548 -22.8673 -19.3908 -19.0740
   -18.9784 -18.7755 -18.6621 -18.5299 -15.0320 -14.9980 -14.9818 -14.7561
   -14.7104 -14.6936 -14.6604 -14.6197 -14.5343 -14.4107 -14.1882 -14.0491
   -14.0212 -13.9548 -13.8071  -9.7842  -9.6421  -9.4620  -8.9639  -8.7117
    -8.6778  -8.6592  -8.5432  -8.3781  -8.3018  -8.2872  -8.2282  -4.5106
    -3.9911  -3.6934  -3.5082  -3.1656  -3.1432  -2.9378  -2.8352  -2.6420
    -2.5075  -2.3867  -2.3839  -2.3167  -2.2303  -2.1873  -2.1189  -1.9333
    -1.8487  -1.8433  -1.7064  -1.4900  -1.4325  -1.2780  -1.2543  -1.2501
    -1.0678  -1.0037  -0.9669  -0.8299  -0.7839  -0.7493  -0.6570  -0.6171
    -0.6064  -0.4699  -0.4578  -0.1623  -0.0600   0.1008   0.1052   0.3075
     0.3451   0.3708   0.4238   0.5052   0.6659   0.7627   0.8238   0.8969
     0.9716   1.0252   1.0317   1.0594   1.2251   1.2257   1.2456   1.3014
     1.3037   1.4442   1.4926   1.5039   1.5093   1.5363   1.6033   1.7103
     1.7463   1.9388   1.9729   2.1348   2.1476   2.3169   2.3649   2.3822
     2.6048   2.6548   3.1538   3.3488   3.5245   3.7899   4.0548   5.1152
     6.2443   6.3088   6.4209   6.5420   6.7032   6.8110   7.2053   7.2379
     7.7662   8.0325   8.5404   8.7502   8.8897   8.9015   8.9368   8.9468
     9.0248   9.2746

          k = 0.3750 0.0000 0.0000 ( 38118 PWs)   bands (ev):

   -38.4871 -38.3528 -24.3388 -23.3715 -23.0416 -22.9522 -19.2713 -19.0060
   -18.8298 -18.8073 -18.4781 -18.4391 -15.3773 -15.3201 -15.2067 -15.1951
   -15.1211 -14.9107 -14.8898 -14.5637 -14.4106 -14.3884 -14.2255 -14.1541
   -14.1169 -14.0229 -13.6797  -9.7968  -9.0987  -9.0681  -8.8082  -8.3971
    -8.3751  -8.2669  -8.2166  -7.9794  -7.9081  -7.8714  -7.7929  -3.6452
    -3.1775  -3.0284  -2.6170  -2.4226  -2.4078  -2.3343  -2.2463  -2.2223
    -2.0656  -2.0022  -2.0005  -1.9598  -1.5806  -1.5192  -1.3841  -1.3207
    -1.3010  -1.2203  -1.2062  -1.1899  -1.0958  -1.0898  -1.0337  -0.9983
    -0.9532  -0.7990  -0.7981  -0.7919  -0.5953  -0.5753  -0.5680  -0.4765
    -0.3761  -0.2987  -0.2944  -0.1478   0.0002   0.0409   0.0986   0.1047
     0.1331   0.1451   0.2350   0.2647   0.3332   0.3566   0.3779   0.4090
     0.4900   0.5374   0.6554   0.7224   0.7544   0.8620   0.8817   0.9222
     0.9640   1.0224   1.0640   1.0732   1.1069   1.1670   1.1935   1.2106
     1.4427   1.4660   1.4912   1.5552   1.5808   1.6171   1.7956   1.8533
     1.9059   2.1320   2.1919   2.2855   2.3717   2.5810   2.5975   5.0998
     6.0832   6.1084   6.1860   6.6356   6.8929   6.9840   7.2755   7.4573
     7.5721   7.6860   7.6925   7.8870   7.9573   8.1325   8.3837   8.4437
     8.5990   8.6058

          k = 0.3750 0.1281 0.0000 ( 38086 PWs)   bands (ev):

   -38.4849 -38.3499 -24.3238 -23.3545 -23.0246 -22.9355 -19.2610 -18.9987
   -18.8505 -18.7969 -18.5764 -18.5107 -15.2547 -15.2533 -15.1420 -15.1370
   -15.0377 -14.8671 -14.8632 -14.5287 -14.4775 -14.3637 -14.1957 -14.1361
   -14.1005 -14.0326 -13.6950  -9.7791  -9.3583  -9.0735  -8.7985  -8.5299
    -8.3957  -8.3762  -8.2368  -8.2262  -8.1015  -7.9407  -7.8335  -3.8246
    -3.3256  -3.0835  -2.7586  -2.4325  -2.3896  -2.3664  -2.2840  -2.2103
    -2.2096  -2.1359  -2.1136  -1.9359  -1.8831  -1.6617  -1.6553  -1.6001
    -1.4970  -1.4125  -1.3469  -1.3436  -1.2385  -1.1512  -1.0968  -1.0459
    -0.9496  -0.9000  -0.8670  -0.7571  -0.7132  -0.5663  -0.4614  -0.3708
    -0.2906  -0.2012  -0.1963  -0.1242  -0.0567  -0.0489   0.0199   0.0682
     0.1299   0.2319   0.3067   0.3997   0.4241   0.5178   0.5338   0.5364
     0.5973   0.6624   0.7472   0.7624   0.8088   0.8446   0.8984   0.9644
     0.9836   1.0283   1.0965   1.1260   1.2011   1.2116   1.2519   1.2561
     1.4208   1.4656   1.4990   1.5448   1.5851   1.8096   1.8814   2.1253
     2.3590   2.5096   2.5875   2.6427   2.6592   2.8804   3.0937   5.2268
     6.0097   6.2069   6.3086   6.4427   6.9780   7.0370   7.3123   7.3460
     7.4114   7.5873   7.6835   7.7606   8.2256   8.3852   8.4533   8.4836
     8.5621   8.7131

          k = 0.3750 0.2563 0.0000 ( 38117 PWs)   bands (ev):

   -38.4794 -38.3430 -24.2871 -23.3131 -22.9830 -22.8947 -19.2387 -19.0427
   -18.9812 -18.7916 -18.7136 -18.5494 -15.0751 -15.0712 -15.0161 -14.9401
   -14.8504 -14.8009 -14.7293 -14.6429 -14.4446 -14.3078 -14.1119 -14.0943
   -14.0725 -14.0628 -13.7192  -9.7745  -9.6911  -9.3096  -8.9341  -8.7507
    -8.6356  -8.5059  -8.4992  -8.3516  -8.3234  -8.2094  -8.0898  -4.2940
    -3.7652  -3.3140  -2.9214  -2.7257  -2.5990  -2.5520  -2.5400  -2.4483
    -2.4163  -2.3419  -2.2241  -2.2043  -2.1349  -2.1229  -2.0346  -1.9722
    -1.8463  -1.6933  -1.6147  -1.4749  -1.3026  -1.1930  -1.1526  -1.0610
    -1.0495  -0.9570  -0.8370  -0.7088  -0.6790  -0.5935  -0.5741  -0.5338
    -0.4370  -0.3871  -0.3698  -0.1500   0.0257   0.1267   0.1300   0.2367
     0.3477   0.4348   0.4811   0.5149   0.5833   0.7089   0.7881   0.8478
     0.8870   0.9154   0.9273   0.9894   1.0510   1.0756   1.0894   1.1525
     1.1954   1.2707   1.3042   1.3258   1.3935   1.4197   1.4951   1.5147
     1.5991   1.6324   1.6473   1.6823   1.8016   1.8659   1.8918   2.2095
     2.8448   2.8841   3.1694   3.3546   3.4115   3.5571   3.8597   5.3433
     5.5911   6.1270   6.2824   6.5241   6.7619   6.8684   7.2431   7.4326
     7.6658   7.8550   7.8885   8.0029   8.3625   8.6609   8.6982   8.7260
     8.8320   8.9536

          k = 0.3750 0.3844 0.0000 ( 38213 PWs)   bands (ev):

   -38.4739 -38.3361 -24.2497 -23.2708 -22.9406 -22.8531 -19.2883 -19.1899
   -18.9862 -18.9609 -18.6242 -18.5181 -14.9309 -14.9157 -14.8112 -14.8111
   -14.8019 -14.7202 -14.7161 -14.5408 -14.3698 -14.3054 -14.1213 -14.0582
   -14.0292 -13.9895 -13.7276 -10.0116  -9.6849  -9.6026  -9.1936  -8.9020
    -8.8246  -8.7569  -8.7359  -8.5382  -8.3973  -8.3420  -8.3186  -4.7539
    -4.2172  -3.6768  -3.3842  -3.0055  -2.9548  -2.8919  -2.8766  -2.7704
    -2.6499  -2.6221  -2.5363  -2.2907  -2.2325  -2.2091  -2.1382  -2.1205
    -1.7609  -1.6403  -1.5993  -1.5354  -1.4948  -1.3320  -1.2687  -1.1275
    -1.1035  -0.9443  -0.8787  -0.8267  -0.7943  -0.7622  -0.6628  -0.5450
    -0.4928  -0.3590  -0.3348  -0.2487   0.0820   0.1408   0.1901   0.5048
     0.5180   0.6082   0.6607   0.7022   0.8985   0.9290   0.9876   1.0631
     1.0708   1.0837   1.1483   1.1826   1.2802   1.3079   1.3421   1.3664
     1.3843   1.5021   1.5146   1.5573   1.5907   1.6025   1.6901   1.7575
     1.7576   1.8308   1.8845   1.9244   2.0121   2.0988   2.1248   2.4803
     2.7660   2.8060   3.6992   3.8556   3.9599   4.0538   4.3583   4.7282
     5.7790   5.9181   6.0775   6.4506   6.5579   6.6345   7.2886   7.4107
     7.7924   8.1114   8.3468   8.4316   8.5773   8.6547   8.8368   9.0068
     9.0576   9.1165

          k = 0.3750-0.5125 0.0000 ( 38222 PWs)   bands (ev):

   -38.4716 -38.3332 -24.2341 -23.2530 -22.9228 -22.8356 -19.3691 -19.1873
   -19.0584 -18.9555 -18.5851 -18.4990 -14.9202 -14.8382 -14.8254 -14.8180
   -14.6766 -14.6656 -14.6224 -14.4639 -14.4086 -14.3397 -14.1174 -14.0448
   -14.0175 -13.9193 -13.7319 -10.0921  -9.7666  -9.6468  -9.2691  -8.9811
    -8.9797  -8.8377  -8.7296  -8.6933  -8.5379  -8.3400  -8.3113  -4.9364
    -4.3982  -3.8457  -3.6277  -3.1367  -3.1197  -3.1148  -3.0232  -2.8511
    -2.7630  -2.6660  -2.5490  -2.2877  -2.2282  -2.2087  -2.1701  -2.1424
    -1.7823  -1.7070  -1.6845  -1.5144  -1.4291  -1.4019  -1.2321  -1.1789
    -1.1580  -0.9700  -0.9544  -0.8744  -0.8447  -0.8383  -0.6423  -0.5679
    -0.4336  -0.3347  -0.3110  -0.3014   0.0967   0.1651   0.2189   0.5181
     0.5808   0.7566   0.7607   0.7924   1.0150   1.0253   1.0499   1.1100
     1.1368   1.1465   1.2090   1.2943   1.3526   1.4140   1.4267   1.4503
     1.4683   1.5229   1.5770   1.6461   1.6540   1.7107   1.7707   1.7768
     1.8778   1.8989   2.0030   2.1516   2.1665   2.2988   2.3213   2.5915
     2.6290   2.6365   3.8688   3.9997   4.1275   4.2171   4.4931   4.5108
     5.6014   5.7209   6.3730   6.4231   6.4392   6.5665   7.2240   7.3203
     7.9405   8.0627   8.3961   8.5331   8.6286   8.7931   8.9015   8.9044
     9.0829   9.1647

          k =-0.5000 0.0000 0.0000 ( 38122 PWs)   bands (ev):

   -38.4853 -38.3505 -24.3232 -23.3523 -23.0221 -22.9335 -19.3432 -19.0781
   -18.8013 -18.7915 -18.4755 -18.4361 -15.3646 -15.3310 -15.2435 -15.2329
   -15.0206 -14.9752 -14.8762 -14.5990 -14.4301 -14.3983 -14.1560 -14.1113
   -14.1084 -14.0348 -13.7445  -9.7951  -9.0700  -9.0524  -8.8105  -8.3965
    -8.3706  -8.2397  -8.1795  -7.9566  -7.8698  -7.8598  -7.7573  -3.7656
    -3.3010  -3.1431  -2.5449  -2.5070  -2.4380  -2.3610  -2.3142  -2.2186
    -2.1496  -2.0321  -2.0318  -1.7812  -1.5751  -1.5607  -1.4462  -1.3369
    -1.2764  -1.2742  -1.2403  -1.2163  -1.2156  -1.1747  -1.1601  -1.1250
    -1.0491  -0.8769  -0.8113  -0.7931  -0.7921  -0.6825  -0.6138  -0.5040
    -0.4289  -0.3574  -0.2999  -0.2213   0.0245   0.0661   0.1148   0.1165
     0.1275   0.1399   0.1933   0.2805   0.3365   0.3709   0.3922   0.4508
     0.4582   0.4643   0.7907   0.8185   0.8236   0.8682   0.8797   0.9126
     0.9563   1.0585   1.0619   1.0829   1.1006   1.1579   1.2002   1.2023
     1.4365   1.5042   1.5323   1.5556   1.5991   1.6709   1.8073   1.8898
     2.0415   2.1359   2.2046   2.2737   2.3347   2.5520   2.5941   5.7032
     5.8594   6.5495   6.7087   6.9292   7.0161   7.0391   7.2084   7.2523
     7.4965   7.6748   7.7486   7.9051   8.0587   8.3135   8.4958   8.7735
     8.8424   8.8605

          k =-0.5000 0.1281 0.0000 ( 38100 PWs)   bands (ev):

   -38.4831 -38.3477 -24.3087 -23.3362 -23.0059 -22.9175 -19.3325 -19.0703
   -18.8487 -18.7592 -18.5731 -18.5022 -15.2934 -15.1975 -15.1900 -15.1826
   -14.9338 -14.9045 -14.8472 -14.5631 -14.4650 -14.3944 -14.1328 -14.0929
   -14.0793 -14.0374 -13.7588  -9.7765  -9.2625  -9.1756  -8.7998  -8.3907
    -8.3900  -8.3741  -8.3689  -8.0917  -8.0812  -7.9852  -7.9612  -3.9533
    -3.4545  -3.2063  -2.7263  -2.5599  -2.4032  -2.3806  -2.3421  -2.2781
    -2.2010  -2.1623  -1.9445  -1.9249  -1.9078  -1.8903  -1.7582  -1.5332
    -1.5309  -1.3685  -1.3487  -1.2656  -1.2147  -1.1975  -1.1154  -1.1056
    -1.0130  -0.9675  -0.9199  -0.8399  -0.7413  -0.6848  -0.5110  -0.4408
    -0.3069  -0.2696  -0.2253  -0.1854  -0.0781  -0.0645   0.0407   0.0802
     0.1225   0.2764   0.3182   0.4035   0.4179   0.5077   0.6157   0.6199
     0.6235   0.6842   0.7233   0.7512   0.8261   0.9200   0.9308   0.9343
     0.9988   1.0630   1.0936   1.1300   1.1778   1.1804   1.2167   1.2621
     1.4658   1.4853   1.5112   1.5440   1.6580   1.7888   2.0404   2.2169
     2.3909   2.5342   2.5865   2.6434   2.6531   2.9036   3.0549   5.7707
     5.9498   6.1158   6.5512   6.7572   7.1645   7.2267   7.2854   7.3054
     7.3870   7.3927   7.5918   7.8755   8.5170   8.5971   8.7175   8.7819
     8.8289   8.9309

          k =-0.5000 0.2563 0.0000 ( 38154 PWs)   bands (ev):

   -38.4776 -38.3408 -24.2733 -23.2968 -22.9665 -22.8786 -19.3068 -19.0516
   -19.0487 -18.7872 -18.6775 -18.5339 -15.1044 -15.0485 -15.0475 -14.9419
   -14.8249 -14.7780 -14.6460 -14.6286 -14.4768 -14.3080 -14.0856 -14.0617
   -14.0526 -14.0028 -13.7697  -9.7420  -9.6762  -9.4676  -8.8648  -8.7534
    -8.6845  -8.5578  -8.4435  -8.4029  -8.3577  -8.3200  -8.2745  -4.4421
    -3.9069  -3.4496  -2.9405  -2.7321  -2.7125  -2.6387  -2.5670  -2.4389
    -2.4196  -2.3788  -2.3358  -2.2019  -2.1351  -2.1242  -2.0554  -2.0183
    -1.8667  -1.6870  -1.5939  -1.4402  -1.3106  -1.1728  -1.1531  -1.0182
    -0.9925  -0.9614  -0.8789  -0.7181  -0.7067  -0.5943  -0.5930  -0.5769
    -0.4383  -0.3991  -0.3936  -0.2377   0.0632   0.1323   0.2296   0.3158
     0.4318   0.4568   0.4685   0.5540   0.6198   0.8327   0.8655   0.8971
     0.8984   0.9588   0.9662   1.0225   1.0330   1.1375   1.1721   1.1861
     1.1924   1.1976   1.2214   1.3748   1.4022   1.4939   1.5406   1.5850
     1.6004   1.6086   1.6321   1.6572   1.6925   1.8265   2.0196   2.3486
     2.8460   2.8811   3.2900   3.3626   3.5187   3.6524   3.9293   5.1537
     6.0667   6.1515   6.1651   6.2418   6.6732   6.7822   7.3164   7.5473
     7.8083   8.0335   8.0609   8.0991   8.5863   8.6410   8.8599   8.9274
     8.9341   8.9788

          k =-0.5000 0.3844 0.0000 ( 38246 PWs)   bands (ev):

   -38.4721 -38.3339 -24.2374 -23.2566 -22.9263 -22.8389 -19.2810 -19.2714
   -19.0328 -18.9782 -18.5898 -18.5008 -14.9410 -14.8779 -14.8088 -14.7988
   -14.7781 -14.7172 -14.6940 -14.4087 -14.3962 -14.2669 -14.0979 -14.0519
   -14.0235 -13.9201 -13.7324 -10.0732  -9.7547  -9.6799  -9.2442  -8.9788
    -8.9514  -8.8100  -8.7485  -8.6968  -8.5470  -8.3566  -8.3287  -4.9181
    -4.3777  -3.8166  -3.3721  -3.0926  -3.0333  -2.8794  -2.8649  -2.8536
    -2.7655  -2.6832  -2.5647  -2.2866  -2.2315  -2.2045  -2.1847  -2.1572
    -1.7541  -1.6892  -1.6085  -1.5046  -1.4174  -1.3241  -1.3229  -1.0828
    -1.0626  -1.0122  -0.8691  -0.8203  -0.7974  -0.7961  -0.6628  -0.5636
    -0.4467  -0.3571  -0.2821  -0.2537   0.0869   0.1802   0.2993   0.5498
     0.6346   0.7391   0.8165   0.8830   0.9729   1.0056   1.0333   1.0819
     1.1145   1.1256   1.2005   1.2340   1.3148   1.4152   1.4405   1.4464
     1.4637   1.4709   1.5286   1.5576   1.6167   1.6630   1.6936   1.7216
     1.8936   1.8977   1.9228   1.9473   1.9704   2.0602   2.0869   2.6370
     2.7677   2.8042   3.8542   3.9173   4.1817   4.2586   4.4843   4.5576
     5.5401   5.6797   6.3154   6.3934   6.4488   6.4655   7.3359   7.4408
     7.9211   8.0971   8.2915   8.4402   8.5832   8.8381   8.9156   8.9314
     8.9599   9.0547

          k =-0.5000-0.5125 0.0000 ( 38244 PWs)   bands (ev):

   -38.4698 -38.3311 -24.2223 -23.2397 -22.9094 -22.8223 -19.3601 -19.2702
   -19.0520 -19.0250 -18.5515 -18.4812 -14.8836 -14.8708 -14.7826 -14.7371
   -14.7085 -14.6274 -14.6238 -14.3683 -14.3482 -14.3159 -14.0850 -14.0433
   -14.0157 -13.8843 -13.6998 -10.2208  -9.8731  -9.6606  -9.3928  -9.1034
    -9.0968  -8.9577  -8.8142  -8.7435  -8.6552  -8.3575  -8.3222  -5.1063
    -4.5670  -3.9851  -3.6188  -3.2593  -3.1156  -3.1026  -3.0643  -2.9316
    -2.8968  -2.7110  -2.5882  -2.2733  -2.2198  -2.2073  -2.2014  -2.1925
    -1.7780  -1.7725  -1.5910  -1.5032  -1.4372  -1.4027  -1.3008  -1.1299
    -1.1174  -1.0412  -0.9590  -0.9025  -0.8807  -0.7535  -0.6705  -0.5449
    -0.5125  -0.2689  -0.2501  -0.2389   0.1045   0.2232   0.3186   0.5692
     0.7028   0.9316   0.9836   0.9875   1.0320   1.0403   1.1336   1.1668
     1.1737   1.1914   1.2324   1.3447   1.3963   1.4669   1.4874   1.5517
     1.5837   1.6554   1.6653   1.6831   1.7089   1.7289   1.7670   1.8264
     1.8867   2.0174   2.1108   2.1705   2.1864   2.2712   2.2940   2.5905
     2.6314   2.7866   3.9881   4.1333   4.2275   4.3980   4.4854   4.7731
     5.3104   5.4302   6.2587   6.3134   6.4334   6.5825   7.3567   7.3635
     7.9798   8.0349   8.2506   8.3508   8.5787   8.6770   8.7980   8.8131
     8.8654   9.0701

     the Fermi energy is     2.5925 ev

!    total energy              =   -1868.69518964 Ry
     Harris-Foulkes estimate   =   -1868.69518974 Ry
     estimated scf accuracy    <       0.00000058 Ry

     The total energy is the sum of the following terms:

     one-electron contribution =  -24836.33121689 Ry
     hartree contribution      =   12568.47877281 Ry
     xc contribution           =    -642.28536608 Ry
     ewald contribution        =   11041.45122369 Ry
     smearing contrib. (-TS)   =      -0.00860318 Ry

     convergence has been achieved in  38 iterations

     negative rho (up, down):  9.020E-02 0.000E+00

     Forces acting on atoms (cartesian axes, Ry/au):

     atom    1 type  3   force =     0.00000000    0.00000000    0.00002905
     atom    2 type  2   force =     0.00000000    0.00000000    0.00058805
     atom    3 type  3   force =     0.00000000    0.00000000    0.00000230
     atom    4 type  1   force =     0.00000000    0.00000000   -0.00017616
     atom    5 type  2   force =     0.00000000    0.00000000    0.00001688
     atom    6 type  3   force =     0.00000000    0.00000000    0.00051218
     atom    7 type  3   force =     0.00000000    0.00000000    0.00003001
     atom    8 type  4   force =     0.00000000    0.00000000   -0.00087322
     atom    9 type  3   force =     0.00000000    0.00000000    0.00123658
     atom   10 type  3   force =     0.00000000    0.00000000    0.00155549
     atom   11 type  2   force =     0.00000000    0.00000000   -0.00166372
     atom   12 type  1   force =     0.00000000    0.00000000   -0.00521374
     atom   13 type  3   force =     0.00000000    0.00000000    0.00306400
     atom   14 type  3   force =     0.00000000    0.00000000    0.01671091
     atom   15 type  2   force =     0.00000000    0.00000000   -0.01503466
     atom   16 type  3   force =     0.00000000    0.00000000    0.03997081
     atom   17 type  1   force =     0.00000000    0.00000000   -0.03833669
     atom   18 type  2   force =     0.00000000    0.00000000    0.00414979
     atom   19 type  3   force =     0.00000000    0.00000000    0.03287291
     atom   20 type  3   force =     0.00000000    0.00000000    0.02237400
     atom   21 type  4   force =     0.00000000    0.00000000   -0.18513640
     atom   22 type  3   force =     0.00000000    0.00000000    0.04039867
     atom   23 type  3   force =     0.00000000    0.00000000    0.04352041
     atom   24 type  2   force =     0.00000000    0.00000000    0.01018099
     atom   25 type  1   force =     0.00000000    0.00000000    0.03352136
     atom   26 type  3   force =     0.00000000    0.00000000   -0.00447201
     atom   27 type  2   force =     0.00000000    0.00000000    0.00471965
     atom   28 type  3   force =     0.00000000    0.00000000   -0.00454744

     Total force =     0.198612     Total SCF correction =     0.001139


     Computing stress (Cartesian axis) and pressure


     negative rho (up, down):  9.020E-02 0.000E+00
          total   stress  (Ry/bohr**3)                   (kbar)     P=       -2.42
  -0.00006699   0.00000000   0.00000000           -9.85        0.00        0.00
   0.00000000  -0.00000361   0.00000000            0.00       -0.53        0.00
   0.00000000   0.00000000   0.00002131            0.00        0.00        3.14


     BFGS Geometry Optimization

     number of scf cycles    =   1
     number of bfgs steps    =   0

     energy   new            =   -1868.6951896434 Ry

     new trust radius        =       0.1851364029 bohr
     new conv_thr            =       0.0000010000 Ry


ATOMIC_POSITIONS (angstrom)
O             0.0000000000        1.8966400000       -0.1003100000    0   0   0
Cu            0.0000000000        0.0000000000        0.0839000000    0   0   0
O             0.0000000000        0.0000000000        1.9725500000    0   0   0
Ba            1.9441200000        1.8966400000        2.0684200000    0   0   0
Cu            0.0000000000        0.0000000000        4.0810400000    0   0   0
O             1.9441200000        0.0000000000        4.3476700000    0   0   0
O             0.0000000000        1.8966400000        4.3832700000    0   0   0
Y             1.9441200000        1.8966400000        5.8085600000    0   0   0
O             0.0000000000        1.8966400000        7.1922400000    0   0   0
O             1.9441200000        0.0000000000        7.2681800000    0   0   0
Cu            0.0000000000        0.0000000000        7.5500200000    0   0   0
Ba            1.9441200000        1.8966400000        9.5363300000    0   0   0
O             0.0000000000        0.0000000000        9.7608400000    0   0   0
O             0.0000000000        1.8966400000       11.6613130323
Cu            0.0000000000        0.0000000000       11.6445340021
O             0.0000000000        0.0000000000       13.5651816431
Ba            1.9441200000        1.8966400000       13.7482230950
Cu            0.0000000000        0.0000000000       20.7571059763
O             1.9441200000        0.0000000000       21.0540955950
O             0.0000000000        1.8966400000       21.1244098132
Y             1.9441200000        1.8966400000       22.7482900351
O             0.0000000000        1.8966400000       23.9215500000    0   0   0
O             1.9441200000        0.0000000000       23.9572000000    0   0   0
Cu            0.0000000000        0.0000000000       24.2238500000    0   0   0
Ba            1.9441200000        1.8966400000       26.2364100000    0   0   0
O             0.0000000000        0.0000000000       26.3322800000    0   0   0
Cu            0.0000000000        0.0000000000       28.2208200000    0   0   0
O             0.0000000000        1.8966400000       28.4050500000    0   0   0


     NEW-OLD atomic charge density approx. for the potential

     negative rho (up, down):  9.314E-02 0.000E+00

     total cpu time spent up to now is      700.1 secs

     Self-consistent Calculation

     iteration #  1     ecut=    60.00 Ry     beta= 0.20
     Davidson diagonalization with overlap
     c_bands:  2 eigenvalues not converged
     ethr =  1.00E-06,  avg # of iterations =  8.6

     negative rho (up, down):  9.217E-02 0.000E+00

     total cpu time spent up to now is      735.2 secs

     total energy              =   -1868.72919164 Ry
     Harris-Foulkes estimate   =   -1868.73026459 Ry
     estimated scf accuracy    <       0.04815826 Ry

     iteration #  2     ecut=    60.00 Ry     beta= 0.20
     Davidson diagonalization with overlap
     ethr =  2.10E-05,  avg # of iterations =  1.0

     negative rho (up, down):  9.148E-02 0.000E+00

     total cpu time spent up to now is      749.8 secs

     total energy              =   -1868.72953929 Ry
     Harris-Foulkes estimate   =   -1868.72961495 Ry
     estimated scf accuracy    <       0.02190766 Ry

     iteration #  3     ecut=    60.00 Ry     beta= 0.20
     Davidson diagonalization with overlap
     ethr =  9.57E-06,  avg # of iterations =  1.0

     negative rho (up, down):  9.095E-02 0.000E+00

     total cpu time spent up to now is      764.1 secs

     total energy              =   -1868.72963347 Ry
     Harris-Foulkes estimate   =   -1868.72965756 Ry
     estimated scf accuracy    <       0.00702504 Ry

     iteration #  4     ecut=    60.00 Ry     beta= 0.20
     Davidson diagonalization with overlap
     ethr =  3.07E-06,  avg # of iterations =  2.4

     negative rho (up, down):  9.063E-02 0.000E+00

     total cpu time spent up to now is      780.1 secs

     total energy              =   -1868.72985184 Ry
     Harris-Foulkes estimate   =   -1868.72973875 Ry
     estimated scf accuracy    <       0.00269154 Ry

     iteration #  5     ecut=    60.00 Ry     beta= 0.20
     Davidson diagonalization with overlap
     ethr =  1.18E-06,  avg # of iterations =  2.8

     negative rho (up, down):  9.046E-02 0.000E+00

     total cpu time spent up to now is      796.4 secs

     total energy              =   -1868.72985166 Ry
     Harris-Foulkes estimate   =   -1868.72986834 Ry
     estimated scf accuracy    <       0.00207881 Ry

     iteration #  6     ecut=    60.00 Ry     beta= 0.20
     Davidson diagonalization with overlap
     ethr =  9.08E-07,  avg # of iterations =  1.5

     negative rho (up, down):  9.036E-02 0.000E+00

     total cpu time spent up to now is      811.3 secs

     total energy              =   -1868.72989966 Ry
     Harris-Foulkes estimate   =   -1868.72988406 Ry
     estimated scf accuracy    <       0.00149785 Ry

     iteration #  7     ecut=    60.00 Ry     beta= 0.20
     Davidson diagonalization with overlap
     ethr =  6.54E-07,  avg # of iterations =  2.5

     negative rho (up, down):  9.020E-02 0.000E+00

     total cpu time spent up to now is      827.3 secs

     total energy              =   -1868.72996760 Ry
     Harris-Foulkes estimate   =   -1868.72992050 Ry
     estimated scf accuracy    <       0.00042083 Ry

     iteration #  8     ecut=    60.00 Ry     beta= 0.20
     Davidson diagonalization with overlap
     ethr =  1.84E-07,  avg # of iterations =  1.9

     negative rho (up, down):  9.008E-02 0.000E+00

     total cpu time spent up to now is      842.7 secs

     total energy              =   -1868.73000015 Ry
     Harris-Foulkes estimate   =   -1868.72997544 Ry
     estimated scf accuracy    <       0.00035959 Ry

     iteration #  9     ecut=    60.00 Ry     beta= 0.20
     Davidson diagonalization with overlap
     ethr =  1.57E-07,  avg # of iterations =  1.6

     negative rho (up, down):  9.005E-02 0.000E+00

     total cpu time spent up to now is      857.9 secs

     total energy              =   -1868.73002686 Ry
     Harris-Foulkes estimate   =   -1868.73000987 Ry
     estimated scf accuracy    <       0.00009330 Ry

     iteration # 10     ecut=    60.00 Ry     beta= 0.20
     Davidson diagonalization with overlap
     ethr =  4.07E-08,  avg # of iterations =  1.3

     negative rho (up, down):  9.001E-02 0.000E+00

     total cpu time spent up to now is      873.4 secs

     total energy              =   -1868.73004208 Ry
     Harris-Foulkes estimate   =   -1868.73002981 Ry
     estimated scf accuracy    <       0.00005636 Ry

     iteration # 11     ecut=    60.00 Ry     beta= 0.20
     Davidson diagonalization with overlap
     ethr =  2.46E-08,  avg # of iterations =  1.6

     negative rho (up, down):  9.001E-02 0.000E+00

     total cpu time spent up to now is      888.6 secs

     total energy              =   -1868.73005156 Ry
     Harris-Foulkes estimate   =   -1868.73004435 Ry
     estimated scf accuracy    <       0.00003885 Ry

     iteration # 12     ecut=    60.00 Ry     beta= 0.20
     Davidson diagonalization with overlap
     ethr =  1.70E-08,  avg # of iterations =  1.0

     negative rho (up, down):  9.005E-02 0.000E+00

     total cpu time spent up to now is      903.2 secs

     total energy              =   -1868.73005614 Ry
     Harris-Foulkes estimate   =   -1868.73005218 Ry
     estimated scf accuracy    <       0.00003334 Ry

     iteration # 13     ecut=    60.00 Ry     beta= 0.20
     Davidson diagonalization with overlap
     ethr =  1.46E-08,  avg # of iterations =  1.2

     negative rho (up, down):  9.009E-02 0.000E+00

     total cpu time spent up to now is      917.7 secs

     total energy              =   -1868.73005955 Ry
     Harris-Foulkes estimate   =   -1868.73005692 Ry
     estimated scf accuracy    <       0.00001833 Ry

     iteration # 14     ecut=    60.00 Ry     beta= 0.20
     Davidson diagonalization with overlap
     ethr =  8.00E-09,  avg # of iterations =  1.0

     negative rho (up, down):  9.013E-02 0.000E+00

     total cpu time spent up to now is      932.2 secs

     total energy              =   -1868.73006158 Ry
     Harris-Foulkes estimate   =   -1868.73005989 Ry
     estimated scf accuracy    <       0.00000933 Ry

     iteration # 15     ecut=    60.00 Ry     beta= 0.20
     Davidson diagonalization with overlap
     ethr =  4.07E-09,  avg # of iterations =  1.7

     negative rho (up, down):  9.015E-02 0.000E+00

     total cpu time spent up to now is      947.2 secs

     total energy              =   -1868.73006327 Ry
     Harris-Foulkes estimate   =   -1868.73006178 Ry
     estimated scf accuracy    <       0.00000672 Ry

     iteration # 16     ecut=    60.00 Ry     beta= 0.20
     Davidson diagonalization with overlap
     ethr =  2.93E-09,  avg # of iterations =  1.0

     negative rho (up, down):  9.020E-02 0.000E+00

     total cpu time spent up to now is      961.7 secs

     total energy              =   -1868.73006413 Ry
     Harris-Foulkes estimate   =   -1868.73006333 Ry
     estimated scf accuracy    <       0.00000465 Ry

     iteration # 17     ecut=    60.00 Ry     beta= 0.20
     Davidson diagonalization with overlap
     ethr =  2.03E-09,  avg # of iterations =  1.0

     negative rho (up, down):  9.021E-02 0.000E+00

     total cpu time spent up to now is      976.1 secs

     total energy              =   -1868.73006487 Ry
     Harris-Foulkes estimate   =   -1868.73006420 Ry
     estimated scf accuracy    <       0.00000347 Ry

     iteration # 18     ecut=    60.00 Ry     beta= 0.20
     Davidson diagonalization with overlap
     ethr =  1.51E-09,  avg # of iterations =  1.0

     negative rho (up, down):  9.024E-02 0.000E+00

     total cpu time spent up to now is      990.6 secs

     total energy              =   -1868.73006523 Ry
     Harris-Foulkes estimate   =   -1868.73006492 Ry
     estimated scf accuracy    <       0.00000226 Ry

     iteration # 19     ecut=    60.00 Ry     beta= 0.20
     Davidson diagonalization with overlap
     ethr =  9.86E-10,  avg # of iterations =  1.0

     negative rho (up, down):  9.036E-02 0.000E+00

     total cpu time spent up to now is     1004.5 secs

     End of self-consistent calculation

          k = 0.0000 0.0000 0.0000 ( 37989 PWs)   bands (ev):

   -38.5316 -38.2748 -24.3031 -23.3825 -23.1816 -23.1167 -19.0665 -18.9254
   -18.5358 -18.5265 -18.3350 -18.3249 -15.8608 -15.6939 -15.1433 -15.0882
   -14.9018 -14.7201 -14.6656 -14.6460 -14.4320 -14.3848 -14.1903 -14.1636
   -14.0011 -13.9274 -13.5656  -9.6266  -9.1385  -9.1159  -8.6578  -8.4144
    -8.3833  -8.3554  -8.3321  -8.1738  -8.1472  -8.0704  -8.0474  -2.6974
    -2.6788  -2.4893  -2.4549  -2.3475  -2.3214  -2.2651  -2.2305  -2.1986
    -2.1975  -2.1241  -1.6387  -1.5046  -1.3510  -1.3123  -1.2914  -0.9179
    -0.8684  -0.8631  -0.8503  -0.7815  -0.5160  -0.5126  -0.4742  -0.4720
    -0.4376  -0.3361  -0.3332  -0.3179  -0.3077  -0.2724  -0.2717  -0.1747
    -0.1572  -0.1223  -0.1169  -0.0634  -0.0337  -0.0212  -0.0080   0.0039
     0.1256   0.1404   0.1444   0.1544   0.1693   0.2348   0.2572   0.4168
     0.5067   0.5519   0.6390   0.6739   0.7623   0.8067   0.8236   0.8611
     0.8971   0.9490   0.9540   0.9929   1.0710   1.0821   1.0980   1.1374
     1.3303   1.4296   1.5042   1.5478   1.5805   1.7132   1.7790   1.7954
     1.9209   1.9303   1.9896   2.0415   2.1021   2.2302   2.2647   3.9742
     4.8332   4.8729   5.0323   5.4243   5.5792   5.9794   6.1383   6.2750
     6.5122   6.8472   7.1615   7.3945   7.4071   7.7678   7.7683   7.9101
     7.9507   8.1936

          k = 0.0000 0.1281 0.0000 ( 38019 PWs)   bands (ev):

   -38.5293 -38.2721 -24.2850 -23.3611 -23.1600 -23.0960 -19.0305 -18.9112
   -18.6309 -18.5326 -18.4353 -18.3315 -15.7519 -15.6046 -15.0967 -15.0365
   -14.9103 -14.7346 -14.6752 -14.6153 -14.4307 -14.4100 -14.1938 -14.1689
   -14.0635 -14.0012 -13.5967  -9.6100  -9.1487  -9.0827  -8.6402  -8.3970
    -8.3721  -8.3510  -8.3148  -8.1667  -8.1326  -8.0675  -8.0317  -2.8811
    -2.6650  -2.5893  -2.5645  -2.4398  -2.3158  -2.2664  -2.2154  -2.1690
    -2.1293  -2.1086  -1.8698  -1.8583  -1.4961  -1.3973  -1.3829  -1.3070
    -1.2556  -1.2358  -0.8387  -0.8367  -0.7918  -0.7430  -0.6906  -0.6866
    -0.5874  -0.5626  -0.5260  -0.5258  -0.5065  -0.4184  -0.3153  -0.1583
    -0.1544  -0.1146  -0.1102   0.0076   0.0362   0.0748   0.0928   0.1215
     0.1403   0.1451   0.1898   0.2187   0.3488   0.3697   0.4294   0.4433
     0.5116   0.5128   0.5354   0.6297   0.7140   0.7386   0.7453   0.9095
     0.9338   1.0585   1.0708   1.1048   1.1220   1.1643   1.2404   1.2677
     1.3181   1.4296   1.4961   1.5566   1.5864   1.6061   1.7073   1.7307
     1.7952   1.9383   2.0324   2.3574   2.4731   2.5454   2.5962   4.1635
     5.2078   5.2434   5.3086   5.7020   5.8406   6.1696   6.4598   6.5904
     6.7291   7.0616   7.3621   7.4982   7.6651   7.7073   7.8796   7.9249
     8.1031   8.1128

          k = 0.0000 0.2563 0.0000 ( 38042 PWs)   bands (ev):

   -38.5237 -38.2657 -24.2405 -23.3085 -23.1069 -23.0449 -18.9394 -18.9312
   -18.8559 -18.6073 -18.5248 -18.3229 -15.5036 -15.4300 -14.9874 -14.9862
   -14.9732 -14.7557 -14.7337 -14.5501 -14.4960 -14.3225 -14.2280 -14.1698
   -14.1666 -14.1459 -13.6721  -9.5656  -9.1715  -9.0003  -8.5994  -8.3890
    -8.3592  -8.3396  -8.2132  -8.2077  -8.1113  -8.0294  -7.9349  -3.2600
    -3.0197  -2.9048  -2.7867  -2.5656  -2.4582  -2.4148  -2.3054  -2.2980
    -2.1973  -2.1530  -2.1441  -2.0688  -2.0557  -2.0373  -1.6985  -1.5296
    -1.3992  -1.2842  -1.1831  -1.1407  -1.0951  -1.0631  -0.9828  -0.8898
    -0.8048  -0.7967  -0.7541  -0.7326  -0.6933  -0.5826  -0.4642  -0.4540
    -0.4015  -0.3325  -0.2847  -0.2741  -0.0845  -0.0221   0.0366   0.1417
     0.1644   0.1755   0.1834   0.1942   0.2778   0.3592   0.5434   0.6469
     0.7161   0.7478   0.7710   0.7816   0.8576   0.9330   0.9577   1.0535
     1.0611   1.1031   1.1114   1.1504   1.2071   1.2207   1.3131   1.3275
     1.4087   1.4167   1.4704   1.5465   1.6575   1.7686   1.8392   1.8544
     1.8583   1.9848   2.2066   2.4510   2.8476   2.8784   3.3040   4.6555
     6.0005   6.0885   6.1409   6.3853   6.4861   6.5574   7.0493   7.3405
     7.4474   7.5574   7.5772   7.7166   7.8155   7.9137   8.1320   8.1882
     8.3148   8.4068

          k = 0.0000 0.3844 0.0000 ( 37942 PWs)   bands (ev):

   -38.5181 -38.2593 -24.1951 -23.2544 -23.0524 -22.9925 -19.0680 -19.0537
   -18.8412 -18.6217 -18.5170 -18.3143 -15.2825 -15.2532 -15.1292 -15.0735
   -14.8509 -14.8016 -14.7491 -14.5290 -14.4966 -14.4325 -14.2946 -14.1402
   -14.1102 -14.0870 -13.7773  -9.5128  -9.1953  -8.9147  -8.5610  -8.4177
    -8.3249  -8.3001  -8.2407  -8.1515  -8.1059  -7.9204  -7.8332  -3.6119
    -3.5373  -3.3737  -3.1512  -2.9965  -2.9709  -2.6297  -2.3933  -2.3533
    -2.3228  -2.2493  -2.2035  -2.1673  -2.0910  -1.9789  -1.9611  -1.7971
    -1.4572  -1.3584  -1.3530  -1.2473  -1.2244  -1.1935  -1.1527  -1.1226
    -1.1087  -1.0351  -0.9955  -0.8386  -0.7402  -0.7295  -0.7093  -0.6977
    -0.6728  -0.5013  -0.4901  -0.4566  -0.3181  -0.2277  -0.0403   0.0215
     0.1557   0.1696   0.1879   0.2180   0.2655   0.5109   0.5735   0.6407
     0.7956   0.8414   0.8663   0.8740   0.9826   0.9882   0.9973   1.0548
     1.0692   1.1416   1.1456   1.1763   1.2964   1.3357   1.4983   1.5735
     1.5893   1.7057   1.7132   1.7440   1.8227   1.8495   1.9026   2.0360
     2.1893   2.2507   2.2659   2.3410   2.8201   2.8509   3.8432   5.3064
[...]
    -2.4072  -2.3382  -2.3132  -2.2085  -2.2050  -2.1690  -2.0594  -2.0333
    -1.7602  -1.7230  -1.5968  -1.4645  -1.2819  -1.2393  -1.1417  -1.0946
    -1.0450  -0.9890  -0.8511  -0.7365  -0.6870  -0.6351  -0.6348  -0.6085
    -0.4656  -0.4387  -0.3719  -0.0457  -0.0168   0.0254   0.2409   0.2932
     0.3198   0.4318   0.4453   0.5136   0.5140   0.6186   0.8158   0.8577
     0.8599   0.9073   0.9546   0.9679   0.9946   1.0509   1.0734   1.0924
     1.1305   1.2131   1.2166   1.2295   1.2738   1.2770   1.3383   1.4235
     1.5259   1.5425   1.5802   1.6002   1.6244   1.7285   1.7612   1.7693
     2.8016   2.8128   3.2203   3.3231   3.4198   3.4690   3.5842   5.1572
     6.2006   6.2323   6.2456   6.6552   6.7282   7.1995   7.3627   7.7108
     7.9181   7.9503   8.1602   8.3039   8.5282   8.5878   8.7511   8.7992
     8.9540   9.0630

          k = 0.3750 0.3844 0.0000 ( 38213 PWs)   bands (ev):

   -38.5661 -38.0910 -23.6196 -23.0710 -23.0228 -22.9249 -19.0781 -19.0525
   -18.7169 -18.6894 -18.6553 -18.2211 -15.0136 -14.9882 -14.8961 -14.8408
   -14.8048 -14.6315 -14.6312 -14.5583 -14.4614 -14.2592 -14.1944 -14.1118
   -14.1110 -13.9949 -13.9832  -9.4537  -9.1931  -9.0311  -8.9843  -8.9062
    -8.8947  -8.6205  -8.5786  -8.5339  -8.4975  -8.4205  -8.3039  -4.3056
    -4.0413  -3.7671  -3.5462  -3.4582  -2.9607  -2.9586  -2.7344  -2.7114
    -2.6253  -2.6242  -2.4315  -2.4259  -2.3144  -2.3017  -2.2091  -2.1615
    -1.9044  -1.7102  -1.5811  -1.4313  -1.3564  -1.3556  -1.2331  -1.1867
    -1.1285  -1.0370  -0.9519  -0.8649  -0.8455  -0.7830  -0.7128  -0.6093
    -0.5580  -0.4150  -0.4017  -0.0466   0.0362   0.1015   0.3791   0.4641
     0.5580   0.7059   0.7093   0.7674   0.8738   0.9873   1.0017   1.0336
     1.0688   1.1113   1.1903   1.2057   1.2499   1.2843   1.2893   1.3499
     1.3752   1.4078   1.4522   1.4886   1.4911   1.5228   1.5535   1.5930
     1.6040   1.6444   1.6476   1.8455   1.8610   1.9441   2.0430   2.0436
     2.7242   2.7305   3.7109   3.8702   3.9685   3.9794   4.0875   4.5662
     5.8362   5.8751   6.3411   6.3656   6.7558   7.2488   7.7151   7.8264
     8.1829   8.3695   8.4799   8.5293   8.5974   8.8046   8.9323   8.9598
     9.0741   9.2148

          k = 0.3750-0.5125 0.0000 ( 38222 PWs)   bands (ev):

   -38.5638 -38.0886 -23.6034 -23.0537 -23.0050 -22.9070 -19.1504 -19.0471
   -18.7661 -18.6778 -18.6499 -18.1813 -15.0117 -14.9094 -14.8829 -14.7766
   -14.7491 -14.6216 -14.6016 -14.5552 -14.4423 -14.2805 -14.1365 -14.0994
   -14.0993 -13.9931 -13.9244  -9.5367  -9.2246  -9.1014  -9.0634  -9.0336
    -8.9737  -8.7757  -8.7035  -8.6894  -8.4947  -8.4141  -8.2984  -4.4863
    -4.2246  -3.9378  -3.7849  -3.6291  -3.1996  -3.1967  -2.8536  -2.7495
    -2.6450  -2.6364  -2.5687  -2.4423  -2.3100  -2.2968  -2.2575  -2.1571
    -1.9542  -1.7504  -1.5983  -1.5000  -1.4020  -1.3207  -1.2404  -1.2359
    -1.1527  -1.0632  -1.0416  -0.9416  -0.9272  -0.7862  -0.7634  -0.6198
    -0.5362  -0.3822  -0.3773  -0.0392   0.0525   0.1399   0.3914   0.5072
     0.6682   0.7748   0.8466   0.8996   1.0046   1.0372   1.1335   1.1418
     1.1503   1.1985   1.2508   1.2941   1.3657   1.3898   1.3942   1.4241
     1.4524   1.4947   1.4987   1.5516   1.5560   1.5658   1.5875   1.6476
     1.6798   1.8038   1.8136   1.9032   2.0843   2.0847   2.2382   2.2395
     2.5550   2.5598   3.8572   4.0337   4.1314   4.1492   4.2517   4.3251
     5.6388   5.6740   6.2344   6.2756   7.0643   7.2079   7.6093   7.9527
     8.4200   8.4543   8.4951   8.7401   8.8019   8.8287   8.9183   9.0266
     9.1431   9.1991

          k =-0.5000 0.0000 0.0000 ( 38122 PWs)   bands (ev):

   -38.5776 -38.1032 -23.6939 -23.1512 -23.1043 -23.0063 -19.1696 -18.8842
   -18.7790 -18.5676 -18.4058 -18.1184 -15.4910 -15.3211 -15.2060 -15.1129
   -15.0636 -14.8383 -14.7649 -14.6806 -14.4908 -14.3694 -14.2692 -14.1927
   -14.1756 -14.0584 -13.9923  -9.3174  -8.5397  -8.4753  -8.4735  -8.3638
    -8.3559  -8.0539  -8.0388  -7.9631  -7.9538  -7.9520  -7.8582  -3.3869
    -3.2326  -3.2093  -2.9134  -2.4434  -2.4233  -2.2012  -2.1219  -2.1191
    -1.9305  -1.8709  -1.8607  -1.7414  -1.6613  -1.5847  -1.5171  -1.4773
    -1.3514  -1.3041  -1.1838  -1.1732  -1.1311  -1.1134  -1.1012  -1.0768
    -1.0755  -1.0525  -0.8984  -0.8851  -0.8749  -0.6688  -0.5904  -0.5624
    -0.4247  -0.4222  -0.4172  -0.3306  -0.0567  -0.0328   0.0284   0.0331
     0.0347   0.0457   0.1560   0.2027   0.2889   0.3130   0.3203   0.3658
     0.3681   0.3764   0.4840   0.7293   0.7846   0.8165   0.8361   0.9275
     0.9768   0.9828   1.0029   1.0700   1.0759   1.1238   1.1250   1.1922
     1.4091   1.4234   1.4383   1.4676   1.4762   1.5819   1.7248   1.8067
     1.8545   1.8594   2.0552   2.1949   2.2116   2.5101   2.5120   5.8048
     6.7136   6.7595   6.8543   6.9077   6.9577   6.9579   7.1158   7.5841
     7.6641   7.8144   7.9820   8.2203   8.2526   8.4445   8.6791   8.7326
     8.7795   8.7952

          k =-0.5000 0.1281 0.0000 ( 38100 PWs)   bands (ev):

   -38.5753 -38.1008 -23.6790 -23.1354 -23.0881 -22.9901 -19.1618 -18.8518
   -18.7708 -18.6652 -18.3785 -18.2210 -15.4237 -15.2720 -15.1502 -15.0218
   -14.9969 -14.8052 -14.6492 -14.6471 -14.5574 -14.3367 -14.2383 -14.1744
   -14.1588 -14.1100 -13.9856  -9.2989  -8.6779  -8.5350  -8.5024  -8.4704
    -8.3532  -8.1765  -8.1737  -8.1666  -8.1619  -8.0891  -8.0697  -3.5416
    -3.3246  -3.2952  -2.9838  -2.4635  -2.4256  -2.3529  -2.1989  -2.1816
    -2.1134  -2.0158  -1.9971  -1.9796  -1.8618  -1.8476  -1.7682  -1.6950
    -1.4837  -1.4351  -1.4330  -1.4254  -1.3351  -1.1917  -1.0495  -1.0463
    -1.0335  -0.9579  -0.9459  -0.8908  -0.8325  -0.5873  -0.4957  -0.3941
    -0.3546  -0.3155  -0.2695  -0.1411  -0.0555  -0.0379  -0.0110  -0.0044
     0.0374   0.1836   0.2410   0.3322   0.3361   0.3856   0.4388   0.5283
     0.5381   0.5413   0.6704   0.7226   0.7701   0.8217   0.9210   0.9449
     1.0030   1.0093   1.0241   1.0284   1.1349   1.1492   1.1827   1.1831
     1.3672   1.4228   1.4622   1.5247   1.5694   1.6822   1.6968   1.8429
     2.4479   2.4797   2.5041   2.5690   2.6134   2.8160   2.8729   5.6295
     6.6326   6.6753   6.7234   6.7769   7.0752   7.1850   7.2123   7.3036
     7.3338   7.9272   7.9913   8.3148   8.5501   8.5933   8.7917   8.8015
     8.8700   8.8759

          k =-0.5000 0.2563 0.0000 ( 38154 PWs)   bands (ev):

   -38.5698 -38.0950 -23.6425 -23.0967 -23.0487 -22.9507 -19.1431 -18.8792
   -18.7701 -18.7509 -18.4783 -18.2720 -15.2432 -15.1477 -15.0018 -14.9115
   -14.7387 -14.7266 -14.7207 -14.5661 -14.4814 -14.2652 -14.1620 -14.1527
   -14.1348 -14.1231 -13.9735  -9.2562  -9.1197  -8.8280  -8.6419  -8.6316
    -8.5476  -8.4940  -8.4852  -8.4577  -8.4393  -8.4004  -8.3225  -3.9953
    -3.7322  -3.5387  -3.2246  -2.8877  -2.6513  -2.5320  -2.5250  -2.4684
    -2.4177  -2.4108  -2.3304  -2.2099  -2.2065  -2.1817  -2.1655  -2.1440
    -1.8219  -1.6822  -1.5934  -1.4367  -1.2549  -1.2395  -1.0873  -1.0525
    -1.0434  -1.0379  -0.8465  -0.7934  -0.7092  -0.6601  -0.6587  -0.6175
    -0.4755  -0.4414  -0.4107  -0.0196  -0.0169   0.1033   0.2766   0.3442
     0.3861   0.5120   0.5246   0.5381   0.5452   0.7749   0.8490   0.8972
     0.9346   0.9568   0.9745   0.9976   1.0917   1.0923   1.1067   1.1183
     1.1381   1.1445   1.1821   1.2139   1.2764   1.3147   1.4718   1.5062
     1.5368   1.5492   1.5688   1.6126   1.6281   1.6469   1.7458   1.8052
     2.7985   2.8070   3.2192   3.4333   3.5255   3.5645   3.6696   4.9534
     6.1592   6.2024   6.5767   6.5913   6.7453   7.0535   7.5001   8.0106
     8.0171   8.1868   8.2072   8.3216   8.5616   8.7010   8.8948   8.9987
     9.0358   9.0592

          k =-0.5000 0.3844 0.0000 ( 38246 PWs)   bands (ev):

   -38.5643 -38.0891 -23.6055 -23.0573 -23.0085 -22.9105 -19.1244 -19.0701
   -18.7309 -18.6825 -18.6803 -18.1865 -15.0387 -14.9986 -14.8910 -14.8178
   -14.7780 -14.6611 -14.5528 -14.5011 -14.4884 -14.2345 -14.1057 -14.1053
   -14.0764 -13.9886 -13.9537  -9.5207  -9.2052  -9.1454  -9.0337  -9.0063
    -8.9431  -8.7791  -8.7205  -8.6938  -8.4981  -8.4329  -8.3169  -4.4661
    -4.1979  -3.9060  -3.5932  -3.5370  -2.9506  -2.9468  -2.8556  -2.7666
    -2.6654  -2.6525  -2.5662  -2.4680  -2.3135  -2.3036  -2.2449  -2.1550
    -1.9410  -1.6975  -1.5026  -1.4130  -1.4071  -1.2800  -1.2757  -1.1451
    -1.1289  -1.1062  -0.9607  -0.8824  -0.8792  -0.7479  -0.7283  -0.6719
    -0.5460  -0.3640  -0.3592  -0.0479   0.1084   0.1689   0.4191   0.5565
     0.7173   0.8216   0.9272   0.9456   0.9860   1.0206   1.0552   1.1089
     1.1416   1.1506   1.2245   1.2607   1.3180   1.3240   1.4136   1.4204
     1.4300   1.4446   1.4657   1.4875   1.5327   1.5349   1.5413   1.6201
     1.6934   1.7428   1.8330   1.8538   1.8623   1.8908   2.0051   2.0072
     2.7224   2.7254   3.7059   4.0951   4.1736   4.1995   4.2780   4.2846
     5.5977   5.6370   6.2282   6.2575   6.9964   7.1684   7.8173   7.9131
     8.2885   8.4230   8.4847   8.5637   8.6609   8.8759   8.8970   9.0718
     9.1399   9.1731

          k =-0.5000-0.5125 0.0000 ( 38244 PWs)   bands (ev):

   -38.5621 -38.0867 -23.5899 -23.0408 -22.9916 -22.8936 -19.1439 -19.1166
   -18.7592 -18.7227 -18.6442 -18.1473 -14.9745 -14.9630 -14.8905 -14.7094
   -14.6914 -14.6751 -14.6125 -14.4598 -14.4082 -14.2555 -14.1011 -14.0975
   -14.0433 -13.9349 -13.8983  -9.6733  -9.2757  -9.1858  -9.1853  -9.1546
    -9.0955  -8.8965  -8.8240  -8.8110  -8.4967  -8.4277  -8.3135  -4.6553
    -4.3884  -4.0746  -3.7805  -3.7643  -3.1889  -3.1845  -2.9872  -2.7943
    -2.7031  -2.6959  -2.6757  -2.4901  -2.3017  -2.2923  -2.2798  -2.1458
    -1.9811  -1.7368  -1.5243  -1.4844  -1.3892  -1.3761  -1.2263  -1.2007
    -1.1730  -1.1342  -1.0494  -0.9644  -0.9625  -0.7768  -0.7114  -0.7085
    -0.5312  -0.3208  -0.3206  -0.0388   0.1560   0.1919   0.4350   0.6302
     0.9344   0.9414   1.0226   1.0556   1.1055   1.1338   1.1439   1.1684
     1.1719   1.1957   1.3222   1.3237   1.3782   1.4443   1.5513   1.5542
     1.5548   1.5710   1.5791   1.6016   1.6053   1.6075   1.6499   1.6595
     1.6831   1.9256   1.9628   2.0323   2.1027   2.1046   2.2110   2.2122
     2.5501   2.5506   3.8477   4.0020   4.3109   4.4011   4.4182   4.5120
     5.3482   5.3842   6.0987   6.1585   7.0569   7.2011   7.8272   8.0191
     8.2399   8.5159   8.5614   8.5981   8.6549   8.7105   8.7914   8.8058
     8.9756   9.1678

     the Fermi energy is     2.5103 ev

!    total energy              =   -1868.78421318 Ry
     Harris-Foulkes estimate   =   -1868.78421317 Ry
     estimated scf accuracy    <          6.5E-09 Ry

     The total energy is the sum of the following terms:

     one-electron contribution =  -24952.75770668 Ry
     hartree contribution      =   12626.76934066 Ry
     xc contribution           =    -642.25959061 Ry
     ewald contribution        =   11099.47231793 Ry
     smearing contrib. (-TS)   =      -0.00857448 Ry

     convergence has been achieved in  10 iterations

     negative rho (up, down):  9.054E-02 0.000E+00

     Forces acting on atoms (cartesian axes, Ry/au):

     atom    1 type  3   force =     0.00000000    0.00000000    0.00002588
     atom    2 type  2   force =     0.00000000    0.00000000   -0.00016877
     atom    3 type  3   force =     0.00000000    0.00000000    0.00001908
     atom    4 type  1   force =     0.00000000    0.00000000   -0.00019645
     atom    5 type  2   force =     0.00000000    0.00000000   -0.00012326
     atom    6 type  3   force =     0.00000000    0.00000000    0.00073707
     atom    7 type  3   force =     0.00000000    0.00000000    0.00013207
     atom    8 type  4   force =     0.00000000    0.00000000   -0.00167955
     atom    9 type  3   force =     0.00000000    0.00000000    0.00248257
     atom   10 type  3   force =     0.00000000    0.00000000    0.00281551
     atom   11 type  2   force =     0.00000000    0.00000000   -0.00286823
     atom   12 type  1   force =     0.00000000    0.00000000   -0.01000738
     atom   13 type  3   force =     0.00000000    0.00000000    0.00982528
     atom   14 type  3   force =     0.00000000    0.00000000    0.00000081
     atom   15 type  2   force =     0.00000000    0.00000000    0.00003954
     atom   16 type  3   force =     0.00000000    0.00000000   -0.00008765
     atom   17 type  1   force =     0.00000000    0.00000000   -0.00004808
     atom   18 type  2   force =     0.00000000    0.00000000   -0.00000811
     atom   19 type  3   force =     0.00000000    0.00000000    0.00000551
     atom   20 type  3   force =     0.00000000    0.00000000    0.00000707
     atom   21 type  4   force =     0.00000000    0.00000000    0.00001809
     atom   22 type  3   force =     0.00000000    0.00000000    0.00028389
     atom   23 type  3   force =     0.00000000    0.00000000    0.00495314
     atom   24 type  2   force =     0.00000000    0.00000000    0.00066767
     atom   25 type  1   force =     0.00000000    0.00000000   -0.00865243
     atom   26 type  3   force =     0.00000000    0.00000000    0.00225713
     atom   27 type  2   force =     0.00000000    0.00000000   -0.00183728
     atom   28 type  3   force =     0.00000000    0.00000000    0.00140689

     Total force =     0.000110     Total SCF correction =     0.000220
     SCF correction compared to forces is large: reduce conv_thr to get better values


     Computing stress (Cartesian axis) and pressure


     negative rho (up, down):  9.054E-02 0.000E+00
          total   stress  (Ry/bohr**3)                   (kbar)     P=       -4.65
  -0.00006042   0.00000000   0.00000000           -8.89        0.00        0.00
   0.00000000  -0.00002305   0.00000000            0.00       -3.39        0.00
   0.00000000   0.00000000  -0.00001128            0.00        0.00       -1.66


     bfgs converged in  25 scf cycles and  20 bfgs steps
     (criteria: energy <  1.0E-05 Ry, force <  1.0E-04 Ry/Bohr)

     End of BFGS Geometry Optimization

     Final energy   =   -1868.7842131765 Ry
Begin final coordinates

ATOMIC_POSITIONS (angstrom)
O             0.0000000000        1.8966400000       -0.1003100000    0   0   0
Cu            0.0000000000        0.0000000000        0.0839000000    0   0   0
O             0.0000000000        0.0000000000        1.9725500000    0   0   0
Ba            1.9441200000        1.8966400000        2.0684200000    0   0   0
Cu            0.0000000000        0.0000000000        4.0810400000    0   0   0
O             1.9441200000        0.0000000000        4.3476700000    0   0   0
O             0.0000000000        1.8966400000        4.3832700000    0   0   0
Y             1.9441200000        1.8966400000        5.8085600000    0   0   0
O             0.0000000000        1.8966400000        7.1922400000    0   0   0
O             1.9441200000        0.0000000000        7.2681800000    0   0   0
Cu            0.0000000000        0.0000000000        7.5500200000    0   0   0
Ba            1.9441200000        1.8966400000        9.5363300000    0   0   0
O             0.0000000000        0.0000000000        9.7608400000    0   0   0
O             0.0000000000        1.8966400000       11.7372036803
Cu            0.0000000000        0.0000000000       11.6690211929
O             0.0000000000        0.0000000000       13.6107303053
Ba            1.9441200000        1.8966400000       13.6141630558
Cu            0.0000000000        0.0000000000       20.7699829017
O             1.9441200000        0.0000000000       21.0809624873
O             0.0000000000        1.8966400000       21.1206018388
Y             1.9441200000        1.8966400000       22.4071234952
O             0.0000000000        1.8966400000       23.9215500000    0   0   0
O             1.9441200000        0.0000000000       23.9572000000    0   0   0
Cu            0.0000000000        0.0000000000       24.2238500000    0   0   0
Ba            1.9441200000        1.8966400000       26.2364100000    0   0   0
O             0.0000000000        0.0000000000       26.3322800000    0   0   0
Cu            0.0000000000        0.0000000000       28.2208200000    0   0   0
O             0.0000000000        1.8966400000       28.4050500000    0   0   0
End final coordinates


 
     init_run     :      8.89s CPU      9.19s WALL (       1 calls)
     electrons    :  12019.10s CPU  12544.04s WALL (      63 calls)
     update_pot   :    115.04s CPU    115.78s WALL (      62 calls)
     forces       :    244.47s CPU    256.54s WALL (      63 calls)
     stress       :   1354.22s CPU   1387.13s WALL (      63 calls)

     Called by init_run:
     wfcinit      :      6.32s CPU      6.42s WALL (       1 calls)
     potinit      :      0.66s CPU      0.67s WALL (       1 calls)
     hinit0       :      0.99s CPU      0.99s WALL (       1 calls)

     Called by electrons:
     c_bands      :   9025.25s CPU   9281.26s WALL (     821 calls)
     sum_band     :   2054.76s CPU   2201.65s WALL (     821 calls)
     v_of_rho     :     67.32s CPU     68.19s WALL (     858 calls)
     newd         :    500.63s CPU    626.11s WALL (     858 calls)
     mix_rho      :    406.11s CPU    409.90s WALL (     821 calls)

     Called by c_bands:
     init_us_2    :     87.49s CPU     88.93s WALL (   44225 calls)
     cegterg      :   8419.32s CPU   8662.87s WALL (   20525 calls)

     Called by sum_band:
     sum_band:bec :      5.43s CPU      5.47s WALL (   20525 calls)
     addusdens    :    569.57s CPU    699.37s WALL (     821 calls)

     Called by *egterg:
     h_psi        :   4949.55s CPU   5121.10s WALL (   52086 calls)
     s_psi        :    469.21s CPU    473.17s WALL (   52086 calls)
     g_psi        :     15.21s CPU     15.32s WALL (   31536 calls)
     cdiaghg      :   1275.46s CPU   1281.89s WALL (   49861 calls)

     Called by h_psi:
     h_psi:calbec :    534.16s CPU    559.68s WALL (   52086 calls)
     vloc_psi     :   3913.49s CPU   3977.60s WALL (   52086 calls)
     add_vuspsi   :    481.01s CPU    524.10s WALL (   52086 calls)

     General routines
     calbec       :   1215.69s CPU   1243.55s WALL (   80486 calls)
     fft          :     66.25s CPU     66.64s WALL (   12691 calls)
     ffts         :    228.06s CPU    230.17s WALL (  370689 calls)
     fftw         :   4530.15s CPU   4602.88s WALL (14413928 calls)
     interpolate  :      3.98s CPU      4.01s WALL (     858 calls)
 
     Parallel routines
     fft_scatt_xy :    594.45s CPU    602.76s WALL (14797308 calls)
     fft_scatt_yz :   2824.33s CPU   2868.63s WALL (14797308 calls)
 
     PWSCF        :      3h49m CPU      3h59m WALL

 
   This run was terminated on:  14:57:18   2May2021            

=------------------------------------------------------------------------------=
   JOB DONE.
=------------------------------------------------------------------------------=
[1619981838.556907] [holy7c02602:218101:0]          mpool.c:43   UCX  WARN  object 0x2cf8a00 was not returned to mpool ucp_requests
[1619981838.557457] [holy7c02502:241409:0]          mpool.c:43   UCX  WARN  object 0x4019c80 was not returned to mpool ucp_requests
[1619981838.557205] [holy7c04104:238428:0]          mpool.c:43   UCX  WARN  object 0x421efc0 was not returned to mpool ucp_requests
[1619981838.546889] [holy7c04102:253438:0]          mpool.c:43   UCX  WARN  object 0x2f6d4c0 was not returned to mpool ucp_requests
[1619981838.546909] [holy7c04102:253438:0]          mpool.c:43   UCX  WARN  object 0x2f6da00 was not returned to mpool ucp_requests
[1619981838.557771] [holy7c02502:241408:0]          mpool.c:43   UCX  WARN  object 0x45af240 was not returned to mpool ucp_requests
[1619981838.557429] [holy7c02502:241413:0]          mpool.c:43   UCX  WARN  object 0x2929700 was not returned to mpool ucp_requests
[1619981838.557455] [holy7c02502:241413:0]          mpool.c:43   UCX  WARN  object 0x2929c40 was not returned to mpool ucp_requests
[1619981838.558111] [holy7c04104:238429:0]          mpool.c:43   UCX  WARN  object 0x3b0b580 was not returned to mpool ucp_requests
