
     Program PWSCF v.6.5 starts on  1May2021 at 13:52:29 

     This program is part of the open-source Quantum ESPRESSO suite
     for quantum simulation of materials; please cite
         "P. Giannozzi et al., J. Phys.:Condens. Matter 21 395502 (2009);
         "P. Giannozzi et al., J. Phys.:Condens. Matter 29 465901 (2017);
          URL http://www.quantum-espresso.org", 
     in publications or presentations arising from this work. More details at
     http://www.quantum-espresso.org/quote

     Parallel version (MPI), running on    20 processors

     MPI processes distributed on     4 nodes
     R & G space division:  proc/nbgrp/npool/nimage =      20
     Reading input from YBCO_BaO_cleave_3_sep.pwi
Warning: card &CELL ignored
Warning: card     CELL_DYNAMICS = 'BFGS' ignored
Warning: card / ignored

     Current dimensions of program PWSCF are:
     Max number of different atomic species (ntypx) = 10
     Max number of k-points (npk) =  40000
     Max angular momentum in pseudopotentials (lmaxx) =  3

     Subspace diagonalization in iterative solution of the eigenvalue problem:
     one sub-group per band group will be used
     scalapack distributed-memory algorithm (size of sub-group:  4*  4 procs)

     Message from routine setup:
     using ibrav=0 with symmetry is DISCOURAGED, use correct ibrav instead
 
     Parallelization info
     --------------------
     sticks:   dense  smooth     PW     G-vecs:    dense   smooth      PW
     Min         150      50     14                75932    14604    2278
     Max         151      51     15                75973    14629    2325
     Sum        3015    1011    293              1519021   292277   46055
 


     bravais-lattice index     =            0
     lattice parameter (alat)  =       7.3477  a.u.
     unit-cell volume          =    4655.3630 (a.u.)^3
     number of atoms/cell      =           28
     number of atomic types    =            4
     number of electrons       =       229.00
     number of Kohn-Sham states=          138
     kinetic-energy cutoff     =      60.0000  Ry
     charge density cutoff     =     720.0000  Ry
     convergence threshold     =      1.0E-06
     mixing beta               =       0.2000
     number of iterations used =           10  local-TF  mixing
     Exchange-correlation= SLA PW PBE PBE
                           (   1   4   3   4   0   0   0)
     nstep                     =          300


     celldm(1)=   7.347715  celldm(2)=   0.000000  celldm(3)=   0.000000
     celldm(4)=   0.000000  celldm(5)=   0.000000  celldm(6)=   0.000000

     crystal axes: (cart. coord. in units of alat)
               a(1) = (   1.000000   0.000000   0.000000 )  
               a(2) = (   0.000000   0.975577   0.000000 )  
               a(3) = (   0.000000   0.000000  12.029150 )  

     reciprocal axes: (cart. coord. in units 2 pi/alat)
               b(1) = (  1.000000  0.000000  0.000000 )  
               b(2) = (  0.000000  1.025034  0.000000 )  
               b(3) = (  0.000000  0.000000  0.083131 )  


     PseudoPot. # 1 for Ba read from file:
     /n/holyscratch01/hoffman_lab/ruizhe/YBCO_Project/pseudo/Ba.pbe-nsp-van.UPF
     MD5 check sum: 2b9c31dd849566dd297d80989662b7a0
     Pseudo is Ultrasoft + core correction, Zval = 10.0
     Generated by new atomic code, or converted to UPF format
     Using radial grid of  907 points,  6 beta functions with: 
                l(1) =   0
                l(2) =   0
                l(3) =   1
                l(4) =   1
                l(5) =   2
                l(6) =   2
     Q(r) pseudized with  6 coefficients,  rinner =    1.200   1.200   1.200
                                                       1.200   1.200

     PseudoPot. # 2 for Cu read from file:
     /n/holyscratch01/hoffman_lab/ruizhe/YBCO_Project/pseudo/Cu.pbe-n-van_ak.UPF
     MD5 check sum: 34e3282627ffb533726feb647e090d62
     Pseudo is Ultrasoft + core correction, Zval = 11.0
     Generated by new atomic code, or converted to UPF format
     Using radial grid of  867 points,  6 beta functions with: 
                l(1) =   0
                l(2) =   0
                l(3) =   1
                l(4) =   1
                l(5) =   2
                l(6) =   2
     Q(r) pseudized with  8 coefficients,  rinner =    1.400   1.400   1.400
                                                       1.400   1.400

     PseudoPot. # 3 for O  read from file:
     /n/holyscratch01/hoffman_lab/ruizhe/YBCO_Project/pseudo/O.pbe-van_ak.UPF
     MD5 check sum: 783ce7fe4c79b6a4916957118fed0856
     Pseudo is Ultrasoft, Zval =  6.0
     Generated by new atomic code, or converted to UPF format
     Using radial grid of  737 points,  4 beta functions with: 
                l(1) =   0
                l(2) =   0
                l(3) =   1
                l(4) =   1
     Q(r) pseudized with  8 coefficients,  rinner =    0.800   0.800   0.800


     PseudoPot. # 4 for Y  read from file:
     /n/holyscratch01/hoffman_lab/ruizhe/YBCO_Project/pseudo/Y.pbe-nsp-van.UPF
     MD5 check sum: 4412fed3ab108fed87a1b7d6a69a4a38
     Pseudo is Ultrasoft + core correction, Zval = 11.0
     Generated by new atomic code, or converted to UPF format
     Using radial grid of  885 points,  6 beta functions with: 
                l(1) =   0
                l(2) =   0
                l(3) =   1
                l(4) =   1
                l(5) =   2
                l(6) =   2
     Q(r) pseudized with  6 coefficients,  rinner =    1.200   1.200   1.200
                                                       1.200   1.200

     atomic species   valence    mass     pseudopotential
        Ba            10.00   137.32700     Ba( 1.00)
        Cu            11.00    63.54600     Cu( 1.00)
        O              6.00    15.99900     O ( 1.00)
        Y             11.00    88.90584     Y ( 1.00)

      4 Sym. Ops. (no inversion) found



   Cartesian axes

     site n.     atom                  positions (alat units)
         1           O   tau(   1) = (   0.0000000   0.4877884  -0.0257983  )
         2           Cu  tau(   2) = (   0.0000000   0.0000000   0.0215779  )
         3           O   tau(   3) = (   0.0000000   0.0000000   0.5073114  )
         4           Ba  tau(   4) = (   0.4999996   0.4877884   0.5319677  )
         5           Cu  tau(   5) = (   0.0000000   0.0000000   1.0495845  )
         6           O   tau(   6) = (   0.4999996   0.0000000   1.1181579  )
         7           O   tau(   7) = (   0.0000000   0.4877884   1.1273137  )
         8           Y   tau(   8) = (   0.4999996   0.4877884   1.4938777  )
         9           O   tau(   9) = (   0.0000000   0.4877884   1.8497402  )
        10           O   tau(  10) = (   0.4999996   0.0000000   1.8692709  )
        11           Cu  tau(  11) = (   0.0000000   0.0000000   1.9417560  )
        12           Ba  tau(  12) = (   0.4999996   0.4877884   2.4526063  )
        13           O   tau(  13) = (   0.0000000   0.0000000   2.5103470  )
        14           O   tau(  14) = (   0.0000000   0.4877884   2.9968469  )
        15           Cu  tau(  15) = (   0.0000000   0.0000000   2.9968521  )
        16           O   tau(  16) = (   0.0000000   0.0000000   3.4833288  )
        17           Ba  tau(  17) = (   0.4999996   0.4877884   3.5410618  )
        18           Cu  tau(  18) = (   0.0000000   0.0000000   4.8234918  )
        19           O   tau(  19) = (   0.4999996   0.0000000   4.8959642  )
        20           O   tau(  20) = (   0.0000000   0.4877884   4.9154768  )
        21           Y   tau(  21) = (   0.4999996   0.4877884   5.3099197  )
        22           O   tau(  22) = (   0.0000000   0.4877884   5.6379059  )
        23           O   tau(  23) = (   0.4999996   0.0000000   5.6470746  )
        24           Cu  tau(  24) = (   0.0000000   0.0000000   5.7156531  )
        25           Ba  tau(  25) = (   0.4999996   0.4877884   6.2332544  )
        26           O   tau(  26) = (   0.0000000   0.0000000   6.2579108  )
        27           Cu  tau(  27) = (   0.0000000   0.0000000   6.7436160  )
        28           O   tau(  28) = (   0.0000000   0.4877884   6.7909973  )

     number of k points=    25  Gaussian smearing, width (Ry)=  0.0100
                       cart. coord. in units 2pi/alat
        k(    1) = (   0.0000000   0.0000000   0.0000000), wk =   0.0312500
        k(    2) = (   0.0000000   0.1281293   0.0000000), wk =   0.0625000
        k(    3) = (   0.0000000   0.2562585   0.0000000), wk =   0.0625000
        k(    4) = (   0.0000000   0.3843878   0.0000000), wk =   0.0625000
        k(    5) = (   0.0000000  -0.5125170   0.0000000), wk =   0.0312500
        k(    6) = (   0.1250000   0.0000000   0.0000000), wk =   0.0625000
        k(    7) = (   0.1250000   0.1281293   0.0000000), wk =   0.1250000
        k(    8) = (   0.1250000   0.2562585   0.0000000), wk =   0.1250000
        k(    9) = (   0.1250000   0.3843878   0.0000000), wk =   0.1250000
        k(   10) = (   0.1250000  -0.5125170   0.0000000), wk =   0.0625000
        k(   11) = (   0.2500000   0.0000000   0.0000000), wk =   0.0625000
        k(   12) = (   0.2500000   0.1281293   0.0000000), wk =   0.1250000
        k(   13) = (   0.2500000   0.2562585   0.0000000), wk =   0.1250000
        k(   14) = (   0.2500000   0.3843878   0.0000000), wk =   0.1250000
        k(   15) = (   0.2500000  -0.5125170   0.0000000), wk =   0.0625000
        k(   16) = (   0.3750000   0.0000000   0.0000000), wk =   0.0625000
        k(   17) = (   0.3750000   0.1281293   0.0000000), wk =   0.1250000
        k(   18) = (   0.3750000   0.2562585   0.0000000), wk =   0.1250000
        k(   19) = (   0.3750000   0.3843878   0.0000000), wk =   0.1250000
        k(   20) = (   0.3750000  -0.5125170   0.0000000), wk =   0.0625000
        k(   21) = (  -0.5000000   0.0000000   0.0000000), wk =   0.0312500
        k(   22) = (  -0.5000000   0.1281293   0.0000000), wk =   0.0625000
        k(   23) = (  -0.5000000   0.2562585   0.0000000), wk =   0.0625000
        k(   24) = (  -0.5000000   0.3843878   0.0000000), wk =   0.0625000
        k(   25) = (  -0.5000000  -0.5125170   0.0000000), wk =   0.0312500

     Dense  grid:  1519021 G-vectors     FFT dimensions: (  64,  64, 768)

     Smooth grid:   292277 G-vectors     FFT dimensions: (  40,  36, 450)

     Estimated max dynamical RAM per process >     484.76 MB

     Estimated total dynamical RAM >       9.47 GB

     Initial potential from superposition of free atoms

     starting charge  228.84827, renormalised to  229.00000

     negative rho (up, down):  8.957E-02 0.000E+00
     Starting wfcs are  201 randomized atomic wfcs

     total cpu time spent up to now is       10.5 secs

     Self-consistent Calculation

     iteration #  1     ecut=    60.00 Ry     beta= 0.20
     Davidson diagonalization with overlap
     ethr =  1.00E-02,  avg # of iterations =  2.0

     negative rho (up, down):  8.745E-02 0.000E+00

     total cpu time spent up to now is       28.6 secs

     total energy              =   -1869.51940036 Ry
     Harris-Foulkes estimate   =   -1871.16564584 Ry
     estimated scf accuracy    <      15.43289065 Ry

     iteration #  2     ecut=    60.00 Ry     beta= 0.20
     Davidson diagonalization with overlap
     ethr =  6.74E-03,  avg # of iterations =  1.0

     negative rho (up, down):  8.636E-02 0.000E+00

     total cpu time spent up to now is       43.8 secs

     total energy              =   -1869.12797363 Ry
     Harris-Foulkes estimate   =   -1869.91906737 Ry
     estimated scf accuracy    <       5.99726025 Ry

     iteration #  3     ecut=    60.00 Ry     beta= 0.20
     Davidson diagonalization with overlap
     ethr =  2.62E-03,  avg # of iterations =  1.0

     negative rho (up, down):  8.590E-02 0.000E+00

     total cpu time spent up to now is       59.0 secs

     total energy              =   -1868.70406639 Ry
     Harris-Foulkes estimate   =   -1869.31692322 Ry
     estimated scf accuracy    <       3.97949385 Ry

     iteration #  4     ecut=    60.00 Ry     beta= 0.20
     Davidson diagonalization with overlap
     ethr =  1.74E-03,  avg # of iterations =  1.6

     negative rho (up, down):  8.631E-02 0.000E+00

     total cpu time spent up to now is       74.8 secs

     total energy              =   -1868.86466838 Ry
     Harris-Foulkes estimate   =   -1868.95635918 Ry
     estimated scf accuracy    <       2.44160948 Ry

     iteration #  5     ecut=    60.00 Ry     beta= 0.20
     Davidson diagonalization with overlap
     ethr =  1.07E-03,  avg # of iterations =  1.0

     negative rho (up, down):  8.691E-02 0.000E+00

     total cpu time spent up to now is       90.0 secs

     total energy              =   -1868.80810226 Ry
     Harris-Foulkes estimate   =   -1868.92186212 Ry
     estimated scf accuracy    <       1.34089741 Ry

     iteration #  6     ecut=    60.00 Ry     beta= 0.20
     Davidson diagonalization with overlap
     ethr =  5.86E-04,  avg # of iterations =  1.4

     negative rho (up, down):  8.812E-02 0.000E+00

     total cpu time spent up to now is      105.5 secs

     total energy              =   -1868.78450808 Ry
     Harris-Foulkes estimate   =   -1868.84131508 Ry
     estimated scf accuracy    <       0.85789415 Ry

     iteration #  7     ecut=    60.00 Ry     beta= 0.20
     Davidson diagonalization with overlap
     ethr =  3.75E-04,  avg # of iterations =  3.4

     negative rho (up, down):  8.931E-02 0.000E+00

     total cpu time spent up to now is      123.6 secs

     total energy              =   -1868.77421869 Ry
     Harris-Foulkes estimate   =   -1868.80193883 Ry
     estimated scf accuracy    <       0.38420368 Ry

     iteration #  8     ecut=    60.00 Ry     beta= 0.20
     Davidson diagonalization with overlap
     ethr =  1.68E-04,  avg # of iterations =  6.3

     negative rho (up, down):  9.045E-02 0.000E+00

     total cpu time spent up to now is      145.0 secs

     total energy              =   -1868.76819983 Ry
     Harris-Foulkes estimate   =   -1868.78995720 Ry
     estimated scf accuracy    <       0.25188951 Ry

     iteration #  9     ecut=    60.00 Ry     beta= 0.20
     Davidson diagonalization with overlap
     ethr =  1.10E-04,  avg # of iterations =  3.2

     negative rho (up, down):  9.062E-02 0.000E+00

     total cpu time spent up to now is      162.4 secs

     total energy              =   -1868.77615146 Ry
     Harris-Foulkes estimate   =   -1868.77913132 Ry
     estimated scf accuracy    <       0.38027201 Ry

     iteration # 10     ecut=    60.00 Ry     beta= 0.20
     Davidson diagonalization with overlap
     ethr =  1.10E-04,  avg # of iterations =  1.0

     negative rho (up, down):  9.080E-02 0.000E+00

     total cpu time spent up to now is      177.5 secs

     total energy              =   -1868.77010659 Ry
     Harris-Foulkes estimate   =   -1868.77774842 Ry
     estimated scf accuracy    <       0.26981890 Ry

     iteration # 11     ecut=    60.00 Ry     beta= 0.20
     Davidson diagonalization with overlap
     ethr =  1.10E-04,  avg # of iterations =  1.3

     negative rho (up, down):  9.063E-02 0.000E+00

     total cpu time spent up to now is      192.8 secs

     total energy              =   -1868.76662532 Ry
     Harris-Foulkes estimate   =   -1868.77206310 Ry
     estimated scf accuracy    <       0.10867280 Ry

     iteration # 12     ecut=    60.00 Ry     beta= 0.20
     Davidson diagonalization with overlap
     ethr =  4.75E-05,  avg # of iterations =  6.4

     negative rho (up, down):  9.030E-02 0.000E+00

     total cpu time spent up to now is      214.5 secs

     total energy              =   -1868.76443027 Ry
     Harris-Foulkes estimate   =   -1868.76821345 Ry
     estimated scf accuracy    <       0.03699964 Ry

     iteration # 13     ecut=    60.00 Ry     beta= 0.20
     Davidson diagonalization with overlap
     ethr =  1.62E-05,  avg # of iterations =  6.7

     negative rho (up, down):  8.995E-02 0.000E+00

     total cpu time spent up to now is      237.2 secs

     total energy              =   -1868.76390593 Ry
     Harris-Foulkes estimate   =   -1868.76571831 Ry
     estimated scf accuracy    <       0.01886239 Ry

     iteration # 14     ecut=    60.00 Ry     beta= 0.20
     Davidson diagonalization with overlap
     ethr =  8.24E-06,  avg # of iterations =  3.3

     negative rho (up, down):  8.920E-02 0.000E+00

     total cpu time spent up to now is      254.5 secs

     total energy              =   -1868.76337140 Ry
     Harris-Foulkes estimate   =   -1868.76434549 Ry
     estimated scf accuracy    <       0.01315194 Ry

     iteration # 15     ecut=    60.00 Ry     beta= 0.20
     Davidson diagonalization with overlap
     ethr =  5.74E-06,  avg # of iterations =  6.2

     negative rho (up, down):  8.915E-02 0.000E+00

     total cpu time spent up to now is      275.9 secs

     total energy              =   -1868.76296106 Ry
     Harris-Foulkes estimate   =   -1868.76397699 Ry
     estimated scf accuracy    <       0.01269084 Ry

     iteration # 16     ecut=    60.00 Ry     beta= 0.20
     Davidson diagonalization with overlap
     ethr =  5.54E-06,  avg # of iterations =  1.2

     negative rho (up, down):  9.004E-02 0.000E+00

     total cpu time spent up to now is      291.5 secs

     total energy              =   -1868.76219123 Ry
     Harris-Foulkes estimate   =   -1868.76313824 Ry
     estimated scf accuracy    <       0.01143359 Ry

     iteration # 17     ecut=    60.00 Ry     beta= 0.20
     Davidson diagonalization with overlap
     c_bands:  1 eigenvalues not converged
     ethr =  4.99E-06,  avg # of iterations =  4.9

     negative rho (up, down):  9.189E-02 0.000E+00

     total cpu time spent up to now is      310.5 secs

     total energy              =   -1868.76179725 Ry
     Harris-Foulkes estimate   =   -1868.76230959 Ry
     estimated scf accuracy    <       0.00808465 Ry

     iteration # 18     ecut=    60.00 Ry     beta= 0.20
     Davidson diagonalization with overlap
     c_bands:  1 eigenvalues not converged
     ethr =  3.53E-06,  avg # of iterations =  6.0

     negative rho (up, down):  9.052E-02 0.000E+00

     total cpu time spent up to now is      331.0 secs

     total energy              =   -1868.76141005 Ry
     Harris-Foulkes estimate   =   -1868.76184654 Ry
     estimated scf accuracy    <       0.00789506 Ry

     iteration # 19     ecut=    60.00 Ry     beta= 0.20
     Davidson diagonalization with overlap
     ethr =  3.45E-06,  avg # of iterations =  1.8

     negative rho (up, down):  9.282E-02 0.000E+00

     total cpu time spent up to now is      346.8 secs

     total energy              =   -1868.76046290 Ry
     Harris-Foulkes estimate   =   -1868.76147111 Ry
     estimated scf accuracy    <       0.00798642 Ry

     iteration # 20     ecut=    60.00 Ry     beta= 0.20
     Davidson diagonalization with overlap
     ethr =  3.45E-06,  avg # of iterations =  6.3

     negative rho (up, down):  9.169E-02 0.000E+00

     total cpu time spent up to now is      368.5 secs

     total energy              =   -1868.76002373 Ry
     Harris-Foulkes estimate   =   -1868.76054425 Ry
     estimated scf accuracy    <       0.00624803 Ry

     iteration # 21     ecut=    60.00 Ry     beta= 0.20
     Davidson diagonalization with overlap
     ethr =  2.73E-06,  avg # of iterations =  5.8

     negative rho (up, down):  9.190E-02 0.000E+00

     total cpu time spent up to now is      389.2 secs

     total energy              =   -1868.75979690 Ry
     Harris-Foulkes estimate   =   -1868.76011777 Ry
     estimated scf accuracy    <       0.00332529 Ry

     iteration # 22     ecut=    60.00 Ry     beta= 0.20
     Davidson diagonalization with overlap
     ethr =  1.45E-06,  avg # of iterations =  6.0

     negative rho (up, down):  9.122E-02 0.000E+00

     total cpu time spent up to now is      410.1 secs

     total energy              =   -1868.75955434 Ry
     Harris-Foulkes estimate   =   -1868.75983207 Ry
     estimated scf accuracy    <       0.00249211 Ry

     iteration # 23     ecut=    60.00 Ry     beta= 0.20
     Davidson diagonalization with overlap
     ethr =  1.09E-06,  avg # of iterations =  4.1

     negative rho (up, down):  9.103E-02 0.000E+00

     total cpu time spent up to now is      428.5 secs

     total energy              =   -1868.75943491 Ry
     Harris-Foulkes estimate   =   -1868.75958909 Ry
     estimated scf accuracy    <       0.00199077 Ry

     iteration # 24     ecut=    60.00 Ry     beta= 0.20
     Davidson diagonalization with overlap
     ethr =  8.69E-07,  avg # of iterations =  6.0

     negative rho (up, down):  9.115E-02 0.000E+00

     total cpu time spent up to now is      450.4 secs

     total energy              =   -1868.75940633 Ry
     Harris-Foulkes estimate   =   -1868.75947297 Ry
     estimated scf accuracy    <       0.00094249 Ry

     iteration # 25     ecut=    60.00 Ry     beta= 0.20
     Davidson diagonalization with overlap
     ethr =  4.12E-07,  avg # of iterations =  4.0

     negative rho (up, down):  9.076E-02 0.000E+00

     total cpu time spent up to now is      469.6 secs

     total energy              =   -1868.75944153 Ry
     Harris-Foulkes estimate   =   -1868.75944546 Ry
     estimated scf accuracy    <       0.00059894 Ry

     iteration # 26     ecut=    60.00 Ry     beta= 0.20
     Davidson diagonalization with overlap
     ethr =  2.62E-07,  avg # of iterations =  3.9

     negative rho (up, down):  9.054E-02 0.000E+00

     total cpu time spent up to now is      488.0 secs

     total energy              =   -1868.75944961 Ry
     Harris-Foulkes estimate   =   -1868.75945315 Ry
     estimated scf accuracy    <       0.00042726 Ry

     iteration # 27     ecut=    60.00 Ry     beta= 0.20
     Davidson diagonalization with overlap
     ethr =  1.87E-07,  avg # of iterations =  1.4

     negative rho (up, down):  9.078E-02 0.000E+00

     total cpu time spent up to now is      503.8 secs

     total energy              =   -1868.75943262 Ry
     Harris-Foulkes estimate   =   -1868.75945984 Ry
     estimated scf accuracy    <       0.00025694 Ry

     iteration # 28     ecut=    60.00 Ry     beta= 0.20
     Davidson diagonalization with overlap
     ethr =  1.12E-07,  avg # of iterations =  2.0

     negative rho (up, down):  9.117E-02 0.000E+00

     total cpu time spent up to now is      520.5 secs

     total energy              =   -1868.75944935 Ry
     Harris-Foulkes estimate   =   -1868.75943835 Ry
     estimated scf accuracy    <       0.00013760 Ry

     iteration # 29     ecut=    60.00 Ry     beta= 0.20
     Davidson diagonalization with overlap
     ethr =  6.01E-08,  avg # of iterations =  3.8

     negative rho (up, down):  9.062E-02 0.000E+00

     total cpu time spent up to now is      539.4 secs

     total energy              =   -1868.75944311 Ry
     Harris-Foulkes estimate   =   -1868.75945159 Ry
     estimated scf accuracy    <       0.00009310 Ry

     iteration # 30     ecut=    60.00 Ry     beta= 0.20
     Davidson diagonalization with overlap
     ethr =  4.07E-08,  avg # of iterations =  3.0

     negative rho (up, down):  9.021E-02 0.000E+00

     total cpu time spent up to now is      557.1 secs

     total energy              =   -1868.75944148 Ry
     Harris-Foulkes estimate   =   -1868.75944615 Ry
     estimated scf accuracy    <       0.00003962 Ry

     iteration # 31     ecut=    60.00 Ry     beta= 0.20
     Davidson diagonalization with overlap
     ethr =  1.73E-08,  avg # of iterations =  4.2

     negative rho (up, down):  9.009E-02 0.000E+00

     total cpu time spent up to now is      575.5 secs

     total energy              =   -1868.75944766 Ry
     Harris-Foulkes estimate   =   -1868.75944357 Ry
     estimated scf accuracy    <       0.00002676 Ry

     iteration # 32     ecut=    60.00 Ry     beta= 0.20
     Davidson diagonalization with overlap
     ethr =  1.17E-08,  avg # of iterations =  1.1

     negative rho (up, down):  9.049E-02 0.000E+00

     total cpu time spent up to now is      590.6 secs

     total energy              =   -1868.75944770 Ry
     Harris-Foulkes estimate   =   -1868.75944805 Ry
     estimated scf accuracy    <       0.00001667 Ry

     iteration # 33     ecut=    60.00 Ry     beta= 0.20
     Davidson diagonalization with overlap
     ethr =  7.28E-09,  avg # of iterations =  2.8

     negative rho (up, down):  9.050E-02 0.000E+00

     total cpu time spent up to now is      607.7 secs

     total energy              =   -1868.75944754 Ry
     Harris-Foulkes estimate   =   -1868.75944862 Ry
     estimated scf accuracy    <       0.00000463 Ry

     iteration # 34     ecut=    60.00 Ry     beta= 0.20
     Davidson diagonalization with overlap
     ethr =  2.02E-09,  avg # of iterations =  2.0

     negative rho (up, down):  9.066E-02 0.000E+00

     total cpu time spent up to now is      623.8 secs

     total energy              =   -1868.75944765 Ry
     Harris-Foulkes estimate   =   -1868.75944792 Ry
     estimated scf accuracy    <       0.00000349 Ry

     iteration # 35     ecut=    60.00 Ry     beta= 0.20
     Davidson diagonalization with overlap
     ethr =  1.53E-09,  avg # of iterations =  1.0

     negative rho (up, down):  9.068E-02 0.000E+00

     total cpu time spent up to now is      638.8 secs

     total energy              =   -1868.75944772 Ry
     Harris-Foulkes estimate   =   -1868.75944776 Ry
     estimated scf accuracy    <       0.00000106 Ry

     iteration # 36     ecut=    60.00 Ry     beta= 0.20
     Davidson diagonalization with overlap
     ethr =  4.61E-10,  avg # of iterations =  1.0

     negative rho (up, down):  9.052E-02 0.000E+00

     total cpu time spent up to now is      653.1 secs

     End of self-consistent calculation

          k = 0.0000 0.0000 0.0000 ( 36431 PWs)   bands (ev):

   -38.2717 -38.0081 -23.9789 -23.0264 -22.9255 -22.8138 -18.8066 -18.5706
   -18.2761 -18.2665 -18.0410 -18.0290 -15.6018 -15.3920 -14.8462 -14.6422
   -14.5638 -14.4452 -14.4101 -14.3871 -14.2072 -14.1257 -13.9217 -13.9083
   -13.7189 -13.6242 -13.4377  -9.2742  -8.8140  -8.7941  -8.2748  -8.1484
    -8.0895  -8.0089  -7.9838  -7.9178  -7.8911  -7.7672  -7.7452  -2.2712
    -2.2549  -2.2303  -2.1965  -2.0608  -2.0433  -2.0094  -1.9413  -1.9333
    -1.9196  -1.8652  -1.4736  -1.3392  -1.0590  -1.0321  -0.9091  -0.6890
    -0.6148  -0.6081  -0.5702  -0.5382  -0.2548  -0.2374  -0.2190  -0.1984
    -0.1825  -0.0695  -0.0635  -0.0195  -0.0172  -0.0161   0.0698   0.0804
     0.1346   0.1407   0.1696   0.2055   0.2329   0.2369   0.2469   0.2678
     0.3844   0.3874   0.3936   0.3952   0.4170   0.4965   0.5122   0.6997
     0.7766   0.8223   0.9052   0.9351   0.9388   1.0146   1.0813   1.1258
     1.1738   1.2055   1.2125   1.2680   1.3338   1.3538   1.3732   1.4275
     1.6621   1.7639   1.7904   1.8146   1.8359   1.9959   2.0344   2.0349
     2.0918   2.1602   2.2122   2.2443   2.2558   2.4941   2.5201   4.5524
     5.1070   5.1378   5.4137   5.6950   5.9761   6.3516   6.4808   6.5384
     6.9990   7.3625   7.5883   7.7393   7.9923   8.0271   8.1899   8.2262
     8.4003   8.4846

          k = 0.0000 0.1281 0.0000 ( 36471 PWs)   bands (ev):

   -38.2694 -38.0056 -23.9609 -23.0049 -22.9039 -22.7930 -18.7706 -18.5446
   -18.3709 -18.2729 -18.1328 -18.0377 -15.4930 -15.2985 -14.7994 -14.6504
   -14.5431 -14.4550 -14.4194 -14.3565 -14.1886 -14.1719 -13.9269 -13.9136
   -13.7834 -13.6936 -13.4665  -9.2604  -8.8265  -8.7611  -8.2579  -8.1307
    -8.0786  -8.0029  -7.9680  -7.9106  -7.8766  -7.7651  -7.7285  -2.4692
    -2.3331  -2.3033  -2.2348  -2.1810  -2.0298  -2.0107  -1.9471  -1.8725
    -1.8700  -1.8497  -1.6450  -1.5871  -1.3248  -1.1351  -1.1278  -1.0031
    -0.9770  -0.8847  -0.5911  -0.5826  -0.5317  -0.4753  -0.4107  -0.3295
    -0.3225  -0.2876  -0.2707  -0.2515  -0.2153  -0.1616  -0.0447   0.0392
     0.1005   0.1392   0.1447   0.2858   0.2919   0.3665   0.3766   0.3842
     0.3952   0.4119   0.4525   0.4755   0.5712   0.6510   0.6902   0.6986
     0.7534   0.7696   0.7765   0.8911   0.9994   1.0132   1.0139   1.0590
     1.2324   1.3182   1.3279   1.3802   1.4290   1.4414   1.5203   1.5258
     1.5812   1.7380   1.7755   1.7822   1.8120   1.8639   1.9799   2.0011
     2.0591   2.0634   2.3138   2.5147   2.7448   2.8136   2.8538   4.7697
     5.4820   5.5040   5.6805   5.9704   6.2194   6.5567   6.7959   6.8513
     7.2495   7.6067   7.7577   7.9667   7.9724   8.1534   8.1754   8.2797
     8.3895   8.6293

          k = 0.0000 0.2563 0.0000 ( 36496 PWs)   bands (ev):

   -38.2638 -37.9997 -23.9166 -22.9521 -22.8508 -22.7420 -18.6795 -18.5959
   -18.5212 -18.3108 -18.2652 -18.0296 -15.2451 -15.1017 -14.7262 -14.6749
   -14.6133 -14.4767 -14.4387 -14.2907 -14.2379 -14.1017 -13.9494 -13.9061
   -13.8908 -13.8532 -13.5304  -9.2211  -8.8558  -8.6795  -8.2179  -8.0892
    -8.0496  -8.0424  -7.9517  -7.8656  -7.8085  -7.7734  -7.6319  -2.8603
    -2.7613  -2.6363  -2.5109  -2.1797  -2.1596  -2.1385  -2.1261  -2.0395
    -1.9328  -1.8954  -1.8890  -1.8073  -1.7968  -1.6943  -1.4400  -1.2998
    -1.0259  -0.9900  -0.9256  -0.8297  -0.8121  -0.7310  -0.7218  -0.6343
    -0.5471  -0.5183  -0.4989  -0.4600  -0.4354  -0.2757  -0.2236  -0.2066
    -0.1990  -0.0619  -0.0131  -0.0079   0.1735   0.2397   0.3123   0.3442
     0.4215   0.4306   0.4426   0.4491   0.5436   0.6186   0.8275   0.9050
     0.9586   0.9706   1.0227   1.0380   1.1798   1.1868   1.1915   1.2170
     1.3345   1.3591   1.3727   1.4614   1.4672   1.5147   1.5812   1.5980
     1.6653   1.6785   1.6851   1.8287   1.9449   2.0610   2.0982   2.1134
     2.1261   2.1359   2.4770   2.6299   3.1187   3.1347   3.6073   5.2749
     6.3653   6.3697   6.3953   6.6463   6.8577   6.9386   7.6542   7.7025
     7.7886   7.8367   7.9442   8.0664   8.1680   8.3418   8.4928   8.5937
     8.6693   8.8113

          k = 0.0000 0.3844 0.0000 ( 36396 PWs)   bands (ev):

   -38.2582 -37.9938 -23.8713 -22.8978 -22.7963 -22.6895 -18.7937 -18.6447
   -18.5813 -18.3063 -18.2574 -18.0215 -14.9956 -14.9317 -14.8685 -14.7479
   -14.5862 -14.5086 -14.4624 -14.2632 -14.2384 -14.1481 -13.9902 -13.9287
   -13.8483 -13.8319 -13.6144  -9.1700  -8.8893  -8.5946  -8.1789  -8.0732
    -8.0495  -8.0154  -7.9846  -7.8482  -7.7575  -7.6643  -7.5302  -3.2518
    -3.2182  -3.1167  -2.8925  -2.7323  -2.7159  -2.4751  -2.0809  -2.0676
    -1.9800  -1.9449  -1.9379  -1.8330  -1.8128  -1.7211  -1.7022  -1.4122
    -1.2008  -1.0919  -1.0702  -0.9903  -0.9332  -0.8967  -0.8925  -0.8662
    -0.8028  -0.7598  -0.7402  -0.5803  -0.5066  -0.4644  -0.4506  -0.4427
    -0.3367  -0.3135  -0.2387  -0.1930  -0.0454   0.0601   0.1685   0.2818
     0.4085   0.4251   0.4645   0.4730   0.5830   0.7987   0.8332   0.9053
     0.9891   1.0290   1.0532   1.1221   1.2151   1.2390   1.2792   1.3113
     1.3188   1.4224   1.4327   1.4422   1.5694   1.6273   1.7571   1.8323
     1.8798   1.9700   1.9742   2.0009   2.0807   2.1105   2.1949   2.2084
     2.4530   2.5099   2.5210   2.5465   3.0899   3.1066   4.1694   5.8823
     6.6274   7.2471   7.2570   7.4146   7.5071   7.6835   7.7242   7.9029
     7.9727   8.3220   8.4645   8.4771   8.6593   8.6844   8.8439   8.9258
     8.9758   9.2919

          k = 0.0000-0.5125 0.0000 ( 36494 PWs)   bands (ev):

   -38.2559 -37.9914 -23.8523 -22.8749 -22.7733 -22.6674 -18.8697 -18.7152
   -18.5381 -18.2765 -18.2542 -18.0181 -14.9491 -14.8703 -14.8640 -14.8062
   -14.6505 -14.4876 -14.3530 -14.3430 -14.2559 -14.2214 -14.0333 -13.8176
   -13.8006 -13.7580 -13.7340  -9.1432  -8.9069  -8.5583  -8.1631  -8.0838
    -8.0340  -7.9979  -7.9963  -7.8654  -7.7108  -7.6173  -7.4865  -3.4945
    -3.3627  -3.2650  -3.0264  -2.9715  -2.9476  -2.6093  -2.1160  -2.1023
    -2.0384  -1.9987  -1.8949  -1.8153  -1.7114  -1.6867  -1.6747  -1.6317
    -1.2656  -1.1789  -1.1778  -1.1451  -1.0727  -0.9565  -0.8766  -0.8445
    -0.7661  -0.7566  -0.7357  -0.6739  -0.6610  -0.5376  -0.5297  -0.4706
    -0.4679  -0.4503  -0.4019  -0.2339  -0.0566  -0.0341   0.1021   0.3530
     0.3978   0.3997   0.4594   0.4697   0.4789   0.7814   0.9175   0.9542
     1.0148   1.0165   1.0690   1.2059   1.2223   1.2665   1.3305   1.3705
     1.3841   1.3875   1.3965   1.4119   1.5848   1.6071   1.8843   1.9055
     1.9542   1.9894   2.0373   2.2270   2.2327   2.2935   2.3201   2.3749
     2.3850   2.3923   2.6725   2.6834   2.9523   2.9703   4.3557   6.2538
     6.5761   7.4633   7.6431   7.6816   7.7481   7.7766   7.8522   7.9373
     8.0933   8.3830   8.7519   8.8328   8.9455   8.9895   9.0435   9.0558
     9.2446   9.4411

          k = 0.1250 0.0000 0.0000 ( 36458 PWs)   bands (ev):

   -38.2699 -38.0062 -23.9639 -23.0081 -22.9071 -22.7961 -18.7741 -18.5449
   -18.3762 -18.2640 -18.1422 -18.0264 -15.4863 -15.2883 -14.8695 -14.6687
   -14.5623 -14.4885 -14.4580 -14.3652 -14.1999 -14.1551 -13.9230 -13.9089
   -13.7819 -13.6535 -13.4560  -9.2960  -8.7873  -8.7539  -8.2840  -8.1582
    -8.1081  -7.9745  -7.9498  -7.8828  -7.8568  -7.7298  -7.7130  -2.4392
    -2.3202  -2.2307  -2.2206  -2.1470  -2.0235  -1.9961  -1.9305  -1.9261
    -1.8857  -1.8482  -1.5480  -1.4597  -1.0830  -1.0202  -0.9257  -0.7265
    -0.6637  -0.6095  -0.6026  -0.5823  -0.4458  -0.3728  -0.3193  -0.3157
    -0.3037  -0.2920  -0.2002  -0.1987  -0.1207  -0.0509  -0.0258   0.0316
     0.0326   0.2348   0.2548   0.2571   0.2677   0.3253   0.3412   0.3602
     0.3623   0.3914   0.3954   0.3990   0.5037   0.5065   0.5288   0.5381
     0.7789   0.8193   0.8482   0.8600   0.9020   1.0603   1.0746   1.0791
     1.0954   1.0988   1.1570   1.2933   1.3052   1.3796   1.5155   1.5710
     1.6689   1.6902   1.7075   1.8252   1.9007   1.9435   1.9691   1.9812
     2.1351   2.1693   2.1895   2.2933   2.5202   2.5549   2.5635   4.7402
     5.3022   5.3235   5.6070   5.9218   6.1890   6.4997   6.7202   6.7758
     7.2161   7.5872   7.7766   8.0078   8.0286   8.1499   8.2124   8.3451
     8.4898   8.7219

          k = 0.1250 0.1281 0.0000 ( 36476 PWs)   bands (ev):

   -38.2676 -38.0037 -23.9463 -22.9874 -22.8862 -22.7760 -18.7386 -18.5206
   -18.3801 -18.3590 -18.1385 -18.1271 -15.3785 -15.1972 -14.8202 -14.6665
   -14.5222 -14.5022 -14.4546 -14.3374 -14.2085 -14.1850 -13.9220 -13.9082
   -13.8269 -13.7113 -13.4833  -9.2753  -8.9379  -8.6372  -8.2698  -8.1443
    -8.1250  -8.0947  -8.0305  -7.8831  -7.8249  -7.7330  -7.5924  -2.5800
    -2.4267  -2.3681  -2.2573  -2.1793  -2.0291  -2.0225  -1.9854  -1.9307
    -1.8265  -1.8091  -1.6262  -1.6003  -1.5368  -1.1300  -1.1220  -1.0541
    -0.9308  -0.8549  -0.7794  -0.7577  -0.6575  -0.6352  -0.5946  -0.4847
    -0.4622  -0.4305  -0.2785  -0.2649  -0.1989  -0.0749   0.0040   0.0229
     0.0684   0.1297   0.1487   0.2751   0.3018   0.3298   0.3504   0.3735
     0.3762   0.4458   0.4478   0.4676   0.5464   0.6135   0.6369   0.6877
     0.6982   0.8399   0.8918   0.9618   0.9734   1.0033   1.0531   1.0936
     1.1848   1.2107   1.3119   1.3243   1.3858   1.3911   1.5023   1.6502
     1.6792   1.6951   1.7182   1.7506   1.7529   1.8485   1.9775   2.0485
     2.2992   2.3339   2.5436   2.7625   2.8024   2.8653   2.8735   4.9228
     5.6268   5.6467   5.8462   6.1537   6.4014   6.6582   7.0249   7.0796
     7.4511   7.7682   7.8851   7.9203   8.0517   8.1124   8.2926   8.3484
     8.5126   8.6306

          k = 0.1250 0.2563 0.0000 ( 36530 PWs)   bands (ev):

   -38.2620 -37.9979 -23.9033 -22.9364 -22.8351 -22.7266 -18.6488 -18.5914
   -18.5062 -18.3605 -18.2999 -18.1231 -15.1330 -15.0098 -14.7110 -14.6882
   -14.5807 -14.4779 -14.4496 -14.2944 -14.2736 -14.1064 -13.9474 -13.8972
   -13.8822 -13.8512 -13.5413  -9.2266  -9.0443  -8.6036  -8.2538  -8.2092
    -8.1544  -8.0890  -8.0582  -7.9937  -7.7806  -7.6889  -7.5557  -2.9591
    -2.8619  -2.6588  -2.5126  -2.2505  -2.1793  -2.1522  -2.1265  -2.0856
    -2.0093  -1.9139  -1.8938  -1.8824  -1.7453  -1.6400  -1.5147  -1.4459
    -1.1626  -1.1052  -0.9647  -0.9475  -0.9308  -0.8743  -0.8317  -0.8118
    -0.7110  -0.5298  -0.4506  -0.4433  -0.4322  -0.3397  -0.2483  -0.1933
    -0.0197   0.0094   0.0458   0.0786   0.2223   0.2394   0.3161   0.3174
     0.3861   0.4263   0.4713   0.4811   0.5687   0.6541   0.6919   0.8359
     1.0436   1.0561   1.0783   1.1495   1.1980   1.2083   1.2497   1.2884
     1.3069   1.3312   1.4276   1.4691   1.4884   1.5219   1.5450   1.5682
     1.6647   1.7092   1.7190   1.9413   1.9568   2.0735   2.0844   2.1261
     2.5590   2.5732   2.8147   3.0300   3.1394   3.1569   3.6100   5.3961
     6.3784   6.4209   6.4489   6.7467   6.9115   7.0150   7.6852   7.7386
     7.8564   7.9040   7.9512   8.1059   8.2998   8.4157   8.4796   8.5600
     8.6422   8.7324

          k = 0.1250 0.3844 0.0000 ( 36519 PWs)   bands (ev):

   -38.2564 -37.9920 -23.8593 -22.8841 -22.7825 -22.6760 -18.7877 -18.6371
   -18.5519 -18.3507 -18.2933 -18.1071 -14.8938 -14.8611 -14.8236 -14.6817
   -14.5581 -14.5062 -14.4509 -14.3004 -14.2406 -14.1169 -13.9709 -13.9356
   -13.8437 -13.8279 -13.6152  -9.1767  -9.0544  -8.6580  -8.2490  -8.1870
    -8.1591  -8.0587  -8.0244  -8.0113  -7.8287  -7.7369  -7.6025  -3.3308
    -3.2706  -3.1983  -2.9446  -2.7215  -2.7057  -2.5088  -2.1617  -2.0996
    -2.0185  -2.0115  -1.9209  -1.9007  -1.8121  -1.6997  -1.6460  -1.6348
    -1.4131  -1.3191  -1.2885  -1.1648  -1.0558  -1.0475  -0.8515  -0.8241
    -0.8010  -0.7469  -0.6234  -0.6026  -0.5834  -0.4855  -0.4462  -0.4280
    -0.2803  -0.0893  -0.0436   0.0183   0.1043   0.1392   0.2486   0.3399
     0.4246   0.4440   0.4698   0.5057   0.5852   0.6414   0.8798   0.9570
     0.9983   1.0822   1.1197   1.2082   1.2893   1.3024   1.3380   1.3674
     1.3991   1.4167   1.4499   1.4689   1.5783   1.6939   1.7425   1.8088
     1.8958   2.0191   2.0736   2.0980   2.1520   2.2126   2.4834   2.4950
     2.6007   2.6173   2.8341   2.9704   3.1310   3.1622   4.1653   5.9677
     6.4202   7.1361   7.1524   7.3453   7.4365   7.5163   7.6295   7.7302
     7.9442   8.3719   8.4483   8.4601   8.7767   8.9067   8.9427   8.9988
     9.1159   9.1548

          k = 0.1250-0.5125 0.0000 ( 36492 PWs)   bands (ev):

   -38.2541 -37.9895 -23.8408 -22.8620 -22.7603 -22.6546 -18.8633 -18.7081
   -18.5094 -18.3465 -18.2670 -18.0990 -14.9083 -14.8261 -14.7466 -14.7098
   -14.6157 -14.4682 -14.3528 -14.3049 -14.2817 -14.2224 -14.0058 -13.8151
   -13.7993 -13.7882 -13.7059  -9.1513  -9.0356  -8.7058  -8.2211  -8.1745
    -8.1338  -8.0455  -8.0083  -7.9957  -7.8774  -7.7849  -7.6450  -3.4877
    -3.4811  -3.3766  -3.0852  -2.9612  -2.9419  -2.6507  -2.1472  -2.1173
    -2.0188  -1.9286  -1.9134  -1.8629  -1.8468  -1.7949  -1.7234  -1.6623
    -1.5622  -1.5332  -1.2320  -1.1744  -1.1114  -1.0955  -1.0557  -0.8816
    -0.7690  -0.7637  -0.6954  -0.6394  -0.5741  -0.5578  -0.5326  -0.4282
    -0.3943  -0.1269  -0.0913  -0.0262   0.0182   0.1336   0.2246   0.3573
     0.4242   0.4631   0.4652   0.5526   0.5900   0.6561   0.6967   1.0178
     1.0514   1.1477   1.1887   1.2056   1.2820   1.2858   1.3673   1.3816
     1.4203   1.4252   1.4593   1.5023   1.5506   1.7233   1.8413   1.9693
     2.0279   2.2146   2.2301   2.2679   2.3683   2.3781   2.5654   2.5912
     2.6509   2.6624   2.7509   2.8319   3.0275   3.0794   4.3499   6.1157
     6.7068   7.1097   7.3478   7.3899   7.4498   7.5641   7.6991   7.9264
     8.0028   8.4115   8.9599   8.9897   9.0331   9.1940   9.2163   9.2924
     9.3546   9.4233

          k = 0.2500 0.0000 0.0000 ( 36542 PWs)   bands (ev):

   -38.2655 -38.0016 -23.9271 -22.9632 -22.8619 -22.7527 -18.6924 -18.5911
   -18.5097 -18.3274 -18.2580 -18.0201 -15.2222 -15.0753 -14.9396 -14.7760
   -14.6739 -14.5689 -14.5214 -14.3277 -14.1900 -14.1387 -13.9305 -13.9199
   -13.9031 -13.7099 -13.4975  -9.3252  -8.7212  -8.6805  -8.2952  -8.1680
    -8.1294  -7.9037  -7.8653  -7.8128  -7.7715  -7.6667  -7.6332  -2.7603
    -2.6285  -2.5362  -2.1202  -2.0675  -2.0408  -2.0025  -1.9709  -1.9482
    -1.8953  -1.8018  -1.6882  -1.4262  -1.1524  -1.1098  -1.0607  -0.8663
    -0.8275  -0.7767  -0.7702  -0.6884  -0.6227  -0.5941  -0.5893  -0.5651
    -0.5290  -0.5042  -0.4582  -0.2990  -0.2525  -0.2243  -0.0811  -0.0471
    -0.0020   0.0620   0.1112   0.1293   0.2241   0.2497   0.2984   0.3051
     0.3695   0.3714   0.5113   0.5219   0.5248   0.5348   0.5414   0.6407
     0.6835   0.7963   0.8961   0.9422   0.9498   0.9980   1.0322   1.1234
     1.1515   1.1929   1.2514   1.3909   1.3985   1.4243   1.4336   1.4430
     1.5424   1.6266   1.6999   1.8356   1.8356   1.8725   1.9774   2.0686
     2.0830   2.1986   2.3361   2.4753   2.6070   2.7008   2.7602   5.1906
     5.7516   5.7735   6.0991   6.5068   6.7392   6.8955   7.3619   7.4062
     7.7723   7.9622   8.0337   8.1058   8.1798   8.2172   8.5852   8.6736
     8.7835   8.8203

          k = 0.2500 0.1281 0.0000 ( 36518 PWs)   bands (ev):

   -38.2632 -37.9992 -23.9107 -22.9443 -22.8429 -22.7342 -18.6583 -18.5853
   -18.4933 -18.3580 -18.3172 -18.1160 -15.1172 -14.9959 -14.8826 -14.7484
   -14.6227 -14.5441 -14.5026 -14.2983 -14.2555 -14.1302 -13.9353 -13.9085
   -13.8927 -13.7421 -13.5205  -9.3060  -8.9750  -8.5752  -8.2949  -8.1741
    -8.1579  -8.1272  -8.0579  -7.9144  -7.7505  -7.6588  -7.5287  -2.8826
    -2.7666  -2.5821  -2.2459  -2.1235  -2.0858  -2.0500  -2.0147  -1.9908
    -1.9379  -1.7265  -1.6691  -1.6266  -1.5914  -1.2021  -1.1775  -1.1230
    -1.1194  -1.1122  -0.9743  -0.9479  -0.9318  -0.8163  -0.7654  -0.7434
    -0.5216  -0.5109  -0.4906  -0.3834  -0.3201  -0.1463  -0.0280   0.0280
     0.0921   0.0951   0.1294   0.1322   0.2079   0.2454   0.2505   0.3318
     0.3605   0.3785   0.5591   0.5715   0.5965   0.6340   0.6849   0.7067
     0.7094   0.8719   0.8960   1.0346   1.0873   1.1067   1.1603   1.1853
     1.1936   1.2676   1.2837   1.3809   1.3839   1.3980   1.4399   1.5531
     1.5765   1.5968   1.7184   1.8083   1.8103   1.9587   2.0083   2.0782
     2.6152   2.6267   2.8045   2.8564   2.8726   2.9539   3.1692   5.3296
     5.9921   6.0156   6.2296   6.6438   6.8438   6.9502   7.6238   7.6562
     7.7420   7.8832   7.9680   8.0214   8.2001   8.2604   8.5408   8.6714
     8.7869   8.8518

          k = 0.2500 0.2563 0.0000 ( 36545 PWs)   bands (ev):

   -38.2577 -37.9934 -23.8708 -22.8979 -22.7964 -22.6890 -18.5918 -18.5722
   -18.5552 -18.4875 -18.3611 -18.2150 -14.8851 -14.8457 -14.7313 -14.6917
   -14.5323 -14.4943 -14.4657 -14.3991 -14.2318 -14.0763 -13.9544 -13.8752
   -13.8603 -13.8358 -13.5603  -9.2787  -9.2113  -8.6655  -8.4525  -8.3606
    -8.2342  -8.2080  -8.1070  -8.0623  -7.8465  -7.7561  -7.6250  -3.2645
    -3.1872  -2.8084  -2.4985  -2.3577  -2.2637  -2.2495  -2.1928  -2.1363
    -2.1121  -1.9333  -1.9003  -1.8915  -1.8136  -1.6830  -1.6288  -1.5371
    -1.5250  -1.4910  -1.3584  -0.9941  -0.9350  -0.9226  -0.8776  -0.8390
    -0.8377  -0.7041  -0.4818  -0.4215  -0.3725  -0.3158  -0.2977  -0.2170
    -0.1601  -0.0323   0.0520   0.1722   0.2045   0.3034   0.3122   0.4184
     0.4516   0.5537   0.5662   0.6175   0.6374   0.7224   0.8866   1.0767
     1.0961   1.1604   1.1784   1.2340   1.2401   1.2449   1.2684   1.3421
     1.3896   1.4502   1.4572   1.5066   1.5107   1.5936   1.6335   1.6721
     1.7498   1.8191   1.8477   1.9867   2.0006   2.0132   2.0564   2.1817
     3.0902   3.1086   3.2193   3.2384   3.4276   3.6193   3.6820   5.7308
     6.1280   6.4958   6.5286   6.9921   7.0693   7.2125   7.4823   7.6022
     8.1038   8.1458   8.1909   8.3381   8.5141   8.6458   8.6643   8.6681
     8.8104   8.9193

          k = 0.2500 0.3844 0.0000 ( 36557 PWs)   bands (ev):

   -38.2522 -37.9875 -23.8301 -22.8505 -22.7488 -22.6428 -18.7733 -18.6192
   -18.5555 -18.4768 -18.3831 -18.1654 -14.7613 -14.7373 -14.6331 -14.5352
   -14.5113 -14.4728 -14.4505 -14.4325 -14.1868 -14.0352 -13.9259 -13.9239
   -13.8317 -13.8167 -13.5975  -9.3543  -9.1959  -8.8842  -8.5565  -8.4673
    -8.3070  -8.2130  -8.0858  -8.0828  -8.0501  -7.9928  -7.8472  -3.6713
    -3.6015  -3.2117  -3.1099  -2.6963  -2.6793  -2.6395  -2.3742  -2.2894
    -2.1894  -2.0279  -2.0123  -1.9986  -1.9935  -1.9452  -1.7758  -1.7700
    -1.5666  -1.4558  -1.4398  -1.2423  -1.1155  -1.0024  -1.0002  -0.8652
    -0.8252  -0.7138  -0.6448  -0.5265  -0.4922  -0.4571  -0.3954  -0.3905
    -0.2576  -0.2109  -0.0043   0.1873   0.2778   0.2917   0.3646   0.5108
     0.5438   0.5912   0.6372   0.7078   0.8322   0.9184   1.1398   1.1563
     1.1737   1.1783   1.3183   1.3604   1.4324   1.4527   1.4573   1.5604
     1.5698   1.6132   1.6157   1.6303   1.6749   1.6766   1.7900   1.8486
     1.9682   1.9957   2.1088   2.1224   2.1914   2.2185   2.4167   2.4288
     3.0194   3.0379   3.5163   3.5188   3.6954   3.9114   4.1513   5.7071
     6.2993   6.6612   6.6951   6.9865   7.0673   7.3238   7.7784   7.8680
     7.9342   8.4848   8.5552   8.5829   8.9518   9.0788   9.1734   9.2359
     9.3613   9.5579

          k = 0.2500-0.5125 0.0000 ( 36598 PWs)   bands (ev):

   -38.2499 -37.9851 -23.8130 -22.8305 -22.7288 -22.6233 -18.8477 -18.6908
   -18.5497 -18.4361 -18.3761 -18.1360 -14.8050 -14.7096 -14.5462 -14.5293
   -14.4852 -14.4348 -14.4263 -14.3474 -14.2140 -14.1355 -13.9341 -13.8165
   -13.8096 -13.7959 -13.6363  -9.3427  -9.1777  -9.0227  -8.5393  -8.4519
    -8.3004  -8.2456  -8.1959  -8.1522  -8.0727  -8.0441  -7.9822  -3.8366
    -3.7651  -3.4435  -3.2805  -2.9335  -2.9181  -2.8028  -2.3630  -2.2825
    -2.1568  -2.1567  -2.1482  -2.0327  -1.9967  -1.9348  -1.8889  -1.7357
    -1.5916  -1.4755  -1.4501  -1.3651  -1.1835  -1.0265  -1.0239  -0.8415
    -0.8123  -0.7405  -0.7231  -0.6034  -0.5587  -0.5157  -0.4066  -0.3675
    -0.3274  -0.2259  -0.0106   0.1900   0.2911   0.3369   0.3823   0.5348
     0.5879   0.5900   0.6836   0.7315   0.9358   1.0353   1.1117   1.2490
     1.2589   1.2604   1.2615   1.4439   1.4532   1.5134   1.5178   1.5263
     1.5335   1.6143   1.6397   1.6934   1.7354   1.7830   1.8568   1.9430
     1.9965   2.1786   2.2190   2.2954   2.3638   2.3729   2.5961   2.6074
     2.8597   2.8803   3.5740   3.5870   3.7496   3.9481   4.3265   5.5235
     6.6123   6.6467   6.7507   6.9262   6.9889   7.1653   7.6665   8.0389
     8.0945   8.3691   9.1661   9.1680   9.1915   9.2527   9.3248   9.3860
     9.5330   9.7020

          k = 0.3750 0.0000 0.0000 ( 36578 PWs)   bands (ev):

   -38.2612 -37.9970 -23.8896 -22.9172 -22.8156 -22.7082 -18.7802 -18.6164
   -18.6037 -18.3365 -18.2519 -18.0138 -15.0320 -14.9802 -14.9516 -14.8914
   -14.7614 -14.6842 -14.5830 -14.3326 -14.1826 -14.0672 -14.0070 -13.9082
   -13.8915 -13.7485 -13.5526  -9.3330  -8.6530  -8.6302  -8.2988  -8.1692
    -8.1294  -7.8419  -7.7769  -7.7535  -7.6822  -7.6274  -7.5498  -3.0613
    -2.9519  -2.8013  -2.3029  -2.1284  -2.1092  -1.9647  -1.9612  -1.8408
    -1.7748  -1.7744  -1.7159  -1.4481  -1.2386  -1.1395  -1.0800  -1.0755
    -1.0291  -1.0104  -0.9417  -0.9207  -0.8634  -0.7982  -0.7518  -0.7279
    -0.5919  -0.5801  -0.5739  -0.4713  -0.3988  -0.3562  -0.3449  -0.2465
    -0.1519  -0.0641  -0.0491   0.0164   0.2326   0.2792   0.3242   0.3303
     0.3560   0.3580   0.5403   0.5703   0.5737   0.5813   0.6034   0.6421
     0.7199   0.7641   0.8384   0.9574   1.0424   1.1205   1.1431   1.1478
     1.2303   1.2710   1.2800   1.3249   1.3325   1.4063   1.4368   1.4583
     1.6706   1.7197   1.7467   1.7818   1.8490   1.8819   2.0344   2.1305
     2.1617   2.2371   2.3641   2.5130   2.5968   2.8070   2.8094   5.7633
     6.3862   6.4101   6.5023   7.1061   7.2250   7.4252   7.8179   7.8790
     7.9116   7.9183   8.1482   8.3592   8.4539   8.5501   8.6597   8.8466
     8.9112   8.9601

          k = 0.3750 0.1281 0.0000 ( 36524 PWs)   bands (ev):

   -38.2589 -37.9946 -23.8745 -22.9002 -22.7986 -22.6915 -18.7729 -18.6075
   -18.5708 -18.3502 -18.3243 -18.1017 -14.9667 -14.9138 -14.8991 -14.8081
   -14.6748 -14.6409 -14.5519 -14.2986 -14.2500 -14.0392 -13.9885 -13.8914
   -13.8751 -13.7597 -13.5740  -9.3156  -8.9148  -8.6334  -8.2959  -8.1691
    -8.1293  -8.0945  -8.0003  -7.8576  -7.8056  -7.7148  -7.5901  -3.1948
    -3.0996  -2.8566  -2.3517  -2.1941  -2.1414  -2.0680  -2.0547  -1.9605
    -1.9016  -1.6877  -1.6601  -1.6390  -1.6039  -1.4492  -1.4353  -1.3717
    -1.2227  -1.1256  -1.1210  -0.9992  -0.9111  -0.8913  -0.8253  -0.7994
    -0.7707  -0.6652  -0.5775  -0.4683  -0.4539  -0.2317  -0.1884  -0.0649
    -0.0528   0.0300   0.0627   0.1130   0.1720   0.2060   0.2650   0.2956
     0.3590   0.4585   0.5423   0.6406   0.6491   0.7307   0.7565   0.7613
     0.8022   0.9430   0.9803   1.0486   1.0665   1.1567   1.1613   1.2373
     1.2471   1.2744   1.2841   1.3338   1.3528   1.4741   1.4798   1.5120
     1.6474   1.6924   1.7799   1.7873   1.8381   2.0609   2.0764   2.1726
     2.7360   2.7374   2.8342   2.8843   2.9109   3.1073   3.2504   5.8636
     6.3924   6.5044   6.5343   7.0391   7.2075   7.4530   7.5706   7.7293
     7.9582   7.9699   7.9868   8.4829   8.6075   8.6862   8.7932   8.8277
     8.9432   9.0505

          k = 0.3750 0.2563 0.0000 ( 36559 PWs)   bands (ev):

   -38.2534 -37.9888 -23.8378 -22.8587 -22.7570 -22.6507 -18.7555 -18.5870
   -18.5654 -18.4875 -18.4125 -18.1670 -14.8083 -14.7742 -14.7648 -14.6213
   -14.5194 -14.5031 -14.4854 -14.4159 -14.2167 -13.9712 -13.9312 -13.8522
   -13.8375 -13.8085 -13.5939  -9.3254  -9.2332  -8.8710  -8.5009  -8.4097
    -8.2611  -8.2526  -8.1254  -8.0767  -8.0722  -7.9835  -7.8457  -3.6070
    -3.5393  -3.0873  -2.5468  -2.4712  -2.3982  -2.3273  -2.2231  -2.1395
    -2.1167  -2.0168  -1.9975  -1.9419  -1.9080  -1.8978  -1.8946  -1.7450
    -1.4311  -1.3753  -1.3752  -1.2043  -0.9611  -0.9118  -0.9049  -0.8200
    -0.7961  -0.7059  -0.5947  -0.4152  -0.3850  -0.3656  -0.3374  -0.3077
    -0.1603  -0.1597  -0.0368   0.2685   0.3008   0.3761   0.3930   0.5146
     0.5789   0.6237   0.7194   0.7733   0.8107   0.9354   1.1278   1.1313
     1.1633   1.1674   1.2376   1.2522   1.3052   1.3239   1.3474   1.4112
     1.4826   1.4857   1.5317   1.5612   1.5673   1.6101   1.6628   1.7499
     1.8692   1.8718   1.9024   1.9084   2.0614   2.0654   2.1155   2.1964
     3.0941   3.1099   3.6087   3.6090   3.6447   3.7838   4.0071   5.6884
     6.2336   6.4652   6.5085   6.9561   7.0291   7.1828   7.6703   7.8742
     8.1997   8.2176   8.2669   8.5870   8.7504   8.9957   9.0472   9.0836
     9.0950   9.3322

          k = 0.3750 0.3844 0.0000 ( 36631 PWs)   bands (ev):

   -38.2479 -37.9830 -23.8004 -22.8164 -22.7146 -22.6090 -18.7600 -18.7351
   -18.6033 -18.5573 -18.3982 -18.1075 -14.6893 -14.6355 -14.5792 -14.5255
   -14.4856 -14.4792 -14.4273 -14.3144 -14.1431 -13.9473 -13.8737 -13.8208
   -13.8156 -13.8039 -13.5761  -9.5684  -9.2251  -9.1614  -8.7652  -8.6761
    -8.5129  -8.3999  -8.3123  -8.2398  -8.1518  -8.1145  -8.0729  -4.0522
    -3.9914  -3.4498  -3.1334  -2.9024  -2.6615  -2.6516  -2.5044  -2.4251
    -2.3957  -2.3182  -2.3109  -2.0226  -2.0072  -2.0001  -1.9452  -1.8929
    -1.4975  -1.4823  -1.2617  -1.1865  -1.0848  -1.0423  -1.0361  -0.8781
    -0.8775  -0.7163  -0.6410  -0.5725  -0.5608  -0.5358  -0.3630  -0.3572
    -0.2736  -0.1225  -0.1091   0.2690   0.3842   0.4280   0.6748   0.7028
     0.7634   0.8638   0.9263   0.9708   1.1352   1.2831   1.2907   1.3093
     1.3218   1.3857   1.4039   1.4681   1.5078   1.5782   1.5929   1.5988
     1.6558   1.7207   1.7807   1.7897   1.8017   1.8284   1.9173   1.9387
     1.9999   2.0165   2.1320   2.1524   2.2822   2.3376   2.3501   2.4110
     3.0115   3.0316   4.1183   4.1570   4.1904   4.2791   4.5080   5.0948
     6.1035   6.1439   6.4848   6.6870   6.8733   7.1824   7.9473   8.0277
     8.1382   8.5036   8.7863   8.8047   8.8917   9.0755   9.2001   9.2692
     9.4402   9.4755

          k = 0.3750-0.5125 0.0000 ( 36666 PWs)   bands (ev):

   -38.2456 -37.9806 -23.7847 -22.7986 -22.6968 -22.5916 -18.8322 -18.7297
   -18.6735 -18.5535 -18.3591 -18.0755 -14.6930 -14.5928 -14.5662 -14.5020
   -14.4397 -14.4035 -14.3499 -14.2386 -14.1251 -14.0422 -13.8504 -13.8064
   -13.7922 -13.7505 -13.5641  -9.6488  -9.3277  -9.1854  -8.8430  -8.7551
    -8.5949  -8.5551  -8.4675  -8.2908  -8.2341  -8.1111  -8.0671  -4.2333
    -4.1724  -3.6181  -3.3784  -3.0724  -2.8985  -2.8897  -2.5362  -2.5247
    -2.4414  -2.4305  -2.3233  -2.0204  -2.0066  -2.0028  -1.9443  -1.9425
    -1.5594  -1.5242  -1.2778  -1.2257  -1.1581  -1.0060  -0.9889  -0.9412
    -0.9328  -0.7441  -0.7239  -0.6398  -0.6195  -0.5685  -0.4187  -0.3450
    -0.3034  -0.0909  -0.0759   0.2785   0.4155   0.4499   0.7110   0.7959
     0.8104   0.9834   1.0362   1.0873   1.2614   1.3440   1.3652   1.3838
     1.4034   1.4743   1.5038   1.5376   1.5863   1.6550   1.6690   1.7432
     1.7498   1.7607   1.8039   1.8264   1.8774   1.8934   1.9673   2.0262
     2.0910   2.1457   2.2797   2.3802   2.3917   2.5313   2.5466   2.5569
     2.8379   2.8621   4.2606   4.3294   4.3600   4.4426   4.6635   4.8600
     5.9113   5.9465   6.4676   6.6009   7.0818   7.0821   7.8199   8.1966
     8.2765   8.3376   8.8596   8.9135   9.1441   9.1783   9.1890   9.3144
     9.3443   9.5104

          k =-0.5000 0.0000 0.0000 ( 36502 PWs)   bands (ev):

   -38.2593 -37.9951 -23.8739 -22.8978 -22.7961 -22.6895 -18.8523 -18.6833
   -18.5653 -18.3094 -18.2494 -18.0112 -15.0795 -14.9997 -14.9724 -14.7933
   -14.7472 -14.7296 -14.6236 -14.3622 -14.1711 -14.1168 -13.9388 -13.8863
   -13.8857 -13.7597 -13.5937  -9.3316  -8.6240  -8.6150  -8.2993  -8.1686
    -8.1244  -7.8177  -7.7390  -7.7308  -7.6439  -7.6160  -7.5142  -3.1830
    -3.0755  -2.9161  -2.4347  -2.1541  -2.1359  -1.9586  -1.8395  -1.8071
    -1.8044  -1.7700  -1.5563  -1.5550  -1.3502  -1.2783  -1.2059  -1.0635
    -1.0546  -0.9898  -0.9897  -0.9128  -0.9091  -0.8647  -0.8471  -0.8238
    -0.6595  -0.5875  -0.5823  -0.5742  -0.5680  -0.5419  -0.3719  -0.2779
    -0.2217  -0.1061  -0.0696  -0.0497   0.2725   0.3000   0.3391   0.3417
     0.3504   0.3524   0.4829   0.5846   0.5925   0.5959   0.6274   0.6768
     0.6805   0.6831   0.9145   1.0610   1.0990   1.1445   1.1610   1.2040
     1.2203   1.2840   1.2870   1.3141   1.3479   1.4082   1.4294   1.4413
     1.7131   1.7294   1.7666   1.7814   1.8973   1.9032   2.1144   2.1470
     2.2249   2.2557   2.3678   2.5021   2.5492   2.7948   2.8201   6.2538
     6.4291   7.0981   7.1167   7.1850   7.2536   7.2645   7.4502   7.7211
     7.9005   7.9923   8.1354   8.4873   8.5451   8.6893   9.0401   9.0884
     9.1833   9.3062

          k =-0.5000 0.1281 0.0000 ( 36528 PWs)   bands (ev):

   -38.2571 -37.9927 -23.8594 -22.8817 -22.7799 -22.6735 -18.8446 -18.6747
   -18.5330 -18.3470 -18.3007 -18.0945 -15.0126 -14.9456 -14.9185 -14.7060
   -14.6773 -14.6397 -14.5914 -14.3283 -14.2378 -14.0775 -13.9087 -13.8674
   -13.8659 -13.7635 -13.6207  -9.3132  -8.8167  -8.7384  -8.2934  -8.1637
    -8.1218  -7.9525  -7.9500  -7.8659  -7.8552  -7.7411  -7.7181  -3.3230
    -3.2286  -2.9795  -2.4858  -2.1898  -2.1555  -2.0469  -2.0397  -1.9490
    -1.7703  -1.7148  -1.6817  -1.6630  -1.6608  -1.6153  -1.5306  -1.4306
    -1.2482  -1.1330  -1.1235  -1.0258  -0.9708  -0.8797  -0.8260  -0.7903
    -0.7422  -0.7323  -0.6276  -0.5582  -0.4941  -0.2820  -0.2517  -0.1133
    -0.0807  -0.0442   0.0424   0.0425   0.1367   0.2148   0.2819   0.3098
     0.3521   0.5071   0.5523   0.6405   0.6429   0.7462   0.7896   0.8410
     0.8449   0.9435   0.9771   1.0129   1.1334   1.1627   1.2157   1.2286
     1.2717   1.3021   1.3201   1.3228   1.3250   1.4434   1.4529   1.5199
     1.7031   1.7372   1.7736   1.7851   1.8842   2.0601   2.2168   2.2455
     2.7592   2.7605   2.8357   2.8781   2.9067   3.1306   3.2335   6.1719
     6.4933   6.8207   6.9347   6.9832   7.3904   7.4789   7.5374   7.6126
     7.6584   7.8275   8.1266   8.5732   8.8888   8.9598   9.1279   9.1640
     9.2124   9.2351

          k =-0.5000 0.2563 0.0000 ( 36566 PWs)   bands (ev):

   -38.2516 -37.9870 -23.8240 -22.8422 -22.7404 -22.6346 -18.8258 -18.6540
   -18.5610 -18.4513 -18.4072 -18.1405 -14.8553 -14.7809 -14.7765 -14.5978
   -14.5140 -14.4932 -14.4197 -14.4005 -14.2467 -13.9777 -13.8468 -13.8278
   -13.8087 -13.7945 -13.6418  -9.2851  -9.2248  -9.0307  -8.4252  -8.3319
    -8.2634  -8.2581  -8.1991  -8.1771  -8.1315  -8.0735  -8.0296  -3.7495
    -3.6810  -3.2230  -2.6915  -2.4590  -2.4084  -2.3423  -2.2136  -2.1523
    -2.1395  -2.1364  -2.1104  -1.9398  -1.9106  -1.8991  -1.8908  -1.8282
    -1.4110  -1.3785  -1.3656  -1.2823  -0.9273  -0.9220  -0.8687  -0.7744
    -0.7481  -0.7363  -0.6206  -0.4286  -0.4216  -0.3621  -0.3566  -0.3518
    -0.1790  -0.1682  -0.0563   0.2958   0.3060   0.4255   0.4740   0.5742
     0.6447   0.6951   0.7074   0.8190   0.8457   1.0926   1.1236   1.1750
     1.2157   1.2522   1.2549   1.2996   1.3256   1.3851   1.3984   1.4186
     1.4474   1.4780   1.4904   1.5037   1.6187   1.6318   1.7962   1.8368
     1.8382   1.8590   1.8895   1.8909   1.9470   2.0752   2.1844   2.3061
     3.0919   3.1069   3.6250   3.7230   3.7439   3.8786   4.0863   5.5031
     6.4166   6.4669   6.5906   6.8666   6.8979   7.0721   7.8166   8.0585
     8.3056   8.3148   8.3240   8.5171   8.9823   9.0332   9.2500   9.2921
     9.3073   9.3479

          k =-0.5000 0.3844 0.0000 ( 36670 PWs)   bands (ev):

   -38.2461 -37.9812 -23.7880 -22.8021 -22.7003 -22.5949 -18.8071 -18.7519
   -18.6332 -18.5913 -18.3638 -18.0780 -14.7150 -14.6065 -14.5715 -14.5249
   -14.4673 -14.4580 -14.4431 -14.1815 -14.1698 -13.9091 -13.8501 -13.8124
   -13.7982 -13.7321 -13.5807  -9.6288  -9.3183  -9.2166  -8.8148  -8.7254
    -8.5670  -8.5573  -8.4710  -8.3008  -8.2528  -8.1286  -8.0828  -4.2107
    -4.1519  -3.5901  -3.1214  -3.0427  -2.6493  -2.6398  -2.5387  -2.5383
    -2.4586  -2.4310  -2.3396  -2.0457  -2.0200  -2.0063  -1.9406  -1.9299
    -1.5450  -1.4907  -1.1784  -1.1278  -1.0983  -1.0806  -1.0803  -0.8403
    -0.8374  -0.7846  -0.6436  -0.5842  -0.5722  -0.5355  -0.4015  -0.3592
    -0.3120  -0.0718  -0.0569   0.2695   0.4161   0.5428   0.7374   0.8288
     0.8614   1.0058   1.0932   1.1595   1.2350   1.3213   1.3482   1.3521
     1.3592   1.4246   1.4595   1.4984   1.5444   1.6436   1.7086   1.7102
     1.7182   1.7536   1.7871   1.7930   1.8448   1.8449   1.8459   1.9848
     2.1035   2.1390   2.1562   2.1642   2.2247   2.3007   2.3122   2.5553
     3.0096   3.0298   4.1205   4.3777   4.4070   4.4836   4.7095   4.8444
     5.8643   5.9053   6.4486   6.5819   7.0117   7.0598   8.0252   8.1586
     8.2694   8.3870   8.6722   8.7589   9.0765   9.1661   9.1948   9.2915
     9.4466   9.4484

          k =-0.5000-0.5125 0.0000 ( 36660 PWs)   bands (ev):

   -38.2438 -37.9788 -23.7729 -22.7852 -22.6834 -22.5783 -18.8257 -18.7993
   -18.6663 -18.6246 -18.3255 -18.0459 -14.6585 -14.6435 -14.5157 -14.4726
   -14.4256 -14.4018 -14.3514 -14.1430 -14.0887 -14.0033 -13.8102 -13.8053
   -13.7904 -13.6975 -13.5333  -9.7765  -9.4369  -9.1974  -8.9658  -8.8775
    -8.7149  -8.6750  -8.5884  -8.4082  -8.2489  -8.1279  -8.0778  -4.3983
    -4.3413  -3.7585  -3.3690  -3.2118  -2.8864  -2.8775  -2.6700  -2.5679
    -2.5413  -2.4864  -2.3629  -2.0685  -2.0073  -1.9945  -1.9651  -1.9368
    -1.6104  -1.5154  -1.1818  -1.1769  -1.1732  -1.0747  -1.0642  -0.8921
    -0.8854  -0.8136  -0.7334  -0.6667  -0.6555  -0.4954  -0.4174  -0.3951
    -0.3623  -0.0264  -0.0138   0.2806   0.4609   0.5615   0.7554   0.9315
     0.9984   1.2212   1.2354   1.2583   1.3637   1.3651   1.4002   1.4129
     1.4162   1.4647   1.4690   1.6184   1.6494   1.6941   1.7823   1.8393
     1.8770   1.8821   1.8918   1.9087   1.9460   1.9636   1.9848   2.0151
     2.0272   2.2886   2.3810   2.4012   2.4117   2.5076   2.5192   2.7087
     2.8322   2.8570   4.2540   4.5875   4.6025   4.6236   4.7102   4.9247
     5.6208   5.6558   6.3477   6.4867   7.0469   7.0873   8.0325   8.2744
     8.3160   8.3790   8.5836   8.7431   8.9757   9.0478   9.0772   9.1125
     9.3521   9.3748

     the Fermi energy is     2.8174 ev

!    total energy              =   -1868.75944741 Ry
     Harris-Foulkes estimate   =   -1868.75944774 Ry
     estimated scf accuracy    <       0.00000048 Ry

     The total energy is the sum of the following terms:

     one-electron contribution =  -27227.81683202 Ry
     hartree contribution      =   13766.59474265 Ry
     xc contribution           =    -642.22009566 Ry
     ewald contribution        =   12234.69116191 Ry
     smearing contrib. (-TS)   =      -0.00842430 Ry

     convergence has been achieved in  36 iterations

     negative rho (up, down):  9.052E-02 0.000E+00

     Forces acting on atoms (cartesian axes, Ry/au):

     atom    1 type  3   force =     0.00000000    0.00000000   -0.00004292
     atom    2 type  2   force =     0.00000000    0.00000000    0.00034693
     atom    3 type  3   force =     0.00000000    0.00000000   -0.00012746
     atom    4 type  1   force =     0.00000000    0.00000000   -0.00013052
     atom    5 type  2   force =     0.00000000    0.00000000   -0.00092215
     atom    6 type  3   force =     0.00000000    0.00000000    0.00028791
     atom    7 type  3   force =     0.00000000    0.00000000   -0.00004829
     atom    8 type  4   force =     0.00000000    0.00000000   -0.00062199
     atom    9 type  3   force =     0.00000000    0.00000000    0.00091004
     atom   10 type  3   force =     0.00000000    0.00000000    0.00127429
     atom   11 type  2   force =     0.00000000    0.00000000   -0.00130441
     atom   12 type  1   force =     0.00000000    0.00000000   -0.00431904
     atom   13 type  3   force =     0.00000000    0.00000000    0.00270902
     atom   14 type  3   force =     0.00000000    0.00000000    0.01435695
     atom   15 type  2   force =     0.00000000    0.00000000   -0.01029259
     atom   16 type  3   force =     0.00000000    0.00000000    0.02904477
     atom   17 type  1   force =     0.00000000    0.00000000   -0.02630949
     atom   18 type  2   force =     0.00000000    0.00000000    0.00504785
     atom   19 type  3   force =     0.00000000    0.00000000    0.02543859
     atom   20 type  3   force =     0.00000000    0.00000000    0.01618354
     atom   21 type  4   force =     0.00000000    0.00000000   -0.10155655
     atom   22 type  3   force =     0.00000000    0.00000000    0.01625210
     atom   23 type  3   force =     0.00000000    0.00000000    0.01877100
     atom   24 type  2   force =     0.00000000    0.00000000    0.00536810
     atom   25 type  1   force =     0.00000000    0.00000000    0.01131851
     atom   26 type  3   force =     0.00000000    0.00000000   -0.00042490
     atom   27 type  2   force =     0.00000000    0.00000000    0.00013349
     atom   28 type  3   force =     0.00000000    0.00000000   -0.00134277

     Total force =     0.114438     Total SCF correction =     0.002003


     Computing stress (Cartesian axis) and pressure


     negative rho (up, down):  9.052E-02 0.000E+00
          total   stress  (Ry/bohr**3)                   (kbar)     P=       -5.12
  -0.00007229   0.00000000   0.00000000          -10.63        0.00        0.00
   0.00000000  -0.00002608   0.00000000            0.00       -3.84        0.00
   0.00000000   0.00000000  -0.00000599            0.00        0.00       -0.88


     BFGS Geometry Optimization

     number of scf cycles    =   1
     number of bfgs steps    =   0

     energy   new            =   -1868.7594474111 Ry

     new trust radius        =       0.1015565509 bohr
     new conv_thr            =       0.0000010000 Ry


ATOMIC_POSITIONS (angstrom)
O             0.0000000000        1.8966400000       -0.1003100000    0   0   0
Cu            0.0000000000        0.0000000000        0.0839000000    0   0   0
O             0.0000000000        0.0000000000        1.9725500000    0   0   0
Ba            1.9441200000        1.8966400000        2.0684200000    0   0   0
Cu            0.0000000000        0.0000000000        4.0810400000    0   0   0
O             1.9441200000        0.0000000000        4.3476700000    0   0   0
O             0.0000000000        1.8966400000        4.3832700000    0   0   0
Y             1.9441200000        1.8966400000        5.8085600000    0   0   0
O             0.0000000000        1.8966400000        7.1922400000    0   0   0
O             1.9441200000        0.0000000000        7.2681800000    0   0   0
Cu            0.0000000000        0.0000000000        7.5500200000    0   0   0
Ba            1.9441200000        1.8966400000        9.5363300000    0   0   0
O             0.0000000000        0.0000000000        9.7608400000    0   0   0
O             0.0000000000        1.8966400000       11.6600673696
Cu            0.0000000000        0.0000000000       11.6470433937
O             0.0000000000        0.0000000000       13.5593998291
Ba            1.9441200000        1.8966400000       13.7545876154
Cu            0.0000000000        0.0000000000       18.7575812093
O             1.9441200000        0.0000000000       19.0501615234
O             0.0000000000        1.8966400000       19.1211339591
Y             1.9441200000        1.8966400000       20.5925185879
O             0.0000000000        1.8966400000       21.9215500000    0   0   0
O             1.9441200000        0.0000000000       21.9572000000    0   0   0
Cu            0.0000000000        0.0000000000       22.2238500000    0   0   0
Ba            1.9441200000        1.8966400000       24.2364100000    0   0   0
O             0.0000000000        0.0000000000       24.3322800000    0   0   0
Cu            0.0000000000        0.0000000000       26.2208200000    0   0   0
O             0.0000000000        1.8966400000       26.4050500000    0   0   0


     NEW-OLD atomic charge density approx. for the potential

     negative rho (up, down):  9.076E-02 0.000E+00

     total cpu time spent up to now is      684.8 secs

     Self-consistent Calculation

     iteration #  1     ecut=    60.00 Ry     beta= 0.20
     Davidson diagonalization with overlap
     ethr =  1.00E-06,  avg # of iterations =  6.0

     negative rho (up, down):  9.068E-02 0.000E+00

     total cpu time spent up to now is      720.6 secs

     total energy              =   -1868.77036392 Ry
     Harris-Foulkes estimate   =   -1868.77052422 Ry
     estimated scf accuracy    <       0.00571952 Ry

     iteration #  2     ecut=    60.00 Ry     beta= 0.20
     Davidson diagonalization with overlap
     ethr =  2.50E-06,  avg # of iterations =  1.0

     negative rho (up, down):  9.062E-02 0.000E+00

     total cpu time spent up to now is      735.8 secs

     total energy              =   -1868.77060040 Ry
     Harris-Foulkes estimate   =   -1868.77051308 Ry
     estimated scf accuracy    <       0.00281629 Ry

     iteration #  3     ecut=    60.00 Ry     beta= 0.20
     Davidson diagonalization with overlap
     ethr =  1.23E-06,  avg # of iterations =  2.0

     negative rho (up, down):  9.063E-02 0.000E+00

     total cpu time spent up to now is      752.2 secs

     total energy              =   -1868.77058146 Ry
     Harris-Foulkes estimate   =   -1868.77061353 Ry
     estimated scf accuracy    <       0.00173745 Ry

     iteration #  4     ecut=    60.00 Ry     beta= 0.20
     Davidson diagonalization with overlap
     ethr =  7.59E-07,  avg # of iterations =  1.8

     negative rho (up, down):  9.066E-02 0.000E+00

     total cpu time spent up to now is      768.5 secs

     total energy              =   -1868.77064052 Ry
     Harris-Foulkes estimate   =   -1868.77060960 Ry
     estimated scf accuracy    <       0.00087210 Ry

     iteration #  5     ecut=    60.00 Ry     beta= 0.20
     Davidson diagonalization with overlap
     ethr =  3.81E-07,  avg # of iterations =  2.3

     negative rho (up, down):  9.065E-02 0.000E+00

     total cpu time spent up to now is      785.4 secs

     total energy              =   -1868.77069905 Ry
     Harris-Foulkes estimate   =   -1868.77065606 Ry
     estimated scf accuracy    <       0.00050352 Ry

     iteration #  6     ecut=    60.00 Ry     beta= 0.20
     Davidson diagonalization with overlap
     ethr =  2.20E-07,  avg # of iterations =  1.7

     negative rho (up, down):  9.066E-02 0.000E+00

     total cpu time spent up to now is      801.0 secs

     total energy              =   -1868.77074062 Ry
     Harris-Foulkes estimate   =   -1868.77070628 Ry
     estimated scf accuracy    <       0.00043093 Ry

     iteration #  7     ecut=    60.00 Ry     beta= 0.20
     Davidson diagonalization with overlap
     ethr =  1.88E-07,  avg # of iterations =  1.9

     negative rho (up, down):  9.060E-02 0.000E+00

     total cpu time spent up to now is      817.1 secs

     total energy              =   -1868.77082143 Ry
     Harris-Foulkes estimate   =   -1868.77075153 Ry
     estimated scf accuracy    <       0.00011687 Ry

     iteration #  8     ecut=    60.00 Ry     beta= 0.20
     Davidson diagonalization with overlap
     ethr =  5.10E-08,  avg # of iterations =  1.4

     negative rho (up, down):  9.051E-02 0.000E+00

     total cpu time spent up to now is      832.4 secs

     total energy              =   -1868.77088989 Ry
     Harris-Foulkes estimate   =   -1868.77082304 Ry
     estimated scf accuracy    <       0.00007832 Ry

     iteration #  9     ecut=    60.00 Ry     beta= 0.20
     Davidson diagonalization with overlap
     ethr =  3.42E-08,  avg # of iterations =  1.8

     negative rho (up, down):  9.049E-02 0.000E+00

     total cpu time spent up to now is      848.2 secs

     total energy              =   -1868.77092828 Ry
     Harris-Foulkes estimate   =   -1868.77089256 Ry
     estimated scf accuracy    <       0.00001705 Ry

     iteration # 10     ecut=    60.00 Ry     beta= 0.20
     Davidson diagonalization with overlap
     ethr =  7.45E-09,  avg # of iterations =  2.2

     negative rho (up, down):  9.049E-02 0.000E+00

     total cpu time spent up to now is      865.0 secs

     total energy              =   -1868.77095076 Ry
     Harris-Foulkes estimate   =   -1868.77092911 Ry
     estimated scf accuracy    <       0.00000818 Ry

     iteration # 11     ecut=    60.00 Ry     beta= 0.20
     Davidson diagonalization with overlap
     ethr =  3.57E-09,  avg # of iterations =  2.2

     negative rho (up, down):  9.049E-02 0.000E+00

     total cpu time spent up to now is      881.3 secs

     total energy              =   -1868.77096730 Ry
     Harris-Foulkes estimate   =   -1868.77095112 Ry
     estimated scf accuracy    <       0.00000484 Ry

     iteration # 12     ecut=    60.00 Ry     beta= 0.20
     Davidson diagonalization with overlap
     ethr =  2.11E-09,  avg # of iterations =  1.7

     negative rho (up, down):  9.050E-02 0.000E+00

     total cpu time spent up to now is      897.1 secs

     total energy              =   -1868.77097811 Ry
     Harris-Foulkes estimate   =   -1868.77096746 Ry
     estimated scf accuracy    <       0.00000220 Ry

     iteration # 13     ecut=    60.00 Ry     beta= 0.20
     Davidson diagonalization with overlap
     ethr =  9.59E-10,  avg # of iterations =  2.0

     negative rho (up, down):  9.050E-02 0.000E+00

     total cpu time spent up to now is      913.2 secs

     total energy              =   -1868.77098539 Ry
     Harris-Foulkes estimate   =   -1868.77097818 Ry
     estimated scf accuracy    <       0.00000150 Ry

     iteration # 14     ecut=    60.00 Ry     beta= 0.20
     Davidson diagonalization with overlap
     ethr =  6.54E-10,  avg # of iterations =  2.0

     negative rho (up, down):  9.054E-02 0.000E+00

     total cpu time spent up to now is      928.4 secs

     End of self-consistent calculation

          k = 0.0000 0.0000 0.0000 ( 36431 PWs)   bands (ev):

   -38.2830 -37.9653 -23.8964 -22.9832 -22.9345 -22.8472 -18.8180 -18.5094
   -18.2874 -18.2779 -17.9937 -17.9792 -15.6130 -15.3772 -14.8505 -14.6536
   -14.4473 -14.4281 -14.4194 -14.3982 -14.2185 -14.1370 -13.9233 -13.9175
   -13.7027 -13.6084 -13.5372  -9.2003  -8.7344  -8.7143  -8.2182  -8.1604
    -8.1200  -7.9706  -7.9443  -7.9269  -7.9002  -7.8006  -7.7784  -2.2415
    -2.2074  -2.1801  -2.1667  -2.0719  -2.0370  -2.0188  -1.9518  -1.9268
    -1.9015  -1.8763  -1.5545  -1.4284  -1.0650  -1.0434  -0.8557  -0.6687
    -0.6248  -0.6173  -0.5397  -0.5166  -0.2648  -0.2383  -0.2283  -0.1999
    -0.1917  -0.0789  -0.0721  -0.0265  -0.0221  -0.0185   0.0706   0.1243
     0.1284   0.1302   0.1483   0.2228   0.2243   0.2364   0.2377   0.2572
     0.3443   0.3731   0.3812   0.3860   0.4073   0.4917   0.5030   0.6806
     0.7460   0.8246   0.9060   0.9297   0.9729   1.0712   1.0732   1.1177
     1.1840   1.1970   1.2182   1.2637   1.3226   1.3441   1.3805   1.4345
     1.6398   1.7820   1.7943   1.8013   1.8267   1.9431   1.9891   2.0251
     2.0660   2.0765   2.1933   2.2207   2.2416   2.4944   2.5110   4.5648
     5.1066   5.1343   5.4398   5.6943   5.9907   6.3467   6.5082   6.5318
     6.9834   7.3739   7.6301   7.7983   7.9961   8.0160   8.1920   8.2713
     8.3964   8.4772

          k = 0.0000 0.1281 0.0000 ( 36471 PWs)   bands (ev):

   -38.2807 -37.9629 -23.8782 -22.9616 -22.9129 -22.8265 -18.7821 -18.4773
   -18.3822 -18.2842 -18.0853 -17.9904 -15.5042 -15.2795 -14.8034 -14.6619
   -14.4672 -14.4288 -14.4055 -14.3676 -14.2023 -14.1831 -13.9291 -13.9228
   -13.7605 -13.6859 -13.5649  -9.1846  -8.7457  -8.6811  -8.2016  -8.1423
    -8.1094  -7.9636  -7.9295  -7.9197  -7.8856  -7.7985  -7.7619  -2.3925
    -2.3429  -2.3150  -2.1921  -2.1419  -2.0246  -2.0201  -1.9414  -1.8912
    -1.8812  -1.8608  -1.6688  -1.5946  -1.4126  -1.1436  -1.1370  -0.9929
    -0.9841  -0.8134  -0.5918  -0.5695  -0.5407  -0.4373  -0.4218  -0.3395
    -0.2892  -0.2846  -0.2799  -0.2609  -0.2039  -0.1720  -0.0511   0.0060
     0.0895   0.1292   0.1355   0.2727   0.2823   0.3674   0.3693   0.3782
     0.3860   0.3981   0.4458   0.4655   0.5583   0.6506   0.6827   0.6893
     0.7594   0.7608   0.7938   0.8797   1.0024   1.0065   1.0305   1.0659
     1.2282   1.3099   1.3368   1.3770   1.4390   1.4466   1.5110   1.5170
     1.5755   1.7024   1.7204   1.7781   1.8028   1.8557   1.9683   1.9806
     1.9857   2.0522   2.2962   2.4744   2.7360   2.8144   2.8449   4.7820
     5.4825   5.4969   5.7047   5.9684   6.2384   6.5619   6.8250   6.8427
     7.2302   7.6097   7.8169   7.9555   8.0279   8.1581   8.2166   8.3048
     8.4079   8.6368

          k = 0.0000 0.2563 0.0000 ( 36496 PWs)   bands (ev):

   -38.2751 -37.9571 -23.8337 -22.9087 -22.8599 -22.7754 -18.6910 -18.6072
   -18.4274 -18.2807 -18.2765 -17.9825 -15.2561 -15.0711 -14.7377 -14.6783
   -14.5757 -14.4867 -14.3892 -14.3019 -14.2488 -14.1114 -13.9103 -13.9002
   -13.8958 -13.8791 -13.6180  -9.1420  -8.7712  -8.5986  -8.1617  -8.1006
    -8.0807  -8.0038  -7.9607  -7.8421  -7.8267  -7.7824  -7.6652  -2.7938
    -2.7714  -2.6466  -2.5209  -2.1948  -2.1774  -2.1689  -2.0504  -2.0297
    -1.9287  -1.9037  -1.8982  -1.8182  -1.8079  -1.6597  -1.4293  -1.3710
    -1.0358  -0.9677  -0.9349  -0.8230  -0.7797  -0.7125  -0.6755  -0.6438
    -0.5563  -0.5172  -0.5082  -0.4578  -0.4088  -0.2736  -0.2676  -0.2155
    -0.2082  -0.0707  -0.0220   0.0214   0.1633   0.2294   0.3172   0.3253
     0.4134   0.4215   0.4398   0.4410   0.5163   0.6087   0.8334   0.8898
     0.9283   0.9765   1.0104   1.0294   1.1494   1.1824   1.2076   1.2243
     1.3361   1.3499   1.3692   1.4446   1.4553   1.5289   1.5705   1.5810
     1.6324   1.6685   1.6718   1.8143   1.9349   2.0401   2.0667   2.0960
     2.1042   2.1223   2.4631   2.6010   3.1197   3.1253   3.5889   5.2933
     6.3708   6.3748   6.3865   6.6345   6.9166   6.9785   7.6783   7.6935
     7.8165   7.8255   7.9264   8.0987   8.1812   8.3902   8.5067   8.6080
     8.6802   8.8222

          k = 0.0000 0.3844 0.0000 ( 36396 PWs)   bands (ev):

   -38.2695 -37.9513 -23.7882 -22.8543 -22.8053 -22.7230 -18.8051 -18.5927
   -18.5576 -18.2687 -18.2595 -17.9745 -15.0063 -14.8969 -14.8803 -14.7101
   -14.5971 -14.5103 -14.4434 -14.2767 -14.2485 -14.0973 -14.0154 -13.9479
   -13.8539 -13.8410 -13.6793  -9.0899  -8.7986  -8.5129  -8.1223  -8.0625
    -8.0450  -8.0356  -7.9937  -7.8822  -7.7181  -7.6734  -7.5634  -3.2629
    -3.1577  -3.1266  -2.9039  -2.7364  -2.7251  -2.5223  -2.0826  -2.0768
    -1.9777  -1.9409  -1.8488  -1.8438  -1.7746  -1.7190  -1.7132  -1.3925
    -1.2083  -1.0978  -1.0821  -1.0002  -0.9388  -0.9218  -0.9033  -0.8515
    -0.7581  -0.7495  -0.7450  -0.5886  -0.5697  -0.4591  -0.4519  -0.4316
    -0.3574  -0.2456  -0.2340  -0.2059  -0.0535   0.0711   0.1410   0.2704
     0.3979   0.4157   0.4630   0.4637   0.5934   0.7828   0.7960   0.8973
     0.9753   0.9787   1.0394   1.1128   1.2042   1.2296   1.2708   1.3016
     1.3367   1.4113   1.4231   1.4621   1.5574   1.6112   1.7461   1.8218
     1.8642   1.9606   1.9617   1.9982   2.0713   2.1040   2.1237   2.1946
     2.4414   2.5029   2.5118   2.5260   3.0901   3.0972   4.1431   5.9179
     6.6559   7.2419   7.2845   7.4421   7.5313   7.7130   7.7144   7.9085
     7.9967   8.3606   8.4553   8.5005   8.6500   8.7232   8.8324   8.9065
     9.0051   9.2827

          k = 0.0000-0.5125 0.0000 ( 36494 PWs)   bands (ev):

   -38.2672 -37.9489 -23.7690 -22.8313 -22.7823 -22.7009 -18.8811 -18.6312
   -18.5496 -18.2655 -18.2223 -17.9711 -14.9603 -14.8748 -14.8595 -14.7409
   -14.6624 -14.4797 -14.3714 -14.3333 -14.2326 -14.2166 -14.0529 -13.8283
   -13.8098 -13.8012 -13.7684  -9.0640  -8.8124  -8.4763  -8.1062  -8.0480
    -8.0466  -8.0265  -8.0054  -7.8996  -7.6712  -7.6263  -7.5197  -3.5065
    -3.3043  -3.2748  -3.0376  -2.9750  -2.9570  -2.6537  -2.1173  -2.1115
    -2.0377  -1.9976  -1.8575  -1.8168  -1.6973  -1.6426  -1.6145  -1.6076
    -1.2727  -1.1899  -1.1892  -1.1463  -1.0841  -0.9366  -0.8878  -0.8537
    -0.8351  -0.7879  -0.7676  -0.6820  -0.6320  -0.5461  -0.5389  -0.4798
    -0.4481  -0.4378  -0.3280  -0.2437  -0.0445  -0.0423   0.0703   0.3408
     0.3880   0.3886   0.4683   0.4696   0.4720   0.7762   0.8980   0.9455
     0.9537   1.0033   1.0327   1.1965   1.2125   1.2646   1.3245   1.3717
     1.3741   1.3783   1.3847   1.4402   1.5694   1.5939   1.8741   1.8957
     1.9549   1.9788   2.0218   2.1607   2.2132   2.2797   2.3101   2.3672
     2.3758   2.3782   2.6653   2.6742   2.9527   2.9609   4.3268   6.3248
     6.6007   7.4373   7.6357   7.6704   7.7552   7.7675   7.9580   7.9699
     8.1665   8.3572   8.7416   8.8742   8.9753   9.0309   9.0435   9.0476
     9.2393   9.4271

          k = 0.1250 0.0000 0.0000 ( 36458 PWs)   bands (ev):

   -38.2812 -37.9634 -23.8812 -22.9648 -22.9161 -22.8296 -18.7855 -18.4791
   -18.3874 -18.2754 -18.0964 -17.9766 -15.4976 -15.2701 -14.8731 -14.6800
   -14.5075 -14.4674 -14.4206 -14.3762 -14.2119 -14.1664 -13.9252 -13.9181
   -13.7624 -13.6432 -13.5521  -9.2216  -8.7073  -8.6728  -8.2280  -8.1701
    -8.1371  -7.9359  -7.9102  -7.8918  -7.8659  -7.7636  -7.7463  -2.3559
    -2.3308  -2.2421  -2.1580  -2.1305  -2.0158  -2.0054  -1.9411  -1.9221
    -1.8953  -1.8408  -1.6088  -1.5400  -1.0885  -1.0316  -0.8578  -0.7066
    -0.6334  -0.6194  -0.6118  -0.5703  -0.4460  -0.3275  -0.3267  -0.3198
    -0.3132  -0.3015  -0.2093  -0.2086  -0.1177  -0.0576  -0.0317  -0.0011
     0.0220   0.2297   0.2438   0.2477   0.2504   0.3161   0.3510   0.3529
     0.3562   0.3834   0.3861   0.3902   0.4972   0.4973   0.5181   0.5258
     0.8084   0.8228   0.8311   0.8497   0.9054   1.0308   1.0769   1.0864
     1.0887   1.1257   1.1661   1.2846   1.3117   1.3692   1.4962   1.5619
     1.6333   1.6827   1.6835   1.8146   1.9070   1.9436   1.9548   1.9719
     2.0691   2.1168   2.1778   2.2904   2.4961   2.5389   2.5544   4.7529
     5.3034   5.3165   5.6330   5.9192   6.2077   6.5016   6.7478   6.7677
     7.1969   7.5951   7.8234   7.9966   8.0870   8.1557   8.2541   8.3474
     8.4897   8.7259

          k = 0.1250 0.1281 0.0000 ( 36476 PWs)   bands (ev):

   -38.2789 -37.9611 -23.8635 -22.9440 -22.8953 -22.8095 -18.7501 -18.4484
   -18.3913 -18.3703 -18.0930 -18.0797 -15.3897 -15.1754 -14.8236 -14.6778
[...]
    -8.3544  -8.2105  -8.1620  -8.0508  -8.0210  -8.0060  -7.9371  -3.5820
    -3.3364  -3.1312  -2.8448  -2.5871  -2.3650  -2.2650  -2.2516  -2.1528
    -2.1403  -2.0950  -2.0412  -1.9371  -1.9335  -1.8914  -1.7868  -1.7783
    -1.5177  -1.4491  -1.3185  -1.2150  -1.0045  -0.9575  -0.8650  -0.8304
    -0.7871  -0.7152  -0.5725  -0.4955  -0.4148  -0.3656  -0.3573  -0.3310
    -0.1935  -0.1905  -0.1226   0.2240   0.2370   0.3152   0.5142   0.5696
     0.5845   0.6976   0.7218   0.7808   0.7881   0.8903   1.0933   1.1269
     1.1362   1.1924   1.2219   1.2259   1.2666   1.3221   1.3294   1.3804
     1.3856   1.4888   1.4894   1.4964   1.5457   1.5659   1.6267   1.6996
     1.7816   1.8219   1.8466   1.8719   1.8910   1.9847   2.0490   2.0560
     3.0736   3.0828   3.5190   3.5951   3.6865   3.7406   3.8483   5.5257
     6.4721   6.4927   6.5207   6.9276   7.1163   7.5325   7.6487   8.1574
     8.1897   8.2366   8.5942   8.7609   8.8477   8.9061   9.0275   9.1363
     9.2158   9.3381

          k = 0.3750 0.3844 0.0000 ( 36631 PWs)   bands (ev):

   -38.2943 -37.8691 -23.3230 -22.7879 -22.7516 -22.6585 -18.8062 -18.7808
   -18.4548 -18.4451 -18.4224 -17.9946 -14.7337 -14.6615 -14.6239 -14.5737
   -14.5327 -14.3743 -14.3594 -14.3050 -14.1894 -13.9754 -13.9643 -13.8413
   -13.8395 -13.7525 -13.6970  -9.1477  -8.8632  -8.7408  -8.7131  -8.6279
    -8.6228  -8.3493  -8.3010  -8.2670  -8.2144  -8.1491  -8.0384  -4.0339
    -3.7891  -3.4939  -3.2342  -3.2163  -2.6895  -2.6871  -2.4631  -2.4394
    -2.3600  -2.3530  -2.1969  -2.1753  -2.0430  -2.0304  -1.9364  -1.8854
    -1.6650  -1.4351  -1.3036  -1.1436  -1.1015  -1.0838  -0.9662  -0.9152
    -0.8650  -0.7648  -0.6805  -0.5989  -0.5740  -0.5079  -0.4820  -0.3906
    -0.2753  -0.1432  -0.1334   0.2042   0.3367   0.3768   0.6463   0.7367
     0.8295   0.9701   0.9861   1.0346   1.1482   1.2598   1.2730   1.3031
     1.3413   1.3763   1.4625   1.4772   1.5348   1.5496   1.5561   1.6112
     1.6368   1.7029   1.7343   1.7431   1.7837   1.7980   1.8203   1.8611
     1.8813   1.9056   1.9335   2.1175   2.1269   2.2477   2.3145   2.3145
     2.9959   3.0003   4.0102   4.1425   4.2397   4.2500   4.3564   4.9413
     6.1076   6.1436   6.4939   6.6378   7.1940   7.5860   7.9949   8.1659
     8.4832   8.7223   8.7710   8.8364   8.8646   9.1375   9.2037   9.2840
     9.3728   9.5610

          k = 0.3750-0.5125 0.0000 ( 36666 PWs)   bands (ev):

   -38.2920 -37.8667 -23.3069 -22.7706 -22.7338 -22.6407 -18.8783 -18.7755
   -18.5304 -18.4171 -18.4060 -17.9552 -14.7392 -14.6372 -14.5431 -14.5098
   -14.4776 -14.3678 -14.3450 -14.2843 -14.1691 -13.9996 -13.9045 -13.8288
   -13.8278 -13.6981 -13.6957  -9.2303  -8.9075  -8.7959  -8.7921  -8.7506
    -8.7070  -8.5044  -8.4273  -8.4225  -8.2116  -8.1425  -8.0328  -4.2146
    -3.9729  -3.6624  -3.4747  -3.3882  -2.9285  -2.9252  -2.5813  -2.4784
    -2.3798  -2.3651  -2.3183  -2.2094  -2.0386  -2.0255  -1.9849  -1.8820
    -1.7155  -1.4748  -1.3181  -1.2157  -1.1441  -1.0488  -0.9689  -0.9657
    -0.8920  -0.7923  -0.7691  -0.6742  -0.6557  -0.5610  -0.4900  -0.4027
    -0.2545  -0.1106  -0.1073   0.2119   0.3559   0.4131   0.6587   0.7796
     0.9397   1.0389   1.1198   1.1642   1.2767   1.3082   1.4016   1.4147
     1.4169   1.4708   1.5224   1.5680   1.6298   1.6668   1.6825   1.6828
     1.7307   1.7597   1.7711   1.8147   1.8157   1.8500   1.8681   1.9315
     1.9441   2.0614   2.1153   2.2143   2.3549   2.3562   2.5092   2.5110
     2.8267   2.8293   4.1549   4.3080   4.4036   4.4214   4.5219   4.7007
     5.9102   5.9429   6.4135   6.5474   7.3869   7.5979   7.9531   8.2719
     8.5881   8.6670   8.7712   9.0153   9.0830   9.1641   9.2130   9.3986
     9.4287   9.4723

          k =-0.5000 0.0000 0.0000 ( 36502 PWs)   bands (ev):

   -38.3057 -37.8812 -23.3972 -22.8681 -22.8331 -22.7399 -18.8980 -18.6123
   -18.5450 -18.2956 -18.1765 -17.8937 -15.1647 -15.0472 -14.9389 -14.8403
   -14.7915 -14.5827 -14.5122 -14.4078 -14.2183 -14.0856 -14.0341 -13.9213
   -13.9096 -13.8199 -13.6892  -8.9835  -8.2566  -8.2020  -8.1743  -8.0904
    -8.0843  -7.7757  -7.7675  -7.6867  -7.6815  -7.6796  -7.5916  -3.1152
    -2.9602  -2.9481  -2.6830  -2.1720  -2.1523  -1.9217  -1.8487  -1.8484
    -1.6698  -1.6054  -1.5990  -1.4394  -1.3905  -1.3293  -1.2398  -1.2163
    -1.0756  -1.0324  -0.8983  -0.8827  -0.8598  -0.8426  -0.8412  -0.8184
    -0.8173  -0.8024  -0.6251  -0.6135  -0.6035  -0.3922  -0.3194  -0.3040
    -0.1734  -0.1349  -0.1299  -0.0764   0.2315   0.2426   0.2996   0.3048
     0.3062   0.3171   0.4586   0.4619   0.5602   0.5832   0.5995   0.6373
     0.6398   0.6480   0.7417   0.9495   1.0348   1.0733   1.1101   1.1953
     1.2480   1.2773   1.2887   1.3373   1.3599   1.3899   1.3973   1.4549
     1.6857   1.6953   1.7091   1.7393   1.7893   1.8536   1.9822   2.0777
     2.1078   2.1236   2.3321   2.4700   2.4723   2.7773   2.7844   6.1854
     6.8777   7.1047   7.1758   7.2292   7.2293   7.2628   7.4133   7.8557
     8.0386   8.2042   8.4898   8.5432   8.5930   8.7378   8.9612   9.0482
     9.1469   9.1855

          k =-0.5000 0.1281 0.0000 ( 36528 PWs)   bands (ev):

   -38.3035 -37.8788 -23.3824 -22.8523 -22.8169 -22.7238 -18.8902 -18.5799
   -18.5369 -18.3932 -18.1488 -17.9949 -15.0976 -14.9973 -14.8833 -14.7497
   -14.7243 -14.5493 -14.3972 -14.3745 -14.2849 -14.0530 -14.0028 -13.9029
   -13.8929 -13.8730 -13.6827  -8.9652  -8.3754  -8.2518  -8.2209  -8.1990
    -8.0876  -7.9029  -7.8984  -7.8927  -7.8817  -7.8221  -7.8031  -3.2698
    -3.0665  -3.0230  -2.7489  -2.1922  -2.1552  -2.0814  -1.9243  -1.9205
    -1.8108  -1.7440  -1.7252  -1.7068  -1.6045  -1.5747  -1.5092  -1.4409
    -1.2457  -1.1637  -1.1597  -1.1385  -1.0588  -0.9205  -0.7782  -0.7757
    -0.7528  -0.7201  -0.6909  -0.6011  -0.5428  -0.3148  -0.2347  -0.1228
    -0.0831  -0.0454   0.0022   0.1178   0.2317   0.2454   0.2491   0.2687
     0.3030   0.4614   0.5151   0.5935   0.6075   0.6125   0.7429   0.7977
     0.7999   0.8096   0.9421   0.9868   1.0471   1.0613   1.1942   1.2269
     1.2811   1.2899   1.2907   1.3050   1.4070   1.4155   1.4496   1.4720
     1.6459   1.6945   1.7414   1.7914   1.8411   1.9390   1.9927   2.0967
     2.7220   2.7683   2.7722   2.8400   2.8772   3.0885   3.1348   6.0000
     6.8892   6.9459   6.9927   7.1239   7.3470   7.4869   7.4959   7.5752
     7.7299   8.1516   8.6506   8.6901   8.8517   8.9062   9.1058   9.1545
     9.1554   9.2477

          k =-0.5000 0.2563 0.0000 ( 36566 PWs)   bands (ev):

   -38.2980 -37.8730 -23.3461 -22.8136 -22.7775 -22.6843 -18.8715 -18.6072
   -18.5171 -18.4983 -18.2462 -18.0454 -14.9220 -14.8660 -14.7353 -14.6397
   -14.4699 -14.4657 -14.4486 -14.2939 -14.2263 -13.9816 -13.9248 -13.9228
   -13.8634 -13.8582 -13.6719  -8.9245  -8.8125  -8.5420  -8.3696  -8.3496
    -8.2810  -8.2140  -8.2108  -8.1812  -8.1679  -8.1334  -8.0570  -3.7236
    -3.4789  -3.2666  -2.9832  -2.5766  -2.3802  -2.2686  -2.2540  -2.1963
    -2.1476  -2.1463  -2.0829  -1.9386  -1.9350  -1.9277  -1.8882  -1.8714
    -1.5818  -1.4089  -1.3172  -1.1856  -0.9685  -0.9679  -0.8121  -0.7936
    -0.7720  -0.7694  -0.5679  -0.5643  -0.4352  -0.3892  -0.3873  -0.3329
    -0.2040  -0.1743  -0.1739   0.2228   0.2589   0.3978   0.5484   0.6084
     0.6580   0.7877   0.7920   0.8097   0.8119   1.0472   1.1214   1.1652
     1.2162   1.2472   1.2495   1.2658   1.3610   1.3632   1.3770   1.3819
     1.3936   1.4097   1.4778   1.4991   1.5351   1.5878   1.7622   1.7863
     1.8031   1.8222   1.8450   1.8729   1.9097   1.9122   2.0280   2.0602
     3.0705   3.0772   3.5197   3.7044   3.7930   3.8359   3.9360   5.3282
     6.4307   6.4715   6.7100   6.8506   7.1982   7.4405   7.7777   8.2881
     8.2978   8.4107   8.6350   8.6375   8.9717   9.0549   9.2007   9.2558
     9.3383   9.4640

          k =-0.5000 0.3844 0.0000 ( 36670 PWs)   bands (ev):

   -38.2925 -37.8673 -23.3092 -22.7742 -22.7373 -22.6441 -18.8528 -18.7981
   -18.4973 -18.4457 -18.4107 -17.9603 -14.7601 -14.6689 -14.6184 -14.5524
   -14.5066 -14.4026 -14.2999 -14.2286 -14.2169 -13.9510 -13.8449 -13.8346
   -13.8338 -13.7594 -13.6564  -9.2136  -8.8718  -8.8555  -8.7624  -8.7229
    -8.6764  -8.5078  -8.4452  -8.4269  -8.2153  -8.1613  -8.0514  -4.1944
    -3.9463  -3.6338  -3.3520  -3.2238  -2.6793  -2.6753  -2.5833  -2.4955
    -2.3998  -2.3814  -2.3159  -2.2362  -2.0421  -2.0320  -1.9723  -1.8792
    -1.7023  -1.4246  -1.2223  -1.1362  -1.1309  -1.0185  -1.0174  -0.8738
    -0.8601  -0.8337  -0.6901  -0.6124  -0.6078  -0.5087  -0.4728  -0.4514
    -0.2645  -0.0926  -0.0883   0.2027   0.3891   0.4646   0.6854   0.8288
     0.9887   1.0865   1.1993   1.2120   1.2580   1.2925   1.3265   1.3773
     1.4074   1.4220   1.5003   1.5317   1.5805   1.6000   1.6847   1.6854
     1.7221   1.7277   1.7295   1.7940   1.7987   1.8026   1.8071   1.9015
     1.9456   1.9990   2.1268   2.1306   2.1351   2.1832   2.2765   2.2780
     2.9941   2.9954   4.0058   4.3663   4.4447   4.4729   4.5547   4.6585
     5.8691   5.9061   6.4042   6.5300   7.3706   7.5172   8.0980   8.2775
     8.5305   8.6681   8.7160   8.8217   8.9939   9.1744   9.1900   9.3887
     9.4127   9.4830

          k =-0.5000-0.5125 0.0000 ( 36660 PWs)   bands (ev):

   -38.2902 -37.8649 -23.2938 -22.7577 -22.7204 -22.6272 -18.8719 -18.8450
   -18.5237 -18.4891 -18.3724 -17.9215 -14.7030 -14.6904 -14.5486 -14.4380
   -14.4223 -14.4199 -14.3602 -14.1889 -14.1357 -13.9739 -13.8344 -13.8260
   -13.8072 -13.6695 -13.6404  -9.3655  -8.9843  -8.9145  -8.8715  -8.8518
    -8.8288  -8.6253  -8.5492  -8.5441  -8.2143  -8.1558  -8.0480  -4.3836
    -4.1373  -3.8019  -3.5239  -3.4672  -2.9176  -2.9130  -2.7148  -2.5232
    -2.4537  -2.4300  -2.4046  -2.2599  -2.0303  -2.0207  -2.0071  -1.8711
    -1.7427  -1.4636  -1.2341  -1.2134  -1.1173  -1.1134  -0.9652  -0.9294
    -0.9052  -0.8617  -0.7789  -0.6932  -0.6910  -0.5576  -0.4961  -0.4345
    -0.2521  -0.0494  -0.0493   0.2120   0.4384   0.4858   0.7013   0.9029
     1.2007   1.2133   1.2932   1.3262   1.3764   1.4044   1.4087   1.4382
     1.4425   1.4632   1.5833   1.5964   1.6521   1.7162   1.8131   1.8222
     1.8354   1.8488   1.8652   1.8694   1.8730   1.9112   1.9239   1.9253
     1.9434   2.1780   2.2695   2.3372   2.3735   2.3761   2.4820   2.4837
     2.8201   2.8218   4.1451   4.3854   4.5821   4.6722   4.6951   4.7821
     5.6195   5.6534   6.2849   6.4304   7.3776   7.5555   8.1551   8.3880
     8.5143   8.6719   8.7801   8.8180   8.9286   8.9855   9.0772   9.1853
     9.2489   9.4520

     the Fermi energy is     2.7816 ev

!    total energy              =   -1868.78921281 Ry
     Harris-Foulkes estimate   =   -1868.78921275 Ry
     estimated scf accuracy    <          4.7E-09 Ry

     The total energy is the sum of the following terms:

     one-electron contribution =  -27302.12651940 Ry
     hartree contribution      =   13803.72034520 Ry
     xc contribution           =    -642.24660374 Ry
     ewald contribution        =   12271.87222091 Ry
     smearing contrib. (-TS)   =      -0.00865579 Ry

     convergence has been achieved in  10 iterations

     negative rho (up, down):  9.053E-02 0.000E+00

     Forces acting on atoms (cartesian axes, Ry/au):

     atom    1 type  3   force =     0.00000000    0.00000000    0.00002173
     atom    2 type  2   force =     0.00000000    0.00000000   -0.00022167
     atom    3 type  3   force =     0.00000000    0.00000000   -0.00000626
     atom    4 type  1   force =     0.00000000    0.00000000   -0.00022223
     atom    5 type  2   force =     0.00000000    0.00000000   -0.00013189
     atom    6 type  3   force =     0.00000000    0.00000000    0.00066346
     atom    7 type  3   force =     0.00000000    0.00000000    0.00014728
     atom    8 type  4   force =     0.00000000    0.00000000   -0.00164193
     atom    9 type  3   force =     0.00000000    0.00000000    0.00228702
     atom   10 type  3   force =     0.00000000    0.00000000    0.00260038
     atom   11 type  2   force =     0.00000000    0.00000000   -0.00260928
     atom   12 type  1   force =     0.00000000    0.00000000   -0.00815054
     atom   13 type  3   force =     0.00000000    0.00000000    0.01020938
     atom   14 type  3   force =     0.00000000    0.00000000    0.00007564
     atom   15 type  2   force =     0.00000000    0.00000000    0.00004662
     atom   16 type  3   force =     0.00000000    0.00000000   -0.00003436
     atom   17 type  1   force =     0.00000000    0.00000000   -0.00004140
     atom   18 type  2   force =     0.00000000    0.00000000    0.00000826
     atom   19 type  3   force =     0.00000000    0.00000000    0.00002024
     atom   20 type  3   force =     0.00000000    0.00000000    0.00004687
     atom   21 type  4   force =     0.00000000    0.00000000   -0.00000400
     atom   22 type  3   force =     0.00000000    0.00000000   -0.00062013
     atom   23 type  3   force =     0.00000000    0.00000000    0.00358641
     atom   24 type  2   force =     0.00000000    0.00000000    0.00050430
     atom   25 type  1   force =     0.00000000    0.00000000   -0.00829697
     atom   26 type  3   force =     0.00000000    0.00000000    0.00221335
     atom   27 type  2   force =     0.00000000    0.00000000   -0.00180099
     atom   28 type  3   force =     0.00000000    0.00000000    0.00135068

     Total force =     0.000116     Total SCF correction =     0.000874
     SCF correction compared to forces is large: reduce conv_thr to get better values


     Computing stress (Cartesian axis) and pressure


     negative rho (up, down):  9.053E-02 0.000E+00
          total   stress  (Ry/bohr**3)                   (kbar)     P=       -5.33
  -0.00006142   0.00000000   0.00000000           -9.03        0.00        0.00
   0.00000000  -0.00002602   0.00000000            0.00       -3.83        0.00
   0.00000000   0.00000000  -0.00002128            0.00        0.00       -3.13


     bfgs converged in  85 scf cycles and  81 bfgs steps
     (criteria: energy <  1.0E-05 Ry, force <  1.0E-04 Ry/Bohr)

     End of BFGS Geometry Optimization

     Final energy   =   -1868.7892128134 Ry
Begin final coordinates

ATOMIC_POSITIONS (angstrom)
O             0.0000000000        1.8966400000       -0.1003100000    0   0   0
Cu            0.0000000000        0.0000000000        0.0839000000    0   0   0
O             0.0000000000        0.0000000000        1.9725500000    0   0   0
Ba            1.9441200000        1.8966400000        2.0684200000    0   0   0
Cu            0.0000000000        0.0000000000        4.0810400000    0   0   0
O             1.9441200000        0.0000000000        4.3476700000    0   0   0
O             0.0000000000        1.8966400000        4.3832700000    0   0   0
Y             1.9441200000        1.8966400000        5.8085600000    0   0   0
O             0.0000000000        1.8966400000        7.1922400000    0   0   0
O             1.9441200000        0.0000000000        7.2681800000    0   0   0
Cu            0.0000000000        0.0000000000        7.5500200000    0   0   0
Ba            1.9441200000        1.8966400000        9.5363300000    0   0   0
O             0.0000000000        0.0000000000        9.7608400000    0   0   0
O             0.0000000000        1.8966400000       11.7466206913
Cu            0.0000000000        0.0000000000       11.6698522655
O             0.0000000000        0.0000000000       13.6034091086
Ba            1.9441200000        1.8966400000       13.6576522137
Cu            0.0000000000        0.0000000000       18.7738525088
O             1.9441200000        0.0000000000       19.0721795343
O             0.0000000000        1.8966400000       19.1140554222
Y             1.9441200000        1.8966400000       20.4089490747
O             0.0000000000        1.8966400000       21.9215500000    0   0   0
O             1.9441200000        0.0000000000       21.9572000000    0   0   0
Cu            0.0000000000        0.0000000000       22.2238500000    0   0   0
Ba            1.9441200000        1.8966400000       24.2364100000    0   0   0
O             0.0000000000        0.0000000000       24.3322800000    0   0   0
Cu            0.0000000000        0.0000000000       26.2208200000    0   0   0
O             0.0000000000        1.8966400000       26.4050500000    0   0   0
End final coordinates


 
     init_run     :      9.12s CPU      9.79s WALL (       1 calls)
     electrons    :  14405.30s CPU  15914.61s WALL (      85 calls)
     update_pot   :    148.16s CPU    149.56s WALL (      84 calls)
     forces       :    326.75s CPU    368.71s WALL (      85 calls)
     stress       :   2084.39s CPU   2196.97s WALL (      85 calls)

     Called by init_run:
     wfcinit      :      6.52s CPU      6.71s WALL (       1 calls)
     potinit      :      0.65s CPU      0.68s WALL (       1 calls)
     hinit0       :      0.94s CPU      0.97s WALL (       1 calls)

     Called by electrons:
     c_bands      :  10985.09s CPU  11551.73s WALL (     997 calls)
     sum_band     :   2312.62s CPU   2853.56s WALL (     997 calls)
     v_of_rho     :     83.43s CPU     85.23s WALL (    1026 calls)
     newd         :    560.82s CPU    990.50s WALL (    1026 calls)
     mix_rho      :    508.85s CPU    514.01s WALL (     997 calls)

     Called by c_bands:
     init_us_2    :    122.19s CPU    124.15s WALL (   54125 calls)
     cegterg      :  10253.59s CPU  10807.67s WALL (   24925 calls)

     Called by sum_band:
     sum_band:bec :      7.43s CPU      7.54s WALL (   24925 calls)
     addusdens    :    614.82s CPU   1130.36s WALL (     997 calls)

     Called by *egterg:
     h_psi        :   5933.42s CPU   6245.70s WALL (   64030 calls)
     s_psi        :    633.45s CPU    640.44s WALL (   64030 calls)
     g_psi        :     20.48s CPU     20.88s WALL (   39080 calls)
     cdiaghg      :   1480.81s CPU   1488.92s WALL (   60505 calls)

     Called by h_psi:
     h_psi:calbec :    679.57s CPU    684.43s WALL (   64030 calls)
     vloc_psi     :   4566.81s CPU   4654.67s WALL (   64030 calls)
     add_vuspsi   :    644.35s CPU    770.94s WALL (   64030 calls)

     General routines
     calbec       :   1245.07s CPU   1252.92s WALL (   99580 calls)
     fft          :     79.90s CPU     81.79s WALL (   15433 calls)
     ffts         :    273.66s CPU    276.53s WALL (  429763 calls)
     fftw         :   5236.91s CPU   5334.50s WALL (17483132 calls)
     interpolate  :      5.30s CPU      5.37s WALL (    1026 calls)
 
     Parallel routines
     fft_scatt_xy :    689.78s CPU    701.60s WALL (17928328 calls)
     fft_scatt_yz :   3102.12s CPU   3161.20s WALL (17928328 calls)
 
     PWSCF        :      4h43m CPU      5h12m WALL

 
   This run was terminated on:  19: 4:34   1May2021            

=------------------------------------------------------------------------------=
   JOB DONE.
=------------------------------------------------------------------------------=
[1619910274.922564] [holy7c04105:204419:0]          mpool.c:43   UCX  WARN  object 0x387c1c0 was not returned to mpool ucp_requests
[1619910274.922533] [holy7c04108:110768:0]          mpool.c:43   UCX  WARN  object 0x430dec0 was not returned to mpool ucp_requests
[1619910274.922311] [holy7c04105:204418:0]          mpool.c:43   UCX  WARN  object 0x2c2a540 was not returned to mpool ucp_requests
[1619910274.922336] [holy7c04105:204418:0]          mpool.c:43   UCX  WARN  object 0x2c2a8c0 was not returned to mpool ucp_requests
[1619910274.930270] [holy7c02502:88713:0]          mpool.c:43   UCX  WARN  object 0x38b4640 was not returned to mpool ucp_requests
[1619910274.930291] [holy7c02502:88713:0]          mpool.c:43   UCX  WARN  object 0x38b4800 was not returned to mpool ucp_requests
[1619910274.929244] [holy7c02502:88714:0]          mpool.c:43   UCX  WARN  object 0x43f6540 was not returned to mpool ucp_requests
[1619910274.932140] [holy7c02502:88718:0]          mpool.c:43   UCX  WARN  object 0x335a340 was not returned to mpool ucp_requests
