
     Program PWSCF v.6.5 starts on  1May2021 at 23:14:28 

     This program is part of the open-source Quantum ESPRESSO suite
     for quantum simulation of materials; please cite
         "P. Giannozzi et al., J. Phys.:Condens. Matter 21 395502 (2009);
         "P. Giannozzi et al., J. Phys.:Condens. Matter 29 465901 (2017);
          URL http://www.quantum-espresso.org", 
     in publications or presentations arising from this work. More details at
     http://www.quantum-espresso.org/quote

     Parallel version (MPI), running on    20 processors

     MPI processes distributed on     9 nodes
     R & G space division:  proc/nbgrp/npool/nimage =      20
     Reading input from YBCO_BaO_cleave_4_sep.pwi
Warning: card &CELL ignored
Warning: card     CELL_DYNAMICS = 'BFGS' ignored
Warning: card / ignored

     Current dimensions of program PWSCF are:
     Max number of different atomic species (ntypx) = 10
     Max number of k-points (npk) =  40000
     Max angular momentum in pseudopotentials (lmaxx) =  3

     Subspace diagonalization in iterative solution of the eigenvalue problem:
     one sub-group per band group will be used
     scalapack distributed-memory algorithm (size of sub-group:  4*  4 procs)

     Message from routine setup:
     using ibrav=0 with symmetry is DISCOURAGED, use correct ibrav instead
 
     Parallelization info
     --------------------
     sticks:   dense  smooth     PW     G-vecs:    dense   smooth      PW
     Min         150      50     14                77556    14916    2324
     Max         151      51     15                77597    14941    2375
     Sum        3015    1011    293              1551541   298495   47017
 


     bravais-lattice index     =            0
     lattice parameter (alat)  =       7.3477  a.u.
     unit-cell volume          =    4754.8956 (a.u.)^3
     number of atoms/cell      =           28
     number of atomic types    =            4
     number of electrons       =       229.00
     number of Kohn-Sham states=          138
     kinetic-energy cutoff     =      60.0000  Ry
     charge density cutoff     =     720.0000  Ry
     convergence threshold     =      1.0E-06
     mixing beta               =       0.2000
     number of iterations used =           10  local-TF  mixing
     Exchange-correlation= SLA PW PBE PBE
                           (   1   4   3   4   0   0   0)
     nstep                     =          300


     celldm(1)=   7.347715  celldm(2)=   0.000000  celldm(3)=   0.000000
     celldm(4)=   0.000000  celldm(5)=   0.000000  celldm(6)=   0.000000

     crystal axes: (cart. coord. in units of alat)
               a(1) = (   1.000000   0.000000   0.000000 )  
               a(2) = (   0.000000   0.975577   0.000000 )  
               a(3) = (   0.000000   0.000000  12.286335 )  

     reciprocal axes: (cart. coord. in units 2 pi/alat)
               b(1) = (  1.000000  0.000000  0.000000 )  
               b(2) = (  0.000000  1.025034  0.000000 )  
               b(3) = (  0.000000  0.000000  0.081391 )  


     PseudoPot. # 1 for Ba read from file:
     /n/holyscratch01/hoffman_lab/ruizhe/YBCO_Project/pseudo/Ba.pbe-nsp-van.UPF
     MD5 check sum: 2b9c31dd849566dd297d80989662b7a0
     Pseudo is Ultrasoft + core correction, Zval = 10.0
     Generated by new atomic code, or converted to UPF format
     Using radial grid of  907 points,  6 beta functions with: 
                l(1) =   0
                l(2) =   0
                l(3) =   1
                l(4) =   1
                l(5) =   2
                l(6) =   2
     Q(r) pseudized with  6 coefficients,  rinner =    1.200   1.200   1.200
                                                       1.200   1.200

     PseudoPot. # 2 for Cu read from file:
     /n/holyscratch01/hoffman_lab/ruizhe/YBCO_Project/pseudo/Cu.pbe-n-van_ak.UPF
     MD5 check sum: 34e3282627ffb533726feb647e090d62
     Pseudo is Ultrasoft + core correction, Zval = 11.0
     Generated by new atomic code, or converted to UPF format
     Using radial grid of  867 points,  6 beta functions with: 
                l(1) =   0
                l(2) =   0
                l(3) =   1
                l(4) =   1
                l(5) =   2
                l(6) =   2
     Q(r) pseudized with  8 coefficients,  rinner =    1.400   1.400   1.400
                                                       1.400   1.400

     PseudoPot. # 3 for O  read from file:
     /n/holyscratch01/hoffman_lab/ruizhe/YBCO_Project/pseudo/O.pbe-van_ak.UPF
     MD5 check sum: 783ce7fe4c79b6a4916957118fed0856
     Pseudo is Ultrasoft, Zval =  6.0
     Generated by new atomic code, or converted to UPF format
     Using radial grid of  737 points,  4 beta functions with: 
                l(1) =   0
                l(2) =   0
                l(3) =   1
                l(4) =   1
     Q(r) pseudized with  8 coefficients,  rinner =    0.800   0.800   0.800


     PseudoPot. # 4 for Y  read from file:
     /n/holyscratch01/hoffman_lab/ruizhe/YBCO_Project/pseudo/Y.pbe-nsp-van.UPF
     MD5 check sum: 4412fed3ab108fed87a1b7d6a69a4a38
     Pseudo is Ultrasoft + core correction, Zval = 11.0
     Generated by new atomic code, or converted to UPF format
     Using radial grid of  885 points,  6 beta functions with: 
                l(1) =   0
                l(2) =   0
                l(3) =   1
                l(4) =   1
                l(5) =   2
                l(6) =   2
     Q(r) pseudized with  6 coefficients,  rinner =    1.200   1.200   1.200
                                                       1.200   1.200

     atomic species   valence    mass     pseudopotential
        Ba            10.00   137.32700     Ba( 1.00)
        Cu            11.00    63.54600     Cu( 1.00)
        O              6.00    15.99900     O ( 1.00)
        Y             11.00    88.90584     Y ( 1.00)

      4 Sym. Ops. (no inversion) found



   Cartesian axes

     site n.     atom                  positions (alat units)
         1           O   tau(   1) = (   0.0000000   0.4877884  -0.0257983  )
         2           Cu  tau(   2) = (   0.0000000   0.0000000   0.0215779  )
         3           O   tau(   3) = (   0.0000000   0.0000000   0.5073114  )
         4           Ba  tau(   4) = (   0.4999996   0.4877884   0.5319677  )
         5           Cu  tau(   5) = (   0.0000000   0.0000000   1.0495845  )
         6           O   tau(   6) = (   0.4999996   0.0000000   1.1181579  )
         7           O   tau(   7) = (   0.0000000   0.4877884   1.1273137  )
         8           Y   tau(   8) = (   0.4999996   0.4877884   1.4938777  )
         9           O   tau(   9) = (   0.0000000   0.4877884   1.8497402  )
        10           O   tau(  10) = (   0.4999996   0.0000000   1.8692709  )
        11           Cu  tau(  11) = (   0.0000000   0.0000000   1.9417560  )
        12           Ba  tau(  12) = (   0.4999996   0.4877884   2.4526063  )
        13           O   tau(  13) = (   0.0000000   0.0000000   2.5103470  )
        14           O   tau(  14) = (   0.0000000   0.4877884   2.9968469  )
        15           Cu  tau(  15) = (   0.0000000   0.0000000   2.9968521  )
        16           O   tau(  16) = (   0.0000000   0.0000000   3.4833288  )
        17           Ba  tau(  17) = (   0.4999996   0.4877884   3.5410618  )
        18           Cu  tau(  18) = (   0.0000000   0.0000000   5.0806774  )
        19           O   tau(  19) = (   0.4999996   0.0000000   5.1531497  )
        20           O   tau(  20) = (   0.0000000   0.4877884   5.1726624  )
        21           Y   tau(  21) = (   0.4999996   0.4877884   5.5671053  )
        22           O   tau(  22) = (   0.0000000   0.4877884   5.8950914  )
        23           O   tau(  23) = (   0.4999996   0.0000000   5.9042601  )
        24           Cu  tau(  24) = (   0.0000000   0.0000000   5.9728386  )
        25           Ba  tau(  25) = (   0.4999996   0.4877884   6.4904400  )
        26           O   tau(  26) = (   0.0000000   0.0000000   6.5150964  )
        27           Cu  tau(  27) = (   0.0000000   0.0000000   7.0008016  )
        28           O   tau(  28) = (   0.0000000   0.4877884   7.0481829  )

     number of k points=    25  Gaussian smearing, width (Ry)=  0.0100
                       cart. coord. in units 2pi/alat
        k(    1) = (   0.0000000   0.0000000   0.0000000), wk =   0.0312500
        k(    2) = (   0.0000000   0.1281293   0.0000000), wk =   0.0625000
        k(    3) = (   0.0000000   0.2562585   0.0000000), wk =   0.0625000
        k(    4) = (   0.0000000   0.3843878   0.0000000), wk =   0.0625000
        k(    5) = (   0.0000000  -0.5125170   0.0000000), wk =   0.0312500
        k(    6) = (   0.1250000   0.0000000   0.0000000), wk =   0.0625000
        k(    7) = (   0.1250000   0.1281293   0.0000000), wk =   0.1250000
        k(    8) = (   0.1250000   0.2562585   0.0000000), wk =   0.1250000
        k(    9) = (   0.1250000   0.3843878   0.0000000), wk =   0.1250000
        k(   10) = (   0.1250000  -0.5125170   0.0000000), wk =   0.0625000
        k(   11) = (   0.2500000   0.0000000   0.0000000), wk =   0.0625000
        k(   12) = (   0.2500000   0.1281293   0.0000000), wk =   0.1250000
        k(   13) = (   0.2500000   0.2562585   0.0000000), wk =   0.1250000
        k(   14) = (   0.2500000   0.3843878   0.0000000), wk =   0.1250000
        k(   15) = (   0.2500000  -0.5125170   0.0000000), wk =   0.0625000
        k(   16) = (   0.3750000   0.0000000   0.0000000), wk =   0.0625000
        k(   17) = (   0.3750000   0.1281293   0.0000000), wk =   0.1250000
        k(   18) = (   0.3750000   0.2562585   0.0000000), wk =   0.1250000
        k(   19) = (   0.3750000   0.3843878   0.0000000), wk =   0.1250000
        k(   20) = (   0.3750000  -0.5125170   0.0000000), wk =   0.0625000
        k(   21) = (  -0.5000000   0.0000000   0.0000000), wk =   0.0312500
        k(   22) = (  -0.5000000   0.1281293   0.0000000), wk =   0.0625000
        k(   23) = (  -0.5000000   0.2562585   0.0000000), wk =   0.0625000
        k(   24) = (  -0.5000000   0.3843878   0.0000000), wk =   0.0625000
        k(   25) = (  -0.5000000  -0.5125170   0.0000000), wk =   0.0312500

     Dense  grid:  1551541 G-vectors     FFT dimensions: (  64,  64, 800)

     Smooth grid:   298495 G-vectors     FFT dimensions: (  40,  36, 450)

     Estimated max dynamical RAM per process >     495.06 MB

     Estimated total dynamical RAM >       9.67 GB

     Initial potential from superposition of free atoms

     starting charge  228.84827, renormalised to  229.00000

     negative rho (up, down):  8.955E-02 0.000E+00
     Starting wfcs are  201 randomized atomic wfcs

     total cpu time spent up to now is       11.1 secs

     Self-consistent Calculation

     iteration #  1     ecut=    60.00 Ry     beta= 0.20
     Davidson diagonalization with overlap
     ethr =  1.00E-02,  avg # of iterations =  2.0

     negative rho (up, down):  8.743E-02 0.000E+00

     total cpu time spent up to now is       29.0 secs

     total energy              =   -1869.51599877 Ry
     Harris-Foulkes estimate   =   -1871.17377535 Ry
     estimated scf accuracy    <      16.18679690 Ry

     iteration #  2     ecut=    60.00 Ry     beta= 0.20
     Davidson diagonalization with overlap
     ethr =  7.07E-03,  avg # of iterations =  1.0

     negative rho (up, down):  8.637E-02 0.000E+00

     total cpu time spent up to now is       45.0 secs

     total energy              =   -1869.18007548 Ry
     Harris-Foulkes estimate   =   -1869.92890518 Ry
     estimated scf accuracy    <       6.19023756 Ry

     iteration #  3     ecut=    60.00 Ry     beta= 0.20
     Davidson diagonalization with overlap
     ethr =  2.70E-03,  avg # of iterations =  1.0

     negative rho (up, down):  8.587E-02 0.000E+00

     total cpu time spent up to now is       61.3 secs

     total energy              =   -1868.69125999 Ry
     Harris-Foulkes estimate   =   -1869.35577033 Ry
     estimated scf accuracy    <       4.10635796 Ry

     iteration #  4     ecut=    60.00 Ry     beta= 0.20
     Davidson diagonalization with overlap
     ethr =  1.79E-03,  avg # of iterations =  1.6

     negative rho (up, down):  8.625E-02 0.000E+00

     total cpu time spent up to now is       77.9 secs

     total energy              =   -1868.87736274 Ry
     Harris-Foulkes estimate   =   -1868.96330108 Ry
     estimated scf accuracy    <       2.59456071 Ry

     iteration #  5     ecut=    60.00 Ry     beta= 0.20
     Davidson diagonalization with overlap
     ethr =  1.13E-03,  avg # of iterations =  1.0

     negative rho (up, down):  8.697E-02 0.000E+00

     total cpu time spent up to now is       94.3 secs

     total energy              =   -1868.80851557 Ry
     Harris-Foulkes estimate   =   -1868.93056942 Ry
     estimated scf accuracy    <       1.51217695 Ry

     iteration #  6     ecut=    60.00 Ry     beta= 0.20
     Davidson diagonalization with overlap
     ethr =  6.60E-04,  avg # of iterations =  1.2

     negative rho (up, down):  8.818E-02 0.000E+00

     total cpu time spent up to now is      110.4 secs

     total energy              =   -1868.78970700 Ry
     Harris-Foulkes estimate   =   -1868.84542983 Ry
     estimated scf accuracy    <       0.96931542 Ry

     iteration #  7     ecut=    60.00 Ry     beta= 0.20
     Davidson diagonalization with overlap
     ethr =  4.23E-04,  avg # of iterations =  2.9

     negative rho (up, down):  8.931E-02 0.000E+00

     total cpu time spent up to now is      129.0 secs

     total energy              =   -1868.77896851 Ry
     Harris-Foulkes estimate   =   -1868.80719820 Ry
     estimated scf accuracy    <       0.46068861 Ry

     iteration #  8     ecut=    60.00 Ry     beta= 0.20
     Davidson diagonalization with overlap
     ethr =  2.01E-04,  avg # of iterations =  6.2

     negative rho (up, down):  9.075E-02 0.000E+00

     total cpu time spent up to now is      152.6 secs

     total energy              =   -1868.76381521 Ry
     Harris-Foulkes estimate   =   -1868.79265389 Ry
     estimated scf accuracy    <       0.30196506 Ry

     iteration #  9     ecut=    60.00 Ry     beta= 0.20
     Davidson diagonalization with overlap
     ethr =  1.32E-04,  avg # of iterations =  3.8

     negative rho (up, down):  9.094E-02 0.000E+00

     total cpu time spent up to now is      172.3 secs

     total energy              =   -1868.77442521 Ry
     Harris-Foulkes estimate   =   -1868.77880202 Ry
     estimated scf accuracy    <       0.49862057 Ry

     iteration # 10     ecut=    60.00 Ry     beta= 0.20
     Davidson diagonalization with overlap
     ethr =  1.32E-04,  avg # of iterations =  1.0

     negative rho (up, down):  9.104E-02 0.000E+00

     total cpu time spent up to now is      188.2 secs

     total energy              =   -1868.76881076 Ry
     Harris-Foulkes estimate   =   -1868.77626947 Ry
     estimated scf accuracy    <       0.36145903 Ry

     iteration # 11     ecut=    60.00 Ry     beta= 0.20
     Davidson diagonalization with overlap
     ethr =  1.32E-04,  avg # of iterations =  1.0

     negative rho (up, down):  9.081E-02 0.000E+00

     total cpu time spent up to now is      204.0 secs

     total energy              =   -1868.75700109 Ry
     Harris-Foulkes estimate   =   -1868.77016169 Ry
     estimated scf accuracy    <       0.19470119 Ry

     iteration # 12     ecut=    60.00 Ry     beta= 0.20
     Davidson diagonalization with overlap
     ethr =  8.50E-05,  avg # of iterations =  5.4

     negative rho (up, down):  9.285E-02 0.000E+00

     total cpu time spent up to now is      225.5 secs

     total energy              =   -1868.75685915 Ry
     Harris-Foulkes estimate   =   -1868.76145517 Ry
     estimated scf accuracy    <       0.03989601 Ry

     iteration # 13     ecut=    60.00 Ry     beta= 0.20
     Davidson diagonalization with overlap
     ethr =  1.74E-05,  avg # of iterations =  7.6

     negative rho (up, down):  9.643E-02 0.000E+00

     total cpu time spent up to now is      252.0 secs

     total energy              =   -1868.75814918 Ry
     Harris-Foulkes estimate   =   -1868.75939506 Ry
     estimated scf accuracy    <       0.03067061 Ry

     iteration # 14     ecut=    60.00 Ry     beta= 0.20
     Davidson diagonalization with overlap
     ethr =  1.34E-05,  avg # of iterations =  2.0

     negative rho (up, down):  8.943E-02 0.000E+00

     total cpu time spent up to now is      268.9 secs

     total energy              =   -1868.75595309 Ry
     Harris-Foulkes estimate   =   -1868.75858384 Ry
     estimated scf accuracy    <       0.02105293 Ry

     iteration # 15     ecut=    60.00 Ry     beta= 0.20
     Davidson diagonalization with overlap
     ethr =  9.19E-06,  avg # of iterations =  2.7

     negative rho (up, down):  8.906E-02 0.000E+00

     total cpu time spent up to now is      287.1 secs

     total energy              =   -1868.75755148 Ry
     Harris-Foulkes estimate   =   -1868.75775344 Ry
     estimated scf accuracy    <       0.01200072 Ry

     iteration # 16     ecut=    60.00 Ry     beta= 0.20
     Davidson diagonalization with overlap
     ethr =  5.24E-06,  avg # of iterations =  2.8

     negative rho (up, down):  9.076E-02 0.000E+00

     total cpu time spent up to now is      305.1 secs

     total energy              =   -1868.75572317 Ry
     Harris-Foulkes estimate   =   -1868.75780877 Ry
     estimated scf accuracy    <       0.01342733 Ry

     iteration # 17     ecut=    60.00 Ry     beta= 0.20
     Davidson diagonalization with overlap
     ethr =  5.24E-06,  avg # of iterations =  5.7

     negative rho (up, down):  9.146E-02 0.000E+00

     total cpu time spent up to now is      327.2 secs

     total energy              =   -1868.75540965 Ry
     Harris-Foulkes estimate   =   -1868.75605275 Ry
     estimated scf accuracy    <       0.01003684 Ry

     iteration # 18     ecut=    60.00 Ry     beta= 0.20
     Davidson diagonalization with overlap
     c_bands:  1 eigenvalues not converged
     ethr =  4.38E-06,  avg # of iterations =  5.0

     negative rho (up, down):  9.108E-02 0.000E+00

     total cpu time spent up to now is      348.0 secs

     total energy              =   -1868.75534062 Ry
     Harris-Foulkes estimate   =   -1868.75555969 Ry
     estimated scf accuracy    <       0.00763965 Ry

     iteration # 19     ecut=    60.00 Ry     beta= 0.20
     Davidson diagonalization with overlap
     ethr =  3.34E-06,  avg # of iterations =  1.4

     negative rho (up, down):  8.961E-02 0.000E+00

     total cpu time spent up to now is      364.3 secs

     total energy              =   -1868.75485682 Ry
     Harris-Foulkes estimate   =   -1868.75536701 Ry
     estimated scf accuracy    <       0.00678834 Ry

     iteration # 20     ecut=    60.00 Ry     beta= 0.20
     Davidson diagonalization with overlap
     ethr =  2.96E-06,  avg # of iterations =  4.4

     negative rho (up, down):  8.980E-02 0.000E+00

     total cpu time spent up to now is      384.2 secs

     total energy              =   -1868.75439739 Ry
     Harris-Foulkes estimate   =   -1868.75490811 Ry
     estimated scf accuracy    <       0.00535556 Ry

     iteration # 21     ecut=    60.00 Ry     beta= 0.20
     Davidson diagonalization with overlap
     c_bands:  1 eigenvalues not converged
     ethr =  2.34E-06,  avg # of iterations =  7.7

     negative rho (up, down):  9.013E-02 0.000E+00

     total cpu time spent up to now is      409.0 secs

     total energy              =   -1868.75389068 Ry
     Harris-Foulkes estimate   =   -1868.75443174 Ry
     estimated scf accuracy    <       0.00490680 Ry

     iteration # 22     ecut=    60.00 Ry     beta= 0.20
     Davidson diagonalization with overlap
     ethr =  2.14E-06,  avg # of iterations =  5.8

     negative rho (up, down):  9.035E-02 0.000E+00

     total cpu time spent up to now is      431.3 secs

     total energy              =   -1868.75348081 Ry
     Harris-Foulkes estimate   =   -1868.75393604 Ry
     estimated scf accuracy    <       0.00363695 Ry

     iteration # 23     ecut=    60.00 Ry     beta= 0.20
     Davidson diagonalization with overlap
     ethr =  1.59E-06,  avg # of iterations =  5.4

     negative rho (up, down):  8.995E-02 0.000E+00

     total cpu time spent up to now is      453.0 secs

     total energy              =   -1868.75315059 Ry
     Harris-Foulkes estimate   =   -1868.75352703 Ry
     estimated scf accuracy    <       0.00273461 Ry

     iteration # 24     ecut=    60.00 Ry     beta= 0.20
     Davidson diagonalization with overlap
     ethr =  1.19E-06,  avg # of iterations =  5.7

     negative rho (up, down):  8.973E-02 0.000E+00

     total cpu time spent up to now is      475.2 secs

     total energy              =   -1868.75299005 Ry
     Harris-Foulkes estimate   =   -1868.75321193 Ry
     estimated scf accuracy    <       0.00159813 Ry

     iteration # 25     ecut=    60.00 Ry     beta= 0.20
     Davidson diagonalization with overlap
     ethr =  6.98E-07,  avg # of iterations =  4.5

     negative rho (up, down):  9.016E-02 0.000E+00

     total cpu time spent up to now is      495.7 secs

     total energy              =   -1868.75295020 Ry
     Harris-Foulkes estimate   =   -1868.75303657 Ry
     estimated scf accuracy    <       0.00115609 Ry

     iteration # 26     ecut=    60.00 Ry     beta= 0.20
     Davidson diagonalization with overlap
     ethr =  5.05E-07,  avg # of iterations =  4.8

     negative rho (up, down):  8.999E-02 0.000E+00

     total cpu time spent up to now is      516.3 secs

     total energy              =   -1868.75298542 Ry
     Harris-Foulkes estimate   =   -1868.75297591 Ry
     estimated scf accuracy    <       0.00054068 Ry

     iteration # 27     ecut=    60.00 Ry     beta= 0.20
     Davidson diagonalization with overlap
     ethr =  2.36E-07,  avg # of iterations =  2.4

     negative rho (up, down):  9.033E-02 0.000E+00

     total cpu time spent up to now is      533.9 secs

     total energy              =   -1868.75305525 Ry
     Harris-Foulkes estimate   =   -1868.75299449 Ry
     estimated scf accuracy    <       0.00034215 Ry

     iteration # 28     ecut=    60.00 Ry     beta= 0.20
     Davidson diagonalization with overlap
     ethr =  1.49E-07,  avg # of iterations =  4.4

     negative rho (up, down):  9.094E-02 0.000E+00

     total cpu time spent up to now is      554.7 secs

     total energy              =   -1868.75308547 Ry
     Harris-Foulkes estimate   =   -1868.75307330 Ry
     estimated scf accuracy    <       0.00021308 Ry

     iteration # 29     ecut=    60.00 Ry     beta= 0.20
     Davidson diagonalization with overlap
     ethr =  9.30E-08,  avg # of iterations =  3.2

     negative rho (up, down):  9.074E-02 0.000E+00

     total cpu time spent up to now is      573.5 secs

     total energy              =   -1868.75308583 Ry
     Harris-Foulkes estimate   =   -1868.75308966 Ry
     estimated scf accuracy    <       0.00009694 Ry

     iteration # 30     ecut=    60.00 Ry     beta= 0.20
     Davidson diagonalization with overlap
     ethr =  4.23E-08,  avg # of iterations =  2.4

     negative rho (up, down):  9.064E-02 0.000E+00

     total cpu time spent up to now is      591.3 secs

     total energy              =   -1868.75309257 Ry
     Harris-Foulkes estimate   =   -1868.75308999 Ry
     estimated scf accuracy    <       0.00004296 Ry

     iteration # 31     ecut=    60.00 Ry     beta= 0.20
     Davidson diagonalization with overlap
     ethr =  1.88E-08,  avg # of iterations =  3.0

     negative rho (up, down):  9.059E-02 0.000E+00

     total cpu time spent up to now is      609.9 secs

     total energy              =   -1868.75309530 Ry
     Harris-Foulkes estimate   =   -1868.75309379 Ry
     estimated scf accuracy    <       0.00002984 Ry

     iteration # 32     ecut=    60.00 Ry     beta= 0.20
     Davidson diagonalization with overlap
     ethr =  1.30E-08,  avg # of iterations =  2.7

     negative rho (up, down):  9.097E-02 0.000E+00

     total cpu time spent up to now is      628.0 secs

     total energy              =   -1868.75309602 Ry
     Harris-Foulkes estimate   =   -1868.75309630 Ry
     estimated scf accuracy    <       0.00001482 Ry

     iteration # 33     ecut=    60.00 Ry     beta= 0.20
     Davidson diagonalization with overlap
     ethr =  6.47E-09,  avg # of iterations =  2.0

     negative rho (up, down):  9.100E-02 0.000E+00

     total cpu time spent up to now is      645.5 secs

     total energy              =   -1868.75309661 Ry
     Harris-Foulkes estimate   =   -1868.75309692 Ry
     estimated scf accuracy    <       0.00000653 Ry

     iteration # 34     ecut=    60.00 Ry     beta= 0.20
     Davidson diagonalization with overlap
     ethr =  2.85E-09,  avg # of iterations =  1.0

     negative rho (up, down):  9.079E-02 0.000E+00

     total cpu time spent up to now is      661.7 secs

     total energy              =   -1868.75309591 Ry
     Harris-Foulkes estimate   =   -1868.75309678 Ry
     estimated scf accuracy    <       0.00000457 Ry

     iteration # 35     ecut=    60.00 Ry     beta= 0.20
     Davidson diagonalization with overlap
     ethr =  2.00E-09,  avg # of iterations =  2.0

     negative rho (up, down):  9.066E-02 0.000E+00

     total cpu time spent up to now is      679.0 secs

     total energy              =   -1868.75309580 Ry
     Harris-Foulkes estimate   =   -1868.75309618 Ry
     estimated scf accuracy    <       0.00000132 Ry

     iteration # 36     ecut=    60.00 Ry     beta= 0.20
     Davidson diagonalization with overlap
     ethr =  5.76E-10,  avg # of iterations =  2.0

     negative rho (up, down):  9.054E-02 0.000E+00

     total cpu time spent up to now is      695.7 secs

     End of self-consistent calculation

          k = 0.0000 0.0000 0.0000 ( 37185 PWs)   bands (ev):

   -38.3926 -38.1116 -24.2428 -23.1456 -23.0463 -22.9460 -18.9276 -18.6751
   -18.3970 -18.3876 -18.1450 -18.1327 -15.7230 -15.5013 -15.0017 -14.7636
   -14.6787 -14.5651 -14.5308 -14.5083 -14.3048 -14.2470 -14.0415 -14.0290
   -13.9194 -13.7649 -13.5302  -9.5496  -9.0750  -9.0530  -8.3936  -8.2703
    -8.2212  -8.1281  -8.1030  -8.0385  -8.0119  -7.8993  -7.8768  -2.3857
    -2.3698  -2.3515  -2.3174  -2.1835  -2.1624  -2.1301  -2.0765  -2.0619
    -2.0263  -1.9864  -1.5718  -1.4362  -1.2085  -1.1534  -1.0193  -0.8189
    -0.7466  -0.7355  -0.7288  -0.6814  -0.3784  -0.3578  -0.3396  -0.3189
    -0.3030  -0.1969  -0.1631  -0.1397  -0.1391  -0.1373  -0.0469  -0.0397
     0.0140   0.0197   0.0613   0.0873   0.0910   0.1126   0.1263   0.1402
     0.2633   0.2729   0.2747   0.2822   0.2913   0.3769   0.3915   0.5985
     0.6735   0.6809   0.7951   0.8110   0.8647   0.9072   0.9600   0.9964
     1.0543   1.0843   1.0998   1.1266   1.2095   1.2332   1.2554   1.2706
     1.5017   1.5623   1.6706   1.6883   1.7153   1.8764   1.9138   1.9397
     1.9495   2.0660   2.0824   2.1186   2.1596   2.3759   2.3992   4.1616
     4.9764   5.0113   5.1409   5.5561   5.7252   6.1531   6.3524   6.4135
     6.7791   7.1196   7.3987   7.4897   7.7662   7.9046   7.9062   8.0878
     8.1214   8.3381

          k = 0.0000 0.1281 0.0000 ( 37255 PWs)   bands (ev):

   -38.3903 -38.1092 -24.2248 -23.1241 -23.0247 -22.9252 -18.8916 -18.6492
   -18.4919 -18.3938 -18.2365 -18.1417 -15.6142 -15.4084 -14.9555 -14.7719
   -14.6582 -14.5746 -14.5402 -14.4777 -14.2930 -14.2857 -14.0466 -14.0343
   -13.9874 -13.8308 -13.5590  -9.5356  -9.0870  -9.0201  -8.3768  -8.2524
    -8.2105  -8.1222  -8.0872  -8.0314  -7.9973  -7.8968  -7.8606  -2.5848
    -2.4537  -2.4258  -2.3495  -2.3021  -2.1498  -2.1314  -2.0927  -1.9914
    -1.9762  -1.9709  -1.7463  -1.7279  -1.4222  -1.2556  -1.2485  -1.1433
    -1.0989  -0.9953  -0.7362  -0.7036  -0.6504  -0.6492  -0.5452  -0.4512
    -0.4408  -0.4080  -0.3912  -0.3717  -0.3185  -0.2821  -0.1779  -0.0670
    -0.0208   0.0186   0.0242   0.1713   0.1738   0.2465   0.2561   0.2660
     0.2747   0.2980   0.3229   0.3545   0.4726   0.5039   0.5703   0.5777
     0.6481   0.6539   0.6762   0.7683   0.8757   0.8858   0.8879   0.9794
     1.0761   1.1937   1.2172   1.2414   1.2516   1.3216   1.4030   1.4037
     1.4533   1.5897   1.6554   1.6845   1.6913   1.7283   1.8603   1.8662
     1.9361   1.9627   2.1822   2.4169   2.6122   2.6948   2.7312   4.3548
     5.3474   5.3807   5.4241   5.8341   5.9816   6.3373   6.6711   6.7291
     7.0292   7.3516   7.5305   7.7355   7.8284   7.8458   8.0477   8.0706
     8.2403   8.3023

          k = 0.0000 0.2563 0.0000 ( 37258 PWs)   bands (ev):

   -38.3847 -38.1033 -24.1806 -23.0713 -22.9717 -22.8742 -18.8005 -18.7170
   -18.6263 -18.4142 -18.3860 -18.1336 -15.3660 -15.2131 -14.8479 -14.8334
   -14.7296 -14.5977 -14.5562 -14.4121 -14.3588 -14.1977 -14.1575 -14.0261
   -14.0115 -13.9851 -13.6230  -9.4959  -9.1154  -8.9388  -8.3368  -8.2107
    -8.1818  -8.1617  -8.0725  -7.9848  -7.9401  -7.8940  -7.7640  -2.9769
    -2.8830  -2.7648  -2.6448  -2.2999  -2.2802  -2.2411  -2.2377  -2.1605
    -2.0738  -2.0160  -2.0096  -1.9307  -1.9181  -1.8039  -1.5822  -1.4001
    -1.1480  -1.1019  -1.0477  -0.9500  -0.9445  -0.8775  -0.8364  -0.7547
    -0.6691  -0.6386  -0.6319  -0.6195  -0.5635  -0.3765  -0.3310  -0.3235
    -0.3196  -0.1933  -0.1377  -0.1216   0.0520   0.1156   0.1627   0.2457
     0.3045   0.3100   0.3222   0.3288   0.4363   0.4956   0.6740   0.7860
     0.8082   0.8553   0.9130   0.9164   1.0647   1.0687   1.0938   1.1086
     1.2144   1.2381   1.2428   1.3132   1.3430   1.3954   1.4543   1.4808
     1.5528   1.5545   1.5716   1.6943   1.8052   1.9446   1.9790   1.9928
     2.0008   2.0259   2.3498   2.5293   2.9997   3.0135   3.4619   4.8393
     6.1321   6.2477   6.2748   6.5243   6.5850   6.7194   7.3709   7.5373
     7.5835   7.7157   7.7444   7.9164   7.9617   8.1903   8.2570   8.4173
     8.4741   8.5585

          k = 0.0000 0.3844 0.0000 ( 37158 PWs)   bands (ev):

   -38.3791 -38.0974 -24.1354 -23.0170 -22.9171 -22.8218 -18.9148 -18.7496
   -18.7022 -18.4100 -18.3783 -18.1255 -15.1163 -15.0453 -14.9902 -14.8631
   -14.7128 -14.6676 -14.5780 -14.3862 -14.3668 -14.3418 -14.1231 -14.0243
   -13.9684 -13.9525 -13.7077  -9.4446  -9.1478  -8.8542  -8.2978  -8.1925
    -8.1715  -8.1472  -8.1054  -7.9798  -7.8766  -7.7850  -7.6624  -3.3907
    -3.3352  -3.2378  -3.0133  -2.8526  -2.8364  -2.5747  -2.2013  -2.1881
    -2.1226  -2.0733  -2.0603  -1.9539  -1.9271  -1.8535  -1.8234  -1.5232
    -1.3238  -1.2063  -1.2054  -1.1115  -1.0669  -1.0152  -1.0072  -1.0013
    -0.9136  -0.8795  -0.8608  -0.7044  -0.6395  -0.6090  -0.5707  -0.5633
    -0.4428  -0.4172  -0.3648  -0.3159  -0.1789  -0.1019   0.0711   0.1598
     0.2888   0.3044   0.3442   0.3526   0.3988   0.6505   0.7272   0.7775
     0.8949   0.9259   0.9573   1.0012   1.1178   1.1189   1.1683   1.1904
     1.2009   1.2891   1.3116   1.3238   1.4395   1.4883   1.6357   1.7110
     1.7408   1.8485   1.8650   1.8916   1.9586   1.9941   2.0579   2.0933
     2.3285   2.3895   2.4004   2.4417   2.9710   2.9857   4.0154   5.4667
     6.3572   7.0765   7.1356   7.1750   7.3668   7.4647   7.6032   7.6703
     7.8679   7.9763   8.3152   8.3567   8.4763   8.5671   8.6377   8.7958
     8.8481   9.0361

          k = 0.0000-0.5125 0.0000 ( 37290 PWs)   bands (ev):

   -38.3768 -38.0949 -24.1165 -22.9940 -22.8941 -22.7997 -18.9908 -18.8201
   -18.6590 -18.3803 -18.3750 -18.1221 -15.0707 -14.9871 -14.9846 -14.9186
   -14.7727 -14.6026 -14.5360 -14.5026 -14.4006 -14.3428 -14.1669 -13.9375
   -13.9213 -13.8544 -13.8270  -9.4180  -9.1649  -8.8182  -8.2820  -8.2031
    -8.1564  -8.1293  -8.1171  -7.9969  -7.8300  -7.7379  -7.6187  -3.6332
    -3.4798  -3.3855  -3.1470  -3.0917  -3.0682  -2.7091  -2.2364  -2.2228
    -2.1784  -2.1417  -2.0104  -1.9438  -1.8264  -1.8074  -1.7896  -1.7530
    -1.3892  -1.3100  -1.3005  -1.2587  -1.1986  -1.1109  -0.9958  -0.9651
    -0.8789  -0.8665  -0.8384  -0.7972  -0.7731  -0.6580  -0.6503  -0.6480
    -0.5899  -0.5626  -0.4964  -0.3613  -0.2215  -0.1667   0.0053   0.2305
     0.2719   0.2773   0.2797   0.3494   0.3586   0.6353   0.8014   0.8306
     0.9226   0.9232   0.9808   1.0848   1.0964   1.1656   1.2175   1.2501
     1.2639   1.2658   1.2670   1.2954   1.4473   1.4767   1.7638   1.7852
     1.8393   1.8691   1.8978   2.1244   2.1334   2.1403   2.1989   2.2547
     2.2643   2.2832   2.5521   2.5628   2.8334   2.8494   4.2015   5.9412
     6.1342   7.2924   7.4909   7.5606   7.6282   7.6560   7.7438   7.8326
     7.8455   8.0037   8.6186   8.6321   8.7213   8.8729   8.9060   8.9237
     9.1088   9.1200

          k = 0.1250 0.0000 0.0000 ( 37232 PWs)   bands (ev):

   -38.3908 -38.1097 -24.2278 -23.1273 -23.0279 -22.9283 -18.8951 -18.6495
   -18.4970 -18.3851 -18.2463 -18.1301 -15.6076 -15.3982 -15.0261 -14.7898
   -14.6774 -14.6081 -14.5787 -14.4863 -14.2971 -14.2765 -14.0428 -14.0295
   -13.9778 -13.7981 -13.5484  -9.5710  -9.0483  -9.0122  -8.4029  -8.2802
    -8.2402  -8.0937  -8.0691  -8.0034  -7.9776  -7.8619  -7.8447  -2.5547
    -2.4413  -2.3536  -2.3357  -2.2680  -2.1433  -2.1179  -2.0673  -2.0511
    -2.0078  -1.9536  -1.6464  -1.5582  -1.2333  -1.1417  -1.0361  -0.8572
    -0.8303  -0.7335  -0.7301  -0.7233  -0.5746  -0.4905  -0.4397  -0.4304
    -0.4242  -0.4124  -0.3239  -0.3193  -0.2238  -0.1833  -0.1489  -0.0893
    -0.0747   0.1049   0.1185   0.1362   0.1544   0.2044   0.2219   0.2420
     0.2421   0.2709   0.2746   0.2749   0.3839   0.3858   0.4078   0.4435
     0.6733   0.6956   0.7373   0.7427   0.7600   0.9558   0.9684   0.9687
     0.9769   0.9835   0.9854   1.1716   1.1962   1.2536   1.3996   1.4492
     1.4705   1.5444   1.5901   1.6936   1.7878   1.8237   1.8337   1.8606
     2.0062   2.0673   2.0747   2.1670   2.4045   2.4427   2.4535   4.3351
     5.1766   5.2007   5.3306   5.7855   5.9537   6.2897   6.5940   6.6529
     6.9975   7.3105   7.6064   7.7471   7.8868   7.8872   8.0550   8.1076
     8.2427   8.4767

          k = 0.1250 0.1281 0.0000 ( 37248 PWs)   bands (ev):

   -38.3885 -38.1073 -24.2103 -23.1065 -23.0070 -22.9082 -18.8596 -18.6253
   -18.5010 -18.4800 -18.2426 -18.2307 -15.4997 -15.3077 -14.9774 -14.7877
   -14.6370 -14.6221 -14.5753 -14.4586 -14.3299 -14.2816 -14.0418 -14.0292
   -14.0257 -13.8527 -13.5755  -9.5503  -9.1977  -8.8963  -8.3887  -8.2657
    -8.2441  -8.2274  -8.1512  -8.0151  -7.9441  -7.8537  -7.7243  -2.6955
    -2.5477  -2.4906  -2.3732  -2.3002  -2.1501  -2.1425  -2.1099  -2.0721
    -1.9308  -1.9289  -1.7416  -1.7286  -1.6355  -1.2506  -1.2427  -1.1953
    -1.0524  -0.9656  -0.9032  -0.8698  -0.8115  -0.7544  -0.7153  -0.6354
    -0.5979  -0.5655  -0.3971  -0.3856  -0.3032  -0.1990  -0.1248  -0.1013
    -0.0445   0.0088   0.0345   0.1612   0.1803   0.2015   0.2373   0.2496
     0.2549   0.3247   0.3280   0.3436   0.4506   0.4959   0.5171   0.5706
     0.5775   0.7182   0.7797   0.8270   0.8580   0.8752   0.9299   0.9689
     1.0556   1.0914   1.1903   1.2161   1.2685   1.2772   1.3128   1.5333
     1.5354   1.5734   1.6000   1.6311   1.6533   1.7522   1.8266   1.9073
     2.1836   2.2114   2.4211   2.6294   2.6866   2.7428   2.7708   4.5047
     5.5023   5.5246   5.5840   6.0214   6.1697   6.4344   6.9008   6.9581
     7.2196   7.4729   7.6335   7.7796   7.8491   7.8871   8.0474   8.1918
     8.2908   8.3846

          k = 0.1250 0.2563 0.0000 ( 37300 PWs)   bands (ev):

   -38.3829 -38.1014 -24.1673 -23.0556 -22.9559 -22.8588 -18.7697 -18.7125
   -18.6113 -18.4814 -18.4035 -18.2270 -15.2540 -15.1220 -14.8475 -14.8323
   -14.6978 -14.5988 -14.5664 -14.4152 -14.3951 -14.2016 -14.1537 -14.0173
   -14.0029 -13.9844 -13.6336  -9.5015  -9.3037  -8.8622  -8.3729  -8.3282
    -8.2752  -8.2104  -8.1911  -8.1257  -7.8998  -7.8096  -7.6877  -3.0752
    -2.9832  -2.7842  -2.6496  -2.3675  -2.2998  -2.2604  -2.2362  -2.2072
    -2.1329  -2.0523  -2.0144  -2.0033  -1.8691  -1.7506  -1.6151  -1.5878
    -1.2745  -1.2282  -1.0869  -1.0688  -1.0474  -0.9986  -0.9470  -0.9432
    -0.8569  -0.6296  -0.6236  -0.5628  -0.5564  -0.4634  -0.3674  -0.3153
    -0.1239  -0.1225  -0.0823  -0.0367   0.0793   0.1176   0.1950   0.2044
     0.2628   0.3209   0.3510   0.3606   0.4739   0.5425   0.5476   0.7141
     0.9295   0.9344   0.9654   1.0200   1.0288   1.0983   1.1248   1.1676
     1.1927   1.2508   1.2816   1.3366   1.3553   1.3849   1.4249   1.4473
     1.5555   1.5856   1.6147   1.8014   1.8595   1.9541   1.9630   1.9732
     2.4419   2.4519   2.6930   2.9205   3.0182   3.0462   3.4648   4.9674
     6.1655   6.3000   6.3284   6.5998   6.6326   6.8171   7.3618   7.5648
     7.7370   7.7735   7.7867   7.9234   7.9685   8.2200   8.3193   8.3620
     8.4449   8.5727

          k = 0.1250 0.3844 0.0000 ( 37301 PWs)   bands (ev):

   -38.3773 -38.0955 -24.1235 -23.0032 -22.9033 -22.8082 -18.9088 -18.7420
   -18.6729 -18.4715 -18.3973 -18.2110 -15.0144 -14.9759 -14.9456 -14.7966
   -14.6905 -14.6579 -14.5665 -14.4215 -14.3635 -14.3188 -14.1041 -14.0306
   -13.9639 -13.9486 -13.7082  -9.4512  -9.3133  -8.9165  -8.3682  -8.3059
    -8.2798  -8.1802  -8.1575  -8.1430  -7.9479  -7.8576  -7.7347  -3.4471
    -3.4007  -3.3276  -3.0656  -2.8418  -2.8263  -2.6082  -2.2794  -2.2202
    -2.1536  -2.1302  -2.0439  -2.0321  -1.9443  -1.8143  -1.7762  -1.7476
    -1.5339  -1.4422  -1.3888  -1.2924  -1.1795  -1.1715  -0.9755  -0.9523
    -0.9227  -0.8587  -0.7458  -0.7191  -0.7058  -0.6085  -0.6045  -0.5617
    -0.3780  -0.2185  -0.1571  -0.1188  -0.0227  -0.0059   0.1410   0.2185
     0.3126   0.3226   0.3511   0.3840   0.4899   0.4918   0.7066   0.8474
     0.8632   0.9665   0.9988   1.1110   1.1807   1.1897   1.2331   1.2467
     1.2851   1.2927   1.3336   1.3358   1.4484   1.5595   1.6216   1.6752
     1.7628   1.9176   1.9561   1.9763   2.0520   2.0582   2.3631   2.3744
     2.4799   2.5003   2.7131   2.8585   3.0101   3.0515   4.0129   5.5658
     6.1703   7.0124   7.0184   7.1031   7.2660   7.3528   7.4939   7.5388
     7.7380   8.0103   8.3198   8.3349   8.5579   8.7257   8.7775   8.8205
     8.9427   8.9959

          k = 0.1250-0.5125 0.0000 ( 37268 PWs)   bands (ev):

   -38.3750 -38.0931 -24.1050 -22.9811 -22.8812 -22.7869 -18.9844 -18.8129
   -18.6303 -18.4674 -18.3711 -18.2028 -15.0300 -14.9429 -14.8672 -14.8228
   -14.7376 -14.5834 -14.5017 -14.4924 -14.4038 -14.3709 -14.1408 -13.9349
   -13.9200 -13.8839 -13.7989  -9.4261  -9.2937  -8.9643  -8.3404  -8.2934
    -8.2546  -8.1674  -8.1410  -8.1271  -7.9965  -7.9056  -7.7774  -3.6247
    -3.5976  -3.4984  -3.2060  -3.0815  -3.0625  -2.7502  -2.2666  -2.2379
    -2.1588  -2.0540  -2.0455  -1.9869  -1.9631  -1.9156  -1.8375  -1.7867
    -1.6847  -1.6572  -1.3629  -1.2731  -1.2403  -1.2117  -1.1542  -1.0364
    -0.8878  -0.8846  -0.8174  -0.7609  -0.6925  -0.6710  -0.6534  -0.6026
    -0.4903  -0.2560  -0.2044  -0.1481  -0.1202  -0.0153   0.1187   0.2359
     0.3114   0.3426   0.3467   0.4287   0.4683   0.4973   0.5472   0.9010
     0.9279   1.0381   1.0677   1.1092   1.1621   1.1863   1.2541   1.2599
     1.2999   1.3157   1.3450   1.3688   1.4079   1.5934   1.7209   1.8455
     1.8913   2.1130   2.1145   2.1312   2.2480   2.2574   2.4447   2.4743
     2.5306   2.5418   2.6302   2.7174   2.9066   2.9696   4.1974   5.8266
     6.2590   6.9591   7.2268   7.2675   7.3291   7.3904   7.5178   7.7831
     7.8183   8.1062   8.7454   8.8324   8.8713   8.9573   9.0439   9.1812
     9.1849   9.2632

          k = 0.2500 0.0000 0.0000 ( 37346 PWs)   bands (ev):

   -38.3864 -38.1052 -24.1912 -23.0824 -22.9827 -22.8849 -18.8134 -18.7119
   -18.6148 -18.4311 -18.3790 -18.1238 -15.3436 -15.1870 -15.0984 -14.8971
   -14.7908 -14.6897 -14.6373 -14.4491 -14.3118 -14.2355 -14.1184 -14.0400
   -14.0238 -13.8604 -13.5896  -9.5993  -8.9827  -8.9378  -8.4140  -8.2900
    -8.2624  -8.0229  -7.9845  -7.9335  -7.8923  -7.7990  -7.7648  -2.8769
    -2.7493  -2.6585  -2.2356  -2.1871  -2.1615  -2.1235  -2.0915  -2.0692
    -2.0158  -1.9236  -1.7965  -1.5265  -1.3046  -1.2327  -1.1714  -1.0174
    -0.9606  -0.9292  -0.8854  -0.8089  -0.7770  -0.7147  -0.7100  -0.6859
    -0.6494  -0.6248  -0.5701  -0.4246  -0.3575  -0.3281  -0.2151  -0.1705
    -0.1304  -0.0520  -0.0121   0.0081   0.1124   0.1263   0.1807   0.1843
     0.2488   0.2509   0.3913   0.4016   0.4102   0.4202   0.4220   0.5183
     0.5532   0.6262   0.7828   0.8214   0.8386   0.8920   0.8958   1.0279
     1.0430   1.0869   1.1299   1.2442   1.2738   1.2833   1.3046   1.3219
     1.4128   1.4808   1.6067   1.6712   1.7156   1.7517   1.8505   1.9475
     1.9660   2.1023   2.2118   2.3530   2.4900   2.5797   2.6576   4.7737
     5.6307   5.6527   5.8275   6.3814   6.5166   6.6857   7.2382   7.2847
     7.5210   7.6118   7.8413   7.8804   8.0280   8.0750   8.1513   8.5035
     8.5391   8.6642

          k = 0.2500 0.1281 0.0000 ( 37310 PWs)   bands (ev):

   -38.3841 -38.1028 -24.1749 -23.0635 -22.9637 -22.8665 -18.7792 -18.7061
   -18.5985 -18.4791 -18.4210 -18.2196 -15.2384 -15.1085 -15.0416 -14.8697
   -14.7404 -14.6649 -14.6180 -14.4195 -14.3773 -14.2260 -14.1249 -14.0286
   -14.0134 -13.8908 -13.6125  -9.5798  -9.2354  -8.8335  -8.4138  -8.2950
    -8.2771  -8.2610  -8.1786  -8.0467  -7.8697  -7.7795  -7.6606  -2.9986
    -2.8878  -2.7040  -2.3622  -2.2440  -2.2072  -2.1700  -2.1353  -2.0880
    -2.0823  -1.8497  -1.7729  -1.7681  -1.6978  -1.3160  -1.3148  -1.2486
    -1.2393  -1.2371  -1.0966  -1.0691  -1.0439  -0.9584  -0.9061  -0.8593
    -0.6660  -0.6312  -0.6218  -0.5086  -0.4373  -0.2710  -0.1349  -0.0929
    -0.0313  -0.0205  -0.0007   0.0151   0.0785   0.1203   0.1413   0.2064
     0.2329   0.2700   0.4393   0.4507   0.4652   0.5240   0.5735   0.5858
     0.6064   0.7150   0.7741   0.9221   0.9652   0.9939   1.0237   1.0615
     1.0826   1.1613   1.1663   1.2160   1.2588   1.2897   1.3020   1.4117
     1.4566   1.4760   1.6201   1.6867   1.6946   1.8085   1.9138   1.9362
     2.4979   2.5055   2.6712   2.7356   2.7528   2.8314   3.0684   4.9149
     5.8717   5.8950   5.9822   6.5222   6.5802   6.7606   7.4863   7.5055
     7.5349   7.6159   7.6698   7.8583   7.9067   8.1020   8.2888   8.5108
     8.6064   8.6594

          k = 0.2500 0.2563 0.0000 ( 37327 PWs)   bands (ev):

   -38.3786 -38.0969 -24.1349 -23.0171 -22.9172 -22.8212 -18.7128 -18.6932
   -18.6762 -18.5927 -18.4656 -18.3180 -15.0061 -14.9603 -14.8878 -14.8167
   -14.6513 -14.6151 -14.5800 -14.5204 -14.3530 -14.1696 -14.1526 -13.9955
   -13.9812 -13.9755 -13.6523  -9.5462  -9.4777  -8.9232  -8.5717  -8.4813
    -8.3531  -8.3406  -8.2278  -8.1962  -7.9657  -7.8768  -7.7571  -3.3798
    -3.3083  -2.9304  -2.6379  -2.4751  -2.3841  -2.3466  -2.3138  -2.2558
    -2.2326  -2.0763  -2.0208  -2.0121  -1.9146  -1.7975  -1.7501  -1.6697
    -1.6466  -1.6038  -1.4954  -1.1176  -1.0410  -1.0276  -1.0001  -0.9752
    -0.9527  -0.8496  -0.6228  -0.5750  -0.4881  -0.4367  -0.4175  -0.3379
    -0.2859  -0.1376  -0.0516   0.0352   0.0648   0.1963   0.2089   0.2884
     0.3193   0.4419   0.4441   0.4934   0.5231   0.5923   0.7749   0.9580
     0.9749   1.0369   1.0626   1.1108   1.1142   1.1205   1.1349   1.2202
     1.2601   1.3068   1.3298   1.3647   1.4144   1.4582   1.5173   1.5481
     1.6416   1.6944   1.7411   1.8704   1.8767   1.9171   1.9177   2.0339
     2.9702   2.9876   3.1016   3.1178   3.3069   3.4744   3.5800   5.3286
     5.9206   6.3760   6.4079   6.7414   6.8801   7.1088   7.2681   7.3608
     7.8486   7.9449   8.0273   8.0673   8.2206   8.4740   8.5358   8.5501
     8.6568   8.7511

          k = 0.2500 0.3844 0.0000 ( 37349 PWs)   bands (ev):

   -38.3731 -38.0911 -24.0943 -22.9697 -22.8697 -22.7750 -18.8944 -18.7240
   -18.6764 -18.5978 -18.4880 -18.2686 -14.8826 -14.8535 -14.7553 -14.6707
   -14.6504 -14.5938 -14.5711 -14.5483 -14.3089 -14.2389 -14.0580 -14.0194
   -13.9519 -13.9374 -13.6901  -9.6136  -9.4699  -9.1414  -8.6757  -8.5880
    -8.4393  -8.3318  -8.2069  -8.2020  -8.1837  -8.1135  -7.9797  -3.7865
    -3.7226  -3.3447  -3.2356  -2.8156  -2.7999  -2.7385  -2.4912  -2.4099
    -2.3115  -2.1472  -2.1286  -2.1197  -2.1157  -2.0875  -1.8943  -1.8760
    -1.7052  -1.5820  -1.5534  -1.3381  -1.2499  -1.1234  -1.1209  -0.9868
    -0.9397  -0.8568  -0.7744  -0.6447  -0.6178  -0.5798  -0.5524  -0.5056
    -0.3603  -0.3357  -0.1011   0.0512   0.1567   0.1709   0.2535   0.3744
     0.4069   0.4738   0.5100   0.5982   0.6987   0.7946   1.0222   1.0330
     1.0516   1.0625   1.1378   1.2449   1.3035   1.3337   1.3424   1.4265
     1.4723   1.4920   1.4993   1.5007   1.5536   1.5767   1.6536   1.7180
     1.8320   1.8898   1.9957   1.9989   2.0643   2.0960   2.2964   2.3082
     2.8994   2.9171   3.3957   3.4013   3.5747   3.8082   4.0020   5.4709
     5.9597   6.5415   6.5735   6.8536   6.9090   7.0155   7.5880   7.6711
     7.7452   8.1666   8.4328   8.4495   8.6723   8.9502   8.9811   9.0618
     9.1954   9.3283

          k = 0.2500-0.5125 0.0000 ( 37378 PWs)   bands (ev):

   -38.3708 -38.0886 -24.0772 -22.9497 -22.8496 -22.7556 -18.9688 -18.7956
   -18.6706 -18.5570 -18.4810 -18.2392 -14.9266 -14.8260 -14.6602 -14.6507
   -14.6058 -14.5555 -14.5421 -14.4973 -14.3825 -14.2971 -14.0742 -13.9306
   -13.9165 -13.9098 -13.7291  -9.6016  -9.4515  -9.2803  -8.6585  -8.5727
    -8.4318  -8.3647  -8.3149  -8.2729  -8.1949  -8.1765  -8.1158  -3.9518
    -3.8862  -3.5791  -3.4027  -3.0536  -3.0387  -2.9011  -2.4804  -2.4031
    -2.2802  -2.2785  -2.2634  -2.1529  -2.1213  -2.0732  -2.0124  -1.8361
    -1.7319  -1.5996  -1.5622  -1.4624  -1.3189  -1.1462  -1.1452  -0.9627
    -0.9275  -0.8775  -0.8618  -0.7218  -0.6793  -0.6406  -0.5284  -0.5006
    -0.4448  -0.3512  -0.1051   0.0538   0.1857   0.2097   0.2686   0.4130
     0.4583   0.4717   0.5407   0.6229   0.7854   0.8978   0.9409   1.1324
     1.1326   1.1370   1.1432   1.3277   1.3311   1.3998   1.4058   1.4071
     1.4102   1.5225   1.5380   1.5576   1.6143   1.6485   1.7178   1.8187
     1.8592   2.0638   2.0785   2.1990   2.2437   2.2522   2.4758   2.4868
     2.7398   2.7594   3.4533   3.4696   3.6289   3.8444   4.1777   5.2916
     6.4947   6.5259   6.5392   6.6514   6.8043   6.8966   7.4025   7.8842
     7.9853   8.1697   8.9204   9.0387   9.0562   9.0673   9.0747   9.1570
     9.4007   9.4737

          k = 0.3750 0.0000 0.0000 ( 37348 PWs)   bands (ev):

   -38.3821 -38.1006 -24.1538 -23.0364 -22.9364 -22.8404 -18.9010 -18.7247
   -18.7215 -18.4403 -18.3729 -18.1175 -15.1908 -15.1017 -15.0678 -15.0150
   -14.8753 -14.8056 -14.6972 -14.4563 -14.3047 -14.2476 -14.1039 -14.0282
   -14.0122 -13.9012 -13.6449  -9.6063  -8.9149  -8.8867  -8.4177  -8.2909
    -8.2632  -7.9611  -7.8961  -7.8742  -7.8030  -7.7596  -7.6815  -3.1783
    -3.0728  -2.9231  -2.4011  -2.2486  -2.2297  -2.1034  -2.0801  -1.9612
    -1.8965  -1.8957  -1.8286  -1.5566  -1.3931  -1.2704  -1.2095  -1.1963
    -1.1359  -1.1192  -1.0891  -1.0766  -0.9848  -0.9642  -0.8721  -0.8485
    -0.7008  -0.6992  -0.6946  -0.5738  -0.5099  -0.4849  -0.4691  -0.3702
    -0.2581  -0.1878  -0.1855  -0.0819   0.1077   0.1504   0.2040   0.2094
     0.2353   0.2375   0.3691   0.4502   0.4541   0.4609   0.4825   0.5170
     0.6043   0.6426   0.7369   0.8308   0.9418   0.9915   1.0450   1.0518
     1.0657   1.1304   1.1623   1.2067   1.2117   1.2782   1.3217   1.3246
     1.5483   1.5972   1.6265   1.6604   1.7133   1.7243   1.9378   2.0102
     2.0462   2.1389   2.2392   2.3909   2.4841   2.6858   2.6994   5.3723
     6.2565   6.2669   6.2924   6.8629   7.0042   7.2889   7.4961   7.7521
     7.7901   7.7974   7.8547   8.0434   8.2383   8.3560   8.5012   8.6378
     8.7096   8.8339

          k = 0.3750 0.1281 0.0000 ( 37304 PWs)   bands (ev):

   -38.3798 -38.0982 -24.1388 -23.0194 -22.9194 -22.8238 -18.8937 -18.7126
   -18.6918 -18.4713 -18.4284 -18.2052 -15.1242 -15.0366 -15.0157 -14.9316
   -14.7894 -14.7621 -14.6659 -14.4218 -14.3720 -14.2212 -14.0847 -14.0116
   -13.9958 -13.9116 -13.6659  -9.5887  -9.1752  -8.8914  -8.4148  -8.2902
    -8.2636  -8.2137  -8.1211  -7.9897  -7.9249  -7.8355  -7.7219  -3.3112
    -3.2207  -2.9782  -2.4509  -2.3103  -2.2619  -2.1867  -2.1775  -2.0950
    -2.0285  -1.8207  -1.7728  -1.7712  -1.7162  -1.5566  -1.5537  -1.4942
    -1.3735  -1.2460  -1.2422  -1.1273  -1.0396  -0.9996  -0.9764  -0.9043
    -0.8840  -0.7917  -0.7388  -0.6011  -0.5635  -0.3550  -0.2923  -0.1858
    -0.1692  -0.0912  -0.0549  -0.0138   0.0608   0.0650   0.1322   0.1733
     0.2460   0.3371   0.4151   0.5203   0.5286   0.6323   0.6398   0.6408
     0.6452   0.8322   0.8557   0.9282   0.9371   1.0167   1.0526   1.1056
     1.1281   1.1351   1.1793   1.2038   1.2505   1.3539   1.3589   1.3704
     1.5259   1.5708   1.6534   1.6694   1.7001   1.9287   1.9671   2.0763
     2.6152   2.6178   2.7000   2.7636   2.7925   2.9855   3.1469   5.4939
     6.1650   6.3844   6.4136   6.6888   7.0841   7.3442   7.4473   7.4902
     7.6293   7.8312   7.8655   8.0166   8.3888   8.5603   8.6691   8.6880
     8.8098   8.8574

          k = 0.3750 0.2563 0.0000 ( 37327 PWs)   bands (ev):

   -38.3743 -38.0924 -24.1021 -22.9779 -22.8778 -22.7829 -18.8763 -18.6921
   -18.6865 -18.6085 -18.5172 -18.2701 -14.9467 -14.9064 -14.8910 -14.7444
   -14.6362 -14.6243 -14.5989 -14.5376 -14.3387 -14.1603 -14.0257 -13.9725
   -13.9583 -13.9549 -13.6856  -9.5891  -9.5030  -9.1280  -8.6201  -8.5304
    -8.3939  -8.3715  -8.2463  -8.2108  -8.1914  -8.1042  -7.9780  -3.7221
    -3.6604  -3.2088  -2.6446  -2.6097  -2.5138  -2.4477  -2.3438  -2.2597
    -2.2373  -2.1319  -2.1188  -2.0851  -2.0271  -2.0184  -1.9980  -1.8668
    -1.5733  -1.5059  -1.4878  -1.3008  -1.0853  -1.0421  -1.0178  -0.9504
    -0.9150  -0.8421  -0.7264  -0.5779  -0.4883  -0.4879  -0.4566  -0.4290
    -0.2819  -0.2691  -0.1389   0.1377   0.1974   0.2408   0.2817   0.3613
     0.4540   0.5144   0.5898   0.6564   0.6886   0.8141   1.0018   1.0086
     1.0373   1.0479   1.1014   1.1349   1.1831   1.2056   1.2094   1.2672
     1.3207   1.3904   1.4096   1.4334   1.4537   1.5100   1.5309   1.6229
     1.7425   1.7514   1.7841   1.7872   1.9198   1.9669   1.9792   2.1026
     2.9741   2.9888   3.4716   3.4910   3.5179   3.6621   3.9041   5.4949
     5.8593   6.3460   6.3877   6.7391   6.8722   6.9330   7.5428   7.6949
     7.9241   8.0746   8.1080   8.2054   8.5248   8.8472   8.8561   8.9481
     8.9779   9.2215

          k = 0.3750 0.3844 0.0000 ( 37423 PWs)   bands (ev):

   -38.3688 -38.0866 -24.0647 -22.9355 -22.8354 -22.7413 -18.8811 -18.8559
   -18.7081 -18.6622 -18.5191 -18.2107 -14.8106 -14.7518 -14.7011 -14.6793
   -14.6102 -14.5927 -14.5437 -14.4357 -14.2646 -14.1508 -14.0089 -13.9391
   -13.9245 -13.9122 -13.6684  -9.8285  -9.4956  -9.4204  -8.8844  -8.7969
    -8.6452  -8.5191  -8.4330  -8.3587  -8.2850  -8.2360  -8.2066  -4.1669
    -4.1124  -3.5715  -3.2696  -2.9983  -2.7819  -2.7722  -2.6225  -2.5456
    -2.5170  -2.4321  -2.4318  -2.1430  -2.1278  -2.1026  -2.0893  -2.0150
    -1.6417  -1.5794  -1.3870  -1.2995  -1.2193  -1.1637  -1.1521  -0.9989
    -0.9973  -0.8386  -0.7679  -0.7121  -0.6806  -0.6572  -0.5296  -0.4508
    -0.3644  -0.2408  -0.2300   0.1634   0.2525   0.2990   0.5612   0.5887
     0.6329   0.7280   0.7747   0.8580   1.0068   1.1643   1.1686   1.1885
     1.2058   1.2608   1.2870   1.3106   1.3856   1.4509   1.4715   1.4823
     1.5033   1.6220   1.6346   1.6681   1.6713   1.7074   1.8033   1.8195
     1.8746   1.9007   2.0164   2.0300   2.1326   2.2173   2.2295   2.3179
     2.8916   2.9107   3.9753   4.0389   4.0659   4.1583   4.4045   4.8870
     5.9838   6.0232   6.2977   6.5618   6.5825   6.8570   7.6304   7.9003
     8.0097   8.3038   8.6550   8.6809   8.7086   8.7674   9.0572   9.1248
     9.2717   9.3159

          k = 0.3750-0.5125 0.0000 ( 37434 PWs)   bands (ev):

   -38.3665 -38.0842 -24.0491 -22.9178 -22.8176 -22.7238 -18.9533 -18.8505
   -18.7782 -18.6585 -18.4800 -18.1788 -14.8148 -14.7134 -14.6818 -14.6149
   -14.5606 -14.5203 -14.4998 -14.3593 -14.2650 -14.2220 -13.9998 -13.9267
   -13.9129 -13.8456 -13.6567  -9.9089  -9.5848  -9.4573  -8.9623  -8.8759
    -8.7264  -8.6743  -8.5882  -8.4251  -8.3529  -8.2334  -8.2000  -4.3479
    -4.2934  -3.7402  -3.5137  -3.1686  -3.0188  -3.0103  -2.6577  -2.6428
    -2.5617  -2.5438  -2.4443  -2.1396  -2.1234  -2.1104  -2.0888  -2.0645
    -1.6651  -1.6562  -1.4051  -1.3402  -1.2907  -1.1271  -1.1047  -1.0615
    -1.0535  -0.8651  -0.8475  -0.7598  -0.7401  -0.7163  -0.5107  -0.5094
    -0.3919  -0.2107  -0.1967   0.1729   0.2790   0.3255   0.5964   0.6822
     0.6872   0.8619   0.9234   0.9251   1.1266   1.2196   1.2473   1.2548
     1.2877   1.3461   1.3575   1.4019   1.4591   1.5224   1.5375   1.6255
     1.6280   1.6424   1.6823   1.7239   1.7529   1.8031   1.8270   1.8907
     1.9908   1.9978   2.1260   2.2601   2.2710   2.4127   2.4260   2.4615
     2.7182   2.7412   4.1185   4.2114   4.2344   4.3217   4.5598   4.6516
     5.7915   5.8259   6.3949   6.4789   6.6907   6.7808   7.4681   8.0531
     8.1687   8.2001   8.7355   8.7977   8.8193   9.0146   9.0336   9.1899
     9.2255   9.3636

          k =-0.5000 0.0000 0.0000 ( 37306 PWs)   bands (ev):

   -38.3802 -38.0987 -24.1382 -23.0170 -22.9169 -22.8217 -18.9731 -18.7884
   -18.6863 -18.4133 -18.3704 -18.1148 -15.2357 -15.1261 -15.0901 -14.9152
   -14.8696 -14.8420 -14.7380 -14.4890 -14.2930 -14.2928 -14.0452 -14.0065
   -13.9966 -13.9126 -13.6859  -9.6047  -8.8861  -8.8712  -8.4182  -8.2904
    -8.2585  -7.9369  -7.8582  -7.8514  -7.7647  -7.7481  -7.6459  -3.3002
    -3.1963  -3.0378  -2.5330  -2.2745  -2.2564  -2.1001  -1.9542  -1.9275
    -1.9265  -1.8840  -1.6762  -1.6711  -1.4706  -1.4340  -1.3351  -1.2073
    -1.1646  -1.1262  -1.1108  -1.0820  -1.0584  -0.9746  -0.9674  -0.9444
    -0.7634  -0.7052  -0.6948  -0.6896  -0.6887  -0.6540  -0.5029  -0.3991
    -0.3262  -0.2437  -0.1932  -0.1492   0.1389   0.1740   0.2188   0.2210
     0.2297   0.2319   0.3204   0.4646   0.4740   0.4754   0.5010   0.5558
     0.5600   0.5626   0.8212   0.9302   1.0133   1.0169   1.0198   1.0442
     1.1259   1.1664   1.1671   1.1901   1.2304   1.2711   1.3076   1.3299
     1.5927   1.6088   1.6404   1.6604   1.7331   1.7760   1.9940   2.0306
     2.1308   2.1567   2.2429   2.3794   2.4372   2.6805   2.6989   5.9431
     6.1075   6.7600   6.9970   7.0364   7.1329   7.1439   7.3169   7.6117
     7.6968   7.7797   7.9414   8.0306   8.4189   8.5634   8.6874   8.8992
     8.9662   9.0401

          k =-0.5000 0.1281 0.0000 ( 37308 PWs)   bands (ev):

   -38.3780 -38.0963 -24.1237 -23.0009 -22.9007 -22.8058 -18.9654 -18.7798
   -18.6540 -18.4680 -18.4049 -18.1980 -15.1655 -15.0750 -15.0361 -14.8282
   -14.7992 -14.7527 -14.7060 -14.4540 -14.3596 -14.2554 -14.0183 -13.9882
   -13.9730 -13.9159 -13.7123  -9.5862  -9.0786  -8.9944  -8.4123  -8.2850
    -8.2563  -8.0717  -8.0692  -7.9866  -7.9760  -7.8733  -7.8498  -3.4394
    -3.3496  -3.1011  -2.5840  -2.3085  -2.2760  -2.1707  -2.1567  -2.0861
    -1.8859  -1.8377  -1.8057  -1.8028  -1.7849  -1.7287  -1.6526  -1.5310
    -1.4042  -1.2534  -1.2442  -1.1545  -1.0692  -1.0007  -0.9868  -0.9061
    -0.8628  -0.8471  -0.7903  -0.6618  -0.6284  -0.4049  -0.3572  -0.2289
    -0.2019  -0.1649  -0.0796  -0.0757   0.0312   0.0600   0.1520   0.1859
     0.2380   0.3831   0.4265   0.5202   0.5224   0.6328   0.6536   0.7203
     0.7244   0.8245   0.8542   0.8560   1.0336   1.0590   1.0614   1.1051
     1.1577   1.1711   1.1987   1.2080   1.2255   1.3221   1.3344   1.3782
     1.5751   1.6161   1.6547   1.6563   1.7630   1.9102   2.1225   2.1477
     2.6393   2.6407   2.7000   2.7575   2.7890   3.0087   3.1282   5.9571
     6.1914   6.3755   6.8146   6.8623   7.2694   7.3315   7.4130   7.4918
     7.5038   7.7184   7.8056   8.1327   8.6851   8.8286   8.9470   9.0475
     9.0516   9.0865

          k =-0.5000 0.2563 0.0000 ( 37354 PWs)   bands (ev):

   -38.3725 -38.0905 -24.0883 -22.9614 -22.8613 -22.7668 -18.9466 -18.7590
   -18.6821 -18.5723 -18.5119 -18.2436 -14.9865 -14.9306 -14.8934 -14.7195
   -14.6294 -14.6071 -14.5410 -14.5229 -14.3699 -14.1631 -13.9656 -13.9490
   -13.9422 -13.9066 -13.7323  -9.5538  -9.4905  -9.2866  -8.5444  -8.4526
    -8.3826  -8.3769  -8.3316  -8.2978  -8.2524  -8.2075  -8.1624  -3.8645
    -3.8020  -3.3445  -2.7883  -2.5969  -2.5252  -2.4627  -2.3343  -2.2737
    -2.2598  -2.2513  -2.2311  -2.0827  -2.0297  -2.0198  -1.9943  -1.9500
    -1.5630  -1.4881  -1.4860  -1.3842  -1.0583  -1.0483  -0.9820  -0.9063
    -0.8685  -0.8569  -0.7619  -0.5778  -0.5223  -0.4858  -0.4824  -0.4724
    -0.2954  -0.2889  -0.1561   0.1708   0.2045   0.3117   0.3413   0.4361
     0.5361   0.5522   0.5737   0.7014   0.7247   0.9660   0.9710   1.0567
     1.0776   1.1326   1.1343   1.1505   1.2091   1.2647   1.2773   1.2929
     1.3209   1.3263   1.3728   1.4139   1.5084   1.5188   1.6566   1.7097
     1.7167   1.7374   1.7643   1.7733   1.8082   1.9393   2.0896   2.2116
     2.9718   2.9858   3.4816   3.6049   3.6231   3.7572   3.9830   5.3061
     6.2970   6.3459   6.3813   6.4346   6.7767   6.8293   7.6746   7.9495
     8.0082   8.1748   8.2033   8.2552   8.7885   8.8298   9.0381   9.1158
     9.1704   9.1941

          k =-0.5000 0.3844 0.0000 ( 37462 PWs)   bands (ev):

   -38.3670 -38.0847 -24.0523 -22.9212 -22.8211 -22.7272 -18.9279 -18.8730
   -18.7382 -18.6960 -18.4847 -18.1813 -14.8360 -14.7218 -14.6934 -14.6812
   -14.5889 -14.5707 -14.5604 -14.3033 -14.2911 -14.1122 -13.9855 -13.9327
   -13.9189 -13.8282 -13.6723  -9.8897  -9.5738  -9.4897  -8.9340  -8.8462
    -8.6986  -8.6765  -8.5916  -8.4344  -8.3716  -8.2504  -8.2167  -4.3252
    -4.2728  -3.7115  -3.2576  -3.1381  -2.7698  -2.7604  -2.6602  -2.6565
    -2.5789  -2.5442  -2.4603  -2.1486  -2.1405  -2.1269  -2.0847  -2.0518
    -1.6418  -1.6349  -1.3070  -1.2427  -1.2193  -1.2122  -1.1960  -0.9605
    -0.9581  -0.9067  -0.7644  -0.7046  -0.6928  -0.6778  -0.5284  -0.4898
    -0.4028  -0.1922  -0.1775   0.1644   0.2888   0.4105   0.6242   0.7151
     0.7397   0.8628   0.9796   1.0039   1.1122   1.1935   1.2305   1.2310
     1.2415   1.3080   1.3334   1.3387   1.4211   1.5210   1.5636   1.5820
     1.6022   1.6343   1.6443   1.6650   1.7225   1.7441   1.7460   1.8405
     2.0080   2.0171   2.0202   2.0310   2.0843   2.1808   2.1915   2.4623
     2.8897   2.9088   3.9748   4.2595   4.2862   4.3630   4.6060   4.6402
     5.7445   5.7847   6.3747   6.4562   6.6488   6.7088   7.6767   8.0291
     8.1626   8.2389   8.5467   8.6399   8.7983   8.9529   9.0421   9.1635
     9.2857   9.3253

          k =-0.5000-0.5125 0.0000 ( 37436 PWs)   bands (ev):

   -38.3647 -38.0823 -24.0373 -22.9044 -22.8042 -22.7105 -18.9469 -18.9201
   -18.7710 -18.7296 -18.4464 -18.1492 -14.7790 -14.7654 -14.6277 -14.5844
   -14.5463 -14.5225 -14.5012 -14.2637 -14.2105 -14.1949 -13.9651 -13.9255
   -13.9111 -13.7936 -13.6259 -10.0373  -9.6923  -9.4704  -9.0850  -8.9983
    -8.8464  -8.7941  -8.7091  -8.5424  -8.3677  -8.2507  -8.2109  -4.5128
    -4.4622  -3.8800  -3.5046  -3.3073  -3.0069  -2.9981  -2.7916  -2.6862
    -2.6537  -2.6067  -2.4836  -2.1714  -2.1280  -2.1151  -2.0870  -2.0814
    -1.7075  -1.6557  -1.3212  -1.2979  -1.2892  -1.1958  -1.1803  -1.0128
    -1.0053  -0.9357  -0.8543  -0.7872  -0.7761  -0.6362  -0.5343  -0.5070
    -0.4823  -0.1470  -0.1344   0.1755   0.3326   0.4295   0.6421   0.8086
     0.8846   1.0674   1.1071   1.1371   1.2406   1.2473   1.2740   1.2958
     1.2971   1.3395   1.3527   1.4730   1.5103   1.5722   1.6130   1.7221
     1.7579   1.7607   1.7704   1.7880   1.8243   1.8414   1.8848   1.8856
     1.9231   2.1387   2.2312   2.2808   2.2910   2.3873   2.3986   2.6152
     2.7125   2.7360   4.1085   4.3832   4.4844   4.5026   4.5897   4.8208
     5.5010   5.5352   6.2688   6.3645   6.6839   6.7915   7.6303   8.1428
     8.1580   8.2698   8.4584   8.6283   8.7646   8.9208   8.9222   8.9785
     9.2170   9.2343

     the Fermi energy is     2.6969 ev

!    total energy              =   -1868.75309553 Ry
     Harris-Foulkes estimate   =   -1868.75309587 Ry
     estimated scf accuracy    <       0.00000068 Ry

     The total energy is the sum of the following terms:

     one-electron contribution =  -25947.97463249 Ry
     hartree contribution      =   13125.55553455 Ry
     xc contribution           =    -642.22019042 Ry
     ewald contribution        =   11595.89459213 Ry
     smearing contrib. (-TS)   =      -0.00839930 Ry

     convergence has been achieved in  36 iterations

     negative rho (up, down):  9.054E-02 0.000E+00

     Forces acting on atoms (cartesian axes, Ry/au):

     atom    1 type  3   force =     0.00000000    0.00000000    0.00001673
     atom    2 type  2   force =     0.00000000    0.00000000    0.00076174
     atom    3 type  3   force =     0.00000000    0.00000000   -0.00000896
     atom    4 type  1   force =     0.00000000    0.00000000   -0.00020794
     atom    5 type  2   force =     0.00000000    0.00000000   -0.00062727
     atom    6 type  3   force =     0.00000000    0.00000000    0.00048522
     atom    7 type  3   force =     0.00000000    0.00000000    0.00005713
     atom    8 type  4   force =     0.00000000    0.00000000   -0.00079767
     atom    9 type  3   force =     0.00000000    0.00000000    0.00103452
     atom   10 type  3   force =     0.00000000    0.00000000    0.00138874
     atom   11 type  2   force =     0.00000000    0.00000000   -0.00112982
     atom   12 type  1   force =     0.00000000    0.00000000   -0.00490022
     atom   13 type  3   force =     0.00000000    0.00000000    0.00295858
     atom   14 type  3   force =     0.00000000    0.00000000    0.01577221
     atom   15 type  2   force =     0.00000000    0.00000000   -0.01392606
     atom   16 type  3   force =     0.00000000    0.00000000    0.03589621
     atom   17 type  1   force =     0.00000000    0.00000000   -0.03408136
     atom   18 type  2   force =     0.00000000    0.00000000    0.00262060
     atom   19 type  3   force =     0.00000000    0.00000000    0.02784855
     atom   20 type  3   force =     0.00000000    0.00000000    0.01824571
     atom   21 type  4   force =     0.00000000    0.00000000   -0.10273814
     atom   22 type  3   force =     0.00000000    0.00000000    0.01642510
     atom   23 type  3   force =     0.00000000    0.00000000    0.01922927
     atom   24 type  2   force =     0.00000000    0.00000000    0.00551025
     atom   25 type  1   force =     0.00000000    0.00000000    0.01121733
     atom   26 type  3   force =     0.00000000    0.00000000   -0.00065429
     atom   27 type  2   force =     0.00000000    0.00000000    0.00090113
     atom   28 type  3   force =     0.00000000    0.00000000   -0.00129727

     Total force =     0.120678     Total SCF correction =     0.001573


     Computing stress (Cartesian axis) and pressure


     negative rho (up, down):  9.054E-02 0.000E+00
          total   stress  (Ry/bohr**3)                   (kbar)     P=       -6.14
  -0.00008227   0.00000000   0.00000000          -12.10        0.00        0.00
   0.00000000  -0.00003328   0.00000000            0.00       -4.90        0.00
   0.00000000   0.00000000  -0.00000966            0.00        0.00       -1.42


     BFGS Geometry Optimization

     number of scf cycles    =   1
     number of bfgs steps    =   0

     energy   new            =   -1868.7530955318 Ry

     new trust radius        =       0.1027381402 bohr
     new conv_thr            =       0.0000010000 Ry


ATOMIC_POSITIONS (angstrom)
O             0.0000000000        1.8966400000       -0.1003100000    0   0   0
Cu            0.0000000000        0.0000000000        0.0839000000    0   0   0
O             0.0000000000        0.0000000000        1.9725500000    0   0   0
Ba            1.9441200000        1.8966400000        2.0684200000    0   0   0
Cu            0.0000000000        0.0000000000        4.0810400000    0   0   0
O             1.9441200000        0.0000000000        4.3476700000    0   0   0
O             0.0000000000        1.8966400000        4.3832700000    0   0   0
Y             1.9441200000        1.8966400000        5.8085600000    0   0   0
O             0.0000000000        1.8966400000        7.1922400000    0   0   0
O             1.9441200000        0.0000000000        7.2681800000    0   0   0
Cu            0.0000000000        0.0000000000        7.5500200000    0   0   0
Ba            1.9441200000        1.8966400000        9.5363300000    0   0   0
O             0.0000000000        0.0000000000        9.7608400000    0   0   0
O             0.0000000000        1.8966400000       11.6608162951
Cu            0.0000000000        0.0000000000       11.6451206444
O             0.0000000000        0.0000000000       13.5630254566
Ba            1.9441200000        1.8966400000       13.7504749232
Cu            0.0000000000        0.0000000000       19.7562967599
O             1.9441200000        0.0000000000       20.0514368171
O             0.0000000000        1.8966400000       20.1222252123
Y             1.9441200000        1.8966400000       21.5918933178
O             0.0000000000        1.8966400000       22.9215500000    0   0   0
O             1.9441200000        0.0000000000       22.9572000000    0   0   0
Cu            0.0000000000        0.0000000000       23.2238500000    0   0   0
Ba            1.9441200000        1.8966400000       25.2364100000    0   0   0
O             0.0000000000        0.0000000000       25.3322800000    0   0   0
Cu            0.0000000000        0.0000000000       27.2208200000    0   0   0
O             0.0000000000        1.8966400000       27.4050500000    0   0   0


     NEW-OLD atomic charge density approx. for the potential

     negative rho (up, down):  9.121E-02 0.000E+00

     total cpu time spent up to now is      737.8 secs

     Self-consistent Calculation

     iteration #  1     ecut=    60.00 Ry     beta= 0.20
     Davidson diagonalization with overlap
     ethr =  1.00E-06,  avg # of iterations =  6.0

     negative rho (up, down):  9.087E-02 0.000E+00

     total cpu time spent up to now is      776.1 secs

     total energy              =   -1868.76494752 Ry
     Harris-Foulkes estimate   =   -1868.76523790 Ry
     estimated scf accuracy    <       0.03310137 Ry

     iteration #  2     ecut=    60.00 Ry     beta= 0.20
     Davidson diagonalization with overlap
     ethr =  1.45E-05,  avg # of iterations =  1.0

     negative rho (up, down):  9.070E-02 0.000E+00

     total cpu time spent up to now is      791.8 secs

     total energy              =   -1868.76547010 Ry
     Harris-Foulkes estimate   =   -1868.76526900 Ry
     estimated scf accuracy    <       0.00235665 Ry

     iteration #  3     ecut=    60.00 Ry     beta= 0.20
     Davidson diagonalization with overlap
     ethr =  1.03E-06,  avg # of iterations =  1.0

     negative rho (up, down):  9.063E-02 0.000E+00

     total cpu time spent up to now is      807.6 secs

     total energy              =   -1868.76559695 Ry
     Harris-Foulkes estimate   =   -1868.76548689 Ry
     estimated scf accuracy    <       0.00090680 Ry

     iteration #  4     ecut=    60.00 Ry     beta= 0.20
     Davidson diagonalization with overlap
     ethr =  3.96E-07,  avg # of iterations =  1.2

     negative rho (up, down):  9.063E-02 0.000E+00

     total cpu time spent up to now is      823.7 secs

     total energy              =   -1868.76567227 Ry
     Harris-Foulkes estimate   =   -1868.76561169 Ry
     estimated scf accuracy    <       0.00055243 Ry

     iteration #  5     ecut=    60.00 Ry     beta= 0.20
     Davidson diagonalization with overlap
     ethr =  2.41E-07,  avg # of iterations =  2.0

     negative rho (up, down):  9.060E-02 0.000E+00

     total cpu time spent up to now is      841.1 secs

     total energy              =   -1868.76574805 Ry
     Harris-Foulkes estimate   =   -1868.76568918 Ry
     estimated scf accuracy    <       0.00040402 Ry

     iteration #  6     ecut=    60.00 Ry     beta= 0.20
     Davidson diagonalization with overlap
     ethr =  1.76E-07,  avg # of iterations =  1.0

     negative rho (up, down):  9.062E-02 0.000E+00

     total cpu time spent up to now is      856.9 secs

     total energy              =   -1868.76571453 Ry
     Harris-Foulkes estimate   =   -1868.76575047 Ry
     estimated scf accuracy    <       0.00032121 Ry

     iteration #  7     ecut=    60.00 Ry     beta= 0.20
     Davidson diagonalization with overlap
     ethr =  1.40E-07,  avg # of iterations =  2.1

     negative rho (up, down):  9.056E-02 0.000E+00

     total cpu time spent up to now is      874.5 secs

     total energy              =   -1868.76577229 Ry
     Harris-Foulkes estimate   =   -1868.76573443 Ry
     estimated scf accuracy    <       0.00016056 Ry

     iteration #  8     ecut=    60.00 Ry     beta= 0.20
     Davidson diagonalization with overlap
     ethr =  7.01E-08,  avg # of iterations =  1.8

     negative rho (up, down):  9.040E-02 0.000E+00

     total cpu time spent up to now is      891.1 secs

     total energy              =   -1868.76581368 Ry
     Harris-Foulkes estimate   =   -1868.76577394 Ry
     estimated scf accuracy    <       0.00012359 Ry

     iteration #  9     ecut=    60.00 Ry     beta= 0.20
     Davidson diagonalization with overlap
     ethr =  5.40E-08,  avg # of iterations =  2.6

     negative rho (up, down):  9.037E-02 0.000E+00

     total cpu time spent up to now is      908.7 secs

     total energy              =   -1868.76584068 Ry
     Harris-Foulkes estimate   =   -1868.76581837 Ry
     estimated scf accuracy    <       0.00005850 Ry

     iteration # 10     ecut=    60.00 Ry     beta= 0.20
     Davidson diagonalization with overlap
     ethr =  2.55E-08,  avg # of iterations =  1.5

     negative rho (up, down):  9.038E-02 0.000E+00

     total cpu time spent up to now is      925.0 secs

     total energy              =   -1868.76586207 Ry
     Harris-Foulkes estimate   =   -1868.76584203 Ry
     estimated scf accuracy    <       0.00003150 Ry

     iteration # 11     ecut=    60.00 Ry     beta= 0.20
     Davidson diagonalization with overlap
     ethr =  1.38E-08,  avg # of iterations =  1.5

     negative rho (up, down):  9.039E-02 0.000E+00

     total cpu time spent up to now is      941.4 secs

     total energy              =   -1868.76587656 Ry
     Harris-Foulkes estimate   =   -1868.76586299 Ry
     estimated scf accuracy    <       0.00001389 Ry

     iteration # 12     ecut=    60.00 Ry     beta= 0.20
     Davidson diagonalization with overlap
     ethr =  6.06E-09,  avg # of iterations =  1.7

     negative rho (up, down):  9.042E-02 0.000E+00

     total cpu time spent up to now is      958.1 secs

     total energy              =   -1868.76588641 Ry
     Harris-Foulkes estimate   =   -1868.76587695 Ry
     estimated scf accuracy    <       0.00000789 Ry

     iteration # 13     ecut=    60.00 Ry     beta= 0.20
     Davidson diagonalization with overlap
     ethr =  3.44E-09,  avg # of iterations =  1.9

     negative rho (up, down):  9.045E-02 0.000E+00

     total cpu time spent up to now is      975.0 secs

     total energy              =   -1868.76589195 Ry
     Harris-Foulkes estimate   =   -1868.76588671 Ry
     estimated scf accuracy    <       0.00000604 Ry

     iteration # 14     ecut=    60.00 Ry     beta= 0.20
     Davidson diagonalization with overlap
     ethr =  2.64E-09,  avg # of iterations =  1.6

     negative rho (up, down):  9.046E-02 0.000E+00

     total cpu time spent up to now is      991.5 secs

     total energy              =   -1868.76589569 Ry
     Harris-Foulkes estimate   =   -1868.76589210 Ry
     estimated scf accuracy    <       0.00000269 Ry

     iteration # 15     ecut=    60.00 Ry     beta= 0.20
     Davidson diagonalization with overlap
     ethr =  1.17E-09,  avg # of iterations =  1.7

     negative rho (up, down):  9.047E-02 0.000E+00

     total cpu time spent up to now is     1008.1 secs

     total energy              =   -1868.76589819 Ry
     Harris-Foulkes estimate   =   -1868.76589575 Ry
     estimated scf accuracy    <       0.00000136 Ry

     iteration # 16     ecut=    60.00 Ry     beta= 0.20
     Davidson diagonalization with overlap
     ethr =  5.94E-10,  avg # of iterations =  1.6

     negative rho (up, down):  9.048E-02 0.000E+00

     total cpu time spent up to now is     1024.9 secs

     total energy              =   -1868.76589966 Ry
     Harris-Foulkes estimate   =   -1868.76589821 Ry
     estimated scf accuracy    <       0.00000114 Ry

     iteration # 17     ecut=    60.00 Ry     beta= 0.20
     Davidson diagonalization with overlap
     ethr =  4.99E-10,  avg # of iterations =  1.3

     negative rho (up, down):  9.058E-02 0.000E+00

     total cpu time spent up to now is     1040.4 secs

     End of self-consistent calculation

          k = 0.0000 0.0000 0.0000 ( 37185 PWs)   bands (ev):

   -38.4112 -38.0711 -24.1271 -23.1077 -23.0616 -22.9893 -18.9461 -18.6164
   -18.4154 -18.4061 -18.1001 -18.0851 -15.7407 -15.4911 -15.0067 -14.7816
   -14.5722 -14.5474 -14.5459 -14.5259 -14.3204 -14.2647 -14.0484 -14.0439
   -13.8596 -13.7842 -13.6345  -9.4438  -8.9632  -8.9414  -8.3423  -8.2913
    -8.2586  -8.0953  -8.0690  -8.0539  -8.0273  -7.9429  -7.9202  -2.3691
    -2.3349  -2.2988  -2.2860  -2.2006  -2.1627  -2.1454  -2.0788  -2.0693
    -2.0116  -2.0040  -1.6608  -1.5337  -1.2169  -1.1712  -0.9710  -0.7969
    -0.7510  -0.7435  -0.7066  -0.6549  -0.3946  -0.3643  -0.3546  -0.3260
    -0.3180  -0.2085  -0.1841  -0.1524  -0.1508  -0.1444  -0.0552  -0.0025
     0.0030   0.0063   0.0330   0.0727   0.0971   0.1116   0.1123   0.1249
     0.2282   0.2457   0.2551   0.2600   0.2763   0.3667   0.3768   0.5770
     0.6415   0.6830   0.7974   0.8284   0.8556   0.9437   0.9587   0.9852
     1.0601   1.0696   1.1000   1.1228   1.1927   1.2178   1.2579   1.2735
     1.4723   1.5879   1.6696   1.6704   1.7002   1.8427   1.8688   1.8987
     1.9271   1.9630   2.0556   2.1115   2.1210   2.3706   2.3845   4.2137
     4.9746   5.0001   5.2015   5.5512   5.7195   6.1458   6.3770   6.3996
     6.7618   7.1290   7.4329   7.5730   7.7648   7.8881   7.9055   8.0852
     8.1639   8.3233

          k = 0.0000 0.1281 0.0000 ( 37255 PWs)   bands (ev):

   -38.4088 -38.0687 -24.1089 -23.0862 -23.0401 -22.9686 -18.9101 -18.5844
   -18.5104 -18.4122 -18.1914 -18.0968 -15.6318 -15.3939 -14.9599 -14.7900
   -14.5917 -14.5555 -14.5252 -14.4952 -14.3107 -14.3038 -14.0543 -14.0492
   -13.9190 -13.8607 -13.6620  -9.4275  -8.9738  -8.9082  -8.3257  -8.2735
    -8.2479  -8.0883  -8.0542  -8.0468  -8.0127  -7.9403  -7.9042  -2.5131
    -2.4696  -2.4438  -2.3197  -2.2608  -2.1502  -2.1467  -2.0859  -2.0091
    -1.9987  -1.9885  -1.7771  -1.7396  -1.5181  -1.2697  -1.2633  -1.1289
    -1.1150  -0.9285  -0.7187  -0.7092  -0.6640  -0.6011  -0.5625  -0.4672
    -0.4150  -0.4088  -0.4062  -0.3870  -0.3136  -0.2985  -0.1890  -0.1071
    -0.0381   0.0031   0.0094   0.1529   0.1559   0.2412   0.2437   0.2538
     0.2599   0.2779   0.3134   0.3387   0.4553   0.5016   0.5577   0.5630
     0.6318   0.6574   0.6848   0.7507   0.8686   0.8695   0.9416   0.9488
     1.0722   1.1807   1.2202   1.2324   1.2686   1.3220   1.3883   1.3922
     1.4412   1.5648   1.5996   1.6531   1.6763   1.7139   1.8381   1.8596
     1.8667   1.9185   2.1580   2.3718   2.5990   2.6901   2.7168   4.4094
     5.3492   5.3685   5.4718   5.8287   5.9816   6.3441   6.6948   6.7140
     7.0099   7.3601   7.5575   7.8086   7.8276   7.8809   8.0530   8.1093
     8.2393   8.3555

          k = 0.0000 0.2563 0.0000 ( 37258 PWs)   bands (ev):

   -38.4033 -38.0630 -24.0644 -23.0333 -22.9870 -22.9175 -18.8190 -18.7354
   -18.5345 -18.4044 -18.3870 -18.0888 -15.3836 -15.1871 -14.8658 -14.8359
   -14.6980 -14.6138 -14.5095 -14.4299 -14.3761 -14.2126 -14.0719 -14.0375
   -14.0359 -14.0262 -13.7151  -9.3837  -8.9975  -8.8259  -8.2858  -8.2337
    -8.2174  -8.1285  -8.0878  -7.9841  -7.9513  -7.9095  -7.8075  -2.9152
    -2.8992  -2.7804  -2.6602  -2.3038  -2.2979  -2.2952  -2.1779  -2.1490
    -2.0698  -2.0298  -2.0245  -1.9476  -1.9356  -1.7734  -1.5704  -1.4779
    -1.1637  -1.0865  -1.0628  -0.9659  -0.8968  -0.8542  -0.7969  -0.7702
    -0.6843  -0.6432  -0.6345  -0.5960  -0.5653  -0.3843  -0.3723  -0.3414
    -0.3344  -0.2070  -0.1526  -0.0995   0.0357   0.0995   0.1694   0.2201
     0.2909   0.2952   0.3138   0.3151   0.4012   0.4801   0.6786   0.7896
     0.7972   0.8175   0.8985   0.9015   1.0538   1.0604   1.0787   1.1044
     1.2104   1.2230   1.2356   1.2873   1.3274   1.4051   1.4371   1.4634
     1.5254   1.5340   1.5385   1.6735   1.7892   1.9337   1.9453   1.9707
     1.9780   1.9811   2.3298   2.4941   2.9954   2.9984   3.4382   4.9032
     6.1531   6.2456   6.2604   6.5058   6.6680   6.7453   7.4041   7.5569
     7.5682   7.6975   7.7401   7.9083   7.9919   8.2498   8.3022   8.4306
     8.4824   8.5597

          k = 0.0000 0.3844 0.0000 ( 37158 PWs)   bands (ev):

   -38.3977 -38.0572 -24.0189 -22.9789 -22.9325 -22.8651 -18.9333 -18.7208
   -18.6647 -18.3967 -18.3659 -18.0808 -15.1334 -15.0160 -15.0087 -14.8297
   -14.7277 -14.6662 -14.5630 -14.4073 -14.3762 -14.2790 -14.1652 -14.0486
   -13.9794 -13.9674 -13.7772  -9.3312  -9.0224  -8.7402  -8.2464  -8.1985
    -8.1788  -8.1604  -8.1208  -8.0242  -7.8427  -7.8005  -7.7057  -3.4072
    -3.2797  -3.2538  -3.0312  -2.8622  -2.8513  -2.6244  -2.2088  -2.2032
    -2.1207  -2.0778  -1.9710  -1.9684  -1.8936  -1.8543  -1.8409  -1.5063
    -1.3365  -1.2243  -1.2151  -1.1273  -1.0705  -1.0360  -1.0320  -0.9941
    -0.8838  -0.8759  -0.8605  -0.7173  -0.6786  -0.5966  -0.5850  -0.5781
    -0.4587  -0.3786  -0.3519  -0.3354  -0.1919  -0.0884   0.0352   0.1420
     0.2725   0.2893   0.3372   0.3376   0.4152   0.6443   0.6732   0.7637
     0.8777   0.8788   0.9305   0.9861   1.0991   1.1026   1.1505   1.1747
     1.2130   1.2721   1.2963   1.3396   1.4213   1.4656   1.6185   1.6943
     1.7189   1.8335   1.8501   1.8780   1.9436   1.9818   2.0142   2.0385
     2.3109   2.3770   2.3855   2.4139   2.9657   2.9707   3.9832   5.5472
     6.4207   7.0956   7.1579   7.2170   7.3599   7.4481   7.5851   7.7090
     7.8901   8.0335   8.3067   8.3764   8.4670   8.6034   8.6248   8.7691
     8.8722   9.0483

          k = 0.0000-0.5125 0.0000 ( 37290 PWs)   bands (ev):

   -38.3953 -38.0548 -23.9998 -22.9559 -22.9094 -22.8430 -19.0092 -18.7384
   -18.6776 -18.3935 -18.3286 -18.0775 -15.0884 -15.0019 -14.9818 -14.8574
   -14.7911 -14.5994 -14.5274 -14.4814 -14.3854 -14.3604 -14.2008 -13.9506
   -13.9361 -13.9056 -13.8656  -9.3056  -9.0348  -8.7037  -8.2303  -8.1840
    -8.1714  -8.1604  -8.1325  -8.0416  -7.7959  -7.7534  -7.6620  -3.6509
    -3.4265  -3.4014  -3.1647  -3.1007  -3.0833  -2.7551  -2.2435  -2.2379
    -2.1780  -2.1411  -1.9780  -1.9495  -1.8244  -1.7703  -1.7335  -1.7267
    -1.4013  -1.3276  -1.3178  -1.2633  -1.2160  -1.0836  -1.0082  -0.9801
    -0.9503  -0.8960  -0.8958  -0.8105  -0.7490  -0.6720  -0.6651  -0.6085
    -0.6052  -0.5512  -0.4406  -0.3781  -0.2073  -0.1796  -0.0359   0.2119
     0.2623   0.2625   0.2906   0.3425   0.3436   0.6260   0.7899   0.8162
     0.8404   0.9082   0.9420   1.0695   1.0807   1.1527   1.2055   1.2458
     1.2479   1.2482   1.2521   1.3189   1.4255   1.4570   1.7475   1.7695
     1.8348   1.8521   1.8758   2.0498   2.1048   2.1213   2.1831   2.2415
     2.2496   2.2620   2.5394   2.5479   2.8281   2.8344   4.1662   6.0616
     6.2006   7.2675   7.4850   7.5425   7.6299   7.6410   7.8516   7.8594
     7.9393   7.9649   8.6021   8.6880   8.7564   8.8895   8.9050   8.9249
     9.1038   9.1092

          k = 0.1250 0.0000 0.0000 ( 37232 PWs)   bands (ev):

   -38.4094 -38.0693 -24.1119 -23.0894 -23.0432 -22.9717 -18.9136 -18.5862
   -18.5154 -18.4036 -18.2029 -18.0825 -15.6253 -15.3845 -15.0299 -14.8077
   -14.6319 -14.5940 -14.5400 -14.5039 -14.3136 -14.2943 -14.0505 -14.0445
   -13.9238 -13.8148 -13.6492  -9.4644  -8.9362  -8.8988  -8.3521  -8.3020
[...]
    -0.9176  -0.8562  -0.7179  -0.6149  -0.5544  -0.5033  -0.5004  -0.4745
    -0.3329  -0.3143  -0.2478   0.0906   0.1036   0.1629   0.3739   0.4272
     0.4501   0.5621   0.5793   0.6448   0.6473   0.7512   0.9506   0.9895
     0.9941   1.0438   1.0857   1.0956   1.1273   1.1833   1.2004   1.2323
     1.2552   1.3487   1.3511   1.3584   1.4087   1.4131   1.4769   1.5574
     1.6532   1.6774   1.7114   1.7328   1.7554   1.8562   1.9009   1.9062
     2.9343   2.9448   3.3639   3.4558   3.5507   3.6016   3.7146   5.3230
     6.3331   6.3494   6.3777   6.7877   6.9041   7.3567   7.4994   7.9411
     8.0508   8.0861   8.3669   8.4547   8.6760   8.7302   8.8849   8.9554
     9.0829   9.1968

          k = 0.3750 0.3844 0.0000 ( 37423 PWs)   bands (ev):

   -38.4335 -37.9735 -23.4772 -22.9354 -22.8904 -22.7941 -18.9455 -18.9199
   -18.5843 -18.5684 -18.5350 -18.1026 -14.8758 -14.8407 -14.7634 -14.7096
   -14.6722 -14.5039 -14.4986 -14.4322 -14.3287 -14.1240 -14.0756 -13.9796
   -13.9784 -13.8641 -13.8542  -9.3083  -9.0397  -8.8920  -8.8519  -8.7696
    -8.7637  -8.4881  -8.4446  -8.4029  -8.3616  -8.2880  -8.1735  -4.1730
    -3.9165  -3.6340  -3.4008  -3.3365  -2.8283  -2.8260  -2.6020  -2.5788
    -2.4951  -2.4918  -2.3128  -2.3012  -2.1819  -2.1692  -2.0763  -2.0298
    -1.7832  -1.5783  -1.4467  -1.2940  -1.2300  -1.2230  -1.1022  -1.0542
    -0.9990  -0.9043  -0.8195  -0.7341  -0.7130  -0.6516  -0.5954  -0.4963
    -0.4221  -0.2824  -0.2704   0.0776   0.1782   0.2349   0.5101   0.5970
     0.6905   0.8361   0.8432   0.8982   1.0071   1.1202   1.1342   1.1655
     1.2016   1.2416   1.3231   1.3381   1.3873   1.4170   1.4185   1.4789
     1.5046   1.5487   1.5873   1.6166   1.6309   1.6560   1.6844   1.7311
     1.7322   1.7760   1.7820   1.9783   1.9917   2.0887   2.1756   2.1759
     2.8569   2.8624   3.8556   4.0030   4.1009   4.1121   4.2197   4.7341
     5.9687   6.0067   6.4258   6.4984   6.9466   7.4054   7.8507   7.9818
     8.3344   8.5272   8.6178   8.6699   8.7279   8.9626   9.0730   9.0977
     9.2111   9.3865

          k = 0.3750-0.5125 0.0000 ( 37434 PWs)   bands (ev):

   -38.4312 -37.9711 -23.4610 -22.9180 -22.8726 -22.7762 -19.0177 -18.9145
   -18.6448 -18.5452 -18.5296 -18.0629 -14.8789 -14.7763 -14.7288 -14.6456
   -14.6166 -14.4952 -14.4744 -14.4230 -14.3094 -14.1463 -14.0171 -13.9673
   -13.9667 -13.8534 -13.8058  -9.3912  -9.0748  -8.9572  -8.9310  -8.8980
    -8.8428  -8.6432  -8.5698  -8.5584  -8.3588  -8.2816  -8.1680  -4.3538
    -4.1000  -3.8039  -3.6401  -3.5078  -3.0673  -3.0641  -2.7209  -2.6171
    -2.5148  -2.5040  -2.4438  -2.3247  -2.1775  -2.1644  -2.1247  -2.0258
    -1.8332  -1.6181  -1.4630  -1.3638  -1.2745  -1.1881  -1.1079  -1.1038
    -1.0240  -0.9309  -0.9088  -0.8103  -0.7946  -0.6711  -0.6326  -0.5072
    -0.4007  -0.2496  -0.2453   0.0851   0.1952   0.2730   0.5224   0.6400
     0.8007   0.9049   0.9794   1.0295   1.1372   1.1695   1.2650   1.2745
     1.2813   1.3313   1.3833   1.4276   1.4959   1.5244   1.5334   1.5532
     1.5870   1.6253   1.6316   1.6815   1.6845   1.7036   1.7203   1.7880
     1.8054   1.9320   1.9579   2.0497   2.2165   2.2172   2.3705   2.3721
     2.6876   2.6916   4.0017   4.1674   4.2642   4.2826   4.3843   4.4928
     5.7713   5.8057   6.3337   6.4082   7.2158   7.3831   7.7674   8.0999
     8.5040   8.5423   8.6289   8.8736   8.9557   8.9955   9.0589   9.2098
     9.2724   9.3320

          k =-0.5000 0.0000 0.0000 ( 37306 PWs)   bands (ev):

   -38.4450 -37.9856 -23.5515 -23.0155 -22.9719 -22.8755 -19.0371 -18.7515
   -18.6585 -18.4349 -18.2865 -18.0001 -15.3413 -15.1881 -15.0749 -14.9800
   -14.9309 -14.7114 -14.6392 -14.5478 -14.3580 -14.2338 -14.1484 -14.0602
   -14.0453 -13.9366 -13.8493  -9.1627  -8.4038  -8.3410  -8.3315  -8.2272
    -8.2255  -7.9199  -7.9064  -7.8276  -7.8227  -7.8196  -7.7273  -3.2543
    -3.0998  -3.0807  -2.7964  -2.3109  -2.2909  -2.0680  -1.9889  -1.9869
    -1.8022  -1.7382  -1.7342  -1.6012  -1.5290  -1.4585  -1.3832  -1.3481
    -1.2176  -1.1715  -1.0473  -1.0363  -0.9986  -0.9811  -0.9666  -0.9570
    -0.9483  -0.9277  -0.7653  -0.7526  -0.7424  -0.5346  -0.4580  -0.4345
    -0.2999  -0.2846  -0.2806  -0.2028   0.0803   0.1010   0.1608   0.1656
     0.1673   0.1782   0.2986   0.3313   0.4214   0.4450   0.4557   0.4983
     0.5007   0.5090   0.6117   0.8429   0.9232   0.9282   0.9697   1.0589
     1.1092   1.1286   1.1367   1.2011   1.2132   1.2550   1.2570   1.3216
     1.5436   1.5561   1.5706   1.6002   1.6232   1.7145   1.8528   1.9391
     1.9819   1.9891   2.1897   2.3287   2.3404   2.6413   2.6448   5.9741
     6.7859   6.9345   7.0023   7.0403   7.0903   7.0904   7.2519   7.7167
     7.9312   8.0338   8.0993   8.3542   8.3916   8.5687   8.8188   8.9110
     8.9555   8.9971

          k =-0.5000 0.1281 0.0000 ( 37308 PWs)   bands (ev):

   -38.4427 -37.9833 -23.5366 -22.9997 -22.9557 -22.8593 -19.0293 -18.7192
   -18.6503 -18.5325 -18.2590 -18.1025 -15.2739 -15.1389 -15.0192 -14.8891
   -14.8640 -14.6782 -14.5236 -14.5143 -14.4246 -14.2012 -14.1173 -14.0418
   -14.0286 -13.9888 -13.8427  -9.1443  -8.5336  -8.3990  -8.3652  -8.3380
    -8.2228  -8.0429  -8.0411  -8.0326  -8.0279  -7.9581  -7.9388  -3.4090
    -3.1972  -3.1625  -2.8650  -2.3310  -2.2935  -2.2205  -2.0658  -2.0546
    -1.9724  -1.8835  -1.8644  -1.8467  -1.7341  -1.7147  -1.6405  -1.5689
    -1.3633  -1.3026  -1.2995  -1.2896  -1.2014  -1.0594  -0.9170  -0.9140
    -0.8997  -0.8377  -0.8196  -0.7534  -0.6946  -0.4545  -0.3670  -0.2617
    -0.2221  -0.1835  -0.1369  -0.0121   0.0817   0.0990   0.1159   0.1284
     0.1684   0.3180   0.3744   0.4635   0.4686   0.4980   0.5818   0.6608
     0.6689   0.6707   0.8030   0.8524   0.9053   0.9417   1.0543   1.0825
     1.1420   1.1455   1.1547   1.1577   1.2677   1.2799   1.3138   1.3221
     1.5026   1.5554   1.5975   1.6555   1.7020   1.8099   1.8378   1.9705
     2.5818   2.6183   2.6355   2.7014   2.7431   2.9489   3.0024   5.7958
     6.8058   6.8283   6.8299   6.8554   7.2078   7.3445   7.3458   7.4362
     7.5251   8.0442   8.2535   8.4661   8.6943   8.7371   8.9596   8.9998
     9.0040   9.0280

          k =-0.5000 0.2563 0.0000 ( 37354 PWs)   bands (ev):

   -38.4372 -37.9775 -23.5002 -22.9610 -22.9163 -22.8199 -19.0106 -18.7465
   -18.6375 -18.6304 -18.3579 -18.1535 -15.0937 -15.0134 -14.8709 -14.7789
   -14.6057 -14.5993 -14.5880 -14.4334 -14.3545 -14.1299 -14.0399 -14.0340
   -14.0023 -13.9937 -13.8312  -9.1022  -8.9739  -8.6895  -8.5090  -8.4964
    -8.4167  -8.3581  -8.3528  -8.3241  -8.3068  -8.2693  -8.1921  -3.8627
    -3.6069  -3.4060  -3.1031  -2.7429  -2.5189  -2.4025  -2.3926  -2.3357
    -2.2852  -2.2810  -2.2074  -2.0775  -2.0740  -2.0554  -2.0333  -2.0112
    -1.7006  -1.5491  -1.4611  -1.3117  -1.1177  -1.1072  -0.9539  -0.9242
    -0.9109  -0.9070  -0.7138  -0.6763  -0.5760  -0.5278  -0.5262  -0.4812
    -0.3429  -0.3106  -0.2905   0.1029   0.1154   0.2426   0.4092   0.4744
     0.5187   0.6465   0.6539   0.6707   0.6761   0.9077   0.9818   1.0286
     1.0723   1.0945   1.1072   1.1291   1.2242   1.2243   1.2403   1.2466
     1.2693   1.2707   1.3309   1.3438   1.4042   1.4478   1.6120   1.6415
     1.6677   1.6823   1.7029   1.7412   1.7646   1.7773   1.8817   1.9331
     2.9313   2.9391   3.3634   3.5657   3.6568   3.6970   3.8009   5.1212
     6.2918   6.3341   6.6608   6.7115   6.9346   7.2316   7.6342   8.1484
     8.1512   8.3038   8.3831   8.4659   8.7379   8.8548   9.0407   9.1271
     9.1820   9.2342

          k =-0.5000 0.3844 0.0000 ( 37462 PWs)   bands (ev):

   -38.4317 -37.9716 -23.4632 -22.9216 -22.8761 -22.7796 -18.9918 -18.9374
   -18.6105 -18.5593 -18.5499 -18.0680 -14.9022 -14.8493 -14.7582 -14.6873
   -14.6455 -14.5333 -14.4267 -14.3682 -14.3560 -14.0994 -13.9734 -13.9727
   -13.9570 -13.8699 -13.8131  -9.3750  -9.0507  -9.0056  -8.9013  -8.8706
    -8.8122  -8.6466  -8.5871  -8.5628  -8.3622  -8.3004  -8.1865  -4.3335
    -4.0733  -3.7733  -3.4718  -3.3912  -2.8181  -2.8142  -2.7228  -2.6342
    -2.5350  -2.5201  -2.4413  -2.3509  -2.1810  -2.1710  -2.1120  -2.0235
    -1.8200  -1.5662  -1.3672  -1.2775  -1.2748  -1.1511  -1.1479  -1.0126
    -0.9974  -0.9734  -0.8285  -0.7503  -0.7467  -0.6166  -0.6148  -0.5582
    -0.4106  -0.2315  -0.2269   0.0763   0.2446   0.3083   0.5497   0.6893
     0.8497   0.9520   1.0600   1.0761   1.1179   1.1532   1.1875   1.2404
     1.2723   1.2831   1.3584   1.3928   1.4475   1.4581   1.5463   1.5510
     1.5709   1.5804   1.5958   1.6336   1.6622   1.6678   1.6705   1.7543
     1.8189   1.8708   1.9775   1.9871   1.9938   2.0309   2.1376   2.1395
     2.8551   2.8574   3.8509   4.2276   4.3060   4.3334   4.4171   4.4475
     5.7302   5.7688   6.3265   6.3903   7.1652   7.3305   7.9533   8.0759
     8.4069   8.5443   8.5829   8.6908   8.8204   9.0198   9.0360   9.2332
     9.2727   9.3364

          k =-0.5000-0.5125 0.0000 ( 37436 PWs)   bands (ev):

   -38.4294 -37.9692 -23.4477 -22.9051 -22.8592 -22.7628 -19.0112 -18.9841
   -18.6380 -18.6022 -18.5116 -18.0289 -14.8419 -14.8302 -14.7354 -14.5769
   -14.5588 -14.5492 -14.4868 -14.3275 -14.2754 -14.1212 -13.9695 -13.9649
   -13.9231 -13.7954 -13.7796  -9.5273  -9.1355  -9.0533  -9.0308  -9.0190
    -8.9646  -8.7641  -8.6907  -8.6800  -8.3609  -8.2951  -8.1831  -4.5227
    -4.2641  -3.9417  -3.6432  -3.6346  -3.0565  -3.0519  -2.8544  -2.6619
    -2.5785  -2.5654  -2.5433  -2.3736  -2.1692  -2.1597  -2.1469  -2.0147
    -1.8601  -1.6053  -1.3862  -1.3521  -1.2565  -1.2468  -1.0975  -1.0682
    -1.0418  -1.0014  -0.9173  -0.8320  -0.8299  -0.6636  -0.5995  -0.5776
    -0.3966  -0.1883  -0.1881   0.0854   0.2933   0.3302   0.5656   0.7632
     1.0653   1.0740   1.1545   1.1878   1.2378   1.2657   1.2741   1.3019
     1.3027   1.3270   1.4504   1.4567   1.5115   1.5768   1.6816   1.6865
     1.6911   1.7072   1.7156   1.7341   1.7359   1.7512   1.7798   1.7899
     1.8127   2.0510   2.1093   2.1769   2.2350   2.2372   2.3433   2.3448
     2.6824   2.6827   3.9921   4.1723   4.4434   4.5335   4.5537   4.6445
     5.4807   5.5160   6.2009   6.2911   7.2081   7.3653   7.9856   8.1822
     8.3733   8.6398   8.6460   8.6893   8.7864   8.8439   8.9288   8.9904
     9.1085   9.3069

     the Fermi energy is     2.6427 ev

!    total energy              =   -1868.78593975 Ry
     Harris-Foulkes estimate   =   -1868.78593974 Ry
     estimated scf accuracy    <          3.1E-09 Ry

     The total energy is the sum of the following terms:

     one-electron contribution =  -26021.32097267 Ry
     hartree contribution      =   13162.16522715 Ry
     xc contribution           =    -642.25657645 Ry
     ewald contribution        =   11632.63498909 Ry
     smearing contrib. (-TS)   =      -0.00860687 Ry

     convergence has been achieved in  10 iterations

     negative rho (up, down):  9.054E-02 0.000E+00

     Forces acting on atoms (cartesian axes, Ry/au):

     atom    1 type  3   force =     0.00000000    0.00000000    0.00002644
     atom    2 type  2   force =     0.00000000    0.00000000   -0.00023686
     atom    3 type  3   force =     0.00000000    0.00000000    0.00001130
     atom    4 type  1   force =     0.00000000    0.00000000   -0.00019294
     atom    5 type  2   force =     0.00000000    0.00000000   -0.00019151
     atom    6 type  3   force =     0.00000000    0.00000000    0.00071622
     atom    7 type  3   force =     0.00000000    0.00000000    0.00013869
     atom    8 type  4   force =     0.00000000    0.00000000   -0.00164087
     atom    9 type  3   force =     0.00000000    0.00000000    0.00241308
     atom   10 type  3   force =     0.00000000    0.00000000    0.00274855
     atom   11 type  2   force =     0.00000000    0.00000000   -0.00289412
     atom   12 type  1   force =     0.00000000    0.00000000   -0.00942099
     atom   13 type  3   force =     0.00000000    0.00000000    0.00979369
     atom   14 type  3   force =     0.00000000    0.00000000   -0.00005102
     atom   15 type  2   force =     0.00000000    0.00000000    0.00000477
     atom   16 type  3   force =     0.00000000    0.00000000    0.00008931
     atom   17 type  1   force =     0.00000000    0.00000000   -0.00003596
     atom   18 type  2   force =     0.00000000    0.00000000    0.00000756
     atom   19 type  3   force =     0.00000000    0.00000000   -0.00002162
     atom   20 type  3   force =     0.00000000    0.00000000   -0.00002644
     atom   21 type  4   force =     0.00000000    0.00000000   -0.00004527
     atom   22 type  3   force =     0.00000000    0.00000000    0.00011565
     atom   23 type  3   force =     0.00000000    0.00000000    0.00461973
     atom   24 type  2   force =     0.00000000    0.00000000    0.00073460
     atom   25 type  1   force =     0.00000000    0.00000000   -0.00849524
     atom   26 type  3   force =     0.00000000    0.00000000    0.00226394
     atom   27 type  2   force =     0.00000000    0.00000000   -0.00182749
     atom   28 type  3   force =     0.00000000    0.00000000    0.00139679

     Total force =     0.000123     Total SCF correction =     0.000318
     SCF correction compared to forces is large: reduce conv_thr to get better values


     Computing stress (Cartesian axis) and pressure


     negative rho (up, down):  9.054E-02 0.000E+00
          total   stress  (Ry/bohr**3)                   (kbar)     P=       -4.72
  -0.00006017   0.00000000   0.00000000           -8.85        0.00        0.00
   0.00000000  -0.00002309   0.00000000            0.00       -3.40        0.00
   0.00000000   0.00000000  -0.00001297            0.00        0.00       -1.91


     bfgs converged in  36 scf cycles and  33 bfgs steps
     (criteria: energy <  1.0E-05 Ry, force <  1.0E-04 Ry/Bohr)

     End of BFGS Geometry Optimization

     Final energy   =   -1868.7859397456 Ry
Begin final coordinates

ATOMIC_POSITIONS (angstrom)
O             0.0000000000        1.8966400000       -0.1003100000    0   0   0
Cu            0.0000000000        0.0000000000        0.0839000000    0   0   0
O             0.0000000000        0.0000000000        1.9725500000    0   0   0
Ba            1.9441200000        1.8966400000        2.0684200000    0   0   0
Cu            0.0000000000        0.0000000000        4.0810400000    0   0   0
O             1.9441200000        0.0000000000        4.3476700000    0   0   0
O             0.0000000000        1.8966400000        4.3832700000    0   0   0
Y             1.9441200000        1.8966400000        5.8085600000    0   0   0
O             0.0000000000        1.8966400000        7.1922400000    0   0   0
O             1.9441200000        0.0000000000        7.2681800000    0   0   0
Cu            0.0000000000        0.0000000000        7.5500200000    0   0   0
Ba            1.9441200000        1.8966400000        9.5363300000    0   0   0
O             0.0000000000        0.0000000000        9.7608400000    0   0   0
O             0.0000000000        1.8966400000       11.7402894116
Cu            0.0000000000        0.0000000000       11.6687232638
O             0.0000000000        0.0000000000       13.6064913454
Ba            1.9441200000        1.8966400000       13.6279482102
Cu            0.0000000000        0.0000000000       19.7729059874
O             1.9441200000        0.0000000000       20.0787792111
O             0.0000000000        1.8966400000       20.1192696419
Y             1.9441200000        1.8966400000       21.4084214151
O             0.0000000000        1.8966400000       22.9215500000    0   0   0
O             1.9441200000        0.0000000000       22.9572000000    0   0   0
Cu            0.0000000000        0.0000000000       23.2238500000    0   0   0
Ba            1.9441200000        1.8966400000       25.2364100000    0   0   0
O             0.0000000000        0.0000000000       25.3322800000    0   0   0
Cu            0.0000000000        0.0000000000       27.2208200000    0   0   0
O             0.0000000000        1.8966400000       27.4050500000    0   0   0
End final coordinates


 
     init_run     :      9.48s CPU     10.06s WALL (       1 calls)
     electrons    :   8740.34s CPU   9152.65s WALL (      45 calls)
     update_pot   :     82.16s CPU     82.79s WALL (      44 calls)
     forces       :    186.45s CPU    195.71s WALL (      45 calls)
     stress       :   1489.12s CPU   1514.84s WALL (      45 calls)

     Called by init_run:
     wfcinit      :      6.79s CPU      6.94s WALL (       1 calls)
     potinit      :      0.68s CPU      0.70s WALL (       1 calls)
     hinit0       :      1.03s CPU      1.04s WALL (       1 calls)

     Called by electrons:
     c_bands      :   6523.11s CPU   6714.55s WALL (     558 calls)
     sum_band     :   1508.24s CPU   1630.91s WALL (     558 calls)
     v_of_rho     :     51.91s CPU     52.75s WALL (     577 calls)
     newd         :    367.99s CPU    468.92s WALL (     577 calls)
     mix_rho      :    315.89s CPU    318.63s WALL (     558 calls)

     Called by c_bands:
     init_us_2    :     58.90s CPU     59.38s WALL (   30175 calls)
     cegterg      :   6079.79s CPU   6264.29s WALL (   13950 calls)

     Called by sum_band:
     sum_band:bec :      3.82s CPU      3.86s WALL (   13950 calls)
     addusdens    :    373.88s CPU    484.22s WALL (     558 calls)

     Called by *egterg:
     h_psi        :   3373.01s CPU   3495.40s WALL (   36578 calls)
     s_psi        :    321.82s CPU    324.88s WALL (   36578 calls)
     g_psi        :     10.48s CPU     10.57s WALL (   22603 calls)
     cdiaghg      :    934.27s CPU    940.58s WALL (   34803 calls)

     Called by h_psi:
     h_psi:calbec :    386.93s CPU    404.00s WALL (   36578 calls)
     vloc_psi     :   2639.77s CPU   2684.29s WALL (   36578 calls)
     add_vuspsi   :    331.29s CPU    364.35s WALL (   36578 calls)

     General routines
     calbec       :   1340.35s CPU   1360.63s WALL (   56153 calls)
     fft          :     59.96s CPU     60.51s WALL (    8606 calls)
     ffts         :    161.15s CPU    162.59s WALL (  248780 calls)
     fftw         :   3065.67s CPU   3115.92s WALL ( 9815636 calls)
     interpolate  :      3.85s CPU      3.88s WALL (     577 calls)
 
     Parallel routines
     fft_scatt_xy :    384.12s CPU    390.05s WALL (10073022 calls)
     fft_scatt_yz :   1935.31s CPU   1966.45s WALL (10073022 calls)
 
     PWSCF        :      2h55m CPU      3h 3m WALL

 
   This run was terminated on:   2:17:43   2May2021            

=------------------------------------------------------------------------------=
   JOB DONE.
=------------------------------------------------------------------------------=
[1619936263.497905] [holy7c02602:112370:0]          mpool.c:43   UCX  WARN  object 0x3630d80 was not returned to mpool ucp_requests
[1619936263.497603] [holy7c04103:237666:0]          mpool.c:43   UCX  WARN  object 0x3a7b540 was not returned to mpool ucp_requests
[1619936263.498416] [holy7c04112:272972:0]          mpool.c:43   UCX  WARN  object 0x33318c0 was not returned to mpool ucp_requests
[1619936263.498448] [holy7c04112:272972:0]          mpool.c:43   UCX  WARN  object 0x3331a80 was not returned to mpool ucp_requests
[1619936263.498850] [holy7c04111:265086:0]          mpool.c:43   UCX  WARN  object 0x3be9bc0 was not returned to mpool ucp_requests
[1619936263.498883] [holy7c04111:265086:0]          mpool.c:43   UCX  WARN  object 0x3bea2c0 was not returned to mpool ucp_requests
[1619936263.498712] [holy7c04107:268494:0]          mpool.c:43   UCX  WARN  object 0x29471c0 was not returned to mpool ucp_requests
[1619936263.498742] [holy7c04107:268494:0]          mpool.c:43   UCX  WARN  object 0x2947c40 was not returned to mpool ucp_requests
[1619936263.497976] [holy7c02602:112371:0]          mpool.c:43   UCX  WARN  object 0x2826540 was not returned to mpool ucp_requests
[1619936263.498181] [holy7c04112:272971:0]          mpool.c:43   UCX  WARN  object 0x424e600 was not returned to mpool ucp_requests
