
     Program PWSCF v.6.5 starts on 28Apr2021 at 16:47:21 

     This program is part of the open-source Quantum ESPRESSO suite
     for quantum simulation of materials; please cite
         "P. Giannozzi et al., J. Phys.:Condens. Matter 21 395502 (2009);
         "P. Giannozzi et al., J. Phys.:Condens. Matter 29 465901 (2017);
          URL http://www.quantum-espresso.org", 
     in publications or presentations arising from this work. More details at
     http://www.quantum-espresso.org/quote

     Parallel version (MPI), running on    20 processors

     MPI processes distributed on     3 nodes
     R & G space division:  proc/nbgrp/npool/nimage =      20
     Reading input from YBCO_z_2_ecut60_vac20_vcrelax.pwi

     Current dimensions of program PWSCF are:
     Max number of different atomic species (ntypx) = 10
     Max number of k-points (npk) =  40000
     Max angular momentum in pseudopotentials (lmaxx) =  3

     Subspace diagonalization in iterative solution of the eigenvalue problem:
     one sub-group per band group will be used
     scalapack distributed-memory algorithm (size of sub-group:  4*  4 procs)

     Message from routine setup:
     using ibrav=0 with symmetry is DISCOURAGED, use correct ibrav instead
 
     Parallelization info
     --------------------
     sticks:   dense  smooth     PW     G-vecs:    dense   smooth      PW
     Min         148      49     14                68108    13103    2058
     Max         149      50     15                68138    13121    2091
     Sum        2961     985    293              1362411   262155   41463
 


     bravais-lattice index     =            0
     lattice parameter (alat)  =       7.1247  a.u.
     unit-cell volume          =    4175.8697 (a.u.)^3
     number of atoms/cell      =           28
     number of atomic types    =            4
     number of electrons       =       229.00
     number of Kohn-Sham states=          138
     kinetic-energy cutoff     =      60.0000  Ry
     charge density cutoff     =     720.0000  Ry
     convergence threshold     =      1.0E-06
     mixing beta               =       0.2000
     number of iterations used =           10  local-TF  mixing
     Exchange-correlation= SLA PW PBE PBE
                           (   1   4   3   4   0   0   0)
     nstep                     =          300


     celldm(1)=   7.124738  celldm(2)=   0.000000  celldm(3)=   0.000000
     celldm(4)=   0.000000  celldm(5)=   0.000000  celldm(6)=   0.000000

     crystal axes: (cart. coord. in units of alat)
               a(1) = (   1.000000   0.000000   0.000000 )  
               a(2) = (   0.000000   1.017758   0.000000 )  
               a(3) = (   0.000000   0.000000  11.344771 )  

     reciprocal axes: (cart. coord. in units 2 pi/alat)
               b(1) = (  1.000000  0.000000  0.000000 )  
               b(2) = (  0.000000  0.982552  0.000000 )  
               b(3) = (  0.000000  0.000000  0.088146 )  


     PseudoPot. # 1 for Y  read from file:
     ./pseudo/Y.pbe-nsp-van.UPF
     MD5 check sum: 4412fed3ab108fed87a1b7d6a69a4a38
     Pseudo is Ultrasoft + core correction, Zval = 11.0
     Generated by new atomic code, or converted to UPF format
     Using radial grid of  885 points,  6 beta functions with: 
                l(1) =   0
                l(2) =   0
                l(3) =   1
                l(4) =   1
                l(5) =   2
                l(6) =   2
     Q(r) pseudized with  6 coefficients,  rinner =    1.200   1.200   1.200
                                                       1.200   1.200

     PseudoPot. # 2 for Ba read from file:
     ./pseudo/Ba.pbe-nsp-van.UPF
     MD5 check sum: 2b9c31dd849566dd297d80989662b7a0
     Pseudo is Ultrasoft + core correction, Zval = 10.0
     Generated by new atomic code, or converted to UPF format
     Using radial grid of  907 points,  6 beta functions with: 
                l(1) =   0
                l(2) =   0
                l(3) =   1
                l(4) =   1
                l(5) =   2
                l(6) =   2
     Q(r) pseudized with  6 coefficients,  rinner =    1.200   1.200   1.200
                                                       1.200   1.200

     PseudoPot. # 3 for O  read from file:
     ./pseudo/O.pbe-van_ak.UPF
     MD5 check sum: 783ce7fe4c79b6a4916957118fed0856
     Pseudo is Ultrasoft, Zval =  6.0
     Generated by new atomic code, or converted to UPF format
     Using radial grid of  737 points,  4 beta functions with: 
                l(1) =   0
                l(2) =   0
                l(3) =   1
                l(4) =   1
     Q(r) pseudized with  8 coefficients,  rinner =    0.800   0.800   0.800


     PseudoPot. # 4 for Cu read from file:
     ./pseudo/Cu.pbe-n-van_ak.UPF
     MD5 check sum: 34e3282627ffb533726feb647e090d62
     Pseudo is Ultrasoft + core correction, Zval = 11.0
     Generated by new atomic code, or converted to UPF format
     Using radial grid of  867 points,  6 beta functions with: 
                l(1) =   0
                l(2) =   0
                l(3) =   1
                l(4) =   1
                l(5) =   2
                l(6) =   2
     Q(r) pseudized with  8 coefficients,  rinner =    1.400   1.400   1.400
                                                       1.400   1.400

     atomic species   valence    mass     pseudopotential
        Y             11.00    88.90585     Y ( 1.00)
        Ba            10.00   137.32700     Ba( 1.00)
        O              6.00    15.99900     O ( 1.00)
        Cu            11.00    63.55000     Cu( 1.00)

      4 Sym. Ops. (no inversion) found



   Cartesian axes

     site n.     atom                  positions (alat units)
         1           Ba  tau(   1) = (   0.4999998   0.5088791   2.4688588  )
         2           Ba  tau(   2) = (   0.4999998   0.5088791   5.4889000  )
         3           Ba  tau(   3) = (   0.4999998   0.5088791   0.5511848  )
         4           Ba  tau(   4) = (   0.4999998   0.5088791   3.5712260  )
         5           Y   tau(   5) = (   0.4999998   0.5088791   1.5100219  )
         6           Y   tau(   6) = (   0.4999998   0.5088791   4.5300629  )
         7           Cu  tau(   7) = (   0.0000000   0.0000000   1.9606492  )
         8           Cu  tau(   8) = (   0.0000000   0.0000000   4.9806899  )
         9           Cu  tau(   9) = (   0.0000000   0.0000000   1.0593944  )
        10           Cu  tau(  10) = (   0.0000000   0.0000000   4.0794357  )
        11           Cu  tau(  11) = (   0.0000000   0.0000000   0.0000000  )
        12           Cu  tau(  12) = (   0.0000000   0.0000000   3.0200412  )
        13           Cu  tau(  13) = (   0.0000000   0.0000000   6.0400822  )
        14           O   tau(  14) = (   0.0000000   0.5088791   0.0000000  )
        15           O   tau(  15) = (   0.0000000   0.5088791   3.0200412  )
        16           O   tau(  16) = (   0.0000000   0.5088791   6.0400822  )
        17           O   tau(  17) = (   0.4999998   0.0000000   1.8807712  )
        18           O   tau(  18) = (   0.4999998   0.0000000   4.9008121  )
        19           O   tau(  19) = (   0.4999998   0.0000000   1.1392722  )
        20           O   tau(  20) = (   0.4999998   0.0000000   4.1593134  )
        21           O   tau(  21) = (   0.0000000   0.5088791   1.8811581  )
        22           O   tau(  22) = (   0.0000000   0.5088791   4.9011994  )
        23           O   tau(  23) = (   0.0000000   0.5088791   1.1388855  )
        24           O   tau(  24) = (   0.0000000   0.5088791   4.1589264  )
        25           O   tau(  25) = (   0.0000000   0.0000000   2.5297988  )
        26           O   tau(  26) = (   0.0000000   0.0000000   5.5498401  )
        27           O   tau(  27) = (   0.0000000   0.0000000   0.4902448  )
        28           O   tau(  28) = (   0.0000000   0.0000000   3.5102860  )

     number of k points=    25  Gaussian smearing, width (Ry)=  0.0100
                       cart. coord. in units 2pi/alat
        k(    1) = (   0.0000000   0.0000000   0.0000000), wk =   0.0312500
        k(    2) = (   0.0000000   0.1228190   0.0000000), wk =   0.0625000
        k(    3) = (   0.0000000   0.2456380   0.0000000), wk =   0.0625000
        k(    4) = (   0.0000000   0.3684570   0.0000000), wk =   0.0625000
        k(    5) = (   0.0000000  -0.4912760   0.0000000), wk =   0.0312500
        k(    6) = (   0.1250000   0.0000000   0.0000000), wk =   0.0625000
        k(    7) = (   0.1250000   0.1228190   0.0000000), wk =   0.1250000
        k(    8) = (   0.1250000   0.2456380   0.0000000), wk =   0.1250000
        k(    9) = (   0.1250000   0.3684570   0.0000000), wk =   0.1250000
        k(   10) = (   0.1250000  -0.4912760   0.0000000), wk =   0.0625000
        k(   11) = (   0.2500000   0.0000000   0.0000000), wk =   0.0625000
        k(   12) = (   0.2500000   0.1228190   0.0000000), wk =   0.1250000
        k(   13) = (   0.2500000   0.2456380   0.0000000), wk =   0.1250000
        k(   14) = (   0.2500000   0.3684570   0.0000000), wk =   0.1250000
        k(   15) = (   0.2500000  -0.4912760   0.0000000), wk =   0.0625000
        k(   16) = (   0.3750000   0.0000000   0.0000000), wk =   0.0625000
        k(   17) = (   0.3750000   0.1228190   0.0000000), wk =   0.1250000
        k(   18) = (   0.3750000   0.2456380   0.0000000), wk =   0.1250000
        k(   19) = (   0.3750000   0.3684570   0.0000000), wk =   0.1250000
        k(   20) = (   0.3750000  -0.4912760   0.0000000), wk =   0.0625000
        k(   21) = (  -0.5000000   0.0000000   0.0000000), wk =   0.0312500
        k(   22) = (  -0.5000000   0.1228190   0.0000000), wk =   0.0625000
        k(   23) = (  -0.5000000   0.2456380   0.0000000), wk =   0.0625000
        k(   24) = (  -0.5000000   0.3684570   0.0000000), wk =   0.0625000
        k(   25) = (  -0.5000000  -0.4912760   0.0000000), wk =   0.0312500

     Dense  grid:  1362411 G-vectors     FFT dimensions: (  64,  64, 720)

     Smooth grid:   262155 G-vectors     FFT dimensions: (  36,  36, 400)

     Estimated max dynamical RAM per process >     445.65 MB

     Estimated total dynamical RAM >       8.70 GB

     Initial potential from superposition of free atoms

     starting charge  228.84827, renormalised to  229.00000

     negative rho (up, down):  8.919E-02 0.000E+00
     Starting wfcs are  201 randomized atomic wfcs

     total cpu time spent up to now is        9.8 secs

     Self-consistent Calculation

     iteration #  1     ecut=    60.00 Ry     beta= 0.20
     Davidson diagonalization with overlap
     ethr =  1.00E-02,  avg # of iterations =  2.0

     negative rho (up, down):  8.705E-02 0.000E+00

     total cpu time spent up to now is       22.4 secs

     total energy              =   -1869.55005542 Ry
     Harris-Foulkes estimate   =   -1871.14022285 Ry
     estimated scf accuracy    <      14.46909611 Ry

     iteration #  2     ecut=    60.00 Ry     beta= 0.20
     Davidson diagonalization with overlap
     ethr =  6.32E-03,  avg # of iterations =  1.0

     negative rho (up, down):  8.594E-02 0.000E+00

     total cpu time spent up to now is       33.9 secs

     total energy              =   -1869.02884811 Ry
     Harris-Foulkes estimate   =   -1869.92955051 Ry
     estimated scf accuracy    <       5.66217742 Ry

     iteration #  3     ecut=    60.00 Ry     beta= 0.20
     Davidson diagonalization with overlap
     ethr =  2.47E-03,  avg # of iterations =  1.0

     negative rho (up, down):  8.558E-02 0.000E+00

     total cpu time spent up to now is       45.3 secs

     total energy              =   -1868.73266068 Ry
     Harris-Foulkes estimate   =   -1869.25535181 Ry
     estimated scf accuracy    <       4.41600295 Ry

     iteration #  4     ecut=    60.00 Ry     beta= 0.20
     Davidson diagonalization with overlap
     ethr =  1.93E-03,  avg # of iterations =  1.3

     negative rho (up, down):  8.542E-02 0.000E+00

     total cpu time spent up to now is       57.1 secs

     total energy              =   -1868.99599374 Ry
     Harris-Foulkes estimate   =   -1868.98468555 Ry
     estimated scf accuracy    <       4.28428838 Ry

     iteration #  5     ecut=    60.00 Ry     beta= 0.20
     Davidson diagonalization with overlap
     ethr =  1.87E-03,  avg # of iterations =  1.0

     negative rho (up, down):  8.659E-02 0.000E+00

     total cpu time spent up to now is       68.6 secs

     total energy              =   -1868.75193788 Ry
     Harris-Foulkes estimate   =   -1869.01509828 Ry
     estimated scf accuracy    <       4.70157339 Ry

     iteration #  6     ecut=    60.00 Ry     beta= 0.20
     Davidson diagonalization with overlap
     ethr =  1.87E-03,  avg # of iterations =  1.0

     negative rho (up, down):  8.707E-02 0.000E+00

     total cpu time spent up to now is       80.0 secs

     total energy              =   -1868.80262193 Ry
     Harris-Foulkes estimate   =   -1868.96314732 Ry
     estimated scf accuracy    <       0.78387538 Ry

     iteration #  7     ecut=    60.00 Ry     beta= 0.20
     Davidson diagonalization with overlap
     ethr =  3.42E-04,  avg # of iterations =  3.2

     negative rho (up, down):  8.749E-02 0.000E+00

     total cpu time spent up to now is       93.5 secs

     total energy              =   -1868.84343982 Ry
     Harris-Foulkes estimate   =   -1868.86432378 Ry
     estimated scf accuracy    <       0.21598220 Ry

     iteration #  8     ecut=    60.00 Ry     beta= 0.20
     Davidson diagonalization with overlap
     ethr =  9.43E-05,  avg # of iterations =  6.3

     negative rho (up, down):  8.864E-02 0.000E+00

     total cpu time spent up to now is      111.7 secs

     total energy              =   -1868.84855278 Ry
     Harris-Foulkes estimate   =   -1868.87633222 Ry
     estimated scf accuracy    <       1.07036370 Ry

     iteration #  9     ecut=    60.00 Ry     beta= 0.20
     Davidson diagonalization with overlap
     ethr =  9.43E-05,  avg # of iterations =  2.2

     negative rho (up, down):  9.070E-02 0.000E+00

     total cpu time spent up to now is      124.3 secs

     total energy              =   -1868.82781805 Ry
     Harris-Foulkes estimate   =   -1868.85440497 Ry
     estimated scf accuracy    <       1.08115393 Ry

     iteration # 10     ecut=    60.00 Ry     beta= 0.20
     Davidson diagonalization with overlap
     ethr =  9.43E-05,  avg # of iterations =  4.3

     negative rho (up, down):  9.055E-02 0.000E+00

     total cpu time spent up to now is      138.9 secs

     total energy              =   -1868.84216772 Ry
     Harris-Foulkes estimate   =   -1868.84666736 Ry
     estimated scf accuracy    <       0.13226427 Ry

     iteration # 11     ecut=    60.00 Ry     beta= 0.20
     Davidson diagonalization with overlap
     ethr =  5.78E-05,  avg # of iterations =  2.2

     negative rho (up, down):  9.077E-02 0.000E+00

     total cpu time spent up to now is      151.6 secs

     total energy              =   -1868.84153835 Ry
     Harris-Foulkes estimate   =   -1868.84584275 Ry
     estimated scf accuracy    <       0.08379852 Ry

     iteration # 12     ecut=    60.00 Ry     beta= 0.20
     Davidson diagonalization with overlap
     ethr =  3.66E-05,  avg # of iterations =  2.8

     negative rho (up, down):  9.045E-02 0.000E+00

     total cpu time spent up to now is      164.6 secs

     total energy              =   -1868.83425320 Ry
     Harris-Foulkes estimate   =   -1868.84265329 Ry
     estimated scf accuracy    <       0.07679401 Ry

     iteration # 13     ecut=    60.00 Ry     beta= 0.20
     Davidson diagonalization with overlap
     ethr =  3.35E-05,  avg # of iterations =  3.7

     negative rho (up, down):  9.041E-02 0.000E+00

     total cpu time spent up to now is      178.7 secs

     total energy              =   -1868.82982577 Ry
     Harris-Foulkes estimate   =   -1868.83775779 Ry
     estimated scf accuracy    <       0.09411453 Ry

     iteration # 14     ecut=    60.00 Ry     beta= 0.20
     Davidson diagonalization with overlap
     ethr =  3.35E-05,  avg # of iterations =  4.0

     negative rho (up, down):  9.021E-02 0.000E+00

     total cpu time spent up to now is      192.8 secs

     total energy              =   -1868.82475499 Ry
     Harris-Foulkes estimate   =   -1868.83105692 Ry
     estimated scf accuracy    <       0.03741968 Ry

     iteration # 15     ecut=    60.00 Ry     beta= 0.20
     Davidson diagonalization with overlap
     ethr =  1.63E-05,  avg # of iterations =  5.4

     negative rho (up, down):  9.292E-02 0.000E+00

     total cpu time spent up to now is      208.9 secs

     total energy              =   -1868.82166210 Ry
     Harris-Foulkes estimate   =   -1868.83048802 Ry
     estimated scf accuracy    <       0.30063831 Ry

     iteration # 16     ecut=    60.00 Ry     beta= 0.20
     Davidson diagonalization with overlap
     ethr =  1.63E-05,  avg # of iterations =  3.2

     negative rho (up, down):  9.467E-02 0.000E+00

     total cpu time spent up to now is      222.4 secs

     total energy              =   -1868.82410955 Ry
     Harris-Foulkes estimate   =   -1868.82484174 Ry
     estimated scf accuracy    <       0.03647871 Ry

     iteration # 17     ecut=    60.00 Ry     beta= 0.20
     Davidson diagonalization with overlap
     ethr =  1.59E-05,  avg # of iterations =  1.2

     negative rho (up, down):  1.042E-01 0.000E+00

     total cpu time spent up to now is      234.1 secs

     total energy              =   -1868.82251666 Ry
     Harris-Foulkes estimate   =   -1868.82450462 Ry
     estimated scf accuracy    <       0.01632562 Ry

     iteration # 18     ecut=    60.00 Ry     beta= 0.20
     Davidson diagonalization with overlap
     ethr =  7.13E-06,  avg # of iterations =  9.5

     negative rho (up, down):  1.059E-01 0.000E+00

     total cpu time spent up to now is      254.7 secs

     total energy              =   -1868.82166230 Ry
     Harris-Foulkes estimate   =   -1868.82289745 Ry
     estimated scf accuracy    <       0.00863067 Ry

     iteration # 19     ecut=    60.00 Ry     beta= 0.20
     Davidson diagonalization with overlap
     ethr =  3.77E-06,  avg # of iterations =  6.6

     negative rho (up, down):  1.206E-01 0.000E+00

     total cpu time spent up to now is      271.7 secs

     total energy              =   -1868.82019561 Ry
     Harris-Foulkes estimate   =   -1868.82181832 Ry
     estimated scf accuracy    <       0.00686227 Ry

     iteration # 20     ecut=    60.00 Ry     beta= 0.20
     Davidson diagonalization with overlap
     ethr =  3.00E-06,  avg # of iterations =  9.0

     negative rho (up, down):  1.205E-01 0.000E+00

     total cpu time spent up to now is      292.4 secs

     total energy              =   -1868.81941081 Ry
     Harris-Foulkes estimate   =   -1868.82054227 Ry
     estimated scf accuracy    <       0.00876359 Ry

     iteration # 21     ecut=    60.00 Ry     beta= 0.20
     Davidson diagonalization with overlap
     ethr =  3.00E-06,  avg # of iterations =  7.4

     negative rho (up, down):  1.106E-01 0.000E+00

     total cpu time spent up to now is      310.6 secs

     total energy              =   -1868.81861496 Ry
     Harris-Foulkes estimate   =   -1868.81967908 Ry
     estimated scf accuracy    <       0.00370117 Ry

     iteration # 22     ecut=    60.00 Ry     beta= 0.20
     Davidson diagonalization with overlap
     ethr =  1.62E-06,  avg # of iterations =  5.4

     negative rho (up, down):  1.142E-01 0.000E+00

     total cpu time spent up to now is      326.8 secs

     total energy              =   -1868.81851186 Ry
     Harris-Foulkes estimate   =   -1868.81887154 Ry
     estimated scf accuracy    <       0.00158854 Ry

     iteration # 23     ecut=    60.00 Ry     beta= 0.20
     Davidson diagonalization with overlap
     ethr =  6.94E-07,  avg # of iterations =  8.6

     negative rho (up, down):  1.058E-01 0.000E+00

     total cpu time spent up to now is      346.6 secs

     total energy              =   -1868.81831810 Ry
     Harris-Foulkes estimate   =   -1868.81857291 Ry
     estimated scf accuracy    <       0.00266373 Ry

     iteration # 24     ecut=    60.00 Ry     beta= 0.20
     Davidson diagonalization with overlap
     ethr =  6.94E-07,  avg # of iterations =  4.1

     negative rho (up, down):  9.729E-02 0.000E+00

     total cpu time spent up to now is      361.5 secs

     total energy              =   -1868.81811785 Ry
     Harris-Foulkes estimate   =   -1868.81834555 Ry
     estimated scf accuracy    <       0.00092379 Ry

     iteration # 25     ecut=    60.00 Ry     beta= 0.20
     Davidson diagonalization with overlap
     ethr =  4.03E-07,  avg # of iterations =  6.6

     negative rho (up, down):  9.415E-02 0.000E+00

     total cpu time spent up to now is      378.9 secs

     total energy              =   -1868.81811023 Ry
     Harris-Foulkes estimate   =   -1868.81814220 Ry
     estimated scf accuracy    <       0.00021837 Ry

     iteration # 26     ecut=    60.00 Ry     beta= 0.20
     Davidson diagonalization with overlap
     ethr =  9.54E-08,  avg # of iterations =  6.0

     negative rho (up, down):  9.062E-02 0.000E+00

     total cpu time spent up to now is      395.3 secs

     total energy              =   -1868.81810818 Ry
     Harris-Foulkes estimate   =   -1868.81811389 Ry
     estimated scf accuracy    <       0.00012284 Ry

     iteration # 27     ecut=    60.00 Ry     beta= 0.20
     Davidson diagonalization with overlap
     c_bands:  1 eigenvalues not converged
     ethr =  5.36E-08,  avg # of iterations =  7.3

     negative rho (up, down):  9.046E-02 0.000E+00

     total cpu time spent up to now is      413.5 secs

     total energy              =   -1868.81810518 Ry
     Harris-Foulkes estimate   =   -1868.81811559 Ry
     estimated scf accuracy    <       0.00005695 Ry

     iteration # 28     ecut=    60.00 Ry     beta= 0.20
     Davidson diagonalization with overlap
     ethr =  2.49E-08,  avg # of iterations =  5.1

     negative rho (up, down):  9.031E-02 0.000E+00

     total cpu time spent up to now is      429.4 secs

     total energy              =   -1868.81811698 Ry
     Harris-Foulkes estimate   =   -1868.81810774 Ry
     estimated scf accuracy    <       0.00001968 Ry

     iteration # 29     ecut=    60.00 Ry     beta= 0.20
     Davidson diagonalization with overlap
     ethr =  8.59E-09,  avg # of iterations =  2.0

     negative rho (up, down):  9.038E-02 0.000E+00

     total cpu time spent up to now is      442.1 secs

     total energy              =   -1868.81813037 Ry
     Harris-Foulkes estimate   =   -1868.81811773 Ry
     estimated scf accuracy    <       0.00001612 Ry

     iteration # 30     ecut=    60.00 Ry     beta= 0.20
     Davidson diagonalization with overlap
     ethr =  7.04E-09,  avg # of iterations =  5.0

     negative rho (up, down):  9.043E-02 0.000E+00

     total cpu time spent up to now is      458.7 secs

     total energy              =   -1868.81813206 Ry
     Harris-Foulkes estimate   =   -1868.81813157 Ry
     estimated scf accuracy    <       0.00000813 Ry

     iteration # 31     ecut=    60.00 Ry     beta= 0.20
     Davidson diagonalization with overlap
     ethr =  3.55E-09,  avg # of iterations =  1.0

     negative rho (up, down):  9.038E-02 0.000E+00

     total cpu time spent up to now is      470.5 secs

     total energy              =   -1868.81813190 Ry
     Harris-Foulkes estimate   =   -1868.81813227 Ry
     estimated scf accuracy    <       0.00000218 Ry

     iteration # 32     ecut=    60.00 Ry     beta= 0.20
     Davidson diagonalization with overlap
     ethr =  9.50E-10,  avg # of iterations =  2.2

     negative rho (up, down):  9.045E-02 0.000E+00

     total cpu time spent up to now is      483.3 secs

     End of self-consistent calculation

          k = 0.0000 0.0000 0.0000 ( 32711 PWs)   bands (ev):

   -37.2677 -37.2677 -21.7395 -21.7390 -21.7346 -21.6975 -17.9897 -17.9894
   -17.3087 -17.3086 -17.2848 -17.2848 -14.9992 -14.9961 -13.8898 -13.8537
   -13.8275 -13.7454 -13.7454 -13.5424 -13.5424 -13.4255 -13.4254 -12.9229
   -12.8384 -12.8359 -12.8264  -7.0272  -6.9639  -6.9277  -6.9137  -6.7989
    -6.7988  -6.7746  -6.7372  -6.6484  -6.6481  -6.6388  -6.5738  -1.6152
    -1.6134  -1.6044  -1.6026  -1.5082  -1.3614  -1.3605  -1.2730  -1.2713
    -1.2325  -1.2305  -1.1561  -1.1558  -0.4242  -0.4220  -0.1979  -0.0871
     0.0770   0.2636   0.2636   0.2649   0.5257   0.5630   0.7125   0.7125
     0.7233   0.7235   0.7793   0.7794   0.8248   0.8374   0.8723   0.8724
     0.8725   0.8769   0.8802   0.8943   0.9772   0.9793   1.0988   1.1342
     1.1462   1.1512   1.2660   1.2661   1.3410   1.3411   1.4270   1.6717
     1.6810   1.6852   1.7544   1.7602   1.7846   1.8053   1.8461   1.9592
     1.9757   1.9805   2.0356   2.0450   2.0588   2.1550   2.1565   2.2353
     2.2410   2.5850   2.5921   2.5979   2.7965   2.7977   2.9428   2.9489
     2.9575   3.0217   3.0633   3.1679   3.1747   3.1841   3.2028   6.0329
     6.0451   6.4994   6.6533   6.9516   7.6254   7.6493   7.9711   8.1023
     8.2722   8.5547   8.7293   8.8108   8.9643   8.9643   9.2300   9.2806
     9.5945   9.8074

          k = 0.0000 0.1228 0.0000 ( 32762 PWs)   bands (ev):

   -37.2655 -37.2655 -21.7178 -21.7174 -21.7131 -21.6767 -17.9504 -17.9500
   -17.4364 -17.4364 -17.2818 -17.2818 -14.8644 -14.8615 -13.9107 -13.9034
   -13.8209 -13.7174 -13.7164 -13.5517 -13.5517 -13.4376 -13.4371 -12.9858
   -12.8999 -12.8511 -12.8507  -7.0246  -6.9488  -6.9228  -6.9064  -6.7839
    -6.7839  -6.7646  -6.7158  -6.6089  -6.6085  -6.6010  -6.5344  -1.7037
    -1.6838  -1.6283  -1.5533  -1.5513  -1.5512  -1.4351  -1.2632  -1.2614
    -1.2297  -1.2246  -1.1465  -1.1458  -0.6256  -0.4016  -0.3831  -0.2119
    -0.1771  -0.1770  -0.1224   0.2070   0.3398   0.3726   0.4152   0.4200
     0.4756   0.5119   0.5360   0.5491   0.5815   0.6533   0.6535   0.7737
     0.7740   0.8332   1.0813   1.0832   1.0845   1.0907   1.1355   1.1647
     1.1819   1.2228   1.2272   1.2708   1.3152   1.3170   1.5574   1.5583
     1.5820   1.5872   1.5936   1.7853   1.7988   1.8502   1.8842   1.9793
     2.0250   2.0791   2.1235   2.1956   2.2047   2.3947   2.4646   2.4696
     2.4833   2.5410   2.5734   2.7123   2.7661   2.7669   2.8328   2.9360
     2.9566   3.0244   3.0861   3.2943   3.5160   3.5436   3.6966   6.3582
     6.3616   6.7690   6.8706   7.1083   7.9084   7.9221   8.2561   8.3556
     8.5288   8.7204   8.9063   8.9380   8.9381   8.9801   9.3814   9.4960
     9.8154   9.9407

          k = 0.0000 0.2456 0.0000 ( 32824 PWs)   bands (ev):

   -37.2601 -37.2601 -21.6645 -21.6642 -21.6602 -21.6254 -17.8497 -17.8495
   -17.7007 -17.7006 -17.2744 -17.2744 -14.5719 -14.5693 -14.0719 -14.0695
   -13.7518 -13.6931 -13.6726 -13.5730 -13.5712 -13.4277 -13.4263 -13.1290
   -13.0655 -12.8560 -12.8559  -7.0082  -6.9121  -6.9002  -6.8792  -6.7569
    -6.7560  -6.7406  -6.6739  -6.5105  -6.5094  -6.5062  -6.4356  -2.0296
    -1.9820  -1.9366  -1.8742  -1.6451  -1.4049  -1.4023  -1.3358  -1.3154
    -1.3144  -1.2302  -1.2279  -1.1444  -1.0900  -0.8977  -0.8890  -0.5622
    -0.4228  -0.4178  -0.1971  -0.0649  -0.0107  -0.0062  -0.0040   0.0501
     0.0897   0.1579   0.2445   0.3547   0.4105   0.4549   0.4549   0.6824
     0.7116   0.7621   0.7819   0.7819   0.8321   0.8370   0.9003   0.9304
     1.0438   1.3067   1.3126   1.3191   1.3218   1.3499   1.4143   1.4321
     1.7638   1.8710   1.9417   1.9660   1.9751   2.0311   2.0983   2.1246
     2.2804   2.2909   2.3060   2.3559   2.3608   2.3617   2.5012   2.5469
     2.5598   2.6802   2.6913   2.7750   2.8318   2.8971   2.9151   3.0604
     3.0605   3.0816   3.2686   3.4502   3.9663   3.9784   4.5802   7.1306
     7.1307   7.4552   7.4564   7.5561   8.6513   8.6517   8.8773   8.8774
     8.9474   8.9808   9.1335   9.2006   9.2947   9.4624   9.6814   9.7871
     9.9651  10.2356

          k = 0.0000 0.3685 0.0000 ( 32754 PWs)   bands (ev):

   -37.2547 -37.2547 -21.6097 -21.6094 -21.6058 -21.5728 -17.9247 -17.9247
   -17.7395 -17.7393 -17.2671 -17.2670 -14.2972 -14.2955 -14.2675 -14.2628
   -13.7972 -13.7777 -13.6306 -13.5697 -13.5198 -13.3914 -13.3877 -13.2487
   -13.2291 -12.8232 -12.8231  -6.9804  -6.8743  -6.8639  -6.8405  -6.7391
    -6.7386  -6.7210  -6.6430  -6.4093  -6.4048  -6.4040  -6.3315  -2.4164
    -2.3148  -2.2687  -2.1436  -2.1000  -1.8023  -1.8023  -1.4646  -1.2077
    -1.1971  -1.1968  -1.1560  -1.1499  -1.1283  -1.1239  -1.0400  -0.8024
    -0.4093  -0.4055  -0.4041  -0.4021  -0.3323  -0.2610  -0.2158  -0.2146
    -0.1901  -0.0841   0.0087   0.2231   0.2326   0.2326   0.3241   0.3890
     0.4069   0.4871   0.5022   0.5575   0.5575   0.7840   0.8129   0.9689
     0.9961   1.3084   1.3085   1.3597   1.3598   1.3678   1.5691   1.7057
     1.8446   1.9223   1.9803   2.0483   2.0603   2.0793   2.1745   2.1750
     2.2334   2.3764   2.3826   2.4073   2.5291   2.5344   2.5497   2.5518
     2.7646   2.7714   2.8000   2.9021   2.9114   3.1299   3.1784   3.1797
     3.3255   3.4421   3.4426   3.4426   4.0813   4.0920   5.2073   7.8862
     7.9461   8.0940   8.1613   8.3611   8.8203   8.8204   9.1242   9.3950
     9.4882   9.5620   9.5726   9.8225   9.8688   9.9974  10.0522  10.0851
    10.2218  10.3729

          k = 0.0000-0.4913 0.0000 ( 32762 PWs)   bands (ev):

   -37.2524 -37.2524 -21.5865 -21.5862 -21.5828 -21.5505 -18.0093 -18.0093
   -17.6904 -17.6902 -17.2640 -17.2640 -14.3690 -14.3655 -14.1502 -14.1466
   -13.8659 -13.8488 -13.6231 -13.5801 -13.4322 -13.4082 -13.3667 -13.3000
   -13.2844 -12.8014 -12.8013  -6.9662  -6.8585  -6.8438  -6.8200  -6.7355
    -6.7354  -6.7146  -6.6332  -6.3665  -6.3597  -6.3592  -6.2865  -2.6008
    -2.4430  -2.4184  -2.2635  -2.2430  -2.0217  -2.0217  -1.4937  -1.2868
    -1.1621  -1.1620  -1.1516  -1.1515  -1.0762  -0.9712  -0.9617  -0.8936
    -0.6610  -0.6602  -0.4684  -0.3387  -0.3379  -0.3035  -0.2934  -0.2462
    -0.2217  -0.1720  -0.0718   0.1187   0.1347   0.1348   0.1579   0.1654
     0.2398   0.4459   0.4783   0.4783   0.4797   0.7043   0.8193   1.0480
     1.0577   1.2923   1.2927   1.3661   1.3704   1.3729   1.5441   1.8622
     1.9566   1.9917   2.0305   2.0305   2.0305   2.0612   2.1239   2.1337
     2.2557   2.3591   2.3592   2.3902   2.5840   2.5870   2.7108   2.7403
     2.7429   2.7883   2.8740   2.8740   2.9422   3.2053   3.2891   3.3517
     3.4285   3.4286   3.5934   3.5934   4.0348   4.0459   5.4139   8.1616
     8.2762   8.5897   8.5898   8.6092   8.7976   8.7978   9.2407   9.5424
     9.5654   9.7862   9.8173   9.9564  10.0373  10.0541  10.3090  10.3341
    10.6149  10.6325

          k = 0.1250 0.0000 0.0000 ( 32719 PWs)   bands (ev):

   -37.2649 -37.2649 -21.7144 -21.7141 -21.7090 -21.6740 -17.9463 -17.9460
   -17.4258 -17.4258 -17.3050 -17.3050 -14.8682 -14.8657 -13.9025 -13.8532
   -13.8501 -13.6956 -13.6955 -13.5951 -13.5951 -13.4892 -13.4889 -12.9835
   -12.8448 -12.8322 -12.8307  -7.0421  -7.0106  -6.9606  -6.9565  -6.7550
    -6.7549  -6.7311  -6.6945  -6.6353  -6.6353  -6.5946  -6.5772  -1.7192
    -1.7166  -1.6837  -1.6298  -1.5654  -1.5637  -1.4565  -1.2209  -1.2191
    -1.2109  -1.2103  -1.1375  -1.1374  -0.3780  -0.3718  -0.2375  -0.1241
     0.0267   0.1498   0.1983   0.1983   0.2780   0.3644   0.4526   0.4526
     0.5066   0.5079   0.6505   0.6542   0.7965   0.8238   0.8489   0.8646
     0.8853   0.8853   1.0796   1.1076   1.1428   1.1456   1.1640   1.2173
     1.2264   1.2526   1.3048   1.3069   1.3344   1.3346   1.3562   1.4596
     1.4713   1.5537   1.5615   1.6956   1.7052   1.8268   1.8453   1.8525
     1.8764   2.0198   2.0425   2.1272   2.1476   2.1682   2.1712   2.2112
     2.4652   2.5087   2.6648   2.7201   2.8629   2.8734   2.8799   2.8883
     2.9545   2.9893   3.0802   3.1444   3.1754   3.2813   3.3051   6.2234
     6.2267   6.7602   6.8906   7.0861   7.8783   7.9031   8.2152   8.4028
     8.5347   8.7235   8.9286   8.9287   8.9511   8.9820   9.3936   9.6092
     9.9009   9.9490

          k = 0.1250 0.1228 0.0000 ( 32774 PWs)   bands (ev):

   -37.2627 -37.2627 -21.6937 -21.6933 -21.6884 -21.6540 -17.9074 -17.9072
   -17.4422 -17.4422 -17.4096 -17.4096 -14.7331 -14.7308 -13.8938 -13.8892
   -13.8543 -13.6660 -13.6660 -13.5969 -13.5969 -13.5124 -13.5122 -13.0301
   -12.9029 -12.8421 -12.8419  -7.0300  -7.0034  -6.9499  -6.9477  -6.8721
    -6.8717  -6.8200  -6.8200  -6.5234  -6.5234  -6.4856  -6.4661  -1.7978
    -1.7744  -1.7583  -1.7031  -1.5667  -1.5659  -1.4522  -1.3734  -1.3699
    -1.1814  -1.1802  -1.1031  -1.0987  -0.6451  -0.3124  -0.3103  -0.2886
    -0.2130  -0.2112  -0.1725  -0.0220   0.0119   0.1946   0.2124   0.2174
     0.3748   0.3879   0.5210   0.6013   0.6063   0.6931   0.7020   0.7233
     0.7756   0.8922   1.0601   1.0779   1.0864   1.0987   1.0988   1.1488
     1.1673   1.1853   1.2000   1.2669   1.3701   1.3721   1.5433   1.5446
     1.6270   1.7315   1.7338   1.7704   1.7946   1.8180   1.8200   1.8886
     1.9361   1.9915   2.0512   2.2036   2.2080   2.3286   2.3668   2.3677
     2.5996   2.6413   2.6429   2.6765   2.7015   2.7677   2.9215   3.1297
     3.1967   3.2102   3.3360   3.4040   3.5494   3.5732   3.7340   6.4990
     6.4999   6.9924   7.0735   7.2145   8.1526   8.1647   8.4899   8.6187
     8.7272   8.8471   8.8808   8.8925   9.1120   9.1508   9.5250   9.7086
    10.0108  10.0348

          k = 0.1250 0.2456 0.0000 ( 32774 PWs)   bands (ev):

   -37.2574 -37.2574 -21.6426 -21.6423 -21.6377 -21.6048 -17.8080 -17.8078
   -17.6938 -17.6938 -17.4085 -17.4085 -14.4381 -14.4361 -14.0392 -14.0368
   -13.7560 -13.6500 -13.6443 -13.5816 -13.5801 -13.5111 -13.5108 -13.1379
   -13.0494 -12.8447 -12.8446  -7.0071  -7.0024  -6.9576  -6.9573  -6.9122
    -6.9119  -6.8771  -6.8685  -6.4611  -6.4610  -6.4269  -6.3972  -2.1598
    -2.1210  -1.9679  -1.9121  -1.6349  -1.4996  -1.4987  -1.4334  -1.4313
    -1.3458  -1.2797  -1.2794  -1.0728  -1.0366  -0.9004  -0.8835  -0.5987
    -0.4251  -0.3939  -0.3273  -0.2986  -0.2227  -0.2200  -0.1912  -0.0619
    -0.0303   0.1008   0.1811   0.4043   0.4437   0.5164   0.5606   0.7499
     0.7694   0.7831   0.8194   0.8588   0.9209   0.9464   0.9693   1.0257
     1.0348   1.1738   1.1909   1.2562   1.3783   1.3793   1.6128   1.6283
     1.7461   1.8319   1.8430   1.9886   2.0070   2.0563   2.1066   2.1525
     2.1577   2.2170   2.3045   2.3157   2.3922   2.4008   2.5213   2.5827
     2.5854   2.6007   2.7057   2.7139   2.9984   3.0394   3.0426   3.1963
     3.4444   3.4739   3.6920   3.7246   3.9692   3.9821   4.5865   7.2052
     7.2053   7.5348   7.5903   7.6343   8.6650   8.6705   8.8634   8.8684
     9.1124   9.2105   9.3210   9.3530   9.4194   9.5958   9.6910   9.8649
     9.9297  10.3181

          k = 0.1250 0.3685 0.0000 ( 32785 PWs)   bands (ev):

   -37.2520 -37.2520 -21.5901 -21.5899 -21.5856 -21.5542 -17.9157 -17.9157
   -17.6992 -17.6990 -17.3985 -17.3985 -14.2393 -14.2369 -14.1439 -14.1403
   -13.7480 -13.7301 -13.6185 -13.5481 -13.5151 -13.4706 -13.4647 -13.2282
   -13.2152 -12.8188 -12.8187  -6.9872  -6.9511  -6.9301  -6.9299  -6.8799
    -6.8797  -6.8690  -6.8282  -6.5083  -6.5083  -6.4631  -6.4502  -2.5215
    -2.4716  -2.3154  -2.1929  -2.1322  -1.7818  -1.7818  -1.4875  -1.4398
    -1.4291  -1.3205  -1.2891  -1.1251  -1.1167  -1.0344  -0.9476  -0.8454
    -0.7624  -0.7486  -0.6595  -0.5466  -0.2943  -0.2420  -0.2243  -0.2119
    -0.2019  -0.0358  -0.0067   0.2121   0.2596   0.3375   0.3420   0.5345
     0.5364   0.6387   0.7036   0.7987   0.8211   0.8591   0.8994   1.1215
     1.1297   1.1789   1.2050   1.2495   1.3749   1.3752   1.6615   1.7838
     1.7891   2.0113   2.0140   2.0331   2.0600   2.0877   2.2433   2.2581
     2.3171   2.4129   2.4218   2.4426   2.4500   2.4979   2.5183   2.5724
     2.6600   2.8042   2.9168   3.1594   3.1711   3.1971   3.4291   3.4292
     3.5455   3.5578   3.8027   3.8230   4.0861   4.1009   5.1904   7.8604
     7.9688   8.0250   8.1953   8.2596   8.5217   8.5290   9.1695   9.4177
     9.4242   9.7023   9.7363   9.9374  10.0371  10.0466  10.1879  10.2099
    10.4991  10.5260

          k = 0.1250-0.4913 0.0000 ( 32748 PWs)   bands (ev):

   -37.2498 -37.2497 -21.5679 -21.5677 -21.5636 -21.5329 -17.9997 -17.9997
   -17.6508 -17.6507 -17.3943 -17.3943 -14.3254 -14.3222 -13.9940 -13.9910
   -13.8193 -13.8040 -13.5915 -13.5513 -13.4627 -13.4490 -13.4077 -13.3293
   -13.2541 -12.8009 -12.8008  -6.9648  -6.9160  -6.8796  -6.8795  -6.8663
    -6.8638  -6.8558  -6.7828  -6.5667  -6.5665  -6.5194  -6.5072  -2.6738
    -2.6078  -2.5004  -2.3219  -2.2916  -2.0055  -2.0054  -1.5127  -1.4223
    -1.4097  -1.1822  -1.1746  -1.1557  -1.0468  -1.0396  -1.0319  -1.0016
    -0.9534  -0.9070  -0.8180  -0.6375  -0.3561  -0.2651  -0.2502  -0.1526
    -0.1460  -0.1108  -0.0362   0.1347   0.1668   0.2641   0.2647   0.4524
     0.4526   0.5924   0.6626   0.6865   0.6920   0.8341   0.9012   1.1654
     1.1774   1.2357   1.2607   1.2634   1.3645   1.3649   1.7102   1.7973
     1.9303   2.0284   2.0351   2.0780   2.0797   2.0853   2.2243   2.2296
     2.2815   2.3401   2.4165   2.4998   2.5321   2.5418   2.6520   2.7203
     2.7282   2.8931   2.9412   3.1785   3.4069   3.4070   3.5468   3.5577
     3.5859   3.5859   3.7972   3.8095   4.0465   4.0634   5.3870   8.0827
     8.2976   8.3876   8.4060   8.4157   8.4296   8.4300   9.3867   9.5908
     9.5913   9.8144  10.0875  10.1358  10.2193  10.2816  10.3679  10.4050
    10.7489  10.8246

          k = 0.2500 0.0000 0.0000 ( 32694 PWs)   bands (ev):

   -37.2583 -37.2583 -21.6527 -21.6525 -21.6458 -21.6162 -17.8350 -17.8348
   -17.7157 -17.7157 -17.2961 -17.2961 -14.5946 -14.5935 -14.0143 -13.9531
   -13.9374 -13.7338 -13.7311 -13.5740 -13.5739 -13.5567 -13.5478 -13.1209
   -12.8661 -12.8185 -12.8184  -7.1652  -7.0133  -7.0094  -6.9509  -6.6447
    -6.6446  -6.6403  -6.6338  -6.6304  -6.6219  -6.5877  -6.5308  -2.1271
    -2.1164  -2.0024  -1.9864  -1.4896  -1.4224  -1.4209  -1.1988  -1.1986
    -1.1791  -1.1778  -1.1204  -1.1090  -0.4572  -0.3546  -0.2972  -0.2379
    -0.1263  -0.1155  -0.0237  -0.0170  -0.0169   0.0880   0.0885   0.1110
     0.1120   0.2684   0.5308   0.5633   0.7151   0.7696   0.7973   0.8654
     0.8922   0.8922   0.9177   0.9413   0.9515   0.9684   1.2397   1.2416
     1.2569   1.2641   1.3146   1.3214   1.3234   1.3682   1.4133   1.4301
     1.4723   1.5877   1.5914   1.8005   1.9037   1.9168   1.9491   1.9601
     1.9884   1.9913   2.0675   2.0704   2.1814   2.1852   2.3295   2.3494
     2.3846   2.3892   2.6869   2.6994   2.7215   2.7298   2.7964   2.8104
     2.8852   3.0060   3.1001   3.2584   3.2748   3.5313   3.5464   6.6640
     6.6643   7.3358   7.5077   7.5170   8.5599   8.5768   8.8489   8.8492
     8.9004   9.0670   9.1032   9.2283   9.4787   9.4815   9.8441  10.1394
    10.3019  10.5826

          k = 0.2500 0.1228 0.0000 ( 32713 PWs)   bands (ev):

   -37.2561 -37.2561 -21.6341 -21.6340 -21.6274 -21.5981 -17.7973 -17.7971
   -17.7098 -17.7098 -17.4166 -17.4166 -14.4585 -14.4575 -13.9721 -13.9366
   -13.9110 -13.7083 -13.7069 -13.6308 -13.6294 -13.5400 -13.5344 -13.1321
   -12.9027 -12.8188 -12.8188  -7.1730  -7.0337  -7.0330  -6.9474  -6.9181
    -6.8900  -6.8880  -6.8314  -6.4935  -6.4934  -6.4492  -6.4316  -2.2364
    -2.2226  -2.0280  -2.0098  -1.5140  -1.4826  -1.4719  -1.3880  -1.3670
    -1.1764  -1.1760  -1.0569  -1.0479  -0.6921  -0.4577  -0.4155  -0.4119
    -0.3270  -0.3261  -0.2900  -0.2701  -0.2362  -0.2158  -0.1926   0.1179
     0.1455   0.2696   0.4478   0.5033   0.5316   0.6332   0.6756   0.8026
     0.8122   0.9114   0.9800   1.0108   1.0189   1.0387   1.0425   1.0740
     1.0787   1.1192   1.1725   1.2487   1.4844   1.4906   1.5479   1.5915
     1.6688   1.7503   1.8522   1.8611   1.9324   1.9376   1.9799   2.0131
     2.0806   2.1065   2.1747   2.1912   2.2196   2.2344   2.3330   2.3345
     2.5339   2.5341   2.5835   2.6354   2.7080   2.7447   2.9403   3.1856
     3.3721   3.4102   3.5646   3.5890   3.6747   3.7838   3.8800   6.8695
     6.8696   7.3912   7.6287   7.6303   8.6504   8.6573   8.7944   8.7948
     9.1486   9.2740   9.3057   9.3916   9.5320   9.6334   9.7816  10.0097
    10.1748  10.2976

          k = 0.2500 0.2456 0.0000 ( 32750 PWs)   bands (ev):

   -37.2508 -37.2508 -21.5887 -21.5885 -21.5822 -21.5539 -17.7082 -17.7082
   -17.7004 -17.7003 -17.6582 -17.6582 -14.1624 -14.1612 -13.9732 -13.9671
   -13.7990 -13.7259 -13.7232 -13.6396 -13.6387 -13.4936 -13.4932 -13.1597
   -13.0085 -12.8157 -12.8156  -7.2232  -7.2009  -7.2000  -7.1756  -6.9910
    -6.9435  -6.9414  -6.9290  -6.5799  -6.5795  -6.5340  -6.5056  -2.5866
    -2.5704  -2.1818  -2.1517  -1.6201  -1.6190  -1.6150  -1.5690  -1.5620
    -1.3861  -1.2410  -1.2410  -1.0076  -1.0053  -0.9357  -0.9332  -0.8370
    -0.8220  -0.7842  -0.7414  -0.4795  -0.2288  -0.2221  -0.1981  -0.0589
    -0.0159   0.1365   0.1585   0.3314   0.3722   0.5051   0.5115   0.6046
     0.6600   0.7211   0.7299   0.9583   1.0419   1.0861   1.1395   1.1631
     1.2443   1.2521   1.3291   1.4405   1.5345   1.5413   1.6400   1.9439
     1.9466   1.9734   2.0002   2.0212   2.0499   2.0820   2.0835   2.1320
     2.1557   2.1975   2.2581   2.3102   2.4521   2.5023   2.5666   2.6261
     2.7175   2.7272   2.7680   2.7934   2.9752   2.9755   3.1180   3.2140
     3.9671   3.9805   4.0853   4.0927   4.2781   4.2888   4.6045   7.3569
     7.3832   7.4105   7.9151   7.9645   8.4155   8.4223   9.1649   9.1773
     9.3172   9.6401   9.8013   9.8433   9.8826   9.9137   9.9736  10.1246
    10.2091  10.2635

          k = 0.2500 0.3685 0.0000 ( 32818 PWs)   bands (ev):

   -37.2455 -37.2455 -21.5421 -21.5420 -21.5359 -21.5087 -17.8942 -17.8941
   -17.6749 -17.6749 -17.5961 -17.5960 -14.1355 -14.1334 -13.8690 -13.8632
   -13.6870 -13.6852 -13.6156 -13.6089 -13.5966 -13.4730 -13.4624 -13.1790
   -13.1670 -12.8055 -12.8054  -7.2687  -7.2686  -7.2500  -7.2452  -7.0409
    -6.9440  -6.9302  -6.9267  -6.8211  -6.8208  -6.7749  -6.7045  -2.9629
    -2.9428  -2.4848  -2.4340  -2.1741  -1.7334  -1.7334  -1.6804  -1.6804
    -1.6030  -1.5999  -1.4624  -1.3245  -1.3079  -1.1286  -1.1285  -1.0720
    -1.0489  -0.6972  -0.6886  -0.5276  -0.2608  -0.2499  -0.1878  -0.1375
    -0.0840  -0.0406   0.0748   0.1953   0.2085   0.3278   0.3444   0.5017
     0.5034   0.5962   0.6171   0.9787   1.0583   1.1145   1.2525   1.2671
     1.4010   1.5084   1.5425   1.5867   1.6036   1.6159   1.7598   1.9708
     1.9821   2.1070   2.1100   2.1267   2.1541   2.2978   2.3007   2.3407
     2.3544   2.3668   2.4685   2.4790   2.6198   2.6600   2.7004   2.7050
     2.7556   2.7951   3.0233   3.1590   3.1685   3.2088   3.3806   3.3807
     4.0517   4.0642   4.4507   4.4553   4.6180   4.6238   5.1416   7.2239
     7.7591   7.7667   7.9399   7.9724   8.5671   8.5907   9.2904   9.2908
     9.5322   9.8328  10.1922  10.2091  10.2935  10.3981  10.6749  10.6920
    10.7015  10.7507

          k = 0.2500-0.4913 0.0000 ( 32828 PWs)   bands (ev):

   -37.2433 -37.2432 -21.5225 -21.5224 -21.5164 -21.4897 -17.9765 -17.9765
   -17.6692 -17.6692 -17.5495 -17.5494 -14.2157 -14.2136 -13.6976 -13.6877
   -13.6657 -13.6657 -13.6442 -13.6426 -13.5138 -13.4829 -13.3509 -13.3479
   -13.1789 -12.7990 -12.7989  -7.2139  -7.2139  -7.1860  -7.1298  -7.1073
    -7.1012  -7.0077  -7.0075  -6.9195  -6.9187  -6.8597  -6.8120  -3.1149
    -3.0919  -2.6417  -2.5747  -2.3930  -1.9646  -1.9645  -1.6963  -1.6962
    -1.5935  -1.5785  -1.4711  -1.4674  -1.4500  -1.1579  -1.1426  -1.1424
    -1.1304  -0.6742  -0.6422  -0.5473  -0.2328  -0.2214  -0.2147  -0.1876
    -0.1148  -0.1018   0.0471   0.1297   0.1620   0.2826   0.3086   0.4233
     0.4236   0.5982   0.6102   0.9896   1.0770   1.1239   1.2725   1.2865
     1.4317   1.5118   1.5423   1.6052   1.7691   1.7745   1.9014   2.0106
     2.0613   2.1452   2.1573   2.1748   2.2000   2.2846   2.4019   2.4052
     2.4324   2.4987   2.5103   2.5126   2.5614   2.6718   2.7146   2.7829
     2.8282   2.9284   2.9555   3.1431   3.3784   3.3784   3.5467   3.5467
     4.0007   4.0149   4.5487   4.5537   4.7028   4.7096   5.3085   7.1275
     7.8166   7.8233   7.8774   7.9211   8.6138   8.7111   9.6213   9.6416
     9.6976   9.8178  10.3401  10.3822  10.4940  10.5560  10.7047  10.7099
    10.8382  10.8459

          k = 0.3750 0.0000 0.0000 ( 32700 PWs)   bands (ev):

   -37.2517 -37.2516 -21.5890 -21.5889 -21.5803 -21.5565 -17.9603 -17.9603
   -17.7122 -17.7121 -17.2871 -17.2871 -14.3479 -14.3471 -14.2137 -14.1647
   -14.0696 -13.8663 -13.8486 -13.5417 -13.5412 -13.4994 -13.4484 -13.2199
   -12.8729 -12.8002 -12.8002  -7.2369  -7.0253  -7.0232  -6.9035  -6.6712
    -6.6603  -6.6590  -6.5461  -6.5276  -6.5275  -6.5060  -6.4746  -2.4971
    -2.4922  -2.3228  -2.3148  -1.4995  -1.2423  -1.2423  -1.2143  -1.2131
    -1.1558  -1.1473  -1.1027  -1.1022  -0.5671  -0.4068  -0.3902  -0.3397
    -0.3369  -0.3192  -0.3120  -0.2559  -0.2451  -0.2282  -0.2215  -0.1525
    -0.1524   0.1684   0.4020   0.4523   0.4984   0.5377   0.5408   0.6066
     0.7800   0.9067   0.9067   0.9413   1.0442   1.1193   1.2221   1.2226
     1.2622   1.2623   1.3021   1.3022   1.3109   1.5116   1.5150   1.5499
     1.5555   1.6133   1.7397   1.7510   1.8687   1.8732   1.9210   2.0801
     2.0839   2.0906   2.2032   2.2078   2.2434   2.2460   2.4812   2.4831
     2.5200   2.5520   2.5714   2.5817   2.6136   2.6382   2.7275   2.8237
     2.8382   2.9707   3.1138   3.2442   3.3169   3.6264   3.6480   7.3155
     7.3162   7.6540   8.1778   8.2169   8.7775   8.7777   9.0796   9.0801
     9.5432   9.5446   9.8095   9.9409   9.9672  10.0494  10.1358  10.2317
    10.5279  10.5961

          k = 0.3750 0.1228 0.0000 ( 32705 PWs)   bands (ev):

   -37.2495 -37.2495 -21.5728 -21.5728 -21.5643 -21.5406 -17.9525 -17.9524
   -17.6760 -17.6759 -17.4048 -17.4048 -14.2122 -14.2111 -14.1642 -14.1243
   -14.0118 -13.8206 -13.8065 -13.6169 -13.6164 -13.4676 -13.4229 -13.2031
   -12.8923 -12.7939 -12.7938  -7.2402  -7.0410  -7.0405  -6.9166  -6.8874
    -6.8657  -6.8619  -6.7912  -6.5804  -6.5803  -6.5366  -6.5182  -2.6317
    -2.6254  -2.3683  -2.3585  -1.5156  -1.3893  -1.3834  -1.3001  -1.2797
    -1.1950  -1.1948  -1.0546  -1.0437  -0.7484  -0.7394  -0.7308  -0.7026
    -0.6872  -0.5623  -0.3978  -0.3734  -0.2693  -0.1293  -0.1290  -0.1173
    -0.0628   0.2035   0.4236   0.4401   0.4810   0.5730   0.6010   0.6850
     0.6958   0.8106   0.8114   0.9623   1.0026   1.0120   1.0775   1.0871
     1.1710   1.1885   1.2497   1.2556   1.4262   1.5770   1.5829   1.6924
     1.7549   1.8091   1.9244   1.9245   1.9776   2.0211   2.0343   2.1077
     2.1245   2.1647   2.3059   2.3075   2.4091   2.4093   2.4766   2.4987
     2.5019   2.5137   2.5427   2.5550   2.6371   2.7249   2.7893   3.1245
     3.4478   3.4636   3.5851   3.6010   3.7172   3.9061   3.9986   7.4328
     7.4388   7.5015   8.2217   8.2672   8.5037   8.5190   9.0564   9.0567
     9.7166   9.7938   9.9134   9.9572  10.0706  10.0967  10.1963  10.3693
    10.4699  10.5581

          k = 0.3750 0.2456 0.0000 ( 32783 PWs)   bands (ev):

   -37.2442 -37.2442 -21.5333 -21.5333 -21.5250 -21.5018 -17.9336 -17.9336
   -17.6544 -17.6544 -17.5836 -17.5835 -14.0506 -14.0364 -13.9330 -13.9118
   -13.8311 -13.7972 -13.7969 -13.6955 -13.6913 -13.3928 -13.3667 -13.1643
   -12.9641 -12.7850 -12.7849  -7.2938  -7.2747  -7.2740  -7.2674  -7.0836
    -6.9781  -6.9764  -6.9192  -6.8548  -6.8544  -6.8054  -6.7579  -3.0221
    -3.0127  -2.5539  -2.5368  -1.6550  -1.6508  -1.6000  -1.5448  -1.5145
    -1.4112  -1.3369  -1.3257  -1.2189  -1.2186  -1.0770  -1.0501  -0.9817
    -0.9811  -0.7477  -0.7432  -0.5911  -0.1806  -0.1759  -0.1404  -0.0653
     0.0193   0.1610   0.1635   0.2327   0.2348   0.3907   0.4030   0.6532
     0.6541   0.6578   0.6709   0.9753   1.0882   1.2287   1.2542   1.2584
     1.4287   1.5370   1.6306   1.6361   1.6741   1.6843   1.6858   1.8680
     1.9427   2.0457   2.0542   2.0692   2.1900   2.2151   2.2862   2.2957
     2.3383   2.3524   2.3853   2.4588   2.5459   2.5645   2.6605   2.6683
     2.6732   2.7185   2.7885   2.8356   2.8848   2.8946   3.0802   3.1108
     3.9720   3.9853   4.4059   4.4129   4.5269   4.6037   4.6752   7.0305
     7.5368   7.5414   7.9369   7.9401   8.6312   8.6630   9.0660   9.0694
     9.8359  10.0809  10.1924  10.2413  10.2429  10.3476  10.4883  10.5561
    10.6595  10.6855

          k = 0.3750 0.3685 0.0000 ( 32858 PWs)   bands (ev):

   -37.2389 -37.2389 -21.4931 -21.4930 -21.4849 -21.4623 -17.9154 -17.9154
   -17.8692 -17.8692 -17.4830 -17.4830 -14.0275 -14.0260 -13.9056 -13.9031
   -13.6746 -13.6523 -13.5877 -13.5283 -13.5232 -13.3400 -13.3340 -13.1231
   -13.1109 -12.7890 -12.7890  -7.5020  -7.4945  -7.4942  -7.4485  -7.2235
    -7.1988  -7.1967  -7.1898  -7.0281  -6.9814  -6.9763  -6.8768  -3.4362
    -3.4233  -2.8563  -2.8299  -2.1473  -1.7764  -1.7761  -1.7253  -1.7072
    -1.7067  -1.7014  -1.6845  -1.6841  -1.4745  -1.1923  -1.1576  -1.1377
    -1.1366  -0.6060  -0.5337  -0.5016  -0.3289  -0.3087  -0.1226  -0.0875
     0.0077   0.0156   0.0299   0.0829   0.1405   0.1766   0.2693   0.4393
     0.4395   0.7393   0.7426   1.0399   1.1852   1.3020   1.5638   1.5859
     1.6481   1.7065   1.8442   1.9534   1.9589   2.0826   2.0940   2.0961
     2.0974   2.1773   2.2136   2.2328   2.2780   2.2799   2.3643   2.3896
     2.4411   2.5156   2.5441   2.6830   2.7297   2.7675   2.7738   2.8701
     2.8727   2.9225   3.0116   3.1758   3.1819   3.3044   3.3045   3.3167
     4.0472   4.0644   5.0496   5.0570   5.0809   5.1741   5.1761   6.5427
     7.2971   7.2990   7.6272   7.6680   8.8916   8.8996   9.5667   9.5671
     9.7225   9.9749  10.1177  10.1665  10.4757  10.5694  10.5713  10.6009
    10.6141  10.6613

          k = 0.3750-0.4913 0.0000 ( 32884 PWs)   bands (ev):

   -37.2367 -37.2367 -21.4761 -21.4761 -21.4681 -21.4457 -17.9532 -17.9532
   -17.9056 -17.9056 -17.4385 -17.4384 -14.0992 -14.0985 -13.8699 -13.8693
   -13.5554 -13.5528 -13.4362 -13.4225 -13.3721 -13.3547 -13.3372 -13.3015
   -13.1006 -12.7966 -12.7966  -7.5339  -7.5339  -7.5049  -7.5001  -7.4624
    -7.3787  -7.3786  -7.2683  -7.0995  -6.9841  -6.9767  -6.8778  -3.6051
    -3.5905  -3.0045  -2.9737  -2.3816  -1.9244  -1.9244  -1.8563  -1.8302
    -1.8086  -1.8085  -1.7388  -1.7385  -1.4836  -1.2211  -1.1833  -1.1342
    -1.1342  -0.5967  -0.4447  -0.3946  -0.3930  -0.3730  -0.1867  -0.1547
    -0.0422  -0.0026  -0.0001   0.0120   0.0787   0.1041   0.2954   0.3613
     0.3615   0.7799   0.7821   1.0582   1.2200   1.3176   1.6814   1.7198
     1.7331   1.7404   1.9420   2.0649   2.0939   2.1348   2.1416   2.2067
     2.2503   2.2575   2.2843   2.3124   2.3131   2.3279   2.3699   2.5199
     2.5754   2.6167   2.6700   2.7738   2.7828   2.7912   2.8419   2.8544
     2.9166   2.9418   3.2246   3.2902   3.3831   3.3832   3.4824   3.4825
     3.9955   4.0157   5.2007   5.2708   5.2742   5.3667   5.3703   6.3424
     7.1371   7.1375   7.5189   7.5944   8.9523   9.0203   9.4832   9.9058
     9.9764  10.0599  10.1903  10.2960  10.2971  10.4336  10.5013  10.5406
    10.5436  10.6203

          k =-0.5000 0.0000 0.0000 ( 32678 PWs)   bands (ev):

   -37.2489 -37.2489 -21.5620 -21.5619 -21.5525 -21.5312 -18.0524 -18.0524
   -17.6573 -17.6572 -17.2834 -17.2834 -14.3120 -14.2662 -14.2412 -14.2408
   -14.1329 -13.9316 -13.9026 -13.5169 -13.5164 -13.5087 -13.4104 -13.2318
   -12.8718 -12.7917 -12.7915  -7.2575  -7.0231  -7.0200  -6.8819  -6.6816
    -6.6789  -6.6789  -6.5636  -6.4769  -6.4768  -6.4558  -6.4256  -2.6391
    -2.6354  -2.4603  -2.4539  -1.4936  -1.2555  -1.2555  -1.2037  -1.1955
    -1.0661  -1.0648  -1.0525  -1.0525  -0.6034  -0.5304  -0.5302  -0.5274
    -0.4450  -0.4435  -0.4415  -0.4274  -0.3254  -0.2556  -0.2555  -0.0914
    -0.0874   0.1159   0.1425   0.1977   0.4648   0.5343   0.5379   0.5414
     0.7762   0.8860   0.9149   0.9149   1.1129   1.1798   1.2025   1.2040
     1.2762   1.2769   1.2810   1.2810   1.3014   1.5053   1.5135   1.6112
     1.7042   1.7046   1.7127   1.7186   1.7932   1.9647   2.0116   2.0927
     2.1371   2.1371   2.1986   2.2003   2.2317   2.2546   2.4452   2.4927
     2.5316   2.5319   2.6474   2.6475   2.6520   2.7819   2.7830   2.7904
     2.7916   2.9390   3.0905   3.2141   3.3229   3.6011   3.6483   7.7682
     8.1319   8.1320   8.2173   8.2396   8.5353   8.6074   8.7500   8.7500
     9.6660   9.6900  10.2384  10.3202  10.4575  10.4771  10.5568  10.5997
    10.6271  10.6995

          k =-0.5000 0.1228 0.0000 ( 32748 PWs)   bands (ev):

   -37.2467 -37.2467 -21.5469 -21.5468 -21.5375 -21.5163 -18.0441 -18.0441
   -17.6218 -17.6217 -17.3998 -17.3998 -14.2598 -14.2234 -14.1006 -14.1002
   -14.0705 -13.8806 -13.8556 -13.5911 -13.5907 -13.4710 -13.3823 -13.2066
   -12.8852 -12.7831 -12.7830  -7.2552  -7.0242  -7.0223  -6.8870  -6.8342
    -6.8145  -6.8145  -6.6871  -6.6794  -6.6791  -6.6573  -6.6238  -2.7848
    -2.7794  -2.5163  -2.5080  -1.5164  -1.3615  -1.3517  -1.2218  -1.2066
    -1.1323  -1.1220  -1.0628  -1.0565  -0.9394  -0.9216  -0.8996  -0.8892
    -0.7460  -0.6130  -0.3516  -0.3516  -0.3367  -0.2762  -0.1577  -0.0285
    -0.0137   0.1611   0.4458   0.4458   0.4519   0.5121   0.5447   0.6560
     0.6669   0.6753   0.6809   0.9617   0.9641   0.9761   1.0761   1.1011
     1.2054   1.2165   1.3257   1.3502   1.3783   1.5870   1.5988   1.7342
     1.8459   1.9126   1.9357   1.9368   1.9609   2.0608   2.0845   2.1628
     2.1808   2.1916   2.2872   2.2895   2.3488   2.3497   2.4506   2.5512
     2.5628   2.6072   2.6093   2.6372   2.6754   2.7663   2.7666   3.0800
     3.4526   3.4602   3.5729   3.5818   3.7070   3.8990   4.0111   7.4980
     8.0637   8.0685   8.2761   8.2862   8.4476   8.4558   8.6118   8.6799
    10.0422  10.0813  10.0825  10.2485  10.3986  10.5302  10.6172  10.6523
    10.8081  10.8154

          k =-0.5000 0.2456 0.0000 ( 32792 PWs)   bands (ev):

   -37.2415 -37.2415 -21.5100 -21.5099 -21.5008 -21.4798 -18.0239 -18.0239
   -17.6475 -17.6475 -17.5312 -17.5311 -14.1345 -14.1173 -13.8907 -13.8101
   -13.8101 -13.7576 -13.7572 -13.7430 -13.7276 -13.3761 -13.3143 -13.1465
   -12.9439 -12.7718 -12.7717  -7.2658  -7.1866  -7.1555  -7.1544  -7.1223
    -7.1223  -7.0842  -7.0769  -6.9860  -6.9844  -6.9649  -6.8620  -3.1934
    -3.1848  -2.7214  -2.7067  -1.6569  -1.6487  -1.5752  -1.5072  -1.4912
    -1.4826  -1.4782  -1.3922  -1.2084  -1.2070  -1.2015  -1.1620  -0.9718
    -0.9717  -0.7704  -0.7404  -0.6563  -0.1275  -0.1219  -0.1026  -0.0954
    -0.0047   0.2046   0.2050   0.2057   0.2133   0.3684   0.3798   0.6177
     0.6177   0.6597   0.6615   0.9912   1.0938   1.2351   1.2564   1.3407
     1.5389   1.5649   1.7050   1.7134   1.7169   1.7861   1.8036   1.8448
     2.0390   2.0772   2.0891   2.1159   2.2216   2.2787   2.3539   2.3612
     2.3752   2.3859   2.4916   2.5262   2.5352   2.5674   2.6485   2.7210
     2.7461   2.7961   2.7961   2.8077   2.8564   2.8903   2.9332   3.0238
     3.9713   3.9846   4.4832   4.4895   4.5437   4.6773   4.7281   6.8597
     7.5855   7.5878   7.8420   7.8541   8.8338   8.8909   9.0451   9.0454
    10.0879  10.1272  10.2283  10.3170  10.3924  10.4793  10.5432  10.5528
    10.7716  10.8935

          k =-0.5000 0.3685 0.0000 ( 32862 PWs)   bands (ev):

   -37.2362 -37.2362 -21.4724 -21.4724 -21.4634 -21.4427 -18.0037 -18.0037
   -17.8619 -17.8619 -17.4327 -17.4326 -14.0121 -14.0076 -13.9678 -13.9677
   -13.6245 -13.5724 -13.5650 -13.5148 -13.5147 -13.2775 -13.2509 -13.0893
   -13.0850 -12.7813 -12.7812  -7.5225  -7.5204  -7.5199  -7.4954  -7.4543
    -7.4068  -7.4068  -7.2233  -7.2168  -7.0066  -7.0015  -6.8728  -3.6257
    -3.6141  -3.0313  -3.0094  -2.1306  -1.8770  -1.8314  -1.7968  -1.7965
    -1.7211  -1.7157  -1.6653  -1.6649  -1.4722  -1.2410  -1.1842  -1.1406
    -1.1405  -0.6459  -0.5541  -0.5375  -0.2718  -0.2644  -0.1201  -0.0843
    -0.0838   0.0150   0.0393   0.0580   0.1750   0.1796   0.2882   0.4027
     0.4028   0.7904   0.7904   1.0620   1.2170   1.4114   1.6845   1.7056
     1.7573   1.8002   2.0114   2.0516   2.0647   2.0814   2.1496   2.1546
     2.2162   2.2863   2.3087   2.3089   2.3211   2.3212   2.4251   2.4270
     2.5826   2.5896   2.6536   2.7724   2.7753   2.7824   2.8016   2.8196
     2.8366   2.8943   3.2184   3.2189   3.2230   3.2427   3.2427   3.2450
     4.0495   4.0677   5.0487   5.2477   5.2484   5.3583   5.3597   6.2725
     7.0676   7.0683   7.5182   7.5627   9.0464   9.0789   9.6992   9.7668
     9.8113   9.9199  10.1173  10.1601  10.3073  10.3734  10.4475  10.4711
    10.6906  10.7314

          k =-0.5000-0.4913 0.0000 ( 32956 PWs)   bands (ev):

   -37.2340 -37.2340 -21.4567 -21.4566 -21.4477 -21.4271 -17.9953 -17.9953
   -17.9436 -17.9436 -17.3890 -17.3890 -14.0486 -14.0486 -13.9624 -13.9612
   -13.4829 -13.4828 -13.4080 -13.4080 -13.3657 -13.2865 -13.2399 -13.2310
   -13.0671 -12.7951 -12.7950  -7.6634  -7.6634  -7.6583  -7.6347  -7.5972
    -7.5186  -7.5186  -7.3141  -7.2303  -7.0129  -7.0035  -6.8744  -3.8025
    -3.7897  -3.1800  -3.1550  -2.3671  -2.0008  -1.9488  -1.9092  -1.9092
    -1.8347  -1.8345  -1.7663  -1.7643  -1.4791  -1.2550  -1.1921  -1.1268
    -1.1267  -0.6389  -0.4704  -0.4696  -0.3490  -0.3122  -0.1551  -0.1110
    -0.1104  -0.0926  -0.0496  -0.0071   0.1204   0.1278   0.3252   0.3253
     0.3340   0.8374   0.8375   1.0826   1.2618   1.4299   1.8085   1.8926
     1.9472   1.9477   2.0899   2.1295   2.1582   2.1807   2.1861   2.1899
     2.2122   2.2985   2.3398   2.4032   2.4642   2.4775   2.5036   2.5219
     2.5919   2.6053   2.7075   2.8915   2.8937   2.9036   2.9128   2.9215
     2.9569   2.9576   3.3613   3.4075   3.4093   3.4102   3.4367   3.4368
     4.0003   4.0221   5.1609   5.5174   5.5175   5.6152   5.6155   6.0334
     6.8399   6.8399   7.3980   7.4865   9.1402   9.1605   9.4188   9.7279
     9.9365   9.9979  10.1425  10.1754  10.2812  10.3337  10.4117  10.4264
    10.5697  10.6043

     the Fermi energy is     3.6352 ev

!    total energy              =   -1868.81813151 Ry
     Harris-Foulkes estimate   =   -1868.81813207 Ry
     estimated scf accuracy    <       0.00000063 Ry

     The total energy is the sum of the following terms:

     one-electron contribution =  -32452.31554741 Ry
     hartree contribution      =   16386.61868111 Ry
     xc contribution           =    -643.02426327 Ry
     ewald contribution        =   14839.91009399 Ry
     smearing contrib. (-TS)   =      -0.00709593 Ry

     convergence has been achieved in  32 iterations

     negative rho (up, down):  9.045E-02 0.000E+00

     Forces acting on atoms (cartesian axes, Ry/au):

     atom    1 type  2   force =     0.00000000    0.00000000    0.00685174
     atom    2 type  2   force =     0.00000000    0.00000000    0.02583332
     atom    3 type  2   force =     0.00000000    0.00000000   -0.02584183
     atom    4 type  2   force =     0.00000000    0.00000000   -0.00685989
     atom    5 type  1   force =     0.00000000    0.00000000    0.00314645
     atom    6 type  1   force =     0.00000000    0.00000000   -0.00314041
     atom    7 type  4   force =     0.00000000    0.00000000    0.00070945
     atom    8 type  4   force =     0.00000000    0.00000000   -0.00102420
     atom    9 type  4   force =     0.00000000    0.00000000    0.00103215
     atom   10 type  4   force =     0.00000000    0.00000000   -0.00068241
     atom   11 type  4   force =     0.00000000    0.00000000    0.00422670
     atom   12 type  4   force =     0.00000000    0.00000000    0.00003121
     atom   13 type  4   force =     0.00000000    0.00000000   -0.00423053
     atom   14 type  3   force =     0.00000000    0.00000000   -0.01881969
     atom   15 type  3   force =     0.00000000    0.00000000    0.00000347
     atom   16 type  3   force =     0.00000000    0.00000000    0.01881925
     atom   17 type  3   force =     0.00000000    0.00000000    0.00129492
     atom   18 type  3   force =     0.00000000    0.00000000    0.00697841
     atom   19 type  3   force =     0.00000000    0.00000000   -0.00698941
     atom   20 type  3   force =     0.00000000    0.00000000   -0.00130298
     atom   21 type  3   force =     0.00000000    0.00000000    0.00663074
     atom   22 type  3   force =     0.00000000    0.00000000    0.01165303
     atom   23 type  3   force =     0.00000000    0.00000000   -0.01166382
     atom   24 type  3   force =     0.00000000    0.00000000   -0.00663893
     atom   25 type  3   force =     0.00000000    0.00000000   -0.00865286
     atom   26 type  3   force =     0.00000000    0.00000000   -0.02576629
     atom   27 type  3   force =     0.00000000    0.00000000    0.02575250
     atom   28 type  3   force =     0.00000000    0.00000000    0.00864989

     Total force =     0.064294     Total SCF correction =     0.003004


     Computing stress (Cartesian axis) and pressure


     negative rho (up, down):  9.045E-02 0.000E+00
          total   stress  (Ry/bohr**3)                   (kbar)     P=       26.78
   0.00022101   0.00000000   0.00000000           32.51        0.00        0.00
   0.00000000   0.00010944   0.00000000            0.00       16.10        0.00
   0.00000000   0.00000000   0.00021560            0.00        0.00       31.72


     BFGS Geometry Optimization

     number of scf cycles    =   1
     number of bfgs steps    =   0

     enthalpy new            =   -1868.8181315142 Ry

     new trust radius        =       0.0714078760 bohr
     new conv_thr            =       0.0000010000 Ry

     new unit-cell volume =   4233.12422 a.u.^3 (   627.28428 Ang^3 )
     density =      3.73771 g/cm^3

CELL_PARAMETERS (angstrom)
   3.791080322   0.000000000   0.000000000
   0.000000000   3.847698821   0.000000000
   0.000000000   0.000000000  43.003158048

ATOMIC_POSITIONS (angstrom)
Ba            1.8955395588        1.9238502312        9.3620293021
Ba            1.8955395588        1.9238502312       20.8198079051
Ba            1.8955395588        1.9238502312        2.0755563008
Ba            1.8955395588        1.9238502312       13.5333350914
Y             1.8955395588        1.9238502312        5.7255189542
Y             1.8955395588        1.9238502312       17.1698529940
Cu            0.0000000000        0.0000000000        7.4323568296
Cu            0.0000000000        0.0000000000       18.8791123082
Cu            0.0000000000        0.0000000000        4.0162586460
Cu            0.0000000000        0.0000000000       15.4630262887
Cu            0.0000000000        0.0000000000        0.0022487280
Cu            0.0000000000        0.0000000000       11.4476964484
Cu            0.0000000000        0.0000000000       22.8931079138
O             0.0000000000        1.9238502312       -0.0100126277
O             0.0000000000        1.9238502312       11.4476816877
O             0.0000000000        1.9238502312       22.9053710746
O             1.8955395588        0.0000000000        7.1298850743
O             1.8955395588        0.0000000000       18.5805876941
O             1.8955395588        0.0000000000        4.3147731758
O             1.8955395588        0.0000000000       15.7654783630
O             0.0000000000        1.9238502312        7.1341907482
O             0.0000000000        1.9238502312       18.5845425998
O             0.0000000000        1.9238502312        4.3108203939
O             0.0000000000        1.9238502312       15.7611726206
O             0.0000000000        0.0000000000        9.5847777901
O             0.0000000000        0.0000000000       21.0233527840
O             0.0000000000        0.0000000000        1.8720086078
O             0.0000000000        0.0000000000       13.3105893597



     Writing output data file /n/holyscratch01/hoffman_lab/ruizhe/outdir/YBCO_z_2_ecut60_vac20_vcrelax.save/
     NEW-OLD atomic charge density approx. for the potential

     negative rho (up, down):  9.434E-02 0.000E+00
     extrapolated charge  232.09525, renormalised to  229.00000

     total cpu time spent up to now is      513.5 secs

     Self-consistent Calculation

     iteration #  1     ecut=    60.00 Ry     beta= 0.20
     Davidson diagonalization with overlap
     c_bands:  2 eigenvalues not converged
     c_bands:  1 eigenvalues not converged
     c_bands:  3 eigenvalues not converged
     c_bands:  1 eigenvalues not converged
     c_bands:  4 eigenvalues not converged
     c_bands:  2 eigenvalues not converged
     c_bands:  2 eigenvalues not converged
     c_bands:  2 eigenvalues not converged
     c_bands:  4 eigenvalues not converged
     c_bands:  2 eigenvalues not converged
     c_bands:  1 eigenvalues not converged
     ethr =  1.00E-06,  avg # of iterations = 37.6

     negative rho (up, down):  4.003E+00 0.000E+00

     total cpu time spent up to now is      654.7 secs

     total energy              =      41.49402421 Ry
     Harris-Foulkes estimate   =   -1967.63077254 Ry
     estimated scf accuracy    <   81460.14858618 Ry

     iteration #  2     ecut=    60.00 Ry     beta= 0.20
     Davidson diagonalization with overlap
     ethr =  1.00E-02,  avg # of iterations = 17.6

     negative rho (up, down):  3.140E+00 0.000E+00

     total cpu time spent up to now is      730.5 secs

     total energy              =   -1886.20598783 Ry
     Harris-Foulkes estimate   =   -1890.62124000 Ry
     estimated scf accuracy    <      96.22720524 Ry

     iteration #  3     ecut=    60.00 Ry     beta= 0.20
     Davidson diagonalization with overlap
     ethr =  1.00E-02,  avg # of iterations =  1.0

     negative rho (up, down):  2.277E+00 0.000E+00

     total cpu time spent up to now is      741.8 secs

     total energy              =   -1882.81784010 Ry
     Harris-Foulkes estimate   =   -1886.63137297 Ry
     estimated scf accuracy    <      83.55083456 Ry

     iteration #  4     ecut=    60.00 Ry     beta= 0.20
     Davidson diagonalization with overlap
     ethr =  1.00E-02,  avg # of iterations =  1.0

     negative rho (up, down):  1.364E+00 0.000E+00

     total cpu time spent up to now is      753.1 secs

     total energy              =   -1879.94033099 Ry
     Harris-Foulkes estimate   =   -1883.23934816 Ry
     estimated scf accuracy    <      46.33819683 Ry

     iteration #  5     ecut=    60.00 Ry     beta= 0.20
     Davidson diagonalization with overlap
     ethr =  1.00E-02,  avg # of iterations =  1.0

     negative rho (up, down):  1.529E+00 0.000E+00

     total cpu time spent up to now is      764.3 secs

     total energy              =   -1881.12751966 Ry
     Harris-Foulkes estimate   =   -1881.15038856 Ry
     estimated scf accuracy    <      16.61251102 Ry

     iteration #  6     ecut=    60.00 Ry     beta= 0.20
     Davidson diagonalization with overlap
     ethr =  7.25E-03,  avg # of iterations =  1.0

     negative rho (up, down):  1.541E+00 0.000E+00

     total cpu time spent up to now is      775.6 secs

     total energy              =   -1881.47691368 Ry
     Harris-Foulkes estimate   =   -1881.36498007 Ry
     estimated scf accuracy    <      15.38286150 Ry

     iteration #  7     ecut=    60.00 Ry     beta= 0.20
     Davidson diagonalization with overlap
     ethr =  6.72E-03,  avg # of iterations =  1.0

     negative rho (up, down):  9.539E-01 0.000E+00

     total cpu time spent up to now is      786.9 secs

     total energy              =   -1879.18500631 Ry
     Harris-Foulkes estimate   =   -1881.52672306 Ry
     estimated scf accuracy    <      14.95257933 Ry

     iteration #  8     ecut=    60.00 Ry     beta= 0.20
     Davidson diagonalization with overlap
     ethr =  6.53E-03,  avg # of iterations =  1.0

     negative rho (up, down):  8.348E-01 0.000E+00

     total cpu time spent up to now is      798.2 secs

     total energy              =   -1879.02592375 Ry
     Harris-Foulkes estimate   =   -1879.78795206 Ry
     estimated scf accuracy    <      37.44062594 Ry

     iteration #  9     ecut=    60.00 Ry     beta= 0.20
     Davidson diagonalization with overlap
     ethr =  6.53E-03,  avg # of iterations =  1.0

     negative rho (up, down):  8.163E-01 0.000E+00

     total cpu time spent up to now is      809.5 secs

     total energy              =   -1879.09380742 Ry
     Harris-Foulkes estimate   =   -1879.28147427 Ry
     estimated scf accuracy    <      13.08057432 Ry

     iteration # 10     ecut=    60.00 Ry     beta= 0.20
     Davidson diagonalization with overlap
     ethr =  5.71E-03,  avg # of iterations =  1.0

     negative rho (up, down):  7.103E-01 0.000E+00

     total cpu time spent up to now is      820.8 secs

     total energy              =   -1878.52772535 Ry
     Harris-Foulkes estimate   =   -1879.16545000 Ry
     estimated scf accuracy    <      18.72026169 Ry

     iteration # 11     ecut=    60.00 Ry     beta= 0.20
     Davidson diagonalization with overlap
     ethr =  5.71E-03,  avg # of iterations =  1.0

     negative rho (up, down):  2.328E-01 0.000E+00

     total cpu time spent up to now is      832.1 secs

     total energy              =   -1876.28832048 Ry
     Harris-Foulkes estimate   =   -1878.57217524 Ry
     estimated scf accuracy    <      13.93048812 Ry

     iteration # 12     ecut=    60.00 Ry     beta= 0.20
     Davidson diagonalization with overlap
     ethr =  5.71E-03,  avg # of iterations =  1.0

     negative rho (up, down):  8.260E-01 0.000E+00

     total cpu time spent up to now is      843.4 secs

     total energy              =   -1871.46372390 Ry
     Harris-Foulkes estimate   =   -1876.51788669 Ry
     estimated scf accuracy    <       9.40532474 Ry

     iteration # 13     ecut=    60.00 Ry     beta= 0.20
     Davidson diagonalization with overlap
     ethr =  4.11E-03,  avg # of iterations =  1.0

     negative rho (up, down):  1.510E+00 0.000E+00

     total cpu time spent up to now is      854.7 secs

     total energy              =   -1869.01319776 Ry
     Harris-Foulkes estimate   =   -1872.69872290 Ry
     estimated scf accuracy    <      64.48359594 Ry

     iteration # 14     ecut=    60.00 Ry     beta= 0.20
     Davidson diagonalization with overlap
     ethr =  4.11E-03,  avg # of iterations =  2.0

     negative rho (up, down):  1.291E+00 0.000E+00

     total cpu time spent up to now is      867.1 secs

     total energy              =   -1870.91300654 Ry
     Harris-Foulkes estimate   =   -1872.15860669 Ry
     estimated scf accuracy    <      12.91681874 Ry

     iteration # 15     ecut=    60.00 Ry     beta= 0.20
     Davidson diagonalization with overlap
     ethr =  4.11E-03,  avg # of iterations =  1.0

     negative rho (up, down):  3.293E-01 0.000E+00

     total cpu time spent up to now is      878.4 secs

     total energy              =   -1869.17514320 Ry
     Harris-Foulkes estimate   =   -1871.02331797 Ry
     estimated scf accuracy    <       8.09125052 Ry

     iteration # 16     ecut=    60.00 Ry     beta= 0.20
     Davidson diagonalization with overlap
     ethr =  3.53E-03,  avg # of iterations =  3.3

     negative rho (up, down):  9.410E-01 0.000E+00

     total cpu time spent up to now is      892.4 secs

     total energy              =   -1870.64299435 Ry
     Harris-Foulkes estimate   =   -1870.83189084 Ry
     estimated scf accuracy    <      35.76148822 Ry

     iteration # 17     ecut=    60.00 Ry     beta= 0.20
     Davidson diagonalization with overlap
     ethr =  3.53E-03,  avg # of iterations =  1.0

     negative rho (up, down):  1.072E+00 0.000E+00

     total cpu time spent up to now is      903.7 secs

     total energy              =   -1870.27705411 Ry
     Harris-Foulkes estimate   =   -1870.74045485 Ry
     estimated scf accuracy    <      46.75211670 Ry

     iteration # 18     ecut=    60.00 Ry     beta= 0.20
     Davidson diagonalization with overlap
     ethr =  3.53E-03,  avg # of iterations =  1.0

     negative rho (up, down):  1.065E+00 0.000E+00

     total cpu time spent up to now is      914.9 secs

     total energy              =   -1869.23616179 Ry
     Harris-Foulkes estimate   =   -1870.31158702 Ry
     estimated scf accuracy    <      36.54321258 Ry

     iteration # 19     ecut=    60.00 Ry     beta= 0.20
     Davidson diagonalization with overlap
     ethr =  3.53E-03,  avg # of iterations =  1.9

     negative rho (up, down):  9.733E-01 0.000E+00

     total cpu time spent up to now is      927.2 secs

     total energy              =   -1869.54916620 Ry
     Harris-Foulkes estimate   =   -1869.58220046 Ry
     estimated scf accuracy    <      10.85556152 Ry

     iteration # 20     ecut=    60.00 Ry     beta= 0.20
     Davidson diagonalization with overlap
     ethr =  3.53E-03,  avg # of iterations =  1.0

     negative rho (up, down):  7.172E-01 0.000E+00

     total cpu time spent up to now is      938.5 secs

     total energy              =   -1868.90458034 Ry
     Harris-Foulkes estimate   =   -1869.62857612 Ry
     estimated scf accuracy    <      14.42751914 Ry

     iteration # 21     ecut=    60.00 Ry     beta= 0.20
     Davidson diagonalization with overlap
     ethr =  3.53E-03,  avg # of iterations =  1.0

     negative rho (up, down):  9.037E-01 0.000E+00

     total cpu time spent up to now is      949.8 secs

     total energy              =   -1869.03837565 Ry
     Harris-Foulkes estimate   =   -1869.17914028 Ry
     estimated scf accuracy    <       1.91165441 Ry

     iteration # 22     ecut=    60.00 Ry     beta= 0.20
     Davidson diagonalization with overlap
     ethr =  8.35E-04,  avg # of iterations =  4.3

     negative rho (up, down):  8.890E-01 0.000E+00

     total cpu time spent up to now is      964.6 secs

     total energy              =   -1869.04292685 Ry
     Harris-Foulkes estimate   =   -1869.12221169 Ry
     estimated scf accuracy    <       1.04767684 Ry

     iteration # 23     ecut=    60.00 Ry     beta= 0.20
     Davidson diagonalization with overlap
     ethr =  4.58E-04,  avg # of iterations =  4.1

     negative rho (up, down):  4.803E-01 0.000E+00

     total cpu time spent up to now is      979.0 secs

     total energy              =   -1869.02945769 Ry
     Harris-Foulkes estimate   =   -1869.05918610 Ry
     estimated scf accuracy    <       0.99423090 Ry

     iteration # 24     ecut=    60.00 Ry     beta= 0.20
     Davidson diagonalization with overlap
     ethr =  4.34E-04,  avg # of iterations =  2.2

     negative rho (up, down):  5.619E-01 0.000E+00

     total cpu time spent up to now is      991.5 secs

     total energy              =   -1869.00392024 Ry
     Harris-Foulkes estimate   =   -1869.06348616 Ry
     estimated scf accuracy    <       1.34298684 Ry

     iteration # 25     ecut=    60.00 Ry     beta= 0.20
     Davidson diagonalization with overlap
     ethr =  4.34E-04,  avg # of iterations =  2.1

     negative rho (up, down):  5.603E-01 0.000E+00

     total cpu time spent up to now is     1004.0 secs

     total energy              =   -1868.91702062 Ry
     Harris-Foulkes estimate   =   -1869.01671924 Ry
     estimated scf accuracy    <       0.71935794 Ry

     iteration # 26     ecut=    60.00 Ry     beta= 0.20
     Davidson diagonalization with overlap
     ethr =  3.14E-04,  avg # of iterations =  4.4

     negative rho (up, down):  4.131E-01 0.000E+00

     total cpu time spent up to now is     1019.2 secs

     total energy              =   -1868.90056402 Ry
     Harris-Foulkes estimate   =   -1868.95276468 Ry
     estimated scf accuracy    <       0.32710821 Ry

     iteration # 27     ecut=    60.00 Ry     beta= 0.20
     Davidson diagonalization with overlap
     c_bands:  2 eigenvalues not converged
     ethr =  1.43E-04,  avg # of iterations =  7.6

     negative rho (up, down):  4.374E-01 0.000E+00

     total cpu time spent up to now is     1038.3 secs

     total energy              =   -1868.92603512 Ry
     Harris-Foulkes estimate   =   -1868.92987840 Ry
     estimated scf accuracy    <       0.62430303 Ry

     iteration # 28     ecut=    60.00 Ry     beta= 0.20
     Davidson diagonalization with overlap
     ethr =  1.43E-04,  avg # of iterations =  5.0

     negative rho (up, down):  3.818E-01 0.000E+00

     total cpu time spent up to now is     1053.9 secs

     total energy              =   -1868.84014875 Ry
     Harris-Foulkes estimate   =   -1868.93199052 Ry
     estimated scf accuracy    <       0.54866902 Ry

     iteration # 29     ecut=    60.00 Ry     beta= 0.20
     Davidson diagonalization with overlap
     c_bands:  1 eigenvalues not converged
     c_bands:  1 eigenvalues not converged
     ethr =  1.43E-04,  avg # of iterations =  9.5

     negative rho (up, down):  3.729E-01 0.000E+00

     total cpu time spent up to now is     1073.7 secs

     total energy              =   -1868.91529861 Ry
     Harris-Foulkes estimate   =   -1868.91832073 Ry
     estimated scf accuracy    <       0.47215452 Ry

     iteration # 30     ecut=    60.00 Ry     beta= 0.20
     Davidson diagonalization with overlap
     c_bands:  1 eigenvalues not converged
     ethr =  1.43E-04,  avg # of iterations =  3.0

     negative rho (up, down):  3.335E-01 0.000E+00

     total cpu time spent up to now is     1087.1 secs

     total energy              =   -1868.90395370 Ry
     Harris-Foulkes estimate   =   -1868.91607740 Ry
     estimated scf accuracy    <       0.50240888 Ry

     iteration # 31     ecut=    60.00 Ry     beta= 0.20
     Davidson diagonalization with overlap
     c_bands:  1 eigenvalues not converged
     ethr =  1.43E-04,  avg # of iterations = 11.0

     negative rho (up, down):  2.780E-01 0.000E+00

     total cpu time spent up to now is     1108.6 secs

     total energy              =   -1868.86409406 Ry
     Harris-Foulkes estimate   =   -1868.91244657 Ry
     estimated scf accuracy    <       0.24969704 Ry

     iteration # 32     ecut=    60.00 Ry     beta= 0.20
     Davidson diagonalization with overlap
     ethr =  1.09E-04,  avg # of iterations =  2.4

     negative rho (up, down):  2.560E-01 0.000E+00

     total cpu time spent up to now is     1121.3 secs

     total energy              =   -1868.85671883 Ry
     Harris-Foulkes estimate   =   -1868.87218823 Ry
     estimated scf accuracy    <       0.12094487 Ry

     iteration # 33     ecut=    60.00 Ry     beta= 0.20
     Davidson diagonalization with overlap
     ethr =  5.28E-05,  avg # of iterations =  3.5

     negative rho (up, down):  1.655E-01 0.000E+00

     total cpu time spent up to now is     1135.2 secs

     total energy              =   -1868.85070594 Ry
     Harris-Foulkes estimate   =   -1868.85858430 Ry
     estimated scf accuracy    <       0.08852878 Ry

     iteration # 34     ecut=    60.00 Ry     beta= 0.20
     Davidson diagonalization with overlap
     ethr =  3.87E-05,  avg # of iterations =  2.1

     negative rho (up, down):  1.495E-01 0.000E+00

     total cpu time spent up to now is     1147.5 secs

     total energy              =   -1868.85032797 Ry
     Harris-Foulkes estimate   =   -1868.85200971 Ry
     estimated scf accuracy    <       0.08652653 Ry

     iteration # 35     ecut=    60.00 Ry     beta= 0.20
     Davidson diagonalization with overlap
     ethr =  3.78E-05,  avg # of iterations =  5.4

     negative rho (up, down):  1.160E-01 0.000E+00

     total cpu time spent up to now is     1163.3 secs

     total energy              =   -1868.84670547 Ry
     Harris-Foulkes estimate   =   -1868.85123554 Ry
     estimated scf accuracy    <       0.04425879 Ry

     iteration # 36     ecut=    60.00 Ry     beta= 0.20
     Davidson diagonalization with overlap
     c_bands:  1 eigenvalues not converged
     ethr =  1.93E-05,  avg # of iterations =  5.2

     negative rho (up, down):  1.193E-01 0.000E+00

     total cpu time spent up to now is     1178.6 secs

     total energy              =   -1868.84650296 Ry
     Harris-Foulkes estimate   =   -1868.84705390 Ry
     estimated scf accuracy    <       0.02700374 Ry

     iteration # 37     ecut=    60.00 Ry     beta= 0.20
     Davidson diagonalization with overlap
     ethr =  1.18E-05,  avg # of iterations =  1.8

[...]
     0.7663   0.7665   0.7879   0.9899   0.9899   1.0109   1.0135   1.0382
     1.1151   1.1701   1.1705   1.2412   1.3891   1.3959   1.5429   1.6520
     1.6573   1.6609   1.7414   1.7460   1.8287   1.8342   2.0287   2.0722
     2.0932   2.1361   2.1492   2.1835   2.1975   2.2390   2.3342   2.5386
     2.5389   2.6907   2.8324   2.9229   2.9606   3.2187   3.2264   6.8187
     6.8198   7.0510   7.5345   7.5486   8.3191   8.3212   8.3340   8.3341
     8.7771   8.7816   8.9435   9.1564   9.2149   9.3551   9.7715   9.8103
     9.8388   9.9529

          k = 0.3636 0.1242 0.0000 ( 34172 PWs)   bands (ev):

   -37.8417 -37.8417 -22.3902 -22.3901 -22.2103 -22.1920 -18.3568 -18.3568
   -18.1537 -18.1536 -17.9327 -17.9327 -14.5115 -14.5080 -14.4289 -14.3977
   -14.3301 -14.2331 -14.2225 -13.8882 -13.8729 -13.8304 -13.8299 -13.4996
   -13.4670 -13.4668 -13.2212  -7.7890  -7.7601  -7.7593  -7.5921  -7.5919
    -7.5110  -7.4033  -7.3477  -7.3065  -7.3064  -7.1100  -7.0875  -2.6888
    -2.6827  -2.4454  -2.4321  -1.7330  -1.7325  -1.6781  -1.6359  -1.6085
    -1.5104  -1.5011  -1.2605  -1.2476  -1.1039  -1.0295  -1.0237  -0.9604
    -0.9397  -0.8403  -0.7137  -0.7129  -0.6006  -0.5637  -0.5108  -0.4880
    -0.3803  -0.2667  -0.2560  -0.0972   0.0477   0.1735   0.2058   0.3438
     0.3487   0.4409   0.4411   0.5260   0.5433   0.6775   0.6999   0.7002
     0.7834   0.8694   0.8825   0.9369   1.0570   1.0581   1.0596   1.1698
     1.1706   1.3632   1.3945   1.4079   1.5052   1.5235   1.6250   1.6590
     1.6803   1.6973   1.7286   1.7961   1.8886   1.8887   2.0535   2.0573
     2.0759   2.0915   2.1120   2.1326   2.2170   2.2932   2.3589   2.7670
     3.1474   3.1570   3.2916   3.2952   3.3391   3.5018   3.5560   6.9150
     6.9427   6.9517   7.6147   7.6448   7.9806   7.9972   8.3950   8.3954
     9.0604   9.0968   9.1453   9.1599   9.2215   9.2649   9.7409   9.7455
     9.8063   9.9536

          k = 0.3636 0.2485 0.0000 ( 34207 PWs)   bands (ev):

   -37.8362 -37.8362 -22.3486 -22.3485 -22.1692 -22.1512 -18.3393 -18.3393
   -18.1479 -18.1479 -18.0704 -18.0704 -14.3902 -14.3870 -14.2435 -14.2141
   -14.1395 -14.0906 -14.0894 -13.9980 -13.9978 -13.8028 -13.7958 -13.4418
   -13.4294 -13.4293 -13.2751  -8.0013  -8.0012  -7.8318  -7.7846  -7.7167
    -7.7166  -7.6588  -7.5752  -7.5751  -7.4971  -7.3821  -7.3141  -3.1285
    -3.1208  -2.6789  -2.6620  -1.9557  -1.9175  -1.9175  -1.8122  -1.8109
    -1.7090  -1.7082  -1.6322  -1.5863  -1.5773  -1.4898  -1.4894  -1.3382
    -1.3145  -0.9902  -0.9886  -0.9133  -0.5432  -0.5398  -0.4702  -0.4524
    -0.3420  -0.3207  -0.2222  -0.1849  -0.0988   0.0430   0.0454   0.1009
     0.1018   0.2427   0.2535   0.6251   0.7291   0.8349   0.9660   0.9883
     1.0304   1.1003   1.1971   1.2203   1.2902   1.3504   1.3511   1.5278
     1.5539   1.5816   1.6006   1.6747   1.7126   1.7306   1.7638   1.7735
     1.9156   1.9354   1.9553   1.9624   1.9851   2.0550   2.1163   2.1494
     2.1949   2.2388   2.3097   2.3138   2.3279   2.3777   2.6281   2.7198
     3.5137   3.5266   4.0319   4.0415   4.1144   4.1871   4.2200   6.4998
     6.9168   6.9210   7.3951   7.4006   8.0796   8.1102   8.6354   8.6389
     9.1539   9.3947   9.4173   9.4681   9.4922   9.5816   9.7834   9.8546
     9.8987  10.1419

          k = 0.3636 0.3727 0.0000 ( 34269 PWs)   bands (ev):

   -37.8307 -37.8307 -22.3062 -22.3061 -22.1272 -22.1097 -18.3426 -18.3425
   -18.3188 -18.3188 -17.9811 -17.9811 -14.2760 -14.2747 -14.1632 -14.1629
   -14.0837 -14.0806 -13.9389 -13.9023 -13.8781 -13.7262 -13.7258 -13.3969
   -13.3957 -13.3950 -13.3793  -8.2678  -8.2677  -8.0391  -8.0390  -7.9040
    -7.9039  -7.7506  -7.7349  -7.7042  -7.7035  -7.5587  -7.4693  -3.5822
    -3.5723  -3.0452  -3.0207  -2.6260  -2.2434  -2.2432  -2.0160  -2.0147
    -1.9868  -1.9716  -1.8994  -1.8971  -1.6402  -1.5995  -1.5989  -1.4870
    -1.4586  -0.9834  -0.8475  -0.8092  -0.6326  -0.6275  -0.5439  -0.4688
    -0.4676  -0.3559  -0.2913  -0.2792  -0.2147  -0.2109  -0.1299  -0.1264
    -0.0531   0.2967   0.2989   0.6869   0.8237   0.8843   1.1551   1.2014
     1.2796   1.2975   1.4347   1.5505   1.5529   1.6986   1.7133   1.7214
     1.7278   1.7924   1.8117   1.8950   1.9170   1.9211   1.9790   1.9978
     2.0010   2.0198   2.0659   2.2016   2.2353   2.2394   2.2674   2.3281
     2.3989   2.4694   2.5455   2.5500   2.6370   2.7584   2.7585   2.8613
     3.4334   3.4485   4.5418   4.5893   4.6226   4.6890   4.6915   6.0173
     6.5522   6.5541   7.0886   7.1302   8.4136   8.4179   9.0512   9.2138
     9.2380   9.2919   9.3408   9.3883   9.7410   9.7639   9.8528   9.8891
    10.1001  10.1224

          k = 0.3636-0.4970 0.0000 ( 34294 PWs)   bands (ev):

   -37.8285 -37.8284 -22.2884 -22.2883 -22.1096 -22.0923 -18.4146 -18.4146
   -18.3136 -18.3135 -17.9420 -17.9420 -14.2754 -14.2749 -14.1805 -14.1803
   -14.0307 -14.0302 -13.8276 -13.8262 -13.7286 -13.7041 -13.6963 -13.5237
   -13.3841 -13.3839 -13.3504  -8.3468  -8.3467  -8.1287  -8.0925  -8.0592
    -8.0591  -7.9347  -7.7758  -7.6997  -7.6994  -7.6308  -7.4666  -3.7641
    -3.7530  -3.2151  -3.1845  -2.8732  -2.4815  -2.4814  -2.1282  -2.1094
    -2.0322  -2.0322  -1.9133  -1.9079  -1.6401  -1.5951  -1.5944  -1.5368
    -1.5071  -0.9956  -0.8634  -0.8189  -0.6197  -0.5921  -0.5911  -0.5251
    -0.5215  -0.3904  -0.3366  -0.3154  -0.2993  -0.2765  -0.2111  -0.2099
    -0.0252   0.3306   0.3320   0.7076   0.8619   0.9023   1.1846   1.2409
     1.3945   1.4038   1.5212   1.6541   1.6695   1.7528   1.7636   1.7672
     1.8381   1.9246   1.9366   1.9741   1.9884   2.0244   2.0445   2.1478
     2.1480   2.1492   2.1568   2.2163   2.2278   2.2334   2.2881   2.3685
     2.5570   2.5669   2.7178   2.8000   2.8002   2.8843   2.9549   2.9550
     3.2616   3.2813   4.6558   4.7539   4.7852   4.8527   4.8539   5.8122
     6.3549   6.3553   6.9826   7.0564   8.5138   8.6006   8.8323   9.2144
     9.2978   9.4431   9.6545   9.6875   9.7327   9.7512   9.7771   9.7921
    10.0064  10.0222

          k =-0.4848 0.0000 0.0000 ( 34194 PWs)   bands (ev):

   -37.8422 -37.8422 -22.3877 -22.3876 -22.2075 -22.1907 -18.4363 -18.4362
   -18.1481 -18.1481 -17.8319 -17.8319 -14.6178 -14.6046 -14.4801 -14.3748
   -14.3745 -14.3446 -14.3104 -13.9542 -13.9206 -13.7521 -13.7517 -13.5674
   -13.4776 -13.4770 -13.2168  -7.8059  -7.7582  -7.7561  -7.4925  -7.3225
    -7.3224  -7.2355  -7.2354  -7.1685  -7.0883  -7.0398  -7.0160  -2.6649
    -2.6619  -2.5025  -2.4919  -1.7285  -1.7280  -1.6544  -1.3962  -1.3962
    -1.3883  -1.3812  -1.1406  -1.1397  -0.9397  -0.9397  -0.8487  -0.7888
    -0.7270  -0.7093  -0.5798  -0.5767  -0.5752  -0.5544  -0.5337  -0.4162
    -0.4158  -0.2158  -0.1750  -0.1599  -0.1597  -0.1322   0.0656   0.1272
     0.1314   0.1654   0.3736   0.4897   0.6893   0.7431   0.7502   0.7528
     0.7607   0.7609   0.7942   1.0041   1.0049   1.0241   1.0813   1.0913
     1.0920   1.0997   1.1119   1.1787   1.4129   1.5552   1.5956   1.6602
     1.6978   1.6978   1.7289   1.7384   1.8409   1.8612   1.9779   2.1358
     2.1379   2.1440   2.1951   2.1952   2.2645   2.3141   2.3146   2.5230
     2.5233   2.6816   2.8221   2.9002   2.9697   3.2276   3.2446   7.1755
     7.5563   7.5732   7.6737   7.6738   7.8303   7.8833   8.3162   8.3163
     8.9488   8.9621   9.3819   9.5071   9.5094   9.6223   9.6446   9.8098
     9.9270  10.0093

          k =-0.4848 0.1242 0.0000 ( 34188 PWs)   bands (ev):

   -37.8399 -37.8399 -22.3715 -22.3714 -22.1915 -22.1748 -18.4285 -18.4285
   -18.1158 -18.1158 -17.9294 -17.9294 -14.5664 -14.5554 -14.4126 -14.3027
   -14.2691 -14.2589 -14.2586 -13.9203 -13.8903 -13.8187 -13.8183 -13.5336
   -13.4593 -13.4588 -13.2231  -7.7992  -7.7542  -7.7532  -7.4916  -7.4577
    -7.4575  -7.4468  -7.4467  -7.3057  -7.2452  -7.2187  -7.2026  -2.8173
    -2.8124  -2.5673  -2.5562  -1.7475  -1.7470  -1.6800  -1.6240  -1.5954
    -1.3257  -1.3022  -1.2691  -1.2661  -1.2483  -1.2409  -1.1250  -1.1138
    -1.0927  -0.8907  -0.7154  -0.7152  -0.6035  -0.5649  -0.4667  -0.4653
    -0.3813  -0.3343  -0.3339  -0.1567   0.0320   0.1247   0.1527   0.3264
     0.3327   0.3646   0.3679   0.4574   0.4587   0.6786   0.7074   0.7212
     0.8398   0.9254   0.9448   0.9737   1.0170   1.0508   1.0519   1.2532
     1.2535   1.3839   1.3886   1.4068   1.4369   1.6375   1.6490   1.6703
     1.6836   1.7301   1.7442   1.7902   1.8526   1.8544   2.0556   2.0963
     2.1502   2.1532   2.1623   2.2412   2.2573   2.3001   2.3007   2.7407
     3.1697   3.1737   3.2857   3.2888   3.3399   3.5209   3.5832   6.9461
     7.3910   7.3939   7.7990   7.8114   7.9384   7.9959   8.0216   8.0253
     9.3452   9.3464   9.3923   9.4601   9.5950   9.6995   9.7104   9.7201
     9.9671  10.0145

          k =-0.4848 0.2485 0.0000 ( 34226 PWs)   bands (ev):

   -37.8345 -37.8344 -22.3320 -22.3320 -22.1523 -22.1359 -18.4097 -18.4097
   -18.1434 -18.1434 -18.0342 -18.0341 -14.4375 -14.4313 -14.2327 -14.1930
   -14.1520 -14.0066 -14.0065 -13.9760 -13.9757 -13.8380 -13.8168 -13.4484
   -13.4196 -13.4193 -13.2618  -7.9235  -7.9234  -7.8065  -7.7689  -7.7687
    -7.7228  -7.7225  -7.6821  -7.6674  -7.6276  -7.4636  -7.4632  -3.2699
    -3.2628  -2.8135  -2.7990  -1.9417  -1.9325  -1.9323  -1.8058  -1.8007
    -1.7463  -1.7265  -1.7043  -1.7014  -1.6268  -1.4913  -1.4910  -1.4255
    -1.3915  -0.9690  -0.9565  -0.9286  -0.5192  -0.5155  -0.4464  -0.3856
    -0.3288  -0.3281  -0.2738  -0.2255  -0.1024   0.0361   0.0435   0.0566
     0.0567   0.2398   0.2416   0.6420   0.7324   0.9115   0.9998   1.0224
     1.1030   1.1181   1.2528   1.2611   1.3416   1.5015   1.5069   1.5123
     1.5956   1.6551   1.6596   1.6801   1.7858   1.8067   1.8071   1.8146
     1.8523   1.8653   1.9349   1.9899   2.0401   2.0907   2.1489   2.2484
     2.2631   2.2728   2.2842   2.2909   2.3580   2.4187   2.4696   2.6681
     3.5103   3.5235   4.1031   4.1525   4.1593   4.2806   4.3057   6.3490
     6.8752   6.8775   7.3122   7.3200   8.2288   8.2861   8.7332   8.7338
     9.3014   9.4283   9.4995   9.5168   9.6355   9.7663   9.8038   9.9069
    10.0199  10.2221

          k =-0.4848 0.3727 0.0000 ( 34330 PWs)   bands (ev):

   -37.8290 -37.8289 -22.2919 -22.2918 -22.1124 -22.0962 -18.3910 -18.3909
   -18.3343 -18.3343 -17.9466 -17.9466 -14.3028 -14.3008 -14.1530 -14.1530
   -14.0631 -14.0614 -13.9304 -13.7623 -13.7622 -13.7592 -13.7468 -13.3901
   -13.3900 -13.3713 -13.3573  -8.3171  -8.3170  -8.1003  -8.0658  -8.0627
    -8.0626  -7.9401  -7.7536  -7.7179  -7.7147  -7.7049  -7.4620  -3.7421
    -3.7331  -3.1840  -3.1638  -2.6151  -2.2317  -2.2315  -2.1364  -2.1064
    -2.0494  -2.0493  -1.9277  -1.9274  -1.6384  -1.5987  -1.5981  -1.5317
    -1.4855  -1.0028  -0.7492  -0.7281  -0.6932  -0.6803  -0.5355  -0.4294
    -0.4284  -0.3684  -0.3511  -0.3113  -0.2319  -0.2251  -0.1638  -0.1636
    -0.0308   0.3511   0.3515   0.7073   0.8479   0.9712   1.2439   1.2882
     1.4337   1.4688   1.6040   1.6728   1.6914   1.7157   1.7603   1.7699
     1.7856   1.8688   1.8729   1.9142   1.9694   1.9742   2.0539   2.0719
     2.1196   2.1229   2.1595   2.1719   2.2226   2.2459   2.2819   2.3578
     2.3990   2.5444   2.5655   2.5956   2.7200   2.7206   2.7343   2.7920
     3.4310   3.4468   4.5477   4.8147   4.8208   4.8922   4.8954   5.7651
     6.3138   6.3148   6.9785   7.0256   8.5210   8.5619   8.9941   9.0453
     9.1007   9.3174   9.5734   9.6099   9.6897   9.7472   9.7927   9.9446
     9.9660  10.0206

          k =-0.4848-0.4970 0.0000 ( 34292 PWs)   bands (ev):

   -37.8267 -37.8267 -22.2750 -22.2749 -22.0957 -22.0796 -18.4082 -18.4081
   -18.3832 -18.3832 -17.9084 -17.9083 -14.2463 -14.2457 -14.2249 -14.2249
   -13.9946 -13.9942 -13.7526 -13.7311 -13.7099 -13.6696 -13.6695 -13.5007
   -13.3822 -13.3821 -13.3177  -8.4692  -8.4690  -8.2469  -8.2141  -8.1801
    -8.1800  -8.0677  -7.7992  -7.7543  -7.7151  -7.7085  -7.4602  -3.9321
    -3.9222  -3.3540  -3.3302  -2.8650  -2.4693  -2.4692  -2.2691  -2.2354
    -2.0773  -2.0773  -1.9515  -1.9498  -1.6368  -1.5869  -1.5864  -1.5681
    -1.5180  -1.0144  -0.7748  -0.7514  -0.6607  -0.6604  -0.6052  -0.4851
    -0.4800  -0.3926  -0.3910  -0.3462  -0.3265  -0.3099  -0.2472  -0.2470
     0.0093   0.3942   0.3946   0.7310   0.8924   0.9890   1.2887   1.3702
     1.6731   1.6748   1.7163   1.7460   1.7688   1.7884   1.7897   1.8256
     1.8273   1.8432   1.9958   1.9982   2.0414   2.0762   2.1037   2.1198
     2.2602   2.2957   2.2963   2.2973   2.2990   2.3166   2.3211   2.4655
     2.5483   2.5976   2.8199   2.8200   2.8617   2.9275   2.9277   2.9622
     3.2556   3.2765   4.6438   5.0298   5.0391   5.1195   5.1205   5.5209
     6.0643   6.0645   6.8603   6.9488   8.6649   8.6948   8.7764   8.9033
     9.0401   9.3475   9.4533   9.4890   9.6075   9.7556   9.7767   9.8286
     9.8476  10.2099

     the Fermi energy is     3.2257 ev

!    total energy              =   -1868.85098621 Ry
     Harris-Foulkes estimate   =   -1868.85098618 Ry
     estimated scf accuracy    <          9.7E-09 Ry

     The total energy is the sum of the following terms:

     one-electron contribution =  -32561.65055444 Ry
     hartree contribution      =   16437.27524598 Ry
     xc contribution           =    -642.44747491 Ry
     ewald contribution        =   14897.98007794 Ry
     smearing contrib. (-TS)   =      -0.00828078 Ry

     convergence has been achieved in  39 iterations

     negative rho (up, down):  9.055E-02 0.000E+00

     Forces acting on atoms (cartesian axes, Ry/au):

     atom    1 type  2   force =     0.00000000    0.00000000   -0.00001798
     atom    2 type  2   force =     0.00000000    0.00000000    0.00005997
     atom    3 type  2   force =     0.00000000    0.00000000   -0.00006414
     atom    4 type  2   force =     0.00000000    0.00000000    0.00002689
     atom    5 type  1   force =     0.00000000    0.00000000    0.00002546
     atom    6 type  1   force =     0.00000000    0.00000000   -0.00000834
     atom    7 type  4   force =     0.00000000    0.00000000   -0.00009317
     atom    8 type  4   force =     0.00000000    0.00000000    0.00011111
     atom    9 type  4   force =     0.00000000    0.00000000   -0.00012840
     atom   10 type  4   force =     0.00000000    0.00000000    0.00007159
     atom   11 type  4   force =     0.00000000    0.00000000   -0.00020087
     atom   12 type  4   force =     0.00000000    0.00000000   -0.00004370
     atom   13 type  4   force =     0.00000000    0.00000000    0.00023793
     atom   14 type  3   force =     0.00000000    0.00000000   -0.00008677
     atom   15 type  3   force =     0.00000000    0.00000000   -0.00000105
     atom   16 type  3   force =     0.00000000    0.00000000    0.00008811
     atom   17 type  3   force =     0.00000000    0.00000000   -0.00001937
     atom   18 type  3   force =     0.00000000    0.00000000    0.00000840
     atom   19 type  3   force =     0.00000000    0.00000000   -0.00000838
     atom   20 type  3   force =     0.00000000    0.00000000    0.00002149
     atom   21 type  3   force =     0.00000000    0.00000000   -0.00003562
     atom   22 type  3   force =     0.00000000    0.00000000   -0.00001981
     atom   23 type  3   force =     0.00000000    0.00000000    0.00002037
     atom   24 type  3   force =     0.00000000    0.00000000    0.00003884
     atom   25 type  3   force =     0.00000000    0.00000000   -0.00004662
     atom   26 type  3   force =     0.00000000    0.00000000   -0.00002060
     atom   27 type  3   force =     0.00000000    0.00000000    0.00000185
     atom   28 type  3   force =     0.00000000    0.00000000    0.00008280

     Total force =     0.000425     Total SCF correction =     0.000435
     SCF correction compared to forces is large: reduce conv_thr to get better values


     Computing stress (Cartesian axis) and pressure


     negative rho (up, down):  9.055E-02 0.000E+00
          total   stress  (Ry/bohr**3)                   (kbar)     P=        0.35
   0.00000308   0.00000000   0.00000000            0.45        0.00        0.00
   0.00000000   0.00000120   0.00000000            0.00        0.18        0.00
   0.00000000   0.00000000   0.00000283            0.00        0.00        0.42


     Writing output data file /n/holyscratch01/hoffman_lab/ruizhe/outdir/YBCO_z_2_ecut60_vac20_vcrelax.save/
 
     init_run     :     17.98s CPU     18.63s WALL (       2 calls)
     electrons    :  13118.32s CPU  13811.52s WALL (      41 calls)
     update_pot   :    160.47s CPU    161.30s WALL (      39 calls)
     forces       :    168.62s CPU    177.84s WALL (      41 calls)
     stress       :    807.15s CPU    831.29s WALL (      41 calls)

     Called by init_run:
     wfcinit      :     10.65s CPU     10.85s WALL (       2 calls)
     potinit      :      2.16s CPU      2.20s WALL (       2 calls)
     hinit0       :      3.69s CPU      3.79s WALL (       2 calls)

     Called by electrons:
     c_bands      :  10480.48s CPU  10770.22s WALL (     943 calls)
     sum_band     :   1807.86s CPU   2028.72s WALL (     943 calls)
     v_of_rho     :     64.09s CPU     64.88s WALL (     984 calls)
     newd         :    414.83s CPU    597.05s WALL (     984 calls)
     mix_rho      :    363.97s CPU    367.50s WALL (     943 calls)

     Called by c_bands:
     init_us_2    :     89.72s CPU     91.07s WALL (   49250 calls)
     cegterg      :   9884.03s CPU  10164.54s WALL (   23652 calls)

     Called by sum_band:
     sum_band:bec :      6.10s CPU      6.15s WALL (   23575 calls)
     addusdens    :    553.37s CPU    756.88s WALL (     943 calls)

     Called by *egterg:
     h_psi        :   4771.31s CPU   4957.60s WALL (   93582 calls)
     s_psi        :    569.37s CPU    574.94s WALL (   93582 calls)
     g_psi        :     19.22s CPU     19.40s WALL (   69880 calls)
     cdiaghg      :   2495.84s CPU   2508.54s WALL (   92480 calls)

     Called by h_psi:
     h_psi:calbec :    623.33s CPU    652.20s WALL (   93582 calls)
     vloc_psi     :   3539.52s CPU   3610.11s WALL (   93582 calls)
     add_vuspsi   :    581.19s CPU    628.37s WALL (   93582 calls)

     General routines
     calbec       :    974.02s CPU   1004.41s WALL (  122282 calls)
     fft          :     55.44s CPU     55.78s WALL (   13774 calls)
     ffts         :    196.45s CPU    198.14s WALL (  427127 calls)
     fftw         :   4009.74s CPU   4087.45s WALL (17736576 calls)
     interpolate  :      3.81s CPU      3.84s WALL (     984 calls)
 
     Parallel routines
     fft_scatt_xy :    541.82s CPU    551.56s WALL (18177477 calls)
     fft_scatt_yz :   2646.13s CPU   2696.22s WALL (18177477 calls)
 
     PWSCF        :      3h58m CPU      4h10m WALL

 
   This run was terminated on:  20:57:51  28Apr2021            

=------------------------------------------------------------------------------=
   JOB DONE.
=------------------------------------------------------------------------------=
[1619657871.992128] [holy7c02501:261738:0]          mpool.c:43   UCX  WARN  object 0x2e65200 was not returned to mpool ucp_requests
[1619657871.991921] [holy7c02601:135925:0]          mpool.c:43   UCX  WARN  object 0x30cd5c0 was not returned to mpool ucp_requests
[1619657871.991944] [holy7c02601:135925:0]          mpool.c:43   UCX  WARN  object 0x30cd940 was not returned to mpool ucp_requests
[1619657871.991653] [holy7c02501:261737:0]          mpool.c:43   UCX  WARN  object 0x32fb980 was not returned to mpool ucp_requests
[1619657871.992094] [holy7c02502:201855:0]          mpool.c:43   UCX  WARN  object 0x317d5c0 was not returned to mpool ucp_requests
[1619657871.992122] [holy7c02502:201855:0]          mpool.c:43   UCX  WARN  object 0x317d780 was not returned to mpool ucp_requests
[1619657871.992007] [holy7c02502:201856:0]          mpool.c:43   UCX  WARN  object 0x38dbdc0 was not returned to mpool ucp_requests
[1619657871.992303] [holy7c02502:201851:0]          mpool.c:43   UCX  WARN  object 0x4130440 was not returned to mpool ucp_requests
