
     Program PWSCF v.6.5 starts on 18May2021 at 21:15: 4 

     This program is part of the open-source Quantum ESPRESSO suite
     for quantum simulation of materials; please cite
         "P. Giannozzi et al., J. Phys.:Condens. Matter 21 395502 (2009);
         "P. Giannozzi et al., J. Phys.:Condens. Matter 29 465901 (2017);
          URL http://www.quantum-espresso.org", 
     in publications or presentations arising from this work. More details at
     http://www.quantum-espresso.org/quote

     Parallel version (MPI), running on    80 processors

     MPI processes distributed on     5 nodes
     R & G space division:  proc/nbgrp/npool/nimage =      80
     Reading input from YBCO_CuO_cleave_7.0_sep.pwi
Warning: card &IONS ignored
Warning: card     ION_DYNAMICS = 'BFGS' ignored
Warning: card / ignored
Warning: card &CELL ignored
Warning: card     CELL_DYNAMICS = 'BFGS' ignored
Warning: card     PRESS_CONV_THR = 5 ignored
Warning: card / ignored

     Current dimensions of program PWSCF are:
     Max number of different atomic species (ntypx) = 10
     Max number of k-points (npk) =  40000
     Max angular momentum in pseudopotentials (lmaxx) =  3
     Message from routine volume:
     axis vectors are left-handed

     Subspace diagonalization in iterative solution of the eigenvalue problem:
     one sub-group per band group will be used
     scalapack distributed-memory algorithm (size of sub-group:  8*  8 procs)

     Message from routine setup:
     using ibrav=0 with symmetry is DISCOURAGED, use correct ibrav instead
 
     Parallelization info
     --------------------
     sticks:   dense  smooth     PW     G-vecs:    dense   smooth      PW
     Min         300     100     25               163480    31462    4133
     Max         301     101     26               163519    31485    4174
     Sum       24079    8031   2067             13080645  2517777  332833
 


     bravais-lattice index     =            0
     lattice parameter (alat)  =      20.5021  a.u.
     unit-cell volume          =   40093.6191 (a.u.)^3
     number of atoms/cell      =          224
     number of atomic types    =            5
     number of electrons       =      1830.00
     number of Kohn-Sham states=         1098
     kinetic-energy cutoff     =      60.0000  Ry
     charge density cutoff     =     720.0000  Ry
     convergence threshold     =      1.0E-08
     mixing beta               =       0.5000
     number of iterations used =           10  local-TF  mixing
     Exchange-correlation= SLA PW PBE PBE
                           (   1   4   3   4   0   0   0)

     celldm(1)=  20.502120  celldm(2)=   0.000000  celldm(3)=   0.000000
     celldm(4)=   0.000000  celldm(5)=   0.000000  celldm(6)=   0.000000

     crystal axes: (cart. coord. in units of alat)
               a(1) = (  -0.716599   0.697485   0.000000 )  
               a(2) = (   0.716599   0.697485   0.000000 )  
               a(3) = (   0.000000   0.000000   4.654121 )  

     reciprocal axes: (cart. coord. in units 2 pi/alat)
               b(1) = ( -0.697740  0.716861  0.000000 )  
               b(2) = (  0.697740  0.716861  0.000000 )  
               b(3) = (  0.000000  0.000000  0.214863 )  


     PseudoPot. # 1 for Ba read from file:
     ./pseudo/Ba.pbe-nsp-van.UPF
     MD5 check sum: 2b9c31dd849566dd297d80989662b7a0
     Pseudo is Ultrasoft + core correction, Zval = 10.0
     Generated by new atomic code, or converted to UPF format
     Using radial grid of  907 points,  6 beta functions with: 
                l(1) =   0
                l(2) =   0
                l(3) =   1
                l(4) =   1
                l(5) =   2
                l(6) =   2
     Q(r) pseudized with  6 coefficients,  rinner =    1.200   1.200   1.200
                                                       1.200   1.200

     PseudoPot. # 2 for Ca read from file:
     ./pseudo/Ca.pbe-nsp-van.UPF
     MD5 check sum: 6471098428ff4fa451746d08035ff179
     Pseudo is Ultrasoft + core correction, Zval = 10.0
     Generated by new atomic code, or converted to UPF format
     Using radial grid of  845 points,  6 beta functions with: 
                l(1) =   0
                l(2) =   0
                l(3) =   1
                l(4) =   1
                l(5) =   2
                l(6) =   2
     Q(r) pseudized with  6 coefficients,  rinner =    1.200   1.200   1.200
                                                       1.200   1.200

     PseudoPot. # 3 for Cu read from file:
     ./pseudo/Cu.pbe-n-van_ak.UPF
     MD5 check sum: 34e3282627ffb533726feb647e090d62
     Pseudo is Ultrasoft + core correction, Zval = 11.0
     Generated by new atomic code, or converted to UPF format
     Using radial grid of  867 points,  6 beta functions with: 
                l(1) =   0
                l(2) =   0
                l(3) =   1
                l(4) =   1
                l(5) =   2
                l(6) =   2
     Q(r) pseudized with  8 coefficients,  rinner =    1.400   1.400   1.400
                                                       1.400   1.400

     PseudoPot. # 4 for O  read from file:
     ./pseudo/O.pbe-van_ak.UPF
     MD5 check sum: 783ce7fe4c79b6a4916957118fed0856
     Pseudo is Ultrasoft, Zval =  6.0
     Generated by new atomic code, or converted to UPF format
     Using radial grid of  737 points,  4 beta functions with: 
                l(1) =   0
                l(2) =   0
                l(3) =   1
                l(4) =   1
     Q(r) pseudized with  8 coefficients,  rinner =    0.800   0.800   0.800


     PseudoPot. # 5 for Y  read from file:
     ./pseudo/Y.pbe-nsp-van.UPF
     MD5 check sum: 4412fed3ab108fed87a1b7d6a69a4a38
     Pseudo is Ultrasoft + core correction, Zval = 11.0
     Generated by new atomic code, or converted to UPF format
     Using radial grid of  885 points,  6 beta functions with: 
                l(1) =   0
                l(2) =   0
                l(3) =   1
                l(4) =   1
                l(5) =   2
                l(6) =   2
     Q(r) pseudized with  6 coefficients,  rinner =    1.200   1.200   1.200
                                                       1.200   1.200

     atomic species   valence    mass     pseudopotential
        Ba            10.00   137.32700     Ba( 1.00)
        Ca            10.00    40.07800     Ca( 1.00)
        Cu            11.00    63.54600     Cu( 1.00)
        O              6.00    15.99900     O ( 1.00)
        Y             11.00    88.90584     Y ( 1.00)

      4 Sym. Ops. (no inversion) found ( 3 have fractional translation)



   Cartesian axes

     site n.     atom                  positions (alat units)
         1           O   tau(   1) = (   0.3545921   0.8718562  -0.0077406  )
         2           O   tau(   2) = (   0.0037072   0.8718562  -0.0077406  )
         3           Cu  tau(   3) = (  -0.0002581   0.0006065   0.0080789  )
         4           Cu  tau(   4) = (  -0.0002581   0.3481364   0.0080789  )
         5           Cu  tau(   5) = (   0.3585574   0.3481364   0.0080789  )
         6           Cu  tau(   6) = (  -0.3580421   0.6980913   0.0080789  )
         7           Cu  tau(   7) = (   0.3577988   0.6971373   0.0086255  )
         8           Cu  tau(   8) = (   0.0005005   1.0465760   0.0086255  )
         9           Cu  tau(   9) = (  -0.3588016   0.3490903   0.0086255  )
        10           Cu  tau(  10) = (   0.0005005   0.6971373   0.0086255  )
        11           O   tau(  11) = (  -0.0001733   0.5225410  -0.0089757  )
        12           O   tau(  12) = (   0.3584726   0.5225410  -0.0089757  )
        13           O   tau(  13) = (  -0.0001733   1.2211724  -0.0089757  )
        14           O   tau(  14) = (  -0.3581278   0.5236867  -0.0089757  )
        15           O   tau(  15) = (  -0.3544557   0.8718562  -0.0105593  )
        16           O   tau(  16) = (  -0.0038445   0.1743714  -0.0105593  )
        17           O   tau(  17) = (   0.3588818   0.3486599   0.1817056  )
        18           O   tau(  18) = (  -0.0005825   0.3486599   0.1817056  )
        19           O   tau(  19) = (  -0.0005825   0.0000830   0.1817056  )
        20           O   tau(  20) = (  -0.3577167   0.6975677   0.1817056  )
        21           O   tau(  21) = (   0.3584283   0.6967843   0.1825784  )
        22           O   tau(  22) = (  -0.3581712   0.3494443   0.1825784  )
        23           O   tau(  23) = (  -0.0001290   0.6967843   0.1825784  )
        24           O   tau(  24) = (  -0.0001290   1.0469291   0.1825784  )
        25           Ba  tau(  25) = (   0.1791506   0.8718562   0.1908537  )
        26           Ba  tau(  26) = (   0.5374498   0.5231143   0.1919901  )
        27           Ba  tau(  27) = (  -0.1791506   0.5231143   0.1919901  )
        28           Ba  tau(  28) = (  -0.1793773   0.8718562   0.1931958  )
        29           Ba  tau(  29) = (  -0.1789238   0.1743714   0.1931958  )
        30           Ba  tau(  30) = (   0.1791506   0.5222101   0.1929368  )
        31           Ba  tau(  31) = (  -0.5374498   0.5240176   0.1929368  )
        32           Ba  tau(  32) = (   0.1791506   0.1743714   0.1992469  )
        33           Cu  tau(  33) = (  -0.3583426   0.3488452   0.3777458  )
        34           Cu  tau(  34) = (   0.3582559   0.6973834   0.3777458  )
        35           Cu  tau(  35) = (   0.0000433   0.6973834   0.3777458  )
        36           Cu  tau(  36) = (   0.0000433   1.0463299   0.3777458  )
        37           Cu  tau(  37) = (  -0.3586541   0.6975060   0.3775126  )
        38           Cu  tau(  38) = (   0.3579444   0.3487217   0.3775126  )
        39           Cu  tau(  39) = (   0.0003549   0.0000212   0.3775126  )
        40           Cu  tau(  40) = (   0.0003549   0.3487217   0.3775126  )
        41           O   tau(  41) = (  -0.0047976   0.1743714   0.3996864  )
        42           O   tau(  42) = (  -0.3535026   0.8718562   0.3996864  )
        43           O   tau(  43) = (  -0.5374498   0.6924605   0.3956991  )
        44           O   tau(  44) = (   0.1791506   0.3537672   0.3956991  )
        45           O   tau(  45) = (   0.3586385   0.8718562   0.4046840  )
        46           O   tau(  46) = (  -0.0003392   0.8718562   0.4046840  )
        47           O   tau(  47) = (  -0.0004857   0.5230571   0.4066611  )
        48           O   tau(  48) = (   0.3587850   0.5230571   0.4066611  )
        49           O   tau(  49) = (  -0.3578135   0.5231714   0.4066611  )
        50           O   tau(  50) = (  -0.0004857   1.2206562   0.4066611  )
        51           O   tau(  51) = (   0.1791506   1.0461604   0.4028931  )
        52           O   tau(  52) = (   0.1791506   0.6975521   0.4028931  )
        53           O   tau(  53) = (  -0.1792261   0.6967170   0.4025963  )
        54           O   tau(  54) = (  -0.1790731   0.3495106   0.4025963  )
        55           O   tau(  55) = (  -0.1792261   1.0469964   0.4025963  )
        56           O   tau(  56) = (   0.5375263   0.6967170   0.4025963  )
        57           Ca  tau(  57) = (   0.1791506   0.1743714   0.5358617  )
        58           Y   tau(  58) = (  -0.1811525   0.8718562   0.5373908  )
        59           Y   tau(  59) = (  -0.1771467   0.1743714   0.5373908  )
        60           Y   tau(  60) = (   0.1791506   0.8718562   0.5379568  )
        61           Y   tau(  61) = (   0.5374498   0.5231143   0.5384490  )
        62           Y   tau(  62) = (  -0.1791506   0.5231143   0.5384490  )
        63           Y   tau(  63) = (   0.1791506   0.5216598   0.5383310  )
        64           Y   tau(  64) = (  -0.5374498   0.5245688   0.5383310  )
        65           O   tau(  65) = (  -0.1787754   0.3493171   0.6712314  )
        66           O   tau(  66) = (   0.5378231   0.6969115   0.6712314  )
        67           O   tau(  67) = (  -0.1795239   1.0468019   0.6712314  )
        68           O   tau(  68) = (  -0.1795239   0.6969115   0.6712314  )
        69           O   tau(  69) = (   0.1791506   0.6972691   0.6718637  )
        70           O   tau(  70) = (   0.1791506   1.0464433   0.6718637  )
        71           O   tau(  71) = (  -0.0003880   1.2203935   0.6667490  )
        72           O   tau(  72) = (  -0.0003880   0.5233198   0.6667490  )
        73           O   tau(  73) = (   0.3586882   0.5233198   0.6667490  )
        74           O   tau(  74) = (  -0.3579112   0.5229087   0.6667490  )
        75           O   tau(  75) = (   0.3585850   0.8718562   0.6641940  )
        76           O   tau(  76) = (  -0.0002857   0.8718562   0.6641940  )
        77           O   tau(  77) = (   0.1791506   0.3535118   0.6756778  )
        78           O   tau(  78) = (  -0.5374498   0.6927158   0.6756778  )
        79           O   tau(  79) = (  -0.0043044   0.1743714   0.6710848  )
        80           O   tau(  80) = (  -0.3539948   0.8718562   0.6710848  )
        81           Cu  tau(  81) = (  -0.3586514   0.6973604   0.6974442  )
        82           Cu  tau(  82) = (   0.3579472   0.3488682   0.6974442  )
        83           Cu  tau(  83) = (   0.0003521  -0.0001254   0.6974442  )
        84           Cu  tau(  84) = (   0.0003521   0.3488682   0.6974442  )
        85           Cu  tau(  85) = (   0.0000083   1.0459401   0.6989015  )
        86           Cu  tau(  86) = (  -0.3583076   0.3484544   0.6989015  )
        87           Cu  tau(  87) = (   0.3582910   0.6977733   0.6989015  )
        88           Cu  tau(  88) = (   0.0000083   0.6977733   0.6989015  )
        89           Ba  tau(  89) = (   0.1791506   0.1743714   0.8671591  )
        90           Ba  tau(  90) = (  -0.5374498   0.5239908   0.8827639  )
        91           Ba  tau(  91) = (   0.1791506   0.5222377   0.8827639  )
        92           Ba  tau(  92) = (  -0.1785616   0.1743714   0.8784262  )
        93           Ba  tau(  93) = (  -0.1797386   0.8718562   0.8784262  )
        94           Ba  tau(  94) = (  -0.1791506   0.5231143   0.8841483  )
        95           Ba  tau(  95) = (   0.5374498   0.5231143   0.8841483  )
        96           Ba  tau(  96) = (   0.1791506   0.8718562   0.8844635  )
        97           O   tau(  97) = (   0.3607888   0.6975991   0.9037874  )
        98           O   tau(  98) = (  -0.3558097   0.3486286   0.9037874  )
        99           O   tau(  99) = (  -0.0024896   0.6975991   0.9037874  )
       100           O   tau( 100) = (  -0.0024896   1.0461143   0.9037874  )
       101           O   tau( 101) = (   0.3544087   0.3463252   0.9043663  )
       102           O   tau( 102) = (   0.0038906   0.3463252   0.9043663  )
       103           O   tau( 103) = (   0.0038906   0.0024177   0.9043663  )
       104           O   tau( 104) = (  -0.3621908   0.6999025   0.9043663  )
       105           O   tau( 105) = (   0.3314246   0.8718562   1.0783672  )
       106           O   tau( 106) = (   0.0268747   0.8718562   1.0783672  )
       107           Cu  tau( 107) = (  -0.0027882   0.0031818   1.0782086  )
       108           Cu  tau( 108) = (  -0.0027882   0.3455601   1.0782086  )
       109           Cu  tau( 109) = (   0.3610875   0.3455601   1.0782086  )
       110           Cu  tau( 110) = (  -0.3555111   0.7006675   1.0782086  )
       111           Cu  tau( 111) = (   0.3579684   0.6983604   1.0781976  )
       112           Cu  tau( 112) = (   0.0003318   1.0453529   1.0781976  )
       113           Cu  tau( 113) = (  -0.3586320   0.3478672   1.0781976  )
       114           Cu  tau( 114) = (   0.0003318   0.6983604   1.0781976  )
       115           O   tau( 115) = (  -0.0055718   0.5218801   1.0778989  )
       116           O   tau( 116) = (   0.3638720   0.5218801   1.0778989  )
       117           O   tau( 117) = (  -0.0055718   1.2218333   1.0778989  )
       118           O   tau( 118) = (  -0.3527284   0.5243475   1.0778989  )
       119           O   tau( 119) = (  -0.3170374   0.8718562   1.0783192  )
       120           O   tau( 120) = (  -0.0412618   0.1743714   1.0783192  )
       121           O   tau( 121) = (   0.3544105   0.3465040   1.8972419  )
       122           O   tau( 122) = (   0.0038887   0.3465040   1.8972419  )
       123           O   tau( 123) = (   0.0038887   0.0022389   1.8972419  )
       124           O   tau( 124) = (  -0.3621880   0.6997236   1.8972419  )
       125           O   tau( 125) = (   0.3607981   0.6973991   1.8978032  )
       126           O   tau( 126) = (  -0.3558014   0.3488295   1.8978032  )
       127           O   tau( 127) = (  -0.0024988   0.6973991   1.8978032  )
       128           O   tau( 128) = (  -0.0024988   1.0463143   1.8978032  )
       129           Ba  tau( 129) = (   0.1791506   0.8718562   1.9171584  )
       130           Ba  tau( 130) = (   0.5374498   0.5231143   1.9174820  )
       131           Ba  tau( 131) = (  -0.1791506   0.5231143   1.9174820  )
       132           Ba  tau( 132) = (  -0.1796732   0.8718562   1.9231819  )
       133           Ba  tau( 133) = (  -0.1786270   0.1743714   1.9231819  )
       134           Ba  tau( 134) = (   0.1791506   0.5222571   1.9189097  )
       135           Ba  tau( 135) = (  -0.5374498   0.5239706   1.9189097  )
       136           Ba  tau( 136) = (   0.1791506   0.1743714   1.9344324  )
       137           Cu  tau( 137) = (  -0.3583094   0.3484682   2.1027288  )
       138           Cu  tau( 138) = (   0.3582901   0.6977604   2.1027288  )
       139           Cu  tau( 139) = (   0.0000101   0.6977604   2.1027288  )
       140           Cu  tau( 140) = (   0.0000101   1.0459530   2.1027288  )
       141           Cu  tau( 141) = (  -0.3586477   0.6973567   2.1041492  )
       142           Cu  tau( 142) = (   0.3579518   0.3488710   2.1041492  )
       143           Cu  tau( 143) = (   0.0003484  -0.0001281   2.1041492  )
       144           Cu  tau( 144) = (   0.0003484   0.3488710   2.1041492  )
       145           O   tau( 145) = (  -0.0043173   0.1743714   2.1304542  )
       146           O   tau( 146) = (  -0.3539819   0.8718562   2.1304542  )
       147           O   tau( 147) = (  -0.5374498   0.6927305   2.1259230  )
       148           O   tau( 148) = (   0.1791506   0.3534971   2.1259230  )
       149           O   tau( 149) = (   0.3585795   0.8718562   2.1373644  )
       150           O   tau( 150) = (  -0.0002802   0.8718562   2.1373644  )
       151           O   tau( 151) = (  -0.0003853   0.5233134   2.1348683  )
       152           O   tau( 152) = (   0.3586855   0.5233134   2.1348683  )
       153           O   tau( 153) = (  -0.3579140   0.5229152   2.1348683  )
       154           O   tau( 154) = (  -0.0003853   1.2204000   2.1348683  )
       155           O   tau( 155) = (   0.1791506   1.0464553   2.1297417  )
       156           O   tau( 156) = (   0.1791506   0.6972571   2.1297417  )
       157           O   tau( 157) = (  -0.1795146   0.6969069   2.1303703  )
       158           O   tau( 158) = (  -0.1787846   0.3493208   2.1303703  )
       159           O   tau( 159) = (  -0.1795146   1.0468065   2.1303703  )
       160           O   tau( 160) = (   0.5378139   0.6969069   2.1303703  )
       161           Ca  tau( 161) = (   0.1791506   0.1743714   2.2657326  )
       162           Y   tau( 162) = (  -0.1811544   0.8718562   2.2642016  )
       163           Y   tau( 163) = (  -0.1771449   0.1743714   2.2642016  )
       164           Y   tau( 164) = (   0.1791506   0.8718562   2.2636385  )
       165           Y   tau( 165) = (   0.5374498   0.5231143   2.2631693  )
       166           Y   tau( 166) = (  -0.1791506   0.5231143   2.2631693  )
       167           Y   tau( 167) = (   0.1791506   0.5216524   2.2632901  )
       168           Y   tau( 168) = (  -0.5374498   0.5245761   2.2632901  )
       169           O   tau( 169) = (  -0.1790685   0.3495088   2.3990044  )
       170           O   tau( 170) = (   0.5375300   0.6967198   2.3990044  )
       171           O   tau( 171) = (  -0.1792307   1.0469936   2.3990044  )
       172           O   tau( 172) = (  -0.1792307   0.6967198   2.3990044  )
       173           O   tau( 173) = (   0.1791506   0.6975604   2.3987077  )
       174           O   tau( 174) = (   0.1791506   1.0461521   2.3987077  )
       175           O   tau( 175) = (  -0.0004848   1.2206534   2.3949433  )
       176           O   tau( 176) = (  -0.0004848   0.5230599   2.3949433  )
       177           O   tau( 177) = (   0.3587841   0.5230599   2.3949433  )
       178           O   tau( 178) = (  -0.3578144   0.5231687   2.3949433  )
       179           O   tau( 179) = (   0.3586468   0.8718562   2.3968817  )
       180           O   tau( 180) = (  -0.0003466   0.8718562   2.3968817  )
       181           O   tau( 181) = (   0.1791506   0.3537690   2.4059045  )
       182           O   tau( 182) = (  -0.5374498   0.6924586   2.4059045  )
       183           O   tau( 183) = (  -0.0047874   0.1743714   2.4018692  )
       184           O   tau( 184) = (  -0.3535118   0.8718562   2.4018692  )
       185           Cu  tau( 185) = (  -0.3586560   0.6975087   2.4240753  )
       186           Cu  tau( 186) = (   0.3579435   0.3487198   2.4240753  )
       187           Cu  tau( 187) = (   0.0003567   0.0000230   2.4240753  )
       188           Cu  tau( 188) = (   0.0003567   0.3487198   2.4240753  )
       189           Cu  tau( 189) = (   0.0000415   1.0463263   2.4238430  )
       190           Cu  tau( 190) = (  -0.3583407   0.3488406   2.4238430  )
       191           Cu  tau( 191) = (   0.3582587   0.6973871   2.4238430  )
       192           Cu  tau( 192) = (   0.0000415   0.6973871   2.4238430  )
       193           Ba  tau( 193) = (   0.1791506   0.1743714   2.6023484  )
       194           Ba  tau( 194) = (  -0.5374498   0.5240166   2.6086576  )
       195           Ba  tau( 195) = (   0.1791506   0.5222119   2.6086576  )
       196           Ba  tau( 196) = (  -0.1789220   0.1743714   2.6084013  )
       197           Ba  tau( 197) = (  -0.1793773   0.8718562   2.6084013  )
       198           Ba  tau( 198) = (  -0.1791506   0.5231143   2.6096115  )
       199           Ba  tau( 199) = (   0.5374498   0.5231143   2.6096115  )
       200           Ba  tau( 200) = (   0.1791506   0.8718562   2.6107397  )
       201           O   tau( 201) = (   0.3584302   0.6967870   2.6190094  )
       202           O   tau( 202) = (  -0.3581684   0.3494406   2.6190094  )
       203           O   tau( 203) = (  -0.0001309   0.6967870   2.6190094  )
       204           O   tau( 204) = (  -0.0001309   1.0469263   2.6190094  )
       205           O   tau( 205) = (   0.3588800   0.3486562   2.6198823  )
       206           O   tau( 206) = (  -0.0005807   0.3486562   2.6198823  )
       207           O   tau( 207) = (  -0.0005807   0.0000866   2.6198823  )
       208           O   tau( 208) = (  -0.3577186   0.6975714   2.6198823  )
       209           O   tau( 209) = (   0.3545921   0.8718562   2.8093128  )
       210           O   tau( 210) = (   0.0037081   0.8718562   2.8093128  )
       211           Cu  tau( 211) = (  -0.0002516   0.0006074   2.7935090  )
       212           Cu  tau( 212) = (  -0.0002516   0.3481345   2.7935090  )
       213           Cu  tau( 213) = (   0.3585509   0.3481345   2.7935090  )
       214           Cu  tau( 214) = (  -0.3580476   0.6980931   2.7935090  )
       215           Cu  tau( 215) = (   0.3577960   0.6971373   2.7929624  )
       216           Cu  tau( 216) = (   0.0005033   1.0465760   2.7929624  )
       217           Cu  tau( 217) = (  -0.3588035   0.3490903   2.7929624  )
       218           Cu  tau( 218) = (   0.0005033   0.6971373   2.7929624  )
       219           O   tau( 219) = (  -0.0001724   0.5225410   2.8105516  )
       220           O   tau( 220) = (   0.3584716   0.5225410   2.8105516  )
       221           O   tau( 221) = (  -0.0001724   1.2211724   2.8105516  )
       222           O   tau( 222) = (  -0.3581288   0.5236867   2.8105516  )
       223           O   tau( 223) = (  -0.3544640   0.8718562   2.8121416  )
       224           O   tau( 224) = (  -0.0038353   0.1743714   2.8121416  )

     number of k points=     4  Gaussian smearing, width (Ry)=  0.0100
                       cart. coord. in units 2pi/alat
        k(    1) = (   0.0000000   0.0000000   0.0000000), wk =   0.2222222
        k(    2) = (   0.2325801   0.2389537   0.0000000), wk =   0.8888889
        k(    3) = (   0.0000000   0.4779073   0.0000000), wk =   0.4444444
        k(    4) = (  -0.4651601  -0.0000000   0.0000000), wk =   0.4444444

     Dense  grid: 13080645 G-vectors     FFT dimensions: ( 180, 180, 864)

     Smooth grid:  2517777 G-vectors     FFT dimensions: ( 108, 108, 480)

     Estimated max dynamical RAM per process >       2.73 GB

     Estimated total dynamical RAM >     218.26 GB

     Initial potential from superposition of free atoms

     starting charge 1828.78422, renormalised to 1830.00000

     negative rho (up, down):  6.290E-01 0.000E+00
     Starting wfcs are 1602 randomized atomic wfcs

     total cpu time spent up to now is       65.0 secs

     Self-consistent Calculation

     iteration #  1     ecut=    60.00 Ry     beta= 0.50
     Davidson diagonalization with overlap
     ethr =  1.00E-02,  avg # of iterations =  2.0

     negative rho (up, down):  5.990E-01 0.000E+00

     total cpu time spent up to now is      177.5 secs

     total energy              =  -14912.77741201 Ry
     Harris-Foulkes estimate   =  -14943.08056258 Ry
     estimated scf accuracy    <     112.31116122 Ry

     iteration #  2     ecut=    60.00 Ry     beta= 0.50
     Davidson diagonalization with overlap
     ethr =  6.14E-03,  avg # of iterations =  2.0

     negative rho (up, down):  5.993E-01 0.000E+00

     total cpu time spent up to now is      291.0 secs

     total energy              =  -14922.44901180 Ry
     Harris-Foulkes estimate   =  -14926.52736544 Ry
     estimated scf accuracy    <      25.75387249 Ry

     iteration #  3     ecut=    60.00 Ry     beta= 0.50
     Davidson diagonalization with overlap
     ethr =  1.41E-03,  avg # of iterations =  2.0

     negative rho (up, down):  6.020E-01 0.000E+00

     total cpu time spent up to now is      402.7 secs

     total energy              =  -14924.16822485 Ry
     Harris-Foulkes estimate   =  -14925.59746464 Ry
     estimated scf accuracy    <      45.53325077 Ry

     iteration #  4     ecut=    60.00 Ry     beta= 0.50
     Davidson diagonalization with overlap
     ethr =  1.41E-03,  avg # of iterations =  1.0

     negative rho (up, down):  6.055E-01 0.000E+00

     total cpu time spent up to now is      509.7 secs

     total energy              =  -14924.42129282 Ry
     Harris-Foulkes estimate   =  -14924.81396965 Ry
     estimated scf accuracy    <      13.95128739 Ry

     iteration #  5     ecut=    60.00 Ry     beta= 0.50
     Davidson diagonalization with overlap
     ethr =  7.62E-04,  avg # of iterations =  1.0

     negative rho (up, down):  6.148E-01 0.000E+00

     total cpu time spent up to now is      620.0 secs

     total energy              =  -14924.13773318 Ry
     Harris-Foulkes estimate   =  -14924.65059889 Ry
     estimated scf accuracy    <      10.43314954 Ry

     iteration #  6     ecut=    60.00 Ry     beta= 0.50
     Davidson diagonalization with overlap
     ethr =  5.70E-04,  avg # of iterations =  1.0

     negative rho (up, down):  6.169E-01 0.000E+00

     total cpu time spent up to now is      724.3 secs

     total energy              =  -14924.22897926 Ry
     Harris-Foulkes estimate   =  -14924.31903149 Ry
     estimated scf accuracy    <       5.44203075 Ry

     iteration #  7     ecut=    60.00 Ry     beta= 0.50
     Davidson diagonalization with overlap
     ethr =  2.97E-04,  avg # of iterations =  3.2

     negative rho (up, down):  6.252E-01 0.000E+00

     total cpu time spent up to now is      837.3 secs

     total energy              =  -14924.09925023 Ry
     Harris-Foulkes estimate   =  -14924.27583138 Ry
     estimated scf accuracy    <       3.16547495 Ry

     iteration #  8     ecut=    60.00 Ry     beta= 0.50
     Davidson diagonalization with overlap
     ethr =  1.73E-04,  avg # of iterations =  9.5

     negative rho (up, down):  6.285E-01 0.000E+00

     total cpu time spent up to now is      991.1 secs

     total energy              =  -14924.04541491 Ry
     Harris-Foulkes estimate   =  -14924.17981085 Ry
     estimated scf accuracy    <       5.34327083 Ry

     iteration #  9     ecut=    60.00 Ry     beta= 0.50
     Davidson diagonalization with overlap
     ethr =  1.73E-04,  avg # of iterations =  1.0

     negative rho (up, down):  6.323E-01 0.000E+00

     total cpu time spent up to now is     1094.4 secs

     total energy              =  -14923.98866747 Ry
     Harris-Foulkes estimate   =  -14924.10989233 Ry
     estimated scf accuracy    <       2.71184796 Ry

     iteration # 10     ecut=    60.00 Ry     beta= 0.50
     Davidson diagonalization with overlap
     ethr =  1.48E-04,  avg # of iterations =  1.2

     negative rho (up, down):  6.336E-01 0.000E+00

     total cpu time spent up to now is     1197.9 secs

     total energy              =  -14923.94762605 Ry
     Harris-Foulkes estimate   =  -14924.01696665 Ry
     estimated scf accuracy    <       1.43257418 Ry

     iteration # 11     ecut=    60.00 Ry     beta= 0.50
     Davidson diagonalization with overlap
     c_bands:  2 eigenvalues not converged
     ethr =  7.83E-05,  avg # of iterations = 11.0

     negative rho (up, down):  6.320E-01 0.000E+00

     total cpu time spent up to now is     1343.6 secs

     total energy              =  -14923.89922999 Ry
     Harris-Foulkes estimate   =  -14923.96007671 Ry
     estimated scf accuracy    <       0.81805453 Ry

     iteration # 12     ecut=    60.00 Ry     beta= 0.50
     Davidson diagonalization with overlap
     ethr =  4.47E-05,  avg # of iterations =  7.8

     negative rho (up, down):  6.345E-01 0.000E+00

     total cpu time spent up to now is     1481.9 secs

     total energy              =  -14923.88013637 Ry
     Harris-Foulkes estimate   =  -14923.91209581 Ry
     estimated scf accuracy    <       0.95139067 Ry

     iteration # 13     ecut=    60.00 Ry     beta= 0.50
     Davidson diagonalization with overlap
     ethr =  4.47E-05,  avg # of iterations =  3.8

     negative rho (up, down):  6.310E-01 0.000E+00

     total cpu time spent up to now is     1594.9 secs

     total energy              =  -14923.88280803 Ry
     Harris-Foulkes estimate   =  -14923.88886688 Ry
     estimated scf accuracy    <       0.19120016 Ry

     iteration # 14     ecut=    60.00 Ry     beta= 0.50
     Davidson diagonalization with overlap
     ethr =  1.04E-05,  avg # of iterations = 14.0

     negative rho (up, down):  6.355E-01 0.000E+00

     total cpu time spent up to now is     1758.7 secs

     total energy              =  -14923.88032230 Ry
     Harris-Foulkes estimate   =  -14923.88628912 Ry
     estimated scf accuracy    <       0.09709499 Ry

     iteration # 15     ecut=    60.00 Ry     beta= 0.50
     Davidson diagonalization with overlap
     ethr =  5.31E-06,  avg # of iterations = 11.0

     negative rho (up, down):  6.275E-01 0.000E+00

     total cpu time spent up to now is     1903.3 secs

     total energy              =  -14923.88086776 Ry
     Harris-Foulkes estimate   =  -14923.88258139 Ry
     estimated scf accuracy    <       0.08169274 Ry

     iteration # 16     ecut=    60.00 Ry     beta= 0.50
     Davidson diagonalization with overlap
     ethr =  4.46E-06,  avg # of iterations =  2.0

     negative rho (up, down):  6.252E-01 0.000E+00

     total cpu time spent up to now is     2010.3 secs

     total energy              =  -14923.88063765 Ry
     Harris-Foulkes estimate   =  -14923.88180305 Ry
     estimated scf accuracy    <       0.08724122 Ry

     iteration # 17     ecut=    60.00 Ry     beta= 0.50
     Davidson diagonalization with overlap
     c_bands:  1 eigenvalues not converged
     c_bands:  1 eigenvalues not converged
     ethr =  4.46E-06,  avg # of iterations = 12.8

     negative rho (up, down):  6.368E-01 0.000E+00

     total cpu time spent up to now is     2157.3 secs

     total energy              =  -14923.87686961 Ry
     Harris-Foulkes estimate   =  -14923.88128606 Ry
     estimated scf accuracy    <       0.10864020 Ry

     iteration # 18     ecut=    60.00 Ry     beta= 0.50
     Davidson diagonalization with overlap
     ethr =  4.46E-06,  avg # of iterations = 12.5

     negative rho (up, down):  6.585E-01 0.000E+00

     total cpu time spent up to now is     2318.7 secs

     total energy              =  -14923.87230781 Ry
     Harris-Foulkes estimate   =  -14923.87722355 Ry
     estimated scf accuracy    <       0.10650320 Ry

     iteration # 19     ecut=    60.00 Ry     beta= 0.50
     Davidson diagonalization with overlap
     c_bands:  1 eigenvalues not converged
     ethr =  4.46E-06,  avg # of iterations = 15.0

     negative rho (up, down):  6.564E-01 0.000E+00

     total cpu time spent up to now is     2491.6 secs

     total energy              =  -14923.86878051 Ry
     Harris-Foulkes estimate   =  -14923.87296963 Ry
     estimated scf accuracy    <       0.09830150 Ry

     iteration # 20     ecut=    60.00 Ry     beta= 0.50
     Davidson diagonalization with overlap
     ethr =  4.46E-06,  avg # of iterations = 11.2

     negative rho (up, down):  6.298E-01 0.000E+00

     total cpu time spent up to now is     2634.6 secs

     total energy              =  -14923.86409798 Ry
     Harris-Foulkes estimate   =  -14923.86913499 Ry
     estimated scf accuracy    <       0.10529380 Ry

     iteration # 21     ecut=    60.00 Ry     beta= 0.50
     Davidson diagonalization with overlap
     ethr =  4.46E-06,  avg # of iterations =  7.8

     negative rho (up, down):  6.305E-01 0.000E+00

     total cpu time spent up to now is     2768.6 secs

     total energy              =  -14923.86068633 Ry
     Harris-Foulkes estimate   =  -14923.86464764 Ry
     estimated scf accuracy    <       0.07039733 Ry

     iteration # 22     ecut=    60.00 Ry     beta= 0.50
     Davidson diagonalization with overlap
     ethr =  3.85E-06,  avg # of iterations =  8.2

     negative rho (up, down):  6.320E-01 0.000E+00

     total cpu time spent up to now is     2902.9 secs

     total energy              =  -14923.85834139 Ry
     Harris-Foulkes estimate   =  -14923.86109346 Ry
     estimated scf accuracy    <       0.04371403 Ry

     iteration # 23     ecut=    60.00 Ry     beta= 0.50
     Davidson diagonalization with overlap
     ethr =  2.39E-06,  avg # of iterations = 12.8

     negative rho (up, down):  6.322E-01 0.000E+00

     total cpu time spent up to now is     3057.7 secs

     total energy              =  -14923.85814018 Ry
     Harris-Foulkes estimate   =  -14923.85869265 Ry
     estimated scf accuracy    <       0.02403958 Ry

     iteration # 24     ecut=    60.00 Ry     beta= 0.50
     Davidson diagonalization with overlap
     ethr =  1.31E-06,  avg # of iterations =  4.2

     negative rho (up, down):  6.402E-01 0.000E+00

     total cpu time spent up to now is     3173.8 secs

     total energy              =  -14923.85917649 Ry
     Harris-Foulkes estimate   =  -14923.85842522 Ry
     estimated scf accuracy    <       0.01704582 Ry

     iteration # 25     ecut=    60.00 Ry     beta= 0.50
     Davidson diagonalization with overlap
     c_bands:  2 eigenvalues not converged
     ethr =  9.31E-07,  avg # of iterations = 16.0

     negative rho (up, down):  6.512E-01 0.000E+00

     total cpu time spent up to now is     3373.5 secs

     total energy              =  -14923.85994469 Ry
     Harris-Foulkes estimate   =  -14923.86000398 Ry
     estimated scf accuracy    <       0.01535467 Ry

     iteration # 26     ecut=    60.00 Ry     beta= 0.50
     Davidson diagonalization with overlap
     c_bands:  1 eigenvalues not converged
     c_bands:  1 eigenvalues not converged
     ethr =  8.39E-07,  avg # of iterations = 15.8

     negative rho (up, down):  6.587E-01 0.000E+00

     total cpu time spent up to now is     3542.2 secs

     total energy              =  -14923.86041359 Ry
     Harris-Foulkes estimate   =  -14923.86019198 Ry
     estimated scf accuracy    <       0.00646851 Ry

     iteration # 27     ecut=    60.00 Ry     beta= 0.50
     Davidson diagonalization with overlap
     ethr =  3.53E-07,  avg # of iterations =  8.0

     negative rho (up, down):  6.616E-01 0.000E+00

     total cpu time spent up to now is     3674.6 secs

     total energy              =  -14923.86056124 Ry
     Harris-Foulkes estimate   =  -14923.86047417 Ry
     estimated scf accuracy    <       0.00529829 Ry

     iteration # 28     ecut=    60.00 Ry     beta= 0.50
     Davidson diagonalization with overlap
     ethr =  2.90E-07,  avg # of iterations =  4.0

     negative rho (up, down):  6.497E-01 0.000E+00

     total cpu time spent up to now is     3790.1 secs

     total energy              =  -14923.86014215 Ry
     Harris-Foulkes estimate   =  -14923.86071690 Ry
     estimated scf accuracy    <       0.00435064 Ry

     iteration # 29     ecut=    60.00 Ry     beta= 0.50
     Davidson diagonalization with overlap
     c_bands:  3 eigenvalues not converged
     c_bands:  1 eigenvalues not converged
     ethr =  2.38E-07,  avg # of iterations = 14.5

     negative rho (up, down):  6.526E-01 0.000E+00

     total cpu time spent up to now is     3953.8 secs

     total energy              =  -14923.86033657 Ry
     Harris-Foulkes estimate   =  -14923.86031207 Ry
     estimated scf accuracy    <       0.00399537 Ry

     iteration # 30     ecut=    60.00 Ry     beta= 0.50
     Davidson diagonalization with overlap
     ethr =  2.18E-07,  avg # of iterations =  9.5

     negative rho (up, down):  6.530E-01 0.000E+00

     total cpu time spent up to now is     4092.0 secs

     total energy              =  -14923.86030397 Ry
     Harris-Foulkes estimate   =  -14923.86039016 Ry
     estimated scf accuracy    <       0.00244863 Ry

     iteration # 31     ecut=    60.00 Ry     beta= 0.50
     Davidson diagonalization with overlap
     ethr =  1.34E-07,  avg # of iterations =  9.0

     negative rho (up, down):  6.527E-01 0.000E+00

     total cpu time spent up to now is     4227.4 secs

     total energy              =  -14923.86028032 Ry
     Harris-Foulkes estimate   =  -14923.86032688 Ry
     estimated scf accuracy    <       0.00062691 Ry

     iteration # 32     ecut=    60.00 Ry     beta= 0.50
     Davidson diagonalization with overlap
     c_bands:  1 eigenvalues not converged
     c_bands:  1 eigenvalues not converged
     ethr =  3.43E-08,  avg # of iterations = 12.2

     negative rho (up, down):  6.486E-01 0.000E+00

     total cpu time spent up to now is     4374.9 secs

     total energy              =  -14923.86019561 Ry
     Harris-Foulkes estimate   =  -14923.86028620 Ry
     estimated scf accuracy    <       0.00032756 Ry

     iteration # 33     ecut=    60.00 Ry     beta= 0.50
     Davidson diagonalization with overlap
     c_bands:  1 eigenvalues not converged
     ethr =  1.79E-08,  avg # of iterations = 13.2

     negative rho (up, down):  6.403E-01 0.000E+00

     total cpu time spent up to now is     4530.7 secs

     total energy              =  -14923.86009531 Ry
     Harris-Foulkes estimate   =  -14923.86020148 Ry
     estimated scf accuracy    <       0.00015665 Ry

     iteration # 34     ecut=    60.00 Ry     beta= 0.50
     Davidson diagonalization with overlap
     c_bands:  2 eigenvalues not converged
     ethr =  8.56E-09,  avg # of iterations = 12.0

     negative rho (up, down):  6.373E-01 0.000E+00

     total cpu time spent up to now is     4681.1 secs

     total energy              =  -14923.86009156 Ry
     Harris-Foulkes estimate   =  -14923.86010421 Ry
     estimated scf accuracy    <       0.00004771 Ry

     iteration # 35     ecut=    60.00 Ry     beta= 0.50
     Davidson diagonalization with overlap
     c_bands:  1 eigenvalues not converged
     ethr =  2.61E-09,  avg # of iterations =  6.5

     negative rho (up, down):  6.359E-01 0.000E+00

     total cpu time spent up to now is     4805.8 secs

     total energy              =  -14923.86008982 Ry
     Harris-Foulkes estimate   =  -14923.86009409 Ry
     estimated scf accuracy    <       0.00002705 Ry

     iteration # 36     ecut=    60.00 Ry     beta= 0.50
     Davidson diagonalization with overlap
     c_bands:  2 eigenvalues not converged
     ethr =  1.48E-09,  avg # of iterations =  6.5

     negative rho (up, down):  6.358E-01 0.000E+00

     total cpu time spent up to now is     4931.0 secs

     total energy              =  -14923.86009023 Ry
     Harris-Foulkes estimate   =  -14923.86009068 Ry
     estimated scf accuracy    <       0.00001703 Ry

     iteration # 37     ecut=    60.00 Ry     beta= 0.50
     Davidson diagonalization with overlap
     c_bands:  1 eigenvalues not converged
     ethr =  9.30E-10,  avg # of iterations =  5.8

     negative rho (up, down):  6.356E-01 0.000E+00

     total cpu time spent up to now is     5051.4 secs

     total energy              =  -14923.86009082 Ry
     Harris-Foulkes estimate   =  -14923.86009064 Ry
     estimated scf accuracy    <       0.00000696 Ry

     iteration # 38     ecut=    60.00 Ry     beta= 0.50
     Davidson diagonalization with overlap
     ethr =  3.80E-10,  avg # of iterations =  1.0

     negative rho (up, down):  6.355E-01 0.000E+00

     total cpu time spent up to now is     5156.0 secs

     total energy              =  -14923.86009148 Ry
     Harris-Foulkes estimate   =  -14923.86009097 Ry
     estimated scf accuracy    <       0.00000212 Ry

     iteration # 39     ecut=    60.00 Ry     beta= 0.50
     Davidson diagonalization with overlap
     ethr =  1.16E-10,  avg # of iterations =  3.0

     negative rho (up, down):  6.354E-01 0.000E+00

     total cpu time spent up to now is     5268.7 secs

     total energy              =  -14923.86009160 Ry
     Harris-Foulkes estimate   =  -14923.86009156 Ry
     estimated scf accuracy    <       0.00000207 Ry

     iteration # 40     ecut=    60.00 Ry     beta= 0.50
     Davidson diagonalization with overlap
     ethr =  1.13E-10,  avg # of iterations =  2.0

     negative rho (up, down):  6.352E-01 0.000E+00

     total cpu time spent up to now is     5378.1 secs

     total energy              =  -14923.86009174 Ry
     Harris-Foulkes estimate   =  -14923.86009167 Ry
     estimated scf accuracy    <       0.00000125 Ry

     iteration # 41     ecut=    60.00 Ry     beta= 0.50
     Davidson diagonalization with overlap
     ethr =  6.85E-11,  avg # of iterations =  1.0

     negative rho (up, down):  6.349E-01 0.000E+00

     total cpu time spent up to now is     5483.8 secs

     total energy              =  -14923.86009208 Ry
     Harris-Foulkes estimate   =  -14923.86009176 Ry
     estimated scf accuracy    <       0.00000045 Ry

     iteration # 42     ecut=    60.00 Ry     beta= 0.50
     Davidson diagonalization with overlap
     ethr =  2.47E-11,  avg # of iterations =  2.0

     negative rho (up, down):  6.348E-01 0.000E+00

     total cpu time spent up to now is     5601.4 secs

     total energy              =  -14923.86009218 Ry
     Harris-Foulkes estimate   =  -14923.86009212 Ry
     estimated scf accuracy    <       0.00000040 Ry

     iteration # 43     ecut=    60.00 Ry     beta= 0.50
     Davidson diagonalization with overlap
     ethr =  2.18E-11,  avg # of iterations =  1.8

     negative rho (up, down):  6.348E-01 0.000E+00

     total cpu time spent up to now is     5707.8 secs

     total energy              =  -14923.86009225 Ry
     Harris-Foulkes estimate   =  -14923.86009219 Ry
     estimated scf accuracy    <       0.00000005 Ry

     iteration # 44     ecut=    60.00 Ry     beta= 0.50
     Davidson diagonalization with overlap
     ethr =  2.77E-12,  avg # of iterations =  3.0

     negative rho (up, down):  6.348E-01 0.000E+00

     total cpu time spent up to now is     5823.0 secs

     total energy              =  -14923.86009226 Ry
     Harris-Foulkes estimate   =  -14923.86009225 Ry
     estimated scf accuracy    <       0.00000004 Ry

     iteration # 45     ecut=    60.00 Ry     beta= 0.50
     Davidson diagonalization with overlap
     ethr =  2.18E-12,  avg # of iterations =  1.0

     negative rho (up, down):  6.348E-01 0.000E+00

     total cpu time spent up to now is     5927.4 secs

     total energy              =  -14923.86009227 Ry
     Harris-Foulkes estimate   =  -14923.86009226 Ry
     estimated scf accuracy    <       0.00000003 Ry

     iteration # 46     ecut=    60.00 Ry     beta= 0.50
     Davidson diagonalization with overlap
     ethr =  1.42E-12,  avg # of iterations =  1.0

     negative rho (up, down):  6.348E-01 0.000E+00

     total cpu time spent up to now is     6032.1 secs

     total energy              =  -14923.86009228 Ry
     Harris-Foulkes estimate   =  -14923.86009227 Ry
     estimated scf accuracy    <       0.00000001 Ry

     iteration # 47     ecut=    60.00 Ry     beta= 0.50
     Davidson diagonalization with overlap
     ethr =  7.43E-13,  avg # of iterations =  1.0

     negative rho (up, down):  6.348E-01 0.000E+00

     total cpu time spent up to now is     6124.3 secs

     End of self-consistent calculation

          k = 0.0000 0.0000 0.0000 (314657 PWs)   bands (ev):

   -38.9757 -38.9491 -38.9465 -38.9409 -38.9400 -38.9269 -38.9220 -38.8979
   -38.8614 -38.8587 -38.8483 -38.8463 -38.8391 -38.8333 -36.5167 -36.4230
   -23.5735 -23.5610 -23.5592 -23.4920 -23.4695 -23.4671 -23.4628 -23.4482
   -23.4482 -23.4437 -23.4332 -23.4304 -23.4283 -23.4274 -23.4138 -23.4136
   -23.4104 -23.3962 -23.3695 -23.3628 -23.3543 -23.3383 -23.3303 -23.3245
   -23.3102 -23.3072 -23.3065 -23.2838 -23.2201 -23.1955 -23.1003 -22.9224
   -19.5586 -19.5211 -19.4753 -19.4708 -19.4698 -19.4442 -19.4354 -19.3923
   -19.3892 -19.3644 -19.2899 -19.2762 -19.2762 -19.2650 -19.2622 -19.2565
   -19.2547 -19.2462 -19.2447 -19.2401 -19.2280 -19.2000 -19.1946 -19.1867
   -19.1810 -19.1774 -19.1739 -19.1735 -19.1609 -19.1583 -19.1504 -19.1464
   -19.0762 -19.0710 -19.0472 -18.9936 -18.9816 -18.9656 -18.9516 -18.9435
   -18.8610 -18.8532 -17.7743 -17.7474 -17.7402 -17.6834 -17.6520 -17.6492
   -16.2973 -16.2368 -15.7186 -15.6785 -15.6440 -15.6133 -15.6022 -15.5945
   -15.5923 -15.5892 -15.5619 -15.5502 -15.5468 -15.5461 -15.5214 -15.4885
   -15.4645 -15.4260 -15.4181 -15.4176 -15.4113 -15.4109 -15.3885 -15.3825
   -15.3564 -15.3564 -15.3473 -15.3429 -15.3373 -15.3367 -15.3214 -15.3016
   -15.2972 -15.2909 -15.2714 -15.2560 -15.2422 -15.1862 -15.1854 -15.1721
   -15.1690 -15.1683 -15.1653 -15.1503 -15.1485 -15.1159 -15.0997 -15.0932
   -15.0924 -15.0879 -15.0863 -15.0743 -15.0737 -15.0718 -15.0685 -15.0551
   -15.0542 -15.0378 -15.0375 -15.0367 -15.0192 -15.0170 -15.0145 -15.0121
   -15.0036 -15.0025 -14.9685 -14.9514 -14.9349 -14.9298 -14.9252 -14.8819
   -14.8790 -14.8757 -14.8645 -14.8597 -14.8593 -14.8555 -14.8525 -14.8401
   -14.8081 -14.8019 -14.7962 -14.7887 -14.7863 -14.7846 -14.7194 -14.7042
   -14.5998 -14.5925 -14.5839 -14.5818 -14.5739 -14.5591 -14.5577 -14.5563
   -14.5552 -14.5407 -14.5387 -14.5383 -14.5382 -14.5362 -14.4998 -14.4869
   -14.4793 -14.4747 -14.4664 -14.4346 -14.3567 -14.3441 -14.3422 -14.3374
   -13.5303 -13.5066 -13.3114 -13.3112 -13.3062 -13.3030 -13.1484 -13.0387
    -9.5319  -9.5184  -9.3614  -9.2449  -9.2309  -9.1964  -9.0761  -9.0711
    -9.0220  -9.0182  -9.0083  -9.0061  -9.0045  -8.9945  -8.9925  -8.9810
    -8.9576  -8.8889  -8.8794  -8.8584  -8.8547  -8.8347  -8.8344  -8.8145
    -8.7979  -8.7934  -8.7770  -8.7758  -8.7713  -8.7711  -8.7707  -8.7693
    -8.7684  -8.7605  -8.7603  -8.7468  -8.7457  -8.7412  -8.7376  -8.7307
    -8.7275  -8.7219  -8.7188  -8.7162  -8.7125  -8.7077  -8.6971  -8.6808
    -8.6766  -8.6602  -8.6475  -8.6364  -8.6342  -8.6335  -8.5712  -8.5574
    -8.5500  -8.5378  -8.5303  -8.5274  -8.5168  -8.4239  -8.4170  -8.4164
    -8.4093  -8.4035  -8.4025  -8.3952  -8.3896  -8.3814  -8.3808  -8.3808
    -8.3766  -8.3761  -8.3674  -8.3496  -8.3394  -8.3050  -8.2943  -8.2844
    -8.2813  -8.2676  -8.2625  -8.2615  -8.2485  -8.2374  -8.2348  -8.2222
    -8.1420  -8.1203  -8.1151  -8.1125  -8.0855  -8.0732  -7.9110  -7.9046
    -5.0482  -4.9758  -4.5070  -4.4109  -4.0133  -3.9865  -3.9084  -3.9011
    -3.9004  -3.8403  -3.8367  -3.8347  -3.8331  -3.8330  -3.7960  -3.7697
    -3.7645  -3.7304  -3.6673  -3.6610  -3.6492  -3.5898  -3.5778  -3.5716
    -3.5502  -3.5427  -3.5316  -3.5258  -3.5250  -3.4757  -3.4453  -3.4367
    -3.4307  -3.4212  -3.3415  -3.2871  -3.2444  -3.2424  -3.1632  -3.0744
    -3.0159  -3.0108  -2.9979  -2.9921  -2.9908  -2.9893  -2.9844  -2.9809
    -2.9781  -2.9770  -2.9648  -2.9628  -2.8827  -2.8826  -2.8806  -2.8796
    -2.8733  -2.8714  -2.8152  -2.8147  -2.8094  -2.8065  -2.8048  -2.8019
    -2.7984  -2.7959  -2.7943  -2.7916  -2.7879  -2.7866  -2.7756  -2.7747
    -2.7402  -2.7083  -2.7027  -2.6965  -2.6940  -2.6917  -2.6836  -2.6778
    -2.6771  -2.6598  -2.6526  -2.6385  -2.6163  -2.6037  -2.6007  -2.6004
    -2.5956  -2.5910  -2.5874  -2.5865  -2.5823  -2.5801  -2.5797  -2.5678
    -2.5333  -2.5161  -2.5154  -2.5029  -2.4978  -2.4587  -2.4554  -2.4284
    -2.4219  -2.4152  -2.4074  -2.3959  -2.3958  -2.3942  -2.3673  -2.3481
    -2.3456  -2.3359  -2.3094  -2.3076  -2.2874  -2.2799  -2.2793  -2.2536
    -2.2479  -2.2333  -2.2267  -2.2231  -2.2185  -2.2176  -2.2006  -2.1944
    -2.1886  -2.1828  -2.1785  -2.1705  -2.1680  -2.1463  -2.1342  -2.1338
    -2.0883  -2.0721  -2.0641  -2.0573  -2.0390  -2.0103  -2.0082  -1.9404
    -1.9235  -1.8904  -1.8896  -1.8689  -1.8640  -1.8154  -1.8022  -1.7980
    -1.7939  -1.7522  -1.7323  -1.7271  -1.7140  -1.6990  -1.6975  -1.6955
    -1.6816  -1.6792  -1.6762  -1.6720  -1.6642  -1.6594  -1.6527  -1.6472
    -1.6449  -1.6347  -1.6119  -1.6025  -1.5963  -1.5956  -1.5745  -1.5666
    -1.5614  -1.5568  -1.5383  -1.5327  -1.5251  -1.5103  -1.5036  -1.4978
    -1.4958  -1.4880  -1.4667  -1.4613  -1.4592  -1.4445  -1.4437  -1.4420
    -1.4406  -1.4284  -1.4189  -1.3986  -1.3671  -1.3645  -1.3501  -1.3498
    -1.3332  -1.3134  -1.2955  -1.2817  -1.2755  -1.2480  -1.2361  -1.2313
    -1.2185  -1.2016  -1.1995  -1.1907  -1.1814  -1.1733  -1.1727  -1.1722
    -1.1649  -1.1102  -1.0987  -1.0827  -1.0705  -1.0635  -1.0594  -1.0556
    -1.0509  -1.0298  -1.0157  -1.0054  -1.0011  -1.0010  -0.9988  -0.9922
    -0.9872  -0.9793  -0.9783  -0.9746  -0.9671  -0.9626  -0.9598  -0.9521
    -0.9514  -0.9493  -0.9391  -0.9330  -0.9211  -0.9209  -0.9203  -0.9121
    -0.9094  -0.8981  -0.8967  -0.8931  -0.8918  -0.8753  -0.8749  -0.8707
    -0.8688  -0.8674  -0.8505  -0.8471  -0.8451  -0.8213  -0.7848  -0.7827
    -0.7812  -0.7748  -0.7705  -0.7703  -0.7268  -0.7169  -0.7142  -0.7004
    -0.6740  -0.6519  -0.6503  -0.6256  -0.6241  -0.6204  -0.6201  -0.6150
    -0.5892  -0.5689  -0.5639  -0.5532  -0.5441  -0.5419  -0.5308  -0.4904
    -0.4895  -0.4826  -0.4769  -0.4723  -0.4629  -0.4608  -0.4478  -0.4436
    -0.3982  -0.3893  -0.3840  -0.3787  -0.3775  -0.3618  -0.3557  -0.3473
    -0.3454  -0.3327  -0.3257  -0.3243  -0.3200  -0.3160  -0.3132  -0.3076
    -0.3075  -0.3045  -0.3033  -0.2965  -0.2946  -0.2914  -0.2874  -0.2840
    -0.2713  -0.2645  -0.2601  -0.2520  -0.2495  -0.2422  -0.2349  -0.2289
    -0.2142  -0.2119  -0.2102  -0.2054  -0.1878  -0.1874  -0.1721  -0.1713
    -0.1687  -0.1615  -0.1450  -0.1408  -0.1380  -0.1269  -0.1066  -0.1047
    -0.1000  -0.0952  -0.0852  -0.0839  -0.0824  -0.0806  -0.0802  -0.0691
    -0.0691  -0.0676  -0.0661  -0.0610  -0.0582  -0.0408  -0.0375  -0.0319
    -0.0170  -0.0129  -0.0060  -0.0053   0.0015   0.0026   0.0244   0.0271
     0.0369   0.0472   0.0679   0.0857   0.0893   0.0943   0.1000   0.1071
     0.1582   0.2472   0.2827   0.2891   0.2965   0.3055   0.3153   0.3336
     0.3386   0.3633   0.3656   0.3732   0.3932   0.3945   0.4010   0.4016
     0.4046   0.4106   0.4129   0.4189   0.4205   0.4214   0.4257   0.4268
     0.4434   0.4437   0.4453   0.4547   0.4679   0.4718   0.4724   0.4820
     0.4823   0.4861   0.4999   0.5044   0.5068   0.5069   0.5123   0.5189
     0.5227   0.5336   0.5347   0.5351   0.5353   0.5380   0.5386   0.5418
     0.5470   0.5496   0.5505   0.5571   0.5581   0.5592   0.5593   0.5698
     0.5735   0.5789   0.5852   0.5905   0.5969   0.6053   0.6082   0.6106
     0.6131   0.6141   0.6218   0.6256   0.6286   0.6329   0.6379   0.6397
     0.6402   0.6416   0.6600   0.6609   0.6652   0.6653   0.6674   0.6705
     0.6736   0.6748   0.6768   0.6773   0.6834   0.6871   0.6885   0.6956
     0.6979   0.6990   0.7106   0.7115   0.7181   0.7244   0.7327   0.7349
     0.7426   0.7498   0.7552   0.7575   0.7643   0.7697   0.7745   0.7830
     0.8140   0.8148   0.8178   0.8350   0.8497   0.8783   0.9538   0.9569
     0.9581   0.9590   0.9668   0.9693   0.9746   0.9752   0.9767   0.9785
     0.9804   0.9942   1.0091   1.0159   1.0297   1.0353   1.0374   1.0390
     1.0445   1.0530   1.0571   1.0585   1.0599   1.0781   1.0899   1.0964
     1.0994   1.1014   1.1028   1.1224   1.1225   1.1263   1.1338   1.1339
     1.1342   1.1449   1.1483   1.1558   1.1569   1.1659   1.1770   1.1792
     1.1832   1.1835   1.1931   1.2086   1.2105   1.2107   1.2176   1.2194
     1.2213   1.2305   1.2316   1.2360   1.2383   1.2408   1.2408   1.2412
     1.2963   1.2976   1.2998   1.3205   1.3211   1.3212   1.3275   1.3305
     1.3344   1.3356   1.3356   1.3442   1.3551   1.3572   1.3634   1.3987
     1.4233   1.4391   1.4441   1.4879   1.4971   1.5423   1.5507   1.6772
     1.6810   1.6910   1.7006   1.7132   1.7140   1.7355   1.7523   1.7959
     1.8124   1.8352   1.8429   1.8450   1.8529   1.8556   1.8616   1.8706
     1.8777   1.8785   1.8916   1.9252   1.9280   1.9309   1.9328   1.9705
     1.9834   1.9893   1.9899   1.9972   2.0049   2.0228   2.1142   2.1199
     2.1241   2.1306   2.2060   2.2170   2.2183   2.2877   2.3041   2.3296
     2.3703   2.3822   2.3850   2.4034   2.4381   2.4449   2.4456   2.4520
     2.4540   2.4594   2.4643   2.4833   2.4943   2.5197   2.5307   2.5360
     2.5406   2.5624   2.5736   2.5804   2.6645   2.7051   2.7096   2.7143
     2.7263   2.7597   2.7685   2.7700   3.9205   3.9714   4.0218   4.0443
     4.3364   4.4919   4.5102   5.0274   5.0419   5.0797   5.1032   5.1802
     5.5663   5.6130   5.7159   5.8371   5.8379   5.8466   5.8552   5.8563
     5.8775   5.8801   5.8870   5.8874   5.8875   5.8970   5.8974   5.8999
     5.9027   6.0100   6.0988   6.2657   6.2666   6.2949   6.2973   6.3263
     6.3456   6.3588   6.3629   6.3702   6.5045   6.5356   6.5634   6.5733
     6.5739   6.6139   6.6188   6.6315   6.6462   6.6640   6.7516   6.7643
     6.7811   6.7840   6.7912   6.8676   6.8847   6.8994   6.9259   6.9309
     6.9551   6.9739   7.0584   7.1275   7.1283   7.1442   7.1501   7.1877
     7.2561   7.2574   7.2996   7.3002   7.3228   7.3435   7.3742   7.3806
     7.3987   7.4679   7.5132   7.5327   7.5327   7.5350   7.5382   7.5397
     7.5425   7.5480   7.5495   7.5640   7.5805   7.5885   7.6156   7.7775
     7.7810   7.8046   7.8184   7.8270   7.8460   7.8535   7.8677   7.8787
     7.8962   7.9220   7.9376   7.9411   7.9670   7.9694   7.9756   7.9788
     8.0032   8.0180   8.0259   8.0393   8.0455   8.0494   8.0585   8.0714
     8.0780   8.1042   8.1224   8.1244   8.1602   8.1658   8.1796   8.1847
     8.2122   8.2211   8.2369   8.2491   8.2726   8.2744   8.2920   8.2993
     8.3477   8.3534   8.3581   8.3599   8.3704   8.3723   8.3750   8.3932
     8.3942   8.3980   8.4097   8.4233   8.4289   8.4361   8.4414   8.4472
     8.4586   8.4990

          k = 0.2326 0.2390 0.0000 (314683 PWs)   bands (ev):

   -38.9757 -38.9486 -38.9472 -38.9410 -38.9403 -38.9255 -38.9230 -38.8979
   -38.8608 -38.8594 -38.8481 -38.8471 -38.8372 -38.8345 -36.5167 -36.4230
   -23.5577 -23.5553 -23.5410 -23.5071 -23.4928 -23.4898 -23.4777 -23.4577
   -23.4525 -23.4483 -23.4378 -23.4344 -23.4233 -23.4146 -23.4092 -23.4004
   -23.3934 -23.3791 -23.3649 -23.3574 -23.3510 -23.3400 -23.3387 -23.3245
   -23.3216 -23.3107 -23.3012 -23.2878 -23.2155 -23.1943 -23.1023 -22.9224
   -19.5239 -19.4897 -19.4728 -19.4458 -19.4422 -19.4361 -19.4208 -19.4045
   -19.3884 -19.3867 -19.3686 -19.3615 -19.3544 -19.3326 -19.3011 -19.2780
   -19.2745 -19.2665 -19.2529 -19.2480 -19.2341 -19.1914 -19.1840 -19.1652
   -19.1645 -19.1564 -19.1525 -19.1247 -19.1076 -19.0748 -19.0723 -19.0697
   -19.0622 -19.0359 -19.0183 -18.9973 -18.9909 -18.9898 -18.9875 -18.9732
   -18.9073 -18.9008 -17.7745 -17.7493 -17.7417 -17.6836 -17.6540 -17.6506
   -16.1966 -16.1364 -15.9268 -15.8660 -15.6676 -15.6322 -15.6101 -15.5957
   -15.5868 -15.5716 -15.5554 -15.5499 -15.5396 -15.5208 -15.4810 -15.4721
   -15.4642 -15.4374 -15.4138 -15.4023 -15.3969 -15.3952 -15.3777 -15.3671
   -15.3665 -15.3454 -15.3440 -15.3316 -15.3153 -15.2953 -15.2926 -15.2885
   -15.2793 -15.2628 -15.2609 -15.2605 -15.2416 -15.2258 -15.2052 -15.1860
   -15.1747 -15.1686 -15.1643 -15.1572 -15.1447 -15.1284 -15.1197 -15.1161
   -15.1061 -15.1024 -15.1007 -15.0807 -15.0689 -15.0611 -15.0580 -15.0435
   -15.0305 -15.0187 -15.0058 -15.0040 -14.9930 -14.9918 -14.9860 -14.9814
   -14.9688 -14.9602 -14.9456 -14.9419 -14.9383 -14.9266 -14.9243 -14.9059
   -14.8967 -14.8963 -14.8808 -14.8689 -14.8657 -14.8562 -14.8522 -14.8448
   -14.8354 -14.8348 -14.8263 -14.8208 -14.8098 -14.7903 -14.7432 -14.7350
   -14.6052 -14.5975 -14.5883 -14.5821 -14.5794 -14.5725 -14.5651 -14.5640
   -14.5475 -14.5474 -14.5408 -14.5209 -14.5192 -14.5106 -14.4992 -14.4915
   -14.4906 -14.4831 -14.4715 -14.4250 -14.3636 -14.3505 -14.3357 -14.3334
   -13.4830 -13.4621 -13.3686 -13.3516 -13.2891 -13.2298 -13.1965 -13.1002
    -9.4247  -9.4112  -9.2579  -9.2285  -9.2149  -9.1253  -9.1158  -9.1113
    -9.0632  -8.9624  -8.9584  -8.9393  -8.9194  -8.9169  -8.9034  -8.8876
    -8.8827  -8.8613  -8.8472  -8.8147  -8.8116  -8.8018  -8.7994  -8.7964
    -8.7859  -8.7729  -8.7657  -8.7651  -8.7643  -8.7629  -8.7616  -8.7603
    -8.7500  -8.7464  -8.7461  -8.7437  -8.7325  -8.7313  -8.7302  -8.7229
    -8.7190  -8.7168  -8.7148  -8.7133  -8.7070  -8.7045  -8.6987  -8.6877
    -8.6787  -8.6720  -8.6625  -8.6508  -8.6306  -8.6228  -8.6107  -8.6002
    -8.5970  -8.5914  -8.5600  -8.5415  -8.5303  -8.5224  -8.5207  -8.4991
    -8.4854  -8.4590  -8.4519  -8.4453  -8.4106  -8.4103  -8.3968  -8.3908
    -8.3733  -8.3723  -8.3595  -8.3515  -8.3491  -8.3353  -8.3314  -8.3312
    -8.3203  -8.3177  -8.3071  -8.3066  -8.2783  -8.2566  -8.2488  -8.2272
    -8.1982  -8.1748  -8.1664  -8.1223  -8.1205  -8.1024  -7.9296  -7.9114
    -4.8873  -4.8154  -4.4522  -4.3811  -4.3614  -4.2649  -3.9959  -3.9812
    -3.9606  -3.9497  -3.8977  -3.8832  -3.8262  -3.7944  -3.7892  -3.7681
    -3.7475  -3.6904  -3.6682  -3.6276  -3.5754  -3.5548  -3.5449  -3.5374
    -3.5193  -3.4870  -3.4690  -3.4676  -3.4447  -3.3788  -3.3434  -3.2891
    -3.2330  -3.2295  -3.2163  -3.2127  -3.2109  -3.1947  -3.1922  -3.1795
    -3.1735  -3.1527  -3.1389  -3.1182  -3.1119  -3.0970  -3.0947  -3.0534
    -3.0488  -2.9903  -2.9659  -2.9479  -2.9464  -2.9408  -2.9200  -2.9029
    -2.8950  -2.8807  -2.8665  -2.8508  -2.8474  -2.8381  -2.8379  -2.8281
    -2.8196  -2.8119  -2.8113  -2.7977  -2.7891  -2.7784  -2.7777  -2.7701
    -2.7535  -2.7210  -2.7037  -2.6984  -2.6924  -2.6897  -2.6895  -2.6890
    -2.6863  -2.6822  -2.6792  -2.6704  -2.6699  -2.6648  -2.6496  -2.6442
    -2.6338  -2.6019  -2.5831  -2.5742  -2.5564  -2.5455  -2.5277  -2.5175
    -2.5066  -2.4894  -2.4721  -2.4717  -2.4659  -2.4547  -2.4487  -2.4401
    -2.4357  -2.4322  -2.4233  -2.4205  -2.4175  -2.4089  -2.4077  -2.3899
    -2.3822  -2.3565  -2.3546  -2.3376  -2.3294  -2.2838  -2.2755  -2.2059
    -2.1882  -2.1787  -2.1670  -2.1598  -2.1546  -2.1538  -2.1198  -2.1162
    -2.1093  -2.1022  -2.0960  -2.0852  -2.0789  -2.0647  -2.0611  -2.0336
    -2.0203  -2.0096  -2.0036  -1.9912  -1.9563  -1.9467  -1.9394  -1.9221
    -1.9037  -1.8777  -1.8722  -1.8341  -1.8313  -1.7984  -1.7912  -1.7472
    -1.7425  -1.7414  -1.7409  -1.7282  -1.7201  -1.6907  -1.6858  -1.6772
    -1.6578  -1.6482  -1.6456  -1.6367  -1.6289  -1.6263  -1.6104  -1.6101
    -1.5980  -1.5890  -1.5857  -1.5815  -1.5802  -1.5769  -1.5670  -1.5623
    -1.5575  -1.5525  -1.5318  -1.5268  -1.5181  -1.5094  -1.5044  -1.4972
    -1.4961  -1.4836  -1.4644  -1.4521  -1.4473  -1.4367  -1.4286  -1.4254
    -1.4216  -1.4165  -1.4005  -1.3979  -1.3873  -1.3774  -1.3639  -1.3631
    -1.3501  -1.3384  -1.3330  -1.3140  -1.3119  -1.3057  -1.2967  -1.2961
    -1.2718  -1.2636  -1.2348  -1.2326  -1.2123  -1.2060  -1.2031  -1.1900
    -1.1882  -1.1839  -1.1704  -1.1548  -1.1540  -1.1482  -1.1057  -1.1003
    -1.0857  -1.0720  -1.0688  -1.0569  -1.0440  -1.0251  -1.0160  -1.0102
    -1.0044  -0.9793  -0.9483  -0.9455  -0.9394  -0.9333  -0.9214  -0.9054
    -0.8916  -0.8854  -0.8834  -0.8751  -0.8555  -0.8518  -0.8480  -0.8405
    -0.8307  -0.8270  -0.8205  -0.8189  -0.8161  -0.8002  -0.7938  -0.7894
    -0.7873  -0.7760  -0.7750  -0.7730  -0.7615  -0.7570  -0.7562  -0.7483
    -0.7414  -0.7372  -0.7306  -0.7158  -0.7112  -0.6974  -0.6952  -0.6881
    -0.6823  -0.6731  -0.6709  -0.6650  -0.6569  -0.6516  -0.6405  -0.6389
    -0.6134  -0.5928  -0.5650  -0.5540  -0.5437  -0.5394  -0.5038  -0.4991
    -0.4775  -0.4699  -0.4601  -0.4518  -0.4475  -0.4475  -0.4358  -0.4294
    -0.4265  -0.4258  -0.4183  -0.4179  -0.4089  -0.4081  -0.4015  -0.3928
    -0.3867  -0.3843  -0.3720  -0.3670  -0.3628  -0.3610  -0.3553  -0.3545
    -0.3475  -0.3401  -0.3396  -0.3281  -0.3194  -0.3191  -0.3116  -0.2973
    -0.2969  -0.2929  -0.2881  -0.2855  -0.2806  -0.2719  -0.2614  -0.2600
    -0.2471  -0.2433  -0.2306  -0.2160  -0.2115  -0.1996  -0.1930  -0.1902
    -0.1860  -0.1842  -0.1777  -0.1759  -0.1729  -0.1710  -0.1623  -0.1512
    -0.1496  -0.1377  -0.1156  -0.1092  -0.1026  -0.1008  -0.0964  -0.0841
    -0.0728  -0.0670  -0.0668  -0.0514  -0.0313  -0.0191  -0.0132  -0.0132
     0.0031   0.0127   0.0190   0.0260   0.0380   0.0650   0.0723   0.1125
     0.1162   0.1357   0.1512   0.1693   0.1811   0.1862   0.1930   0.2039
     0.2099   0.2118   0.2196   0.2228   0.2367   0.2475   0.2543   0.2638
     0.2782   0.2831   0.2839   0.2946   0.2997   0.3109   0.3369   0.3412
     0.3454   0.3510   0.3588   0.3661   0.3727   0.3772   0.3886   0.3945
     0.4019   0.4131   0.4136   0.4181   0.4315   0.4320   0.4365   0.4466
     0.4476   0.4537   0.4558   0.4573   0.4581   0.4626   0.4721   0.4819
     0.4966   0.5007   0.5076   0.5083   0.5129   0.5142   0.5337   0.5368
     0.5404   0.5408   0.5493   0.5499   0.5628   0.5662   0.5715   0.5748
     0.5760   0.5819   0.5825   0.5991   0.5995   0.6116   0.6177   0.6179
     0.6213   0.6230   0.6290   0.6326   0.6391   0.6400   0.6480   0.6539
     0.6574   0.6614   0.6736   0.6756   0.6783   0.6873   0.6890   0.6894
     0.6896   0.6992   0.7020   0.7056   0.7104   0.7367   0.7375   0.7530
     0.7569   0.7713   0.7782   0.7837   0.7884   0.8040   0.8063   0.8111
     0.8162   0.8206   0.8264   0.8373   0.8418   0.8457   0.8537   0.8623
     0.8679   0.8809   0.8836   0.8910   0.9065   0.9113   0.9116   0.9232
     0.9244   0.9307   0.9383   0.9433   0.9466   0.9562   0.9589   0.9620
     0.9642   0.9705   0.9715   0.9730   0.9861   0.9868   0.9933   1.0007
     1.0151   1.0187   1.0384   1.0395   1.0464   1.0473   1.0585   1.0588
     1.0602   1.0692   1.0737   1.0836   1.0889   1.0930   1.0961   1.1015
     1.1015   1.1063   1.1102   1.1166   1.1192   1.1311   1.1338   1.1353
     1.1401   1.1571   1.1643   1.1665   1.1786   1.1820   1.1820   1.1940
     1.1942   1.2051   1.2156   1.2480   1.2530   1.2601   1.2639   1.2706
     1.2988   1.3147   1.3204   1.3478   1.3616   1.4004   1.4199   1.4295
     1.4850   1.4986   1.5155   1.5201   1.5324   1.5382   1.5478   1.5580
     1.5603   1.5683   1.5766   1.5776   1.6089   1.6170   1.6222   1.6532
     1.6740   1.6911   1.7062   1.7145   1.7226   1.7278   1.7429   1.7537
     1.7601   1.7711   1.7756   1.7760   1.8422   1.8657   1.8732   1.8881
     1.9054   1.9192   1.9249   1.9284   1.9330   1.9367   1.9450   1.9454
     1.9511   1.9804   1.9854   1.9933   2.0294   2.0409   2.0458   2.0542
     2.0639   2.0643   2.0848   2.1610   2.1828   2.1916   2.2112   2.2177
     2.2243   2.2522   2.2839   2.2943   2.2949   2.2984   2.3030   2.3142
     2.3176   2.3252   2.3372   2.3559   2.3706   2.3809   2.3872   2.4145
     2.4180   2.4389   2.4634   2.4789   2.5412   2.5744   2.5752   2.5948
     3.1794   3.2192   3.3022   3.3437   3.7094   3.7566   3.8074   3.8358
     4.5658   4.7305   4.7394   5.0646   5.2612   5.2704   5.2765   5.3043
     5.3164   5.3331   5.4657   5.6650   5.7165   5.7510   5.7682   5.7796
     5.7979   5.8140   5.8275   5.8450   5.8737   5.9503   6.0236   6.0363
     6.0611   6.0750   6.1092   6.1234   6.1344   6.1733   6.2096   6.2389
     6.2678   6.2799   6.3480   6.3917   6.4100   6.5041   6.5265   6.6067
     6.6511   6.6690   6.7029   6.7461   6.7612   6.7744   6.8046   6.8261
     6.8313   6.8589   6.8632   6.8774   6.9011   6.9173   6.9376   6.9663
     6.9773   6.9814   7.0012   7.0218   7.0342   7.0783   7.0909   7.0950
     7.1211   7.1495   7.1846   7.1888   7.2184   7.2542   7.2922   7.2989
     7.3488   7.3875   7.3907   7.4389   7.4414   7.4551   7.4616   7.4863
     7.5147   7.5498   7.6284   7.6384   7.6719   7.6816   7.6913   7.7213
     7.7271   7.7561   7.7910   7.8148   7.8314   7.8525   7.8852   7.8971
     7.9099   7.9204   7.9298   7.9374   7.9566   7.9706   7.9786   7.9978
     8.0047   8.0206   8.0366   8.0429   8.0757   8.0804   8.0879   8.0925
     8.1272   8.1441   8.1526   8.1722   8.1782   8.1855   8.1958   8.2143
     8.2314   8.2359   8.2511   8.2612   8.2762   8.2886   8.2986   8.3183
     8.3511   8.3604   8.3684   8.3847   8.4043   8.4233   8.4290   8.4357
     8.4673   8.4838   8.4985   8.5100   8.5222   8.5290   8.5328   8.5598
     8.5758   8.5833

          k = 0.0000 0.4779 0.0000 (314615 PWs)   bands (ev):

   -38.9756 -38.9488 -38.9470 -38.9420 -38.9393 -38.9246 -38.9238 -38.8979
   -38.8610 -38.8592 -38.8493 -38.8459 -38.8368 -38.8350 -36.5167 -36.4230
   -23.5551 -23.5360 -23.5218 -23.5062 -23.4957 -23.4919 -23.4874 -23.4839
   -23.4814 -23.4595 -23.4500 -23.4453 -23.4097 -23.4004 -23.3955 -23.3823
   -23.3758 -23.3682 -23.3615 -23.3545 -23.3538 -23.3531 -23.3414 -23.3396
   -23.3375 -23.2975 -23.2962 -23.2907 -23.2130 -23.1942 -23.1030 -22.9224
   -19.5193 -19.5149 -19.4789 -19.4501 -19.4314 -19.4285 -19.4199 -19.4194
   -19.3929 -19.3709 -19.3661 -19.3429 -19.3311 -19.3293 -19.2866 -19.2753
   -19.2693 -19.2597 -19.2508 -19.2503 -19.2352 -19.1881 -19.1798 -19.1756
   -19.1695 -19.1684 -19.1488 -19.1355 -19.1197 -19.0995 -19.0936 -19.0755
   -19.0621 -19.0550 -19.0305 -19.0118 -18.9930 -18.9924 -18.9727 -18.9521
   -18.9025 -18.8614 -17.7745 -17.7494 -17.7406 -17.6836 -17.6540 -17.6496
   -16.1185 -16.0594 -15.9051 -15.8495 -15.8442 -15.7922 -15.7342 -15.6776
   -15.6354 -15.5929 -15.5257 -15.4957 -15.4848 -15.4798 -15.4590 -15.4492
   -15.4417 -15.4367 -15.4270 -15.4208 -15.3956 -15.3924 -15.3871 -15.3699
   -15.3257 -15.3030 -15.2982 -15.2964 -15.2658 -15.2522 -15.2441 -15.2388
   -15.2314 -15.2295 -15.2269 -15.2251 -15.2181 -15.2000 -15.1969 -15.1968
   -15.1836 -15.1747 -15.1727 -15.1670 -15.1528 -15.1519 -15.1420 -15.1363
   -15.1215 -15.1158 -15.1125 -15.1108 -15.0988 -15.0766 -15.0498 -15.0433
   -15.0397 -15.0203 -15.0124 -15.0062 -14.9884 -14.9851 -14.9807 -14.9760
   -14.9707 -14.9654 -14.9472 -14.9450 -14.9400 -14.9327 -14.9267 -14.9119
   -14.9080 -14.8933 -14.8816 -14.8718 -14.8700 -14.8684 -14.8589 -14.8490
   -14.8412 -14.8409 -14.8260 -14.8248 -14.8073 -14.7980 -14.7819 -14.7536
   -14.6090 -14.5995 -14.5931 -14.5909 -14.5817 -14.5757 -14.5659 -14.5598
   -14.5534 -14.5515 -14.5356 -14.5313 -14.5091 -14.5036 -14.4973 -14.4910
   -14.4890 -14.4833 -14.4778 -14.4169 -14.3749 -14.3524 -14.3405 -14.3187
   -13.4493 -13.4013 -13.3358 -13.3315 -13.2949 -13.2899 -13.2468 -13.1561
    -9.2665  -9.2529  -9.1245  -9.1146  -9.1112  -9.1065  -9.1012  -9.0415
    -9.0276  -8.9770  -8.9764  -8.9643  -8.9533  -8.8877  -8.8873  -8.8821
    -8.8539  -8.8219  -8.8118  -8.8083  -8.8057  -8.8033  -8.7967  -8.7963
    -8.7858  -8.7812  -8.7801  -8.7662  -8.7621  -8.7601  -8.7546  -8.7384
    -8.7298  -8.7274  -8.7241  -8.7228  -8.7191  -8.7154  -8.7134  -8.7123
    -8.7102  -8.7066  -8.7031  -8.6997  -8.6975  -8.6878  -8.6823  -8.6396
    -8.6329  -8.6258  -8.6226  -8.6165  -8.6148  -8.6107  -8.6093  -8.6087
    -8.6032  -8.5971  -8.5955  -8.5683  -8.5647  -8.5513  -8.5484  -8.5442
    -8.5293  -8.5218  -8.5137  -8.4988  -8.4850  -8.4818  -8.4787  -8.4495
    -8.4465  -8.4372  -8.4262  -8.4101  -8.3632  -8.3461  -8.3452  -8.3394
    -8.3363  -8.3311  -8.3246  -8.3236  -8.3176  -8.3111  -8.3039  -8.2850
    -8.2343  -8.2022  -8.1784  -8.1655  -8.1597  -8.1287  -7.9365  -7.9288
    -4.7208  -4.6487  -4.4331  -4.3739  -4.3697  -4.3106  -4.2141  -4.1170
    -4.0531  -4.0101  -3.9942  -3.9861  -3.9167  -3.8869  -3.7697  -3.7578
    -3.7257  -3.6683  -3.5975  -3.5219  -3.5214  -3.5042  -3.5038  -3.4979
    -3.4277  -3.4175  -3.3954  -3.3794  -3.3529  -3.3387  -3.2883  -3.2708
    -3.2506  -3.2345  -3.1881  -3.1830  -3.1818  -3.1815  -3.1743  -3.1709
    -3.1571  -3.1568  -3.1404  -3.1308  -3.1236  -3.1126  -3.0714  -3.0706
    -3.0305  -3.0277  -3.0267  -3.0161  -3.0094  -2.9945  -2.9356  -2.9265
    -2.9237  -2.9024  -2.8524  -2.8358  -2.8321  -2.8157  -2.8026  -2.7947
    -2.7918  -2.7780  -2.7567  -2.7566  -2.7545  -2.7467  -2.7450  -2.7394
    -2.7335  -2.7273  -2.7206  -2.7148  -2.7080  -2.6999  -2.6995  -2.6981
    -2.6927  -2.6921  -2.6886  -2.6825  -2.6806  -2.6767  -2.6644  -2.6575
    -2.6518  -2.6439  -2.6334  -2.5983  -2.5922  -2.5899  -2.5459  -2.5362
    -2.5348  -2.5279  -2.5247  -2.5130  -2.4792  -2.4788  -2.4753  -2.4705
    -2.4698  -2.4633  -2.4585  -2.4571  -2.4549  -2.4431  -2.4383  -2.4222
    -2.4170  -2.4163  -2.4094  -2.4081  -2.3993  -2.3961  -2.3779  -2.3697
    -2.3691  -2.3332  -2.3137  -2.2803  -2.2202  -2.1854  -2.1344  -2.1264
    -2.1218  -2.1186  -2.1150  -2.1081  -2.1023  -2.0887  -2.0865  -2.0444
    -1.9826  -1.9156  -1.8614  -1.8202  -1.8020  -1.7574  -1.7463  -1.7454
    -1.7376  -1.7356  -1.7268  -1.7260  -1.7189  -1.7082  -1.6898  -1.6845
    -1.6835  -1.6791  -1.6709  -1.6604  -1.6511  -1.6436  -1.6342  -1.6177
    -1.6058  -1.5934  -1.5889  -1.5883  -1.5860  -1.5787  -1.5689  -1.5651
    -1.5621  -1.5607  -1.5570  -1.5469  -1.5437  -1.5338  -1.5221  -1.5145
    -1.5092  -1.5060  -1.5014  -1.4941  -1.4913  -1.4911  -1.4839  -1.4759
    -1.4717  -1.4704  -1.4682  -1.4445  -1.4419  -1.4325  -1.4304  -1.4279
    -1.4231  -1.4160  -1.4142  -1.4122  -1.3981  -1.3812  -1.3745  -1.3561
    -1.3483  -1.3380  -1.3294  -1.2749  -1.2732  -1.2519  -1.2507  -1.2396
    -1.2386  -1.2334  -1.2262  -1.2247  -1.2202  -1.2166  -1.2135  -1.2046
    -1.2023  -1.1971  -1.1493  -1.1451  -1.1281  -1.1190  -1.1184  -1.1162
    -1.0974  -1.0962  -1.0903  -1.0840  -1.0794  -1.0723  -1.0627  -1.0451
    -1.0281  -1.0262  -1.0179  -1.0162  -0.9908  -0.9816  -0.9638  -0.9556
    -0.9489  -0.9433  -0.9369  -0.9216  -0.9167  -0.9039  -0.8855  -0.8748
    -0.8632  -0.8481  -0.8437  -0.8411  -0.8320  -0.8283  -0.8200  -0.8182
    -0.8143  -0.8115  -0.8103  -0.7983  -0.7894  -0.7757  -0.7742  -0.7565
    -0.7474  -0.7432  -0.7145  -0.6899  -0.6834  -0.6780  -0.6777  -0.6748
    -0.6614  -0.6510  -0.6434  -0.6374  -0.6310  -0.6227  -0.6034  -0.5940
    -0.5873  -0.5689  -0.5390  -0.5315  -0.5180  -0.5114  -0.5089  -0.5030
    -0.5023  -0.4969  -0.4949  -0.4946  -0.4935  -0.4842  -0.4800  -0.4662
    -0.4636  -0.4609  -0.4547  -0.4489  -0.4434  -0.4124  -0.4066  -0.3983
    -0.3949  -0.3827  -0.3560  -0.3533  -0.3505  -0.3483  -0.3317  -0.3310
    -0.3295  -0.3178  -0.3163  -0.3096  -0.2854  -0.2769  -0.2732  -0.2728
    -0.2682  -0.2673  -0.2557  -0.2514  -0.2413  -0.2397  -0.2296  -0.2277
    -0.2249  -0.1975  -0.1946  -0.1922  -0.1890  -0.1886  -0.1885  -0.1814
    -0.1794  -0.1762  -0.1701  -0.1646  -0.1478  -0.1290  -0.1288  -0.1258
    -0.1255  -0.1253  -0.1220  -0.1130  -0.1065  -0.1014  -0.0913  -0.0897
    -0.0699  -0.0698  -0.0545  -0.0455  -0.0329  -0.0070  -0.0054  -0.0041
     0.0132   0.0208   0.0309   0.0383   0.0555   0.0620   0.0624   0.0880
     0.0935   0.1024   0.1054   0.1074   0.1183   0.1348   0.1400   0.1485
     0.1572   0.1619   0.1685   0.1981   0.2085   0.2152   0.2241   0.2306
     0.2704   0.2733   0.2906   0.3024   0.3179   0.3289   0.3586   0.3590
     0.3610   0.3708   0.3739   0.3747   0.3791   0.3859   0.3956   0.3973
     0.3982   0.4005   0.4180   0.4227   0.4247   0.4270   0.4355   0.4357
     0.4445   0.4457   0.4639   0.4753   0.4808   0.4976   0.5016   0.5031
     0.5082   0.5146   0.5231   0.5247   0.5254   0.5264   0.5277   0.5340
     0.5408   0.5439   0.5570   0.5624   0.5643   0.5702   0.5742   0.5868
     0.5880   0.5888   0.5961   0.5995   0.6031   0.6167   0.6169   0.6339
     0.6355   0.6519   0.6637   0.6660   0.6681   0.6696   0.6788   0.6796
     0.6812   0.6845   0.6906   0.6920   0.6943   0.7154   0.7158   0.7323
     0.7391   0.7409   0.7501   0.7512   0.7548   0.7597   0.7649   0.7694
     0.7709   0.7779   0.7854   0.7969   0.7977   0.8005   0.8012   0.8135
     0.8211   0.8220   0.8264   0.8314   0.8321   0.8326   0.8439   0.8452
     0.8486   0.8537   0.8617   0.8695   0.8769   0.8809   0.8885   0.8983
     0.9054   0.9130   0.9137   0.9140   0.9213   0.9247   0.9392   0.9446
     0.9480   0.9521   0.9587   0.9603   0.9825   0.9869   0.9902   0.9944
     0.9976   1.0042   1.0116   1.0229   1.0305   1.0340   1.0479   1.0480
     1.0550   1.0702   1.0818   1.0898   1.0912   1.1090   1.1203   1.1218
     1.1334   1.1379   1.1392   1.1393   1.1465   1.1488   1.1495   1.1535
     1.1582   1.1671   1.1741   1.1766   1.1766   1.1814   1.1829   1.1886
     1.1900   1.1906   1.2071   1.2119   1.2165   1.2207   1.2219   1.2638
     1.2676   1.2974   1.3035   1.3161   1.3207   1.3406   1.3447   1.3469
     1.4158   1.4438   1.4545   1.4886   1.4892   1.5061   1.5081   1.5277
     1.5286   1.5332   1.5340   1.5391   1.5428   1.5467   1.5805   1.6193
     1.6390   1.6430   1.6459   1.6537   1.6663   1.6822   1.7000   1.7018
     1.7242   1.7328   1.7386   1.7520   1.7692   1.7757   1.7877   1.8326
     1.8418   1.8420   1.8524   1.8592   1.8595   1.8773   1.8777   1.8851
     1.9221   1.9375   1.9399   1.9575   1.9950   2.0117   2.0347   2.0418
     2.0420   2.0910   2.1303   2.1485   2.1690   2.1769   2.1867   2.2242
     2.2451   2.2496   2.3014   2.3039   2.3070   2.3094   2.3161   2.3214
     2.3397   2.3837   2.4013   2.4057   2.4060   2.4307   2.4527   2.4848
     2.4906   2.5126   2.6268   2.6723   2.8316   2.8460   2.8765   2.8907
     3.0104   3.0298   3.0546   3.0718   3.5270   3.5674   3.6134   3.6487
     4.8419   5.0390   5.1078   5.1232   5.1348   5.2290   5.2330   5.2445
     5.2482   5.4423   5.4595   5.4964   5.5494   5.6112   5.8302   5.8477
     5.9230   5.9429   5.9447   6.0001   6.0285   6.0319   6.0366   6.0426
     6.0536   6.0553   6.1119   6.1145   6.1748   6.2067   6.2207   6.2227
     6.2630   6.2953   6.3047   6.3670   6.3689   6.3869   6.4076   6.4202
     6.4425   6.5059   6.5166   6.5276   6.5630   6.6242   6.6342   6.6620
     6.8203   6.8411   6.8677   6.8751   6.8898   6.9001   6.9093   6.9541
     7.0224   7.0412   7.0746   7.0794   7.1258   7.1489   7.1504   7.1521
     7.1695   7.1857   7.1863   7.1897   7.2033   7.2364   7.2557   7.2753
     7.3069   7.3244   7.3783   7.4155   7.4177   7.4382   7.4547   7.4987
     7.5453   7.5553   7.5980   7.6063   7.6376   7.6597   7.6669   7.6906
     7.7033   7.7232   7.7463   7.7497   7.7700   7.7770   7.7844   7.8102
     7.8209   7.8827   7.9196   7.9296   7.9855   7.9943   7.9962   8.0339
     8.0410   8.0605   8.0784   8.0864   8.0925   8.1010   8.1050   8.1099
     8.1286   8.1509   8.1549   8.1661   8.1922   8.2052   8.2312   8.2624
     8.2692   8.2874   8.2968   8.3327   8.3782   8.3931   8.4035   8.4101
     8.4141   8.4222   8.4364   8.4375   8.4555   8.4572   8.4679   8.4971
     8.5071   8.5114   8.5380   8.5489   8.5696   8.5709   8.5752   8.6404
     8.6569   8.6938

          k =-0.4652-0.0000 0.0000 (314644 PWs)   bands (ev):

   -38.9756 -38.9494 -38.9461 -38.9419 -38.9396 -38.9251 -38.9234 -38.8979
   -38.8616 -38.8584 -38.8491 -38.8465 -38.8363 -38.8353 -36.5167 -36.4230
   -23.5553 -23.5421 -23.5279 -23.4962 -23.4895 -23.4848 -23.4821 -23.4812
   -23.4767 -23.4707 -23.4626 -23.4512 -23.3955 -23.3937 -23.3917 -23.3866
   -23.3791 -23.3775 -23.3727 -23.3668 -23.3483 -23.3471 -23.3413 -23.3329
   -23.3300 -23.3044 -23.2965 -23.2848 -23.2227 -23.1868 -23.1032 -22.9224
   -19.5550 -19.4827 -19.4769 -19.4671 -19.4528 -19.4251 -19.3962 -19.3905
   -19.3894 -19.3737 -19.3485 -19.3480 -19.3381 -19.3023 -19.2858 -19.2787
   -19.2662 -19.2622 -19.2598 -19.2546 -19.2501 -19.1949 -19.1901 -19.1739
   -19.1736 -19.1721 -19.1567 -19.1476 -19.1147 -19.0955 -19.0874 -19.0708
   -19.0669 -19.0634 -19.0261 -19.0067 -18.9968 -18.9839 -18.9816 -18.9438
   -18.9065 -18.8535 -17.7745 -17.7478 -17.7419 -17.6835 -17.6524 -17.6510
   -16.1112 -16.0506 -15.9235 -15.8634 -15.8526 -15.7980 -15.7177 -15.6656
   -15.5937 -15.5759 -15.5401 -15.5242 -15.5192 -15.4986 -15.4952 -15.4587
   -15.4348 -15.4281 -15.4041 -15.3917 -15.3725 -15.3624 -15.3601 -15.3530
   -15.3405 -15.3276 -15.3240 -15.3138 -15.3037 -15.2974 -15.2821 -15.2691
   -15.2523 -15.2464 -15.2225 -15.2187 -15.1860 -15.1843 -15.1721 -15.1644
   -15.1618 -15.1601 -15.1477 -15.1456 -15.1350 -15.1346 -15.1310 -15.1160
   -15.1140 -15.1121 -15.0908 -15.0880 -15.0817 -15.0774 -15.0450 -15.0342
   -15.0305 -15.0294 -15.0268 -15.0171 -15.0147 -15.0101 -14.9983 -14.9966
   -14.9745 -14.9712 -14.9567 -14.9503 -14.9476 -14.9419 -14.9298 -14.9243
   -14.9099 -14.9007 -14.8953 -14.8927 -14.8777 -14.8754 -14.8718 -14.8531
   -14.8380 -14.8235 -14.8230 -14.8219 -14.8084 -14.7725 -14.7473 -14.7433
   -14.6041 -14.5995 -14.5870 -14.5829 -14.5825 -14.5810 -14.5757 -14.5641
   -14.5636 -14.5540 -14.5326 -14.5291 -14.5142 -14.5103 -14.4968 -14.4922
   -14.4901 -14.4763 -14.4697 -14.4166 -14.3833 -14.3491 -14.3389 -14.3168
   -13.4325 -13.4198 -13.3435 -13.3432 -13.2814 -13.2804 -13.2404 -13.1643
    -9.3215  -9.3081  -9.1648  -9.0417  -9.0360  -9.0323  -9.0277  -9.0224
    -9.0185  -8.9799  -8.9572  -8.9242  -8.8899  -8.8857  -8.8812  -8.8722
    -8.8680  -8.8648  -8.8587  -8.8205  -8.8040  -8.7971  -8.7848  -8.7814
    -8.7813  -8.7793  -8.7732  -8.7719  -8.7692  -8.7616  -8.7607  -8.7588
    -8.7499  -8.7436  -8.7398  -8.7308  -8.7285  -8.7232  -8.7202  -8.7176
    -8.7174  -8.7154  -8.7091  -8.7085  -8.7064  -8.7040  -8.7034  -8.7034
    -8.6944  -8.6938  -8.6893  -8.6890  -8.6789  -8.6722  -8.6284  -8.5986
    -8.5962  -8.5717  -8.5477  -8.5368  -8.5337  -8.5325  -8.5318  -8.5216
    -8.5112  -8.4975  -8.4906  -8.4774  -8.4711  -8.4575  -8.4532  -8.4224
    -8.4191  -8.4054  -8.4015  -8.3830  -8.3759  -8.3649  -8.3558  -8.3510
    -8.3465  -8.3425  -8.3333  -8.3327  -8.3311  -8.3130  -8.2784  -8.2332
    -8.2285  -8.2052  -8.1791  -8.1706  -8.1548  -8.1475  -7.9382  -7.9359
    -4.7653  -4.6963  -4.3468  -4.2929  -4.2751  -4.2713  -4.2291  -4.2060
    -4.1757  -4.1512  -3.9313  -3.9045  -3.8775  -3.8339  -3.8071  -3.7748
    -3.6499  -3.6322  -3.6103  -3.5923  -3.5810  -3.5528  -3.5461  -3.5279
    -3.5097  -3.5012  -3.4841  -3.4710  -3.4631  -3.3799  -3.3573  -3.3531
    -3.2860  -3.2616  -3.1561  -3.1470  -3.1255  -3.0941  -3.0845  -3.0812
    -3.0745  -3.0723  -3.0689  -3.0659  -3.0567  -3.0466  -2.9950  -2.9900
[...]
     atom   58 type  5   force =     0.00054160    0.00000000   -0.00550542
     atom   59 type  5   force =    -0.00054160    0.00000000   -0.00550542
     atom   60 type  5   force =     0.00000000    0.00000000   -0.00477308
     atom   61 type  5   force =     0.00000000    0.00000000   -0.00525778
     atom   62 type  5   force =     0.00000000    0.00000000   -0.00525778
     atom   63 type  5   force =     0.00000000    0.00038359   -0.00550582
     atom   64 type  5   force =     0.00000000   -0.00038359   -0.00550582
     atom   65 type  4   force =    -0.00053261   -0.00022421    0.00379472
     atom   66 type  4   force =    -0.00053261    0.00022421    0.00379472
     atom   67 type  4   force =     0.00053261   -0.00022421    0.00379472
     atom   68 type  4   force =     0.00053261    0.00022421    0.00379472
     atom   69 type  4   force =     0.00000000   -0.00007483    0.00336237
     atom   70 type  4   force =     0.00000000    0.00007483    0.00336237
     atom   71 type  4   force =     0.00004514   -0.00021316    0.00579007
     atom   72 type  4   force =     0.00004514    0.00021316    0.00579007
     atom   73 type  4   force =    -0.00004514    0.00021316    0.00579007
     atom   74 type  4   force =    -0.00004514   -0.00021316    0.00579007
     atom   75 type  4   force =     0.00040506    0.00000000    0.00645055
     atom   76 type  4   force =    -0.00040506    0.00000000    0.00645055
     atom   77 type  4   force =     0.00000000   -0.00115703    0.00496969
     atom   78 type  4   force =     0.00000000    0.00115703    0.00496969
     atom   79 type  4   force =     0.00108061    0.00000000    0.00589434
     atom   80 type  4   force =    -0.00108061    0.00000000    0.00589434
     atom   81 type  3   force =    -0.00022954    0.00012960   -0.00161569
     atom   82 type  3   force =    -0.00022954   -0.00012960   -0.00161569
     atom   83 type  3   force =     0.00022954    0.00012960   -0.00161569
     atom   84 type  3   force =     0.00022954   -0.00012960   -0.00161569
     atom   85 type  3   force =    -0.00013312    0.00009135   -0.00257801
     atom   86 type  3   force =     0.00013312    0.00009135   -0.00257801
     atom   87 type  3   force =     0.00013312   -0.00009135   -0.00257801
     atom   88 type  3   force =    -0.00013312   -0.00009135   -0.00257801
     atom   89 type  1   force =     0.00000000    0.00000000    0.00746148
     atom   90 type  1   force =     0.00000000   -0.00054079    0.01506953
     atom   91 type  1   force =     0.00000000    0.00054079    0.01506953
     atom   92 type  1   force =     0.00084508    0.00000000    0.01327118
     atom   93 type  1   force =    -0.00084508    0.00000000    0.01327118
     atom   94 type  1   force =     0.00000000    0.00000000    0.01668182
     atom   95 type  1   force =     0.00000000    0.00000000    0.01668182
     atom   96 type  1   force =     0.00000000    0.00000000    0.01680984
     atom   97 type  4   force =     0.00080624    0.00027184   -0.01729071
     atom   98 type  4   force =     0.00080624   -0.00027184   -0.01729071
     atom   99 type  4   force =    -0.00080624    0.00027184   -0.01729071
     atom  100 type  4   force =    -0.00080624   -0.00027184   -0.01729071
     atom  101 type  4   force =    -0.00266136   -0.00051872   -0.01805655
     atom  102 type  4   force =     0.00266136   -0.00051872   -0.01805655
     atom  103 type  4   force =     0.00266136    0.00051872   -0.01805655
     atom  104 type  4   force =    -0.00266136    0.00051872   -0.01805655
     atom  105 type  4   force =     0.00917500    0.00000000    0.02343193
     atom  106 type  4   force =    -0.00917500    0.00000000    0.02343193
     atom  107 type  3   force =    -0.01243929   -0.00481197   -0.02401122
     atom  108 type  3   force =    -0.01243929    0.00481197   -0.02401122
     atom  109 type  3   force =     0.01243929    0.00481197   -0.02401122
     atom  110 type  3   force =     0.01243929   -0.00481197   -0.02401122
     atom  111 type  3   force =    -0.00526018   -0.00041692   -0.02496297
     atom  112 type  3   force =     0.00526018    0.00041692   -0.02496297
     atom  113 type  3   force =    -0.00526018    0.00041692   -0.02496297
     atom  114 type  3   force =     0.00526018   -0.00041692   -0.02496297
     atom  115 type  4   force =     0.00195000   -0.00071554    0.01991227
     atom  116 type  4   force =    -0.00195000   -0.00071554    0.01991227
     atom  117 type  4   force =     0.00195000    0.00071554    0.01991227
     atom  118 type  4   force =    -0.00195000    0.00071554    0.01991227
     atom  119 type  4   force =    -0.01766719    0.00000000    0.02697880
     atom  120 type  4   force =     0.01766719    0.00000000    0.02697880
     atom  121 type  4   force =     0.00765946    0.00807963    0.02181456
     atom  122 type  4   force =    -0.00765946    0.00807963    0.02181456
     atom  123 type  4   force =    -0.00765946   -0.00807963    0.02181456
     atom  124 type  4   force =     0.00765946   -0.00807963    0.02181456
     atom  125 type  4   force =    -0.00213818    0.00077543    0.01847751
     atom  126 type  4   force =    -0.00213818   -0.00077543    0.01847751
     atom  127 type  4   force =     0.00213818    0.00077543    0.01847751
     atom  128 type  4   force =     0.00213818   -0.00077543    0.01847751
     atom  129 type  1   force =     0.00000000    0.00000000    0.00078769
     atom  130 type  1   force =     0.00000000    0.00000000    0.00077816
     atom  131 type  1   force =     0.00000000    0.00000000    0.00077816
     atom  132 type  1   force =    -0.00488374    0.00000000   -0.00604083
     atom  133 type  1   force =     0.00488374    0.00000000   -0.00604083
     atom  134 type  1   force =     0.00000000   -0.00558121   -0.00084698
     atom  135 type  1   force =     0.00000000    0.00558121   -0.00084698
     atom  136 type  1   force =     0.00000000    0.00000000   -0.01734831
     atom  137 type  3   force =     0.00033130    0.00100939   -0.02066612
     atom  138 type  3   force =     0.00033130   -0.00100939   -0.02066612
     atom  139 type  3   force =    -0.00033130   -0.00100939   -0.02066612
     atom  140 type  3   force =    -0.00033130    0.00100939   -0.02066612
     atom  141 type  3   force =    -0.00169763    0.00089464   -0.02163761
     atom  142 type  3   force =    -0.00169763   -0.00089464   -0.02163761
     atom  143 type  3   force =     0.00169763    0.00089464   -0.02163761
     atom  144 type  3   force =     0.00169763   -0.00089464   -0.02163761
     atom  145 type  4   force =    -0.00262693    0.00000000    0.00312493
     atom  146 type  4   force =     0.00262693    0.00000000    0.00312493
     atom  147 type  4   force =     0.00000000   -0.00221136    0.00528060
     atom  148 type  4   force =     0.00000000    0.00221136    0.00528060
     atom  149 type  4   force =    -0.00043578    0.00000000    0.00009601
     atom  150 type  4   force =     0.00043578    0.00000000    0.00009601
     atom  151 type  4   force =    -0.00076905   -0.00005724    0.00199812
     atom  152 type  4   force =     0.00076905   -0.00005724    0.00199812
     atom  153 type  4   force =     0.00076905    0.00005724    0.00199812
     atom  154 type  4   force =    -0.00076905    0.00005724    0.00199812
     atom  155 type  4   force =     0.00000000   -0.00210669    0.00317123
     atom  156 type  4   force =     0.00000000    0.00210669    0.00317123
     atom  157 type  4   force =    -0.00003442    0.00027471    0.00379503
     atom  158 type  4   force =     0.00003442   -0.00027471    0.00379503
     atom  159 type  4   force =    -0.00003442   -0.00027471    0.00379503
     atom  160 type  4   force =     0.00003442    0.00027471    0.00379503
     atom  161 type  2   force =     0.00000000    0.00000000   -0.00130945
     atom  162 type  5   force =    -0.00009003    0.00000000   -0.00000764
     atom  163 type  5   force =     0.00009003    0.00000000   -0.00000764
     atom  164 type  5   force =     0.00000000    0.00000000    0.00070656
     atom  165 type  5   force =     0.00000000    0.00000000   -0.00028771
     atom  166 type  5   force =     0.00000000    0.00000000   -0.00028771
     atom  167 type  5   force =     0.00000000   -0.00056389   -0.00070054
     atom  168 type  5   force =     0.00000000    0.00056389   -0.00070054
     atom  169 type  4   force =    -0.00028426   -0.00002174    0.00037482
     atom  170 type  4   force =    -0.00028426    0.00002174    0.00037482
     atom  171 type  4   force =     0.00028426   -0.00002174    0.00037482
     atom  172 type  4   force =     0.00028426    0.00002174    0.00037482
     atom  173 type  4   force =     0.00000000    0.00019038    0.00048767
     atom  174 type  4   force =     0.00000000   -0.00019038    0.00048767
     atom  175 type  4   force =    -0.00002582   -0.00003367   -0.00033202
     atom  176 type  4   force =    -0.00002582    0.00003367   -0.00033202
     atom  177 type  4   force =     0.00002582    0.00003367   -0.00033202
     atom  178 type  4   force =     0.00002582   -0.00003367   -0.00033202
     atom  179 type  4   force =    -0.00005457    0.00000000   -0.00073561
     atom  180 type  4   force =     0.00005457    0.00000000   -0.00073561
     atom  181 type  4   force =     0.00000000   -0.00014630    0.00023232
     atom  182 type  4   force =     0.00000000    0.00014630    0.00023232
     atom  183 type  4   force =    -0.00008566    0.00000000   -0.00039548
     atom  184 type  4   force =     0.00008566    0.00000000   -0.00039548
     atom  185 type  3   force =     0.00006403   -0.00007241    0.00032994
     atom  186 type  3   force =     0.00006403    0.00007241    0.00032994
     atom  187 type  3   force =    -0.00006403   -0.00007241    0.00032994
     atom  188 type  3   force =    -0.00006403    0.00007241    0.00032994
     atom  189 type  3   force =     0.00001506    0.00006736    0.00036116
     atom  190 type  3   force =    -0.00001506    0.00006736    0.00036116
     atom  191 type  3   force =    -0.00001506   -0.00006736    0.00036116
     atom  192 type  3   force =     0.00001506   -0.00006736    0.00036116
     atom  193 type  1   force =     0.00000000    0.00000000    0.00022926
     atom  194 type  1   force =     0.00000000   -0.00003444    0.00039862
     atom  195 type  1   force =     0.00000000    0.00003444    0.00039862
     atom  196 type  1   force =     0.00026298    0.00000000    0.00016389
     atom  197 type  1   force =    -0.00026298    0.00000000    0.00016389
     atom  198 type  1   force =     0.00000000    0.00000000    0.00026640
     atom  199 type  1   force =     0.00000000    0.00000000    0.00026640
     atom  200 type  1   force =     0.00000000    0.00000000    0.00022632
     atom  201 type  4   force =     0.00005982    0.00007233   -0.00236546
     atom  202 type  4   force =     0.00005982   -0.00007233   -0.00236546
     atom  203 type  4   force =    -0.00005982    0.00007233   -0.00236546
     atom  204 type  4   force =    -0.00005982   -0.00007233   -0.00236546
     atom  205 type  4   force =     0.00002742    0.00005102   -0.00210653
     atom  206 type  4   force =    -0.00002742    0.00005102   -0.00210653
     atom  207 type  4   force =    -0.00002742   -0.00005102   -0.00210653
     atom  208 type  4   force =     0.00002742   -0.00005102   -0.00210653
     atom  209 type  4   force =     0.00006384    0.00000000   -0.00008021
     atom  210 type  4   force =    -0.00006384    0.00000000   -0.00008021
     atom  211 type  3   force =     0.00008568   -0.00005154    0.00060911
     atom  212 type  3   force =     0.00008568    0.00005154    0.00060911
     atom  213 type  3   force =    -0.00008568    0.00005154    0.00060911
     atom  214 type  3   force =    -0.00008568   -0.00005154    0.00060911
     atom  215 type  3   force =     0.00000054   -0.00002906    0.00084572
     atom  216 type  3   force =    -0.00000054    0.00002906    0.00084572
     atom  217 type  3   force =     0.00000054    0.00002906    0.00084572
     atom  218 type  3   force =    -0.00000054   -0.00002906    0.00084572
     atom  219 type  4   force =    -0.00010346    0.00022037   -0.00000418
     atom  220 type  4   force =     0.00010346    0.00022037   -0.00000418
     atom  221 type  4   force =    -0.00010346   -0.00022037   -0.00000418
     atom  222 type  4   force =     0.00010346   -0.00022037   -0.00000418
     atom  223 type  4   force =    -0.00010944    0.00000000    0.00005185
     atom  224 type  4   force =     0.00010944    0.00000000    0.00005185

     Total force =     0.153818     Total SCF correction =     0.000342


     Computing stress (Cartesian axis) and pressure


     negative rho (up, down):  6.348E-01 0.000E+00
          total   stress  (Ry/bohr**3)                   (kbar)     P=       -6.13
  -0.00000349   0.00000000   0.00000000           -0.51        0.00        0.00
   0.00000000  -0.00009694   0.00000000            0.00      -14.26        0.00
   0.00000000   0.00000000  -0.00002451            0.00        0.00       -3.61

 
     init_run     :     60.04s CPU     63.56s WALL (       1 calls)
     electrons    :   5807.83s CPU   6059.29s WALL (       1 calls)
     forces       :     36.01s CPU     38.45s WALL (       1 calls)
     stress       :    410.26s CPU    415.35s WALL (       1 calls)

     Called by init_run:
     wfcinit      :     48.00s CPU     49.57s WALL (       1 calls)
     potinit      :      1.76s CPU      1.84s WALL (       1 calls)
     hinit0       :      3.16s CPU      3.37s WALL (       1 calls)

     Called by electrons:
     c_bands      :   4897.68s CPU   5001.22s WALL (      47 calls)
     sum_band     :    629.22s CPU    711.78s WALL (      47 calls)
     v_of_rho     :     14.23s CPU     14.99s WALL (      48 calls)
     newd         :    100.66s CPU    165.54s WALL (      48 calls)
     mix_rho      :    166.16s CPU    167.31s WALL (      47 calls)

     Called by c_bands:
     init_us_2    :     16.83s CPU     17.31s WALL (     388 calls)
     cegterg      :   4792.27s CPU   4887.73s WALL (     188 calls)

     Called by sum_band:
     sum_band:bec :      4.39s CPU      4.41s WALL (     188 calls)
     addusdens    :     95.16s CPU    172.03s WALL (      47 calls)

     Called by *egterg:
     h_psi        :   1905.14s CPU   1939.41s WALL (    1423 calls)
     s_psi        :    544.08s CPU    556.03s WALL (    1423 calls)
     g_psi        :      2.70s CPU      2.72s WALL (    1231 calls)
     cdiaghg      :    971.76s CPU    975.43s WALL (    1419 calls)

     Called by h_psi:
     h_psi:calbec :    621.35s CPU    625.21s WALL (    1423 calls)
     vloc_psi     :    734.86s CPU    743.12s WALL (    1423 calls)
     add_vuspsi   :    544.67s CPU    556.82s WALL (    1423 calls)

     General routines
     calbec       :    940.79s CPU    945.98s WALL (    1631 calls)
     fft          :     14.58s CPU     14.89s WALL (     647 calls)
     ffts         :     98.74s CPU     99.34s WALL (   37901 calls)
     fftw         :    829.92s CPU    838.95s WALL ( 1068188 calls)
     interpolate  :      1.23s CPU      1.24s WALL (      48 calls)
 
     Parallel routines
     fft_scatt_xy :    104.32s CPU    105.45s WALL ( 1106736 calls)
     fft_scatt_yz :    577.40s CPU    583.74s WALL ( 1106736 calls)
 
     PWSCF        :      1h45m CPU      1h49m WALL

 
   This run was terminated on:  23: 4:43  18May2021            

=------------------------------------------------------------------------------=
   JOB DONE.
=------------------------------------------------------------------------------=
[1621393483.339605] [holy7c08104:225405:0]          mpool.c:43   UCX  WARN  object 0x6b80ac0 was not returned to mpool ucp_requests
[1621393483.342431] [holy7c08104:225413:0]          mpool.c:43   UCX  WARN  object 0x46ef9c0 was not returned to mpool ucp_requests
[1621393483.341355] [holy7c08111:39476:0]          mpool.c:43   UCX  WARN  object 0x3be42c0 was not returned to mpool ucp_requests
[1621393483.331295] [holy7c08106:114515:0]          mpool.c:43   UCX  WARN  object 0x2e98380 was not returned to mpool ucp_requests
[1621393483.347761] [holy7c08108:168847:0]          mpool.c:43   UCX  WARN  object 0x2f49e80 was not returned to mpool ucp_requests
[1621393483.346160] [holy7c08104:225412:0]          mpool.c:43   UCX  WARN  object 0x2bfbdc0 was not returned to mpool ucp_requests
[1621393483.349307] [holy7c08104:225411:0]          mpool.c:43   UCX  WARN  object 0x3df7240 was not returned to mpool ucp_requests
[1621393483.345669] [holy7c08111:39481:0]          mpool.c:43   UCX  WARN  object 0x388d1c0 was not returned to mpool ucp_requests
[1621393483.347303] [holy7c08111:39473:0]          mpool.c:43   UCX  WARN  object 0x38ead00 was not returned to mpool ucp_requests
[1621393483.347394] [holy7c08111:39475:0]          mpool.c:43   UCX  WARN  object 0x577a540 was not returned to mpool ucp_requests
[1621393483.348193] [holy7c08111:39484:0]          mpool.c:43   UCX  WARN  object 0x2f67ec0 was not returned to mpool ucp_requests
[1621393483.353549] [holy7c08111:39482:0]          mpool.c:43   UCX  WARN  object 0x463b2c0 was not returned to mpool ucp_requests
[1621393483.353416] [holy7c08111:39474:0]          mpool.c:43   UCX  WARN  object 0x3cde5c0 was not returned to mpool ucp_requests
[1621393483.354021] [holy7c08111:39483:0]          mpool.c:43   UCX  WARN  object 0x3e93d40 was not returned to mpool ucp_requests
[1621393483.355407] [holy7c08104:225414:0]          mpool.c:43   UCX  WARN  object 0x474bb00 was not returned to mpool ucp_requests
[1621393483.338956] [holy7c08106:114516:0]          mpool.c:43   UCX  WARN  object 0x3d63a80 was not returned to mpool ucp_requests
[1621393483.339915] [holy7c08106:114524:0]          mpool.c:43   UCX  WARN  object 0x45d57c0 was not returned to mpool ucp_requests
[1621393483.344236] [holy7c08106:114523:0]          mpool.c:43   UCX  WARN  object 0x3779100 was not returned to mpool ucp_requests
[1621393483.345538] [holy7c08106:114517:0]          mpool.c:43   UCX  WARN  object 0x3d47bc0 was not returned to mpool ucp_requests
[1621393483.346893] [holy7c08106:114525:0]          mpool.c:43   UCX  WARN  object 0x2c88300 was not returned to mpool ucp_requests
[1621393483.345757] [holy7c08106:114518:0]          mpool.c:43   UCX  WARN  object 0x2a136c0 was not returned to mpool ucp_requests
[1621393483.349415] [holy7c08108:168855:0]          mpool.c:43   UCX  WARN  object 0x29e1940 was not returned to mpool ucp_requests
[1621393483.353276] [holy7c08108:168845:0]          mpool.c:43   UCX  WARN  object 0x32d05c0 was not returned to mpool ucp_requests
[1621393483.357779] [holy7c08108:168853:0]          mpool.c:43   UCX  WARN  object 0x2cc9ac0 was not returned to mpool ucp_requests
[1621393483.352041] [holy7c08108:168848:0]          mpool.c:43   UCX  WARN  object 0x3078a00 was not returned to mpool ucp_requests
[1621393483.355583] [holy7c08108:168856:0]          mpool.c:43   UCX  WARN  object 0x2ea7940 was not returned to mpool ucp_requests
[1621393483.358827] [holy7c08104:225406:0]          mpool.c:43   UCX  WARN  object 0x4280540 was not returned to mpool ucp_requests
[1621393483.362828] [holy7c08104:225404:0]          mpool.c:43   UCX  WARN  object 0x329c480 was not returned to mpool ucp_requests
[1621393483.361252] [holy7c08108:168846:0]          mpool.c:43   UCX  WARN  object 0x5f47c80 was not returned to mpool ucp_requests
[1621393483.360292] [holy7c08108:168840:0]          mpool.c:43   UCX  WARN  object 0x43f3c40 was not returned to mpool ucp_requests
[1621393483.366866] [holy7c08108:168854:0]          mpool.c:43   UCX  WARN  object 0x3c1da00 was not returned to mpool ucp_requests
[1621393483.366888] [holy7c08108:168854:0]          mpool.c:43   UCX  WARN  object 0x3c25f00 was not returned to mpool ucp_requests
