
     Program PWSCF v.6.5 starts on 17May2021 at 18:15:50 

     This program is part of the open-source Quantum ESPRESSO suite
     for quantum simulation of materials; please cite
         "P. Giannozzi et al., J. Phys.:Condens. Matter 21 395502 (2009);
         "P. Giannozzi et al., J. Phys.:Condens. Matter 29 465901 (2017);
          URL http://www.quantum-espresso.org", 
     in publications or presentations arising from this work. More details at
     http://www.quantum-espresso.org/quote

     Parallel version (MPI), running on    80 processors

     MPI processes distributed on     5 nodes
     R & G space division:  proc/nbgrp/npool/nimage =      80
     Reading input from YBCO_Y_cleave_1.0_sep.pwi
Warning: card &IONS ignored
Warning: card     ION_DYNAMICS = 'BFGS' ignored
Warning: card / ignored
Warning: card &CELL ignored
Warning: card     CELL_DYNAMICS = 'BFGS' ignored
Warning: card     PRESS_CONV_THR = 5 ignored
Warning: card / ignored

     Current dimensions of program PWSCF are:
     Max number of different atomic species (ntypx) = 10
     Max number of k-points (npk) =  40000
     Max angular momentum in pseudopotentials (lmaxx) =  3
     Message from routine volume:
     axis vectors are left-handed

     Subspace diagonalization in iterative solution of the eigenvalue problem:
     one sub-group per band group will be used
     scalapack distributed-memory algorithm (size of sub-group:  8*  8 procs)

     Message from routine setup:
     using ibrav=0 with symmetry is DISCOURAGED, use correct ibrav instead
 
     Parallelization info
     --------------------
     sticks:   dense  smooth     PW     G-vecs:    dense   smooth      PW
     Min         300     100     25               144060    27722    3639
     Max         301     101     26               144093    27745    3676
     Sum       24079    8031   2067             11526673  2218529  293173
 


     bravais-lattice index     =            0
     lattice parameter (alat)  =      20.5021  a.u.
     unit-cell volume          =   35329.4303 (a.u.)^3
     number of atoms/cell      =          224
     number of atomic types    =            5
     number of electrons       =      1830.00
     number of Kohn-Sham states=         1098
     kinetic-energy cutoff     =      60.0000  Ry
     charge density cutoff     =     720.0000  Ry
     convergence threshold     =      1.0E-08
     mixing beta               =       0.5000
     number of iterations used =           10  local-TF  mixing
     Exchange-correlation= SLA PW PBE PBE
                           (   1   4   3   4   0   0   0)

     celldm(1)=  20.502120  celldm(2)=   0.000000  celldm(3)=   0.000000
     celldm(4)=   0.000000  celldm(5)=   0.000000  celldm(6)=   0.000000

     crystal axes: (cart. coord. in units of alat)
               a(1) = (  -0.716599   0.697485   0.000000 )  
               a(2) = (   0.716599   0.697485   0.000000 )  
               a(3) = (   0.000000   0.000000   4.101087 )  

     reciprocal axes: (cart. coord. in units 2 pi/alat)
               b(1) = ( -0.697740  0.716861  0.000000 )  
               b(2) = (  0.697740  0.716861  0.000000 )  
               b(3) = (  0.000000  0.000000  0.243838 )  


     PseudoPot. # 1 for Ba read from file:
     ./pseudo/Ba.pbe-nsp-van.UPF
     MD5 check sum: 2b9c31dd849566dd297d80989662b7a0
     Pseudo is Ultrasoft + core correction, Zval = 10.0
     Generated by new atomic code, or converted to UPF format
     Using radial grid of  907 points,  6 beta functions with: 
                l(1) =   0
                l(2) =   0
                l(3) =   1
                l(4) =   1
                l(5) =   2
                l(6) =   2
     Q(r) pseudized with  6 coefficients,  rinner =    1.200   1.200   1.200
                                                       1.200   1.200

     PseudoPot. # 2 for Ca read from file:
     ./pseudo/Ca.pbe-nsp-van.UPF
     MD5 check sum: 6471098428ff4fa451746d08035ff179
     Pseudo is Ultrasoft + core correction, Zval = 10.0
     Generated by new atomic code, or converted to UPF format
     Using radial grid of  845 points,  6 beta functions with: 
                l(1) =   0
                l(2) =   0
                l(3) =   1
                l(4) =   1
                l(5) =   2
                l(6) =   2
     Q(r) pseudized with  6 coefficients,  rinner =    1.200   1.200   1.200
                                                       1.200   1.200

     PseudoPot. # 3 for Cu read from file:
     ./pseudo/Cu.pbe-n-van_ak.UPF
     MD5 check sum: 34e3282627ffb533726feb647e090d62
     Pseudo is Ultrasoft + core correction, Zval = 11.0
     Generated by new atomic code, or converted to UPF format
     Using radial grid of  867 points,  6 beta functions with: 
                l(1) =   0
                l(2) =   0
                l(3) =   1
                l(4) =   1
                l(5) =   2
                l(6) =   2
     Q(r) pseudized with  8 coefficients,  rinner =    1.400   1.400   1.400
                                                       1.400   1.400

     PseudoPot. # 4 for O  read from file:
     ./pseudo/O.pbe-van_ak.UPF
     MD5 check sum: 783ce7fe4c79b6a4916957118fed0856
     Pseudo is Ultrasoft, Zval =  6.0
     Generated by new atomic code, or converted to UPF format
     Using radial grid of  737 points,  4 beta functions with: 
                l(1) =   0
                l(2) =   0
                l(3) =   1
                l(4) =   1
     Q(r) pseudized with  8 coefficients,  rinner =    0.800   0.800   0.800


     PseudoPot. # 5 for Y  read from file:
     ./pseudo/Y.pbe-nsp-van.UPF
     MD5 check sum: 4412fed3ab108fed87a1b7d6a69a4a38
     Pseudo is Ultrasoft + core correction, Zval = 11.0
     Generated by new atomic code, or converted to UPF format
     Using radial grid of  885 points,  6 beta functions with: 
                l(1) =   0
                l(2) =   0
                l(3) =   1
                l(4) =   1
                l(5) =   2
                l(6) =   2
     Q(r) pseudized with  6 coefficients,  rinner =    1.200   1.200   1.200
                                                       1.200   1.200

     atomic species   valence    mass     pseudopotential
        Ba            10.00   137.32700     Ba( 1.00)
        Ca            10.00    40.07800     Ca( 1.00)
        Cu            11.00    63.54600     Cu( 1.00)
        O              6.00    15.99900     O ( 1.00)
        Y             11.00    88.90584     Y ( 1.00)

      4 Sym. Ops. (no inversion) found ( 3 have fractional translation)



   Cartesian axes

     site n.     atom                  positions (alat units)
         1           O   tau(   1) = (   0.3545921   0.8718562  -0.0077406  )
         2           O   tau(   2) = (   0.0037072   0.8718562  -0.0077406  )
         3           Cu  tau(   3) = (  -0.0002581   0.0006065   0.0080789  )
         4           Cu  tau(   4) = (  -0.0002581   0.3481364   0.0080789  )
         5           Cu  tau(   5) = (   0.3585574   0.3481364   0.0080789  )
         6           Cu  tau(   6) = (  -0.3580421   0.6980913   0.0080789  )
         7           Cu  tau(   7) = (   0.3577988   0.6971373   0.0086255  )
         8           Cu  tau(   8) = (   0.0005005   1.0465760   0.0086255  )
         9           Cu  tau(   9) = (  -0.3588016   0.3490903   0.0086255  )
        10           Cu  tau(  10) = (   0.0005005   0.6971373   0.0086255  )
        11           O   tau(  11) = (  -0.0001733   0.5225410  -0.0089757  )
        12           O   tau(  12) = (   0.3584726   0.5225410  -0.0089757  )
        13           O   tau(  13) = (  -0.0001733   1.2211724  -0.0089757  )
        14           O   tau(  14) = (  -0.3581278   0.5236867  -0.0089757  )
        15           O   tau(  15) = (  -0.3544557   0.8718562  -0.0105593  )
        16           O   tau(  16) = (  -0.0038445   0.1743714  -0.0105593  )
        17           O   tau(  17) = (   0.3588818   0.3486599   0.1817056  )
        18           O   tau(  18) = (  -0.0005825   0.3486599   0.1817056  )
        19           O   tau(  19) = (  -0.0005825   0.0000830   0.1817056  )
        20           O   tau(  20) = (  -0.3577167   0.6975677   0.1817056  )
        21           O   tau(  21) = (   0.3584283   0.6967843   0.1825784  )
        22           O   tau(  22) = (  -0.3581712   0.3494443   0.1825784  )
        23           O   tau(  23) = (  -0.0001290   0.6967843   0.1825784  )
        24           O   tau(  24) = (  -0.0001290   1.0469291   0.1825784  )
        25           Ba  tau(  25) = (   0.1791506   0.8718562   0.1908537  )
        26           Ba  tau(  26) = (   0.5374498   0.5231143   0.1919901  )
        27           Ba  tau(  27) = (  -0.1791506   0.5231143   0.1919901  )
        28           Ba  tau(  28) = (  -0.1793773   0.8718562   0.1931958  )
        29           Ba  tau(  29) = (  -0.1789238   0.1743714   0.1931958  )
        30           Ba  tau(  30) = (   0.1791506   0.5222101   0.1929368  )
        31           Ba  tau(  31) = (  -0.5374498   0.5240176   0.1929368  )
        32           Ba  tau(  32) = (   0.1791506   0.1743714   0.1992469  )
        33           Cu  tau(  33) = (  -0.3583426   0.3488452   0.3777458  )
        34           Cu  tau(  34) = (   0.3582559   0.6973834   0.3777458  )
        35           Cu  tau(  35) = (   0.0000433   0.6973834   0.3777458  )
        36           Cu  tau(  36) = (   0.0000433   1.0463299   0.3777458  )
        37           Cu  tau(  37) = (  -0.3586541   0.6975060   0.3775126  )
        38           Cu  tau(  38) = (   0.3579444   0.3487217   0.3775126  )
        39           Cu  tau(  39) = (   0.0003549   0.0000212   0.3775126  )
        40           Cu  tau(  40) = (   0.0003549   0.3487217   0.3775126  )
        41           O   tau(  41) = (  -0.0047976   0.1743714   0.3996864  )
        42           O   tau(  42) = (  -0.3535026   0.8718562   0.3996864  )
        43           O   tau(  43) = (  -0.5374498   0.6924605   0.3956991  )
        44           O   tau(  44) = (   0.1791506   0.3537672   0.3956991  )
        45           O   tau(  45) = (   0.3586385   0.8718562   0.4046840  )
        46           O   tau(  46) = (  -0.0003392   0.8718562   0.4046840  )
        47           O   tau(  47) = (  -0.0004857   0.5230571   0.4066611  )
        48           O   tau(  48) = (   0.3587850   0.5230571   0.4066611  )
        49           O   tau(  49) = (  -0.3578135   0.5231714   0.4066611  )
        50           O   tau(  50) = (  -0.0004857   1.2206562   0.4066611  )
        51           O   tau(  51) = (   0.1791506   1.0461604   0.4028931  )
        52           O   tau(  52) = (   0.1791506   0.6975521   0.4028931  )
        53           O   tau(  53) = (  -0.1792261   0.6967170   0.4025963  )
        54           O   tau(  54) = (  -0.1790731   0.3495106   0.4025963  )
        55           O   tau(  55) = (  -0.1792261   1.0469964   0.4025963  )
        56           O   tau(  56) = (   0.5375263   0.6967170   0.4025963  )
        57           Ca  tau(  57) = (   0.1791506   0.1743714   0.5358617  )
        58           Y   tau(  58) = (  -0.1811525   0.8718562   0.5373908  )
        59           Y   tau(  59) = (  -0.1771467   0.1743714   0.5373908  )
        60           Y   tau(  60) = (   0.1791506   0.8718562   0.5379568  )
        61           Y   tau(  61) = (   0.5374498   0.5231143   0.5384490  )
        62           Y   tau(  62) = (  -0.1791506   0.5231143   0.5384490  )
        63           Y   tau(  63) = (   0.1791506   0.5216598   0.5383310  )
        64           Y   tau(  64) = (  -0.5374498   0.5245688   0.5383310  )
        65           O   tau(  65) = (  -0.1787754   0.3493171   0.6712314  )
        66           O   tau(  66) = (   0.5378231   0.6969115   0.6712314  )
        67           O   tau(  67) = (  -0.1795239   1.0468019   0.6712314  )
        68           O   tau(  68) = (  -0.1795239   0.6969115   0.6712314  )
        69           O   tau(  69) = (   0.1791506   0.6972691   0.6718637  )
        70           O   tau(  70) = (   0.1791506   1.0464433   0.6718637  )
        71           O   tau(  71) = (  -0.0003880   1.2203935   0.6667490  )
        72           O   tau(  72) = (  -0.0003880   0.5233198   0.6667490  )
        73           O   tau(  73) = (   0.3586882   0.5233198   0.6667490  )
        74           O   tau(  74) = (  -0.3579112   0.5229087   0.6667490  )
        75           O   tau(  75) = (   0.3585850   0.8718562   0.6641940  )
        76           O   tau(  76) = (  -0.0002857   0.8718562   0.6641940  )
        77           O   tau(  77) = (   0.1791506   0.3535118   0.6756778  )
        78           O   tau(  78) = (  -0.5374498   0.6927158   0.6756778  )
        79           O   tau(  79) = (  -0.0043044   0.1743714   0.6710848  )
        80           O   tau(  80) = (  -0.3539948   0.8718562   0.6710848  )
        81           Cu  tau(  81) = (  -0.3586514   0.6973604   0.6974442  )
        82           Cu  tau(  82) = (   0.3579472   0.3488682   0.6974442  )
        83           Cu  tau(  83) = (   0.0003521  -0.0001254   0.6974442  )
        84           Cu  tau(  84) = (   0.0003521   0.3488682   0.6974442  )
        85           Cu  tau(  85) = (   0.0000083   1.0459401   0.6989015  )
        86           Cu  tau(  86) = (  -0.3583076   0.3484544   0.6989015  )
        87           Cu  tau(  87) = (   0.3582910   0.6977733   0.6989015  )
        88           Cu  tau(  88) = (   0.0000083   0.6977733   0.6989015  )
        89           Ba  tau(  89) = (   0.1791506   0.1743714   0.8671591  )
        90           Ba  tau(  90) = (  -0.5374498   0.5239908   0.8827639  )
        91           Ba  tau(  91) = (   0.1791506   0.5222377   0.8827639  )
        92           Ba  tau(  92) = (  -0.1785616   0.1743714   0.8784262  )
        93           Ba  tau(  93) = (  -0.1797386   0.8718562   0.8784262  )
        94           Ba  tau(  94) = (  -0.1791506   0.5231143   0.8841483  )
        95           Ba  tau(  95) = (   0.5374498   0.5231143   0.8841483  )
        96           Ba  tau(  96) = (   0.1791506   0.8718562   0.8844635  )
        97           O   tau(  97) = (   0.3607888   0.6975991   0.9037874  )
        98           O   tau(  98) = (  -0.3558097   0.3486286   0.9037874  )
        99           O   tau(  99) = (  -0.0024896   0.6975991   0.9037874  )
       100           O   tau( 100) = (  -0.0024896   1.0461143   0.9037874  )
       101           O   tau( 101) = (   0.3544087   0.3463252   0.9043663  )
       102           O   tau( 102) = (   0.0038906   0.3463252   0.9043663  )
       103           O   tau( 103) = (   0.0038906   0.0024177   0.9043663  )
       104           O   tau( 104) = (  -0.3621908   0.6999025   0.9043663  )
       105           O   tau( 105) = (   0.3314246   0.8718562   1.0783672  )
       106           O   tau( 106) = (   0.0268747   0.8718562   1.0783672  )
       107           Cu  tau( 107) = (  -0.0027882   0.0031818   1.0782086  )
       108           Cu  tau( 108) = (  -0.0027882   0.3455601   1.0782086  )
       109           Cu  tau( 109) = (   0.3610875   0.3455601   1.0782086  )
       110           Cu  tau( 110) = (  -0.3555111   0.7006675   1.0782086  )
       111           Cu  tau( 111) = (   0.3579684   0.6983604   1.0781976  )
       112           Cu  tau( 112) = (   0.0003318   1.0453529   1.0781976  )
       113           Cu  tau( 113) = (  -0.3586320   0.3478672   1.0781976  )
       114           Cu  tau( 114) = (   0.0003318   0.6983604   1.0781976  )
       115           O   tau( 115) = (  -0.0055718   0.5218801   1.0778989  )
       116           O   tau( 116) = (   0.3638720   0.5218801   1.0778989  )
       117           O   tau( 117) = (  -0.0055718   1.2218333   1.0778989  )
       118           O   tau( 118) = (  -0.3527284   0.5243475   1.0778989  )
       119           O   tau( 119) = (  -0.3170374   0.8718562   1.0783192  )
       120           O   tau( 120) = (  -0.0412618   0.1743714   1.0783192  )
       121           O   tau( 121) = (   0.3544105   0.3465040   1.2520362  )
       122           O   tau( 122) = (   0.0038887   0.3465040   1.2520362  )
       123           O   tau( 123) = (   0.0038887   0.0022389   1.2520362  )
       124           O   tau( 124) = (  -0.3621880   0.6997236   1.2520362  )
       125           O   tau( 125) = (   0.3607981   0.6973991   1.2525976  )
       126           O   tau( 126) = (  -0.3558014   0.3488295   1.2525976  )
       127           O   tau( 127) = (  -0.0024988   0.6973991   1.2525976  )
       128           O   tau( 128) = (  -0.0024988   1.0463143   1.2525976  )
       129           Ba  tau( 129) = (   0.1791506   0.8718562   1.2719528  )
       130           Ba  tau( 130) = (   0.5374498   0.5231143   1.2722763  )
       131           Ba  tau( 131) = (  -0.1791506   0.5231143   1.2722763  )
       132           Ba  tau( 132) = (  -0.1796732   0.8718562   1.2779763  )
       133           Ba  tau( 133) = (  -0.1786270   0.1743714   1.2779763  )
       134           Ba  tau( 134) = (   0.1791506   0.5222571   1.2737041  )
       135           Ba  tau( 135) = (  -0.5374498   0.5239706   1.2737041  )
       136           Ba  tau( 136) = (   0.1791506   0.1743714   1.2892268  )
       137           Cu  tau( 137) = (  -0.3583094   0.3484682   1.4575232  )
       138           Cu  tau( 138) = (   0.3582901   0.6977604   1.4575232  )
       139           Cu  tau( 139) = (   0.0000101   0.6977604   1.4575232  )
       140           Cu  tau( 140) = (   0.0000101   1.0459530   1.4575232  )
       141           Cu  tau( 141) = (  -0.3586477   0.6973567   1.4589435  )
       142           Cu  tau( 142) = (   0.3579518   0.3488710   1.4589435  )
       143           Cu  tau( 143) = (   0.0003484  -0.0001281   1.4589435  )
       144           Cu  tau( 144) = (   0.0003484   0.3488710   1.4589435  )
       145           O   tau( 145) = (  -0.0043173   0.1743714   1.4852486  )
       146           O   tau( 146) = (  -0.3539819   0.8718562   1.4852486  )
       147           O   tau( 147) = (  -0.5374498   0.6927305   1.4807174  )
       148           O   tau( 148) = (   0.1791506   0.3534971   1.4807174  )
       149           O   tau( 149) = (   0.3585795   0.8718562   1.4921587  )
       150           O   tau( 150) = (  -0.0002802   0.8718562   1.4921587  )
       151           O   tau( 151) = (  -0.0003853   0.5233134   1.4896627  )
       152           O   tau( 152) = (   0.3586855   0.5233134   1.4896627  )
       153           O   tau( 153) = (  -0.3579140   0.5229152   1.4896627  )
       154           O   tau( 154) = (  -0.0003853   1.2204000   1.4896627  )
       155           O   tau( 155) = (   0.1791506   1.0464553   1.4845361  )
       156           O   tau( 156) = (   0.1791506   0.6972571   1.4845361  )
       157           O   tau( 157) = (  -0.1795146   0.6969069   1.4851647  )
       158           O   tau( 158) = (  -0.1787846   0.3493208   1.4851647  )
       159           O   tau( 159) = (  -0.1795146   1.0468065   1.4851647  )
       160           O   tau( 160) = (   0.5378139   0.6969069   1.4851647  )
       161           Ca  tau( 161) = (   0.1791506   0.1743714   1.6205270  )
       162           Y   tau( 162) = (  -0.1811544   0.8718562   1.6189960  )
       163           Y   tau( 163) = (  -0.1771449   0.1743714   1.6189960  )
       164           Y   tau( 164) = (   0.1791506   0.8718562   1.6184328  )
       165           Y   tau( 165) = (   0.5374498   0.5231143   1.6179637  )
       166           Y   tau( 166) = (  -0.1791506   0.5231143   1.6179637  )
       167           Y   tau( 167) = (   0.1791506   0.5216524   1.6180844  )
       168           Y   tau( 168) = (  -0.5374498   0.5245761   1.6180844  )
       169           O   tau( 169) = (  -0.1790685   0.3495088   1.8459711  )
       170           O   tau( 170) = (   0.5375300   0.6967198   1.8459711  )
       171           O   tau( 171) = (  -0.1792307   1.0469936   1.8459711  )
       172           O   tau( 172) = (  -0.1792307   0.6967198   1.8459711  )
       173           O   tau( 173) = (   0.1791506   0.6975604   1.8456743  )
       174           O   tau( 174) = (   0.1791506   1.0461521   1.8456743  )
       175           O   tau( 175) = (  -0.0004848   1.2206534   1.8419100  )
       176           O   tau( 176) = (  -0.0004848   0.5230599   1.8419100  )
       177           O   tau( 177) = (   0.3587841   0.5230599   1.8419100  )
       178           O   tau( 178) = (  -0.3578144   0.5231687   1.8419100  )
       179           O   tau( 179) = (   0.3586468   0.8718562   1.8438483  )
       180           O   tau( 180) = (  -0.0003466   0.8718562   1.8438483  )
       181           O   tau( 181) = (   0.1791506   0.3537690   1.8528711  )
       182           O   tau( 182) = (  -0.5374498   0.6924586   1.8528711  )
       183           O   tau( 183) = (  -0.0047874   0.1743714   1.8488358  )
       184           O   tau( 184) = (  -0.3535118   0.8718562   1.8488358  )
       185           Cu  tau( 185) = (  -0.3586560   0.6975087   1.8710419  )
       186           Cu  tau( 186) = (   0.3579435   0.3487198   1.8710419  )
       187           Cu  tau( 187) = (   0.0003567   0.0000230   1.8710419  )
       188           Cu  tau( 188) = (   0.0003567   0.3487198   1.8710419  )
       189           Cu  tau( 189) = (   0.0000415   1.0463263   1.8708096  )
       190           Cu  tau( 190) = (  -0.3583407   0.3488406   1.8708096  )
       191           Cu  tau( 191) = (   0.3582587   0.6973871   1.8708096  )
       192           Cu  tau( 192) = (   0.0000415   0.6973871   1.8708096  )
       193           Ba  tau( 193) = (   0.1791506   0.1743714   2.0493150  )
       194           Ba  tau( 194) = (  -0.5374498   0.5240166   2.0556242  )
       195           Ba  tau( 195) = (   0.1791506   0.5222119   2.0556242  )
       196           Ba  tau( 196) = (  -0.1789220   0.1743714   2.0553679  )
       197           Ba  tau( 197) = (  -0.1793773   0.8718562   2.0553679  )
       198           Ba  tau( 198) = (  -0.1791506   0.5231143   2.0565782  )
       199           Ba  tau( 199) = (   0.5374498   0.5231143   2.0565782  )
       200           Ba  tau( 200) = (   0.1791506   0.8718562   2.0577063  )
       201           O   tau( 201) = (   0.3584302   0.6967870   2.0659760  )
       202           O   tau( 202) = (  -0.3581684   0.3494406   2.0659760  )
       203           O   tau( 203) = (  -0.0001309   0.6967870   2.0659760  )
       204           O   tau( 204) = (  -0.0001309   1.0469263   2.0659760  )
       205           O   tau( 205) = (   0.3588800   0.3486562   2.0668489  )
       206           O   tau( 206) = (  -0.0005807   0.3486562   2.0668489  )
       207           O   tau( 207) = (  -0.0005807   0.0000866   2.0668489  )
       208           O   tau( 208) = (  -0.3577186   0.6975714   2.0668489  )
       209           O   tau( 209) = (   0.3545921   0.8718562   2.2562794  )
       210           O   tau( 210) = (   0.0037081   0.8718562   2.2562794  )
       211           Cu  tau( 211) = (  -0.0002516   0.0006074   2.2404756  )
       212           Cu  tau( 212) = (  -0.0002516   0.3481345   2.2404756  )
       213           Cu  tau( 213) = (   0.3585509   0.3481345   2.2404756  )
       214           Cu  tau( 214) = (  -0.3580476   0.6980931   2.2404756  )
       215           Cu  tau( 215) = (   0.3577960   0.6971373   2.2399290  )
       216           Cu  tau( 216) = (   0.0005033   1.0465760   2.2399290  )
       217           Cu  tau( 217) = (  -0.3588035   0.3490903   2.2399290  )
       218           Cu  tau( 218) = (   0.0005033   0.6971373   2.2399290  )
       219           O   tau( 219) = (  -0.0001724   0.5225410   2.2575182  )
       220           O   tau( 220) = (   0.3584716   0.5225410   2.2575182  )
       221           O   tau( 221) = (  -0.0001724   1.2211724   2.2575182  )
       222           O   tau( 222) = (  -0.3581288   0.5236867   2.2575182  )
       223           O   tau( 223) = (  -0.3544640   0.8718562   2.2591082  )
       224           O   tau( 224) = (  -0.0038353   0.1743714   2.2591082  )

     number of k points=     4  Gaussian smearing, width (Ry)=  0.0100
                       cart. coord. in units 2pi/alat
        k(    1) = (   0.0000000   0.0000000   0.0000000), wk =   0.2222222
        k(    2) = (   0.2325801   0.2389537   0.0000000), wk =   0.8888889
        k(    3) = (   0.0000000   0.4779073   0.0000000), wk =   0.4444444
        k(    4) = (  -0.4651601  -0.0000000   0.0000000), wk =   0.4444444

     Dense  grid: 11526673 G-vectors     FFT dimensions: ( 180, 180, 720)

     Smooth grid:  2218529 G-vectors     FFT dimensions: ( 108, 108, 432)

     Estimated max dynamical RAM per process >       2.41 GB

     Estimated total dynamical RAM >     192.54 GB

     Initial potential from superposition of free atoms

     starting charge 1828.78422, renormalised to 1830.00000

     negative rho (up, down):  6.319E-01 0.000E+00
     Starting wfcs are 1602 randomized atomic wfcs

     total cpu time spent up to now is       59.5 secs

     Self-consistent Calculation

     iteration #  1     ecut=    60.00 Ry     beta= 0.50
     Davidson diagonalization with overlap
     ethr =  1.00E-02,  avg # of iterations =  2.0

     negative rho (up, down):  5.976E-01 0.000E+00

     total cpu time spent up to now is      161.7 secs

     total energy              =  -14912.95346825 Ry
     Harris-Foulkes estimate   =  -14942.52828773 Ry
     estimated scf accuracy    <     111.21990230 Ry

     iteration #  2     ecut=    60.00 Ry     beta= 0.50
     Davidson diagonalization with overlap
     ethr =  6.08E-03,  avg # of iterations =  2.0

     negative rho (up, down):  5.955E-01 0.000E+00

     total cpu time spent up to now is      259.5 secs

     total energy              =  -14922.45043661 Ry
     Harris-Foulkes estimate   =  -14926.10755887 Ry
     estimated scf accuracy    <      19.67591271 Ry

     iteration #  3     ecut=    60.00 Ry     beta= 0.50
     Davidson diagonalization with overlap
     ethr =  1.08E-03,  avg # of iterations =  2.0

     negative rho (up, down):  5.972E-01 0.000E+00

     total cpu time spent up to now is      357.6 secs

     total energy              =  -14923.94215011 Ry
     Harris-Foulkes estimate   =  -14924.91466284 Ry
     estimated scf accuracy    <      31.00139288 Ry

     iteration #  4     ecut=    60.00 Ry     beta= 0.50
     Davidson diagonalization with overlap
     ethr =  1.08E-03,  avg # of iterations =  1.0

     negative rho (up, down):  6.014E-01 0.000E+00

     total cpu time spent up to now is      447.4 secs

     total energy              =  -14923.86056148 Ry
     Harris-Foulkes estimate   =  -14924.39653800 Ry
     estimated scf accuracy    <      10.41758317 Ry

     iteration #  5     ecut=    60.00 Ry     beta= 0.50
     Davidson diagonalization with overlap
     ethr =  5.69E-04,  avg # of iterations =  1.0

     negative rho (up, down):  6.115E-01 0.000E+00

     total cpu time spent up to now is      536.8 secs

     total energy              =  -14923.53837861 Ry
     Harris-Foulkes estimate   =  -14924.06156891 Ry
     estimated scf accuracy    <       6.65464609 Ry

     iteration #  6     ecut=    60.00 Ry     beta= 0.50
     Davidson diagonalization with overlap
     ethr =  3.64E-04,  avg # of iterations =  9.5

     negative rho (up, down):  6.181E-01 0.000E+00

     total cpu time spent up to now is      670.1 secs

     total energy              =  -14923.61377172 Ry
     Harris-Foulkes estimate   =  -14923.74129746 Ry
     estimated scf accuracy    <       8.25234555 Ry

     iteration #  7     ecut=    60.00 Ry     beta= 0.50
     Davidson diagonalization with overlap
     ethr =  3.64E-04,  avg # of iterations =  1.5

     negative rho (up, down):  6.244E-01 0.000E+00

     total cpu time spent up to now is      762.0 secs

     total energy              =  -14923.56124809 Ry
     Harris-Foulkes estimate   =  -14923.66260866 Ry
     estimated scf accuracy    <       4.74973728 Ry

     iteration #  8     ecut=    60.00 Ry     beta= 0.50
     Davidson diagonalization with overlap
     ethr =  2.60E-04,  avg # of iterations =  1.8

     negative rho (up, down):  6.267E-01 0.000E+00

     total cpu time spent up to now is      854.6 secs

     total energy              =  -14923.56498817 Ry
     Harris-Foulkes estimate   =  -14923.62405892 Ry
     estimated scf accuracy    <       4.99641417 Ry

     iteration #  9     ecut=    60.00 Ry     beta= 0.50
     Davidson diagonalization with overlap
     ethr =  2.60E-04,  avg # of iterations =  1.0

     negative rho (up, down):  6.284E-01 0.000E+00

     total cpu time spent up to now is      947.4 secs

     total energy              =  -14923.53242947 Ry
     Harris-Foulkes estimate   =  -14923.58865795 Ry
     estimated scf accuracy    <       2.09761825 Ry

     iteration # 10     ecut=    60.00 Ry     beta= 0.50
     Davidson diagonalization with overlap
     ethr =  1.15E-04,  avg # of iterations = 11.2

     negative rho (up, down):  6.278E-01 0.000E+00

     total cpu time spent up to now is     1081.0 secs

     total energy              =  -14923.51658567 Ry
     Harris-Foulkes estimate   =  -14923.54917262 Ry
     estimated scf accuracy    <       1.12769055 Ry

     iteration # 11     ecut=    60.00 Ry     beta= 0.50
     Davidson diagonalization with overlap
     ethr =  6.16E-05,  avg # of iterations =  4.8

     negative rho (up, down):  6.265E-01 0.000E+00

     total cpu time spent up to now is     1183.6 secs

     total energy              =  -14923.51849352 Ry
     Harris-Foulkes estimate   =  -14923.52654874 Ry
     estimated scf accuracy    <       0.73345449 Ry

     iteration # 12     ecut=    60.00 Ry     beta= 0.50
     Davidson diagonalization with overlap
     ethr =  4.01E-05,  avg # of iterations =  4.8

     negative rho (up, down):  6.249E-01 0.000E+00

     total cpu time spent up to now is     1284.3 secs

     total energy              =  -14923.51343123 Ry
     Harris-Foulkes estimate   =  -14923.52160701 Ry
     estimated scf accuracy    <       0.70783659 Ry

     iteration # 13     ecut=    60.00 Ry     beta= 0.50
     Davidson diagonalization with overlap
     ethr =  3.87E-05,  avg # of iterations =  1.2

     negative rho (up, down):  6.230E-01 0.000E+00

     total cpu time spent up to now is     1373.0 secs

     total energy              =  -14923.50384240 Ry
     Harris-Foulkes estimate   =  -14923.51521003 Ry
     estimated scf accuracy    <       0.59131741 Ry

     iteration # 14     ecut=    60.00 Ry     beta= 0.50
     Davidson diagonalization with overlap
     ethr =  3.23E-05,  avg # of iterations =  2.8

     negative rho (up, down):  6.457E-01 0.000E+00

     total cpu time spent up to now is     1467.5 secs

     total energy              =  -14923.49145061 Ry
     Harris-Foulkes estimate   =  -14923.50622794 Ry
     estimated scf accuracy    <       0.39162644 Ry

     iteration # 15     ecut=    60.00 Ry     beta= 0.50
     Davidson diagonalization with overlap
     c_bands:  5 eigenvalues not converged
     ethr =  2.14E-05,  avg # of iterations = 16.0

     negative rho (up, down):  6.320E-01 0.000E+00

     total cpu time spent up to now is     1621.8 secs

     total energy              =  -14923.48802655 Ry
     Harris-Foulkes estimate   =  -14923.49393255 Ry
     estimated scf accuracy    <       0.20899448 Ry

     iteration # 16     ecut=    60.00 Ry     beta= 0.50
     Davidson diagonalization with overlap
     ethr =  1.14E-05,  avg # of iterations =  7.0

     negative rho (up, down):  6.781E-01 0.000E+00

     total cpu time spent up to now is     1733.7 secs

     total energy              =  -14923.48063468 Ry
     Harris-Foulkes estimate   =  -14923.48940255 Ry
     estimated scf accuracy    <       0.15304971 Ry

     iteration # 17     ecut=    60.00 Ry     beta= 0.50
     Davidson diagonalization with overlap
     ethr =  8.36E-06,  avg # of iterations = 11.8

     negative rho (up, down):  7.336E-01 0.000E+00

     total cpu time spent up to now is     1870.5 secs

     total energy              =  -14923.47455541 Ry
     Harris-Foulkes estimate   =  -14923.48254544 Ry
     estimated scf accuracy    <       0.05086853 Ry

     iteration # 18     ecut=    60.00 Ry     beta= 0.50
     Davidson diagonalization with overlap
     c_bands:  1 eigenvalues not converged
     ethr =  2.78E-06,  avg # of iterations = 15.5

     negative rho (up, down):  6.753E-01 0.000E+00

     total cpu time spent up to now is     2032.6 secs

     total energy              =  -14923.47401096 Ry
     Harris-Foulkes estimate   =  -14923.47633763 Ry
     estimated scf accuracy    <       0.03327708 Ry

     iteration # 19     ecut=    60.00 Ry     beta= 0.50
     Davidson diagonalization with overlap
     c_bands:  1 eigenvalues not converged
     c_bands:  3 eigenvalues not converged
     c_bands:  2 eigenvalues not converged
     ethr =  1.82E-06,  avg # of iterations = 16.8

     negative rho (up, down):  6.339E-01 0.000E+00

     total cpu time spent up to now is     2193.3 secs

     total energy              =  -14923.47172264 Ry
     Harris-Foulkes estimate   =  -14923.47499813 Ry
     estimated scf accuracy    <       0.03667473 Ry

     iteration # 20     ecut=    60.00 Ry     beta= 0.50
     Davidson diagonalization with overlap
     c_bands:  1 eigenvalues not converged
     c_bands:  3 eigenvalues not converged
     ethr =  1.82E-06,  avg # of iterations = 16.0

     negative rho (up, down):  6.242E-01 0.000E+00

     total cpu time spent up to now is     2346.9 secs

     total energy              =  -14923.47169368 Ry
     Harris-Foulkes estimate   =  -14923.47232208 Ry
     estimated scf accuracy    <       0.01442321 Ry

     iteration # 21     ecut=    60.00 Ry     beta= 0.50
     Davidson diagonalization with overlap
     ethr =  7.88E-07,  avg # of iterations = 10.0

     negative rho (up, down):  6.240E-01 0.000E+00

     total cpu time spent up to now is     2470.1 secs

     total energy              =  -14923.47127309 Ry
     Harris-Foulkes estimate   =  -14923.47189850 Ry
     estimated scf accuracy    <       0.01030608 Ry

     iteration # 22     ecut=    60.00 Ry     beta= 0.50
     Davidson diagonalization with overlap
     ethr =  5.63E-07,  avg # of iterations = 12.2

     negative rho (up, down):  6.271E-01 0.000E+00

     total cpu time spent up to now is     2607.0 secs

     total energy              =  -14923.47131334 Ry
     Harris-Foulkes estimate   =  -14923.47153301 Ry
     estimated scf accuracy    <       0.00339118 Ry

     iteration # 23     ecut=    60.00 Ry     beta= 0.50
     Davidson diagonalization with overlap
     ethr =  1.85E-07,  avg # of iterations =  6.5

     negative rho (up, down):  6.294E-01 0.000E+00

     total cpu time spent up to now is     2720.6 secs

     total energy              =  -14923.47147067 Ry
     Harris-Foulkes estimate   =  -14923.47143870 Ry
     estimated scf accuracy    <       0.00139090 Ry

     iteration # 24     ecut=    60.00 Ry     beta= 0.50
     Davidson diagonalization with overlap
     ethr =  7.60E-08,  avg # of iterations =  5.2

     negative rho (up, down):  6.282E-01 0.000E+00

     total cpu time spent up to now is     2829.0 secs

     total energy              =  -14923.47154093 Ry
     Harris-Foulkes estimate   =  -14923.47155785 Ry
     estimated scf accuracy    <       0.00053251 Ry

     iteration # 25     ecut=    60.00 Ry     beta= 0.50
     Davidson diagonalization with overlap
     ethr =  2.91E-08,  avg # of iterations =  1.0

     negative rho (up, down):  6.288E-01 0.000E+00

     total cpu time spent up to now is     2919.8 secs

     total energy              =  -14923.47162066 Ry
     Harris-Foulkes estimate   =  -14923.47157185 Ry
     estimated scf accuracy    <       0.00033557 Ry

     iteration # 26     ecut=    60.00 Ry     beta= 0.50
     Davidson diagonalization with overlap
     ethr =  1.83E-08,  avg # of iterations =  2.0

     negative rho (up, down):  6.293E-01 0.000E+00

     total cpu time spent up to now is     3013.7 secs

     total energy              =  -14923.47164784 Ry
     Harris-Foulkes estimate   =  -14923.47163201 Ry
     estimated scf accuracy    <       0.00013452 Ry

     iteration # 27     ecut=    60.00 Ry     beta= 0.50
     Davidson diagonalization with overlap
     ethr =  7.35E-09,  avg # of iterations =  2.0

     negative rho (up, down):  6.299E-01 0.000E+00

     total cpu time spent up to now is     3107.5 secs

     total energy              =  -14923.47166111 Ry
     Harris-Foulkes estimate   =  -14923.47165372 Ry
     estimated scf accuracy    <       0.00009910 Ry

     iteration # 28     ecut=    60.00 Ry     beta= 0.50
     Davidson diagonalization with overlap
     ethr =  5.42E-09,  avg # of iterations =  2.0

     negative rho (up, down):  6.305E-01 0.000E+00

     total cpu time spent up to now is     3200.8 secs

     total energy              =  -14923.47166344 Ry
     Harris-Foulkes estimate   =  -14923.47166563 Ry
     estimated scf accuracy    <       0.00005138 Ry

     iteration # 29     ecut=    60.00 Ry     beta= 0.50
     Davidson diagonalization with overlap
     ethr =  2.81E-09,  avg # of iterations =  2.8

     negative rho (up, down):  6.312E-01 0.000E+00

     total cpu time spent up to now is     3295.8 secs

     total energy              =  -14923.47166168 Ry
     Harris-Foulkes estimate   =  -14923.47166637 Ry
     estimated scf accuracy    <       0.00002947 Ry

     iteration # 30     ecut=    60.00 Ry     beta= 0.50
     Davidson diagonalization with overlap
     ethr =  1.61E-09,  avg # of iterations =  1.8

     negative rho (up, down):  6.316E-01 0.000E+00

     total cpu time spent up to now is     3387.9 secs

     total energy              =  -14923.47166134 Ry
     Harris-Foulkes estimate   =  -14923.47166288 Ry
     estimated scf accuracy    <       0.00001155 Ry

     iteration # 31     ecut=    60.00 Ry     beta= 0.50
     Davidson diagonalization with overlap
     ethr =  6.31E-10,  avg # of iterations =  2.8

     negative rho (up, down):  6.318E-01 0.000E+00

     total cpu time spent up to now is     3484.1 secs

     total energy              =  -14923.47166066 Ry
     Harris-Foulkes estimate   =  -14923.47166180 Ry
     estimated scf accuracy    <       0.00000889 Ry

     iteration # 32     ecut=    60.00 Ry     beta= 0.50
     Davidson diagonalization with overlap
     ethr =  4.86E-10,  avg # of iterations =  1.0

     negative rho (up, down):  6.321E-01 0.000E+00

     total cpu time spent up to now is     3573.5 secs

     total energy              =  -14923.47165987 Ry
     Harris-Foulkes estimate   =  -14923.47166100 Ry
     estimated scf accuracy    <       0.00000351 Ry

     iteration # 33     ecut=    60.00 Ry     beta= 0.50
     Davidson diagonalization with overlap
     ethr =  1.92E-10,  avg # of iterations =  2.0

     negative rho (up, down):  6.321E-01 0.000E+00

     total cpu time spent up to now is     3668.3 secs

     total energy              =  -14923.47166009 Ry
     Harris-Foulkes estimate   =  -14923.47166008 Ry
     estimated scf accuracy    <       0.00000185 Ry

     iteration # 34     ecut=    60.00 Ry     beta= 0.50
     Davidson diagonalization with overlap
     ethr =  1.01E-10,  avg # of iterations =  1.0

     negative rho (up, down):  6.322E-01 0.000E+00

     total cpu time spent up to now is     3758.5 secs

     total energy              =  -14923.47165988 Ry
     Harris-Foulkes estimate   =  -14923.47166014 Ry
     estimated scf accuracy    <       0.00000085 Ry

     iteration # 35     ecut=    60.00 Ry     beta= 0.50
     Davidson diagonalization with overlap
     ethr =  4.65E-11,  avg # of iterations =  2.0

     negative rho (up, down):  6.322E-01 0.000E+00

     total cpu time spent up to now is     3852.7 secs

     total energy              =  -14923.47165992 Ry
     Harris-Foulkes estimate   =  -14923.47165992 Ry
     estimated scf accuracy    <       0.00000089 Ry

     iteration # 36     ecut=    60.00 Ry     beta= 0.50
     Davidson diagonalization with overlap
     ethr =  4.65E-11,  avg # of iterations =  1.0

     negative rho (up, down):  6.322E-01 0.000E+00

     total cpu time spent up to now is     3943.0 secs

     total energy              =  -14923.47165987 Ry
     Harris-Foulkes estimate   =  -14923.47165994 Ry
     estimated scf accuracy    <       0.00000017 Ry

     iteration # 37     ecut=    60.00 Ry     beta= 0.50
     Davidson diagonalization with overlap
     ethr =  9.55E-12,  avg # of iterations =  2.2

     negative rho (up, down):  6.322E-01 0.000E+00

     total cpu time spent up to now is     4040.1 secs

     total energy              =  -14923.47165984 Ry
     Harris-Foulkes estimate   =  -14923.47165988 Ry
     estimated scf accuracy    <       0.00000009 Ry

     iteration # 38     ecut=    60.00 Ry     beta= 0.50
     Davidson diagonalization with overlap
     ethr =  5.15E-12,  avg # of iterations =  1.8

     negative rho (up, down):  6.322E-01 0.000E+00

     total cpu time spent up to now is     4132.5 secs

     total energy              =  -14923.47165981 Ry
     Harris-Foulkes estimate   =  -14923.47165984 Ry
     estimated scf accuracy    <       0.00000007 Ry

     iteration # 39     ecut=    60.00 Ry     beta= 0.50
     Davidson diagonalization with overlap
     ethr =  3.67E-12,  avg # of iterations =  1.0

     negative rho (up, down):  6.322E-01 0.000E+00

     total cpu time spent up to now is     4224.9 secs

     total energy              =  -14923.47165980 Ry
     Harris-Foulkes estimate   =  -14923.47165981 Ry
     estimated scf accuracy    <       0.00000002 Ry

     iteration # 40     ecut=    60.00 Ry     beta= 0.50
     Davidson diagonalization with overlap
     ethr =  1.10E-12,  avg # of iterations =  3.0

     negative rho (up, down):  6.323E-01 0.000E+00

     total cpu time spent up to now is     4321.5 secs

     total energy              =  -14923.47165977 Ry
     Harris-Foulkes estimate   =  -14923.47165980 Ry
     estimated scf accuracy    <       0.00000001 Ry

     iteration # 41     ecut=    60.00 Ry     beta= 0.50
     Davidson diagonalization with overlap
     ethr =  7.85E-13,  avg # of iterations =  1.0

     negative rho (up, down):  6.323E-01 0.000E+00

     total cpu time spent up to now is     4408.3 secs

     End of self-consistent calculation

          k = 0.0000 0.0000 0.0000 (277337 PWs)   bands (ev):

   -40.1872 -40.1754 -40.1733 -40.1625 -40.1618 -40.1578 -40.1537 -37.8797
   -37.8520 -37.8491 -37.8439 -37.8429 -37.8311 -37.8259 -37.5789 -35.4161
   -22.6877 -22.5943 -22.5908 -22.5669 -22.5356 -22.5314 -22.4271 -22.4207
   -22.4080 -22.4058 -22.4018 -22.3862 -22.3852 -22.3682 -22.3394 -22.3302
   -22.3104 -22.2823 -22.2534 -22.2380 -22.2234 -22.2172 -22.2021 -22.1969
   -22.1927 -22.1863 -22.1823 -22.1660 -22.0789 -22.0758 -22.0594 -21.9696
   -20.4208 -20.3738 -20.3680 -20.3401 -20.2943 -20.2769 -20.2703 -20.2522
   -20.2345 -20.2291 -20.1912 -20.1486 -20.1461 -20.1068 -20.0953 -20.0898
   -20.0820 -20.0754 -20.0680 -20.0655 -20.0223 -18.6745 -18.6552 -18.5712
   -18.4616 -18.4235 -18.3783 -18.3753 -18.3460 -18.1912 -18.1782 -18.1770
   -18.1709 -18.1635 -18.1621 -18.1598 -18.1512 -18.1503 -18.1417 -18.1328
   -17.9781 -17.9734 -17.9523 -17.8541 -17.8461 -16.6754 -16.6466 -16.6390
   -15.6762 -15.3806 -15.3460 -15.3376 -15.2714 -15.2093 -15.2045 -15.1429
   -15.0812 -14.9687 -14.9634 -14.9384 -14.9053 -14.8474 -14.7743 -14.7544
   -14.6537 -14.6197 -14.5694 -14.5354 -14.5353 -14.5249 -14.5165 -14.5115
   -14.4908 -14.4621 -14.4377 -14.3711 -14.3589 -14.3513 -14.3496 -14.3193
   -14.3185 -14.3120 -14.2773 -14.2671 -14.2618 -14.2607 -14.2606 -14.2594
   -14.2566 -14.2488 -14.2437 -14.2308 -14.2259 -14.1683 -14.1637 -14.1393
   -14.1378 -14.1229 -14.1209 -14.0602 -14.0383 -14.0382 -14.0294 -14.0185
   -14.0100 -13.9994 -13.9857 -13.9856 -13.9809 -13.9776 -13.9726 -13.9615
   -13.9484 -13.9089 -13.8680 -13.8609 -13.8595 -13.8419 -13.8367 -13.8271
   -13.8250 -13.8079 -13.7759 -13.7662 -13.7591 -13.7086 -13.6973 -13.6846
   -13.6779 -13.6719 -13.6440 -13.6090 -13.5953 -13.5665 -13.5608 -13.5526
   -13.5467 -13.5453 -13.5376 -13.5326 -13.5304 -13.5280 -13.5239 -13.5196
   -13.5186 -13.5172 -13.5159 -13.4988 -13.4987 -13.4979 -13.4959 -13.4600
   -13.4471 -13.4362 -13.4264 -13.4125 -13.4105 -13.3921 -13.3901 -13.3759
   -13.3681 -13.3654 -13.3622 -13.3486 -13.3240 -13.2980 -13.1858 -13.1676
    -8.5552  -8.4903  -8.3116  -8.3007  -8.2181  -8.2032  -8.0968  -8.0814
    -8.0724  -8.0635  -8.0562  -8.0393  -8.0298  -7.9873  -7.9803  -7.9765
    -7.9663  -7.9645  -7.9615  -7.9528  -7.9174  -7.8528  -7.8121  -7.7987
    -7.7938  -7.7837  -7.7736  -7.7714  -7.7462  -7.7403  -7.7330  -7.7299
    -7.7269  -7.7144  -7.7027  -7.6983  -7.6948  -7.6947  -7.6855  -7.6798
    -7.6526  -7.6342  -7.6280  -7.6157  -7.6087  -7.6061  -7.5896  -7.5826
    -7.5578  -7.5365  -7.5295  -7.4916  -7.4886  -7.4732  -7.4702  -7.4566
    -7.4483  -7.4471  -7.4429  -7.4386  -7.4321  -7.4266  -7.4208  -7.4202
    -7.3980  -7.3899  -7.3755  -7.3747  -7.3718  -7.3534  -7.3524  -7.3502
    -7.3479  -7.3394  -7.3222  -7.3219  -7.3064  -7.2837  -7.2443  -7.2395
    -7.2267  -7.2205  -7.1948  -7.1940  -7.1767  -7.1751  -7.1698  -7.1662
    -7.1342  -7.1153  -7.0721  -7.0579  -7.0515  -7.0355  -6.9840  -6.9240
    -4.3476  -3.9581  -3.4090  -3.3196  -3.3145  -3.3104  -3.2728  -3.2284
    -3.1211  -3.0718  -2.9679  -2.9238  -2.8219  -2.8141  -2.8139  -2.7939
    -2.7482  -2.7334  -2.6857  -2.6736  -2.6458  -2.6268  -2.5527  -2.5494
    -2.5350  -2.4831  -2.4768  -2.4600  -2.4469  -2.4355  -2.4333  -2.4295
    -2.4254  -2.3948  -2.3709  -2.3247  -2.3100  -2.2958  -2.2622  -2.2027
    -2.1342  -2.1334  -2.1306  -2.1052  -2.0431  -2.0321  -2.0310  -2.0216
    -2.0188  -2.0037  -1.9732  -1.9547  -1.9466  -1.9402  -1.9321  -1.9136
    -1.8494  -1.8452  -1.8433  -1.8342  -1.8339  -1.8267  -1.8128  -1.7947
    -1.7867  -1.7768  -1.7753  -1.7686  -1.7634  -1.7605  -1.7588  -1.7499
    -1.7468  -1.7458  -1.7336  -1.7265  -1.7254  -1.7228  -1.7156  -1.6992
    -1.6960  -1.6919  -1.6916  -1.6915  -1.6887  -1.6881  -1.6685  -1.6615
    -1.6489  -1.6479  -1.6294  -1.6281  -1.6275  -1.6175  -1.6086  -1.5962
    -1.5942  -1.5734  -1.5690  -1.5673  -1.5645  -1.5639  -1.5604  -1.5577
    -1.5425  -1.5174  -1.5042  -1.5006  -1.4882  -1.4874  -1.4809  -1.4802
    -1.4783  -1.4734  -1.4729  -1.4440  -1.4140  -1.4076  -1.3160  -1.2807
    -1.2706  -1.2663  -1.2604  -1.2497  -1.2456  -1.2012  -1.1969  -1.1955
    -1.1832  -1.1639  -1.1556  -1.1516  -1.1413  -1.1258  -1.1248  -1.0998
    -1.0869  -1.0696  -1.0625  -1.0335  -0.9856  -0.9707  -0.9651  -0.9489
    -0.9386  -0.9315  -0.9298  -0.9133  -0.9027  -0.8996  -0.8891  -0.8777
    -0.8605  -0.8556  -0.8312  -0.8213  -0.8208  -0.7810  -0.7797  -0.7788
    -0.7767  -0.7688  -0.7661  -0.7633  -0.7589  -0.7563  -0.7220  -0.6427
    -0.6392  -0.6376  -0.6367  -0.6343  -0.6308  -0.6305  -0.6244  -0.6053
    -0.5916  -0.5857  -0.5842  -0.5822  -0.5807  -0.5723  -0.5605  -0.5515
    -0.5506  -0.5369  -0.5364  -0.5295  -0.5273  -0.5115  -0.4957  -0.4925
    -0.4846  -0.4745  -0.4731  -0.4665  -0.4609  -0.4568  -0.4509  -0.4481
    -0.4442  -0.4311  -0.4212  -0.4168  -0.4150  -0.4077  -0.3975  -0.3867
    -0.3720  -0.3694  -0.3598  -0.3475  -0.3320  -0.3301  -0.3229  -0.3111
    -0.3096  -0.3087  -0.2967  -0.2887  -0.2841  -0.2633  -0.2594  -0.2523
    -0.2429  -0.2420  -0.2378  -0.2308  -0.2255  -0.2238  -0.2180  -0.1987
    -0.1941  -0.1800  -0.1672  -0.1285  -0.1151  -0.1035  -0.1000  -0.0860
    -0.0622  -0.0554  -0.0442  -0.0324  -0.0297  -0.0241  -0.0103  -0.0087
     0.0245   0.0255   0.0293   0.0339   0.0424   0.0642   0.0740   0.0795
     0.0892   0.0947   0.0969   0.0987   0.1077   0.1089   0.1131   0.1167
     0.1309   0.1312   0.1319   0.1329   0.1465   0.1479   0.1599   0.1778
     0.1807   0.1809   0.1845   0.1976   0.2019   0.2048   0.2243   0.2253
     0.2341   0.2531   0.2550   0.2581   0.2605   0.3077   0.3085   0.3205
     0.3385   0.3469   0.3647   0.3868   0.3951   0.3979   0.4063   0.4209
     0.4215   0.4753   0.4946   0.4985   0.5069   0.5116   0.5168   0.5706
     0.5768   0.5778   0.5786   0.6017   0.6338   0.6436   0.6442   0.6480
     0.6503   0.6576   0.6581   0.6726   0.6731   0.6838   0.6880   0.6890
     0.7118   0.7302   0.7307   0.7346   0.7414   0.7419   0.7421   0.7445
     0.7446   0.7532   0.7552   0.7566   0.7611   0.7757   0.7805   0.7983
     0.8073   0.8254   0.8343   0.8396   0.8430   0.8543   0.8575   0.8653
     0.8690   0.8711   0.8870   0.9001   0.9083   0.9108   0.9146   0.9251
     0.9267   0.9460   0.9520   0.9523   0.9722   0.9736   0.9743   0.9786
     0.9802   0.9896   0.9942   0.9983   1.0019   1.0126   1.0128   1.0202
     1.0215   1.0275   1.0335   1.0337   1.0352   1.0434   1.0497   1.0706
     1.0921   1.1030   1.1183   1.1308   1.1429   1.1579   1.1674   1.1836
     1.2578   1.2803   1.2982   1.2990   1.3027   1.3118   1.3175   1.3334
     1.3396   1.3530   1.3573   1.3817   1.3997   1.4209   1.4231   1.4248
     1.4308   1.4313   1.4367   1.4368   1.4421   1.4452   1.4692   1.4753
     1.4778   1.4919   1.4947   1.5003   1.5023   1.5081   1.5100   1.5139
     1.5146   1.5197   1.5318   1.5358   1.5379   1.5436   1.5517   1.5639
     1.5676   1.5720   1.5747   1.5767   1.5812   1.5813   1.5885   1.5968
     1.6019   1.6034   1.6051   1.6107   1.6108   1.6126   1.6144   1.6166
     1.6216   1.6249   1.6421   1.6500   1.6571   1.6608   1.6614   1.6715
     1.6782   1.6887   1.6896   1.6986   1.7040   1.7076   1.7088   1.7188
     1.7205   1.7235   1.7295   1.7397   1.7436   1.7483   1.7499   1.7550
     1.7575   1.7662   1.7716   1.7739   1.7835   1.8057   1.8095   1.8254
     1.8305   1.8541   1.8547   1.8590   1.8602   1.8704   1.8710   1.8903
     1.8927   1.8933   1.9073   1.9185   1.9425   1.9431   1.9495   1.9623
     1.9856   1.9963   2.0025   2.0052   2.0059   2.0075   2.0219   2.0236
     2.0275   2.0309   2.0330   2.0365   2.0513   2.0544   2.0551   2.0558
     2.0570   2.0599   2.0616   2.0655   2.0677   2.0730   2.0862   2.0891
     2.0913   2.0943   2.1003   2.1090   2.1136   2.1201   2.1209   2.1401
     2.1455   2.1737   2.1745   2.1775   2.1817   2.1886   2.1891   2.1904
     2.2034   2.2049   2.2359   2.2380   2.2433   2.2496   2.2589   2.2622
     2.2642   2.2655   2.2693   2.2779   2.3238   2.3262   2.3303   2.3493
     2.3540   2.3563   2.3573   2.3577   2.3583   2.3587   2.3604   2.3677
     2.3745   2.3920   2.3955   2.3992   2.4058   2.4118   2.4152   2.4155
     2.4224   2.4361   2.4489   2.4672   2.4694   2.4956   2.5147   2.5344
     2.5383   2.5468   2.5617   2.5724   2.6050   2.6148   2.6237   2.6428
     2.6515   2.6647   2.6674   2.6889   2.6957   2.6982   2.7170   2.7296
     2.7485   2.7524   2.7613   2.7712   2.7714   2.7756   2.8082   2.8533
     2.8731   2.8793   2.8831   2.8909   2.9790   3.0430   3.0608   3.1856
     3.1968   3.1985   3.2260   3.3048   3.3152   3.3277   3.3532   3.3587
     3.3660   3.3824   3.4550   3.4621   3.4663   3.4691   3.5116   3.5150
     3.5208   3.5211   3.5700   3.6021   3.6127   3.6197   3.7667   3.8024
     3.8038   3.8118   3.8700   3.9203   3.9592   3.9732   3.9744   3.9802
     4.0869   4.0946   4.2216   4.2741   4.6668   4.6797   4.9681   4.9720
     4.9903   5.0182   5.0748   5.0804   5.0985   5.3197   5.5073   5.5809
     5.6798   5.8412   5.8953   5.9005   5.9465   5.9482   5.9501   5.9617
     6.0621   6.0642   6.0663   6.1207   6.1943   6.3040   6.3483   6.4586
     6.5645   6.5752   6.6267   6.6379   6.6408   6.7034   6.7514   6.8175
     6.8179   6.8320   6.8707   6.9131   6.9227   6.9241   6.9244   6.9268
     6.9404   6.9584   6.9821   6.9872   6.9882   6.9897   7.0961   7.1408
     7.1992   7.2228   7.2428   7.3483   7.3708   7.3732   7.4387   7.4397
     7.4412   7.4635   7.5508   7.5837   7.6239   7.6495   7.6669   7.6766
     7.6957   7.7294   7.7814   7.8026   7.8364   7.8604   7.8691   7.8740
     7.8810   7.8894   7.8923   7.9190   7.9669   7.9707   8.0057   8.0059
     8.0120   8.0274   8.1601   8.1668   8.2609   8.2665   8.3582   8.3621
     8.3643   8.3914   8.4645   8.4942   8.5327   8.5674   8.5695   8.5733
     8.5999   8.6232   8.6247   8.6388   8.6800   8.6808   8.6847   8.7000
     8.7218   8.7391   8.8434   8.8438   8.8697   8.8752   8.8801   8.9054
     8.9223   8.9304   8.9369   9.0247   9.0295   9.0503   9.0771   9.0838
     9.0921   9.1182   9.1186   9.1341   9.1487   9.1495   9.1734   9.1828
     9.1912   9.2382   9.2471   9.2597   9.2838   9.3033   9.3120   9.3136
     9.3551   9.3890   9.4131   9.4318   9.4348   9.4443   9.4464   9.4493
     9.4534   9.5082

          k = 0.2326 0.2390 0.0000 (277319 PWs)   bands (ev):

   -40.1872 -40.1751 -40.1739 -40.1624 -40.1621 -40.1565 -40.1545 -37.8797
   -37.8514 -37.8499 -37.8439 -37.8432 -37.8296 -37.8270 -37.5789 -35.4161
   -22.6777 -22.6213 -22.5854 -22.5540 -22.5394 -22.5132 -22.4650 -22.4251
   -22.4102 -22.4063 -22.4057 -22.3812 -22.3725 -22.3369 -22.3279 -22.3122
   -22.3117 -22.2966 -22.2800 -22.2628 -22.2334 -22.2117 -22.2066 -22.2021
   -22.1963 -22.1795 -22.1704 -22.1339 -22.0932 -22.0756 -22.0551 -21.9717
   -20.4028 -20.3681 -20.3595 -20.3525 -20.3365 -20.3085 -20.2709 -20.2332
   -20.2225 -20.1954 -20.1775 -20.1446 -20.1420 -20.1251 -20.1149 -20.0904
   -20.0856 -20.0753 -20.0696 -20.0480 -20.0280 -18.6746 -18.6552 -18.5712
   -18.4270 -18.3920 -18.3758 -18.3511 -18.3442 -18.3236 -18.2909 -18.2596
   -18.1790 -18.1717 -18.1549 -18.1526 -18.1390 -18.0616 -18.0276 -18.0103
   -17.9761 -17.9729 -17.9645 -17.8999 -17.8935 -16.6756 -16.6484 -16.6404
   -15.6357 -15.5073 -15.3238 -15.3132 -15.2426 -15.2106 -15.1383 -15.1089
   -15.0121 -15.0094 -14.9507 -14.9175 -14.9119 -14.8667 -14.8401 -14.7969
   -14.7519 -14.6259 -14.6051 -14.5405 -14.5268 -14.5147 -14.4940 -14.4475
   -14.4431 -14.4207 -14.4167 -14.3922 -14.3684 -14.3479 -14.3421 -14.3377
   -14.3261 -14.3193 -14.3177 -14.3128 -14.3055 -14.2788 -14.2651 -14.2608
   -14.2575 -14.2354 -14.2137 -14.2085 -14.1901 -14.1575 -14.1445 -14.1186
   -14.1013 -14.0848 -14.0809 -14.0795 -14.0759 -14.0749 -14.0597 -14.0561
   -14.0375 -13.9785 -13.9740 -13.9660 -13.9603 -13.9527 -13.9292 -13.9251
   -13.9171 -13.9113 -13.9014 -13.8810 -13.8677 -13.8476 -13.8446 -13.8290
   -13.8249 -13.8091 -13.8049 -13.7901 -13.7641 -13.7401 -13.7279 -13.7273
   -13.6653 -13.6451 -13.6075 -13.5785 -13.5660 -13.5635 -13.5609 -13.5580
   -13.5443 -13.5425 -13.5365 -13.5363 -13.5347 -13.5299 -13.5261 -13.5201
   -13.5031 -13.5013 -13.4955 -13.4866 -13.4845 -13.4817 -13.4794 -13.4710
   -13.4666 -13.4520 -13.4517 -13.4409 -13.4318 -13.4316 -13.4205 -13.4121
   -13.4032 -13.3714 -13.3277 -13.3059 -13.2887 -13.2744 -13.2254 -13.1965
    -8.4515  -8.3830  -8.2601  -8.2044  -8.1868  -8.1846  -8.1115  -8.0964
    -8.0835  -8.0728  -8.0624  -8.0078  -7.9920  -7.9735  -7.9544  -7.9473
    -7.9097  -7.8753  -7.8746  -7.8571  -7.8475  -7.8193  -7.8173  -7.7997
    -7.7720  -7.7690  -7.7620  -7.7506  -7.7454  -7.7235  -7.7217  -7.7195
    -7.7176  -7.7031  -7.6961  -7.6887  -7.6768  -7.6742  -7.6713  -7.6580
    -7.6451  -7.6314  -7.6220  -7.6173  -7.6148  -7.6034  -7.5788  -7.5709
    -7.5689  -7.5547  -7.5458  -7.5298  -7.5013  -7.4991  -7.4935  -7.4756
    -7.4725  -7.4678  -7.4647  -7.4624  -7.4592  -7.4574  -7.4459  -7.4456
    -7.4365  -7.4309  -7.4233  -7.4173  -7.3972  -7.3885  -7.3848  -7.3762
    -7.3688  -7.3651  -7.3507  -7.3315  -7.3171  -7.3098  -7.3073  -7.2897
    -7.2786  -7.2773  -7.2717  -7.2357  -7.2104  -7.1874  -7.1636  -7.1526
    -7.1287  -7.1230  -7.1077  -7.0973  -7.0939  -7.0447  -7.0219  -6.9642
    -4.1949  -3.7975  -3.7850  -3.3633  -3.3092  -3.3050  -3.2636  -3.2045
    -3.1389  -2.9339  -2.9296  -2.8840  -2.8729  -2.8670  -2.8284  -2.7461
    -2.7217  -2.6958  -2.6431  -2.5872  -2.5811  -2.5754  -2.5675  -2.5609
    -2.5218  -2.5165  -2.4645  -2.4561  -2.4500  -2.4463  -2.4304  -2.4274
    -2.4217  -2.4026  -2.4012  -2.3495  -2.3361  -2.3092  -2.2842  -2.2661
    -2.2638  -2.2402  -2.1952  -2.1719  -2.1579  -2.1470  -2.1437  -2.1348
    -2.1276  -2.0960  -2.0929  -2.0740  -2.0076  -1.9950  -1.9257  -1.9221
    -1.9151  -1.8922  -1.8672  -1.8611  -1.8433  -1.8181  -1.8059  -1.8003
    -1.7940  -1.7897  -1.7829  -1.7744  -1.7668  -1.7652  -1.7607  -1.7484
    -1.7442  -1.7316  -1.7220  -1.7184  -1.7120  -1.7099  -1.7054  -1.7009
    -1.6992  -1.6912  -1.6808  -1.6691  -1.6628  -1.6614  -1.6598  -1.6517
    -1.6512  -1.6484  -1.6452  -1.6414  -1.6358  -1.6132  -1.6118  -1.5996
    -1.5927  -1.5688  -1.5645  -1.5596  -1.5496  -1.5431  -1.5320  -1.4766
    -1.4672  -1.4567  -1.4516  -1.4314  -1.4151  -1.4056  -1.4002  -1.3819
    -1.3615  -1.3470  -1.3271  -1.3223  -1.3187  -1.2708  -1.2689  -1.2625
    -1.2149  -1.1905  -1.1785  -1.1675  -1.1412  -1.1354  -1.1323  -1.1321
    -1.1184  -1.1038  -1.0950  -1.0854  -1.0786  -1.0685  -1.0675  -1.0656
    -1.0637  -1.0574  -1.0552  -1.0506  -1.0365  -1.0027  -1.0002  -0.9890
    -0.9822  -0.9638  -0.9448  -0.9420  -0.9340  -0.9216  -0.9148  -0.9096
    -0.9009  -0.8742  -0.8600  -0.8454  -0.8327  -0.8242  -0.8065  -0.7802
    -0.7738  -0.7680  -0.7496  -0.7307  -0.7134  -0.7109  -0.7057  -0.6850
    -0.6566  -0.6411  -0.6218  -0.6103  -0.6062  -0.5868  -0.5831  -0.5645
    -0.5602  -0.5586  -0.5528  -0.5502  -0.5483  -0.5470  -0.5433  -0.5361
    -0.5322  -0.5304  -0.5272  -0.5181  -0.5023  -0.4980  -0.4884  -0.4853
    -0.4830  -0.4761  -0.4652  -0.4629  -0.4561  -0.4522  -0.4485  -0.4434
    -0.4395  -0.4301  -0.4218  -0.4169  -0.4135  -0.4005  -0.3939  -0.3862
    -0.3826  -0.3773  -0.3730  -0.3694  -0.3608  -0.3600  -0.3487  -0.3451
    -0.3421  -0.3295  -0.3233  -0.3160  -0.2967  -0.2907  -0.2812  -0.2742
    -0.2594  -0.2468  -0.2423  -0.2363  -0.2245  -0.2132  -0.2036  -0.1979
    -0.1928  -0.1807  -0.1722  -0.1668  -0.1529  -0.1521  -0.1370  -0.1311
    -0.1291  -0.1176  -0.1152  -0.1077  -0.0949  -0.0870  -0.0776  -0.0422
    -0.0379  -0.0265  -0.0199  -0.0148   0.0084   0.0142   0.0240   0.0555
     0.0875   0.1011   0.1154   0.1260   0.1272   0.1298   0.1473   0.1582
     0.1755   0.1772   0.1829   0.1918   0.2052   0.2154   0.2170   0.2200
     0.2307   0.2491   0.2558   0.2620   0.2761   0.2801   0.2821   0.2898
     0.2984   0.3001   0.3116   0.3196   0.3198   0.3268   0.3368   0.3469
     0.3535   0.3652   0.3883   0.4051   0.4107   0.4146   0.4521   0.4679
     0.4722   0.4812   0.4835   0.4970   0.5067   0.5396   0.5734   0.5841
     0.5884   0.5947   0.6077   0.6194   0.6257   0.6297   0.6326   0.6395
     0.6446   0.6514   0.6559   0.6574   0.6680   0.6744   0.6761   0.6830
     0.6948   0.7029   0.7070   0.7115   0.7218   0.7238   0.7245   0.7274
     0.7294   0.7418   0.7471   0.7515   0.7606   0.7630   0.7660   0.7835
     0.7956   0.7984   0.8099   0.8144   0.8190   0.8267   0.8306   0.8352
     0.8431   0.8443   0.8532   0.8545   0.8584   0.8611   0.8638   0.8732
     0.8847   0.8955   0.8978   0.9061   0.9072   0.9201   0.9282   0.9358
     0.9529   0.9739   0.9829   1.0069   1.0087   1.0182   1.0412   1.0427
     1.0470   1.0489   1.0542   1.0656   1.0897   1.1132   1.1368   1.1498
     1.1588   1.1741   1.1831   1.1945   1.2030   1.2134   1.2179   1.2227
     1.2271   1.2353   1.2444   1.2485   1.2583   1.2823   1.2940   1.2955
     1.3064   1.3249   1.3292   1.3336   1.3372   1.3527   1.3636   1.3679
     1.3901   1.3921   1.3954   1.4041   1.4183   1.4283   1.4380   1.4409
     1.4449   1.4476   1.4570   1.4670   1.4723   1.4801   1.4843   1.4874
     1.4914   1.4935   1.4976   1.5026   1.5139   1.5237   1.5347   1.5377
     1.5420   1.5477   1.5506   1.5627   1.5734   1.5788   1.5820   1.5874
     1.5966   1.6007   1.6142   1.6156   1.6179   1.6242   1.6306   1.6324
     1.6349   1.6406   1.6468   1.6487   1.6569   1.6637   1.6753   1.6861
     1.6881   1.6931   1.6960   1.7005   1.7048   1.7163   1.7213   1.7280
     1.7290   1.7371   1.7464   1.7484   1.7575   1.7602   1.7632   1.7785
     1.7816   1.8023   1.8114   1.8168   1.8254   1.8309   1.8413   1.8472
     1.8604   1.8756   1.8790   1.8812   1.8921   1.8972   1.9023   1.9083
     1.9107   1.9140   1.9187   1.9247   1.9293   1.9316   1.9434   1.9512
     1.9566   1.9603   1.9643   1.9732   1.9784   1.9822   1.9909   1.9925
     1.9975   2.0021   2.0098   2.0111   2.0221   2.0278   2.0387   2.0421
     2.0447   2.0496   2.0517   2.0616   2.0671   2.0678   2.0748   2.0767
     2.0788   2.0890   2.0924   2.0962   2.0992   2.1123   2.1183   2.1253
     2.1273   2.1294   2.1314   2.1368   2.1408   2.1558   2.1605   2.1624
     2.1742   2.1926   2.1936   2.2073   2.2093   2.2153   2.2186   2.2249
     2.2286   2.2361   2.2425   2.2531   2.2721   2.2797   2.2849   2.2960
     2.3078   2.3135   2.3418   2.3433   2.3611   2.3706   2.3883   2.4052
     2.4066   2.4103   2.4202   2.4532   2.4787   2.4806   2.4971   2.5137
     2.5159   2.5201   2.5537   2.5559   2.5797   2.5867   2.5903   2.5970
     2.5982   2.6026   2.6113   2.6204   2.6268   2.6293   2.6395   2.6495
     2.6528   2.7117   2.7161   2.7351   2.7361   2.7472   2.7501   2.7803
     2.7915   2.7980   2.8018   2.8115   2.8161   2.8514   2.9419   2.9520
     2.9576   2.9747   2.9794   3.0013   3.0208   3.0514   3.0609   3.0811
     3.0919   3.1513   3.1672   3.1792   3.1844   3.2435   3.3047   3.3127
     3.3181   3.3309   3.3354   3.3378   3.3569   3.3836   3.3921   3.3986
     3.4085   3.4179   3.4353   3.4449   3.4720   3.4851   3.5417   3.5648
     3.5895   3.6599   3.6947   3.7352   3.9591   4.2415   4.2667   4.3021
     4.3539   4.3862   4.3941   4.4723   4.5694   4.5953   4.7250   4.8029
     4.8877   5.0246   5.0811   5.1074   5.1286   5.2015   5.4785   5.5819
     5.7569   5.8105   5.8644   5.9570   5.9889   6.0031   6.0698   6.1187
     6.1939   6.2359   6.3001   6.3038   6.3232   6.3463   6.3581   6.3870
     6.4448   6.4721   6.4915   6.5100   6.5310   6.5867   6.6190   6.6655
     6.7506   6.7661   6.7994   6.8090   6.8229   6.8365   6.8741   6.8953
     6.9134   6.9522   6.9604   7.0211   7.0967   7.0996   7.1533   7.1608
     7.1708   7.1886   7.2297   7.2518   7.3071   7.3313   7.3526   7.3861
     7.4313   7.4973   7.5046   7.5243   7.6037   7.6281   7.6741   7.7485
     7.7782   7.8079   7.8353   7.8484   7.8610   7.8710   7.8988   7.9272
     7.9368   7.9571   7.9664   7.9711   8.0076   8.0188   8.0291   8.0611
     8.0730   8.0782   8.1236   8.1702   8.1851   8.2001   8.2360   8.2473
     8.2701   8.2952   8.2976   8.3610   8.3853   8.4047   8.4785   8.5059
     8.5237   8.5320   8.5643   8.6240   8.6804   8.6943   8.7146   8.7296
     8.7706   8.7955   8.8664   8.8959   8.8980   8.9188   8.9323   8.9357
     8.9751   8.9998   9.0205   9.0243   9.0489   9.0757   9.0791   9.0802
     9.0903   9.1229   9.1542   9.1813   9.1908   9.2070   9.2226   9.2295
     9.2480   9.2543   9.2835   9.2972   9.3061   9.3077   9.3353   9.3420
     9.3501   9.3579   9.3748   9.3801   9.3956   9.4197   9.4623   9.4811
     9.5044   9.5362

          k = 0.0000 0.4779 0.0000 (277213 PWs)   bands (ev):

   -40.1871 -40.1755 -40.1735 -40.1641 -40.1597 -40.1573 -40.1545 -37.8796
   -37.8516 -37.8497 -37.8450 -37.8423 -37.8287 -37.8278 -37.5789 -35.4161
   -22.6694 -22.6286 -22.5867 -22.5664 -22.5282 -22.4939 -22.4641 -22.4536
   -22.4231 -22.4173 -22.4057 -22.3676 -22.3401 -22.3336 -22.3182 -22.3128
   -22.3116 -22.2923 -22.2864 -22.2613 -22.2515 -22.2424 -22.2177 -22.2139
   -22.1864 -22.1651 -22.1365 -22.1312 -22.1082 -22.0731 -22.0552 -21.9724
   -20.4010 -20.3712 -20.3701 -20.3492 -20.3424 -20.2756 -20.2542 -20.2499
   -20.2304 -20.2181 -20.1640 -20.1513 -20.1349 -20.1348 -20.1123 -20.0918
   -20.0844 -20.0816 -20.0550 -20.0451 -20.0336 -18.6746 -18.6552 -18.5712
   -18.4223 -18.4174 -18.3819 -18.3518 -18.3252 -18.3224 -18.2713 -18.2344
   -18.1777 -18.1708 -18.1618 -18.1556 -18.1370 -18.0852 -18.0404 -18.0226
   -17.9987 -17.9775 -17.9646 -17.8951 -17.8546 -16.6756 -16.6485 -16.6393
   -15.5964 -15.4996 -15.4591 -15.3357 -15.1784 -15.1441 -15.1052 -15.0307
   -15.0297 -14.9977 -14.9653 -14.9450 -14.9024 -14.8661 -14.8196 -14.7907
   -14.7677 -14.7651 -14.6492 -14.6337 -14.5658 -14.4405 -14.4316 -14.4190
   -14.4156 -14.3963 -14.3934 -14.3858 -14.3783 -14.3764 -14.3755 -14.3535
   -14.3482 -14.3428 -14.2975 -14.2868 -14.2864 -14.2431 -14.2081 -14.2075
   -14.2019 -14.2015 -14.2009 -14.1915 -14.1776 -14.1675 -14.1635 -14.1487
   -14.1177 -14.1129 -14.1089 -14.1030 -14.0935 -14.0896 -14.0727 -14.0534
   -14.0440 -14.0401 -14.0193 -13.9743 -13.9588 -13.9487 -13.9350 -13.9309
   -13.9224 -13.9038 -13.8870 -13.8577 -13.8504 -13.8261 -13.8197 -13.8174
   -13.8094 -13.8057 -13.7888 -13.7802 -13.7559 -13.7535 -13.7430 -13.6848
   -13.6545 -13.6516 -13.6366 -13.6203 -13.5694 -13.5634 -13.5601 -13.5540
   -13.5459 -13.5406 -13.5365 -13.5324 -13.5237 -13.5216 -13.5169 -13.5144
   -13.5128 -13.5105 -13.5053 -13.5025 -13.4940 -13.4901 -13.4896 -13.4892
   -13.4692 -13.4636 -13.4580 -13.4478 -13.4406 -13.4380 -13.4225 -13.4020
   -13.3967 -13.3165 -13.3155 -13.3002 -13.2937 -13.2713 -13.2698 -13.2249
    -8.3042  -8.2248  -8.1677  -8.1499  -8.0987  -8.0848  -8.0830  -8.0784
    -8.0731  -8.0441  -8.0421  -8.0187  -7.9998  -7.9646  -7.9625  -7.9061
    -7.8961  -7.8778  -7.8681  -7.8335  -7.8274  -7.8262  -7.7942  -7.7790
    -7.7688  -7.7681  -7.7575  -7.7458  -7.7390  -7.7114  -7.7068  -7.6979
    -7.6934  -7.6873  -7.6871  -7.6847  -7.6798  -7.6732  -7.6731  -7.6552
    -7.6354  -7.6155  -7.6100  -7.6081  -7.5978  -7.5972  -7.5848  -7.5806
    -7.5749  -7.5692  -7.5675  -7.5505  -7.5406  -7.5232  -7.5181  -7.5174
    -7.5001  -7.4986  -7.4933  -7.4617  -7.4606  -7.4579  -7.4569  -7.4456
    -7.4353  -7.4101  -7.4039  -7.4034  -7.4010  -7.3967  -7.3879  -7.3833
    -7.3825  -7.3824  -7.3782  -7.3698  -7.3608  -7.3473  -7.3423  -7.3373
    -7.3266  -7.3046  -7.3033  -7.2830  -7.2765  -7.2759  -7.2728  -7.2429
    -7.2109  -7.1994  -7.1197  -7.1008  -7.0942  -7.0534  -7.0163  -6.9740
    -4.0396  -3.7535  -3.6894  -3.6311  -3.3844  -3.3479  -3.2899  -3.1167
    -3.1078  -2.9728  -2.9175  -2.8986  -2.8903  -2.8430  -2.7742  -2.7393
    -2.7331  -2.6974  -2.6941  -2.6707  -2.6524  -2.6420  -2.5654  -2.5063
    -2.4845  -2.4840  -2.4417  -2.4379  -2.4312  -2.4187  -2.4158  -2.3942
    -2.3878  -2.3541  -2.3513  -2.3260  -2.3118  -2.3070  -2.2791  -2.2565
    -2.2330  -2.2190  -2.2133  -2.2056  -2.1838  -2.1650  -2.1438  -2.1370
    -2.1348  -2.1181  -2.1089  -2.0447  -2.0417  -2.0221  -1.9820  -1.9804
    -1.9717  -1.9582  -1.8812  -1.8710  -1.8663  -1.8656  -1.8544  -1.8301
    -1.8237  -1.7932  -1.7916  -1.7669  -1.7563  -1.7524  -1.7376  -1.7333
    -1.7269  -1.7206  -1.7202  -1.7194  -1.7144  -1.7133  -1.7124  -1.7048
    -1.7029  -1.6931  -1.6927  -1.6897  -1.6773  -1.6692  -1.6686  -1.6640
    -1.6608  -1.6537  -1.6486  -1.6425  -1.6202  -1.6148  -1.6100  -1.5936
    -1.5752  -1.5507  -1.5350  -1.5334  -1.5084  -1.5052  -1.4779  -1.4641
    -1.4581  -1.4520  -1.4479  -1.4448  -1.4370  -1.4362  -1.4236  -1.3995
    -1.3864  -1.3787  -1.3727  -1.3510  -1.3148  -1.2985  -1.2934  -1.2772
    -1.2705  -1.2668  -1.2128  -1.1625  -1.1430  -1.1339  -1.1289  -1.1214
    -1.1197  -1.0922  -1.0852  -1.0833  -1.0746  -1.0710  -1.0624  -1.0622
    -1.0596  -1.0408  -1.0276  -1.0272  -1.0237  -1.0177  -1.0143  -1.0133
    -1.0058  -1.0019  -0.9862  -0.9860  -0.9372  -0.9102  -0.8553  -0.8341
    -0.8309  -0.8140  -0.7854  -0.7630  -0.7626  -0.7514  -0.7422  -0.7187
    -0.7137  -0.7016  -0.6970  -0.6963  -0.6704  -0.6570  -0.6527  -0.6414
    -0.6400  -0.6165  -0.6067  -0.5869  -0.5841  -0.5758  -0.5636  -0.5510
    -0.5499  -0.5483  -0.5467  -0.5419  -0.5367  -0.5360  -0.5279  -0.5186
    -0.5077  -0.5066  -0.5002  -0.4981  -0.4870  -0.4868  -0.4807  -0.4775
    -0.4757  -0.4721  -0.4686  -0.4685  -0.4519  -0.4513  -0.4501  -0.4410
    -0.4381  -0.4066  -0.3983  -0.3977  -0.3882  -0.3796  -0.3728  -0.3713
    -0.3672  -0.3561  -0.3556  -0.3547  -0.3449  -0.3405  -0.3314  -0.3276
    -0.3190  -0.3135  -0.2810  -0.2365  -0.2298  -0.2296  -0.2282  -0.2239
    -0.2118  -0.2039  -0.1949  -0.1904  -0.1888  -0.1859  -0.1810  -0.1794
    -0.1777  -0.1713  -0.1708  -0.1660  -0.1569  -0.1505  -0.1414  -0.1376
    -0.1313  -0.1261  -0.1205  -0.1142  -0.1106  -0.1068  -0.0808  -0.0781
    -0.0577  -0.0534  -0.0433  -0.0400  -0.0345  -0.0186  -0.0178   0.0013
     0.0099   0.0504   0.0793   0.0823   0.0897   0.1061   0.1133   0.1146
     0.1233   0.1354   0.1364   0.1511   0.1577   0.1604   0.1655   0.1888
     0.2098   0.2142   0.2248   0.2267   0.2306   0.2384   0.2472   0.2481
     0.2506   0.2757   0.3175   0.3444   0.3582   0.3600   0.3692   0.3742
     0.3861   0.4009   0.4098   0.4245   0.4299   0.4624   0.4709   0.5071
     0.5218   0.5266   0.5342   0.5383   0.5393   0.5407   0.5442   0.5474
     0.5497   0.5608   0.5666   0.5717   0.5883   0.6106   0.6167   0.6230
     0.6293   0.6498   0.6583   0.6623   0.6660   0.6723   0.6880   0.6956
     0.6957   0.7047   0.7129   0.7175   0.7201   0.7297   0.7384   0.7511
     0.7514   0.7542   0.7557   0.7641   0.7775   0.7833   0.7946   0.7954
     0.8132   0.8221   0.8398   0.8407   0.8417   0.8472   0.8473   0.8492
     0.8502   0.8558   0.8601   0.8628   0.8750   0.8826   0.8947   0.9006
     0.9058   0.9072   0.9137   0.9152   0.9274   0.9328   0.9390   0.9509
     0.9616   0.9709   0.9734   0.9875   1.0184   1.0228   1.0244   1.0320
     1.0337   1.0562   1.0746   1.0957   1.1076   1.1215   1.1344   1.1464
     1.1479   1.1589   1.1701   1.1725   1.1915   1.1957   1.1985   1.2122
     1.2201   1.2365   1.2502   1.2673   1.2929   1.3123   1.3244   1.3311
     1.3544   1.3545   1.3605   1.3678   1.3701   1.3770   1.3925   1.4062
     1.4077   1.4113   1.4126   1.4200   1.4260   1.4296   1.4362   1.4453
     1.4471   1.4499   1.4505   1.4545   1.4648   1.4704   1.4756   1.4787
     1.4921   1.5040   1.5160   1.5205   1.5275   1.5300   1.5330   1.5358
     1.5406   1.5490   1.5501   1.5544   1.5635   1.5647   1.5713   1.5736
     1.5747   1.5810   1.5931   1.6042   1.6095   1.6122   1.6250   1.6293
     1.6295   1.6398   1.6484   1.6527   1.6577   1.6667   1.6794   1.6923
     1.7043   1.7061   1.7189   1.7189   1.7214   1.7354   1.7399   1.7416
     1.7498   1.7557   1.7612   1.7637   1.7637   1.7840   1.7883   1.7929
     1.7941   1.7945   1.7957   1.8087   1.8119   1.8135   1.8252   1.8308
     1.8335   1.8397   1.8491   1.8546   1.8584   1.8678   1.8707   1.8722
     1.8845   1.8866   1.8923   1.8991   1.8999   1.9028   1.9089   1.9099
     1.9208   1.9236   1.9317   1.9340   1.9398   1.9503   1.9615   1.9660
     1.9701   1.9777   1.9791   1.9874   1.9979   2.0158   2.0253   2.0270
     2.0417   2.0444   2.0483   2.0487   2.0609   2.0625   2.0724   2.0799
     2.0895   2.0921   2.0922   2.1104   2.1129   2.1207   2.1220   2.1260
     2.1404   2.1450   2.1500   2.1527   2.1528   2.1564   2.1647   2.1681
     2.1754   2.1805   2.1816   2.1910   2.2020   2.2046   2.2067   2.2082
     2.2085   2.2178   2.2264   2.2469   2.2479   2.2546   2.2708   2.2796
     2.2812   2.3081   2.3110   2.3127   2.3147   2.3276   2.3369   2.3602
     2.3652   2.3824   2.3933   2.4055   2.4249   2.4264   2.4341   2.4574
     2.4788   2.5089   2.5275   2.5375   2.5520   2.5631   2.5749   2.5759
     2.5788   2.5840   2.5894   2.5932   2.5950   2.6058   2.6067   2.6563
     2.6570   2.6642   2.6752   2.6960   2.7009   2.7080   2.7321   2.7379
     2.7562   2.7660   2.7831   2.8007   2.8300   2.8413   2.8800   2.8802
     2.8986   2.9068   2.9078   3.0067   3.0302   3.0311   3.0507   3.0509
     3.1028   3.1127   3.1920   3.2081   3.2730   3.2742   3.2975   3.3137
     3.3188   3.3234   3.3277   3.3678   3.3701   3.3807   3.3877   3.4335
     3.4690   3.4915   3.4963   3.5222   3.5637   3.5677   3.6553   3.6566
     3.7265   3.7507   3.9167   3.9323   4.0976   4.1078   4.1932   4.2055
     4.2236   4.2972   4.3824   4.4648   4.4927   4.5632   4.6128   4.7036
     4.7900   4.8612   4.8949   5.0736   5.1776   5.2553   5.2752   5.4661
     5.9094   5.9449   6.1080   6.1420   6.1514   6.1815   6.2314   6.2342
     6.2633   6.2660   6.2687   6.2863   6.3093   6.3520   6.3552   6.4086
     6.4346   6.4480   6.4844   6.4945   6.5552   6.5863   6.5881   6.6127
     6.6290   6.6982   6.7001   6.7198   6.7568   6.7672   6.8045   6.9134
     6.9582   7.0358   7.0462   7.0514   7.0740   7.0747   7.0808   7.1303
     7.2011   7.2291   7.2465   7.2900   7.3240   7.3419   7.3520   7.3882
     7.3964   7.4368   7.4757   7.4852   7.4896   7.4979   7.6078   7.6295
     7.6525   7.6960   7.7005   7.7437   7.7917   7.8674   7.8970   7.9024
     7.9218   7.9259   7.9349   7.9936   8.0048   8.0172   8.0466   8.0979
     8.1045   8.1130   8.1707   8.1712   8.1883   8.2010   8.2185   8.2301
     8.2605   8.2808   8.2886   8.3027   8.3865   8.3919   8.4310   8.4488
     8.4716   8.5445   8.5745   8.6253   8.6540   8.6804   8.7074   8.7611
     8.7785   8.7950   8.8376   8.8679   8.8802   8.9447   8.9553   8.9961
     9.0091   9.0266   9.0477   9.0529   9.0654   9.1073   9.1110   9.1199
     9.1456   9.1637   9.1856   9.1929   9.2162   9.2305   9.2547   9.3094
     9.3132   9.3162   9.3434   9.3452   9.3478   9.3608   9.3764   9.3927
     9.3943   9.4377   9.4528   9.4528   9.4726   9.5068   9.5100   9.5233
     9.5433   9.5466

          k =-0.4652-0.0000 0.0000 (277224 PWs)   bands (ev):

   -40.1871 -40.1759 -40.1728 -40.1643 -40.1605 -40.1558 -40.1554 -37.8796
   -37.8522 -37.8488 -37.8450 -37.8426 -37.8291 -37.8274 -37.5789 -35.4161
   -22.6704 -22.6257 -22.5943 -22.5566 -22.5310 -22.5000 -22.4541 -22.4426
   -22.4346 -22.4309 -22.3990 -22.3516 -22.3495 -22.3444 -22.3190 -22.3129
   -22.3050 -22.2982 -22.2863 -22.2524 -22.2443 -22.2395 -22.2315 -22.2111
   -22.1894 -22.1499 -22.1466 -22.1402 -22.1017 -22.0806 -22.0485 -21.9728
   -20.4194 -20.3697 -20.3530 -20.3457 -20.3102 -20.2872 -20.2853 -20.2586
   -20.2341 -20.2052 -20.1602 -20.1478 -20.1343 -20.1312 -20.1188 -20.0900
   -20.0830 -20.0825 -20.0566 -20.0454 -20.0327 -18.6745 -18.6552 -18.5712
   -18.4581 -18.3854 -18.3798 -18.3545 -18.3305 -18.2917 -18.2538 -18.2433
   -18.1884 -18.1812 -18.1612 -18.1594 -18.1521 -18.0785 -18.0529 -18.0174
   -17.9923 -17.9733 -17.9690 -17.8993 -17.8463 -16.6755 -16.6469 -16.6407
   -15.5983 -15.4988 -15.4521 -15.3452 -15.1825 -15.1332 -15.1042 -15.0241
   -15.0123 -15.0037 -14.9976 -14.9294 -14.8989 -14.8706 -14.8364 -14.7870
   -14.7696 -14.7666 -14.6418 -14.6341 -14.5117 -14.4992 -14.4664 -14.4611
   -14.4281 -14.4067 -14.3923 -14.3818 -14.3512 -14.3401 -14.3171 -14.3106
   -14.3064 -14.2966 -14.2911 -14.2815 -14.2811 -14.2779 -14.2709 -14.2635
   -14.2606 -14.2121 -14.2085 -14.2060 -14.2020 -14.1394 -14.1355 -14.1180
   -14.1105 -14.1094 -14.1086 -14.1084 -14.1068 -14.0922 -14.0595 -14.0551
   -14.0456 -14.0342 -14.0209 -13.9865 -13.9660 -13.9481 -13.9390 -13.9212
   -13.9057 -13.8759 -13.8613 -13.8562 -13.8530 -13.8351 -13.8260 -13.8222
   -13.8071 -13.7979 -13.7895 -13.7859 -13.7777 -13.7539 -13.7443 -13.6707
   -13.6667 -13.6515 -13.6332 -13.5984 -13.5649 -13.5605 -13.5596 -13.5596
   -13.5572 -13.5451 -13.5435 -13.5429 -13.5415 -13.5411 -13.5359 -13.5240
   -13.5232 -13.5157 -13.5080 -13.5017 -13.4932 -13.4901 -13.4701 -13.4680
   -13.4571 -13.4505 -13.4456 -13.4357 -13.4309 -13.4187 -13.4168 -13.3956
   -13.3898 -13.3808 -13.3195 -13.3115 -13.2996 -13.2808 -13.2290 -13.2269
    -8.3517  -8.2799  -8.1485  -8.1064  -8.1031  -8.0818  -8.0655  -8.0474
    -8.0212  -8.0073  -7.9999  -7.9980  -7.9942  -7.9906  -7.9641  -7.9383
    -7.8731  -7.8470  -7.8398  -7.8192  -7.8141  -7.8122  -7.7981  -7.7891
    -7.7856  -7.7775  -7.7533  -7.7475  -7.7420  -7.7339  -7.7314  -7.7291
    -7.7005  -7.6986  -7.6954  -7.6858  -7.6785  -7.6769  -7.6752  -7.6666
    -7.6664  -7.6647  -7.6615  -7.6522  -7.6479  -7.6097  -7.6095  -7.5958
    -7.5700  -7.5638  -7.5268  -7.5074  -7.5061  -7.5059  -7.5053  -7.5045
    -7.4913  -7.4892  -7.4881  -7.4801  -7.4695  -7.4610  -7.4584  -7.4471
    -7.4468  -7.4438  -7.4294  -7.4206  -7.4192  -7.4177  -7.4060  -7.3964
    -7.3832  -7.3827  -7.3774  -7.3736  -7.3734  -7.3335  -7.3235  -7.3232
    -7.3141  -7.3047  -7.3027  -7.2853  -7.2663  -7.2458  -7.1992  -7.1711
    -7.1641  -7.1419  -7.1323  -7.1183  -7.1125  -7.0870  -7.0409  -6.9870
    -4.0730  -3.6903  -3.6770  -3.6279  -3.5027  -3.2585  -3.2080  -3.1741
    -3.1303  -3.0000  -2.9519  -2.9219  -2.9163  -2.8690  -2.8182  -2.8086
    -2.7832  -2.7767  -2.6782  -2.6523  -2.6118  -2.5730  -2.5464  -2.5167
    -2.5162  -2.5101  -2.4762  -2.4649  -2.4562  -2.4415  -2.4017  -2.3903
    -2.3838  -2.3537  -2.3510  -2.3124  -2.2826  -2.2694  -2.2572  -2.2311
    -2.1994  -2.1442  -2.1085  -2.0879  -2.0798  -2.0763  -2.0494  -2.0377
    -2.0340  -2.0298  -2.0181  -2.0109  -2.0021  -1.9864  -1.9727  -1.9706
    -1.9528  -1.9514  -1.8741  -1.8710  -1.8650  -1.8239  -1.8205  -1.8175
    -1.8067  -1.7862  -1.7680  -1.7633  -1.7566  -1.7514  -1.7458  -1.7431
    -1.7362  -1.7351  -1.7216  -1.7212  -1.7165  -1.7146  -1.7124  -1.7117
    -1.7054  -1.7051  -1.7002  -1.6972  -1.6773  -1.6619  -1.6609  -1.6599
    -1.6589  -1.6576  -1.6551  -1.6468  -1.6384  -1.6201  -1.6116  -1.5839
    -1.5767  -1.5757  -1.5743  -1.5706  -1.5623  -1.5451  -1.5446  -1.5411
    -1.5397  -1.5371  -1.5353  -1.5063  -1.4966  -1.4871  -1.4765  -1.4634
    -1.4430  -1.4255  -1.4120  -1.4082  -1.3894  -1.3776  -1.3493  -1.3489
    -1.3236  -1.3080  -1.3032  -1.3028  -1.2758  -1.2404  -1.2294  -1.1434
    -1.1342  -1.0954  -1.0855  -1.0661  -1.0576  -1.0526  -1.0520  -1.0426
    -1.0221  -1.0060  -1.0045  -0.9983  -0.9946  -0.9764  -0.9691  -0.9579
    -0.9376  -0.9321  -0.9299  -0.9179  -0.9082  -0.8875  -0.8857  -0.8623
    -0.8466  -0.8167  -0.8053  -0.7998  -0.7930  -0.7812  -0.7730  -0.7632
    -0.7621  -0.7494  -0.7419  -0.6848  -0.6631  -0.6501  -0.6412  -0.6321
    -0.6163  -0.6151  -0.6090  -0.5994  -0.5990  -0.5887  -0.5872  -0.5767
    -0.5698  -0.5651  -0.5592  -0.5542  -0.5374  -0.5263  -0.5199  -0.5108
    -0.5060  -0.5034  -0.4939  -0.4929  -0.4778  -0.4706  -0.4656  -0.4543
    -0.4373  -0.4336  -0.4186  -0.4132  -0.4117  -0.3933  -0.3866  -0.3822
    -0.3802  -0.3742  -0.3721  -0.3650  -0.3553  -0.3507  -0.3405  -0.3338
    -0.3288  -0.3144  -0.3060  -0.3022  -0.2915  -0.2874  -0.2838  -0.2794
    -0.2743  -0.2729  -0.2696  -0.2643  -0.2633  -0.2482  -0.2476  -0.2447
    -0.2427  -0.2196  -0.2100  -0.1968  -0.1940  -0.1888  -0.1874  -0.1865
    -0.1782  -0.1619  -0.1489  -0.1420  -0.1231  -0.1183  -0.1097  -0.1074
    -0.1066  -0.1051  -0.1042  -0.0880  -0.0783  -0.0753  -0.0600  -0.0407
    -0.0318  -0.0285  -0.0248  -0.0121  -0.0035  -0.0031   0.0016   0.0024
     0.0078   0.0087   0.0128   0.0212   0.0402   0.0416   0.0551   0.0851
     0.1322   0.1368   0.1397   0.1419   0.1488   0.1608   0.1713   0.1730
     0.1874   0.1913   0.2050   0.2115   0.2131   0.2135   0.2210   0.2389
     0.2442   0.2515   0.2867   0.2897   0.3347   0.3495   0.3655   0.3734
     0.3743   0.3793   0.3973   0.4061   0.4167   0.4602   0.4641   0.4674
     0.4858   0.5250   0.5337   0.5419   0.5535   0.5625   0.5656   0.5694
     0.5726   0.5892   0.6063   0.6078   0.6243   0.6324   0.6356   0.6446
     0.6470   0.6482   0.6538   0.6665   0.6732   0.6753   0.6823   0.6867
     0.6973   0.6984   0.6985   0.7100   0.7115   0.7178   0.7218   0.7279
     0.7305   0.7313   0.7371   0.7388   0.7464   0.7536   0.7851   0.7860
     0.7870   0.7966   0.8032   0.8068   0.8100   0.8139   0.8202   0.8324
     0.8353   0.8401   0.8464   0.8490   0.8595   0.8642   0.8646   0.8660
     0.8700   0.8727   0.8808   0.9129   0.9214   0.9339   0.9637   0.9739
[...]
     atom   56 type  4   force =    -0.00009196    0.00000977    0.00017950
     atom   57 type  2   force =     0.00000000    0.00000000   -0.00011357
     atom   58 type  5   force =     0.00029754    0.00000000   -0.00036893
     atom   59 type  5   force =    -0.00029754    0.00000000   -0.00036893
     atom   60 type  5   force =     0.00000000    0.00000000    0.00008311
     atom   61 type  5   force =     0.00000000    0.00000000   -0.00046872
     atom   62 type  5   force =     0.00000000    0.00000000   -0.00046872
     atom   63 type  5   force =     0.00000000    0.00001694   -0.00055278
     atom   64 type  5   force =     0.00000000   -0.00001694   -0.00055278
     atom   65 type  4   force =    -0.00030899    0.00007993    0.00055894
     atom   66 type  4   force =    -0.00030899   -0.00007993    0.00055894
     atom   67 type  4   force =     0.00030899    0.00007993    0.00055894
     atom   68 type  4   force =     0.00030899   -0.00007993    0.00055894
     atom   69 type  4   force =     0.00000000   -0.00021361    0.00018740
     atom   70 type  4   force =     0.00000000    0.00021361    0.00018740
     atom   71 type  4   force =    -0.00010179   -0.00003265    0.00067555
     atom   72 type  4   force =    -0.00010179    0.00003265    0.00067555
     atom   73 type  4   force =     0.00010179    0.00003265    0.00067555
     atom   74 type  4   force =     0.00010179   -0.00003265    0.00067555
     atom   75 type  4   force =     0.00017786    0.00000000    0.00057651
     atom   76 type  4   force =    -0.00017786    0.00000000    0.00057651
     atom   77 type  4   force =     0.00000000   -0.00035544    0.00119312
     atom   78 type  4   force =     0.00000000    0.00035544    0.00119312
     atom   79 type  4   force =     0.00016942    0.00000000    0.00024343
     atom   80 type  4   force =    -0.00016942    0.00000000    0.00024343
     atom   81 type  3   force =     0.00008905   -0.00004498   -0.00113877
     atom   82 type  3   force =     0.00008905    0.00004498   -0.00113877
     atom   83 type  3   force =    -0.00008905   -0.00004498   -0.00113877
     atom   84 type  3   force =    -0.00008905    0.00004498   -0.00113877
     atom   85 type  3   force =     0.00003261   -0.00003887   -0.00125430
     atom   86 type  3   force =    -0.00003261   -0.00003887   -0.00125430
     atom   87 type  3   force =    -0.00003261    0.00003887   -0.00125430
     atom   88 type  3   force =     0.00003261    0.00003887   -0.00125430
     atom   89 type  1   force =     0.00000000    0.00000000   -0.00109612
     atom   90 type  1   force =     0.00000000   -0.00011356   -0.00167325
     atom   91 type  1   force =     0.00000000    0.00011356   -0.00167325
     atom   92 type  1   force =    -0.00008946    0.00000000   -0.00094080
     atom   93 type  1   force =     0.00008946    0.00000000   -0.00094080
     atom   94 type  1   force =     0.00000000    0.00000000   -0.00156724
     atom   95 type  1   force =     0.00000000    0.00000000   -0.00156724
     atom   96 type  1   force =     0.00000000    0.00000000   -0.00111743
     atom   97 type  4   force =    -0.00018645   -0.00010594    0.00243996
     atom   98 type  4   force =    -0.00018645    0.00010594    0.00243996
     atom   99 type  4   force =     0.00018645   -0.00010594    0.00243996
     atom  100 type  4   force =     0.00018645    0.00010594    0.00243996
     atom  101 type  4   force =     0.00004420   -0.00042342    0.00236766
     atom  102 type  4   force =    -0.00004420   -0.00042342    0.00236766
     atom  103 type  4   force =    -0.00004420    0.00042342    0.00236766
     atom  104 type  4   force =     0.00004420    0.00042342    0.00236766
     atom  105 type  4   force =     0.00114720    0.00000000    0.00424871
     atom  106 type  4   force =    -0.00114720    0.00000000    0.00424871
     atom  107 type  3   force =    -0.00183800   -0.00074931   -0.00757817
     atom  108 type  3   force =    -0.00183800    0.00074931   -0.00757817
     atom  109 type  3   force =     0.00183800    0.00074931   -0.00757817
     atom  110 type  3   force =     0.00183800   -0.00074931   -0.00757817
     atom  111 type  3   force =    -0.00163155   -0.00021666   -0.00803471
     atom  112 type  3   force =     0.00163155    0.00021666   -0.00803471
     atom  113 type  3   force =    -0.00163155    0.00021666   -0.00803471
     atom  114 type  3   force =     0.00163155   -0.00021666   -0.00803471
     atom  115 type  4   force =     0.00036091   -0.00085809    0.00452856
     atom  116 type  4   force =    -0.00036091   -0.00085809    0.00452856
     atom  117 type  4   force =     0.00036091    0.00085809    0.00452856
     atom  118 type  4   force =    -0.00036091    0.00085809    0.00452856
     atom  119 type  4   force =    -0.00026781    0.00000000    0.00403570
     atom  120 type  4   force =     0.00026781    0.00000000    0.00403570
     atom  121 type  4   force =    -0.00105908   -0.00024071    0.01196619
     atom  122 type  4   force =     0.00105908   -0.00024071    0.01196619
     atom  123 type  4   force =     0.00105908    0.00024071    0.01196619
     atom  124 type  4   force =    -0.00105908    0.00024071    0.01196619
     atom  125 type  4   force =     0.00065383   -0.00049906    0.01299451
     atom  126 type  4   force =     0.00065383    0.00049906    0.01299451
     atom  127 type  4   force =    -0.00065383   -0.00049906    0.01299451
     atom  128 type  4   force =    -0.00065383    0.00049906    0.01299451
     atom  129 type  1   force =     0.00000000    0.00000000   -0.01969032
     atom  130 type  1   force =     0.00000000    0.00000000   -0.01876334
     atom  131 type  1   force =     0.00000000    0.00000000   -0.01876334
     atom  132 type  1   force =    -0.00121747    0.00000000   -0.01933339
     atom  133 type  1   force =     0.00121747    0.00000000   -0.01933339
     atom  134 type  1   force =     0.00000000   -0.00069292   -0.01755267
     atom  135 type  1   force =     0.00000000    0.00069292   -0.01755267
     atom  136 type  1   force =     0.00000000    0.00000000   -0.01606285
     atom  137 type  3   force =     0.00040993    0.00012418   -0.00110624
     atom  138 type  3   force =     0.00040993   -0.00012418   -0.00110624
     atom  139 type  3   force =    -0.00040993   -0.00012418   -0.00110624
     atom  140 type  3   force =    -0.00040993    0.00012418   -0.00110624
     atom  141 type  3   force =    -0.00183152    0.00118415    0.00113550
     atom  142 type  3   force =    -0.00183152   -0.00118415    0.00113550
     atom  143 type  3   force =     0.00183152    0.00118415    0.00113550
     atom  144 type  3   force =     0.00183152   -0.00118415    0.00113550
     atom  145 type  4   force =    -0.01272851    0.00000000    0.05619980
     atom  146 type  4   force =     0.01272851    0.00000000    0.05619980
     atom  147 type  4   force =     0.00000000   -0.01241669    0.05272433
     atom  148 type  4   force =     0.00000000    0.01241669    0.05272433
     atom  149 type  4   force =     0.00077105    0.00000000    0.06782738
     atom  150 type  4   force =    -0.00077105    0.00000000    0.06782738
     atom  151 type  4   force =    -0.00136541   -0.00055393    0.06681189
     atom  152 type  4   force =     0.00136541   -0.00055393    0.06681189
     atom  153 type  4   force =     0.00136541    0.00055393    0.06681189
     atom  154 type  4   force =    -0.00136541    0.00055393    0.06681189
     atom  155 type  4   force =     0.00000000    0.00075951    0.06463211
     atom  156 type  4   force =     0.00000000   -0.00075951    0.06463211
     atom  157 type  4   force =     0.00080964   -0.00165701    0.06441324
     atom  158 type  4   force =    -0.00080964    0.00165701    0.06441324
     atom  159 type  4   force =     0.00080964    0.00165701    0.06441324
     atom  160 type  4   force =    -0.00080964   -0.00165701    0.06441324
     atom  161 type  2   force =     0.00000000    0.00000000    0.01653211
     atom  162 type  5   force =    -0.00327406    0.00000000   -0.00220512
     atom  163 type  5   force =     0.00327406    0.00000000   -0.00220512
     atom  164 type  5   force =     0.00000000    0.00000000    0.00194251
     atom  165 type  5   force =     0.00000000    0.00000000    0.00345987
     atom  166 type  5   force =     0.00000000    0.00000000    0.00345987
     atom  167 type  5   force =     0.00000000   -0.00300608   -0.00388507
     atom  168 type  5   force =     0.00000000    0.00300608   -0.00388507
     atom  169 type  4   force =    -0.00050569    0.00042361   -0.03735147
     atom  170 type  4   force =    -0.00050569   -0.00042361   -0.03735147
     atom  171 type  4   force =     0.00050569    0.00042361   -0.03735147
     atom  172 type  4   force =     0.00050569   -0.00042361   -0.03735147
     atom  173 type  4   force =     0.00000000    0.00064316   -0.03559629
     atom  174 type  4   force =     0.00000000   -0.00064316   -0.03559629
     atom  175 type  4   force =    -0.00069161   -0.00027140   -0.04018275
     atom  176 type  4   force =    -0.00069161    0.00027140   -0.04018275
     atom  177 type  4   force =     0.00069161    0.00027140   -0.04018275
     atom  178 type  4   force =     0.00069161   -0.00027140   -0.04018275
     atom  179 type  4   force =     0.00011057    0.00000000   -0.03712961
     atom  180 type  4   force =    -0.00011057    0.00000000   -0.03712961
     atom  181 type  4   force =     0.00000000   -0.00220012   -0.02515343
     atom  182 type  4   force =     0.00000000    0.00220012   -0.02515343
     atom  183 type  4   force =     0.00100708    0.00000000   -0.02903025
     atom  184 type  4   force =    -0.00100708    0.00000000   -0.02903025
     atom  185 type  3   force =     0.00082927   -0.00067373   -0.02042540
     atom  186 type  3   force =     0.00082927    0.00067373   -0.02042540
     atom  187 type  3   force =    -0.00082927   -0.00067373   -0.02042540
     atom  188 type  3   force =    -0.00082927    0.00067373   -0.02042540
     atom  189 type  3   force =     0.00057485   -0.00006868   -0.02383863
     atom  190 type  3   force =    -0.00057485   -0.00006868   -0.02383863
     atom  191 type  3   force =    -0.00057485    0.00006868   -0.02383863
     atom  192 type  3   force =     0.00057485    0.00006868   -0.02383863
     atom  193 type  1   force =     0.00000000    0.00000000   -0.02269514
     atom  194 type  1   force =     0.00000000   -0.00016148   -0.02576883
     atom  195 type  1   force =     0.00000000    0.00016148   -0.02576883
     atom  196 type  1   force =    -0.00003706    0.00000000   -0.02645661
     atom  197 type  1   force =     0.00003706    0.00000000   -0.02645661
     atom  198 type  1   force =     0.00000000    0.00000000   -0.02572976
     atom  199 type  1   force =     0.00000000    0.00000000   -0.02572976
     atom  200 type  1   force =     0.00000000    0.00000000   -0.02607262
     atom  201 type  4   force =    -0.00008439    0.00013244   -0.00084434
     atom  202 type  4   force =    -0.00008439   -0.00013244   -0.00084434
     atom  203 type  4   force =     0.00008439    0.00013244   -0.00084434
     atom  204 type  4   force =     0.00008439   -0.00013244   -0.00084434
     atom  205 type  4   force =    -0.00011180   -0.00006298   -0.00135159
     atom  206 type  4   force =     0.00011180   -0.00006298   -0.00135159
     atom  207 type  4   force =     0.00011180    0.00006298   -0.00135159
     atom  208 type  4   force =    -0.00011180    0.00006298   -0.00135159
     atom  209 type  4   force =     0.00020809    0.00000000    0.00218869
     atom  210 type  4   force =    -0.00020809    0.00000000    0.00218869
     atom  211 type  3   force =     0.00013733   -0.00006915   -0.00151695
     atom  212 type  3   force =     0.00013733    0.00006915   -0.00151695
     atom  213 type  3   force =    -0.00013733    0.00006915   -0.00151695
     atom  214 type  3   force =    -0.00013733   -0.00006915   -0.00151695
     atom  215 type  3   force =     0.00003848   -0.00010692   -0.00171900
     atom  216 type  3   force =    -0.00003848    0.00010692   -0.00171900
     atom  217 type  3   force =     0.00003848    0.00010692   -0.00171900
     atom  218 type  3   force =    -0.00003848   -0.00010692   -0.00171900
     atom  219 type  4   force =    -0.00007738    0.00051848    0.00212718
     atom  220 type  4   force =     0.00007738    0.00051848    0.00212718
     atom  221 type  4   force =    -0.00007738   -0.00051848    0.00212718
     atom  222 type  4   force =     0.00007738   -0.00051848    0.00212718
     atom  223 type  4   force =    -0.00026149    0.00000000    0.00154211
     atom  224 type  4   force =     0.00026149    0.00000000    0.00154211

     Total force =     0.315024     Total SCF correction =     0.000355


     Computing stress (Cartesian axis) and pressure


     negative rho (up, down):  6.323E-01 0.000E+00
          total   stress  (Ry/bohr**3)                   (kbar)     P=      -11.33
  -0.00001176   0.00000000   0.00000000           -1.73        0.00        0.00
   0.00000000  -0.00000303   0.00000000            0.00       -0.45        0.00
   0.00000000   0.00000000  -0.00021632            0.00        0.00      -31.82

 
     init_run     :     55.45s CPU     58.03s WALL (       1 calls)
     electrons    :   4158.82s CPU   4348.80s WALL (       1 calls)
     forces       :     32.67s CPU     34.86s WALL (       1 calls)
     stress       :    384.40s CPU    388.94s WALL (       1 calls)

     Called by init_run:
     wfcinit      :     43.66s CPU     45.03s WALL (       1 calls)
     potinit      :      1.59s CPU      1.63s WALL (       1 calls)
     hinit0       :      2.85s CPU      2.99s WALL (       1 calls)

     Called by electrons:
     c_bands      :   3461.63s CPU   3541.26s WALL (      41 calls)
     sum_band     :    473.64s CPU    535.37s WALL (      41 calls)
     v_of_rho     :     10.67s CPU     10.81s WALL (      42 calls)
     newd         :     79.85s CPU    128.39s WALL (      42 calls)
     mix_rho      :    133.93s CPU    134.75s WALL (      41 calls)

     Called by c_bands:
     init_us_2    :     11.95s CPU     12.13s WALL (     340 calls)
     cegterg      :   3378.31s CPU   3452.32s WALL (     164 calls)

     Called by sum_band:
     sum_band:bec :      3.74s CPU      3.77s WALL (     164 calls)
     addusdens    :     72.13s CPU    129.67s WALL (      41 calls)

     Called by *egterg:
     h_psi        :   1438.46s CPU   1465.74s WALL (     943 calls)
     s_psi        :    416.82s CPU    426.95s WALL (     943 calls)
     g_psi        :      1.90s CPU      1.92s WALL (     775 calls)
     cdiaghg      :    602.09s CPU    604.49s WALL (     939 calls)

     Called by h_psi:
     h_psi:calbec :    456.55s CPU    458.80s WALL (     943 calls)
     vloc_psi     :    561.70s CPU    568.51s WALL (     943 calls)
     add_vuspsi   :    417.05s CPU    427.57s WALL (     943 calls)

     General routines
     calbec       :    718.58s CPU    721.75s WALL (    1127 calls)
     fft          :     10.72s CPU     10.87s WALL (     569 calls)
     ffts         :     82.74s CPU     83.26s WALL (   35025 calls)
     fftw         :    626.61s CPU    633.95s WALL (  928550 calls)
     interpolate  :      0.94s CPU      0.95s WALL (      42 calls)
 
     Parallel routines
     fft_scatt_xy :     89.17s CPU     90.19s WALL (  964144 calls)
     fft_scatt_yz :    407.44s CPU    412.26s WALL (  964144 calls)
 
     PWSCF        :      1h17m CPU      1h20m WALL

 
   This run was terminated on:  19:36:22  17May2021            

=------------------------------------------------------------------------------=
   JOB DONE.
=------------------------------------------------------------------------------=
[1621294582.616000] [holy7c10311:17746:0]          mpool.c:43   UCX  WARN  object 0x2f6e0c0 was not returned to mpool ucp_requests
[1621294582.622825] [holy7c10311:17745:0]          mpool.c:43   UCX  WARN  object 0x31ac100 was not returned to mpool ucp_requests
[1621294582.623907] [holy7c10311:17744:0]          mpool.c:43   UCX  WARN  object 0x44c6840 was not returned to mpool ucp_requests
[1621294582.629633] [holy7c10311:17752:0]          mpool.c:43   UCX  WARN  object 0x2f07e40 was not returned to mpool ucp_requests
[1621294582.630002] [holy7c10403:254636:0]          mpool.c:43   UCX  WARN  object 0x46c11c0 was not returned to mpool ucp_requests
[1621294582.630517] [holy7c10311:17743:0]          mpool.c:43   UCX  WARN  object 0x385b980 was not returned to mpool ucp_requests
[1621294582.631820] [holy7c10311:17753:0]          mpool.c:43   UCX  WARN  object 0x3739ec0 was not returned to mpool ucp_requests
[1621294582.631283] [holy7c10210:172374:0]          mpool.c:43   UCX  WARN  object 0x2c6ea80 was not returned to mpool ucp_requests
[1621294582.630637] [holy7c10210:172382:0]          mpool.c:43   UCX  WARN  object 0x3921980 was not returned to mpool ucp_requests
[1621294582.630955] [holy7c10210:172373:0]          mpool.c:43   UCX  WARN  object 0x4001a40 was not returned to mpool ucp_requests
[1621294582.633722] [holy7c10311:17751:0]          mpool.c:43   UCX  WARN  object 0x5367880 was not returned to mpool ucp_requests
[1621294582.631980] [holy7c10210:172375:0]          mpool.c:43   UCX  WARN  object 0x3226dc0 was not returned to mpool ucp_requests
[1621294582.633300] [holy7c10210:172380:0]          mpool.c:43   UCX  WARN  object 0x3cb8dc0 was not returned to mpool ucp_requests
[1621294582.635199] [holy7c10308:131850:0]          mpool.c:43   UCX  WARN  object 0x2fa0d80 was not returned to mpool ucp_requests
[1621294582.635638] [holy7c10308:131848:0]          mpool.c:43   UCX  WARN  object 0x432a040 was not returned to mpool ucp_requests
[1621294582.633540] [holy7c10210:172381:0]          mpool.c:43   UCX  WARN  object 0x4221840 was not returned to mpool ucp_requests
[1621294582.643905] [holy7c10210:172383:0]          mpool.c:43   UCX  WARN  object 0x40b6680 was not returned to mpool ucp_requests
[1621294582.639524] [holy7c10308:131858:0]          mpool.c:43   UCX  WARN  object 0x30f9a80 was not returned to mpool ucp_requests
[1621294582.641740] [holy7c10308:131856:0]          mpool.c:43   UCX  WARN  object 0x5649a00 was not returned to mpool ucp_requests
[1621294582.629849] [holy7c10311:17754:0]          mpool.c:43   UCX  WARN  object 0x35a1680 was not returned to mpool ucp_requests
[1621294582.644390] [holy7c10308:131857:0]          mpool.c:43   UCX  WARN  object 0x3b5a200 was not returned to mpool ucp_requests
[1621294582.630215] [holy7c10403:254638:0]          mpool.c:43   UCX  WARN  object 0x32e0c40 was not returned to mpool ucp_requests
[1621294582.630049] [holy7c10403:254635:0]          mpool.c:43   UCX  WARN  object 0x3fbaac0 was not returned to mpool ucp_requests
[1621294582.630323] [holy7c10403:254637:0]          mpool.c:43   UCX  WARN  object 0x3093700 was not returned to mpool ucp_requests
[1621294582.631887] [holy7c10403:254646:0]          mpool.c:43   UCX  WARN  object 0x3efa540 was not returned to mpool ucp_requests
[1621294582.632973] [holy7c10403:254645:0]          mpool.c:43   UCX  WARN  object 0x3cb9bc0 was not returned to mpool ucp_requests
[1621294582.636195] [holy7c10403:254644:0]          mpool.c:43   UCX  WARN  object 0x428c940 was not returned to mpool ucp_requests
[1621294582.651177] [holy7c10403:254643:0]          mpool.c:43   UCX  WARN  object 0x3fb2980 was not returned to mpool ucp_requests
[1621294582.647566] [holy7c10308:131849:0]          mpool.c:43   UCX  WARN  object 0x369ca40 was not returned to mpool ucp_requests
[1621294582.650693] [holy7c10308:131859:0]          mpool.c:43   UCX  WARN  object 0x3154840 was not returned to mpool ucp_requests
[1621294582.667976] [holy7c10308:131851:0]          mpool.c:43   UCX  WARN  object 0x5df1100 was not returned to mpool ucp_requests
