
     Program PWSCF v.6.5 starts on 18May2021 at 10:59:51 

     This program is part of the open-source Quantum ESPRESSO suite
     for quantum simulation of materials; please cite
         "P. Giannozzi et al., J. Phys.:Condens. Matter 21 395502 (2009);
         "P. Giannozzi et al., J. Phys.:Condens. Matter 29 465901 (2017);
          URL http://www.quantum-espresso.org", 
     in publications or presentations arising from this work. More details at
     http://www.quantum-espresso.org/quote

     Parallel version (MPI), running on    80 processors

     MPI processes distributed on     5 nodes
     R & G space division:  proc/nbgrp/npool/nimage =      80
     Reading input from YBCO_Y_cleave_2.5_sep.pwi
Warning: card &IONS ignored
Warning: card     ION_DYNAMICS = 'BFGS' ignored
Warning: card / ignored
Warning: card &CELL ignored
Warning: card     CELL_DYNAMICS = 'BFGS' ignored
Warning: card     PRESS_CONV_THR = 5 ignored
Warning: card / ignored

     Current dimensions of program PWSCF are:
     Max number of different atomic species (ntypx) = 10
     Max number of k-points (npk) =  40000
     Max angular momentum in pseudopotentials (lmaxx) =  3
     Message from routine volume:
     axis vectors are left-handed

     Subspace diagonalization in iterative solution of the eigenvalue problem:
     one sub-group per band group will be used
     scalapack distributed-memory algorithm (size of sub-group:  8*  8 procs)

     Message from routine setup:
     using ibrav=0 with symmetry is DISCOURAGED, use correct ibrav instead
 
     Parallelization info
     --------------------
     sticks:   dense  smooth     PW     G-vecs:    dense   smooth      PW
     Min         300     100     25               148918    28658    3763
     Max         301     101     26               148955    28681    3800
     Sum       24079    8031   2067             11915489  2293371  303101
 


     bravais-lattice index     =            0
     lattice parameter (alat)  =      20.5021  a.u.
     unit-cell volume          =   36520.4775 (a.u.)^3
     number of atoms/cell      =          224
     number of atomic types    =            5
     number of electrons       =      1830.00
     number of Kohn-Sham states=         1098
     kinetic-energy cutoff     =      60.0000  Ry
     charge density cutoff     =     720.0000  Ry
     convergence threshold     =      1.0E-08
     mixing beta               =       0.5000
     number of iterations used =           10  local-TF  mixing
     Exchange-correlation= SLA PW PBE PBE
                           (   1   4   3   4   0   0   0)

     celldm(1)=  20.502120  celldm(2)=   0.000000  celldm(3)=   0.000000
     celldm(4)=   0.000000  celldm(5)=   0.000000  celldm(6)=   0.000000

     crystal axes: (cart. coord. in units of alat)
               a(1) = (  -0.716599   0.697485   0.000000 )  
               a(2) = (   0.716599   0.697485   0.000000 )  
               a(3) = (   0.000000   0.000000   4.239346 )  

     reciprocal axes: (cart. coord. in units 2 pi/alat)
               b(1) = ( -0.697740  0.716861  0.000000 )  
               b(2) = (  0.697740  0.716861  0.000000 )  
               b(3) = (  0.000000  0.000000  0.235885 )  


     PseudoPot. # 1 for Ba read from file:
     ./pseudo/Ba.pbe-nsp-van.UPF
     MD5 check sum: 2b9c31dd849566dd297d80989662b7a0
     Pseudo is Ultrasoft + core correction, Zval = 10.0
     Generated by new atomic code, or converted to UPF format
     Using radial grid of  907 points,  6 beta functions with: 
                l(1) =   0
                l(2) =   0
                l(3) =   1
                l(4) =   1
                l(5) =   2
                l(6) =   2
     Q(r) pseudized with  6 coefficients,  rinner =    1.200   1.200   1.200
                                                       1.200   1.200

     PseudoPot. # 2 for Ca read from file:
     ./pseudo/Ca.pbe-nsp-van.UPF
     MD5 check sum: 6471098428ff4fa451746d08035ff179
     Pseudo is Ultrasoft + core correction, Zval = 10.0
     Generated by new atomic code, or converted to UPF format
     Using radial grid of  845 points,  6 beta functions with: 
                l(1) =   0
                l(2) =   0
                l(3) =   1
                l(4) =   1
                l(5) =   2
                l(6) =   2
     Q(r) pseudized with  6 coefficients,  rinner =    1.200   1.200   1.200
                                                       1.200   1.200

     PseudoPot. # 3 for Cu read from file:
     ./pseudo/Cu.pbe-n-van_ak.UPF
     MD5 check sum: 34e3282627ffb533726feb647e090d62
     Pseudo is Ultrasoft + core correction, Zval = 11.0
     Generated by new atomic code, or converted to UPF format
     Using radial grid of  867 points,  6 beta functions with: 
                l(1) =   0
                l(2) =   0
                l(3) =   1
                l(4) =   1
                l(5) =   2
                l(6) =   2
     Q(r) pseudized with  8 coefficients,  rinner =    1.400   1.400   1.400
                                                       1.400   1.400

     PseudoPot. # 4 for O  read from file:
     ./pseudo/O.pbe-van_ak.UPF
     MD5 check sum: 783ce7fe4c79b6a4916957118fed0856
     Pseudo is Ultrasoft, Zval =  6.0
     Generated by new atomic code, or converted to UPF format
     Using radial grid of  737 points,  4 beta functions with: 
                l(1) =   0
                l(2) =   0
                l(3) =   1
                l(4) =   1
     Q(r) pseudized with  8 coefficients,  rinner =    0.800   0.800   0.800


     PseudoPot. # 5 for Y  read from file:
     ./pseudo/Y.pbe-nsp-van.UPF
     MD5 check sum: 4412fed3ab108fed87a1b7d6a69a4a38
     Pseudo is Ultrasoft + core correction, Zval = 11.0
     Generated by new atomic code, or converted to UPF format
     Using radial grid of  885 points,  6 beta functions with: 
                l(1) =   0
                l(2) =   0
                l(3) =   1
                l(4) =   1
                l(5) =   2
                l(6) =   2
     Q(r) pseudized with  6 coefficients,  rinner =    1.200   1.200   1.200
                                                       1.200   1.200

     atomic species   valence    mass     pseudopotential
        Ba            10.00   137.32700     Ba( 1.00)
        Ca            10.00    40.07800     Ca( 1.00)
        Cu            11.00    63.54600     Cu( 1.00)
        O              6.00    15.99900     O ( 1.00)
        Y             11.00    88.90584     Y ( 1.00)

      4 Sym. Ops. (no inversion) found ( 3 have fractional translation)



   Cartesian axes

     site n.     atom                  positions (alat units)
         1           O   tau(   1) = (   0.3545921   0.8718562  -0.0077406  )
         2           O   tau(   2) = (   0.0037072   0.8718562  -0.0077406  )
         3           Cu  tau(   3) = (  -0.0002581   0.0006065   0.0080789  )
         4           Cu  tau(   4) = (  -0.0002581   0.3481364   0.0080789  )
         5           Cu  tau(   5) = (   0.3585574   0.3481364   0.0080789  )
         6           Cu  tau(   6) = (  -0.3580421   0.6980913   0.0080789  )
         7           Cu  tau(   7) = (   0.3577988   0.6971373   0.0086255  )
         8           Cu  tau(   8) = (   0.0005005   1.0465760   0.0086255  )
         9           Cu  tau(   9) = (  -0.3588016   0.3490903   0.0086255  )
        10           Cu  tau(  10) = (   0.0005005   0.6971373   0.0086255  )
        11           O   tau(  11) = (  -0.0001733   0.5225410  -0.0089757  )
        12           O   tau(  12) = (   0.3584726   0.5225410  -0.0089757  )
        13           O   tau(  13) = (  -0.0001733   1.2211724  -0.0089757  )
        14           O   tau(  14) = (  -0.3581278   0.5236867  -0.0089757  )
        15           O   tau(  15) = (  -0.3544557   0.8718562  -0.0105593  )
        16           O   tau(  16) = (  -0.0038445   0.1743714  -0.0105593  )
        17           O   tau(  17) = (   0.3588818   0.3486599   0.1817056  )
        18           O   tau(  18) = (  -0.0005825   0.3486599   0.1817056  )
        19           O   tau(  19) = (  -0.0005825   0.0000830   0.1817056  )
        20           O   tau(  20) = (  -0.3577167   0.6975677   0.1817056  )
        21           O   tau(  21) = (   0.3584283   0.6967843   0.1825784  )
        22           O   tau(  22) = (  -0.3581712   0.3494443   0.1825784  )
        23           O   tau(  23) = (  -0.0001290   0.6967843   0.1825784  )
        24           O   tau(  24) = (  -0.0001290   1.0469291   0.1825784  )
        25           Ba  tau(  25) = (   0.1791506   0.8718562   0.1908537  )
        26           Ba  tau(  26) = (   0.5374498   0.5231143   0.1919901  )
        27           Ba  tau(  27) = (  -0.1791506   0.5231143   0.1919901  )
        28           Ba  tau(  28) = (  -0.1793773   0.8718562   0.1931958  )
        29           Ba  tau(  29) = (  -0.1789238   0.1743714   0.1931958  )
        30           Ba  tau(  30) = (   0.1791506   0.5222101   0.1929368  )
        31           Ba  tau(  31) = (  -0.5374498   0.5240176   0.1929368  )
        32           Ba  tau(  32) = (   0.1791506   0.1743714   0.1992469  )
        33           Cu  tau(  33) = (  -0.3583426   0.3488452   0.3777458  )
        34           Cu  tau(  34) = (   0.3582559   0.6973834   0.3777458  )
        35           Cu  tau(  35) = (   0.0000433   0.6973834   0.3777458  )
        36           Cu  tau(  36) = (   0.0000433   1.0463299   0.3777458  )
        37           Cu  tau(  37) = (  -0.3586541   0.6975060   0.3775126  )
        38           Cu  tau(  38) = (   0.3579444   0.3487217   0.3775126  )
        39           Cu  tau(  39) = (   0.0003549   0.0000212   0.3775126  )
        40           Cu  tau(  40) = (   0.0003549   0.3487217   0.3775126  )
        41           O   tau(  41) = (  -0.0047976   0.1743714   0.3996864  )
        42           O   tau(  42) = (  -0.3535026   0.8718562   0.3996864  )
        43           O   tau(  43) = (  -0.5374498   0.6924605   0.3956991  )
        44           O   tau(  44) = (   0.1791506   0.3537672   0.3956991  )
        45           O   tau(  45) = (   0.3586385   0.8718562   0.4046840  )
        46           O   tau(  46) = (  -0.0003392   0.8718562   0.4046840  )
        47           O   tau(  47) = (  -0.0004857   0.5230571   0.4066611  )
        48           O   tau(  48) = (   0.3587850   0.5230571   0.4066611  )
        49           O   tau(  49) = (  -0.3578135   0.5231714   0.4066611  )
        50           O   tau(  50) = (  -0.0004857   1.2206562   0.4066611  )
        51           O   tau(  51) = (   0.1791506   1.0461604   0.4028931  )
        52           O   tau(  52) = (   0.1791506   0.6975521   0.4028931  )
        53           O   tau(  53) = (  -0.1792261   0.6967170   0.4025963  )
        54           O   tau(  54) = (  -0.1790731   0.3495106   0.4025963  )
        55           O   tau(  55) = (  -0.1792261   1.0469964   0.4025963  )
        56           O   tau(  56) = (   0.5375263   0.6967170   0.4025963  )
        57           Ca  tau(  57) = (   0.1791506   0.1743714   0.5358617  )
        58           Y   tau(  58) = (  -0.1811525   0.8718562   0.5373908  )
        59           Y   tau(  59) = (  -0.1771467   0.1743714   0.5373908  )
        60           Y   tau(  60) = (   0.1791506   0.8718562   0.5379568  )
        61           Y   tau(  61) = (   0.5374498   0.5231143   0.5384490  )
        62           Y   tau(  62) = (  -0.1791506   0.5231143   0.5384490  )
        63           Y   tau(  63) = (   0.1791506   0.5216598   0.5383310  )
        64           Y   tau(  64) = (  -0.5374498   0.5245688   0.5383310  )
        65           O   tau(  65) = (  -0.1787754   0.3493171   0.6712314  )
        66           O   tau(  66) = (   0.5378231   0.6969115   0.6712314  )
        67           O   tau(  67) = (  -0.1795239   1.0468019   0.6712314  )
        68           O   tau(  68) = (  -0.1795239   0.6969115   0.6712314  )
        69           O   tau(  69) = (   0.1791506   0.6972691   0.6718637  )
        70           O   tau(  70) = (   0.1791506   1.0464433   0.6718637  )
        71           O   tau(  71) = (  -0.0003880   1.2203935   0.6667490  )
        72           O   tau(  72) = (  -0.0003880   0.5233198   0.6667490  )
        73           O   tau(  73) = (   0.3586882   0.5233198   0.6667490  )
        74           O   tau(  74) = (  -0.3579112   0.5229087   0.6667490  )
        75           O   tau(  75) = (   0.3585850   0.8718562   0.6641940  )
        76           O   tau(  76) = (  -0.0002857   0.8718562   0.6641940  )
        77           O   tau(  77) = (   0.1791506   0.3535118   0.6756778  )
        78           O   tau(  78) = (  -0.5374498   0.6927158   0.6756778  )
        79           O   tau(  79) = (  -0.0043044   0.1743714   0.6710848  )
        80           O   tau(  80) = (  -0.3539948   0.8718562   0.6710848  )
        81           Cu  tau(  81) = (  -0.3586514   0.6973604   0.6974442  )
        82           Cu  tau(  82) = (   0.3579472   0.3488682   0.6974442  )
        83           Cu  tau(  83) = (   0.0003521  -0.0001254   0.6974442  )
        84           Cu  tau(  84) = (   0.0003521   0.3488682   0.6974442  )
        85           Cu  tau(  85) = (   0.0000083   1.0459401   0.6989015  )
        86           Cu  tau(  86) = (  -0.3583076   0.3484544   0.6989015  )
        87           Cu  tau(  87) = (   0.3582910   0.6977733   0.6989015  )
        88           Cu  tau(  88) = (   0.0000083   0.6977733   0.6989015  )
        89           Ba  tau(  89) = (   0.1791506   0.1743714   0.8671591  )
        90           Ba  tau(  90) = (  -0.5374498   0.5239908   0.8827639  )
        91           Ba  tau(  91) = (   0.1791506   0.5222377   0.8827639  )
        92           Ba  tau(  92) = (  -0.1785616   0.1743714   0.8784262  )
        93           Ba  tau(  93) = (  -0.1797386   0.8718562   0.8784262  )
        94           Ba  tau(  94) = (  -0.1791506   0.5231143   0.8841483  )
        95           Ba  tau(  95) = (   0.5374498   0.5231143   0.8841483  )
        96           Ba  tau(  96) = (   0.1791506   0.8718562   0.8844635  )
        97           O   tau(  97) = (   0.3607888   0.6975991   0.9037874  )
        98           O   tau(  98) = (  -0.3558097   0.3486286   0.9037874  )
        99           O   tau(  99) = (  -0.0024896   0.6975991   0.9037874  )
       100           O   tau( 100) = (  -0.0024896   1.0461143   0.9037874  )
       101           O   tau( 101) = (   0.3544087   0.3463252   0.9043663  )
       102           O   tau( 102) = (   0.0038906   0.3463252   0.9043663  )
       103           O   tau( 103) = (   0.0038906   0.0024177   0.9043663  )
       104           O   tau( 104) = (  -0.3621908   0.6999025   0.9043663  )
       105           O   tau( 105) = (   0.3314246   0.8718562   1.0783672  )
       106           O   tau( 106) = (   0.0268747   0.8718562   1.0783672  )
       107           Cu  tau( 107) = (  -0.0027882   0.0031818   1.0782086  )
       108           Cu  tau( 108) = (  -0.0027882   0.3455601   1.0782086  )
       109           Cu  tau( 109) = (   0.3610875   0.3455601   1.0782086  )
       110           Cu  tau( 110) = (  -0.3555111   0.7006675   1.0782086  )
       111           Cu  tau( 111) = (   0.3579684   0.6983604   1.0781976  )
       112           Cu  tau( 112) = (   0.0003318   1.0453529   1.0781976  )
       113           Cu  tau( 113) = (  -0.3586320   0.3478672   1.0781976  )
       114           Cu  tau( 114) = (   0.0003318   0.6983604   1.0781976  )
       115           O   tau( 115) = (  -0.0055718   0.5218801   1.0778989  )
       116           O   tau( 116) = (   0.3638720   0.5218801   1.0778989  )
       117           O   tau( 117) = (  -0.0055718   1.2218333   1.0778989  )
       118           O   tau( 118) = (  -0.3527284   0.5243475   1.0778989  )
       119           O   tau( 119) = (  -0.3170374   0.8718562   1.0783192  )
       120           O   tau( 120) = (  -0.0412618   0.1743714   1.0783192  )
       121           O   tau( 121) = (   0.3544105   0.3465040   1.2520362  )
       122           O   tau( 122) = (   0.0038887   0.3465040   1.2520362  )
       123           O   tau( 123) = (   0.0038887   0.0022389   1.2520362  )
       124           O   tau( 124) = (  -0.3621880   0.6997236   1.2520362  )
       125           O   tau( 125) = (   0.3607981   0.6973991   1.2525976  )
       126           O   tau( 126) = (  -0.3558014   0.3488295   1.2525976  )
       127           O   tau( 127) = (  -0.0024988   0.6973991   1.2525976  )
       128           O   tau( 128) = (  -0.0024988   1.0463143   1.2525976  )
       129           Ba  tau( 129) = (   0.1791506   0.8718562   1.2719528  )
       130           Ba  tau( 130) = (   0.5374498   0.5231143   1.2722763  )
       131           Ba  tau( 131) = (  -0.1791506   0.5231143   1.2722763  )
       132           Ba  tau( 132) = (  -0.1796732   0.8718562   1.2779763  )
       133           Ba  tau( 133) = (  -0.1786270   0.1743714   1.2779763  )
       134           Ba  tau( 134) = (   0.1791506   0.5222571   1.2737041  )
       135           Ba  tau( 135) = (  -0.5374498   0.5239706   1.2737041  )
       136           Ba  tau( 136) = (   0.1791506   0.1743714   1.2892268  )
       137           Cu  tau( 137) = (  -0.3583094   0.3484682   1.4575232  )
       138           Cu  tau( 138) = (   0.3582901   0.6977604   1.4575232  )
       139           Cu  tau( 139) = (   0.0000101   0.6977604   1.4575232  )
       140           Cu  tau( 140) = (   0.0000101   1.0459530   1.4575232  )
       141           Cu  tau( 141) = (  -0.3586477   0.6973567   1.4589435  )
       142           Cu  tau( 142) = (   0.3579518   0.3488710   1.4589435  )
       143           Cu  tau( 143) = (   0.0003484  -0.0001281   1.4589435  )
       144           Cu  tau( 144) = (   0.0003484   0.3488710   1.4589435  )
       145           O   tau( 145) = (  -0.0043173   0.1743714   1.4852486  )
       146           O   tau( 146) = (  -0.3539819   0.8718562   1.4852486  )
       147           O   tau( 147) = (  -0.5374498   0.6927305   1.4807174  )
       148           O   tau( 148) = (   0.1791506   0.3534971   1.4807174  )
       149           O   tau( 149) = (   0.3585795   0.8718562   1.4921587  )
       150           O   tau( 150) = (  -0.0002802   0.8718562   1.4921587  )
       151           O   tau( 151) = (  -0.0003853   0.5233134   1.4896627  )
       152           O   tau( 152) = (   0.3586855   0.5233134   1.4896627  )
       153           O   tau( 153) = (  -0.3579140   0.5229152   1.4896627  )
       154           O   tau( 154) = (  -0.0003853   1.2204000   1.4896627  )
       155           O   tau( 155) = (   0.1791506   1.0464553   1.4845361  )
       156           O   tau( 156) = (   0.1791506   0.6972571   1.4845361  )
       157           O   tau( 157) = (  -0.1795146   0.6969069   1.4851647  )
       158           O   tau( 158) = (  -0.1787846   0.3493208   1.4851647  )
       159           O   tau( 159) = (  -0.1795146   1.0468065   1.4851647  )
       160           O   tau( 160) = (   0.5378139   0.6969069   1.4851647  )
       161           Ca  tau( 161) = (   0.1791506   0.1743714   1.6205270  )
       162           Y   tau( 162) = (  -0.1811544   0.8718562   1.6189960  )
       163           Y   tau( 163) = (  -0.1771449   0.1743714   1.6189960  )
       164           Y   tau( 164) = (   0.1791506   0.8718562   1.6184328  )
       165           Y   tau( 165) = (   0.5374498   0.5231143   1.6179637  )
       166           Y   tau( 166) = (  -0.1791506   0.5231143   1.6179637  )
       167           Y   tau( 167) = (   0.1791506   0.5216524   1.6180844  )
       168           Y   tau( 168) = (  -0.5374498   0.5245761   1.6180844  )
       169           O   tau( 169) = (  -0.1790685   0.3495088   1.9842294  )
       170           O   tau( 170) = (   0.5375300   0.6967198   1.9842294  )
       171           O   tau( 171) = (  -0.1792307   1.0469936   1.9842294  )
       172           O   tau( 172) = (  -0.1792307   0.6967198   1.9842294  )
       173           O   tau( 173) = (   0.1791506   0.6975604   1.9839326  )
       174           O   tau( 174) = (   0.1791506   1.0461521   1.9839326  )
       175           O   tau( 175) = (  -0.0004848   1.2206534   1.9801683  )
       176           O   tau( 176) = (  -0.0004848   0.5230599   1.9801683  )
       177           O   tau( 177) = (   0.3587841   0.5230599   1.9801683  )
       178           O   tau( 178) = (  -0.3578144   0.5231687   1.9801683  )
       179           O   tau( 179) = (   0.3586468   0.8718562   1.9821067  )
       180           O   tau( 180) = (  -0.0003466   0.8718562   1.9821067  )
       181           O   tau( 181) = (   0.1791506   0.3537690   1.9911294  )
       182           O   tau( 182) = (  -0.5374498   0.6924586   1.9911294  )
       183           O   tau( 183) = (  -0.0047874   0.1743714   1.9870941  )
       184           O   tau( 184) = (  -0.3535118   0.8718562   1.9870941  )
       185           Cu  tau( 185) = (  -0.3586560   0.6975087   2.0093003  )
       186           Cu  tau( 186) = (   0.3579435   0.3487198   2.0093003  )
       187           Cu  tau( 187) = (   0.0003567   0.0000230   2.0093003  )
       188           Cu  tau( 188) = (   0.0003567   0.3487198   2.0093003  )
       189           Cu  tau( 189) = (   0.0000415   1.0463263   2.0090680  )
       190           Cu  tau( 190) = (  -0.3583407   0.3488406   2.0090680  )
       191           Cu  tau( 191) = (   0.3582587   0.6973871   2.0090680  )
       192           Cu  tau( 192) = (   0.0000415   0.6973871   2.0090680  )
       193           Ba  tau( 193) = (   0.1791506   0.1743714   2.1875733  )
       194           Ba  tau( 194) = (  -0.5374498   0.5240166   2.1938825  )
       195           Ba  tau( 195) = (   0.1791506   0.5222119   2.1938825  )
       196           Ba  tau( 196) = (  -0.1789220   0.1743714   2.1936263  )
       197           Ba  tau( 197) = (  -0.1793773   0.8718562   2.1936263  )
       198           Ba  tau( 198) = (  -0.1791506   0.5231143   2.1948365  )
       199           Ba  tau( 199) = (   0.5374498   0.5231143   2.1948365  )
       200           Ba  tau( 200) = (   0.1791506   0.8718562   2.1959647  )
       201           O   tau( 201) = (   0.3584302   0.6967870   2.2042344  )
       202           O   tau( 202) = (  -0.3581684   0.3494406   2.2042344  )
       203           O   tau( 203) = (  -0.0001309   0.6967870   2.2042344  )
       204           O   tau( 204) = (  -0.0001309   1.0469263   2.2042344  )
       205           O   tau( 205) = (   0.3588800   0.3486562   2.2051073  )
       206           O   tau( 206) = (  -0.0005807   0.3486562   2.2051073  )
       207           O   tau( 207) = (  -0.0005807   0.0000866   2.2051073  )
       208           O   tau( 208) = (  -0.3577186   0.6975714   2.2051073  )
       209           O   tau( 209) = (   0.3545921   0.8718562   2.3945378  )
       210           O   tau( 210) = (   0.0037081   0.8718562   2.3945378  )
       211           Cu  tau( 211) = (  -0.0002516   0.0006074   2.3787339  )
       212           Cu  tau( 212) = (  -0.0002516   0.3481345   2.3787339  )
       213           Cu  tau( 213) = (   0.3585509   0.3481345   2.3787339  )
       214           Cu  tau( 214) = (  -0.3580476   0.6980931   2.3787339  )
       215           Cu  tau( 215) = (   0.3577960   0.6971373   2.3781873  )
       216           Cu  tau( 216) = (   0.0005033   1.0465760   2.3781873  )
       217           Cu  tau( 217) = (  -0.3588035   0.3490903   2.3781873  )
       218           Cu  tau( 218) = (   0.0005033   0.6971373   2.3781873  )
       219           O   tau( 219) = (  -0.0001724   0.5225410   2.3957766  )
       220           O   tau( 220) = (   0.3584716   0.5225410   2.3957766  )
       221           O   tau( 221) = (  -0.0001724   1.2211724   2.3957766  )
       222           O   tau( 222) = (  -0.3581288   0.5236867   2.3957766  )
       223           O   tau( 223) = (  -0.3544640   0.8718562   2.3973665  )
       224           O   tau( 224) = (  -0.0038353   0.1743714   2.3973665  )

     number of k points=     4  Gaussian smearing, width (Ry)=  0.0100
                       cart. coord. in units 2pi/alat
        k(    1) = (   0.0000000   0.0000000   0.0000000), wk =   0.2222222
        k(    2) = (   0.2325801   0.2389537   0.0000000), wk =   0.8888889
        k(    3) = (   0.0000000   0.4779073   0.0000000), wk =   0.4444444
        k(    4) = (  -0.4651601  -0.0000000   0.0000000), wk =   0.4444444

     Dense  grid: 11915489 G-vectors     FFT dimensions: ( 180, 180, 750)

     Smooth grid:  2293371 G-vectors     FFT dimensions: ( 108, 108, 432)

     Estimated max dynamical RAM per process >       2.49 GB

     Estimated total dynamical RAM >     199.06 GB

     Initial potential from superposition of free atoms

     starting charge 1828.78422, renormalised to 1830.00000

     negative rho (up, down):  6.315E-01 0.000E+00
     Starting wfcs are 1602 randomized atomic wfcs

     total cpu time spent up to now is       61.8 secs

     Self-consistent Calculation

     iteration #  1     ecut=    60.00 Ry     beta= 0.50
     Davidson diagonalization with overlap
     ethr =  1.00E-02,  avg # of iterations =  2.0

     negative rho (up, down):  5.966E-01 0.000E+00

     total cpu time spent up to now is      164.1 secs

     total energy              =  -14912.36446840 Ry
     Harris-Foulkes estimate   =  -14942.54915834 Ry
     estimated scf accuracy    <     116.17700609 Ry

     iteration #  2     ecut=    60.00 Ry     beta= 0.50
     Davidson diagonalization with overlap
     ethr =  6.35E-03,  avg # of iterations =  2.0

     negative rho (up, down):  5.940E-01 0.000E+00

     total cpu time spent up to now is      261.7 secs

     total energy              =  -14921.89413289 Ry
     Harris-Foulkes estimate   =  -14925.94568695 Ry
     estimated scf accuracy    <      67.55615602 Ry

     iteration #  3     ecut=    60.00 Ry     beta= 0.50
     Davidson diagonalization with overlap
     ethr =  3.69E-03,  avg # of iterations =  1.0

     negative rho (up, down):  5.950E-01 0.000E+00

     total cpu time spent up to now is      354.0 secs

     total energy              =  -14922.39418486 Ry
     Harris-Foulkes estimate   =  -14924.45310047 Ry
     estimated scf accuracy    <      35.14266852 Ry

     iteration #  4     ecut=    60.00 Ry     beta= 0.50
     Davidson diagonalization with overlap
     ethr =  1.92E-03,  avg # of iterations =  1.0

     negative rho (up, down):  5.990E-01 0.000E+00

     total cpu time spent up to now is      446.0 secs

     total energy              =  -14922.15976064 Ry
     Harris-Foulkes estimate   =  -14923.48133224 Ry
     estimated scf accuracy    <      33.92323021 Ry

     iteration #  5     ecut=    60.00 Ry     beta= 0.50
     Davidson diagonalization with overlap
     ethr =  1.85E-03,  avg # of iterations =  1.0

     negative rho (up, down):  6.095E-01 0.000E+00

     total cpu time spent up to now is      537.4 secs

     total energy              =  -14921.71857906 Ry
     Harris-Foulkes estimate   =  -14922.77633222 Ry
     estimated scf accuracy    <      23.22851235 Ry

     iteration #  6     ecut=    60.00 Ry     beta= 0.50
     Davidson diagonalization with overlap
     ethr =  1.27E-03,  avg # of iterations =  3.2

     negative rho (up, down):  6.193E-01 0.000E+00

     total cpu time spent up to now is      638.2 secs

     total energy              =  -14921.58250926 Ry
     Harris-Foulkes estimate   =  -14922.19404039 Ry
     estimated scf accuracy    <      25.21812547 Ry

     iteration #  7     ecut=    60.00 Ry     beta= 0.50
     Davidson diagonalization with overlap
     ethr =  1.27E-03,  avg # of iterations =  7.8

     negative rho (up, down):  6.217E-01 0.000E+00

     total cpu time spent up to now is      763.5 secs

     total energy              =  -14921.76069348 Ry
     Harris-Foulkes estimate   =  -14922.02467002 Ry
     estimated scf accuracy    <       4.17667521 Ry

     iteration #  8     ecut=    60.00 Ry     beta= 0.50
     Davidson diagonalization with overlap
     ethr =  2.28E-04,  avg # of iterations =  6.8

     negative rho (up, down):  6.239E-01 0.000E+00

     total cpu time spent up to now is      892.5 secs

     total energy              =  -14921.81613999 Ry
     Harris-Foulkes estimate   =  -14921.90337570 Ry
     estimated scf accuracy    <       1.38511888 Ry

     iteration #  9     ecut=    60.00 Ry     beta= 0.50
     Davidson diagonalization with overlap
     ethr =  7.57E-05,  avg # of iterations =  5.8

     negative rho (up, down):  6.266E-01 0.000E+00

     total cpu time spent up to now is     1004.1 secs

     total energy              =  -14921.81129469 Ry
     Harris-Foulkes estimate   =  -14921.86341356 Ry
     estimated scf accuracy    <       1.25455239 Ry

     iteration # 10     ecut=    60.00 Ry     beta= 0.50
     Davidson diagonalization with overlap
     ethr =  6.86E-05,  avg # of iterations =  4.8

     negative rho (up, down):  6.266E-01 0.000E+00

     total cpu time spent up to now is     1112.1 secs

     total energy              =  -14921.83105227 Ry
     Harris-Foulkes estimate   =  -14921.84190011 Ry
     estimated scf accuracy    <       1.29924595 Ry

     iteration # 11     ecut=    60.00 Ry     beta= 0.50
     Davidson diagonalization with overlap
     ethr =  6.86E-05,  avg # of iterations =  1.0

     negative rho (up, down):  6.226E-01 0.000E+00

     total cpu time spent up to now is     1203.8 secs

     total energy              =  -14921.77303043 Ry
     Harris-Foulkes estimate   =  -14921.83422823 Ry
     estimated scf accuracy    <       1.12024887 Ry

     iteration # 12     ecut=    60.00 Ry     beta= 0.50
     Davidson diagonalization with overlap
     ethr =  6.12E-05,  avg # of iterations =  2.2

     negative rho (up, down):  6.225E-01 0.000E+00

     total cpu time spent up to now is     1300.4 secs

     total energy              =  -14921.78504364 Ry
     Harris-Foulkes estimate   =  -14921.80006966 Ry
     estimated scf accuracy    <       0.57072593 Ry

     iteration # 13     ecut=    60.00 Ry     beta= 0.50
     Davidson diagonalization with overlap
     ethr =  3.12E-05,  avg # of iterations = 16.2

     negative rho (up, down):  6.215E-01 0.000E+00

     total cpu time spent up to now is     1457.8 secs

     total energy              =  -14921.78461819 Ry
     Harris-Foulkes estimate   =  -14921.79132472 Ry
     estimated scf accuracy    <       0.45147520 Ry

     iteration # 14     ecut=    60.00 Ry     beta= 0.50
     Davidson diagonalization with overlap
     ethr =  2.47E-05,  avg # of iterations =  5.8

     negative rho (up, down):  6.192E-01 0.000E+00

     total cpu time spent up to now is     1568.7 secs

     total energy              =  -14921.77836042 Ry
     Harris-Foulkes estimate   =  -14921.78685199 Ry
     estimated scf accuracy    <       0.34782226 Ry

     iteration # 15     ecut=    60.00 Ry     beta= 0.50
     Davidson diagonalization with overlap
     ethr =  1.90E-05,  avg # of iterations =  1.8

     negative rho (up, down):  6.188E-01 0.000E+00

     total cpu time spent up to now is     1664.4 secs

     total energy              =  -14921.77671998 Ry
     Harris-Foulkes estimate   =  -14921.78179688 Ry
     estimated scf accuracy    <       0.24599778 Ry

     iteration # 16     ecut=    60.00 Ry     beta= 0.50
     Davidson diagonalization with overlap
     c_bands:  1 eigenvalues not converged
     ethr =  1.34E-05,  avg # of iterations =  9.2

     negative rho (up, down):  6.265E-01 0.000E+00

     total cpu time spent up to now is     1788.2 secs

     total energy              =  -14921.76747094 Ry
     Harris-Foulkes estimate   =  -14921.77746196 Ry
     estimated scf accuracy    <       0.18806997 Ry

     iteration # 17     ecut=    60.00 Ry     beta= 0.50
     Davidson diagonalization with overlap
     ethr =  1.03E-05,  avg # of iterations = 10.2

     negative rho (up, down):  6.733E-01 0.000E+00

     total cpu time spent up to now is     1920.7 secs

     total energy              =  -14921.75811123 Ry
     Harris-Foulkes estimate   =  -14921.76922152 Ry
     estimated scf accuracy    <       0.11203866 Ry

     iteration # 18     ecut=    60.00 Ry     beta= 0.50
     Davidson diagonalization with overlap
     ethr =  6.12E-06,  avg # of iterations = 14.0

     negative rho (up, down):  6.556E-01 0.000E+00

     total cpu time spent up to now is     2079.6 secs

     total energy              =  -14921.75837514 Ry
     Harris-Foulkes estimate   =  -14921.76045428 Ry
     estimated scf accuracy    <       0.03061071 Ry

     iteration # 19     ecut=    60.00 Ry     beta= 0.50
     Davidson diagonalization with overlap
     ethr =  1.67E-06,  avg # of iterations =  6.8

     negative rho (up, down):  6.405E-01 0.000E+00

     total cpu time spent up to now is     2195.3 secs

     total energy              =  -14921.75740679 Ry
     Harris-Foulkes estimate   =  -14921.75915034 Ry
     estimated scf accuracy    <       0.03210067 Ry

     iteration # 20     ecut=    60.00 Ry     beta= 0.50
     Davidson diagonalization with overlap
     ethr =  1.67E-06,  avg # of iterations =  8.2

     negative rho (up, down):  6.443E-01 0.000E+00

     total cpu time spent up to now is     2318.8 secs

     total energy              =  -14921.75460106 Ry
     Harris-Foulkes estimate   =  -14921.75770280 Ry
     estimated scf accuracy    <       0.02294123 Ry

     iteration # 21     ecut=    60.00 Ry     beta= 0.50
     Davidson diagonalization with overlap
     c_bands:  1 eigenvalues not converged
     ethr =  1.25E-06,  avg # of iterations = 14.8

     negative rho (up, down):  6.320E-01 0.000E+00

     total cpu time spent up to now is     2474.4 secs

     total energy              =  -14921.75361224 Ry
     Harris-Foulkes estimate   =  -14921.75494752 Ry
     estimated scf accuracy    <       0.00918755 Ry

     iteration # 22     ecut=    60.00 Ry     beta= 0.50
     Davidson diagonalization with overlap
     ethr =  5.02E-07,  avg # of iterations =  6.0

     negative rho (up, down):  6.228E-01 0.000E+00

     total cpu time spent up to now is     2588.1 secs

     total energy              =  -14921.75338895 Ry
     Harris-Foulkes estimate   =  -14921.75390594 Ry
     estimated scf accuracy    <       0.00529316 Ry

     iteration # 23     ecut=    60.00 Ry     beta= 0.50
     Davidson diagonalization with overlap
     ethr =  2.89E-07,  avg # of iterations =  2.0

     negative rho (up, down):  6.321E-01 0.000E+00

     total cpu time spent up to now is     2684.8 secs

     total energy              =  -14921.75351557 Ry
     Harris-Foulkes estimate   =  -14921.75360622 Ry
     estimated scf accuracy    <       0.00627652 Ry

     iteration # 24     ecut=    60.00 Ry     beta= 0.50
     Davidson diagonalization with overlap
     ethr =  2.89E-07,  avg # of iterations = 13.5

     negative rho (up, down):  6.262E-01 0.000E+00

     total cpu time spent up to now is     2836.1 secs

     total energy              =  -14921.75359376 Ry
     Harris-Foulkes estimate   =  -14921.75369129 Ry
     estimated scf accuracy    <       0.00222563 Ry

     iteration # 25     ecut=    60.00 Ry     beta= 0.50
     Davidson diagonalization with overlap
     ethr =  1.22E-07,  avg # of iterations =  6.5

     negative rho (up, down):  6.264E-01 0.000E+00

     total cpu time spent up to now is     2953.2 secs

     total energy              =  -14921.75365541 Ry
     Harris-Foulkes estimate   =  -14921.75368500 Ry
     estimated scf accuracy    <       0.00075140 Ry

     iteration # 26     ecut=    60.00 Ry     beta= 0.50
     Davidson diagonalization with overlap
     ethr =  4.11E-08,  avg # of iterations =  1.2

     negative rho (up, down):  6.284E-01 0.000E+00

     total cpu time spent up to now is     3047.9 secs

     total energy              =  -14921.75364492 Ry
     Harris-Foulkes estimate   =  -14921.75369705 Ry
     estimated scf accuracy    <       0.00059757 Ry

     iteration # 27     ecut=    60.00 Ry     beta= 0.50
     Davidson diagonalization with overlap
     ethr =  3.27E-08,  avg # of iterations =  1.0

     negative rho (up, down):  6.293E-01 0.000E+00

     total cpu time spent up to now is     3142.4 secs

     total energy              =  -14921.75367188 Ry
     Harris-Foulkes estimate   =  -14921.75366362 Ry
     estimated scf accuracy    <       0.00045671 Ry

     iteration # 28     ecut=    60.00 Ry     beta= 0.50
     Davidson diagonalization with overlap
     ethr =  2.50E-08,  avg # of iterations =  1.0

     negative rho (up, down):  6.286E-01 0.000E+00

     total cpu time spent up to now is     3236.8 secs

     total energy              =  -14921.75367319 Ry
     Harris-Foulkes estimate   =  -14921.75367806 Ry
     estimated scf accuracy    <       0.00019182 Ry

     iteration # 29     ecut=    60.00 Ry     beta= 0.50
     Davidson diagonalization with overlap
     ethr =  1.05E-08,  avg # of iterations =  1.0

     negative rho (up, down):  6.292E-01 0.000E+00

     total cpu time spent up to now is     3332.0 secs

     total energy              =  -14921.75367510 Ry
     Harris-Foulkes estimate   =  -14921.75367929 Ry
     estimated scf accuracy    <       0.00010939 Ry

     iteration # 30     ecut=    60.00 Ry     beta= 0.50
     Davidson diagonalization with overlap
     ethr =  5.98E-09,  avg # of iterations =  1.2

     negative rho (up, down):  6.294E-01 0.000E+00

     total cpu time spent up to now is     3426.3 secs

     total energy              =  -14921.75367689 Ry
     Harris-Foulkes estimate   =  -14921.75367803 Ry
     estimated scf accuracy    <       0.00003951 Ry

     iteration # 31     ecut=    60.00 Ry     beta= 0.50
     Davidson diagonalization with overlap
     ethr =  2.16E-09,  avg # of iterations =  1.2

     negative rho (up, down):  6.292E-01 0.000E+00

     total cpu time spent up to now is     3519.5 secs

     total energy              =  -14921.75367735 Ry
     Harris-Foulkes estimate   =  -14921.75367751 Ry
     estimated scf accuracy    <       0.00003124 Ry

     iteration # 32     ecut=    60.00 Ry     beta= 0.50
     Davidson diagonalization with overlap
     ethr =  1.71E-09,  avg # of iterations =  1.0

     negative rho (up, down):  6.284E-01 0.000E+00

     total cpu time spent up to now is     3612.1 secs

     total energy              =  -14921.75367863 Ry
     Harris-Foulkes estimate   =  -14921.75367783 Ry
     estimated scf accuracy    <       0.00003113 Ry

     iteration # 33     ecut=    60.00 Ry     beta= 0.50
     Davidson diagonalization with overlap
     ethr =  1.70E-09,  avg # of iterations =  1.0

     negative rho (up, down):  6.285E-01 0.000E+00

     total cpu time spent up to now is     3704.6 secs

     total energy              =  -14921.75367861 Ry
     Harris-Foulkes estimate   =  -14921.75367917 Ry
     estimated scf accuracy    <       0.00000723 Ry

     iteration # 34     ecut=    60.00 Ry     beta= 0.50
     Davidson diagonalization with overlap
     ethr =  3.95E-10,  avg # of iterations =  1.0

     negative rho (up, down):  6.286E-01 0.000E+00

     total cpu time spent up to now is     3797.1 secs

     total energy              =  -14921.75367836 Ry
     Harris-Foulkes estimate   =  -14921.75367878 Ry
     estimated scf accuracy    <       0.00000281 Ry

     iteration # 35     ecut=    60.00 Ry     beta= 0.50
     Davidson diagonalization with overlap
     ethr =  1.54E-10,  avg # of iterations =  1.8

     negative rho (up, down):  6.290E-01 0.000E+00

     total cpu time spent up to now is     3893.5 secs

     total energy              =  -14921.75367750 Ry
     Harris-Foulkes estimate   =  -14921.75367850 Ry
     estimated scf accuracy    <       0.00000250 Ry

     iteration # 36     ecut=    60.00 Ry     beta= 0.50
     Davidson diagonalization with overlap
     ethr =  1.36E-10,  avg # of iterations =  2.0

     negative rho (up, down):  6.290E-01 0.000E+00

     total cpu time spent up to now is     3991.1 secs

     total energy              =  -14921.75367735 Ry
     Harris-Foulkes estimate   =  -14921.75367757 Ry
     estimated scf accuracy    <       0.00000080 Ry

     iteration # 37     ecut=    60.00 Ry     beta= 0.50
     Davidson diagonalization with overlap
     ethr =  4.39E-11,  avg # of iterations =  1.0

     negative rho (up, down):  6.292E-01 0.000E+00

     total cpu time spent up to now is     4085.3 secs

     total energy              =  -14921.75367701 Ry
     Harris-Foulkes estimate   =  -14921.75367739 Ry
     estimated scf accuracy    <       0.00000044 Ry

     iteration # 38     ecut=    60.00 Ry     beta= 0.50
     Davidson diagonalization with overlap
     ethr =  2.39E-11,  avg # of iterations =  2.0

     negative rho (up, down):  6.294E-01 0.000E+00

     total cpu time spent up to now is     4181.0 secs

     total energy              =  -14921.75367674 Ry
     Harris-Foulkes estimate   =  -14921.75367703 Ry
     estimated scf accuracy    <       0.00000021 Ry

     iteration # 39     ecut=    60.00 Ry     beta= 0.50
     Davidson diagonalization with overlap
     ethr =  1.13E-11,  avg # of iterations =  2.0

     negative rho (up, down):  6.294E-01 0.000E+00

     total cpu time spent up to now is     4277.9 secs

     total energy              =  -14921.75367663 Ry
     Harris-Foulkes estimate   =  -14921.75367675 Ry
     estimated scf accuracy    <       0.00000006 Ry

     iteration # 40     ecut=    60.00 Ry     beta= 0.50
     Davidson diagonalization with overlap
     ethr =  3.15E-12,  avg # of iterations =  2.8

     negative rho (up, down):  6.294E-01 0.000E+00

     total cpu time spent up to now is     4378.4 secs

     total energy              =  -14921.75367663 Ry
     Harris-Foulkes estimate   =  -14921.75367663 Ry
     estimated scf accuracy    <       0.00000003 Ry

     iteration # 41     ecut=    60.00 Ry     beta= 0.50
     Davidson diagonalization with overlap
     ethr =  1.79E-12,  avg # of iterations =  1.0

     negative rho (up, down):  6.295E-01 0.000E+00

     total cpu time spent up to now is     4467.4 secs

     End of self-consistent calculation

          k = 0.0000 0.0000 0.0000 (286677 PWs)   bands (ev):

   -41.1685 -41.1658 -41.1619 -41.1593 -41.1547 -41.1381 -41.1359 -38.7884
   -38.0970 -38.0697 -38.0668 -38.0618 -38.0609 -38.0489 -38.0437 -35.6343
   -23.0482 -22.9535 -22.9387 -22.9095 -22.8828 -22.7746 -22.7537 -22.7456
   -22.6491 -22.6349 -22.6200 -22.6160 -22.6005 -22.5994 -22.5824 -22.5765
   -22.4965 -22.4911 -22.4746 -22.4613 -22.4300 -22.4028 -22.3108 -22.2948
   -22.2849 -22.2759 -22.2705 -22.2576 -22.2544 -22.2375 -22.2045 -22.1502
   -21.3390 -21.3055 -21.3026 -21.2836 -21.2834 -21.2617 -21.2270 -21.2248
   -21.2221 -21.2029 -21.1840 -21.1732 -21.1473 -21.1321 -21.1263 -21.1211
   -21.1143 -21.0830 -21.0822 -21.0335 -21.0284 -19.8416 -19.8381 -19.8246
   -18.6794 -18.6411 -18.5960 -18.5928 -18.5633 -18.4090 -18.3962 -18.3948
   -18.3884 -18.3813 -18.3796 -18.3774 -18.3689 -18.3680 -18.3594 -18.3504
   -18.1955 -18.1912 -18.1699 -18.0719 -18.0639 -16.8935 -16.8648 -16.8570
   -16.2043 -15.9054 -15.8726 -15.8613 -15.7976 -15.7234 -15.6576 -15.5967
   -15.4921 -15.4873 -15.4534 -15.4262 -15.4130 -15.3497 -15.2967 -15.2841
   -15.1427 -14.8727 -14.7914 -14.7857 -14.7514 -14.7410 -14.7330 -14.7273
   -14.6550 -14.6507 -14.6073 -14.5901 -14.5704 -14.5377 -14.5371 -14.5299
   -14.5032 -14.5024 -14.4978 -14.4944 -14.4868 -14.4619 -14.4607 -14.4499
   -14.4295 -14.4267 -14.4017 -14.3973 -14.3961 -14.3938 -14.3883 -14.3548
   -14.3536 -14.3377 -14.3353 -14.2742 -14.2520 -14.2460 -14.2260 -14.2202
   -14.2019 -14.1996 -14.1980 -14.1912 -14.1892 -14.1599 -14.0939 -14.0928
   -14.0820 -14.0786 -14.0528 -14.0505 -14.0412 -13.9940 -13.9836 -13.9787
   -13.9517 -13.9464 -13.9462 -13.9370 -13.9267 -13.9204 -13.9158 -13.9016
   -13.8512 -13.8397 -13.8387 -13.8368 -13.8203 -13.8171 -13.7748 -13.7666
   -13.7335 -13.7325 -13.7311 -13.7299 -13.7099 -13.6785 -13.6739 -13.6659
   -13.6635 -13.6621 -13.6610 -13.6593 -13.6581 -13.6555 -13.6529 -13.6452
   -13.6199 -13.6184 -13.6126 -13.5997 -13.5858 -13.5790 -13.5640 -13.5528
   -13.4567 -13.4330 -13.4170 -13.3194 -13.2918 -13.2831 -13.2824 -13.0998
    -8.9021  -8.7045  -8.6387  -8.4779  -8.4550  -8.4270  -8.4195  -8.4173
    -8.4023  -8.3984  -8.3861  -8.3854  -8.3379  -8.3181  -8.3058  -8.2169
    -8.1971  -8.1945  -8.1907  -8.1786  -8.1670  -8.1134  -8.1104  -8.0733
    -8.0663  -7.9857  -7.9605  -7.9582  -7.9572  -7.9510  -7.9472  -7.9413
    -7.9343  -7.9239  -7.9225  -7.9169  -7.9125  -7.9089  -7.8982  -7.8763
    -7.8729  -7.8729  -7.8635  -7.8617  -7.8602  -7.8579  -7.8520  -7.8477
    -7.8219  -7.8202  -7.7744  -7.7662  -7.7617  -7.7436  -7.7323  -7.7028
    -7.6967  -7.6644  -7.6419  -7.6369  -7.5898  -7.5889  -7.5751  -7.5676
    -7.5638  -7.5619  -7.5535  -7.5488  -7.5330  -7.5129  -7.5118  -7.5100
    -7.5093  -7.4907  -7.4814  -7.4809  -7.4636  -7.4537  -7.4347  -7.4320
    -7.4190  -7.4147  -7.3842  -7.3714  -7.3524  -7.3101  -7.2965  -7.2745
    -7.2724  -7.2537  -7.2490  -7.2487  -7.2202  -7.1611  -7.1259  -7.1138
    -4.7886  -4.1748  -3.7618  -3.7597  -3.7525  -3.6946  -3.6838  -3.6268
    -3.5300  -3.2016  -3.1524  -3.1279  -3.0387  -3.0339  -3.0308  -3.0306
    -3.0268  -2.9652  -2.9624  -2.9485  -2.9282  -2.9040  -2.8410  -2.8364
    -2.8064  -2.8038  -2.7783  -2.7686  -2.7666  -2.7503  -2.7186  -2.7058
    -2.6659  -2.6545  -2.6487  -2.6455  -2.5467  -2.5068  -2.4802  -2.4168
    -2.3753  -2.3585  -2.3259  -2.3162  -2.2884  -2.2866  -2.2706  -2.2697
    -2.2682  -2.2500  -2.2488  -2.1875  -2.1773  -2.1686  -2.1654  -2.1608
    -2.1605  -2.1547  -2.1546  -2.1374  -2.1282  -2.1268  -2.1010  -2.0664
    -2.0656  -2.0625  -2.0615  -2.0515  -2.0315  -2.0148  -2.0091  -2.0019
    -1.9974  -1.9924  -1.9900  -1.9868  -1.9825  -1.9771  -1.9744  -1.9677
    -1.9620  -1.9608  -1.9585  -1.9490  -1.9471  -1.9251  -1.9200  -1.9131
    -1.8934  -1.8883  -1.8766  -1.8618  -1.8500  -1.8273  -1.8249  -1.8155
    -1.8131  -1.8107  -1.8084  -1.7876  -1.7827  -1.7785  -1.7778  -1.7734
    -1.7717  -1.7592  -1.7441  -1.7184  -1.7061  -1.6979  -1.6969  -1.6959
    -1.6722  -1.6301  -1.6259  -1.6221  -1.5746  -1.5732  -1.5490  -1.5465
    -1.5374  -1.5367  -1.5307  -1.4977  -1.4864  -1.4815  -1.4771  -1.4662
    -1.4333  -1.4169  -1.4119  -1.4114  -1.3989  -1.3779  -1.3761  -1.3663
    -1.3618  -1.3563  -1.3526  -1.3469  -1.3287  -1.3197  -1.3024  -1.2759
    -1.2627  -1.2047  -1.1886  -1.1701  -1.1635  -1.1567  -1.1565  -1.1211
    -1.1209  -1.0872  -1.0765  -1.0657  -1.0518  -1.0234  -1.0216  -0.9965
    -0.9942  -0.9629  -0.9379  -0.8914  -0.8846  -0.8782  -0.8772  -0.8763
    -0.8600  -0.8562  -0.8495  -0.8476  -0.8424  -0.8396  -0.8319  -0.8271
    -0.8076  -0.7983  -0.7953  -0.7918  -0.7764  -0.7749  -0.7663  -0.7588
    -0.7509  -0.7385  -0.7358  -0.7294  -0.7128  -0.7087  -0.6945  -0.6928
    -0.6864  -0.6749  -0.6529  -0.6501  -0.6312  -0.6243  -0.6225  -0.6208
    -0.6207  -0.6181  -0.6070  -0.5891  -0.5849  -0.5777  -0.5729  -0.5505
    -0.5467  -0.5448  -0.5427  -0.5248  -0.5106  -0.5068  -0.4963  -0.4944
    -0.4859  -0.4844  -0.4753  -0.4671  -0.4622  -0.4536  -0.4411  -0.4388
    -0.4296  -0.4202  -0.4127  -0.3959  -0.3839  -0.3655  -0.3645  -0.3578
    -0.3519  -0.3400  -0.3366  -0.3354  -0.3233  -0.3127  -0.2933  -0.2889
    -0.2880  -0.2860  -0.2845  -0.2785  -0.2752  -0.2661  -0.2279  -0.1906
    -0.1902  -0.1863  -0.1837  -0.1732  -0.1587  -0.1575  -0.1511  -0.1508
    -0.1447  -0.1224  -0.1082  -0.1051  -0.1043  -0.1021  -0.0881  -0.0877
    -0.0845  -0.0688  -0.0557  -0.0455  -0.0448  -0.0388  -0.0325  -0.0241
    -0.0205  -0.0181  -0.0180  -0.0150   0.0116   0.0175   0.0269   0.0350
     0.0460   0.0697   0.1057   0.1236   0.1304   0.1446   0.1524   0.1564
     0.1629   0.1698   0.1726   0.1767   0.1808   0.1846   0.2042   0.2250
     0.2351   0.2357   0.2363   0.2471   0.2625   0.2795   0.3281   0.3617
     0.3628   0.3633   0.3923   0.4045   0.4046   0.4048   0.4085   0.4130
     0.4199   0.4212   0.4408   0.4539   0.4551   0.4740   0.4815   0.5009
     0.5046   0.5167   0.5207   0.5230   0.5266   0.5360   0.5383   0.5416
     0.5462   0.5568   0.5641   0.5642   0.5691   0.5806   0.5857   0.5864
     0.6007   0.6158   0.6306   0.6337   0.6387   0.6479   0.6522   0.6537
     0.6551   0.6570   0.6618   0.6621   0.6662   0.6690   0.6821   0.6860
     0.6883   0.6989   0.7003   0.7007   0.7195   0.7253   0.7276   0.7509
     0.7521   0.7526   0.7661   0.7777   0.7881   0.7897   0.7902   0.8046
     0.8120   0.8137   0.8248   0.8367   0.8425   0.8466   0.8469   0.8626
     0.8671   0.8741   0.8749   0.8786   0.8889   0.8896   0.8911   0.9239
     0.9385   0.9570   0.9627   0.9737   0.9847   1.0290   1.0458   1.0693
     1.0717   1.0724   1.0854   1.1096   1.1247   1.1328   1.1413   1.1499
     1.1614   1.2088   1.2124   1.2135   1.2252   1.2279   1.2313   1.2505
     1.2529   1.2623   1.2757   1.2762   1.2880   1.2955   1.2984   1.3121
     1.3163   1.3211   1.3221   1.3267   1.3279   1.3425   1.3532   1.3538
     1.3557   1.3579   1.3596   1.3601   1.3619   1.3634   1.3686   1.3696
     1.3850   1.3876   1.3926   1.4028   1.4305   1.4364   1.4505   1.4539
     1.4585   1.4611   1.4623   1.4647   1.4679   1.4684   1.4735   1.4807
     1.4840   1.4915   1.4923   1.4923   1.4970   1.5041   1.5180   1.5206
     1.5259   1.5262   1.5284   1.5451   1.5452   1.5646   1.5664   1.5684
     1.5777   1.5782   1.5965   1.6037   1.6090   1.6095   1.6179   1.6262
     1.6360   1.6463   1.6469   1.6492   1.6677   1.6841   1.6885   1.7225
     1.7256   1.7457   1.7471   1.7547   1.7602   1.7736   1.7804   1.7828
     1.7929   1.8007   1.8038   1.8272   1.8301   1.8379   1.8384   1.8463
     1.8476   1.8499   1.8528   1.8667   1.8686   1.8765   1.8796   1.8898
     1.8900   1.8967   1.9137   1.9144   1.9170   1.9278   1.9437   1.9444
     1.9477   1.9556   1.9591   1.9666   1.9677   1.9688   1.9742   1.9871
     1.9920   2.0077   2.0140   2.0285   2.0285   2.0378   2.0460   2.0484
     2.0524   2.0551   2.0630   2.0667   2.0753   2.0839   2.0913   2.1135
     2.1170   2.1277   2.1294   2.1338   2.1372   2.1399   2.1420   2.1430
     2.1441   2.1485   2.1502   2.1687   2.1787   2.1829   2.1948   2.1990
     2.2369   2.2550   2.2554   2.2687   2.2711   2.2823   2.2851   2.2868
     2.2879   2.3088   2.3342   2.3408   2.3577   2.3600   2.3619   2.3776
     2.4079   2.4105   2.4159   2.4311   2.4483   2.4690   2.4730   2.4944
     2.5072   2.5118   2.5155   2.5192   2.5215   2.5297   2.5309   2.5385
     2.5561   2.5763   2.5820   2.5954   2.6200   2.6307   2.6592   2.6635
     2.6641   2.7029   2.7161   2.7162   2.7388   2.8018   2.8291   2.8848
     2.9680   2.9703   2.9847   2.9865   2.9930   2.9994   3.0857   3.1007
     3.1091   3.1348   3.1699   3.1766   3.2369   3.2407   3.2478   3.2538
     3.2549   3.2684   3.3549   3.3593   3.3832   3.3846   3.3868   3.3895
     3.3915   3.3976   3.4044   3.4657   3.4744   3.5496   3.5653   3.5814
     3.5856   3.5948   3.6201   3.7058   3.8304   3.8335   3.8384   3.8901
     3.8904   3.8953   4.3091   4.3683   4.3998   4.4027   4.4392   4.4468
     4.4958   4.6895   4.8049   4.8294   4.8600   4.8801   4.9195   4.9203
     4.9704   4.9829   4.9853   4.9959   5.0076   5.0101   5.0689   5.1179
     5.1544   5.1901   5.2054   5.2321   5.2931   5.4385   5.4576   5.4802
     5.5176   5.7231   5.8524   6.0272   6.0561   6.1546   6.2908   6.3270
     6.5212   6.5665   6.5677   6.5932   6.6225   6.6542   6.6697   6.6984
     6.7068   6.7087   6.7103   6.7108   6.7173   6.7361   6.7412   6.7571
     6.7671   6.7974   6.8262   6.8324   6.8336   6.8352   6.8362   6.8487
     6.9528   7.0219   7.1187   7.1294   7.1446   7.1555   7.1579   7.2210
     7.2548   7.2552   7.3360   7.3602   7.4365   7.5033   7.5097   7.5243
     7.5379   7.5781   7.6498   7.6510   7.6676   7.7522   7.7825   7.7846
     7.8845   7.9422   7.9528   7.9925   8.0382   8.0999   8.1405   8.1686
     8.2372   8.2441   8.3161   8.3525   8.3552   8.3584   8.3817   8.3905
     8.4156   8.4910   8.5045   8.5284   8.5388   8.5412   8.5425   8.5468
     8.5566   8.6298   8.6415   8.6671   8.6813   8.6849   8.6862   8.6970
     8.7459   8.7840   8.8019   8.8237   8.8244   8.8275   8.8378   8.8626
     8.8725   8.8831   8.9141   8.9212   8.9374   8.9507   8.9677   9.0128
     9.0212   9.0365   9.0421   9.0765   9.0922   9.0980   9.1143   9.1256
     9.1270   9.1510

          k = 0.2326 0.2390 0.0000 (286675 PWs)   bands (ev):

   -41.1680 -41.1663 -41.1619 -41.1596 -41.1545 -41.1376 -41.1364 -38.7884
   -38.0970 -38.0691 -38.0676 -38.0618 -38.0612 -38.0473 -38.0448 -35.6343
   -23.0408 -22.9695 -22.9392 -22.8989 -22.8866 -22.7715 -22.7530 -22.7274
   -22.6792 -22.6504 -22.6244 -22.6205 -22.5954 -22.5867 -22.5649 -22.5511
   -22.5176 -22.5108 -22.4704 -22.4494 -22.4336 -22.3841 -22.3344 -22.3108
   -22.2903 -22.2786 -22.2735 -22.2511 -22.2420 -22.2066 -22.2055 -22.1646
   -21.3243 -21.3025 -21.2963 -21.2878 -21.2820 -21.2759 -21.2499 -21.2335
   -21.2185 -21.2021 -21.1863 -21.1776 -21.1495 -21.1351 -21.1231 -21.0953
   -21.0837 -21.0818 -21.0795 -21.0483 -21.0452 -19.8417 -19.8381 -19.8246
   -18.6448 -18.6096 -18.5935 -18.5686 -18.5616 -18.5414 -18.5085 -18.4773
   -18.3969 -18.3893 -18.3725 -18.3703 -18.3566 -18.2793 -18.2454 -18.2280
   -18.1938 -18.1904 -18.1822 -18.1177 -18.1113 -16.8937 -16.8666 -16.8584
   -16.1631 -16.0355 -15.8470 -15.8353 -15.7663 -15.7338 -15.6605 -15.5314
   -15.5197 -15.4637 -15.4363 -15.4258 -15.3755 -15.3257 -15.3225 -15.2736
   -15.1495 -15.0569 -14.8229 -14.7563 -14.7521 -14.7417 -14.7275 -14.6709
   -14.6474 -14.6234 -14.6013 -14.5934 -14.5790 -14.5672 -14.5548 -14.5364
   -14.5261 -14.5201 -14.4895 -14.4878 -14.4802 -14.4659 -14.4516 -14.4295
   -14.4253 -14.3993 -14.3810 -14.3764 -14.3695 -14.3607 -14.3519 -14.3368
   -14.3327 -14.3264 -14.3129 -14.2940 -14.2929 -14.2554 -14.2551 -14.2227
   -14.2005 -14.1905 -14.1886 -14.1794 -14.1734 -14.1302 -14.1194 -14.1189
   -14.0996 -14.0884 -14.0666 -14.0650 -14.0498 -14.0275 -14.0242 -14.0090
   -13.9810 -13.9583 -13.9474 -13.9363 -13.9235 -13.8998 -13.8852 -13.8759
   -13.8667 -13.8464 -13.8268 -13.8059 -13.7799 -13.7721 -13.7659 -13.7620
   -13.7565 -13.7400 -13.7368 -13.7233 -13.7146 -13.7122 -13.7015 -13.6933
   -13.6850 -13.6785 -13.6776 -13.6666 -13.6659 -13.6648 -13.6606 -13.6474
   -13.6286 -13.6165 -13.6151 -13.5988 -13.5812 -13.5564 -13.5424 -13.4733
   -13.4572 -13.4197 -13.4084 -13.3754 -13.3363 -13.3199 -13.1993 -13.1260
    -8.7986  -8.6056  -8.5972  -8.5202  -8.4759  -8.4229  -8.4096  -8.4010
    -8.3502  -8.3403  -8.3253  -8.2978  -8.2975  -8.2791  -8.2455  -8.2040
    -8.1956  -8.1747  -8.1549  -8.1330  -8.0939  -8.0894  -8.0846  -8.0604
    -8.0334  -8.0167  -7.9939  -7.9902  -7.9862  -7.9831  -7.9600  -7.9373
    -7.9339  -7.9320  -7.9177  -7.9165  -7.9034  -7.9007  -7.8910  -7.8862
    -7.8845  -7.8657  -7.8635  -7.8583  -7.8491  -7.8374  -7.8173  -7.8166
    -7.7848  -7.7831  -7.7742  -7.7493  -7.7413  -7.7169  -7.7081  -7.6994
    -7.6976  -7.6887  -7.6802  -7.6716  -7.6491  -7.6315  -7.6256  -7.6228
    -7.5916  -7.5830  -7.5768  -7.5651  -7.5525  -7.5457  -7.5372  -7.5360
    -7.5215  -7.5170  -7.5105  -7.5038  -7.4942  -7.4927  -7.4846  -7.4622
    -7.4583  -7.4504  -7.4273  -7.4022  -7.3655  -7.3570  -7.3315  -7.3151
    -7.2817  -7.2664  -7.2587  -7.2310  -7.2018  -7.2007  -7.1855  -7.1767
    -4.6357  -4.2283  -4.0141  -3.7434  -3.7200  -3.6449  -3.5800  -3.5574
    -3.4815  -3.3322  -3.1523  -3.1026  -3.0896  -3.0712  -3.0634  -3.0461
    -2.9626  -2.9404  -2.9339  -2.9185  -2.8907  -2.8627  -2.8233  -2.8134
    -2.7980  -2.7907  -2.7685  -2.7417  -2.7305  -2.7246  -2.7193  -2.7006
    -2.6732  -2.6665  -2.6638  -2.6617  -2.5989  -2.5450  -2.5387  -2.4832
    -2.4724  -2.4593  -2.4276  -2.4091  -2.4039  -2.3861  -2.3720  -2.3643
    -2.3224  -2.3064  -2.2881  -2.2863  -2.2628  -2.2423  -2.2411  -2.2258
    -2.2198  -2.1728  -2.1434  -2.1318  -2.1250  -2.0962  -2.0830  -2.0816
    -2.0701  -2.0621  -2.0393  -2.0352  -2.0205  -2.0170  -2.0113  -2.0065
    -1.9972  -1.9940  -1.9834  -1.9823  -1.9754  -1.9732  -1.9675  -1.9578
    -1.9554  -1.9527  -1.9394  -1.9323  -1.9251  -1.8852  -1.8813  -1.8774
    -1.8763  -1.8737  -1.8671  -1.8653  -1.8647  -1.8614  -1.8529  -1.8391
    -1.8322  -1.8290  -1.7891  -1.7830  -1.7827  -1.7797  -1.7664  -1.7436
    -1.7337  -1.7064  -1.7036  -1.6891  -1.6701  -1.6581  -1.6530  -1.6234
    -1.6098  -1.5894  -1.5798  -1.5672  -1.5529  -1.5435  -1.5332  -1.5077
    -1.4960  -1.4878  -1.4445  -1.4361  -1.4154  -1.4124  -1.4039  -1.3741
    -1.3492  -1.3423  -1.3358  -1.3282  -1.3072  -1.2961  -1.2924  -1.2860
    -1.2808  -1.2558  -1.2521  -1.2452  -1.2426  -1.2362  -1.2335  -1.2277
    -1.2257  -1.2093  -1.1759  -1.1573  -1.1532  -1.1398  -1.1180  -1.0951
    -1.0818  -1.0711  -1.0644  -1.0527  -1.0460  -1.0287  -1.0137  -0.9987
    -0.9686  -0.9323  -0.9301  -0.9210  -0.9132  -0.9095  -0.8803  -0.8732
    -0.8711  -0.8581  -0.8403  -0.8197  -0.8062  -0.7995  -0.7987  -0.7906
    -0.7815  -0.7784  -0.7740  -0.7691  -0.7651  -0.7624  -0.7564  -0.7516
    -0.7484  -0.7379  -0.7331  -0.7309  -0.7247  -0.7177  -0.7150  -0.7114
    -0.7086  -0.7022  -0.6947  -0.6835  -0.6789  -0.6766  -0.6673  -0.6648
    -0.6473  -0.6328  -0.6299  -0.6105  -0.6054  -0.5993  -0.5968  -0.5822
    -0.5792  -0.5733  -0.5641  -0.5519  -0.5425  -0.5266  -0.5186  -0.5120
    -0.5089  -0.5063  -0.5028  -0.4931  -0.4883  -0.4882  -0.4710  -0.4682
    -0.4606  -0.4554  -0.4341  -0.4250  -0.4224  -0.4124  -0.4030  -0.3939
    -0.3867  -0.3797  -0.3789  -0.3776  -0.3460  -0.3380  -0.3352  -0.3284
    -0.3264  -0.3229  -0.3159  -0.3075  -0.2992  -0.2987  -0.2815  -0.2574
    -0.2571  -0.2388  -0.2381  -0.2079  -0.2059  -0.1907  -0.1746  -0.1727
    -0.1291  -0.1150  -0.0999  -0.0889  -0.0829  -0.0720  -0.0465  -0.0387
    -0.0340  -0.0175  -0.0069   0.0063   0.0237   0.0321   0.0333   0.0452
     0.0459   0.0626   0.0640   0.0724   0.0791   0.0813   0.0976   0.1012
     0.1082   0.1164   0.1249   0.1269   0.1366   0.1461   0.1597   0.1676
     0.1833   0.1940   0.2067   0.2262   0.2344   0.2376   0.2621   0.2659
     0.2771   0.2920   0.2989   0.3039   0.3058   0.3168   0.3203   0.3401
     0.3689   0.3713   0.3896   0.3925   0.3960   0.3983   0.4010   0.4059
     0.4072   0.4099   0.4167   0.4369   0.4417   0.4510   0.4589   0.4654
     0.4752   0.4795   0.4872   0.4903   0.4958   0.5024   0.5084   0.5280
     0.5323   0.5343   0.5451   0.5451   0.5487   0.5508   0.5552   0.5599
     0.5729   0.5741   0.5797   0.5845   0.5951   0.6035   0.6084   0.6104
     0.6210   0.6290   0.6321   0.6338   0.6422   0.6471   0.6554   0.6676
     0.6742   0.6843   0.6922   0.6979   0.7085   0.7131   0.7213   0.7313
     0.7463   0.7573   0.7616   0.7676   0.7773   0.7822   0.7936   0.7941
     0.8243   0.8264   0.8333   0.8378   0.8659   0.8682   0.8758   0.9039
     0.9172   0.9295   0.9309   0.9442   0.9653   0.9744   0.9831   0.9844
     0.9961   1.0141   1.0242   1.0287   1.0354   1.0495   1.0541   1.0590
     1.0682   1.0702   1.0757   1.0842   1.0856   1.1041   1.1139   1.1190
     1.1217   1.1274   1.1362   1.1415   1.1556   1.1721   1.1750   1.1822
     1.2084   1.2170   1.2194   1.2276   1.2301   1.2442   1.2472   1.2656
     1.2702   1.2823   1.3014   1.3049   1.3108   1.3229   1.3255   1.3307
     1.3341   1.3383   1.3468   1.3549   1.3569   1.3657   1.3667   1.3749
     1.3755   1.3934   1.4006   1.4048   1.4117   1.4181   1.4284   1.4366
     1.4373   1.4453   1.4519   1.4567   1.4616   1.4629   1.4736   1.4777
     1.4891   1.4917   1.4999   1.5078   1.5154   1.5214   1.5237   1.5281
     1.5308   1.5428   1.5511   1.5703   1.5829   1.5847   1.6136   1.6223
     1.6305   1.6326   1.6392   1.6559   1.6569   1.6637   1.6707   1.6736
     1.6742   1.6817   1.6844   1.6889   1.6954   1.7010   1.7039   1.7154
     1.7310   1.7370   1.7406   1.7416   1.7463   1.7515   1.7546   1.7759
     1.7777   1.7815   1.7824   1.7872   1.7983   1.8048   1.8086   1.8100
     1.8208   1.8281   1.8354   1.8429   1.8452   1.8585   1.8690   1.8714
     1.8746   1.8792   1.8867   1.8942   1.9054   1.9061   1.9107   1.9115
     1.9153   1.9206   1.9273   1.9389   1.9440   1.9504   1.9648   1.9695
     1.9732   1.9922   1.9933   1.9959   1.9975   2.0015   2.0077   2.0132
     2.0200   2.0424   2.0483   2.0537   2.0699   2.0711   2.0767   2.0879
     2.0891   2.1156   2.1163   2.1344   2.1389   2.1547   2.1612   2.1678
     2.1740   2.1953   2.2002   2.2138   2.2200   2.2233   2.2290   2.2315
     2.2346   2.2418   2.2719   2.2753   2.2804   2.2872   2.3062   2.3235
     2.3410   2.3452   2.3475   2.3533   2.3674   2.3698   2.3800   2.3832
     2.3903   2.4149   2.4312   2.4412   2.4513   2.4620   2.4687   2.4952
     2.4973   2.5012   2.5255   2.5342   2.5564   2.5777   2.5838   2.5858
     2.6007   2.6352   2.6394   2.6496   2.6683   2.6873   2.7345   2.7435
     2.7551   2.7929   2.7975   2.8047   2.8284   2.8328   2.8588   2.8813
     2.8861   2.9010   2.9087   2.9236   2.9658   2.9871   3.0282   3.0895
     3.0973   3.1043   3.1183   3.1782   3.1823   3.1932   3.2005   3.2036
     3.2133   3.2180   3.2295   3.2366   3.2479   3.2763   3.3026   3.3144
     3.3262   3.3422   3.3489   3.3601   3.3734   3.4133   3.4349   3.4588
     3.4611   3.5476   3.6109   3.6565   3.6999   4.0277   4.0496   4.0867
     4.1104   4.1766   4.2638   4.3463   4.4527   4.4605   4.4775   4.5189
     4.5877   4.6200   4.6718   4.6735   4.6837   4.6989   4.7702   4.8606
     4.8776   4.9692   4.9918   5.0018   5.0360   5.0672   5.0967   5.1397
     5.1861   5.2182   5.2630   5.2874   5.4623   5.4859   5.5428   5.6109
     5.6772   5.8614   6.0448   6.0869   6.1377   6.1747   6.1924   6.2321
     6.2435   6.2667   6.3014   6.4869   6.5381   6.5691   6.5913   6.6154
     6.6245   6.6488   6.7080   6.7194   6.7357   6.7386   6.7583   6.7607
     6.7768   6.8421   6.8594   6.8629   6.8854   6.9443   6.9574   6.9916
     7.0070   7.0226   7.0928   7.1008   7.1599   7.1767   7.2384   7.2427
     7.2581   7.2799   7.2816   7.3344   7.4045   7.4326   7.5142   7.5702
     7.6252   7.6469   7.7081   7.7436   7.7803   7.7865   7.7929   7.8046
     7.8263   7.8582   7.9093   7.9103   7.9816   7.9845   7.9955   8.0400
     8.0814   8.0830   8.0933   8.1655   8.2364   8.2656   8.3120   8.3201
     8.3898   8.4133   8.4719   8.4765   8.5009   8.5195   8.5335   8.5719
     8.6109   8.6841   8.6938   8.7083   8.7196   8.7293   8.7486   8.7741
     8.8025   8.8122   8.8321   8.8404   8.8456   8.8568   8.8661   8.8976
     8.9130   8.9182   8.9265   8.9395   8.9413   8.9629   8.9803   8.9906
     9.0151   9.0216   9.0340   9.0737   9.0854   9.0902   9.0986   9.1085
     9.1362   9.1592

          k = 0.0000 0.4779 0.0000 (286577 PWs)   bands (ev):

   -41.1674 -41.1668 -41.1620 -41.1599 -41.1542 -41.1372 -41.1368 -38.7884
   -38.0970 -38.0693 -38.0674 -38.0629 -38.0602 -38.0464 -38.0456 -35.6343
   -23.0350 -22.9769 -22.9299 -22.9209 -22.8735 -22.7703 -22.7526 -22.7081
   -22.6783 -22.6678 -22.6509 -22.6315 -22.5818 -22.5552 -22.5543 -22.5479
   -22.5258 -22.5238 -22.4800 -22.4544 -22.4240 -22.3644 -22.3309 -22.3257
   -22.3083 -22.2905 -22.2861 -22.2363 -22.2073 -22.2066 -22.2042 -22.1797
   -21.3222 -21.3062 -21.3018 -21.2864 -21.2850 -21.2750 -21.2415 -21.2371
   -21.2077 -21.1989 -21.1845 -21.1801 -21.1492 -21.1319 -21.1211 -21.1177
   -21.0913 -21.0817 -21.0784 -21.0464 -21.0339 -19.8417 -19.8381 -19.8246
   -18.6401 -18.6350 -18.5996 -18.5690 -18.5428 -18.5402 -18.4889 -18.4520
   -18.3954 -18.3887 -18.3795 -18.3732 -18.3546 -18.3028 -18.2580 -18.2404
   -18.2164 -18.1949 -18.1824 -18.1129 -18.0724 -16.8937 -16.8668 -16.8573
   -16.1230 -16.0259 -15.9856 -15.8655 -15.6955 -15.6641 -15.6256 -15.5464
   -15.5127 -15.4817 -15.4605 -15.4177 -15.3795 -15.3081 -15.2910 -15.2474
   -15.1580 -15.0365 -14.9817 -14.8655 -14.7833 -14.6880 -14.6694 -14.6562
   -14.6360 -14.6328 -14.6094 -14.6076 -14.5919 -14.5735 -14.5553 -14.5135
   -14.5054 -14.4874 -14.4537 -14.4488 -14.4265 -14.4251 -14.4248 -14.4170
   -14.4066 -14.3941 -14.3844 -14.3745 -14.3649 -14.3628 -14.3503 -14.3465
   -14.3348 -14.3238 -14.3237 -14.3117 -14.3038 -14.2871 -14.2600 -14.2367
   -14.1969 -14.1926 -14.1744 -14.1666 -14.1626 -14.1418 -14.1208 -14.1120
   -14.1057 -14.1020 -14.0750 -14.0699 -14.0443 -14.0374 -14.0355 -14.0279
   -14.0092 -13.9986 -13.9766 -13.9437 -13.9412 -13.9364 -13.9277 -13.8990
   -13.8120 -13.7951 -13.7874 -13.7851 -13.7834 -13.7740 -13.7679 -13.7521
   -13.7408 -13.7357 -13.7283 -13.7254 -13.7155 -13.7154 -13.7030 -13.7008
   -13.6866 -13.6838 -13.6832 -13.6777 -13.6719 -13.6563 -13.6471 -13.6450
   -13.6386 -13.6180 -13.6143 -13.6099 -13.5699 -13.5395 -13.5249 -13.5224
   -13.4657 -13.4266 -13.4251 -13.4229 -13.3250 -13.2424 -13.2154 -13.1535
    -8.6530  -8.5118  -8.4977  -8.4777  -8.4390  -8.4240  -8.4224  -8.3950
    -8.3638  -8.3140  -8.2972  -8.2872  -8.2156  -8.2140  -8.2091  -8.1983
    -8.1708  -8.1233  -8.1186  -8.0956  -8.0587  -8.0534  -8.0343  -8.0325
    -8.0302  -7.9932  -7.9830  -7.9820  -7.9783  -7.9741  -7.9717  -7.9645
    -7.9535  -7.9315  -7.9262  -7.9208  -7.9090  -7.9015  -7.8990  -7.8948
    -7.8939  -7.8874  -7.8766  -7.8704  -7.8653  -7.8578  -7.8462  -7.8148
    -7.8118  -7.7949  -7.7891  -7.7833  -7.7817  -7.7546  -7.7374  -7.7130
    -7.7006  -7.6952  -7.6712  -7.6664  -7.6416  -7.6276  -7.6208  -7.5923
    -7.5835  -7.5802  -7.5769  -7.5681  -7.5674  -7.5636  -7.5625  -7.5222
    -7.5175  -7.5147  -7.4972  -7.4955  -7.4919  -7.4900  -7.4850  -7.4807
    -7.4695  -7.4675  -7.4572  -7.4528  -7.4492  -7.4444  -7.4403  -7.4389
    -7.4204  -7.3574  -7.2901  -7.2533  -7.2112  -7.1990  -7.1793  -7.1734
    -4.4799  -4.1895  -4.1258  -3.8478  -3.8138  -3.5643  -3.5253  -3.5064
    -3.3359  -3.3347  -3.2954  -3.1891  -3.1471  -3.1381  -3.1220  -2.9931
    -2.9785  -2.9710  -2.9132  -2.8934  -2.8889  -2.8166  -2.8102  -2.7943
    -2.7794  -2.7472  -2.7376  -2.7198  -2.7125  -2.7008  -2.6984  -2.6979
    -2.6739  -2.6552  -2.6531  -2.6405  -2.6339  -2.5524  -2.5445  -2.5417
    -2.5282  -2.5135  -2.4689  -2.4305  -2.4272  -2.4114  -2.4049  -2.3860
    -2.3579  -2.3572  -2.3509  -2.3233  -2.2912  -2.2625  -2.2553  -2.2405
    -2.2362  -2.2228  -2.1995  -2.1865  -2.1729  -2.1167  -2.0805  -2.0589
    -2.0532  -2.0055  -2.0024  -1.9853  -1.9841  -1.9786  -1.9777  -1.9723
    -1.9685  -1.9684  -1.9667  -1.9570  -1.9568  -1.9501  -1.9365  -1.9297
    -1.9200  -1.9100  -1.9059  -1.8916  -1.8858  -1.8854  -1.8845  -1.8815
    -1.8799  -1.8770  -1.8761  -1.8635  -1.8589  -1.8477  -1.8339  -1.8295
    -1.8251  -1.8119  -1.7982  -1.7717  -1.7711  -1.7284  -1.7268  -1.7074
    -1.6894  -1.6844  -1.6741  -1.6622  -1.6605  -1.6316  -1.6100  -1.6015
    -1.5980  -1.5948  -1.5810  -1.5755  -1.5755  -1.5672  -1.5585  -1.5353
    -1.5316  -1.5126  -1.5119  -1.4980  -1.4928  -1.4752  -1.4747  -1.4395
    -1.4217  -1.3805  -1.3770  -1.3657  -1.3493  -1.3447  -1.3012  -1.2987
    -1.2918  -1.2874  -1.2849  -1.2658  -1.2635  -1.2527  -1.2523  -1.2390
    -1.2304  -1.2150  -1.2126  -1.1615  -1.1288  -1.0498  -1.0498  -1.0463
    -1.0165  -0.9969  -0.9789  -0.9752  -0.9703  -0.9693  -0.9276  -0.9232
    -0.9176  -0.9099  -0.8653  -0.8616  -0.8480  -0.8419  -0.8351  -0.8288
    -0.8158  -0.8139  -0.8024  -0.7899  -0.7851  -0.7737  -0.7719  -0.7682
    -0.7672  -0.7608  -0.7602  -0.7553  -0.7413  -0.7320  -0.7253  -0.7179
    -0.7168  -0.7131  -0.7121  -0.6986  -0.6966  -0.6910  -0.6854  -0.6809
    -0.6742  -0.6711  -0.6615  -0.6530  -0.6504  -0.6471  -0.6398  -0.6393
    -0.6314  -0.6239  -0.6214  -0.6177  -0.6109  -0.6062  -0.5932  -0.5897
    -0.5877  -0.5765  -0.5654  -0.5593  -0.5555  -0.5517  -0.5500  -0.5494
    -0.5374  -0.5331  -0.5263  -0.5067  -0.4863  -0.4743  -0.4503  -0.4479
    -0.4453  -0.4450  -0.4362  -0.4314  -0.4264  -0.4181  -0.4073  -0.3971
    -0.3858  -0.3651  -0.3509  -0.3438  -0.3382  -0.3332  -0.3273  -0.3226
    -0.3185  -0.3054  -0.3028  -0.3007  -0.2825  -0.2776  -0.2664  -0.2659
    -0.2564  -0.2548  -0.2421  -0.2414  -0.2275  -0.2176  -0.2041  -0.2036
    -0.2002  -0.1850  -0.1688  -0.1412  -0.1365  -0.1188  -0.1173  -0.1051
    -0.1027  -0.0751  -0.0298  -0.0176  -0.0046  -0.0034   0.0045   0.0172
     0.0303   0.0337   0.0507   0.0911   0.0995   0.1118   0.1265   0.1280
     0.1289   0.1390   0.1443   0.1504   0.1524   0.1560   0.1675   0.1793
     0.1865   0.1918   0.1932   0.2243   0.2442   0.2668   0.2860   0.2895
     0.3046   0.3078   0.3100   0.3163   0.3237   0.3327   0.3386   0.3418
     0.3454   0.3457   0.3555   0.3664   0.3705   0.3712   0.3753   0.3758
     0.3872   0.3874   0.3937   0.3942   0.4041   0.4176   0.4485   0.4565
     0.4690   0.4736   0.4769   0.4886   0.4952   0.5038   0.5150   0.5321
     0.5353   0.5493   0.5545   0.5620   0.5629   0.5690   0.5711   0.5718
     0.5831   0.5868   0.5956   0.6007   0.6079   0.6278   0.6331   0.6336
     0.6387   0.6542   0.6577   0.6620   0.6718   0.6772   0.6801   0.6883
     0.6903   0.6990   0.7006   0.7099   0.7147   0.7168   0.7183   0.7209
     0.7425   0.7455   0.7468   0.7511   0.7867   0.8020   0.8193   0.8196
     0.8512   0.8519   0.8594   0.8864   0.8966   0.9055   0.9294   0.9346
     0.9425   0.9433   0.9471   0.9483   0.9554   0.9615   0.9759   0.9897
     0.9928   1.0123   1.0144   1.0263   1.0324   1.0445   1.0462   1.0697
     1.0731   1.0835   1.0950   1.1108   1.1263   1.1301   1.1398   1.1496
     1.1537   1.1615   1.1661   1.1814   1.1935   1.1988   1.2070   1.2135
     1.2145   1.2160   1.2304   1.2343   1.2437   1.2465   1.2544   1.2602
     1.2662   1.2670   1.2717   1.2738   1.2751   1.3064   1.3137   1.3188
     1.3191   1.3320   1.3320   1.3390   1.3428   1.3442   1.3503   1.3591
     1.3733   1.3832   1.3849   1.3978   1.4027   1.4092   1.4271   1.4352
     1.4423   1.4456   1.4543   1.4692   1.4824   1.4863   1.4882   1.4887
     1.5035   1.5204   1.5212   1.5257   1.5424   1.5433   1.5462   1.5580
     1.5654   1.5721   1.5731   1.5779   1.5966   1.6152   1.6197   1.6242
     1.6293   1.6329   1.6343   1.6367   1.6455   1.6461   1.6485   1.6532
     1.6536   1.6589   1.6742   1.6747   1.6810   1.6842   1.6989   1.7058
     1.7123   1.7166   1.7179   1.7203   1.7268   1.7295   1.7454   1.7555
     1.7726   1.7740   1.7741   1.7750   1.7758   1.7940   1.7942   1.8008
     1.8024   1.8074   1.8079   1.8112   1.8193   1.8310   1.8422   1.8490
     1.8512   1.8635   1.8729   1.8744   1.8816   1.8861   1.8951   1.8984
     1.9002   1.9125   1.9185   1.9281   1.9332   1.9341   1.9492   1.9549
     1.9587   1.9634   1.9741   1.9778   1.9828   1.9863   1.9959   1.9974
     2.0007   2.0096   2.0131   2.0150   2.0301   2.0368   2.0441   2.0507
     2.0567   2.0671   2.0687   2.0762   2.0813   2.0816   2.0904   2.0932
     2.1045   2.1160   2.1233   2.1434   2.1584   2.1776   2.1835   2.1851
     2.2138   2.2192   2.2359   2.2578   2.2691   2.2740   2.2793   2.2831
     2.2956   2.3134   2.3463   2.3493   2.3541   2.3586   2.3602   2.3647
     2.3709   2.3785   2.4057   2.4351   2.4430   2.4477   2.4517   2.4568
     2.4878   2.4879   2.5158   2.5396   2.5510   2.5874   2.5902   2.5965
     2.6253   2.6528   2.6661   2.6663   2.6759   2.6959   2.7252   2.7274
     2.7836   2.7856   2.8086   2.8123   2.8685   2.8758   2.8808   2.8887
     2.8988   2.9131   2.9145   2.9688   2.9852   3.0676   3.0872   3.0989
     3.1036   3.1087   3.1120   3.1258   3.1978   3.2144   3.2216   3.2262
     3.2346   3.2459   3.2503   3.2515   3.2589   3.2659   3.2712   3.2769
     3.2832   3.2988   3.3386   3.4213   3.4466   3.4480   3.5073   3.5248
     3.5283   3.7015   3.7168   3.8000   3.8814   3.8923   3.9329   4.1097
     4.1307   4.1800   4.1913   4.2607   4.2727   4.3982   4.3999   4.4232
     4.4873   4.5326   4.6345   4.6808   4.6821   4.7445   4.7800   4.8126
     4.8185   4.8417   4.8815   4.9378   4.9895   5.0638   5.1237   5.1781
     5.2218   5.2651   5.3405   5.3696   5.4274   5.4452   5.7008   5.9275
     6.0208   6.0415   6.0518   6.0555   6.1464   6.1535   6.1797   6.2158
     6.2701   6.2943   6.3366   6.4100   6.4137   6.4416   6.4449   6.5118
     6.6186   6.6215   6.6771   6.7150   6.7313   6.7400   6.7509   6.7793
     6.8083   6.8255   6.8343   6.8597   6.8640   6.9426   6.9937   7.0327
     7.0337   7.0429   7.0796   7.1000   7.1098   7.1704   7.1717   7.1917
     7.2098   7.2618   7.3366   7.4114   7.4326   7.4587   7.4963   7.5578
     7.5632   7.5725   7.6493   7.6857   7.7068   7.8236   7.8515   7.8895
     7.9382   7.9434   7.9546   7.9566   7.9747   7.9814   7.9997   8.0101
     8.0322   8.0594   8.0699   8.0793   8.1416   8.1480   8.1875   8.2511
     8.2737   8.3068   8.3118   8.3464   8.4618   8.4753   8.4867   8.5025
     8.5286   8.5691   8.6339   8.6400   8.6831   8.6837   8.7080   8.7533
     8.7637   8.7887   8.7929   8.8505   8.8598   8.8638   8.8871   8.9437
     8.9493   8.9637   8.9706   8.9766   8.9999   9.0092   9.0472   9.0733
     9.0837   9.1004   9.1274   9.1402   9.1491   9.1522   9.1803   9.1845
     9.1853   9.1987

          k =-0.4652-0.0000 0.0000 (286584 PWs)   bands (ev):

   -41.1678 -41.1664 -41.1619 -41.1599 -41.1542 -41.1375 -41.1366 -38.7884
   -38.0970 -38.0699 -38.0665 -38.0629 -38.0605 -38.0469 -38.0452 -35.6343
   -23.0359 -22.9716 -22.9455 -22.9061 -22.8756 -22.7782 -22.7461 -22.7142
   -22.6683 -22.6568 -22.6511 -22.6488 -22.5658 -22.5637 -22.5586 -22.5557
   -22.5242 -22.5192 -22.4814 -22.4480 -22.4272 -22.3704 -22.3218 -22.3157
   -22.3142 -22.3034 -22.2838 -22.2194 -22.2181 -22.2134 -22.2076 -22.1732
   -21.3375 -21.3050 -21.2904 -21.2880 -21.2807 -21.2578 -21.2507 -21.2364
   -21.2139 -21.1937 -21.1896 -21.1799 -21.1484 -21.1319 -21.1262 -21.1215
   -21.0899 -21.0819 -21.0767 -21.0493 -21.0286 -19.8416 -19.8381 -19.8246
   -18.6759 -18.6030 -18.5974 -18.5718 -18.5480 -18.5093 -18.4715 -18.4607
   -18.4063 -18.3990 -18.3787 -18.3770 -18.3701 -18.2961 -18.2707 -18.2351
   -18.2099 -18.1911 -18.1864 -18.1171 -18.0642 -16.8936 -16.8652 -16.8587
   -16.1253 -16.0254 -15.9765 -15.8767 -15.7032 -15.6518 -15.6186 -15.5333
   -15.5221 -15.5117 -15.4429 -15.4143 -15.3836 -15.3019 -15.2955 -15.2410
   -15.1581 -15.0530 -14.9830 -14.8580 -14.7499 -14.7158 -14.6997 -14.6824
   -14.6487 -14.6329 -14.5682 -14.5576 -14.5526 -14.5481 -14.5333 -14.5275
   -14.5060 -14.4982 -14.4780 -14.4641 -14.4435 -14.4426 -14.4421 -14.4334
   -14.4253 -14.4223 -14.3914 -14.3790 -14.3715 -14.3702 -14.3549 -14.3508
   -14.3261 -14.3243 -14.3236 -14.3079 -14.2823 -14.2754 -14.2398 -14.2059
   -14.2046 -14.1826 -14.1656 -14.1568 -14.1382 -14.1267 -14.1142 -14.0879
   -14.0780 -14.0763 -14.0721 -14.0721 -14.0649 -14.0542 -14.0522 -14.0431
   -14.0164 -14.0157 -14.0077 -13.9912 -13.9635 -13.9449 -13.8802 -13.8454
   -13.8375 -13.8360 -13.8087 -13.7935 -13.7787 -13.7736 -13.7575 -13.7568
   -13.7557 -13.7527 -13.7103 -13.7071 -13.7056 -13.7040 -13.6999 -13.6973
   -13.6896 -13.6894 -13.6710 -13.6644 -13.6617 -13.6385 -13.6382 -13.6316
   -13.6303 -13.6272 -13.6105 -13.5862 -13.5833 -13.5735 -13.5438 -13.5352
   -13.4799 -13.4588 -13.4070 -13.4006 -13.3118 -13.2402 -13.2232 -13.1526
    -8.6985  -8.5129  -8.4941  -8.4506  -8.4330  -8.4175  -8.3955  -8.3594
    -8.3481  -8.3139  -8.2835  -8.2534  -8.2141  -8.2111  -8.2084  -8.2047
    -8.1984  -8.1784  -8.1351  -8.1306  -8.1012  -8.0724  -8.0713  -8.0540
    -8.0147  -7.9922  -7.9755  -7.9659  -7.9563  -7.9471  -7.9456  -7.9244
    -7.9149  -7.9113  -7.9012  -7.8983  -7.8970  -7.8928  -7.8927  -7.8901
    -7.8896  -7.8809  -7.8756  -7.8706  -7.8665  -7.8615  -7.8572  -7.8477
    -7.8382  -7.8249  -7.8100  -7.8063  -7.7616  -7.7421  -7.7282  -7.7200
    -7.7175  -7.6883  -7.6837  -7.6816  -7.6514  -7.6436  -7.6341  -7.6174
    -7.6031  -7.5916  -7.5878  -7.5853  -7.5715  -7.5709  -7.5671  -7.5614
    -7.5442  -7.5373  -7.5282  -7.5188  -7.5183  -7.5118  -7.5058  -7.4821
    -7.4766  -7.4677  -7.4358  -7.4076  -7.4039  -7.4024  -7.3667  -7.3514
    -7.3243  -7.3228  -7.2814  -7.2772  -7.2245  -7.2203  -7.2130  -7.1937
    -4.5118  -4.1302  -4.0641  -3.9302  -3.8935  -3.4753  -3.4327  -3.4245
    -3.3926  -3.3802  -3.3613  -3.3469  -3.1602  -3.1156  -3.0595  -3.0269
    -3.0040  -2.9961  -2.9938  -2.8715  -2.8670  -2.8258  -2.8217  -2.8070
    -2.7869  -2.7851  -2.7752  -2.7554  -2.7315  -2.7227  -2.7054  -2.6951
    -2.6788  -2.6707  -2.6572  -2.5881  -2.5840  -2.5734  -2.5068  -2.5009
    -2.4985  -2.4751  -2.4569  -2.4521  -2.3792  -2.3408  -2.3393  -2.3225
    -2.2687  -2.2492  -2.2443  -2.2261  -2.2232  -2.2145  -2.2131  -2.1977
    -2.1755  -2.1720  -2.1266  -2.0917  -2.0836  -2.0830  -2.0826  -2.0697
    -2.0380  -2.0344  -2.0247  -2.0087  -1.9833  -1.9819  -1.9815  -1.9780
    -1.9723  -1.9696  -1.9650  -1.9531  -1.9499  -1.9428  -1.9388  -1.9380
    -1.9196  -1.9183  -1.9109  -1.8994  -1.8985  -1.8877  -1.8753  -1.8730
    -1.8721  -1.8642  -1.8376  -1.8316  -1.8314  -1.8142  -1.8127  -1.7921
    -1.7913  -1.7882  -1.7846  -1.7829  -1.7785  -1.7647  -1.7610  -1.7563
    -1.7489  -1.7312  -1.7247  -1.7137  -1.7105  -1.7062  -1.7033  -1.6933
    -1.6925  -1.6853  -1.6752  -1.6603  -1.6418  -1.6311  -1.6309  -1.6229
    -1.6070  -1.5968  -1.5850  -1.5814  -1.5767  -1.5463  -1.5283  -1.5226
    -1.5151  -1.4862  -1.4764  -1.4565  -1.4134  -1.3973  -1.3260  -1.3018
    -1.2893  -1.2609  -1.2565  -1.2353  -1.2322  -1.2063  -1.1954  -1.1858
    -1.1742  -1.1586  -1.1509  -1.1278  -1.1096  -1.0534  -1.0468  -1.0458
    -1.0386  -1.0023  -0.9688  -0.9666  -0.9190  -0.8977  -0.8976  -0.8941
    -0.8903  -0.8834  -0.8739  -0.8667  -0.8525  -0.8497  -0.8460  -0.8369
    -0.8304  -0.8291  -0.8253  -0.8240  -0.8209  -0.8129  -0.8035  -0.7972
    -0.7814  -0.7744  -0.7723  -0.7680  -0.7600  -0.7539  -0.7371  -0.7329
    -0.7325  -0.7260  -0.7196  -0.6953  -0.6585  -0.6506  -0.6450  -0.6434
    -0.6420  -0.6393  -0.6351  -0.6287  -0.6239  -0.6176  -0.6132  -0.6001
    -0.5957  -0.5905  -0.5894  -0.5826  -0.5820  -0.5706  -0.5616  -0.5552
    -0.5499  -0.5416  -0.5268  -0.5244  -0.5162  -0.5051  -0.5041  -0.5012
    -0.4898  -0.4883  -0.4780  -0.4726  -0.4580  -0.4538  -0.4526  -0.4475
    -0.4440  -0.4359  -0.4302  -0.4221  -0.4111  -0.4096  -0.3983  -0.3896
    -0.3800  -0.3547  -0.3525  -0.3456  -0.3412  -0.3333  -0.3277  -0.3216
    -0.3037  -0.2719  -0.2665  -0.2628  -0.2521  -0.2490  -0.2487  -0.2423
    -0.2264  -0.2229  -0.2217  -0.2143  -0.2085  -0.2026  -0.1914  -0.1812
    -0.1802  -0.1708  -0.1627  -0.1400  -0.1310  -0.1271  -0.1241  -0.1209
    -0.1106  -0.0831  -0.0787  -0.0752  -0.0439  -0.0429  -0.0329  -0.0285
    -0.0157  -0.0108  -0.0083  -0.0012   0.0288   0.0550   0.0763   0.0865
     0.0919   0.1010   0.1016   0.1072   0.1130   0.1358   0.1540   0.1603
     0.1679   0.1881   0.1915   0.2197   0.2257   0.2385   0.2393   0.2407
     0.2748   0.2964   0.3068   0.3102   0.3340   0.3440   0.3468   0.3571
     0.3659   0.3704   0.3880   0.3919   0.4063   0.4081   0.4123   0.4169
     0.4179   0.4277   0.4314   0.4351   0.4382   0.4463   0.4482   0.4692
     0.4706   0.4742   0.4771   0.4831   0.4854   0.4919   0.4956   0.4987
     0.5129   0.5140   0.5198   0.5314   0.5335   0.5377   0.5419   0.5455
     0.5588   0.5648   0.5847   0.5871   0.5926   0.6057   0.6127   0.6157
     0.6164   0.6187   0.6254   0.6328   0.6535   0.6562   0.6607   0.6761
     0.7029   0.7065   0.7128   0.7353   0.7469   0.7555   0.7565   0.7669
     0.7854   0.7873   0.7900   0.8166   0.8179   0.8274   0.8309   0.8441
     0.8489   0.8599   0.8682   0.8837   0.8969   0.9041   0.9082   0.9141
     0.9222   0.9235   0.9405   0.9420   0.9575   0.9755   0.9757   0.9764
[...]
     atom   60 type  5   force =     0.00000000    0.00000000   -0.00018282
     atom   61 type  5   force =     0.00000000    0.00000000   -0.00077565
     atom   62 type  5   force =     0.00000000    0.00000000   -0.00077565
     atom   63 type  5   force =     0.00000000    0.00006839   -0.00087491
     atom   64 type  5   force =     0.00000000   -0.00006839   -0.00087491
     atom   65 type  4   force =    -0.00030585    0.00008482    0.00095690
     atom   66 type  4   force =    -0.00030585   -0.00008482    0.00095690
     atom   67 type  4   force =     0.00030585    0.00008482    0.00095690
     atom   68 type  4   force =     0.00030585   -0.00008482    0.00095690
     atom   69 type  4   force =     0.00000000   -0.00023237    0.00055605
     atom   70 type  4   force =     0.00000000    0.00023237    0.00055605
     atom   71 type  4   force =    -0.00009813   -0.00003209    0.00113696
     atom   72 type  4   force =    -0.00009813    0.00003209    0.00113696
     atom   73 type  4   force =     0.00009813    0.00003209    0.00113696
     atom   74 type  4   force =     0.00009813   -0.00003209    0.00113696
     atom   75 type  4   force =     0.00018702    0.00000000    0.00099120
     atom   76 type  4   force =    -0.00018702    0.00000000    0.00099120
     atom   77 type  4   force =     0.00000000   -0.00041256    0.00166099
     atom   78 type  4   force =     0.00000000    0.00041256    0.00166099
     atom   79 type  4   force =     0.00020282    0.00000000    0.00073424
     atom   80 type  4   force =    -0.00020282    0.00000000    0.00073424
     atom   81 type  3   force =     0.00008854   -0.00007514   -0.00167651
     atom   82 type  3   force =     0.00008854    0.00007514   -0.00167651
     atom   83 type  3   force =    -0.00008854   -0.00007514   -0.00167651
     atom   84 type  3   force =    -0.00008854    0.00007514   -0.00167651
     atom   85 type  3   force =     0.00003501   -0.00005051   -0.00184994
     atom   86 type  3   force =    -0.00003501   -0.00005051   -0.00184994
     atom   87 type  3   force =    -0.00003501    0.00005051   -0.00184994
     atom   88 type  3   force =     0.00003501    0.00005051   -0.00184994
     atom   89 type  1   force =     0.00000000    0.00000000   -0.00169730
     atom   90 type  1   force =     0.00000000   -0.00022657   -0.00233869
     atom   91 type  1   force =     0.00000000    0.00022657   -0.00233869
     atom   92 type  1   force =    -0.00018709    0.00000000   -0.00148096
     atom   93 type  1   force =     0.00018709    0.00000000   -0.00148096
     atom   94 type  1   force =     0.00000000    0.00000000   -0.00224093
     atom   95 type  1   force =     0.00000000    0.00000000   -0.00224093
     atom   96 type  1   force =     0.00000000    0.00000000   -0.00159449
     atom   97 type  4   force =    -0.00022631   -0.00017739    0.00330170
     atom   98 type  4   force =    -0.00022631    0.00017739    0.00330170
     atom   99 type  4   force =     0.00022631   -0.00017739    0.00330170
     atom  100 type  4   force =     0.00022631    0.00017739    0.00330170
     atom  101 type  4   force =     0.00010416   -0.00036438    0.00332978
     atom  102 type  4   force =    -0.00010416   -0.00036438    0.00332978
     atom  103 type  4   force =    -0.00010416    0.00036438    0.00332978
     atom  104 type  4   force =     0.00010416    0.00036438    0.00332978
     atom  105 type  4   force =     0.00198576    0.00000000    0.00558091
     atom  106 type  4   force =    -0.00198576    0.00000000    0.00558091
     atom  107 type  3   force =    -0.00286294   -0.00107331   -0.01075877
     atom  108 type  3   force =    -0.00286294    0.00107331   -0.01075877
     atom  109 type  3   force =     0.00286294    0.00107331   -0.01075877
     atom  110 type  3   force =     0.00286294   -0.00107331   -0.01075877
     atom  111 type  3   force =    -0.00225448   -0.00025935   -0.01118640
     atom  112 type  3   force =     0.00225448    0.00025935   -0.01118640
     atom  113 type  3   force =    -0.00225448    0.00025935   -0.01118640
     atom  114 type  3   force =     0.00225448   -0.00025935   -0.01118640
     atom  115 type  4   force =     0.00058671   -0.00084685    0.00601108
     atom  116 type  4   force =    -0.00058671   -0.00084685    0.00601108
     atom  117 type  4   force =     0.00058671    0.00084685    0.00601108
     atom  118 type  4   force =    -0.00058671    0.00084685    0.00601108
     atom  119 type  4   force =    -0.00092589    0.00000000    0.00547049
     atom  120 type  4   force =     0.00092589    0.00000000    0.00547049
     atom  121 type  4   force =    -0.00196917   -0.00046921    0.01885215
     atom  122 type  4   force =     0.00196917   -0.00046921    0.01885215
     atom  123 type  4   force =     0.00196917    0.00046921    0.01885215
     atom  124 type  4   force =    -0.00196917    0.00046921    0.01885215
     atom  125 type  4   force =     0.00089661   -0.00069900    0.01974227
     atom  126 type  4   force =     0.00089661    0.00069900    0.01974227
     atom  127 type  4   force =    -0.00089661   -0.00069900    0.01974227
     atom  128 type  4   force =    -0.00089661    0.00069900    0.01974227
     atom  129 type  1   force =     0.00000000    0.00000000   -0.02543214
     atom  130 type  1   force =     0.00000000    0.00000000   -0.02430389
     atom  131 type  1   force =     0.00000000    0.00000000   -0.02430389
     atom  132 type  1   force =    -0.00098685    0.00000000   -0.02517425
     atom  133 type  1   force =     0.00098685    0.00000000   -0.02517425
     atom  134 type  1   force =     0.00000000   -0.00032761   -0.02327243
     atom  135 type  1   force =     0.00000000    0.00032761   -0.02327243
     atom  136 type  1   force =     0.00000000    0.00000000   -0.02224033
     atom  137 type  3   force =     0.00090477    0.00046837    0.00203376
     atom  138 type  3   force =     0.00090477   -0.00046837    0.00203376
     atom  139 type  3   force =    -0.00090477   -0.00046837    0.00203376
     atom  140 type  3   force =    -0.00090477    0.00046837    0.00203376
     atom  141 type  3   force =    -0.00037577    0.00038907    0.00549421
     atom  142 type  3   force =    -0.00037577   -0.00038907    0.00549421
     atom  143 type  3   force =     0.00037577    0.00038907    0.00549421
     atom  144 type  3   force =     0.00037577   -0.00038907    0.00549421
     atom  145 type  4   force =    -0.01641150    0.00000000    0.06557000
     atom  146 type  4   force =     0.01641150    0.00000000    0.06557000
     atom  147 type  4   force =     0.00000000   -0.01623347    0.06354816
     atom  148 type  4   force =     0.00000000    0.01623347    0.06354816
     atom  149 type  4   force =     0.00095945    0.00000000    0.07321554
     atom  150 type  4   force =    -0.00095945    0.00000000    0.07321554
     atom  151 type  4   force =    -0.00150315   -0.00031703    0.07098096
     atom  152 type  4   force =     0.00150315   -0.00031703    0.07098096
     atom  153 type  4   force =     0.00150315    0.00031703    0.07098096
     atom  154 type  4   force =    -0.00150315    0.00031703    0.07098096
     atom  155 type  4   force =     0.00000000    0.00159839    0.06923008
     atom  156 type  4   force =     0.00000000   -0.00159839    0.06923008
     atom  157 type  4   force =     0.00135538   -0.00221932    0.06800595
     atom  158 type  4   force =    -0.00135538    0.00221932    0.06800595
     atom  159 type  4   force =     0.00135538    0.00221932    0.06800595
     atom  160 type  4   force =    -0.00135538   -0.00221932    0.06800595
     atom  161 type  2   force =     0.00000000    0.00000000   -0.05381345
     atom  162 type  5   force =    -0.00092244    0.00000000   -0.11027411
     atom  163 type  5   force =     0.00092244    0.00000000   -0.11027411
     atom  164 type  5   force =     0.00000000    0.00000000   -0.10319290
     atom  165 type  5   force =     0.00000000    0.00000000   -0.10185295
     atom  166 type  5   force =     0.00000000    0.00000000   -0.10185295
     atom  167 type  5   force =     0.00000000   -0.00043626   -0.11283176
     atom  168 type  5   force =     0.00000000    0.00043626   -0.11283176
     atom  169 type  4   force =    -0.00176543    0.00071289    0.01350931
     atom  170 type  4   force =    -0.00176543   -0.00071289    0.01350931
     atom  171 type  4   force =     0.00176543    0.00071289    0.01350931
     atom  172 type  4   force =     0.00176543   -0.00071289    0.01350931
     atom  173 type  4   force =     0.00000000   -0.00046954    0.01465027
     atom  174 type  4   force =     0.00000000    0.00046954    0.01465027
     atom  175 type  4   force =    -0.00105873   -0.00125029    0.00698072
     atom  176 type  4   force =    -0.00105873    0.00125029    0.00698072
     atom  177 type  4   force =     0.00105873    0.00125029    0.00698072
     atom  178 type  4   force =     0.00105873   -0.00125029    0.00698072
     atom  179 type  4   force =     0.00097205    0.00000000    0.00808574
     atom  180 type  4   force =    -0.00097205    0.00000000    0.00808574
     atom  181 type  4   force =     0.00000000   -0.00298071    0.01434476
     atom  182 type  4   force =     0.00000000    0.00298071    0.01434476
     atom  183 type  4   force =     0.00184334    0.00000000    0.00759376
     atom  184 type  4   force =    -0.00184334    0.00000000    0.00759376
     atom  185 type  3   force =     0.00084660   -0.00091367   -0.01847095
     atom  186 type  3   force =     0.00084660    0.00091367   -0.01847095
     atom  187 type  3   force =    -0.00084660   -0.00091367   -0.01847095
     atom  188 type  3   force =    -0.00084660    0.00091367   -0.01847095
     atom  189 type  3   force =     0.00082865    0.00021426   -0.02137631
     atom  190 type  3   force =    -0.00082865    0.00021426   -0.02137631
     atom  191 type  3   force =    -0.00082865   -0.00021426   -0.02137631
     atom  192 type  3   force =     0.00082865   -0.00021426   -0.02137631
     atom  193 type  1   force =     0.00000000    0.00000000   -0.02627584
     atom  194 type  1   force =     0.00000000   -0.00010570   -0.03074568
     atom  195 type  1   force =     0.00000000    0.00010570   -0.03074568
     atom  196 type  1   force =    -0.00001386    0.00000000   -0.03137863
     atom  197 type  1   force =     0.00001386    0.00000000   -0.03137863
     atom  198 type  1   force =     0.00000000    0.00000000   -0.03070095
     atom  199 type  1   force =     0.00000000    0.00000000   -0.03070095
     atom  200 type  1   force =     0.00000000    0.00000000   -0.03112880
     atom  201 type  4   force =    -0.00008392    0.00008798   -0.00432284
     atom  202 type  4   force =    -0.00008392   -0.00008798   -0.00432284
     atom  203 type  4   force =     0.00008392    0.00008798   -0.00432284
     atom  204 type  4   force =     0.00008392   -0.00008798   -0.00432284
     atom  205 type  4   force =    -0.00034718   -0.00023378   -0.00449715
     atom  206 type  4   force =     0.00034718   -0.00023378   -0.00449715
     atom  207 type  4   force =     0.00034718    0.00023378   -0.00449715
     atom  208 type  4   force =    -0.00034718    0.00023378   -0.00449715
     atom  209 type  4   force =     0.00020931    0.00000000    0.00498712
     atom  210 type  4   force =    -0.00020931    0.00000000    0.00498712
     atom  211 type  3   force =     0.00019245   -0.00000817   -0.00260286
     atom  212 type  3   force =     0.00019245    0.00000817   -0.00260286
     atom  213 type  3   force =    -0.00019245    0.00000817   -0.00260286
     atom  214 type  3   force =    -0.00019245   -0.00000817   -0.00260286
     atom  215 type  3   force =     0.00006225   -0.00016066   -0.00271645
     atom  216 type  3   force =    -0.00006225    0.00016066   -0.00271645
     atom  217 type  3   force =     0.00006225    0.00016066   -0.00271645
     atom  218 type  3   force =    -0.00006225   -0.00016066   -0.00271645
     atom  219 type  4   force =    -0.00008035    0.00092624    0.00463460
     atom  220 type  4   force =     0.00008035    0.00092624    0.00463460
     atom  221 type  4   force =    -0.00008035   -0.00092624    0.00463460
     atom  222 type  4   force =     0.00008035   -0.00092624    0.00463460
     atom  223 type  4   force =    -0.00034122    0.00000000    0.00395377
     atom  224 type  4   force =     0.00034122    0.00000000    0.00395377

     Total force =     0.427983     Total SCF correction =     0.000323


     Computing stress (Cartesian axis) and pressure


     negative rho (up, down):  6.295E-01 0.000E+00
          total   stress  (Ry/bohr**3)                   (kbar)     P=      -10.21
  -0.00003215   0.00000000   0.00000000           -4.73        0.00        0.00
   0.00000000  -0.00002289   0.00000000            0.00       -3.37        0.00
   0.00000000   0.00000000  -0.00015317            0.00        0.00      -22.53

 
     init_run     :     58.39s CPU     60.14s WALL (       1 calls)
     electrons    :   4269.38s CPU   4405.71s WALL (       1 calls)
     forces       :     34.03s CPU     35.70s WALL (       1 calls)
     stress       :    397.13s CPU    400.56s WALL (       1 calls)

     Called by init_run:
     wfcinit      :     45.96s CPU     46.88s WALL (       1 calls)
     potinit      :      1.69s CPU      1.72s WALL (       1 calls)
     hinit0       :      2.97s CPU      3.15s WALL (       1 calls)

     Called by electrons:
     c_bands      :   3538.00s CPU   3597.05s WALL (      41 calls)
     sum_band     :    501.28s CPU    544.58s WALL (      41 calls)
     v_of_rho     :     11.03s CPU     11.13s WALL (      42 calls)
     newd         :     93.09s CPU    126.56s WALL (      42 calls)
     mix_rho      :    127.21s CPU    128.02s WALL (      41 calls)

     Called by c_bands:
     init_us_2    :      9.23s CPU      9.29s WALL (     340 calls)
     cegterg      :   3441.64s CPU   3498.84s WALL (     164 calls)

     Called by sum_band:
     sum_band:bec :      3.58s CPU      3.59s WALL (     164 calls)
     addusdens    :     73.27s CPU    113.48s WALL (      41 calls)

     Called by *egterg:
     h_psi        :   1480.40s CPU   1503.79s WALL (     871 calls)
     s_psi        :    422.45s CPU    432.48s WALL (     871 calls)
     g_psi        :      1.66s CPU      1.68s WALL (     703 calls)
     cdiaghg      :    588.15s CPU    591.27s WALL (     867 calls)

     Called by h_psi:
     h_psi:calbec :    470.51s CPU    472.24s WALL (     871 calls)
     vloc_psi     :    584.18s CPU    591.39s WALL (     871 calls)
     add_vuspsi   :    422.61s CPU    431.07s WALL (     871 calls)

     General routines
     calbec       :    771.26s CPU    773.92s WALL (    1055 calls)
     fft          :     11.70s CPU     11.85s WALL (     569 calls)
     ffts         :     80.60s CPU     81.12s WALL (   32083 calls)
     fftw         :    661.94s CPU    669.86s WALL (  924402 calls)
     interpolate  :      0.99s CPU      1.00s WALL (      42 calls)
 
     Parallel routines
     fft_scatt_xy :     85.31s CPU     86.28s WALL (  957054 calls)
     fft_scatt_yz :    450.81s CPU    456.14s WALL (  957054 calls)
 
     PWSCF        :      1h19m CPU      1h21m WALL

 
   This run was terminated on:  12:21:35  18May2021            

=------------------------------------------------------------------------------=
   JOB DONE.
=------------------------------------------------------------------------------=
[1621354895.462757] [holy7c06303:28239:0]          mpool.c:43   UCX  WARN  object 0x2d3f380 was not returned to mpool ucp_requests
[1621354895.481007] [holy7c06506:208905:0]          mpool.c:43   UCX  WARN  object 0x3c50c00 was not returned to mpool ucp_requests
[1621354895.481778] [holy7c06509:114568:0]          mpool.c:43   UCX  WARN  object 0x2f19e00 was not returned to mpool ucp_requests
[1621354895.465635] [holy7c06303:28237:0]          mpool.c:43   UCX  WARN  object 0x29b70c0 was not returned to mpool ucp_requests
[1621354895.472298] [holy7c06303:28231:0]          mpool.c:43   UCX  WARN  object 0x3404e80 was not returned to mpool ucp_requests
[1621354895.472330] [holy7c06303:28231:0]          mpool.c:43   UCX  WARN  object 0x3406000 was not returned to mpool ucp_requests
[1621354895.478928] [holy7c06303:28238:0]          mpool.c:43   UCX  WARN  object 0x5570740 was not returned to mpool ucp_requests
[1621354895.481683] [holy7c06509:114566:0]          mpool.c:43   UCX  WARN  object 0x3993a00 was not returned to mpool ucp_requests
[1621354895.482481] [holy7c06506:208897:0]          mpool.c:43   UCX  WARN  object 0x430a7c0 was not returned to mpool ucp_requests
[1621354895.492748] [holy7c06509:114576:0]          mpool.c:43   UCX  WARN  object 0x444a740 was not returned to mpool ucp_requests
[1621354895.486523] [holy7c06506:208895:0]          mpool.c:43   UCX  WARN  object 0x32e9880 was not returned to mpool ucp_requests
[1621354895.489478] [holy7c06506:208906:0]          mpool.c:43   UCX  WARN  object 0x47db9c0 was not returned to mpool ucp_requests
[1621354895.495545] [holy7c06506:208903:0]          mpool.c:43   UCX  WARN  object 0x2fb13c0 was not returned to mpool ucp_requests
[1621354895.500166] [holy7c06509:114574:0]          mpool.c:43   UCX  WARN  object 0x58c3440 was not returned to mpool ucp_requests
[1621354895.484724] [holy7c06506:208889:0]          mpool.c:43   UCX  WARN  object 0x42a8a80 was not returned to mpool ucp_requests
[1621354895.493471] [holy7c06506:208887:0]          mpool.c:43   UCX  WARN  object 0x3462240 was not returned to mpool ucp_requests
[1621354895.487458] [holy7c06506:208896:0]          mpool.c:43   UCX  WARN  object 0x32bb280 was not returned to mpool ucp_requests
[1621354895.491206] [holy7c06509:114569:0]          mpool.c:43   UCX  WARN  object 0x35724c0 was not returned to mpool ucp_requests
[1621354895.486270] [holy7c06303:28240:0]          mpool.c:43   UCX  WARN  object 0x4769b40 was not returned to mpool ucp_requests
[1621354895.481225] [holy7c06303:28230:0]          mpool.c:43   UCX  WARN  object 0x2fd6640 was not returned to mpool ucp_requests
[1621354895.486012] [holy7c06303:28232:0]          mpool.c:43   UCX  WARN  object 0x3702440 was not returned to mpool ucp_requests
[1621354895.492272] [holy7c06511:43293:0]          mpool.c:43   UCX  WARN  object 0x3d08780 was not returned to mpool ucp_requests
[1621354895.495473] [holy7c06511:43291:0]          mpool.c:43   UCX  WARN  object 0x47cae00 was not returned to mpool ucp_requests
[1621354895.484065] [holy7c06511:43292:0]          mpool.c:43   UCX  WARN  object 0x6269340 was not returned to mpool ucp_requests
[1621354895.499664] [holy7c06506:208898:0]          mpool.c:43   UCX  WARN  object 0x28fe980 was not returned to mpool ucp_requests
[1621354895.495633] [holy7c06506:208888:0]          mpool.c:43   UCX  WARN  object 0x473a080 was not returned to mpool ucp_requests
[1621354895.495660] [holy7c06506:208888:0]          mpool.c:43   UCX  WARN  object 0x473ca80 was not returned to mpool ucp_requests
[1621354895.487278] [holy7c06511:43294:0]          mpool.c:43   UCX  WARN  object 0x2f99800 was not returned to mpool ucp_requests
[1621354895.499682] [holy7c06509:114575:0]          mpool.c:43   UCX  WARN  object 0x29e3c40 was not returned to mpool ucp_requests
[1621354895.508307] [holy7c06509:114567:0]          mpool.c:43   UCX  WARN  object 0x37daf40 was not returned to mpool ucp_requests
[1621354895.511521] [holy7c06506:208890:0]          mpool.c:43   UCX  WARN  object 0x4873300 was not returned to mpool ucp_requests
[1621354895.511773] [holy7c06509:114577:0]          mpool.c:43   UCX  WARN  object 0x43743c0 was not returned to mpool ucp_requests
[1621354895.520452] [holy7c06506:208904:0]          mpool.c:43   UCX  WARN  object 0x3f6aac0 was not returned to mpool ucp_requests
