
     Program PWSCF v.6.5 starts on 17May2021 at 20:49:21 

     This program is part of the open-source Quantum ESPRESSO suite
     for quantum simulation of materials; please cite
         "P. Giannozzi et al., J. Phys.:Condens. Matter 21 395502 (2009);
         "P. Giannozzi et al., J. Phys.:Condens. Matter 29 465901 (2017);
          URL http://www.quantum-espresso.org", 
     in publications or presentations arising from this work. More details at
     http://www.quantum-espresso.org/quote

     Parallel version (MPI), running on    80 processors

     MPI processes distributed on     5 nodes
     R & G space division:  proc/nbgrp/npool/nimage =      80
     Reading input from YBCO_CuO_cleave_2.0_sep.pwi
Warning: card &IONS ignored
Warning: card     ION_DYNAMICS = 'BFGS' ignored
Warning: card / ignored
Warning: card &CELL ignored
Warning: card     CELL_DYNAMICS = 'BFGS' ignored
Warning: card     PRESS_CONV_THR = 5 ignored
Warning: card / ignored

     Current dimensions of program PWSCF are:
     Max number of different atomic species (ntypx) = 10
     Max number of k-points (npk) =  40000
     Max angular momentum in pseudopotentials (lmaxx) =  3
     Message from routine volume:
     axis vectors are left-handed

     Subspace diagonalization in iterative solution of the eigenvalue problem:
     one sub-group per band group will be used
     scalapack distributed-memory algorithm (size of sub-group:  8*  8 procs)

     Message from routine setup:
     using ibrav=0 with symmetry is DISCOURAGED, use correct ibrav instead
 
     Parallelization info
     --------------------
     sticks:   dense  smooth     PW     G-vecs:    dense   smooth      PW
     Min         300     100     25               147294    28346    3721
     Max         301     101     26               147329    28365    3760
     Sum       24079    8031   2067             11785545  2268261  299801
 


     bravais-lattice index     =            0
     lattice parameter (alat)  =      20.5021  a.u.
     unit-cell volume          =   36123.4618 (a.u.)^3
     number of atoms/cell      =          224
     number of atomic types    =            5
     number of electrons       =      1830.00
     number of Kohn-Sham states=         1098
     kinetic-energy cutoff     =      60.0000  Ry
     charge density cutoff     =     720.0000  Ry
     convergence threshold     =      1.0E-08
     mixing beta               =       0.5000
     number of iterations used =           10  local-TF  mixing
     Exchange-correlation= SLA PW PBE PBE
                           (   1   4   3   4   0   0   0)

     celldm(1)=  20.502120  celldm(2)=   0.000000  celldm(3)=   0.000000
     celldm(4)=   0.000000  celldm(5)=   0.000000  celldm(6)=   0.000000

     crystal axes: (cart. coord. in units of alat)
               a(1) = (  -0.716599   0.697485   0.000000 )  
               a(2) = (   0.716599   0.697485   0.000000 )  
               a(3) = (   0.000000   0.000000   4.193260 )  

     reciprocal axes: (cart. coord. in units 2 pi/alat)
               b(1) = ( -0.697740  0.716861  0.000000 )  
               b(2) = (  0.697740  0.716861  0.000000 )  
               b(3) = (  0.000000  0.000000  0.238478 )  


     PseudoPot. # 1 for Ba read from file:
     ./pseudo/Ba.pbe-nsp-van.UPF
     MD5 check sum: 2b9c31dd849566dd297d80989662b7a0
     Pseudo is Ultrasoft + core correction, Zval = 10.0
     Generated by new atomic code, or converted to UPF format
     Using radial grid of  907 points,  6 beta functions with: 
                l(1) =   0
                l(2) =   0
                l(3) =   1
                l(4) =   1
                l(5) =   2
                l(6) =   2
     Q(r) pseudized with  6 coefficients,  rinner =    1.200   1.200   1.200
                                                       1.200   1.200

     PseudoPot. # 2 for Ca read from file:
     ./pseudo/Ca.pbe-nsp-van.UPF
     MD5 check sum: 6471098428ff4fa451746d08035ff179
     Pseudo is Ultrasoft + core correction, Zval = 10.0
     Generated by new atomic code, or converted to UPF format
     Using radial grid of  845 points,  6 beta functions with: 
                l(1) =   0
                l(2) =   0
                l(3) =   1
                l(4) =   1
                l(5) =   2
                l(6) =   2
     Q(r) pseudized with  6 coefficients,  rinner =    1.200   1.200   1.200
                                                       1.200   1.200

     PseudoPot. # 3 for Cu read from file:
     ./pseudo/Cu.pbe-n-van_ak.UPF
     MD5 check sum: 34e3282627ffb533726feb647e090d62
     Pseudo is Ultrasoft + core correction, Zval = 11.0
     Generated by new atomic code, or converted to UPF format
     Using radial grid of  867 points,  6 beta functions with: 
                l(1) =   0
                l(2) =   0
                l(3) =   1
                l(4) =   1
                l(5) =   2
                l(6) =   2
     Q(r) pseudized with  8 coefficients,  rinner =    1.400   1.400   1.400
                                                       1.400   1.400

     PseudoPot. # 4 for O  read from file:
     ./pseudo/O.pbe-van_ak.UPF
     MD5 check sum: 783ce7fe4c79b6a4916957118fed0856
     Pseudo is Ultrasoft, Zval =  6.0
     Generated by new atomic code, or converted to UPF format
     Using radial grid of  737 points,  4 beta functions with: 
                l(1) =   0
                l(2) =   0
                l(3) =   1
                l(4) =   1
     Q(r) pseudized with  8 coefficients,  rinner =    0.800   0.800   0.800


     PseudoPot. # 5 for Y  read from file:
     ./pseudo/Y.pbe-nsp-van.UPF
     MD5 check sum: 4412fed3ab108fed87a1b7d6a69a4a38
     Pseudo is Ultrasoft + core correction, Zval = 11.0
     Generated by new atomic code, or converted to UPF format
     Using radial grid of  885 points,  6 beta functions with: 
                l(1) =   0
                l(2) =   0
                l(3) =   1
                l(4) =   1
                l(5) =   2
                l(6) =   2
     Q(r) pseudized with  6 coefficients,  rinner =    1.200   1.200   1.200
                                                       1.200   1.200

     atomic species   valence    mass     pseudopotential
        Ba            10.00   137.32700     Ba( 1.00)
        Ca            10.00    40.07800     Ca( 1.00)
        Cu            11.00    63.54600     Cu( 1.00)
        O              6.00    15.99900     O ( 1.00)
        Y             11.00    88.90584     Y ( 1.00)

      4 Sym. Ops. (no inversion) found ( 3 have fractional translation)



   Cartesian axes

     site n.     atom                  positions (alat units)
         1           O   tau(   1) = (   0.3545921   0.8718562  -0.0077406  )
         2           O   tau(   2) = (   0.0037072   0.8718562  -0.0077406  )
         3           Cu  tau(   3) = (  -0.0002581   0.0006065   0.0080789  )
         4           Cu  tau(   4) = (  -0.0002581   0.3481364   0.0080789  )
         5           Cu  tau(   5) = (   0.3585574   0.3481364   0.0080789  )
         6           Cu  tau(   6) = (  -0.3580421   0.6980913   0.0080789  )
         7           Cu  tau(   7) = (   0.3577988   0.6971373   0.0086255  )
         8           Cu  tau(   8) = (   0.0005005   1.0465760   0.0086255  )
         9           Cu  tau(   9) = (  -0.3588016   0.3490903   0.0086255  )
        10           Cu  tau(  10) = (   0.0005005   0.6971373   0.0086255  )
        11           O   tau(  11) = (  -0.0001733   0.5225410  -0.0089757  )
        12           O   tau(  12) = (   0.3584726   0.5225410  -0.0089757  )
        13           O   tau(  13) = (  -0.0001733   1.2211724  -0.0089757  )
        14           O   tau(  14) = (  -0.3581278   0.5236867  -0.0089757  )
        15           O   tau(  15) = (  -0.3544557   0.8718562  -0.0105593  )
        16           O   tau(  16) = (  -0.0038445   0.1743714  -0.0105593  )
        17           O   tau(  17) = (   0.3588818   0.3486599   0.1817056  )
        18           O   tau(  18) = (  -0.0005825   0.3486599   0.1817056  )
        19           O   tau(  19) = (  -0.0005825   0.0000830   0.1817056  )
        20           O   tau(  20) = (  -0.3577167   0.6975677   0.1817056  )
        21           O   tau(  21) = (   0.3584283   0.6967843   0.1825784  )
        22           O   tau(  22) = (  -0.3581712   0.3494443   0.1825784  )
        23           O   tau(  23) = (  -0.0001290   0.6967843   0.1825784  )
        24           O   tau(  24) = (  -0.0001290   1.0469291   0.1825784  )
        25           Ba  tau(  25) = (   0.1791506   0.8718562   0.1908537  )
        26           Ba  tau(  26) = (   0.5374498   0.5231143   0.1919901  )
        27           Ba  tau(  27) = (  -0.1791506   0.5231143   0.1919901  )
        28           Ba  tau(  28) = (  -0.1793773   0.8718562   0.1931958  )
        29           Ba  tau(  29) = (  -0.1789238   0.1743714   0.1931958  )
        30           Ba  tau(  30) = (   0.1791506   0.5222101   0.1929368  )
        31           Ba  tau(  31) = (  -0.5374498   0.5240176   0.1929368  )
        32           Ba  tau(  32) = (   0.1791506   0.1743714   0.1992469  )
        33           Cu  tau(  33) = (  -0.3583426   0.3488452   0.3777458  )
        34           Cu  tau(  34) = (   0.3582559   0.6973834   0.3777458  )
        35           Cu  tau(  35) = (   0.0000433   0.6973834   0.3777458  )
        36           Cu  tau(  36) = (   0.0000433   1.0463299   0.3777458  )
        37           Cu  tau(  37) = (  -0.3586541   0.6975060   0.3775126  )
        38           Cu  tau(  38) = (   0.3579444   0.3487217   0.3775126  )
        39           Cu  tau(  39) = (   0.0003549   0.0000212   0.3775126  )
        40           Cu  tau(  40) = (   0.0003549   0.3487217   0.3775126  )
        41           O   tau(  41) = (  -0.0047976   0.1743714   0.3996864  )
        42           O   tau(  42) = (  -0.3535026   0.8718562   0.3996864  )
        43           O   tau(  43) = (  -0.5374498   0.6924605   0.3956991  )
        44           O   tau(  44) = (   0.1791506   0.3537672   0.3956991  )
        45           O   tau(  45) = (   0.3586385   0.8718562   0.4046840  )
        46           O   tau(  46) = (  -0.0003392   0.8718562   0.4046840  )
        47           O   tau(  47) = (  -0.0004857   0.5230571   0.4066611  )
        48           O   tau(  48) = (   0.3587850   0.5230571   0.4066611  )
        49           O   tau(  49) = (  -0.3578135   0.5231714   0.4066611  )
        50           O   tau(  50) = (  -0.0004857   1.2206562   0.4066611  )
        51           O   tau(  51) = (   0.1791506   1.0461604   0.4028931  )
        52           O   tau(  52) = (   0.1791506   0.6975521   0.4028931  )
        53           O   tau(  53) = (  -0.1792261   0.6967170   0.4025963  )
        54           O   tau(  54) = (  -0.1790731   0.3495106   0.4025963  )
        55           O   tau(  55) = (  -0.1792261   1.0469964   0.4025963  )
        56           O   tau(  56) = (   0.5375263   0.6967170   0.4025963  )
        57           Ca  tau(  57) = (   0.1791506   0.1743714   0.5358617  )
        58           Y   tau(  58) = (  -0.1811525   0.8718562   0.5373908  )
        59           Y   tau(  59) = (  -0.1771467   0.1743714   0.5373908  )
        60           Y   tau(  60) = (   0.1791506   0.8718562   0.5379568  )
        61           Y   tau(  61) = (   0.5374498   0.5231143   0.5384490  )
        62           Y   tau(  62) = (  -0.1791506   0.5231143   0.5384490  )
        63           Y   tau(  63) = (   0.1791506   0.5216598   0.5383310  )
        64           Y   tau(  64) = (  -0.5374498   0.5245688   0.5383310  )
        65           O   tau(  65) = (  -0.1787754   0.3493171   0.6712314  )
        66           O   tau(  66) = (   0.5378231   0.6969115   0.6712314  )
        67           O   tau(  67) = (  -0.1795239   1.0468019   0.6712314  )
        68           O   tau(  68) = (  -0.1795239   0.6969115   0.6712314  )
        69           O   tau(  69) = (   0.1791506   0.6972691   0.6718637  )
        70           O   tau(  70) = (   0.1791506   1.0464433   0.6718637  )
        71           O   tau(  71) = (  -0.0003880   1.2203935   0.6667490  )
        72           O   tau(  72) = (  -0.0003880   0.5233198   0.6667490  )
        73           O   tau(  73) = (   0.3586882   0.5233198   0.6667490  )
        74           O   tau(  74) = (  -0.3579112   0.5229087   0.6667490  )
        75           O   tau(  75) = (   0.3585850   0.8718562   0.6641940  )
        76           O   tau(  76) = (  -0.0002857   0.8718562   0.6641940  )
        77           O   tau(  77) = (   0.1791506   0.3535118   0.6756778  )
        78           O   tau(  78) = (  -0.5374498   0.6927158   0.6756778  )
        79           O   tau(  79) = (  -0.0043044   0.1743714   0.6710848  )
        80           O   tau(  80) = (  -0.3539948   0.8718562   0.6710848  )
        81           Cu  tau(  81) = (  -0.3586514   0.6973604   0.6974442  )
        82           Cu  tau(  82) = (   0.3579472   0.3488682   0.6974442  )
        83           Cu  tau(  83) = (   0.0003521  -0.0001254   0.6974442  )
        84           Cu  tau(  84) = (   0.0003521   0.3488682   0.6974442  )
        85           Cu  tau(  85) = (   0.0000083   1.0459401   0.6989015  )
        86           Cu  tau(  86) = (  -0.3583076   0.3484544   0.6989015  )
        87           Cu  tau(  87) = (   0.3582910   0.6977733   0.6989015  )
        88           Cu  tau(  88) = (   0.0000083   0.6977733   0.6989015  )
        89           Ba  tau(  89) = (   0.1791506   0.1743714   0.8671591  )
        90           Ba  tau(  90) = (  -0.5374498   0.5239908   0.8827639  )
        91           Ba  tau(  91) = (   0.1791506   0.5222377   0.8827639  )
        92           Ba  tau(  92) = (  -0.1785616   0.1743714   0.8784262  )
        93           Ba  tau(  93) = (  -0.1797386   0.8718562   0.8784262  )
        94           Ba  tau(  94) = (  -0.1791506   0.5231143   0.8841483  )
        95           Ba  tau(  95) = (   0.5374498   0.5231143   0.8841483  )
        96           Ba  tau(  96) = (   0.1791506   0.8718562   0.8844635  )
        97           O   tau(  97) = (   0.3607888   0.6975991   0.9037874  )
        98           O   tau(  98) = (  -0.3558097   0.3486286   0.9037874  )
        99           O   tau(  99) = (  -0.0024896   0.6975991   0.9037874  )
       100           O   tau( 100) = (  -0.0024896   1.0461143   0.9037874  )
       101           O   tau( 101) = (   0.3544087   0.3463252   0.9043663  )
       102           O   tau( 102) = (   0.0038906   0.3463252   0.9043663  )
       103           O   tau( 103) = (   0.0038906   0.0024177   0.9043663  )
       104           O   tau( 104) = (  -0.3621908   0.6999025   0.9043663  )
       105           O   tau( 105) = (   0.3314246   0.8718562   1.0783672  )
       106           O   tau( 106) = (   0.0268747   0.8718562   1.0783672  )
       107           Cu  tau( 107) = (  -0.0027882   0.0031818   1.0782086  )
       108           Cu  tau( 108) = (  -0.0027882   0.3455601   1.0782086  )
       109           Cu  tau( 109) = (   0.3610875   0.3455601   1.0782086  )
       110           Cu  tau( 110) = (  -0.3555111   0.7006675   1.0782086  )
       111           Cu  tau( 111) = (   0.3579684   0.6983604   1.0781976  )
       112           Cu  tau( 112) = (   0.0003318   1.0453529   1.0781976  )
       113           Cu  tau( 113) = (  -0.3586320   0.3478672   1.0781976  )
       114           Cu  tau( 114) = (   0.0003318   0.6983604   1.0781976  )
       115           O   tau( 115) = (  -0.0055718   0.5218801   1.0778989  )
       116           O   tau( 116) = (   0.3638720   0.5218801   1.0778989  )
       117           O   tau( 117) = (  -0.0055718   1.2218333   1.0778989  )
       118           O   tau( 118) = (  -0.3527284   0.5243475   1.0778989  )
       119           O   tau( 119) = (  -0.3170374   0.8718562   1.0783192  )
       120           O   tau( 120) = (  -0.0412618   0.1743714   1.0783192  )
       121           O   tau( 121) = (   0.3544105   0.3465040   1.4363807  )
       122           O   tau( 122) = (   0.0038887   0.3465040   1.4363807  )
       123           O   tau( 123) = (   0.0038887   0.0022389   1.4363807  )
       124           O   tau( 124) = (  -0.3621880   0.6997236   1.4363807  )
       125           O   tau( 125) = (   0.3607981   0.6973991   1.4369420  )
       126           O   tau( 126) = (  -0.3558014   0.3488295   1.4369420  )
       127           O   tau( 127) = (  -0.0024988   0.6973991   1.4369420  )
       128           O   tau( 128) = (  -0.0024988   1.0463143   1.4369420  )
       129           Ba  tau( 129) = (   0.1791506   0.8718562   1.4562973  )
       130           Ba  tau( 130) = (   0.5374498   0.5231143   1.4566208  )
       131           Ba  tau( 131) = (  -0.1791506   0.5231143   1.4566208  )
       132           Ba  tau( 132) = (  -0.1796732   0.8718562   1.4623207  )
       133           Ba  tau( 133) = (  -0.1786270   0.1743714   1.4623207  )
       134           Ba  tau( 134) = (   0.1791506   0.5222571   1.4580486  )
       135           Ba  tau( 135) = (  -0.5374498   0.5239706   1.4580486  )
       136           Ba  tau( 136) = (   0.1791506   0.1743714   1.4735713  )
       137           Cu  tau( 137) = (  -0.3583094   0.3484682   1.6418676  )
       138           Cu  tau( 138) = (   0.3582901   0.6977604   1.6418676  )
       139           Cu  tau( 139) = (   0.0000101   0.6977604   1.6418676  )
       140           Cu  tau( 140) = (   0.0000101   1.0459530   1.6418676  )
       141           Cu  tau( 141) = (  -0.3586477   0.6973567   1.6432880  )
       142           Cu  tau( 142) = (   0.3579518   0.3488710   1.6432880  )
       143           Cu  tau( 143) = (   0.0003484  -0.0001281   1.6432880  )
       144           Cu  tau( 144) = (   0.0003484   0.3488710   1.6432880  )
       145           O   tau( 145) = (  -0.0043173   0.1743714   1.6695930  )
       146           O   tau( 146) = (  -0.3539819   0.8718562   1.6695930  )
       147           O   tau( 147) = (  -0.5374498   0.6927305   1.6650619  )
       148           O   tau( 148) = (   0.1791506   0.3534971   1.6650619  )
       149           O   tau( 149) = (   0.3585795   0.8718562   1.6765032  )
       150           O   tau( 150) = (  -0.0002802   0.8718562   1.6765032  )
       151           O   tau( 151) = (  -0.0003853   0.5233134   1.6740072  )
       152           O   tau( 152) = (   0.3586855   0.5233134   1.6740072  )
       153           O   tau( 153) = (  -0.3579140   0.5229152   1.6740072  )
       154           O   tau( 154) = (  -0.0003853   1.2204000   1.6740072  )
       155           O   tau( 155) = (   0.1791506   1.0464553   1.6688806  )
       156           O   tau( 156) = (   0.1791506   0.6972571   1.6688806  )
       157           O   tau( 157) = (  -0.1795146   0.6969069   1.6695092  )
       158           O   tau( 158) = (  -0.1787846   0.3493208   1.6695092  )
       159           O   tau( 159) = (  -0.1795146   1.0468065   1.6695092  )
       160           O   tau( 160) = (   0.5378139   0.6969069   1.6695092  )
       161           Ca  tau( 161) = (   0.1791506   0.1743714   1.8048715  )
       162           Y   tau( 162) = (  -0.1811544   0.8718562   1.8033405  )
       163           Y   tau( 163) = (  -0.1771449   0.1743714   1.8033405  )
       164           Y   tau( 164) = (   0.1791506   0.8718562   1.8027773  )
       165           Y   tau( 165) = (   0.5374498   0.5231143   1.8023082  )
       166           Y   tau( 166) = (  -0.1791506   0.5231143   1.8023082  )
       167           Y   tau( 167) = (   0.1791506   0.5216524   1.8024289  )
       168           Y   tau( 168) = (  -0.5374498   0.5245761   1.8024289  )
       169           O   tau( 169) = (  -0.1790685   0.3495088   1.9381433  )
       170           O   tau( 170) = (   0.5375300   0.6967198   1.9381433  )
       171           O   tau( 171) = (  -0.1792307   1.0469936   1.9381433  )
       172           O   tau( 172) = (  -0.1792307   0.6967198   1.9381433  )
       173           O   tau( 173) = (   0.1791506   0.6975604   1.9378465  )
       174           O   tau( 174) = (   0.1791506   1.0461521   1.9378465  )
       175           O   tau( 175) = (  -0.0004848   1.2206534   1.9340822  )
       176           O   tau( 176) = (  -0.0004848   0.5230599   1.9340822  )
       177           O   tau( 177) = (   0.3587841   0.5230599   1.9340822  )
       178           O   tau( 178) = (  -0.3578144   0.5231687   1.9340822  )
       179           O   tau( 179) = (   0.3586468   0.8718562   1.9360206  )
       180           O   tau( 180) = (  -0.0003466   0.8718562   1.9360206  )
       181           O   tau( 181) = (   0.1791506   0.3537690   1.9450433  )
       182           O   tau( 182) = (  -0.5374498   0.6924586   1.9450433  )
       183           O   tau( 183) = (  -0.0047874   0.1743714   1.9410080  )
       184           O   tau( 184) = (  -0.3535118   0.8718562   1.9410080  )
       185           Cu  tau( 185) = (  -0.3586560   0.6975087   1.9632141  )
       186           Cu  tau( 186) = (   0.3579435   0.3487198   1.9632141  )
       187           Cu  tau( 187) = (   0.0003567   0.0000230   1.9632141  )
       188           Cu  tau( 188) = (   0.0003567   0.3487198   1.9632141  )
       189           Cu  tau( 189) = (   0.0000415   1.0463263   1.9629819  )
       190           Cu  tau( 190) = (  -0.3583407   0.3488406   1.9629819  )
       191           Cu  tau( 191) = (   0.3582587   0.6973871   1.9629819  )
       192           Cu  tau( 192) = (   0.0000415   0.6973871   1.9629819  )
       193           Ba  tau( 193) = (   0.1791506   0.1743714   2.1414872  )
       194           Ba  tau( 194) = (  -0.5374498   0.5240166   2.1477964  )
       195           Ba  tau( 195) = (   0.1791506   0.5222119   2.1477964  )
       196           Ba  tau( 196) = (  -0.1789220   0.1743714   2.1475402  )
       197           Ba  tau( 197) = (  -0.1793773   0.8718562   2.1475402  )
       198           Ba  tau( 198) = (  -0.1791506   0.5231143   2.1487504  )
       199           Ba  tau( 199) = (   0.5374498   0.5231143   2.1487504  )
       200           Ba  tau( 200) = (   0.1791506   0.8718562   2.1498786  )
       201           O   tau( 201) = (   0.3584302   0.6967870   2.1581483  )
       202           O   tau( 202) = (  -0.3581684   0.3494406   2.1581483  )
       203           O   tau( 203) = (  -0.0001309   0.6967870   2.1581483  )
       204           O   tau( 204) = (  -0.0001309   1.0469263   2.1581483  )
       205           O   tau( 205) = (   0.3588800   0.3486562   2.1590211  )
       206           O   tau( 206) = (  -0.0005807   0.3486562   2.1590211  )
       207           O   tau( 207) = (  -0.0005807   0.0000866   2.1590211  )
       208           O   tau( 208) = (  -0.3577186   0.6975714   2.1590211  )
       209           O   tau( 209) = (   0.3545921   0.8718562   2.3484517  )
       210           O   tau( 210) = (   0.0037081   0.8718562   2.3484517  )
       211           Cu  tau( 211) = (  -0.0002516   0.0006074   2.3326478  )
       212           Cu  tau( 212) = (  -0.0002516   0.3481345   2.3326478  )
       213           Cu  tau( 213) = (   0.3585509   0.3481345   2.3326478  )
       214           Cu  tau( 214) = (  -0.3580476   0.6980931   2.3326478  )
       215           Cu  tau( 215) = (   0.3577960   0.6971373   2.3321012  )
       216           Cu  tau( 216) = (   0.0005033   1.0465760   2.3321012  )
       217           Cu  tau( 217) = (  -0.3588035   0.3490903   2.3321012  )
       218           Cu  tau( 218) = (   0.0005033   0.6971373   2.3321012  )
       219           O   tau( 219) = (  -0.0001724   0.5225410   2.3496905  )
       220           O   tau( 220) = (   0.3584716   0.5225410   2.3496905  )
       221           O   tau( 221) = (  -0.0001724   1.2211724   2.3496905  )
       222           O   tau( 222) = (  -0.3581288   0.5236867   2.3496905  )
       223           O   tau( 223) = (  -0.3544640   0.8718562   2.3512804  )
       224           O   tau( 224) = (  -0.0038353   0.1743714   2.3512804  )

     number of k points=     4  Gaussian smearing, width (Ry)=  0.0100
                       cart. coord. in units 2pi/alat
        k(    1) = (   0.0000000   0.0000000   0.0000000), wk =   0.2222222
        k(    2) = (   0.2325801   0.2389537   0.0000000), wk =   0.8888889
        k(    3) = (   0.0000000   0.4779073   0.0000000), wk =   0.4444444
        k(    4) = (  -0.4651601  -0.0000000   0.0000000), wk =   0.4444444

     Dense  grid: 11785545 G-vectors     FFT dimensions: ( 180, 180, 750)

     Smooth grid:  2268261 G-vectors     FFT dimensions: ( 108, 108, 432)

     Estimated max dynamical RAM per process >       2.46 GB

     Estimated total dynamical RAM >     196.93 GB

     Initial potential from superposition of free atoms

     starting charge 1828.78422, renormalised to 1830.00000

     negative rho (up, down):  6.302E-01 0.000E+00
     Starting wfcs are 1602 randomized atomic wfcs

     total cpu time spent up to now is       60.1 secs

     Self-consistent Calculation

     iteration #  1     ecut=    60.00 Ry     beta= 0.50
     Davidson diagonalization with overlap
     ethr =  1.00E-02,  avg # of iterations =  2.0

     negative rho (up, down):  5.992E-01 0.000E+00

     total cpu time spent up to now is      160.9 secs

     total energy              =  -14912.62527575 Ry
     Harris-Foulkes estimate   =  -14942.91383904 Ry
     estimated scf accuracy    <     109.24587647 Ry

     iteration #  2     ecut=    60.00 Ry     beta= 0.50
     Davidson diagonalization with overlap
     ethr =  5.97E-03,  avg # of iterations =  2.0

     negative rho (up, down):  5.993E-01 0.000E+00

     total cpu time spent up to now is      258.9 secs

     total energy              =  -14922.15268904 Ry
     Harris-Foulkes estimate   =  -14926.34307279 Ry
     estimated scf accuracy    <      21.55354128 Ry

     iteration #  3     ecut=    60.00 Ry     beta= 0.50
     Davidson diagonalization with overlap
     ethr =  1.18E-03,  avg # of iterations =  2.0

     negative rho (up, down):  6.021E-01 0.000E+00

     total cpu time spent up to now is      357.4 secs

     total energy              =  -14923.92937360 Ry
     Harris-Foulkes estimate   =  -14925.49302832 Ry
     estimated scf accuracy    <      36.46612298 Ry

     iteration #  4     ecut=    60.00 Ry     beta= 0.50
     Davidson diagonalization with overlap
     ethr =  1.18E-03,  avg # of iterations =  1.0

     negative rho (up, down):  6.051E-01 0.000E+00

     total cpu time spent up to now is      449.9 secs

     total energy              =  -14924.32715476 Ry
     Harris-Foulkes estimate   =  -14924.64806181 Ry
     estimated scf accuracy    <      11.23369030 Ry

     iteration #  5     ecut=    60.00 Ry     beta= 0.50
     Davidson diagonalization with overlap
     ethr =  6.14E-04,  avg # of iterations =  1.0

     negative rho (up, down):  6.154E-01 0.000E+00

     total cpu time spent up to now is      539.5 secs

     total energy              =  -14924.02628915 Ry
     Harris-Foulkes estimate   =  -14924.48595738 Ry
     estimated scf accuracy    <       4.21575168 Ry

     iteration #  6     ecut=    60.00 Ry     beta= 0.50
     Davidson diagonalization with overlap
     ethr =  2.30E-04,  avg # of iterations =  9.0

     negative rho (up, down):  6.201E-01 0.000E+00

     total cpu time spent up to now is      668.5 secs

     total energy              =  -14924.07359621 Ry
     Harris-Foulkes estimate   =  -14924.18026706 Ry
     estimated scf accuracy    <       3.26000200 Ry

     iteration #  7     ecut=    60.00 Ry     beta= 0.50
     Davidson diagonalization with overlap
     ethr =  1.78E-04,  avg # of iterations =  1.8

     negative rho (up, down):  6.270E-01 0.000E+00

     total cpu time spent up to now is      763.3 secs

     total energy              =  -14924.03099739 Ry
     Harris-Foulkes estimate   =  -14924.11711637 Ry
     estimated scf accuracy    <       1.63498057 Ry

     iteration #  8     ecut=    60.00 Ry     beta= 0.50
     Davidson diagonalization with overlap
     ethr =  8.93E-05,  avg # of iterations =  9.5

     negative rho (up, down):  6.301E-01 0.000E+00

     total cpu time spent up to now is      890.1 secs

     total energy              =  -14924.02774875 Ry
     Harris-Foulkes estimate   =  -14924.08109335 Ry
     estimated scf accuracy    <       2.21140419 Ry

     iteration #  9     ecut=    60.00 Ry     beta= 0.50
     Davidson diagonalization with overlap
     ethr =  8.93E-05,  avg # of iterations =  1.8

     negative rho (up, down):  6.314E-01 0.000E+00

     total cpu time spent up to now is      987.1 secs

     total energy              =  -14924.01961803 Ry
     Harris-Foulkes estimate   =  -14924.04937865 Ry
     estimated scf accuracy    <       1.39319000 Ry

     iteration # 10     ecut=    60.00 Ry     beta= 0.50
     Davidson diagonalization with overlap
     ethr =  7.61E-05,  avg # of iterations =  1.0

     negative rho (up, down):  6.311E-01 0.000E+00

     total cpu time spent up to now is     1079.0 secs

     total energy              =  -14923.99367456 Ry
     Harris-Foulkes estimate   =  -14924.02967349 Ry
     estimated scf accuracy    <       0.94703553 Ry

     iteration # 11     ecut=    60.00 Ry     beta= 0.50
     Davidson diagonalization with overlap
     c_bands:  1 eigenvalues not converged
     ethr =  5.18E-05,  avg # of iterations = 12.0

     negative rho (up, down):  6.298E-01 0.000E+00

     total cpu time spent up to now is     1221.6 secs

     total energy              =  -14923.97388521 Ry
     Harris-Foulkes estimate   =  -14924.00290910 Ry
     estimated scf accuracy    <       0.55077744 Ry

     iteration # 12     ecut=    60.00 Ry     beta= 0.50
     Davidson diagonalization with overlap
     ethr =  3.01E-05,  avg # of iterations =  7.2

     negative rho (up, down):  6.282E-01 0.000E+00

     total cpu time spent up to now is     1347.3 secs

     total energy              =  -14923.97351309 Ry
     Harris-Foulkes estimate   =  -14923.98159169 Ry
     estimated scf accuracy    <       0.33204552 Ry

     iteration # 13     ecut=    60.00 Ry     beta= 0.50
     Davidson diagonalization with overlap
     ethr =  1.81E-05,  avg # of iterations =  3.8

     negative rho (up, down):  6.263E-01 0.000E+00

     total cpu time spent up to now is     1452.7 secs

     total energy              =  -14923.96765004 Ry
     Harris-Foulkes estimate   =  -14923.97480851 Ry
     estimated scf accuracy    <       0.31197485 Ry

     iteration # 14     ecut=    60.00 Ry     beta= 0.50
     Davidson diagonalization with overlap
     ethr =  1.70E-05,  avg # of iterations =  5.5

     negative rho (up, down):  6.458E-01 0.000E+00

     total cpu time spent up to now is     1564.1 secs

     total energy              =  -14923.95885361 Ry
     Harris-Foulkes estimate   =  -14923.96939195 Ry
     estimated scf accuracy    <       0.39410163 Ry

     iteration # 15     ecut=    60.00 Ry     beta= 0.50
     Davidson diagonalization with overlap
     c_bands:  2 eigenvalues not converged
     ethr =  1.70E-05,  avg # of iterations = 14.8

     negative rho (up, down):  6.372E-01 0.000E+00

     total cpu time spent up to now is     1715.0 secs

     total energy              =  -14923.95226369 Ry
     Harris-Foulkes estimate   =  -14923.96043198 Ry
     estimated scf accuracy    <       0.27953859 Ry

     iteration # 16     ecut=    60.00 Ry     beta= 0.50
     Davidson diagonalization with overlap
     ethr =  1.53E-05,  avg # of iterations =  3.5

     negative rho (up, down):  6.904E-01 0.000E+00

     total cpu time spent up to now is     1818.8 secs

     total energy              =  -14923.94503467 Ry
     Harris-Foulkes estimate   =  -14923.95519440 Ry
     estimated scf accuracy    <       0.24297727 Ry

     iteration # 17     ecut=    60.00 Ry     beta= 0.50
     Davidson diagonalization with overlap
     ethr =  1.33E-05,  avg # of iterations = 10.2

     negative rho (up, down):  7.557E-01 0.000E+00

     total cpu time spent up to now is     1956.8 secs

     total energy              =  -14923.93918833 Ry
     Harris-Foulkes estimate   =  -14923.94779774 Ry
     estimated scf accuracy    <       0.21112427 Ry

     iteration # 18     ecut=    60.00 Ry     beta= 0.50
     Davidson diagonalization with overlap
     ethr =  1.15E-05,  avg # of iterations =  9.8

     negative rho (up, down):  7.449E-01 0.000E+00

     total cpu time spent up to now is     2094.1 secs

     total energy              =  -14923.93828995 Ry
     Harris-Foulkes estimate   =  -14923.94127238 Ry
     estimated scf accuracy    <       0.06899400 Ry

     iteration # 19     ecut=    60.00 Ry     beta= 0.50
     Davidson diagonalization with overlap
     ethr =  3.77E-06,  avg # of iterations = 12.8

     negative rho (up, down):  7.369E-01 0.000E+00

     total cpu time spent up to now is     2237.1 secs

     total energy              =  -14923.93464948 Ry
     Harris-Foulkes estimate   =  -14923.93885525 Ry
     estimated scf accuracy    <       0.04581987 Ry

     iteration # 20     ecut=    60.00 Ry     beta= 0.50
     Davidson diagonalization with overlap
     ethr =  2.50E-06,  avg # of iterations = 13.2

     negative rho (up, down):  7.184E-01 0.000E+00

     total cpu time spent up to now is     2395.1 secs

     total energy              =  -14923.93347728 Ry
     Harris-Foulkes estimate   =  -14923.93551472 Ry
     estimated scf accuracy    <       0.02499416 Ry

     iteration # 21     ecut=    60.00 Ry     beta= 0.50
     Davidson diagonalization with overlap
     ethr =  1.37E-06,  avg # of iterations = 10.2

     negative rho (up, down):  6.823E-01 0.000E+00

     total cpu time spent up to now is     2536.6 secs

     total energy              =  -14923.93301623 Ry
     Harris-Foulkes estimate   =  -14923.93404417 Ry
     estimated scf accuracy    <       0.01361943 Ry

     iteration # 22     ecut=    60.00 Ry     beta= 0.50
     Davidson diagonalization with overlap
     c_bands:  1 eigenvalues not converged
     ethr =  7.44E-07,  avg # of iterations =  9.5

     negative rho (up, down):  6.459E-01 0.000E+00

     total cpu time spent up to now is     2669.3 secs

     total energy              =  -14923.93269262 Ry
     Harris-Foulkes estimate   =  -14923.93320316 Ry
     estimated scf accuracy    <       0.00414589 Ry

     iteration # 23     ecut=    60.00 Ry     beta= 0.50
     Davidson diagonalization with overlap
     c_bands:  2 eigenvalues not converged
     c_bands:  1 eigenvalues not converged
     ethr =  2.27E-07,  avg # of iterations = 14.8

     negative rho (up, down):  6.390E-01 0.000E+00

     total cpu time spent up to now is     2831.6 secs

     total energy              =  -14923.93275166 Ry
     Harris-Foulkes estimate   =  -14923.93283946 Ry
     estimated scf accuracy    <       0.00208944 Ry

     iteration # 24     ecut=    60.00 Ry     beta= 0.50
     Davidson diagonalization with overlap
     c_bands:  1 eigenvalues not converged
     c_bands:  1 eigenvalues not converged
     ethr =  1.14E-07,  avg # of iterations = 13.5

     negative rho (up, down):  6.298E-01 0.000E+00

     total cpu time spent up to now is     2974.4 secs

     total energy              =  -14923.93303966 Ry
     Harris-Foulkes estimate   =  -14923.93286010 Ry
     estimated scf accuracy    <       0.00126491 Ry

     iteration # 25     ecut=    60.00 Ry     beta= 0.50
     Davidson diagonalization with overlap
     c_bands:  1 eigenvalues not converged
     c_bands:  2 eigenvalues not converged
     c_bands:  1 eigenvalues not converged
     ethr =  6.91E-08,  avg # of iterations = 18.5

     negative rho (up, down):  6.303E-01 0.000E+00

     total cpu time spent up to now is     3144.3 secs

     total energy              =  -14923.93319805 Ry
     Harris-Foulkes estimate   =  -14923.93309656 Ry
     estimated scf accuracy    <       0.00048266 Ry

     iteration # 26     ecut=    60.00 Ry     beta= 0.50
     Davidson diagonalization with overlap
     c_bands:  1 eigenvalues not converged
     c_bands:  2 eigenvalues not converged
     ethr =  2.64E-08,  avg # of iterations = 14.2

     negative rho (up, down):  6.316E-01 0.000E+00

     total cpu time spent up to now is     3293.2 secs

     total energy              =  -14923.93323617 Ry
     Harris-Foulkes estimate   =  -14923.93321917 Ry
     estimated scf accuracy    <       0.00018234 Ry

     iteration # 27     ecut=    60.00 Ry     beta= 0.50
     Davidson diagonalization with overlap
     ethr =  9.96E-09,  avg # of iterations = 10.8

     negative rho (up, down):  6.325E-01 0.000E+00

     total cpu time spent up to now is     3425.8 secs

     total energy              =  -14923.93324630 Ry
     Harris-Foulkes estimate   =  -14923.93324008 Ry
     estimated scf accuracy    <       0.00009394 Ry

     iteration # 28     ecut=    60.00 Ry     beta= 0.50
     Davidson diagonalization with overlap
     ethr =  5.13E-09,  avg # of iterations =  1.8

     negative rho (up, down):  6.333E-01 0.000E+00

     total cpu time spent up to now is     3522.8 secs

     total energy              =  -14923.93324849 Ry
     Harris-Foulkes estimate   =  -14923.93324927 Ry
     estimated scf accuracy    <       0.00003643 Ry

     iteration # 29     ecut=    60.00 Ry     beta= 0.50
     Davidson diagonalization with overlap
     ethr =  1.99E-09,  avg # of iterations =  2.0

     negative rho (up, down):  6.342E-01 0.000E+00

     total cpu time spent up to now is     3620.7 secs

     total energy              =  -14923.93325114 Ry
     Harris-Foulkes estimate   =  -14923.93325057 Ry
     estimated scf accuracy    <       0.00003446 Ry

     iteration # 30     ecut=    60.00 Ry     beta= 0.50
     Davidson diagonalization with overlap
     ethr =  1.88E-09,  avg # of iterations =  1.0

     negative rho (up, down):  6.342E-01 0.000E+00

     total cpu time spent up to now is     3716.2 secs

     total energy              =  -14923.93325201 Ry
     Harris-Foulkes estimate   =  -14923.93325190 Ry
     estimated scf accuracy    <       0.00001269 Ry

     iteration # 31     ecut=    60.00 Ry     beta= 0.50
     Davidson diagonalization with overlap
     ethr =  6.93E-10,  avg # of iterations =  1.0

     negative rho (up, down):  6.344E-01 0.000E+00

     total cpu time spent up to now is     3811.0 secs

     total energy              =  -14923.93325179 Ry
     Harris-Foulkes estimate   =  -14923.93325225 Ry
     estimated scf accuracy    <       0.00000357 Ry

     iteration # 32     ecut=    60.00 Ry     beta= 0.50
     Davidson diagonalization with overlap
     ethr =  1.95E-10,  avg # of iterations =  2.0

     negative rho (up, down):  6.348E-01 0.000E+00

     total cpu time spent up to now is     3910.6 secs

     total energy              =  -14923.93325101 Ry
     Harris-Foulkes estimate   =  -14923.93325192 Ry
     estimated scf accuracy    <       0.00000251 Ry

     iteration # 33     ecut=    60.00 Ry     beta= 0.50
     Davidson diagonalization with overlap
     ethr =  1.37E-10,  avg # of iterations =  1.0

     negative rho (up, down):  6.348E-01 0.000E+00

     total cpu time spent up to now is     4004.4 secs

     total energy              =  -14923.93325096 Ry
     Harris-Foulkes estimate   =  -14923.93325107 Ry
     estimated scf accuracy    <       0.00000094 Ry

     iteration # 34     ecut=    60.00 Ry     beta= 0.50
     Davidson diagonalization with overlap
     ethr =  5.11E-11,  avg # of iterations =  1.0

     negative rho (up, down):  6.350E-01 0.000E+00

     total cpu time spent up to now is     4099.1 secs

     total energy              =  -14923.93325071 Ry
     Harris-Foulkes estimate   =  -14923.93325099 Ry
     estimated scf accuracy    <       0.00000054 Ry

     iteration # 35     ecut=    60.00 Ry     beta= 0.50
     Davidson diagonalization with overlap
     ethr =  2.93E-11,  avg # of iterations =  1.0

     negative rho (up, down):  6.350E-01 0.000E+00

     total cpu time spent up to now is     4193.0 secs

     total energy              =  -14923.93325062 Ry
     Harris-Foulkes estimate   =  -14923.93325072 Ry
     estimated scf accuracy    <       0.00000027 Ry

     iteration # 36     ecut=    60.00 Ry     beta= 0.50
     Davidson diagonalization with overlap
     ethr =  1.45E-11,  avg # of iterations =  1.5

     negative rho (up, down):  6.351E-01 0.000E+00

     total cpu time spent up to now is     4289.0 secs

     total energy              =  -14923.93325059 Ry
     Harris-Foulkes estimate   =  -14923.93325062 Ry
     estimated scf accuracy    <       0.00000030 Ry

     iteration # 37     ecut=    60.00 Ry     beta= 0.50
     Davidson diagonalization with overlap
     ethr =  1.45E-11,  avg # of iterations =  1.0

     negative rho (up, down):  6.350E-01 0.000E+00

     total cpu time spent up to now is     4383.0 secs

     total energy              =  -14923.93325067 Ry
     Harris-Foulkes estimate   =  -14923.93325059 Ry
     estimated scf accuracy    <       0.00000021 Ry

     iteration # 38     ecut=    60.00 Ry     beta= 0.50
     Davidson diagonalization with overlap
     ethr =  1.15E-11,  avg # of iterations =  1.0

     negative rho (up, down):  6.350E-01 0.000E+00

     total cpu time spent up to now is     4476.7 secs

     total energy              =  -14923.93325061 Ry
     Harris-Foulkes estimate   =  -14923.93325067 Ry
     estimated scf accuracy    <       0.00000003 Ry

     iteration # 39     ecut=    60.00 Ry     beta= 0.50
     Davidson diagonalization with overlap
     ethr =  1.79E-12,  avg # of iterations =  3.0

     negative rho (up, down):  6.350E-01 0.000E+00

     total cpu time spent up to now is     4576.2 secs

     End of self-consistent calculation

          k = 0.0000 0.0000 0.0000 (283521 PWs)   bands (ev):

   -38.2309 -38.2043 -38.2017 -38.1962 -38.1954 -38.1823 -38.1773 -38.1573
   -38.1205 -38.1178 -38.1077 -38.1058 -38.0984 -38.0926 -35.7716 -35.6815
   -22.8313 -22.8181 -22.7223 -22.7208 -22.7205 -22.7070 -22.7059 -22.7015
   -22.6921 -22.6891 -22.6861 -22.6852 -22.6726 -22.6724 -22.6681 -22.6617
   -22.6550 -22.6411 -22.6234 -22.6186 -22.5877 -22.5822 -22.5691 -22.5628
   -22.5372 -22.5204 -22.4913 -22.4719 -22.4669 -22.4491 -22.3560 -22.1530
   -18.8138 -18.7764 -18.7305 -18.7303 -18.7252 -18.6994 -18.6948 -18.6509
   -18.6489 -18.6237 -18.5450 -18.5314 -18.5314 -18.5204 -18.5175 -18.5118
   -18.5101 -18.5016 -18.5002 -18.4953 -18.4833 -18.4594 -18.4533 -18.4461
   -18.4405 -18.4361 -18.4330 -18.4322 -18.4200 -18.4178 -18.4099 -18.4051
   -18.3314 -18.3262 -18.3026 -18.2530 -18.2414 -18.2244 -18.2070 -18.1987
   -18.1205 -18.1127 -17.0293 -17.0023 -16.9951 -16.9416 -16.9108 -16.9076
   -15.5529 -15.4945 -14.9749 -14.9366 -14.8998 -14.8692 -14.8581 -14.8503
   -14.8480 -14.8478 -14.8200 -14.8084 -14.8046 -14.8041 -14.7769 -14.7438
   -14.7224 -14.6824 -14.6735 -14.6729 -14.6690 -14.6664 -14.6424 -14.6407
   -14.6120 -14.6117 -14.6021 -14.6005 -14.5949 -14.5944 -14.5764 -14.5593
   -14.5525 -14.5495 -14.5290 -14.5136 -14.5008 -14.4439 -14.4432 -14.4295
   -14.4276 -14.4269 -14.4229 -14.4089 -14.4070 -14.3712 -14.3575 -14.3475
   -14.3453 -14.3431 -14.3428 -14.3318 -14.3295 -14.3273 -14.3256 -14.3133
   -14.3081 -14.2958 -14.2926 -14.2898 -14.2768 -14.2742 -14.2703 -14.2691
   -14.2615 -14.2563 -14.2272 -14.2073 -14.1907 -14.1856 -14.1809 -14.1400
   -14.1374 -14.1329 -14.1201 -14.1177 -14.1145 -14.1110 -14.1046 -14.0987
   -14.0576 -14.0542 -14.0500 -14.0460 -14.0447 -14.0400 -13.9778 -13.9630
   -13.8577 -13.8503 -13.8430 -13.8409 -13.8333 -13.8169 -13.8156 -13.8142
   -13.8130 -13.7999 -13.7980 -13.7980 -13.7975 -13.7954 -13.7576 -13.7452
   -13.7447 -13.7386 -13.7257 -13.7049 -13.6332 -13.6204 -13.6194 -13.6065
   -12.7965 -12.7738 -12.5825 -12.5821 -12.5777 -12.5745 -12.4247 -12.3139
    -8.7897  -8.7773  -8.6150  -8.5027  -8.4898  -8.3866  -8.3301  -8.2798
    -8.2760  -8.2672  -8.2639  -8.2633  -8.2555  -8.2523  -8.2513  -8.2398
    -8.1119  -8.1096  -8.0893  -8.0892  -8.0881  -8.0722  -8.0603  -8.0495
    -8.0350  -8.0335  -8.0321  -8.0281  -8.0262  -8.0256  -8.0186  -8.0138
    -8.0034  -7.9989  -7.9953  -7.9895  -7.9854  -7.9811  -7.9669  -7.9577
    -7.9530  -7.9390  -7.9343  -7.9256  -7.9242  -7.9170  -7.9056  -7.9053
    -7.8958  -7.8951  -7.8934  -7.8931  -7.8841  -7.8766  -7.8290  -7.8162
    -7.8036  -7.7919  -7.7881  -7.7825  -7.7756  -7.6777  -7.6742  -7.6742
    -7.6682  -7.6622  -7.6613  -7.6529  -7.6474  -7.6402  -7.6386  -7.6349
    -7.6298  -7.6262  -7.5929  -7.5740  -7.5652  -7.5391  -7.5376  -7.5264
    -7.5202  -7.5161  -7.5073  -7.4986  -7.4895  -7.4777  -7.4756  -7.4160
    -7.3748  -7.3387  -7.3277  -7.3118  -7.3102  -7.2809  -7.1359  -7.1326
    -4.3035  -4.2349  -3.7622  -3.6703  -3.2699  -3.2447  -3.1638  -3.1565
    -3.1557  -3.0990  -3.0934  -3.0917  -3.0917  -3.0885  -3.0523  -3.0283
    -3.0229  -2.9901  -2.9253  -2.9158  -2.9086  -2.8478  -2.8474  -2.8312
    -2.8113  -2.7980  -2.7870  -2.7813  -2.7802  -2.7447  -2.7043  -2.6957
    -2.6897  -2.6801  -2.5975  -2.5427  -2.5020  -2.5000  -2.4169  -2.3357
    -2.2736  -2.2686  -2.2555  -2.2499  -2.2484  -2.2464  -2.2421  -2.2349
    -2.2342  -2.2316  -2.2183  -2.2171  -2.1442  -2.1426  -2.1410  -2.1359
    -2.1343  -2.1263  -2.0746  -2.0727  -2.0680  -2.0644  -2.0639  -2.0598
    -2.0563  -2.0548  -2.0522  -2.0504  -2.0468  -2.0446  -2.0346  -2.0338
    -1.9956  -1.9727  -1.9659  -1.9616  -1.9523  -1.9506  -1.9470  -1.9417
    -1.9366  -1.9179  -1.9147  -1.8942  -1.8721  -1.8608  -1.8587  -1.8584
    -1.8534  -1.8484  -1.8467  -1.8458  -1.8416  -1.8391  -1.8389  -1.8236
    -1.7916  -1.7701  -1.7621  -1.7620  -1.7526  -1.7147  -1.7050  -1.6738
    -1.6697  -1.6659  -1.6626  -1.6455  -1.6439  -1.6415  -1.6224  -1.6033
    -1.6012  -1.5914  -1.5685  -1.5655  -1.5458  -1.5382  -1.5346  -1.5094
    -1.5037  -1.4912  -1.4829  -1.4815  -1.4767  -1.4731  -1.4578  -1.4528
    -1.4445  -1.4410  -1.4364  -1.4258  -1.4223  -1.4053  -1.3920  -1.3896
    -1.3453  -1.3276  -1.3196  -1.3139  -1.2963  -1.2681  -1.2674  -1.1969
    -1.1824  -1.1486  -1.1440  -1.1245  -1.1197  -1.0738  -1.0625  -1.0546
    -1.0536  -1.0107  -0.9878  -0.9828  -0.9706  -0.9562  -0.9560  -0.9524
    -0.9410  -0.9360  -0.9349  -0.9290  -0.9263  -0.9183  -0.9124  -0.9061
    -0.9040  -0.8913  -0.8714  -0.8606  -0.8549  -0.8527  -0.8338  -0.8240
    -0.8157  -0.8151  -0.7982  -0.7908  -0.7839  -0.7689  -0.7619  -0.7558
    -0.7537  -0.7470  -0.7272  -0.7208  -0.7197  -0.7115  -0.7071  -0.7017
    -0.6999  -0.6867  -0.6756  -0.6577  -0.6250  -0.6216  -0.6100  -0.6092
    -0.5913  -0.5732  -0.5535  -0.5352  -0.5322  -0.5131  -0.4943  -0.4904
    -0.4780  -0.4615  -0.4593  -0.4581  -0.4406  -0.4328  -0.4318  -0.4314
    -0.4241  -0.3671  -0.3552  -0.3432  -0.3382  -0.3219  -0.3175  -0.3120
    -0.3068  -0.2874  -0.2794  -0.2616  -0.2603  -0.2602  -0.2582  -0.2558
    -0.2463  -0.2417  -0.2378  -0.2313  -0.2253  -0.2198  -0.2157  -0.2087
    -0.2086  -0.2077  -0.1956  -0.1892  -0.1827  -0.1804  -0.1797  -0.1746
    -0.1696  -0.1562  -0.1560  -0.1521  -0.1514  -0.1340  -0.1333  -0.1287
    -0.1266  -0.1260  -0.1109  -0.1078  -0.1057  -0.0823  -0.0421  -0.0397
    -0.0372  -0.0307  -0.0273  -0.0264   0.0193   0.0277   0.0295   0.0400
     0.0525   0.0859   0.0916   0.1037   0.1052   0.1094   0.1141   0.1234
     0.1534   0.1561   0.1635   0.1766   0.1822   0.1963   0.1971   0.2546
     0.2557   0.2622   0.2675   0.2708   0.2770   0.2809   0.2879   0.2958
     0.3271   0.3477   0.3584   0.3667   0.3680   0.3780   0.3870   0.3946
     0.3998   0.4058   0.4104   0.4134   0.4139   0.4202   0.4237   0.4355
     0.4374   0.4376   0.4387   0.4434   0.4466   0.4487   0.4528   0.4563
     0.4641   0.4710   0.4821   0.4887   0.4937   0.4941   0.5014   0.5083
     0.5202   0.5299   0.5321   0.5385   0.5529   0.5569   0.5667   0.5695
     0.5715   0.5825   0.5890   0.6018   0.6038   0.6164   0.6276   0.6346
     0.6398   0.6435   0.6556   0.6566   0.6581   0.6591   0.6617   0.6701
     0.6729   0.6754   0.6763   0.6789   0.6850   0.7006   0.7066   0.7087
     0.7244   0.7288   0.7337   0.7356   0.7421   0.7436   0.7572   0.7675
     0.7799   0.7893   0.8039   0.8205   0.8262   0.8360   0.8363   0.8433
     0.8831   0.9909   1.0265   1.0296   1.0363   1.0423   1.0439   1.0745
     1.0828   1.1067   1.1086   1.1156   1.1355   1.1365   1.1424   1.1439
     1.1449   1.1510   1.1534   1.1609   1.1617   1.1618   1.1685   1.1691
     1.1850   1.1878   1.1894   1.1978   1.2084   1.2132   1.2180   1.2225
     1.2251   1.2310   1.2407   1.2458   1.2496   1.2504   1.2572   1.2641
     1.2656   1.2752   1.2771   1.2776   1.2788   1.2798   1.2799   1.2826
     1.2877   1.2886   1.2905   1.2933   1.2997   1.3005   1.3027   1.3130
     1.3153   1.3205   1.3239   1.3347   1.3411   1.3489   1.3499   1.3523
     1.3540   1.3549   1.3658   1.3664   1.3728   1.3740   1.3811   1.3840
     1.3841   1.3869   1.4005   1.4040   1.4047   1.4068   1.4116   1.4125
     1.4133   1.4179   1.4188   1.4189   1.4283   1.4300   1.4321   1.4363
     1.4391   1.4393   1.4519   1.4540   1.4583   1.4650   1.4701   1.4716
     1.4834   1.4918   1.4934   1.4976   1.5017   1.5129   1.5145   1.5239
     1.5583   1.5587   1.5676   1.5840   1.5946   1.6216   1.6932   1.6956
     1.6982   1.6995   1.7038   1.7125   1.7149   1.7154   1.7174   1.7219
     1.7241   1.7397   1.7514   1.7574   1.7716   1.7788   1.7808   1.7854
     1.7901   1.7916   1.7974   1.7986   1.8018   1.8107   1.8242   1.8290
     1.8302   1.8421   1.8443   1.8573   1.8606   1.8645   1.8683   1.8751
     1.8780   1.8859   1.8910   1.8970   1.8982   1.9091   1.9134   1.9155
     1.9228   1.9263   1.9298   1.9551   1.9553   1.9559   1.9592   1.9594
     1.9639   1.9720   1.9737   1.9802   1.9823   1.9823   1.9825   1.9851
     2.0337   2.0393   2.0444   2.0611   2.0630   2.0634   2.0726   2.0727
     2.0753   2.0763   2.0764   2.0851   2.0967   2.0984   2.1045   2.1429
     2.1601   2.1641   2.1873   2.2212   2.2310   2.2554   2.2946   2.4047
     2.4209   2.4330   2.4404   2.4535   2.4560   2.4758   2.4868   2.5306
     2.5391   2.5691   2.5707   2.5772   2.5879   2.5935   2.6068   2.6170
     2.6236   2.6238   2.6317   2.6667   2.6668   2.6748   2.6759   2.6773
     2.7209   2.7222   2.7249   2.7274   2.7470   2.7634   2.8640   2.8645
     2.8652   2.8738   2.9460   2.9545   2.9701   3.0407   3.0577   3.0585
     3.1206   3.1319   3.1436   3.1767   3.1867   3.1869   3.1923   3.1967
     3.1980   3.1988   3.2162   3.2357   3.2386   3.2644   3.2722   3.2804
     3.2866   3.3036   3.3151   3.3220   3.4090   3.4493   3.4540   3.4588
     3.4659   3.4996   3.5088   3.5097   4.6662   4.7120   4.7646   4.7849
     5.0284   5.2259   5.2580   5.7694   5.7826   5.8155   5.8624   5.9176
     6.2193   6.4240   6.4568   6.4573   6.4732   6.5915   6.5948   6.6188
     6.6218   6.6230   6.6242   6.6267   6.6384   6.6389   6.6410   6.6434
     6.7233   6.9061   7.0049   7.0060   7.0321   7.0704   7.0722   7.0737
     7.0949   7.1084   7.1391   7.1771   7.2652   7.2882   7.3557   7.3708
     7.3759   7.4734   7.4912   7.5084   7.5091   7.5345   7.5869   7.6127
     7.6244   7.6409   7.6648   7.7133   7.7278   7.8033   7.8695   7.8849
     7.8899   7.8968   7.9787   7.9829   8.0025   8.0175   8.0438   8.0676
     8.0751   8.0837   8.1302   8.1946   8.2059   8.2718   8.2734   8.2780
     8.2882   8.2888   8.2944   8.3046   8.3197   8.3544   8.4093   8.4908
     8.5190   8.5216   8.5487   8.5590   8.5610   8.5869   8.6015   8.6079
     8.6361   8.6484   8.6544   8.6846   8.6982   8.6982   8.7185   8.7222
     8.7278   8.7483   8.7618   8.7728   8.7796   8.8053   8.8091   8.8184
     8.8208   8.8242   8.8440   8.8602   8.8693   8.8875   8.8952   8.9443
     8.9542   8.9681   8.9820   9.0021   9.0115   9.0219   9.0237   9.0569
     9.0703   9.0829   9.0865   9.0874   9.0949   9.1029   9.1153   9.1306
     9.1346   9.1381   9.1384   9.1516   9.1525   9.1703   9.1921   9.1933
     9.1955   9.2193   9.2195   9.2291   9.2534   9.2832   9.3108   9.3143
     9.3169   9.3918

          k = 0.2326 0.2390 0.0000 (283505 PWs)   bands (ev):

   -38.2309 -38.2038 -38.2024 -38.1963 -38.1956 -38.1808 -38.1784 -38.1573
   -38.1199 -38.1185 -38.1075 -38.1066 -38.0965 -38.0938 -35.7716 -35.6815
   -22.8130 -22.7999 -22.7648 -22.7516 -22.7176 -22.7109 -22.7102 -22.7061
   -22.6966 -22.6932 -22.6811 -22.6724 -22.6680 -22.6615 -22.6592 -22.6497
   -22.6491 -22.6368 -22.6237 -22.6123 -22.5965 -22.5833 -22.5781 -22.5664
   -22.5337 -22.5221 -22.4856 -22.4708 -22.4683 -22.4471 -22.3582 -22.1531
   -18.7791 -18.7450 -18.7279 -18.7011 -18.6974 -18.6956 -18.6760 -18.6639
   -18.6464 -18.6438 -18.6272 -18.6209 -18.6098 -18.5921 -18.5605 -18.5331
   -18.5331 -18.5218 -18.5081 -18.5034 -18.4895 -18.4501 -18.4434 -18.4242
   -18.4237 -18.4118 -18.4112 -18.3800 -18.3629 -18.3335 -18.3276 -18.3250
   -18.3174 -18.2954 -18.2778 -18.2526 -18.2486 -18.2468 -18.2461 -18.2330
   -18.1668 -18.1603 -17.0295 -17.0041 -16.9966 -16.9418 -16.9127 -16.9091
   -15.4522 -15.3941 -15.1824 -15.1239 -14.9241 -14.8904 -14.8663 -14.8517
   -14.8428 -14.8297 -14.8136 -14.8048 -14.7980 -14.7758 -14.7362 -14.7299
   -14.7188 -14.6952 -14.6699 -14.6603 -14.6524 -14.6514 -14.6359 -14.6251
   -14.6221 -14.6021 -14.6011 -14.5895 -14.5710 -14.5530 -14.5507 -14.5440
   -14.5354 -14.5190 -14.5182 -14.5157 -14.4999 -14.4844 -14.4613 -14.4417
   -14.4324 -14.4273 -14.4218 -14.4115 -14.4034 -14.3858 -14.3775 -14.3746
   -14.3650 -14.3612 -14.3578 -14.3360 -14.3271 -14.3165 -14.3119 -14.2956
   -14.2888 -14.2745 -14.2622 -14.2577 -14.2506 -14.2463 -14.2438 -14.2362
   -14.2245 -14.2106 -14.1999 -14.1997 -14.1928 -14.1824 -14.1823 -14.1636
   -14.1547 -14.1518 -14.1353 -14.1268 -14.1240 -14.1090 -14.1019 -14.0987
   -14.0939 -14.0911 -14.0845 -14.0788 -14.0642 -14.0485 -14.0017 -13.9936
   -13.8631 -13.8553 -13.8475 -13.8400 -13.8387 -13.8306 -13.8232 -13.8229
   -13.8073 -13.8066 -13.7986 -13.7802 -13.7770 -13.7684 -13.7586 -13.7532
   -13.7498 -13.7493 -13.7308 -13.6952 -13.6389 -13.6221 -13.6123 -13.6095
   -12.7500 -12.7300 -12.6384 -12.6224 -12.5614 -12.5018 -12.4714 -12.3743
    -8.6824  -8.6700  -8.5115  -8.4863  -8.4737  -8.3830  -8.3702  -8.3171
    -8.3033  -8.2163  -8.1746  -8.1622  -8.1288  -8.1191  -8.1101  -8.1060
    -8.0868  -8.0724  -8.0693  -8.0594  -8.0568  -8.0557  -8.0429  -8.0364
    -8.0315  -8.0272  -8.0234  -8.0198  -8.0182  -8.0174  -8.0095  -8.0061
    -8.0038  -8.0038  -7.9902  -7.9889  -7.9872  -7.9767  -7.9750  -7.9711
    -7.9659  -7.9637  -7.9581  -7.9455  -7.9363  -7.9329  -7.9261  -7.9204
    -7.9083  -7.8877  -7.8868  -7.8815  -7.8769  -7.8684  -7.8561  -7.8558
    -7.8476  -7.8453  -7.7846  -7.7752  -7.7569  -7.7533  -7.7442  -7.7292
    -7.7167  -7.7103  -7.7060  -7.7041  -7.6690  -7.6684  -7.6555  -7.6310
    -7.6257  -7.6183  -7.6069  -7.5942  -7.5892  -7.5802  -7.5780  -7.5765
    -7.5704  -7.5652  -7.5616  -7.5316  -7.5308  -7.5016  -7.4510  -7.4435
    -7.4210  -7.4153  -7.3751  -7.3690  -7.3197  -7.2975  -7.1533  -7.1392
    -4.1426  -4.0745  -3.7075  -3.6400  -3.6166  -3.5242  -3.2522  -3.2364
    -3.2188  -3.2054  -3.1562  -3.1425  -3.0817  -3.0499  -3.0445  -3.0268
    -3.0061  -2.9499  -2.9233  -2.8825  -2.8347  -2.8128  -2.8001  -2.7968
    -2.7801  -2.7450  -2.7377  -2.7286  -2.7046  -2.6483  -2.5990  -2.5476
    -2.4909  -2.4857  -2.4756  -2.4701  -2.4685  -2.4527  -2.4476  -2.4384
    -2.4299  -2.4218  -2.3929  -2.3760  -2.3697  -2.3655  -2.3536  -2.3101
    -2.3079  -2.2454  -2.2276  -2.2046  -2.2029  -2.1967  -2.1759  -2.1612
    -2.1535  -2.1362  -2.1223  -2.1099  -2.1040  -2.0964  -2.0932  -2.0839
    -2.0779  -2.0693  -2.0692  -2.0561  -2.0448  -2.0374  -2.0354  -2.0293
    -2.0136  -1.9786  -1.9625  -1.9562  -1.9498  -1.9496  -1.9480  -1.9474
    -1.9441  -1.9409  -1.9379  -1.9286  -1.9248  -1.9220  -1.9054  -1.9025
    -1.8900  -1.8611  -1.8425  -1.8305  -1.8118  -1.7995  -1.7816  -1.7723
    -1.7580  -1.7475  -1.7290  -1.7231  -1.7142  -1.7129  -1.6980  -1.6947
    -1.6913  -1.6818  -1.6728  -1.6695  -1.6667  -1.6639  -1.6585  -1.6407
    -1.6343  -1.6148  -1.6096  -1.5958  -1.5878  -1.5424  -1.5311  -1.4645
    -1.4451  -1.4348  -1.4250  -1.4166  -1.4154  -1.4119  -1.3807  -1.3765
    -1.3729  -1.3614  -1.3556  -1.3447  -1.3369  -1.3226  -1.3170  -1.2909
    -1.2765  -1.2656  -1.2616  -1.2495  -1.2122  -1.2048  -1.1952  -1.1785
    -1.1628  -1.1361  -1.1308  -1.0927  -1.0888  -1.0581  -1.0470  -1.0045
    -1.0014  -0.9996  -0.9986  -0.9889  -0.9796  -0.9482  -0.9443  -0.9355
    -0.9226  -0.9080  -0.9042  -0.8956  -0.8871  -0.8850  -0.8695  -0.8684
    -0.8551  -0.8470  -0.8452  -0.8401  -0.8394  -0.8363  -0.8239  -0.8218
    -0.8141  -0.8117  -0.7910  -0.7833  -0.7782  -0.7670  -0.7631  -0.7549
    -0.7539  -0.7422  -0.7202  -0.7114  -0.7043  -0.6936  -0.6855  -0.6845
    -0.6795  -0.6759  -0.6597  -0.6547  -0.6473  -0.6367  -0.6242  -0.6208
    -0.6079  -0.5979  -0.5946  -0.5719  -0.5714  -0.5627  -0.5555  -0.5542
    -0.5309  -0.5200  -0.4966  -0.4938  -0.4719  -0.4638  -0.4628  -0.4478
    -0.4476  -0.4371  -0.4281  -0.4168  -0.4142  -0.4075  -0.3761  -0.3609
    -0.3459  -0.3314  -0.3296  -0.3156  -0.3022  -0.2907  -0.2741  -0.2686
    -0.2635  -0.2353  -0.2067  -0.2053  -0.1990  -0.1927  -0.1792  -0.1647
    -0.1516  -0.1442  -0.1433  -0.1335  -0.1182  -0.1120  -0.1048  -0.0970
    -0.0878  -0.0862  -0.0789  -0.0776  -0.0736  -0.0567  -0.0507  -0.0476
    -0.0434  -0.0344  -0.0330  -0.0322  -0.0194  -0.0169  -0.0133  -0.0086
    -0.0002   0.0024   0.0110   0.0246   0.0299   0.0380   0.0445   0.0517
     0.0548   0.0581   0.0675   0.0721   0.0760   0.0831   0.0965   0.1020
     0.1149   0.1353   0.1748   0.1780   0.1833   0.1895   0.2261   0.2321
     0.2668   0.2736   0.2756   0.2814   0.2903   0.2964   0.3047   0.3142
     0.3144   0.3174   0.3224   0.3276   0.3308   0.3369   0.3422   0.3466
     0.3536   0.3579   0.3691   0.3735   0.3791   0.3800   0.3861   0.3873
     0.3959   0.3974   0.4055   0.4165   0.4191   0.4254   0.4316   0.4425
     0.4449   0.4464   0.4524   0.4571   0.4598   0.4703   0.4802   0.4825
     0.4950   0.4978   0.5125   0.5221   0.5229   0.5374   0.5475   0.5512
     0.5521   0.5566   0.5610   0.5638   0.5648   0.5692   0.5770   0.5850
     0.5891   0.6040   0.6216   0.6285   0.6362   0.6382   0.6395   0.6506
     0.6697   0.6714   0.6757   0.6853   0.7107   0.7219   0.7262   0.7276
     0.7450   0.7545   0.7607   0.7665   0.7792   0.8071   0.8116   0.8465
     0.8559   0.8777   0.8954   0.9091   0.9203   0.9281   0.9348   0.9445
     0.9495   0.9523   0.9611   0.9646   0.9803   0.9883   0.9987   1.0067
     1.0173   1.0182   1.0262   1.0358   1.0397   1.0518   1.0768   1.0807
     1.0864   1.0939   1.1006   1.1066   1.1090   1.1198   1.1304   1.1382
     1.1433   1.1538   1.1561   1.1585   1.1660   1.1724   1.1780   1.1869
     1.1877   1.1955   1.1973   1.1981   1.2013   1.2052   1.2160   1.2253
     1.2379   1.2410   1.2495   1.2514   1.2533   1.2541   1.2728   1.2767
     1.2810   1.2820   1.2904   1.2915   1.3018   1.3076   1.3096   1.3125
     1.3188   1.3230   1.3258   1.3403   1.3417   1.3526   1.3588   1.3600
     1.3624   1.3636   1.3724   1.3736   1.3768   1.3838   1.3888   1.3956
     1.3980   1.4021   1.4144   1.4162   1.4190   1.4283   1.4300   1.4307
     1.4334   1.4395   1.4428   1.4464   1.4531   1.4768   1.4775   1.4926
     1.4971   1.5113   1.5183   1.5254   1.5292   1.5439   1.5481   1.5500
     1.5574   1.5611   1.5695   1.5770   1.5803   1.5863   1.5947   1.6034
     1.6104   1.6186   1.6241   1.6348   1.6504   1.6533   1.6556   1.6654
     1.6689   1.6740   1.6817   1.6863   1.6926   1.6975   1.7022   1.7032
     1.7045   1.7112   1.7120   1.7161   1.7277   1.7320   1.7372   1.7453
     1.7579   1.7605   1.7820   1.7832   1.7893   1.7905   1.7998   1.8025
     1.8034   1.8118   1.8151   1.8250   1.8323   1.8379   1.8396   1.8426
     1.8439   1.8476   1.8515   1.8586   1.8600   1.8741   1.8768   1.8778
     1.8823   1.8984   1.9085   1.9124   1.9228   1.9262   1.9282   1.9370
     1.9395   1.9465   1.9607   1.9888   1.9919   2.0016   2.0106   2.0154
     2.0337   2.0573   2.0605   2.0909   2.1066   2.1337   2.1401   2.1540
     2.2180   2.2267   2.2484   2.2576   2.2666   2.2742   2.2796   2.2978
     2.3025   2.3109   2.3175   2.3276   2.3330   2.3580   2.3657   2.3923
     2.3999   2.4111   2.4160   2.4321   2.4577   2.4806   2.4861   2.4884
     2.4958   2.5117   2.5173   2.5204   2.5864   2.6106   2.6170   2.6234
     2.6463   2.6613   2.6642   2.6711   2.6770   2.6786   2.6809   2.6903
     2.6915   2.7213   2.7264   2.7376   2.7715   2.7795   2.7846   2.7888
     2.8016   2.8109   2.8298   2.9072   2.9232   2.9397   2.9521   2.9624
     2.9701   2.9955   3.0304   3.0345   3.0363   3.0446   3.0519   3.0535
     3.0603   3.0675   3.0822   3.1027   3.1099   3.1277   3.1360   3.1465
     3.1743   3.1794   3.2300   3.2439   3.2861   3.3084   3.3277   3.3399
     3.9245   3.9603   4.0460   4.0836   4.4550   4.4975   4.5505   4.5760
     5.2531   5.4677   5.4855   5.7340   6.0029   6.0076   6.0172   6.0577
     6.0701   6.1047   6.1342   6.2995   6.4867   6.5001   6.5147   6.5215
     6.5404   6.5549   6.5715   6.5963   6.6509   6.6873   6.7719   6.8015
     6.8165   6.8428   6.8659   6.8780   6.9477   6.9625   7.0022   7.0261
     7.1336   7.1573   7.1830   7.2111   7.2616   7.3265   7.4046   7.4712
     7.5061   7.5150   7.5452   7.5673   7.5696   7.5766   7.5800   7.6106
     7.6488   7.6722   7.6755   7.6795   7.6972   7.7394   7.7534   7.8103
     7.8221   7.8366   7.8908   7.8976   7.9161   7.9286   7.9587   7.9934
     8.0090   8.0424   8.0513   8.0987   8.1528   8.1816   8.1912   8.1973
     8.2065   8.2362   8.2776   8.3289   8.3451   8.4239   8.4358   8.4447
     8.4605   8.4757   8.4952   8.5076   8.5573   8.5752   8.5951   8.6142
     8.6324   8.6454   8.6621   8.6648   8.6844   8.6998   8.7138   8.7323
     8.7388   8.7509   8.7606   8.7751   8.7938   8.8018   8.8211   8.8315
     8.8551   8.8682   8.8926   8.9027   8.9038   8.9134   8.9429   8.9514
     8.9797   8.9915   9.0039   9.0077   9.0242   9.0333   9.0558   9.0692
     9.0888   9.1108   9.1249   9.1345   9.1529   9.1710   9.1782   9.1983
     9.2071   9.2196   9.2403   9.2633   9.2708   9.2744   9.2860   9.2954
     9.3100   9.3178   9.3330   9.3592   9.3750   9.3837   9.3883   9.4142
     9.4254   9.4277

          k = 0.0000 0.4779 0.0000 (283453 PWs)   bands (ev):

   -38.2309 -38.2040 -38.2022 -38.1973 -38.1947 -38.1800 -38.1792 -38.1573
   -38.1201 -38.1183 -38.1088 -38.1054 -38.0961 -38.0943 -35.7716 -35.6815
   -22.7938 -22.7806 -22.7640 -22.7534 -22.7507 -22.7403 -22.7172 -22.7137
   -22.7041 -22.7028 -22.6675 -22.6598 -22.6569 -22.6563 -22.6543 -22.6400
   -22.6335 -22.6270 -22.6203 -22.6115 -22.6110 -22.5984 -22.5960 -22.5525
   -22.5359 -22.5193 -22.4810 -22.4743 -22.4658 -22.4469 -22.3589 -22.1531
   -18.7746 -18.7702 -18.7340 -18.7053 -18.6908 -18.6879 -18.6753 -18.6746
   -18.6526 -18.6302 -18.6214 -18.6015 -18.5906 -18.5847 -18.5452 -18.5306
   -18.5245 -18.5150 -18.5090 -18.5062 -18.4905 -18.4474 -18.4352 -18.4352
   -18.4290 -18.4272 -18.4081 -18.3909 -18.3750 -18.3583 -18.3490 -18.3307
   -18.3173 -18.3136 -18.2900 -18.2706 -18.2524 -18.2477 -18.2325 -18.2074
   -18.1620 -18.1210 -17.0295 -17.0043 -16.9955 -16.9418 -16.9128 -16.9080
   -15.3741 -15.3171 -15.1607 -15.1052 -15.1022 -15.0502 -14.9898 -14.9354
   -14.8916 -14.8509 -14.7812 -14.7515 -14.7403 -14.7355 -14.7173 -14.7050
   -14.7002 -14.6928 -14.6847 -14.6786 -14.6541 -14.6476 -14.6451 -14.6255
   -14.5837 -14.5609 -14.5535 -14.5518 -14.5220 -14.5090 -14.5007 -14.4951
   -14.4899 -14.4877 -14.4852 -14.4792 -14.4764 -14.4555 -14.4547 -14.4539
   -14.4423 -14.4332 -14.4294 -14.4224 -14.4084 -14.4081 -14.4003 -14.3932
   -14.3796 -14.3734 -14.3710 -14.3666 -14.3576 -14.3341 -14.3068 -14.2984
   -14.2920 -14.2759 -14.2684 -14.2585 -14.2466 -14.2387 -14.2386 -14.2296
   -14.2250 -14.2145 -14.2028 -14.2008 -14.1942 -14.1870 -14.1849 -14.1677
   -14.1660 -14.1489 -14.1396 -14.1266 -14.1263 -14.1236 -14.1152 -14.1070
   -14.0992 -14.0990 -14.0831 -14.0790 -14.0605 -14.0563 -14.0408 -14.0120
   -13.8668 -13.8574 -13.8509 -13.8502 -13.8410 -13.8349 -13.8246 -13.8191
   -13.8112 -13.8093 -13.7948 -13.7906 -13.7669 -13.7619 -13.7606 -13.7551
   -13.7484 -13.7426 -13.7370 -13.6875 -13.6494 -13.6267 -13.6157 -13.5951
   -12.7172 -12.6697 -12.6067 -12.6031 -12.5658 -12.5607 -12.5204 -12.4294
    -8.5242  -8.5117  -8.3823  -8.3724  -8.3700  -8.3601  -8.3600  -8.2993
    -8.2864  -8.2305  -8.2179  -8.1607  -8.1360  -8.0852  -8.0796  -8.0694
    -8.0665  -8.0595  -8.0560  -8.0514  -8.0447  -8.0436  -8.0386  -8.0373
    -8.0275  -8.0236  -8.0123  -8.0021  -7.9976  -7.9875  -7.9852  -7.9806
    -7.9742  -7.9731  -7.9722  -7.9692  -7.9686  -7.9664  -7.9614  -7.9598
    -7.9552  -7.9463  -7.9424  -7.9262  -7.9200  -7.8974  -7.8921  -7.8852
    -7.8851  -7.8833  -7.8804  -7.8743  -7.8687  -7.8679  -7.8673  -7.8671
    -7.8619  -7.8559  -7.8543  -7.8233  -7.8218  -7.8101  -7.8034  -7.8001
    -7.7762  -7.7566  -7.7438  -7.7354  -7.7323  -7.7166  -7.7007  -7.7001
    -7.6795  -7.6663  -7.6413  -7.6246  -7.6178  -7.6029  -7.5945  -7.5900
    -7.5824  -7.5753  -7.5699  -7.5629  -7.5593  -7.5261  -7.5225  -7.4828
    -7.4552  -7.4299  -7.4194  -7.3830  -7.3779  -7.3497  -7.1603  -7.1525
    -3.9761  -3.9078  -3.6886  -3.6293  -3.6284  -3.5693  -3.4693  -3.3765
    -3.3086  -3.2652  -3.2530  -3.2412  -3.1758  -3.1461  -3.0249  -3.0141
    -2.9838  -2.9286  -2.8522  -2.7799  -2.7794  -2.7637  -2.7632  -2.7575
    -2.6977  -2.6877  -2.6512  -2.6352  -2.6113  -2.5972  -2.5434  -2.5257
    -2.5085  -2.4938  -2.4507  -2.4455  -2.4416  -2.4407  -2.4322  -2.4266
    -2.4172  -2.4164  -2.3985  -2.3859  -2.3796  -2.3665  -2.3402  -2.3278
    -2.2901  -2.2878  -2.2844  -2.2726  -2.2678  -2.2526  -2.1910  -2.1816
    -2.1784  -2.1610  -2.1077  -2.0967  -2.0932  -2.0719  -2.0580  -2.0532
    -2.0473  -2.0365  -2.0155  -2.0143  -2.0105  -2.0053  -2.0010  -1.9970
    -1.9873  -1.9851  -1.9794  -1.9724  -1.9668  -1.9585  -1.9579  -1.9554
    -1.9508  -1.9503  -1.9465  -1.9401  -1.9391  -1.9355  -1.9216  -1.9164
    -1.9079  -1.9025  -1.8921  -1.8574  -1.8478  -1.8458  -1.8015  -1.7926
    -1.7918  -1.7835  -1.7814  -1.7685  -1.7333  -1.7290  -1.7290  -1.7270
    -1.7250  -1.7153  -1.7110  -1.7105  -1.7022  -1.6964  -1.6891  -1.6701
    -1.6672  -1.6642  -1.6628  -1.6625  -1.6547  -1.6503  -1.6333  -1.6273
    -1.6240  -1.5924  -1.5719  -1.5381  -1.4757  -1.4426  -1.3920  -1.3898
    -1.3848  -1.3770  -1.3726  -1.3661  -1.3619  -1.3515  -1.3484  -1.3026
    -1.2409  -1.1716  -1.1200  -1.0791  -1.0583  -1.0148  -1.0045  -1.0030
    -1.0007  -0.9975  -0.9859  -0.9822  -0.9783  -0.9676  -0.9478  -0.9474
    -0.9443  -0.9373  -0.9292  -0.9207  -0.9102  -0.8988  -0.8924  -0.8759
    -0.8640  -0.8498  -0.8466  -0.8463  -0.8438  -0.8357  -0.8276  -0.8212
    -0.8203  -0.8203  -0.8124  -0.8025  -0.7997  -0.7925  -0.7806  -0.7714
    -0.7690  -0.7629  -0.7606  -0.7517  -0.7510  -0.7503  -0.7395  -0.7349
    -0.7347  -0.7305  -0.7249  -0.7023  -0.6983  -0.6909  -0.6877  -0.6869
    -0.6834  -0.6741  -0.6739  -0.6716  -0.6573  -0.6402  -0.6344  -0.6141
    -0.6072  -0.5933  -0.5887  -0.5388  -0.5324  -0.5133  -0.5087  -0.4985
    -0.4951  -0.4914  -0.4842  -0.4819  -0.4797  -0.4753  -0.4729  -0.4622
    -0.4608  -0.4563  -0.4109  -0.4090  -0.3884  -0.3783  -0.3755  -0.3700
    -0.3553  -0.3550  -0.3538  -0.3456  -0.3375  -0.3261  -0.3222  -0.3166
    -0.2886  -0.2843  -0.2785  -0.2769  -0.2482  -0.2441  -0.2207  -0.2127
    -0.2061  -0.2030  -0.1960  -0.1817  -0.1768  -0.1608  -0.1412  -0.1334
    -0.1214  -0.1021  -0.1000  -0.0989  -0.0881  -0.0859  -0.0823  -0.0777
    -0.0769  -0.0709  -0.0688  -0.0540  -0.0473  -0.0337  -0.0305  -0.0233
    -0.0124  -0.0079   0.0245   0.0494   0.0519   0.0583   0.0616   0.0639
     0.0770   0.0788   0.0849   0.0886   0.1045   0.1217   0.1317   0.1346
     0.1465   0.1704   0.2055   0.2116   0.2134   0.2241   0.2331   0.2363
     0.2394   0.2413   0.2465   0.2485   0.2489   0.2561   0.2605   0.2699
     0.2750   0.2848   0.2900   0.2959   0.2964   0.3295   0.3381   0.3421
     0.3434   0.3640   0.3732   0.3877   0.3913   0.3937   0.4104   0.4110
     0.4128   0.4193   0.4254   0.4280   0.4565   0.4643   0.4649   0.4694
     0.4721   0.4789   0.4803   0.4953   0.4959   0.5001   0.5081   0.5138
     0.5192   0.5364   0.5414   0.5458   0.5473   0.5529   0.5529   0.5568
     0.5639   0.5664   0.5693   0.5700   0.5894   0.6058   0.6108   0.6159
     0.6166   0.6171   0.6192   0.6203   0.6337   0.6365   0.6398   0.6520
     0.6681   0.6699   0.6838   0.6946   0.7074   0.7353   0.7358   0.7390
     0.7537   0.7634   0.7747   0.7810   0.7996   0.8045   0.8055   0.8318
     0.8373   0.8432   0.8446   0.8470   0.8614   0.8761   0.8817   0.8871
     0.8925   0.9050   0.9079   0.9340   0.9488   0.9496   0.9634   0.9718
     1.0056   1.0123   1.0310   1.0465   1.0624   1.0732   1.1011   1.1015
     1.1027   1.1116   1.1154   1.1166   1.1211   1.1281   1.1362   1.1396
     1.1412   1.1440   1.1590   1.1631   1.1667   1.1681   1.1766   1.1790
     1.1855   1.1861   1.2043   1.2172   1.2185   1.2363   1.2430   1.2437
     1.2504   1.2550   1.2636   1.2652   1.2655   1.2680   1.2682   1.2721
     1.2819   1.2865   1.2975   1.3043   1.3049   1.3067   1.3144   1.3260
     1.3307   1.3326   1.3364   1.3394   1.3447   1.3572   1.3578   1.3706
     1.3797   1.3928   1.4022   1.4068   1.4100   1.4112   1.4178   1.4196
     1.4228   1.4260   1.4302   1.4329   1.4370   1.4587   1.4594   1.4730
     1.4768   1.4797   1.4851   1.4909   1.4915   1.4960   1.5050   1.5114
     1.5135   1.5185   1.5245   1.5390   1.5408   1.5416   1.5445   1.5560
     1.5633   1.5634   1.5687   1.5736   1.5738   1.5740   1.5849   1.5879
     1.5914   1.5951   1.6025   1.6107   1.6180   1.6239   1.6304   1.6399
     1.6481   1.6548   1.6557   1.6559   1.6651   1.6664   1.6809   1.6865
     1.6893   1.6949   1.6965   1.7017   1.7254   1.7296   1.7309   1.7354
     1.7416   1.7491   1.7565   1.7671   1.7716   1.7781   1.7893   1.7951
     1.8024   1.8171   1.8245   1.8335   1.8342   1.8510   1.8632   1.8664
     1.8748   1.8802   1.8822   1.8845   1.8870   1.8927   1.8936   1.9003
     1.9020   1.9104   1.9176   1.9195   1.9224   1.9240   1.9243   1.9293
     1.9328   1.9382   1.9481   1.9554   1.9571   1.9633   1.9636   2.0080
     2.0128   2.0418   2.0492   2.0559   2.0586   2.0785   2.0874   2.0898
     2.1292   2.1488   2.1998   2.2052   2.2313   2.2468   2.2502   2.2654
     2.2707   2.2708   2.2748   2.2764   2.2804   2.2828   2.3288   2.3512
     2.3571   2.3639   2.3890   2.3977   2.4086   2.4230   2.4395   2.4449
     2.4664   2.4754   2.4795   2.4865   2.4903   2.4941   2.5306   2.5760
     2.5839   2.5841   2.5897   2.5995   2.6001   2.6067   2.6124   2.6292
     2.6653   2.6812   2.6820   2.6988   2.7355   2.7582   2.7777   2.7782
     2.7866   2.8223   2.8728   2.8911   2.9109   2.9273   2.9287   2.9693
     2.9914   2.9954   3.0438   3.0451   3.0480   3.0502   3.0564   3.0584
     3.0870   3.1386   3.1496   3.1660   3.1719   3.1750   3.1925   3.2272
     3.2389   3.2739   3.3712   3.4119   3.5766   3.5909   3.6173   3.6314
     3.7544   3.7738   3.7946   3.8119   4.2724   4.3087   4.3567   4.3886
     5.5327   5.7023   5.7985   5.8482   5.8651   5.9707   5.9745   5.9850
     5.9888   6.1821   6.2001   6.2392   6.2703   6.3333   6.5924   6.6417
     6.6675   6.6853   6.6881   6.7388   6.7693   6.7732   6.7733   6.7849
     6.7950   6.7968   6.9257   6.9439   6.9543   6.9615   6.9786   7.0219
     7.0590   7.1140   7.1259   7.1378   7.1486   7.1831   7.2349   7.2523
     7.2948   7.3381   7.3601   7.4419   7.5374   7.5448   7.5905   7.6147
     7.6264   7.6348   7.6533   7.7234   7.7818   7.8004   7.8190   7.8759
     7.8913   7.8922   7.8971   7.8989   7.9111   7.9301   7.9564   7.9737
     7.9854   7.9948   8.0217   8.0599   8.0815   8.0939   8.1013   8.1297
     8.1370   8.1742   8.2064   8.2422   8.2691   8.3531   8.3675   8.4284
     8.4573   8.4876   8.4990   8.5097   8.5380   8.5587   8.5729   8.6067
     8.6215   8.6708   8.6773   8.6915   8.7064   8.7256   8.7346   8.7525
     8.7537   8.7676   8.7854   8.7989   8.8297   8.8468   8.8573   8.8677
     8.8697   8.8781   8.8979   8.8982   8.9170   8.9285   8.9493   8.9594
     8.9809   8.9906   9.0131   9.0511   9.0609   9.0920   9.1362   9.1479
     9.1492   9.1644   9.1715   9.1802   9.1967   9.2087   9.2276   9.2285
     9.2680   9.2752   9.2877   9.2965   9.3081   9.3147   9.3336   9.3638
     9.3796   9.4153   9.4174   9.4313   9.4363   9.4451   9.4605   9.4822
     9.4918   9.4932

          k =-0.4652-0.0000 0.0000 (283520 PWs)   bands (ev):

   -38.2309 -38.2046 -38.2013 -38.1972 -38.1950 -38.1804 -38.1788 -38.1573
   -38.1207 -38.1175 -38.1086 -38.1060 -38.0956 -38.0945 -35.7716 -35.6815
   -22.7999 -22.7867 -22.7539 -22.7426 -22.7405 -22.7344 -22.7295 -22.7215
   -22.7139 -22.7041 -22.6617 -22.6545 -22.6519 -22.6514 -22.6494 -22.6443
   -22.6380 -22.6363 -22.6315 -22.6219 -22.6049 -22.5917 -22.5854 -22.5534
   -22.5310 -22.5230 -22.4887 -22.4751 -22.4678 -22.4397 -22.3592 -22.1530
   -18.8102 -18.7380 -18.7322 -18.7266 -18.7080 -18.6805 -18.6557 -18.6501
   -18.6447 -18.6331 -18.6066 -18.6039 -18.5934 -18.5617 -18.5411 -18.5338
   -18.5249 -18.5207 -18.5149 -18.5099 -18.5053 -18.4544 -18.4495 -18.4330
   -18.4309 -18.4289 -18.4164 -18.4030 -18.3700 -18.3541 -18.3428 -18.3260
   -18.3223 -18.3221 -18.2856 -18.2654 -18.2521 -18.2433 -18.2413 -18.1990
   -18.1661 -18.1130 -17.0294 -17.0027 -16.9969 -16.9417 -16.9112 -16.9094
   -15.3668 -15.3085 -15.1792 -15.1211 -15.1081 -15.0557 -14.9735 -14.9238
   -14.8491 -14.8316 -14.7963 -14.7819 -14.7778 -14.7546 -14.7531 -14.7167
   -14.6904 -14.6835 -14.6597 -14.6473 -14.6309 -14.6205 -14.6160 -14.6090
   -14.5983 -14.5861 -14.5801 -14.5721 -14.5590 -14.5549 -14.5377 -14.5273
   -14.5071 -14.5044 -14.4780 -14.4774 -14.4420 -14.4418 -14.4298 -14.4215
   -14.4203 -14.4174 -14.4029 -14.4028 -14.3937 -14.3932 -14.3895 -14.3746
   -14.3711 -14.3670 -14.3463 -14.3457 -14.3360 -14.3305 -14.3010 -14.2888
   -14.2888 -14.2817 -14.2816 -14.2729 -14.2657 -14.2651 -14.2566 -14.2547
   -14.2325 -14.2283 -14.2142 -14.2059 -14.2028 -14.1955 -14.1882 -14.1798
   -14.1658 -14.1531 -14.1506 -14.1489 -14.1335 -14.1308 -14.1299 -14.1106
   -14.0939 -14.0823 -14.0800 -14.0746 -14.0666 -14.0235 -14.0058 -14.0021
   -13.8619 -13.8573 -13.8462 -13.8408 -13.8404 -13.8403 -13.8346 -13.8232
   -13.8229 -13.8132 -13.7904 -13.7869 -13.7735 -13.7696 -13.7627 -13.7546
   -13.7479 -13.7357 -13.7290 -13.6874 -13.6600 -13.6232 -13.6127 -13.5928
   -12.7012 -12.6875 -12.6146 -12.6140 -12.5524 -12.5518 -12.5143 -12.4372
    -8.5792  -8.5669  -8.4181  -8.2994  -8.2937  -8.2901  -8.2865  -8.2812
    -8.2773  -8.1781  -8.1704  -8.1390  -8.1268  -8.1188  -8.1132  -8.0882
    -8.0782  -8.0657  -8.0565  -8.0545  -8.0425  -8.0388  -8.0371  -8.0356
    -8.0313  -8.0298  -8.0260  -8.0180  -8.0139  -8.0013  -7.9975  -7.9874
    -7.9862  -7.9832  -7.9780  -7.9751  -7.9729  -7.9662  -7.9654  -7.9626
    -7.9624  -7.9621  -7.9611  -7.9580  -7.9533  -7.9516  -7.9481  -7.9479
    -7.9394  -7.9308  -7.9232  -7.9173  -7.8884  -7.8818  -7.8795  -7.8528
    -7.8502  -7.8254  -7.8055  -7.7925  -7.7860  -7.7856  -7.7761  -7.7690
    -7.7563  -7.7289  -7.7280  -7.7163  -7.6808  -7.6768  -7.6733  -7.6698
    -7.6642  -7.6569  -7.6467  -7.6226  -7.6136  -7.6098  -7.6042  -7.6012
    -7.5915  -7.5843  -7.5837  -7.5720  -7.5669  -7.5436  -7.5311  -7.4826
    -7.4336  -7.4307  -7.4014  -7.3962  -7.3649  -7.3442  -7.1643  -7.1608
    -4.0207  -3.9553  -3.6022  -3.5483  -3.5341  -3.5265  -3.4880  -3.4618
    -3.4349  -3.4097  -3.1864  -3.1598  -3.1327  -3.0933  -3.0667  -3.0344
    -2.9079  -2.8916  -2.8682  -2.8518  -2.8371  -2.8230  -2.8044  -2.7837
    -2.7720  -2.7647  -2.7424  -2.7292  -2.7179  -2.6349  -2.6138  -2.6118
    -2.5455  -2.5209  -2.4132  -2.4049  -2.3815  -2.3501  -2.3405  -2.3383
    -2.3294  -2.3284  -2.3268  -2.3238  -2.3118  -2.3042  -2.2497  -2.2473
    -2.2442  -2.2016  -2.1779  -2.1704  -2.1260  -2.1163  -2.1132  -2.1117
    -2.1071  -2.0954  -2.0778  -2.0644  -2.0625  -2.0557  -2.0549  -2.0505
    -2.0486  -2.0310  -2.0260  -2.0248  -2.0224  -2.0135  -2.0072  -1.9930
    -1.9911  -1.9817  -1.9690  -1.9536  -1.9481  -1.9451  -1.9432  -1.9403
    -1.9149  -1.9125  -1.9123  -1.9090  -1.8989  -1.8739  -1.8699  -1.8668
    -1.8650  -1.8626  -1.8611  -1.8550  -1.8505  -1.8439  -1.8425  -1.8422
    -1.8341  -1.8289  -1.8136  -1.8129  -1.7928  -1.7922  -1.7904  -1.7811
    -1.7665  -1.7651  -1.7604  -1.7452  -1.7385  -1.7385  -1.7324  -1.7232
    -1.7052  -1.7021  -1.7003  -1.7000  -1.6952  -1.6859  -1.6698  -1.6632
    -1.6572  -1.6569  -1.6520  -1.6459  -1.6264  -1.6233  -1.6016  -1.5922
    -1.5871  -1.5601  -1.5547  -1.4749  -1.3375  -1.3002  -1.2744  -1.2671
    -1.2408  -1.2082  -1.1678  -1.0675  -1.0630  -1.0445  -1.0423  -1.0134
    -0.9964  -0.9758  -0.9672  -0.9555  -0.9528  -0.9389  -0.9379  -0.9345
    -0.9280  -0.9154  -0.9133  -0.9113  -0.9001  -0.8945  -0.8902  -0.8805
    -0.8694  -0.8592  -0.8398  -0.8262  -0.8258  -0.8226  -0.8175  -0.8099
    -0.8023  -0.7975  -0.7848  -0.7657  -0.7629  -0.7565  -0.7496  -0.7476
    -0.7432  -0.7384  -0.7353  -0.7319  -0.7252  -0.7209  -0.7151  -0.7128
    -0.7055  -0.6995  -0.6942  -0.6928  -0.6789  -0.6630  -0.6608  -0.6520
    -0.6424  -0.6349  -0.6185  -0.6150  -0.5972  -0.5878  -0.5819  -0.5814
    -0.5747  -0.5639  -0.5590  -0.5569  -0.5456  -0.5405  -0.5405  -0.5264
    -0.5132  -0.4944  -0.4712  -0.4466  -0.4426  -0.4232  -0.4162  -0.4137
    -0.4128  -0.4051  -0.4022  -0.4014  -0.3897  -0.3736  -0.3419  -0.3387
    -0.3343  -0.3330  -0.3245  -0.3221  -0.3116  -0.3065  -0.3048  -0.3040
    -0.3027  -0.2933  -0.2917  -0.2871  -0.2836  -0.2735  -0.2698  -0.2612
    -0.2290  -0.2091  -0.2005  -0.1932  -0.1852  -0.1820  -0.1682  -0.1517
    -0.1494  -0.1472  -0.1420  -0.1419  -0.1388  -0.1383  -0.1142  -0.1129
    -0.1026  -0.0999  -0.0983  -0.0849  -0.0767  -0.0717  -0.0709  -0.0616
    -0.0586  -0.0480  -0.0225   0.0070   0.0435   0.0555   0.0619   0.0689
     0.0764   0.0937   0.1036   0.1040   0.1063   0.1202   0.1234   0.1564
     0.1598   0.1985   0.2077   0.2116   0.2121   0.2128   0.2212   0.2336
     0.2337   0.2497   0.2722   0.2776   0.2791   0.2893   0.2919   0.3032
     0.3035   0.3062   0.3156   0.3225   0.3257   0.3346   0.3483   0.3497
     0.3731   0.3737   0.3870   0.3947   0.4011   0.4037   0.4135   0.4162
     0.4167   0.4169   0.4184   0.4268   0.4437   0.4553   0.4557   0.4584
     0.4634   0.4653   0.4716   0.4767   0.4877   0.4979   0.5025   0.5063
     0.5144   0.5160   0.5257   0.5309   0.5416   0.5423   0.5440   0.5545
     0.5583   0.5680   0.5715   0.5757   0.5917   0.5923   0.6001   0.6010
     0.6019   0.6084   0.6218   0.6357   0.6370   0.6405   0.6407   0.6441
     0.6566   0.6864   0.6889   0.6959   0.7035   0.7073   0.7433   0.7452
     0.7707   0.7815   0.8048   0.8063   0.8101   0.8178   0.8196   0.8274
     0.8320   0.8427   0.8433   0.8480   0.8548   0.8626   0.8746   0.8865
     0.8913   0.8968   0.8969   0.9223   0.9225   0.9441   0.9661   0.9683
     1.0089   1.0287   1.0366   1.0551   1.0629   1.0674   1.0720   1.0822
     1.0851   1.0945   1.0953   1.1130   1.1169   1.1173   1.1437   1.1486
     1.1555   1.1641   1.1667   1.1696   1.1766   1.1936   1.1962   1.2028
     1.2081   1.2124   1.2130   1.2290   1.2314   1.2317   1.2423   1.2425
     1.2444   1.2548   1.2575   1.2602   1.2741   1.2785   1.2831   1.2884
[...]
     atom   59 type  5   force =    -0.00052660    0.00000000   -0.00526398
     atom   60 type  5   force =     0.00000000    0.00000000   -0.00455353
     atom   61 type  5   force =     0.00000000    0.00000000   -0.00505543
     atom   62 type  5   force =     0.00000000    0.00000000   -0.00505543
     atom   63 type  5   force =     0.00000000    0.00036123   -0.00529099
     atom   64 type  5   force =     0.00000000   -0.00036123   -0.00529099
     atom   65 type  4   force =    -0.00049301   -0.00019141    0.00365114
     atom   66 type  4   force =    -0.00049301    0.00019141    0.00365114
     atom   67 type  4   force =     0.00049301   -0.00019141    0.00365114
     atom   68 type  4   force =     0.00049301    0.00019141    0.00365114
     atom   69 type  4   force =     0.00000000   -0.00007056    0.00324255
     atom   70 type  4   force =     0.00000000    0.00007056    0.00324255
     atom   71 type  4   force =     0.00003192   -0.00019244    0.00552119
     atom   72 type  4   force =     0.00003192    0.00019244    0.00552119
     atom   73 type  4   force =    -0.00003192    0.00019244    0.00552119
     atom   74 type  4   force =    -0.00003192   -0.00019244    0.00552119
     atom   75 type  4   force =     0.00036613    0.00000000    0.00611379
     atom   76 type  4   force =    -0.00036613    0.00000000    0.00611379
     atom   77 type  4   force =     0.00000000   -0.00109434    0.00478853
     atom   78 type  4   force =     0.00000000    0.00109434    0.00478853
     atom   79 type  4   force =     0.00102379    0.00000000    0.00557004
     atom   80 type  4   force =    -0.00102379    0.00000000    0.00557004
     atom   81 type  3   force =    -0.00021179    0.00009939   -0.00158765
     atom   82 type  3   force =    -0.00021179   -0.00009939   -0.00158765
     atom   83 type  3   force =     0.00021179    0.00009939   -0.00158765
     atom   84 type  3   force =     0.00021179   -0.00009939   -0.00158765
     atom   85 type  3   force =    -0.00013965    0.00007947   -0.00246586
     atom   86 type  3   force =     0.00013965    0.00007947   -0.00246586
     atom   87 type  3   force =     0.00013965   -0.00007947   -0.00246586
     atom   88 type  3   force =    -0.00013965   -0.00007947   -0.00246586
     atom   89 type  1   force =     0.00000000    0.00000000    0.00722737
     atom   90 type  1   force =     0.00000000   -0.00052719    0.01425117
     atom   91 type  1   force =     0.00000000    0.00052719    0.01425117
     atom   92 type  1   force =     0.00085382    0.00000000    0.01278339
     atom   93 type  1   force =    -0.00085382    0.00000000    0.01278339
     atom   94 type  1   force =     0.00000000    0.00000000    0.01577657
     atom   95 type  1   force =     0.00000000    0.00000000    0.01577657
     atom   96 type  1   force =     0.00000000    0.00000000    0.01604629
     atom   97 type  4   force =     0.00072099    0.00021157   -0.01703196
     atom   98 type  4   force =     0.00072099   -0.00021157   -0.01703196
     atom   99 type  4   force =    -0.00072099    0.00021157   -0.01703196
     atom  100 type  4   force =    -0.00072099   -0.00021157   -0.01703196
     atom  101 type  4   force =    -0.00248022   -0.00040199   -0.01742595
     atom  102 type  4   force =     0.00248022   -0.00040199   -0.01742595
     atom  103 type  4   force =     0.00248022    0.00040199   -0.01742595
     atom  104 type  4   force =    -0.00248022    0.00040199   -0.01742595
     atom  105 type  4   force =     0.00831442    0.00000000    0.02515993
     atom  106 type  4   force =    -0.00831442    0.00000000    0.02515993
     atom  107 type  3   force =    -0.01173578   -0.00351239   -0.01752054
     atom  108 type  3   force =    -0.01173578    0.00351239   -0.01752054
     atom  109 type  3   force =     0.01173578    0.00351239   -0.01752054
     atom  110 type  3   force =     0.01173578   -0.00351239   -0.01752054
     atom  111 type  3   force =    -0.00499768   -0.00039622   -0.01907880
     atom  112 type  3   force =     0.00499768    0.00039622   -0.01907880
     atom  113 type  3   force =    -0.00499768    0.00039622   -0.01907880
     atom  114 type  3   force =     0.00499768   -0.00039622   -0.01907880
     atom  115 type  4   force =     0.00183125   -0.00032268    0.02179667
     atom  116 type  4   force =    -0.00183125   -0.00032268    0.02179667
     atom  117 type  4   force =     0.00183125    0.00032268    0.02179667
     atom  118 type  4   force =    -0.00183125    0.00032268    0.02179667
     atom  119 type  4   force =    -0.01593072    0.00000000    0.02727201
     atom  120 type  4   force =     0.01593072    0.00000000    0.02727201
     atom  121 type  4   force =     0.00670443    0.00711301    0.02233249
     atom  122 type  4   force =    -0.00670443    0.00711301    0.02233249
     atom  123 type  4   force =    -0.00670443   -0.00711301    0.02233249
     atom  124 type  4   force =     0.00670443   -0.00711301    0.02233249
     atom  125 type  4   force =    -0.00192404    0.00066670    0.02106050
     atom  126 type  4   force =    -0.00192404   -0.00066670    0.02106050
     atom  127 type  4   force =     0.00192404    0.00066670    0.02106050
     atom  128 type  4   force =     0.00192404   -0.00066670    0.02106050
     atom  129 type  1   force =     0.00000000    0.00000000   -0.01140623
     atom  130 type  1   force =     0.00000000    0.00000000   -0.00964501
     atom  131 type  1   force =     0.00000000    0.00000000   -0.00964501
     atom  132 type  1   force =    -0.00479027    0.00000000   -0.01522038
     atom  133 type  1   force =     0.00479027    0.00000000   -0.01522038
     atom  134 type  1   force =     0.00000000   -0.00478425   -0.01003743
     atom  135 type  1   force =     0.00000000    0.00478425   -0.01003743
     atom  136 type  1   force =     0.00000000    0.00000000   -0.02111657
     atom  137 type  3   force =     0.00028427    0.00103346   -0.02111277
     atom  138 type  3   force =     0.00028427   -0.00103346   -0.02111277
     atom  139 type  3   force =    -0.00028427   -0.00103346   -0.02111277
     atom  140 type  3   force =    -0.00028427    0.00103346   -0.02111277
     atom  141 type  3   force =    -0.00163902    0.00085962   -0.02166737
     atom  142 type  3   force =    -0.00163902   -0.00085962   -0.02166737
     atom  143 type  3   force =     0.00163902    0.00085962   -0.02166737
     atom  144 type  3   force =     0.00163902   -0.00085962   -0.02166737
     atom  145 type  4   force =    -0.00244637    0.00000000    0.00340987
     atom  146 type  4   force =     0.00244637    0.00000000    0.00340987
     atom  147 type  4   force =     0.00000000   -0.00199399    0.00565989
     atom  148 type  4   force =     0.00000000    0.00199399    0.00565989
     atom  149 type  4   force =    -0.00038145    0.00000000    0.00023410
     atom  150 type  4   force =     0.00038145    0.00000000    0.00023410
     atom  151 type  4   force =    -0.00072201   -0.00006904    0.00225765
     atom  152 type  4   force =     0.00072201   -0.00006904    0.00225765
     atom  153 type  4   force =     0.00072201    0.00006904    0.00225765
     atom  154 type  4   force =    -0.00072201    0.00006904    0.00225765
     atom  155 type  4   force =     0.00000000   -0.00202696    0.00362857
     atom  156 type  4   force =     0.00000000    0.00202696    0.00362857
     atom  157 type  4   force =    -0.00013459    0.00031151    0.00418053
     atom  158 type  4   force =     0.00013459   -0.00031151    0.00418053
     atom  159 type  4   force =    -0.00013459   -0.00031151    0.00418053
     atom  160 type  4   force =     0.00013459    0.00031151    0.00418053
     atom  161 type  2   force =     0.00000000    0.00000000   -0.00130259
     atom  162 type  5   force =    -0.00015461    0.00000000    0.00001252
     atom  163 type  5   force =     0.00015461    0.00000000    0.00001252
     atom  164 type  5   force =     0.00000000    0.00000000    0.00073741
     atom  165 type  5   force =     0.00000000    0.00000000   -0.00025457
     atom  166 type  5   force =     0.00000000    0.00000000   -0.00025457
     atom  167 type  5   force =     0.00000000   -0.00054798   -0.00065427
     atom  168 type  5   force =     0.00000000    0.00054798   -0.00065427
     atom  169 type  4   force =    -0.00026867   -0.00002279    0.00033735
     atom  170 type  4   force =    -0.00026867    0.00002279    0.00033735
     atom  171 type  4   force =     0.00026867   -0.00002279    0.00033735
     atom  172 type  4   force =     0.00026867    0.00002279    0.00033735
     atom  173 type  4   force =     0.00000000    0.00018480    0.00045087
     atom  174 type  4   force =     0.00000000   -0.00018480    0.00045087
     atom  175 type  4   force =    -0.00002741   -0.00003253   -0.00030086
     atom  176 type  4   force =    -0.00002741    0.00003253   -0.00030086
     atom  177 type  4   force =     0.00002741    0.00003253   -0.00030086
     atom  178 type  4   force =     0.00002741   -0.00003253   -0.00030086
     atom  179 type  4   force =    -0.00005868    0.00000000   -0.00069616
     atom  180 type  4   force =     0.00005868    0.00000000   -0.00069616
     atom  181 type  4   force =     0.00000000   -0.00013545    0.00022044
     atom  182 type  4   force =     0.00000000    0.00013545    0.00022044
     atom  183 type  4   force =    -0.00009831    0.00000000   -0.00031258
     atom  184 type  4   force =     0.00009831    0.00000000   -0.00031258
     atom  185 type  3   force =     0.00005439   -0.00005583    0.00031814
     atom  186 type  3   force =     0.00005439    0.00005583    0.00031814
     atom  187 type  3   force =    -0.00005439   -0.00005583    0.00031814
     atom  188 type  3   force =    -0.00005439    0.00005583    0.00031814
     atom  189 type  3   force =     0.00001726    0.00007217    0.00034608
     atom  190 type  3   force =    -0.00001726    0.00007217    0.00034608
     atom  191 type  3   force =    -0.00001726   -0.00007217    0.00034608
     atom  192 type  3   force =     0.00001726   -0.00007217    0.00034608
     atom  193 type  1   force =     0.00000000    0.00000000    0.00021028
     atom  194 type  1   force =     0.00000000   -0.00004582    0.00037815
     atom  195 type  1   force =     0.00000000    0.00004582    0.00037815
     atom  196 type  1   force =     0.00025122    0.00000000    0.00014155
     atom  197 type  1   force =    -0.00025122    0.00000000    0.00014155
     atom  198 type  1   force =     0.00000000    0.00000000    0.00024558
     atom  199 type  1   force =     0.00000000    0.00000000    0.00024558
     atom  200 type  1   force =     0.00000000    0.00000000    0.00020537
     atom  201 type  4   force =     0.00005772    0.00007305   -0.00228313
     atom  202 type  4   force =     0.00005772   -0.00007305   -0.00228313
     atom  203 type  4   force =    -0.00005772    0.00007305   -0.00228313
     atom  204 type  4   force =    -0.00005772   -0.00007305   -0.00228313
     atom  205 type  4   force =     0.00002741    0.00005074   -0.00200307
     atom  206 type  4   force =    -0.00002741    0.00005074   -0.00200307
     atom  207 type  4   force =    -0.00002741   -0.00005074   -0.00200307
     atom  208 type  4   force =     0.00002741   -0.00005074   -0.00200307
     atom  209 type  4   force =     0.00007244    0.00000000   -0.00015420
     atom  210 type  4   force =    -0.00007244    0.00000000   -0.00015420
     atom  211 type  3   force =     0.00008978   -0.00004974    0.00068064
     atom  212 type  3   force =     0.00008978    0.00004974    0.00068064
     atom  213 type  3   force =    -0.00008978    0.00004974    0.00068064
     atom  214 type  3   force =    -0.00008978   -0.00004974    0.00068064
     atom  215 type  3   force =     0.00000250   -0.00002825    0.00093884
     atom  216 type  3   force =    -0.00000250    0.00002825    0.00093884
     atom  217 type  3   force =     0.00000250    0.00002825    0.00093884
     atom  218 type  3   force =    -0.00000250   -0.00002825    0.00093884
     atom  219 type  4   force =    -0.00010679    0.00019387   -0.00008987
     atom  220 type  4   force =     0.00010679    0.00019387   -0.00008987
     atom  221 type  4   force =    -0.00010679   -0.00019387   -0.00008987
     atom  222 type  4   force =     0.00010679   -0.00019387   -0.00008987
     atom  223 type  4   force =    -0.00012139    0.00000000   -0.00002447
     atom  224 type  4   force =     0.00012139    0.00000000   -0.00002447

     Total force =     0.151503     Total SCF correction =     0.000339


     Computing stress (Cartesian axis) and pressure


     negative rho (up, down):  6.350E-01 0.000E+00
          total   stress  (Ry/bohr**3)                   (kbar)     P=       -6.95
  -0.00000396   0.00000000   0.00000000           -0.58        0.00        0.00
   0.00000000  -0.00009893   0.00000000            0.00      -14.55        0.00
   0.00000000   0.00000000  -0.00003894            0.00        0.00       -5.73

 
     init_run     :     57.17s CPU     58.69s WALL (       1 calls)
     electrons    :   4387.04s CPU   4516.12s WALL (       1 calls)
     forces       :     34.95s CPU     36.55s WALL (       1 calls)
     stress       :    453.79s CPU    457.41s WALL (       1 calls)

     Called by init_run:
     wfcinit      :     44.88s CPU     45.62s WALL (       1 calls)
     potinit      :      1.65s CPU      1.68s WALL (       1 calls)
     hinit0       :      2.79s CPU      2.98s WALL (       1 calls)

     Called by electrons:
     c_bands      :   3668.41s CPU   3725.11s WALL (      39 calls)
     sum_band     :    489.97s CPU    530.03s WALL (      39 calls)
     v_of_rho     :     11.17s CPU     11.30s WALL (      40 calls)
     newd         :     96.74s CPU    128.56s WALL (      40 calls)
     mix_rho      :    122.09s CPU    122.86s WALL (      39 calls)

     Called by c_bands:
     init_us_2    :     10.89s CPU     10.97s WALL (     324 calls)
     cegterg      :   3574.01s CPU   3628.91s WALL (     156 calls)

     Called by sum_band:
     sum_band:bec :      3.39s CPU      3.41s WALL (     156 calls)
     addusdens    :     70.74s CPU    107.75s WALL (      39 calls)

     Called by *egterg:
     h_psi        :   1412.87s CPU   1434.19s WALL (    1090 calls)
     s_psi        :    404.83s CPU    414.36s WALL (    1090 calls)
     g_psi        :      1.75s CPU      1.76s WALL (     930 calls)
     cdiaghg      :    785.78s CPU    788.87s WALL (    1086 calls)

     Called by h_psi:
     h_psi:calbec :    455.23s CPU    456.93s WALL (    1090 calls)
     vloc_psi     :    549.72s CPU    556.30s WALL (    1090 calls)
     add_vuspsi   :    405.04s CPU    412.59s WALL (    1090 calls)

     General routines
     calbec       :    768.14s CPU    770.86s WALL (    1266 calls)
     fft          :     12.04s CPU     12.22s WALL (     543 calls)
     ffts         :     75.96s CPU     76.44s WALL (   29871 calls)
     fftw         :    614.21s CPU    621.36s WALL (  885400 calls)
     interpolate  :      1.02s CPU      1.02s WALL (      40 calls)
 
     Parallel routines
     fft_scatt_xy :     84.71s CPU     85.63s WALL (  915814 calls)
     fft_scatt_yz :    400.00s CPU    404.71s WALL (  915814 calls)
 
     PWSCF        :      1h22m CPU      1h24m WALL

 
   This run was terminated on:  22:13:51  17May2021            

=------------------------------------------------------------------------------=
   JOB DONE.
=------------------------------------------------------------------------------=
[1621304031.775228] [holy7c12406:116906:0]          mpool.c:43   UCX  WARN  object 0x2f2adc0 was not returned to mpool ucp_requests
[1621304031.791757] [holy7c12201:72641:0]          mpool.c:43   UCX  WARN  object 0x407f240 was not returned to mpool ucp_requests
[1621304031.794920] [holy7c12201:72635:0]          mpool.c:43   UCX  WARN  object 0x39cf240 was not returned to mpool ucp_requests
[1621304031.796267] [holy7c12201:72634:0]          mpool.c:43   UCX  WARN  object 0x40365c0 was not returned to mpool ucp_requests
[1621304031.806564] [holy7c12201:72636:0]          mpool.c:43   UCX  WARN  object 0x2b65c40 was not returned to mpool ucp_requests
[1621304031.778509] [holy7c12406:116912:0]          mpool.c:43   UCX  WARN  object 0x2b98c40 was not returned to mpool ucp_requests
[1621304031.780234] [holy7c12406:116911:0]          mpool.c:43   UCX  WARN  object 0x307d140 was not returned to mpool ucp_requests
[1621304031.787795] [holy7c12406:116905:0]          mpool.c:43   UCX  WARN  object 0x2876d80 was not returned to mpool ucp_requests
[1621304031.818316] [holy7c12306:28907:0]          mpool.c:43   UCX  WARN  object 0x5033d00 was not returned to mpool ucp_requests
[1621304031.817222] [holy7c12610:8901 :0]          mpool.c:43   UCX  WARN  object 0x31e75c0 was not returned to mpool ucp_requests
[1621304031.821692] [holy7c12306:28909:0]          mpool.c:43   UCX  WARN  object 0x3b3ba00 was not returned to mpool ucp_requests
[1621304031.822988] [holy7c12306:28901:0]          mpool.c:43   UCX  WARN  object 0x34cfc00 was not returned to mpool ucp_requests
[1621304031.826850] [holy7c12306:28915:0]          mpool.c:43   UCX  WARN  object 0x2a657c0 was not returned to mpool ucp_requests
[1621304031.825827] [holy7c12306:28908:0]          mpool.c:43   UCX  WARN  object 0x4072800 was not returned to mpool ucp_requests
[1621304031.864317] [holy7c12506:145545:0]          mpool.c:43   UCX  WARN  object 0x3dfda00 was not returned to mpool ucp_requests
[1621304031.833899] [holy7c12306:28910:0]          mpool.c:43   UCX  WARN  object 0x380dd00 was not returned to mpool ucp_requests
[1621304031.830775] [holy7c12610:8900 :0]          mpool.c:43   UCX  WARN  object 0x3bbc0c0 was not returned to mpool ucp_requests
[1621304031.836069] [holy7c12306:28902:0]          mpool.c:43   UCX  WARN  object 0x32bd640 was not returned to mpool ucp_requests
[1621304031.836280] [holy7c12306:28900:0]          mpool.c:43   UCX  WARN  object 0x2a16200 was not returned to mpool ucp_requests
[1621304031.841286] [holy7c12306:28916:0]          mpool.c:43   UCX  WARN  object 0x3ef7f00 was not returned to mpool ucp_requests
[1621304031.871886] [holy7c12506:145547:0]          mpool.c:43   UCX  WARN  object 0x387a1c0 was not returned to mpool ucp_requests
[1621304031.874929] [holy7c12506:145553:0]          mpool.c:43   UCX  WARN  object 0x3316500 was not returned to mpool ucp_requests
[1621304031.874957] [holy7c12506:145553:0]          mpool.c:43   UCX  WARN  object 0x331be40 was not returned to mpool ucp_requests
[1621304031.881445] [holy7c12506:145555:0]          mpool.c:43   UCX  WARN  object 0x2ac99c0 was not returned to mpool ucp_requests
[1621304031.879399] [holy7c12506:145539:0]          mpool.c:43   UCX  WARN  object 0x2cb67c0 was not returned to mpool ucp_requests
[1621304031.881683] [holy7c12506:145561:0]          mpool.c:43   UCX  WARN  object 0x4054380 was not returned to mpool ucp_requests
[1621304031.872877] [holy7c12506:145554:0]          mpool.c:43   UCX  WARN  object 0x3483800 was not returned to mpool ucp_requests
[1621304031.879005] [holy7c12506:145552:0]          mpool.c:43   UCX  WARN  object 0x2c22280 was not returned to mpool ucp_requests
[1621304031.878621] [holy7c12506:145538:0]          mpool.c:43   UCX  WARN  object 0x688bf80 was not returned to mpool ucp_requests
[1621304031.889172] [holy7c12506:145546:0]          mpool.c:43   UCX  WARN  object 0x42b6c00 was not returned to mpool ucp_requests
[1621304031.889207] [holy7c12506:145546:0]          mpool.c:43   UCX  WARN  object 0x42b9980 was not returned to mpool ucp_requests
[1621304031.893582] [holy7c12506:145544:0]          mpool.c:43   UCX  WARN  object 0x33e3900 was not returned to mpool ucp_requests
[1621304031.891405] [holy7c12506:145560:0]          mpool.c:43   UCX  WARN  object 0x3ec2b80 was not returned to mpool ucp_requests
