
     Program PWSCF v.6.5 starts on 17May2021 at 18: 0:22 

     This program is part of the open-source Quantum ESPRESSO suite
     for quantum simulation of materials; please cite
         "P. Giannozzi et al., J. Phys.:Condens. Matter 21 395502 (2009);
         "P. Giannozzi et al., J. Phys.:Condens. Matter 29 465901 (2017);
          URL http://www.quantum-espresso.org", 
     in publications or presentations arising from this work. More details at
     http://www.quantum-espresso.org/quote

     Parallel version (MPI), running on    80 processors

     MPI processes distributed on     5 nodes
     R & G space division:  proc/nbgrp/npool/nimage =      80
     Reading input from YBCO_CuO_cleave_1.5_sep.pwi
Warning: card &IONS ignored
Warning: card     ION_DYNAMICS = 'BFGS' ignored
Warning: card / ignored
Warning: card &CELL ignored
Warning: card     CELL_DYNAMICS = 'BFGS' ignored
Warning: card     PRESS_CONV_THR = 5 ignored
Warning: card / ignored

     Current dimensions of program PWSCF are:
     Max number of different atomic species (ntypx) = 10
     Max number of k-points (npk) =  40000
     Max angular momentum in pseudopotentials (lmaxx) =  3
     Message from routine volume:
     axis vectors are left-handed

     Subspace diagonalization in iterative solution of the eigenvalue problem:
     one sub-group per band group will be used
     scalapack distributed-memory algorithm (size of sub-group:  8*  8 procs)

     Message from routine setup:
     using ibrav=0 with symmetry is DISCOURAGED, use correct ibrav instead
 
     Parallelization info
     --------------------
     sticks:   dense  smooth     PW     G-vecs:    dense   smooth      PW
     Min         300     100     25               145680    28036    3681
     Max         301     101     26               145717    28055    3718
     Sum       24079    8031   2067             11656413  2243513  296475
 


     bravais-lattice index     =            0
     lattice parameter (alat)  =      20.5021  a.u.
     unit-cell volume          =   35726.4460 (a.u.)^3
     number of atoms/cell      =          224
     number of atomic types    =            5
     number of electrons       =      1830.00
     number of Kohn-Sham states=         1098
     kinetic-energy cutoff     =      60.0000  Ry
     charge density cutoff     =     720.0000  Ry
     convergence threshold     =      1.0E-08
     mixing beta               =       0.5000
     number of iterations used =           10  local-TF  mixing
     Exchange-correlation= SLA PW PBE PBE
                           (   1   4   3   4   0   0   0)

     celldm(1)=  20.502120  celldm(2)=   0.000000  celldm(3)=   0.000000
     celldm(4)=   0.000000  celldm(5)=   0.000000  celldm(6)=   0.000000

     crystal axes: (cart. coord. in units of alat)
               a(1) = (  -0.716599   0.697485   0.000000 )  
               a(2) = (   0.716599   0.697485   0.000000 )  
               a(3) = (   0.000000   0.000000   4.147173 )  

     reciprocal axes: (cart. coord. in units 2 pi/alat)
               b(1) = ( -0.697740  0.716861  0.000000 )  
               b(2) = (  0.697740  0.716861  0.000000 )  
               b(3) = (  0.000000  0.000000  0.241128 )  


     PseudoPot. # 1 for Ba read from file:
     ./pseudo/Ba.pbe-nsp-van.UPF
     MD5 check sum: 2b9c31dd849566dd297d80989662b7a0
     Pseudo is Ultrasoft + core correction, Zval = 10.0
     Generated by new atomic code, or converted to UPF format
     Using radial grid of  907 points,  6 beta functions with: 
                l(1) =   0
                l(2) =   0
                l(3) =   1
                l(4) =   1
                l(5) =   2
                l(6) =   2
     Q(r) pseudized with  6 coefficients,  rinner =    1.200   1.200   1.200
                                                       1.200   1.200

     PseudoPot. # 2 for Ca read from file:
     ./pseudo/Ca.pbe-nsp-van.UPF
     MD5 check sum: 6471098428ff4fa451746d08035ff179
     Pseudo is Ultrasoft + core correction, Zval = 10.0
     Generated by new atomic code, or converted to UPF format
     Using radial grid of  845 points,  6 beta functions with: 
                l(1) =   0
                l(2) =   0
                l(3) =   1
                l(4) =   1
                l(5) =   2
                l(6) =   2
     Q(r) pseudized with  6 coefficients,  rinner =    1.200   1.200   1.200
                                                       1.200   1.200

     PseudoPot. # 3 for Cu read from file:
     ./pseudo/Cu.pbe-n-van_ak.UPF
     MD5 check sum: 34e3282627ffb533726feb647e090d62
     Pseudo is Ultrasoft + core correction, Zval = 11.0
     Generated by new atomic code, or converted to UPF format
     Using radial grid of  867 points,  6 beta functions with: 
                l(1) =   0
                l(2) =   0
                l(3) =   1
                l(4) =   1
                l(5) =   2
                l(6) =   2
     Q(r) pseudized with  8 coefficients,  rinner =    1.400   1.400   1.400
                                                       1.400   1.400

     PseudoPot. # 4 for O  read from file:
     ./pseudo/O.pbe-van_ak.UPF
     MD5 check sum: 783ce7fe4c79b6a4916957118fed0856
     Pseudo is Ultrasoft, Zval =  6.0
     Generated by new atomic code, or converted to UPF format
     Using radial grid of  737 points,  4 beta functions with: 
                l(1) =   0
                l(2) =   0
                l(3) =   1
                l(4) =   1
     Q(r) pseudized with  8 coefficients,  rinner =    0.800   0.800   0.800


     PseudoPot. # 5 for Y  read from file:
     ./pseudo/Y.pbe-nsp-van.UPF
     MD5 check sum: 4412fed3ab108fed87a1b7d6a69a4a38
     Pseudo is Ultrasoft + core correction, Zval = 11.0
     Generated by new atomic code, or converted to UPF format
     Using radial grid of  885 points,  6 beta functions with: 
                l(1) =   0
                l(2) =   0
                l(3) =   1
                l(4) =   1
                l(5) =   2
                l(6) =   2
     Q(r) pseudized with  6 coefficients,  rinner =    1.200   1.200   1.200
                                                       1.200   1.200

     atomic species   valence    mass     pseudopotential
        Ba            10.00   137.32700     Ba( 1.00)
        Ca            10.00    40.07800     Ca( 1.00)
        Cu            11.00    63.54600     Cu( 1.00)
        O              6.00    15.99900     O ( 1.00)
        Y             11.00    88.90584     Y ( 1.00)

      4 Sym. Ops. (no inversion) found ( 3 have fractional translation)



   Cartesian axes

     site n.     atom                  positions (alat units)
         1           O   tau(   1) = (   0.3545921   0.8718562  -0.0077406  )
         2           O   tau(   2) = (   0.0037072   0.8718562  -0.0077406  )
         3           Cu  tau(   3) = (  -0.0002581   0.0006065   0.0080789  )
         4           Cu  tau(   4) = (  -0.0002581   0.3481364   0.0080789  )
         5           Cu  tau(   5) = (   0.3585574   0.3481364   0.0080789  )
         6           Cu  tau(   6) = (  -0.3580421   0.6980913   0.0080789  )
         7           Cu  tau(   7) = (   0.3577988   0.6971373   0.0086255  )
         8           Cu  tau(   8) = (   0.0005005   1.0465760   0.0086255  )
         9           Cu  tau(   9) = (  -0.3588016   0.3490903   0.0086255  )
        10           Cu  tau(  10) = (   0.0005005   0.6971373   0.0086255  )
        11           O   tau(  11) = (  -0.0001733   0.5225410  -0.0089757  )
        12           O   tau(  12) = (   0.3584726   0.5225410  -0.0089757  )
        13           O   tau(  13) = (  -0.0001733   1.2211724  -0.0089757  )
        14           O   tau(  14) = (  -0.3581278   0.5236867  -0.0089757  )
        15           O   tau(  15) = (  -0.3544557   0.8718562  -0.0105593  )
        16           O   tau(  16) = (  -0.0038445   0.1743714  -0.0105593  )
        17           O   tau(  17) = (   0.3588818   0.3486599   0.1817056  )
        18           O   tau(  18) = (  -0.0005825   0.3486599   0.1817056  )
        19           O   tau(  19) = (  -0.0005825   0.0000830   0.1817056  )
        20           O   tau(  20) = (  -0.3577167   0.6975677   0.1817056  )
        21           O   tau(  21) = (   0.3584283   0.6967843   0.1825784  )
        22           O   tau(  22) = (  -0.3581712   0.3494443   0.1825784  )
        23           O   tau(  23) = (  -0.0001290   0.6967843   0.1825784  )
        24           O   tau(  24) = (  -0.0001290   1.0469291   0.1825784  )
        25           Ba  tau(  25) = (   0.1791506   0.8718562   0.1908537  )
        26           Ba  tau(  26) = (   0.5374498   0.5231143   0.1919901  )
        27           Ba  tau(  27) = (  -0.1791506   0.5231143   0.1919901  )
        28           Ba  tau(  28) = (  -0.1793773   0.8718562   0.1931958  )
        29           Ba  tau(  29) = (  -0.1789238   0.1743714   0.1931958  )
        30           Ba  tau(  30) = (   0.1791506   0.5222101   0.1929368  )
        31           Ba  tau(  31) = (  -0.5374498   0.5240176   0.1929368  )
        32           Ba  tau(  32) = (   0.1791506   0.1743714   0.1992469  )
        33           Cu  tau(  33) = (  -0.3583426   0.3488452   0.3777458  )
        34           Cu  tau(  34) = (   0.3582559   0.6973834   0.3777458  )
        35           Cu  tau(  35) = (   0.0000433   0.6973834   0.3777458  )
        36           Cu  tau(  36) = (   0.0000433   1.0463299   0.3777458  )
        37           Cu  tau(  37) = (  -0.3586541   0.6975060   0.3775126  )
        38           Cu  tau(  38) = (   0.3579444   0.3487217   0.3775126  )
        39           Cu  tau(  39) = (   0.0003549   0.0000212   0.3775126  )
        40           Cu  tau(  40) = (   0.0003549   0.3487217   0.3775126  )
        41           O   tau(  41) = (  -0.0047976   0.1743714   0.3996864  )
        42           O   tau(  42) = (  -0.3535026   0.8718562   0.3996864  )
        43           O   tau(  43) = (  -0.5374498   0.6924605   0.3956991  )
        44           O   tau(  44) = (   0.1791506   0.3537672   0.3956991  )
        45           O   tau(  45) = (   0.3586385   0.8718562   0.4046840  )
        46           O   tau(  46) = (  -0.0003392   0.8718562   0.4046840  )
        47           O   tau(  47) = (  -0.0004857   0.5230571   0.4066611  )
        48           O   tau(  48) = (   0.3587850   0.5230571   0.4066611  )
        49           O   tau(  49) = (  -0.3578135   0.5231714   0.4066611  )
        50           O   tau(  50) = (  -0.0004857   1.2206562   0.4066611  )
        51           O   tau(  51) = (   0.1791506   1.0461604   0.4028931  )
        52           O   tau(  52) = (   0.1791506   0.6975521   0.4028931  )
        53           O   tau(  53) = (  -0.1792261   0.6967170   0.4025963  )
        54           O   tau(  54) = (  -0.1790731   0.3495106   0.4025963  )
        55           O   tau(  55) = (  -0.1792261   1.0469964   0.4025963  )
        56           O   tau(  56) = (   0.5375263   0.6967170   0.4025963  )
        57           Ca  tau(  57) = (   0.1791506   0.1743714   0.5358617  )
        58           Y   tau(  58) = (  -0.1811525   0.8718562   0.5373908  )
        59           Y   tau(  59) = (  -0.1771467   0.1743714   0.5373908  )
        60           Y   tau(  60) = (   0.1791506   0.8718562   0.5379568  )
        61           Y   tau(  61) = (   0.5374498   0.5231143   0.5384490  )
        62           Y   tau(  62) = (  -0.1791506   0.5231143   0.5384490  )
        63           Y   tau(  63) = (   0.1791506   0.5216598   0.5383310  )
        64           Y   tau(  64) = (  -0.5374498   0.5245688   0.5383310  )
        65           O   tau(  65) = (  -0.1787754   0.3493171   0.6712314  )
        66           O   tau(  66) = (   0.5378231   0.6969115   0.6712314  )
        67           O   tau(  67) = (  -0.1795239   1.0468019   0.6712314  )
        68           O   tau(  68) = (  -0.1795239   0.6969115   0.6712314  )
        69           O   tau(  69) = (   0.1791506   0.6972691   0.6718637  )
        70           O   tau(  70) = (   0.1791506   1.0464433   0.6718637  )
        71           O   tau(  71) = (  -0.0003880   1.2203935   0.6667490  )
        72           O   tau(  72) = (  -0.0003880   0.5233198   0.6667490  )
        73           O   tau(  73) = (   0.3586882   0.5233198   0.6667490  )
        74           O   tau(  74) = (  -0.3579112   0.5229087   0.6667490  )
        75           O   tau(  75) = (   0.3585850   0.8718562   0.6641940  )
        76           O   tau(  76) = (  -0.0002857   0.8718562   0.6641940  )
        77           O   tau(  77) = (   0.1791506   0.3535118   0.6756778  )
        78           O   tau(  78) = (  -0.5374498   0.6927158   0.6756778  )
        79           O   tau(  79) = (  -0.0043044   0.1743714   0.6710848  )
        80           O   tau(  80) = (  -0.3539948   0.8718562   0.6710848  )
        81           Cu  tau(  81) = (  -0.3586514   0.6973604   0.6974442  )
        82           Cu  tau(  82) = (   0.3579472   0.3488682   0.6974442  )
        83           Cu  tau(  83) = (   0.0003521  -0.0001254   0.6974442  )
        84           Cu  tau(  84) = (   0.0003521   0.3488682   0.6974442  )
        85           Cu  tau(  85) = (   0.0000083   1.0459401   0.6989015  )
        86           Cu  tau(  86) = (  -0.3583076   0.3484544   0.6989015  )
        87           Cu  tau(  87) = (   0.3582910   0.6977733   0.6989015  )
        88           Cu  tau(  88) = (   0.0000083   0.6977733   0.6989015  )
        89           Ba  tau(  89) = (   0.1791506   0.1743714   0.8671591  )
        90           Ba  tau(  90) = (  -0.5374498   0.5239908   0.8827639  )
        91           Ba  tau(  91) = (   0.1791506   0.5222377   0.8827639  )
        92           Ba  tau(  92) = (  -0.1785616   0.1743714   0.8784262  )
        93           Ba  tau(  93) = (  -0.1797386   0.8718562   0.8784262  )
        94           Ba  tau(  94) = (  -0.1791506   0.5231143   0.8841483  )
        95           Ba  tau(  95) = (   0.5374498   0.5231143   0.8841483  )
        96           Ba  tau(  96) = (   0.1791506   0.8718562   0.8844635  )
        97           O   tau(  97) = (   0.3607888   0.6975991   0.9037874  )
        98           O   tau(  98) = (  -0.3558097   0.3486286   0.9037874  )
        99           O   tau(  99) = (  -0.0024896   0.6975991   0.9037874  )
       100           O   tau( 100) = (  -0.0024896   1.0461143   0.9037874  )
       101           O   tau( 101) = (   0.3544087   0.3463252   0.9043663  )
       102           O   tau( 102) = (   0.0038906   0.3463252   0.9043663  )
       103           O   tau( 103) = (   0.0038906   0.0024177   0.9043663  )
       104           O   tau( 104) = (  -0.3621908   0.6999025   0.9043663  )
       105           O   tau( 105) = (   0.3314246   0.8718562   1.0783672  )
       106           O   tau( 106) = (   0.0268747   0.8718562   1.0783672  )
       107           Cu  tau( 107) = (  -0.0027882   0.0031818   1.0782086  )
       108           Cu  tau( 108) = (  -0.0027882   0.3455601   1.0782086  )
       109           Cu  tau( 109) = (   0.3610875   0.3455601   1.0782086  )
       110           Cu  tau( 110) = (  -0.3555111   0.7006675   1.0782086  )
       111           Cu  tau( 111) = (   0.3579684   0.6983604   1.0781976  )
       112           Cu  tau( 112) = (   0.0003318   1.0453529   1.0781976  )
       113           Cu  tau( 113) = (  -0.3586320   0.3478672   1.0781976  )
       114           Cu  tau( 114) = (   0.0003318   0.6983604   1.0781976  )
       115           O   tau( 115) = (  -0.0055718   0.5218801   1.0778989  )
       116           O   tau( 116) = (   0.3638720   0.5218801   1.0778989  )
       117           O   tau( 117) = (  -0.0055718   1.2218333   1.0778989  )
       118           O   tau( 118) = (  -0.3527284   0.5243475   1.0778989  )
       119           O   tau( 119) = (  -0.3170374   0.8718562   1.0783192  )
       120           O   tau( 120) = (  -0.0412618   0.1743714   1.0783192  )
       121           O   tau( 121) = (   0.3544105   0.3465040   1.3902946  )
       122           O   tau( 122) = (   0.0038887   0.3465040   1.3902946  )
       123           O   tau( 123) = (   0.0038887   0.0022389   1.3902946  )
       124           O   tau( 124) = (  -0.3621880   0.6997236   1.3902946  )
       125           O   tau( 125) = (   0.3607981   0.6973991   1.3908559  )
       126           O   tau( 126) = (  -0.3558014   0.3488295   1.3908559  )
       127           O   tau( 127) = (  -0.0024988   0.6973991   1.3908559  )
       128           O   tau( 128) = (  -0.0024988   1.0463143   1.3908559  )
       129           Ba  tau( 129) = (   0.1791506   0.8718562   1.4102112  )
       130           Ba  tau( 130) = (   0.5374498   0.5231143   1.4105347  )
       131           Ba  tau( 131) = (  -0.1791506   0.5231143   1.4105347  )
       132           Ba  tau( 132) = (  -0.1796732   0.8718562   1.4162346  )
       133           Ba  tau( 133) = (  -0.1786270   0.1743714   1.4162346  )
       134           Ba  tau( 134) = (   0.1791506   0.5222571   1.4119624  )
       135           Ba  tau( 135) = (  -0.5374498   0.5239706   1.4119624  )
       136           Ba  tau( 136) = (   0.1791506   0.1743714   1.4274852  )
       137           Cu  tau( 137) = (  -0.3583094   0.3484682   1.5957815  )
       138           Cu  tau( 138) = (   0.3582901   0.6977604   1.5957815  )
       139           Cu  tau( 139) = (   0.0000101   0.6977604   1.5957815  )
       140           Cu  tau( 140) = (   0.0000101   1.0459530   1.5957815  )
       141           Cu  tau( 141) = (  -0.3586477   0.6973567   1.5972019  )
       142           Cu  tau( 142) = (   0.3579518   0.3488710   1.5972019  )
       143           Cu  tau( 143) = (   0.0003484  -0.0001281   1.5972019  )
       144           Cu  tau( 144) = (   0.0003484   0.3488710   1.5972019  )
       145           O   tau( 145) = (  -0.0043173   0.1743714   1.6235069  )
       146           O   tau( 146) = (  -0.3539819   0.8718562   1.6235069  )
       147           O   tau( 147) = (  -0.5374498   0.6927305   1.6189757  )
       148           O   tau( 148) = (   0.1791506   0.3534971   1.6189757  )
       149           O   tau( 149) = (   0.3585795   0.8718562   1.6304171  )
       150           O   tau( 150) = (  -0.0002802   0.8718562   1.6304171  )
       151           O   tau( 151) = (  -0.0003853   0.5233134   1.6279211  )
       152           O   tau( 152) = (   0.3586855   0.5233134   1.6279211  )
       153           O   tau( 153) = (  -0.3579140   0.5229152   1.6279211  )
       154           O   tau( 154) = (  -0.0003853   1.2204000   1.6279211  )
       155           O   tau( 155) = (   0.1791506   1.0464553   1.6227944  )
       156           O   tau( 156) = (   0.1791506   0.6972571   1.6227944  )
       157           O   tau( 157) = (  -0.1795146   0.6969069   1.6234231  )
       158           O   tau( 158) = (  -0.1787846   0.3493208   1.6234231  )
       159           O   tau( 159) = (  -0.1795146   1.0468065   1.6234231  )
       160           O   tau( 160) = (   0.5378139   0.6969069   1.6234231  )
       161           Ca  tau( 161) = (   0.1791506   0.1743714   1.7587853  )
       162           Y   tau( 162) = (  -0.1811544   0.8718562   1.7572544  )
       163           Y   tau( 163) = (  -0.1771449   0.1743714   1.7572544  )
       164           Y   tau( 164) = (   0.1791506   0.8718562   1.7566912  )
       165           Y   tau( 165) = (   0.5374498   0.5231143   1.7562220  )
       166           Y   tau( 166) = (  -0.1791506   0.5231143   1.7562220  )
       167           Y   tau( 167) = (   0.1791506   0.5216524   1.7563428  )
       168           Y   tau( 168) = (  -0.5374498   0.5245761   1.7563428  )
       169           O   tau( 169) = (  -0.1790685   0.3495088   1.8920572  )
       170           O   tau( 170) = (   0.5375300   0.6967198   1.8920572  )
       171           O   tau( 171) = (  -0.1792307   1.0469936   1.8920572  )
       172           O   tau( 172) = (  -0.1792307   0.6967198   1.8920572  )
       173           O   tau( 173) = (   0.1791506   0.6975604   1.8917604  )
       174           O   tau( 174) = (   0.1791506   1.0461521   1.8917604  )
       175           O   tau( 175) = (  -0.0004848   1.2206534   1.8879961  )
       176           O   tau( 176) = (  -0.0004848   0.5230599   1.8879961  )
       177           O   tau( 177) = (   0.3587841   0.5230599   1.8879961  )
       178           O   tau( 178) = (  -0.3578144   0.5231687   1.8879961  )
       179           O   tau( 179) = (   0.3586468   0.8718562   1.8899344  )
       180           O   tau( 180) = (  -0.0003466   0.8718562   1.8899344  )
       181           O   tau( 181) = (   0.1791506   0.3537690   1.8989572  )
       182           O   tau( 182) = (  -0.5374498   0.6924586   1.8989572  )
       183           O   tau( 183) = (  -0.0047874   0.1743714   1.8949219  )
       184           O   tau( 184) = (  -0.3535118   0.8718562   1.8949219  )
       185           Cu  tau( 185) = (  -0.3586560   0.6975087   1.9171280  )
       186           Cu  tau( 186) = (   0.3579435   0.3487198   1.9171280  )
       187           Cu  tau( 187) = (   0.0003567   0.0000230   1.9171280  )
       188           Cu  tau( 188) = (   0.0003567   0.3487198   1.9171280  )
       189           Cu  tau( 189) = (   0.0000415   1.0463263   1.9168957  )
       190           Cu  tau( 190) = (  -0.3583407   0.3488406   1.9168957  )
       191           Cu  tau( 191) = (   0.3582587   0.6973871   1.9168957  )
       192           Cu  tau( 192) = (   0.0000415   0.6973871   1.9168957  )
       193           Ba  tau( 193) = (   0.1791506   0.1743714   2.0954011  )
       194           Ba  tau( 194) = (  -0.5374498   0.5240166   2.1017103  )
       195           Ba  tau( 195) = (   0.1791506   0.5222119   2.1017103  )
       196           Ba  tau( 196) = (  -0.1789220   0.1743714   2.1014541  )
       197           Ba  tau( 197) = (  -0.1793773   0.8718562   2.1014541  )
       198           Ba  tau( 198) = (  -0.1791506   0.5231143   2.1026643  )
       199           Ba  tau( 199) = (   0.5374498   0.5231143   2.1026643  )
       200           Ba  tau( 200) = (   0.1791506   0.8718562   2.1037925  )
       201           O   tau( 201) = (   0.3584302   0.6967870   2.1120622  )
       202           O   tau( 202) = (  -0.3581684   0.3494406   2.1120622  )
       203           O   tau( 203) = (  -0.0001309   0.6967870   2.1120622  )
       204           O   tau( 204) = (  -0.0001309   1.0469263   2.1120622  )
       205           O   tau( 205) = (   0.3588800   0.3486562   2.1129350  )
       206           O   tau( 206) = (  -0.0005807   0.3486562   2.1129350  )
       207           O   tau( 207) = (  -0.0005807   0.0000866   2.1129350  )
       208           O   tau( 208) = (  -0.3577186   0.6975714   2.1129350  )
       209           O   tau( 209) = (   0.3545921   0.8718562   2.3023655  )
       210           O   tau( 210) = (   0.0037081   0.8718562   2.3023655  )
       211           Cu  tau( 211) = (  -0.0002516   0.0006074   2.2865617  )
       212           Cu  tau( 212) = (  -0.0002516   0.3481345   2.2865617  )
       213           Cu  tau( 213) = (   0.3585509   0.3481345   2.2865617  )
       214           Cu  tau( 214) = (  -0.3580476   0.6980931   2.2865617  )
       215           Cu  tau( 215) = (   0.3577960   0.6971373   2.2860151  )
       216           Cu  tau( 216) = (   0.0005033   1.0465760   2.2860151  )
       217           Cu  tau( 217) = (  -0.3588035   0.3490903   2.2860151  )
       218           Cu  tau( 218) = (   0.0005033   0.6971373   2.2860151  )
       219           O   tau( 219) = (  -0.0001724   0.5225410   2.3036043  )
       220           O   tau( 220) = (   0.3584716   0.5225410   2.3036043  )
       221           O   tau( 221) = (  -0.0001724   1.2211724   2.3036043  )
       222           O   tau( 222) = (  -0.3581288   0.5236867   2.3036043  )
       223           O   tau( 223) = (  -0.3544640   0.8718562   2.3051943  )
       224           O   tau( 224) = (  -0.0038353   0.1743714   2.3051943  )

     number of k points=     4  Gaussian smearing, width (Ry)=  0.0100
                       cart. coord. in units 2pi/alat
        k(    1) = (   0.0000000   0.0000000   0.0000000), wk =   0.2222222
        k(    2) = (   0.2325801   0.2389537   0.0000000), wk =   0.8888889
        k(    3) = (   0.0000000   0.4779073   0.0000000), wk =   0.4444444
        k(    4) = (  -0.4651601  -0.0000000   0.0000000), wk =   0.4444444

     Dense  grid: 11656413 G-vectors     FFT dimensions: ( 180, 180, 729)

     Smooth grid:  2243513 G-vectors     FFT dimensions: ( 108, 108, 432)

     Estimated max dynamical RAM per process >       2.44 GB

     Estimated total dynamical RAM >     194.84 GB

     Initial potential from superposition of free atoms

     starting charge 1828.78422, renormalised to 1830.00000

     negative rho (up, down):  6.297E-01 0.000E+00
     Starting wfcs are 1602 randomized atomic wfcs

     total cpu time spent up to now is       58.4 secs

     Self-consistent Calculation

     iteration #  1     ecut=    60.00 Ry     beta= 0.50
     Davidson diagonalization with overlap
     ethr =  1.00E-02,  avg # of iterations =  2.0

     negative rho (up, down):  5.986E-01 0.000E+00

     total cpu time spent up to now is      157.3 secs

     total energy              =  -14912.67316348 Ry
     Harris-Foulkes estimate   =  -14942.81045399 Ry
     estimated scf accuracy    <     108.19816864 Ry

     iteration #  2     ecut=    60.00 Ry     beta= 0.50
     Davidson diagonalization with overlap
     ethr =  5.91E-03,  avg # of iterations =  2.0

     negative rho (up, down):  5.988E-01 0.000E+00

     total cpu time spent up to now is      252.8 secs

     total energy              =  -14922.28346046 Ry
     Harris-Foulkes estimate   =  -14926.29413073 Ry
     estimated scf accuracy    <      19.53921939 Ry

     iteration #  3     ecut=    60.00 Ry     beta= 0.50
     Davidson diagonalization with overlap
     ethr =  1.07E-03,  avg # of iterations =  2.0

     negative rho (up, down):  6.017E-01 0.000E+00

     total cpu time spent up to now is      349.8 secs

     total energy              =  -14924.00939421 Ry
     Harris-Foulkes estimate   =  -14925.45767938 Ry
     estimated scf accuracy    <      31.14387006 Ry

     iteration #  4     ecut=    60.00 Ry     beta= 0.50
     Davidson diagonalization with overlap
     ethr =  1.07E-03,  avg # of iterations =  1.0

     negative rho (up, down):  6.058E-01 0.000E+00

     total cpu time spent up to now is      437.8 secs

     total energy              =  -14924.33408544 Ry
     Harris-Foulkes estimate   =  -14924.66984251 Ry
     estimated scf accuracy    <       8.28390948 Ry

     iteration #  5     ecut=    60.00 Ry     beta= 0.50
     Davidson diagonalization with overlap
     ethr =  4.53E-04,  avg # of iterations =  1.0

     negative rho (up, down):  6.159E-01 0.000E+00

     total cpu time spent up to now is      527.0 secs

     total energy              =  -14924.09951022 Ry
     Harris-Foulkes estimate   =  -14924.48360840 Ry
     estimated scf accuracy    <       3.27507164 Ry

     iteration #  6     ecut=    60.00 Ry     beta= 0.50
     Davidson diagonalization with overlap
     ethr =  1.79E-04,  avg # of iterations =  9.2

     negative rho (up, down):  6.206E-01 0.000E+00

     total cpu time spent up to now is      656.2 secs

     total energy              =  -14924.15445275 Ry
     Harris-Foulkes estimate   =  -14924.23617245 Ry
     estimated scf accuracy    <       3.86427099 Ry

     iteration #  7     ecut=    60.00 Ry     beta= 0.50
     Davidson diagonalization with overlap
     ethr =  1.79E-04,  avg # of iterations =  1.8

     negative rho (up, down):  6.271E-01 0.000E+00

     total cpu time spent up to now is      748.4 secs

     total energy              =  -14924.12272178 Ry
     Harris-Foulkes estimate   =  -14924.18715769 Ry
     estimated scf accuracy    <       1.86535481 Ry

     iteration #  8     ecut=    60.00 Ry     beta= 0.50
     Davidson diagonalization with overlap
     ethr =  1.02E-04,  avg # of iterations =  1.2

     negative rho (up, down):  6.299E-01 0.000E+00

     total cpu time spent up to now is      836.8 secs

     total energy              =  -14924.12035777 Ry
     Harris-Foulkes estimate   =  -14924.15879597 Ry
     estimated scf accuracy    <       2.72945693 Ry

     iteration #  9     ecut=    60.00 Ry     beta= 0.50
     Davidson diagonalization with overlap
     ethr =  1.02E-04,  avg # of iterations =  1.0

     negative rho (up, down):  6.313E-01 0.000E+00

     total cpu time spent up to now is      924.2 secs

     total energy              =  -14924.10157060 Ry
     Harris-Foulkes estimate   =  -14924.13202848 Ry
     estimated scf accuracy    <       1.65743135 Ry

     iteration # 10     ecut=    60.00 Ry     beta= 0.50
     Davidson diagonalization with overlap
     ethr =  9.06E-05,  avg # of iterations =  1.0

     negative rho (up, down):  6.311E-01 0.000E+00

     total cpu time spent up to now is     1011.5 secs

     total energy              =  -14924.07899580 Ry
     Harris-Foulkes estimate   =  -14924.10898389 Ry
     estimated scf accuracy    <       1.23880063 Ry

     iteration # 11     ecut=    60.00 Ry     beta= 0.50
     Davidson diagonalization with overlap
     ethr =  6.77E-05,  avg # of iterations = 10.0

     negative rho (up, down):  6.296E-01 0.000E+00

     total cpu time spent up to now is     1132.1 secs

     total energy              =  -14924.05668180 Ry
     Harris-Foulkes estimate   =  -14924.08518536 Ry
     estimated scf accuracy    <       0.61141754 Ry

     iteration # 12     ecut=    60.00 Ry     beta= 0.50
     Davidson diagonalization with overlap
     ethr =  3.34E-05,  avg # of iterations =  9.5

     negative rho (up, down):  6.287E-01 0.000E+00

     total cpu time spent up to now is     1260.5 secs

     total energy              =  -14924.05487519 Ry
     Harris-Foulkes estimate   =  -14924.06344072 Ry
     estimated scf accuracy    <       0.28487082 Ry

     iteration # 13     ecut=    60.00 Ry     beta= 0.50
     Davidson diagonalization with overlap
     ethr =  1.56E-05,  avg # of iterations =  6.5

     negative rho (up, down):  6.275E-01 0.000E+00

     total cpu time spent up to now is     1370.3 secs

     total energy              =  -14924.04994590 Ry
     Harris-Foulkes estimate   =  -14924.05636281 Ry
     estimated scf accuracy    <       0.21494058 Ry

     iteration # 14     ecut=    60.00 Ry     beta= 0.50
     Davidson diagonalization with overlap
     ethr =  1.17E-05,  avg # of iterations =  5.5

     negative rho (up, down):  6.743E-01 0.000E+00

     total cpu time spent up to now is     1475.3 secs

     total energy              =  -14924.04215267 Ry
     Harris-Foulkes estimate   =  -14924.05137462 Ry
     estimated scf accuracy    <       0.23975410 Ry

     iteration # 15     ecut=    60.00 Ry     beta= 0.50
     Davidson diagonalization with overlap
     ethr =  1.17E-05,  avg # of iterations = 16.2

     negative rho (up, down):  7.003E-01 0.000E+00

     total cpu time spent up to now is     1627.9 secs

     total energy              =  -14924.03631982 Ry
     Harris-Foulkes estimate   =  -14924.04417867 Ry
     estimated scf accuracy    <       0.16529573 Ry

     iteration # 16     ecut=    60.00 Ry     beta= 0.50
     Davidson diagonalization with overlap
     ethr =  9.03E-06,  avg # of iterations = 11.0

     negative rho (up, down):  7.248E-01 0.000E+00

     total cpu time spent up to now is     1753.6 secs

     total energy              =  -14924.03084752 Ry
     Harris-Foulkes estimate   =  -14924.03747510 Ry
     estimated scf accuracy    <       0.15019098 Ry

     iteration # 17     ecut=    60.00 Ry     beta= 0.50
     Davidson diagonalization with overlap
     ethr =  8.21E-06,  avg # of iterations =  8.8

     negative rho (up, down):  7.628E-01 0.000E+00

     total cpu time spent up to now is     1873.9 secs

     total energy              =  -14924.02298832 Ry
     Harris-Foulkes estimate   =  -14924.03281321 Ry
     estimated scf accuracy    <       0.11526737 Ry

     iteration # 18     ecut=    60.00 Ry     beta= 0.50
     Davidson diagonalization with overlap
     ethr =  6.30E-06,  avg # of iterations = 12.2

     negative rho (up, down):  7.583E-01 0.000E+00

     total cpu time spent up to now is     2016.9 secs

     total energy              =  -14924.02219396 Ry
     Harris-Foulkes estimate   =  -14924.02455925 Ry
     estimated scf accuracy    <       0.05265034 Ry

     iteration # 19     ecut=    60.00 Ry     beta= 0.50
     Davidson diagonalization with overlap
     c_bands:  1 eigenvalues not converged
     c_bands:  1 eigenvalues not converged
     ethr =  2.88E-06,  avg # of iterations = 14.2

     negative rho (up, down):  7.497E-01 0.000E+00

     total cpu time spent up to now is     2156.7 secs

     total energy              =  -14924.01952910 Ry
     Harris-Foulkes estimate   =  -14924.02249705 Ry
     estimated scf accuracy    <       0.02644936 Ry

     iteration # 20     ecut=    60.00 Ry     beta= 0.50
     Davidson diagonalization with overlap
     ethr =  1.45E-06,  avg # of iterations = 12.2

     negative rho (up, down):  7.058E-01 0.000E+00

     total cpu time spent up to now is     2300.1 secs

     total energy              =  -14924.01835871 Ry
     Harris-Foulkes estimate   =  -14924.02009697 Ry
     estimated scf accuracy    <       0.01220473 Ry

     iteration # 21     ecut=    60.00 Ry     beta= 0.50
     Davidson diagonalization with overlap
     ethr =  6.67E-07,  avg # of iterations =  6.0

     negative rho (up, down):  6.668E-01 0.000E+00

     total cpu time spent up to now is     2411.3 secs

     total energy              =  -14924.01781682 Ry
     Harris-Foulkes estimate   =  -14924.01866867 Ry
     estimated scf accuracy    <       0.00784441 Ry

     iteration # 22     ecut=    60.00 Ry     beta= 0.50
     Davidson diagonalization with overlap
     c_bands:  1 eigenvalues not converged
     ethr =  4.29E-07,  avg # of iterations = 11.2

     negative rho (up, down):  6.471E-01 0.000E+00

     total cpu time spent up to now is     2546.2 secs

     total energy              =  -14924.01789014 Ry
     Harris-Foulkes estimate   =  -14924.01796382 Ry
     estimated scf accuracy    <       0.00190925 Ry

     iteration # 23     ecut=    60.00 Ry     beta= 0.50
     Davidson diagonalization with overlap
     ethr =  1.04E-07,  avg # of iterations =  8.8

     negative rho (up, down):  6.428E-01 0.000E+00

     total cpu time spent up to now is     2667.4 secs

     total energy              =  -14924.01796089 Ry
     Harris-Foulkes estimate   =  -14924.01797335 Ry
     estimated scf accuracy    <       0.00144112 Ry

     iteration # 24     ecut=    60.00 Ry     beta= 0.50
     Davidson diagonalization with overlap
     ethr =  7.87E-08,  avg # of iterations =  5.5

     negative rho (up, down):  6.298E-01 0.000E+00

     total cpu time spent up to now is     2773.1 secs

     total energy              =  -14924.01820543 Ry
     Harris-Foulkes estimate   =  -14924.01799388 Ry
     estimated scf accuracy    <       0.00047696 Ry

     iteration # 25     ecut=    60.00 Ry     beta= 0.50
     Davidson diagonalization with overlap
     c_bands:  4 eigenvalues not converged
     c_bands:  2 eigenvalues not converged
     c_bands:  1 eigenvalues not converged
     ethr =  2.61E-08,  avg # of iterations = 18.5

     negative rho (up, down):  6.318E-01 0.000E+00

     total cpu time spent up to now is     2935.5 secs

     total energy              =  -14924.01821619 Ry
     Harris-Foulkes estimate   =  -14924.01822955 Ry
     estimated scf accuracy    <       0.00025079 Ry

     iteration # 26     ecut=    60.00 Ry     beta= 0.50
     Davidson diagonalization with overlap
     c_bands:  1 eigenvalues not converged
     ethr =  1.37E-08,  avg # of iterations = 10.2

     negative rho (up, down):  6.340E-01 0.000E+00

     total cpu time spent up to now is     3056.3 secs

     total energy              =  -14924.01822135 Ry
     Harris-Foulkes estimate   =  -14924.01822828 Ry
     estimated scf accuracy    <       0.00009653 Ry

     iteration # 27     ecut=    60.00 Ry     beta= 0.50
     Davidson diagonalization with overlap
     ethr =  5.28E-09,  avg # of iterations =  2.0

     negative rho (up, down):  6.338E-01 0.000E+00

     total cpu time spent up to now is     3148.2 secs

     total energy              =  -14924.01822943 Ry
     Harris-Foulkes estimate   =  -14924.01822680 Ry
     estimated scf accuracy    <       0.00003194 Ry

     iteration # 28     ecut=    60.00 Ry     beta= 0.50
     Davidson diagonalization with overlap
     ethr =  1.75E-09,  avg # of iterations =  1.5

     negative rho (up, down):  6.339E-01 0.000E+00

     total cpu time spent up to now is     3238.9 secs

     total energy              =  -14924.01823201 Ry
     Harris-Foulkes estimate   =  -14924.01823018 Ry
     estimated scf accuracy    <       0.00001855 Ry

     iteration # 29     ecut=    60.00 Ry     beta= 0.50
     Davidson diagonalization with overlap
     ethr =  1.01E-09,  avg # of iterations =  1.2

     negative rho (up, down):  6.335E-01 0.000E+00

     total cpu time spent up to now is     3329.0 secs

     total energy              =  -14924.01823391 Ry
     Harris-Foulkes estimate   =  -14924.01823259 Ry
     estimated scf accuracy    <       0.00001829 Ry

     iteration # 30     ecut=    60.00 Ry     beta= 0.50
     Davidson diagonalization with overlap
     ethr =  1.00E-09,  avg # of iterations =  1.0

     negative rho (up, down):  6.341E-01 0.000E+00

     total cpu time spent up to now is     3417.7 secs

     total energy              =  -14924.01823274 Ry
     Harris-Foulkes estimate   =  -14924.01823417 Ry
     estimated scf accuracy    <       0.00000536 Ry

     iteration # 31     ecut=    60.00 Ry     beta= 0.50
     Davidson diagonalization with overlap
     ethr =  2.93E-10,  avg # of iterations =  1.0

     negative rho (up, down):  6.341E-01 0.000E+00

     total cpu time spent up to now is     3507.4 secs

     total energy              =  -14924.01823269 Ry
     Harris-Foulkes estimate   =  -14924.01823288 Ry
     estimated scf accuracy    <       0.00000380 Ry

     iteration # 32     ecut=    60.00 Ry     beta= 0.50
     Davidson diagonalization with overlap
     ethr =  2.08E-10,  avg # of iterations =  1.0

     negative rho (up, down):  6.345E-01 0.000E+00

     total cpu time spent up to now is     3596.8 secs

     total energy              =  -14924.01823194 Ry
     Harris-Foulkes estimate   =  -14924.01823282 Ry
     estimated scf accuracy    <       0.00000249 Ry

     iteration # 33     ecut=    60.00 Ry     beta= 0.50
     Davidson diagonalization with overlap
     ethr =  1.36E-10,  avg # of iterations =  1.0

     negative rho (up, down):  6.349E-01 0.000E+00

     total cpu time spent up to now is     3685.6 secs

     total energy              =  -14924.01823135 Ry
     Harris-Foulkes estimate   =  -14924.01823206 Ry
     estimated scf accuracy    <       0.00000119 Ry

     iteration # 34     ecut=    60.00 Ry     beta= 0.50
     Davidson diagonalization with overlap
     ethr =  6.53E-11,  avg # of iterations =  1.5

     negative rho (up, down):  6.349E-01 0.000E+00

     total cpu time spent up to now is     3775.8 secs

     total energy              =  -14924.01823137 Ry
     Harris-Foulkes estimate   =  -14924.01823139 Ry
     estimated scf accuracy    <       0.00000015 Ry

     iteration # 35     ecut=    60.00 Ry     beta= 0.50
     Davidson diagonalization with overlap
     ethr =  8.24E-12,  avg # of iterations =  3.0

     negative rho (up, down):  6.350E-01 0.000E+00

     total cpu time spent up to now is     3872.5 secs

     total energy              =  -14924.01823131 Ry
     Harris-Foulkes estimate   =  -14924.01823137 Ry
     estimated scf accuracy    <       0.00000018 Ry

     iteration # 36     ecut=    60.00 Ry     beta= 0.50
     Davidson diagonalization with overlap
     ethr =  8.24E-12,  avg # of iterations =  1.0

     negative rho (up, down):  6.349E-01 0.000E+00

     total cpu time spent up to now is     3961.1 secs

     total energy              =  -14924.01823138 Ry
     Harris-Foulkes estimate   =  -14924.01823131 Ry
     estimated scf accuracy    <       0.00000006 Ry

     iteration # 37     ecut=    60.00 Ry     beta= 0.50
     Davidson diagonalization with overlap
     ethr =  3.51E-12,  avg # of iterations =  1.2

     negative rho (up, down):  6.349E-01 0.000E+00

     total cpu time spent up to now is     4050.3 secs

     total energy              =  -14924.01823133 Ry
     Harris-Foulkes estimate   =  -14924.01823137 Ry
     estimated scf accuracy    <       0.00000003 Ry

     iteration # 38     ecut=    60.00 Ry     beta= 0.50
     Davidson diagonalization with overlap
     ethr =  1.70E-12,  avg # of iterations =  1.2

     negative rho (up, down):  6.349E-01 0.000E+00

     total cpu time spent up to now is     4139.0 secs

     total energy              =  -14924.01823133 Ry
     Harris-Foulkes estimate   =  -14924.01823132 Ry
     estimated scf accuracy    <       0.00000001 Ry

     iteration # 39     ecut=    60.00 Ry     beta= 0.50
     Davidson diagonalization with overlap
     ethr =  7.02E-13,  avg # of iterations =  2.8

     negative rho (up, down):  6.349E-01 0.000E+00

     total cpu time spent up to now is     4235.0 secs

     total energy              =  -14924.01823135 Ry
     Harris-Foulkes estimate   =  -14924.01823133 Ry
     estimated scf accuracy    <       0.00000001 Ry

     iteration # 40     ecut=    60.00 Ry     beta= 0.50
     Davidson diagonalization with overlap
     ethr =  6.23E-13,  avg # of iterations =  1.0

     negative rho (up, down):  6.349E-01 0.000E+00

     total cpu time spent up to now is     4321.0 secs

     End of self-consistent calculation

          k = 0.0000 0.0000 0.0000 (280459 PWs)   bands (ev):

   -38.1434 -38.1167 -38.1141 -38.1087 -38.1078 -38.0949 -38.0899 -38.0789
   -38.0422 -38.0394 -38.0298 -38.0279 -38.0203 -38.0146 -35.6834 -35.6018
   -22.7500 -22.7386 -22.6392 -22.6275 -22.6246 -22.6202 -22.6184 -22.6125
   -22.6095 -22.6048 -22.6038 -22.5931 -22.5928 -22.5868 -22.5827 -22.5754
   -22.5253 -22.5213 -22.5164 -22.5078 -22.5009 -22.4895 -22.4854 -22.4603
   -22.4121 -22.3944 -22.3673 -22.3646 -22.3450 -22.3393 -22.2519 -22.0590
   -18.7262 -18.6889 -18.6522 -18.6429 -18.6377 -18.6162 -18.6116 -18.5717
   -18.5709 -18.5449 -18.4573 -18.4437 -18.4435 -18.4330 -18.4297 -18.4244
   -18.4226 -18.4143 -18.4130 -18.4075 -18.3958 -18.3812 -18.3742 -18.3679
   -18.3622 -18.3570 -18.3545 -18.3533 -18.3414 -18.3396 -18.3317 -18.3261
   -18.2436 -18.2385 -18.2151 -18.1744 -18.1635 -18.1455 -18.1194 -18.1111
   -18.0425 -18.0348 -16.9411 -16.9141 -16.9068 -16.8616 -16.8314 -16.8277
   -15.4658 -15.4136 -14.8895 -14.8560 -14.8140 -14.7830 -14.7719 -14.7683
   -14.7639 -14.7614 -14.7397 -14.7281 -14.7237 -14.7233 -14.6902 -14.6544
   -14.6417 -14.5975 -14.5882 -14.5858 -14.5851 -14.5784 -14.5606 -14.5514
   -14.5260 -14.5240 -14.5190 -14.5141 -14.5135 -14.5111 -14.4886 -14.4784
   -14.4703 -14.4555 -14.4477 -14.4319 -14.4212 -14.3623 -14.3617 -14.3478
   -14.3475 -14.3469 -14.3414 -14.3291 -14.3272 -14.2839 -14.2765 -14.2660
   -14.2584 -14.2514 -14.2477 -14.2462 -14.2458 -14.2337 -14.2332 -14.2330
   -14.2155 -14.2104 -14.1973 -14.1953 -14.1920 -14.1897 -14.1806 -14.1690
   -14.1596 -14.1539 -14.1475 -14.1208 -14.1034 -14.0989 -14.0940 -14.0598
   -14.0579 -14.0509 -14.0370 -14.0332 -14.0269 -14.0235 -14.0190 -14.0099
   -13.9742 -13.9711 -13.9647 -13.9639 -13.9529 -13.9359 -13.8972 -13.8840
   -13.7769 -13.7693 -13.7642 -13.7546 -13.7360 -13.7351 -13.7348 -13.7323
   -13.7321 -13.7213 -13.7195 -13.7188 -13.7169 -13.6912 -13.6767 -13.6638
   -13.6602 -13.6473 -13.6444 -13.6040 -13.5307 -13.5178 -13.5170 -13.5013
   -12.7430 -12.7217 -12.5333 -12.5331 -12.5282 -12.5249 -12.3792 -12.2678
    -8.7084  -8.6977  -8.5120  -8.4214  -8.4102  -8.2692  -8.2262  -8.1985
    -8.1947  -8.1876  -8.1838  -8.1826  -8.1717  -8.1710  -8.1602  -8.1309
    -8.0089  -8.0063  -7.9907  -7.9863  -7.9845  -7.9792  -7.9653  -7.9557
    -7.9521  -7.9471  -7.9397  -7.9340  -7.9319  -7.9272  -7.9217  -7.9174
    -7.9139  -7.9097  -7.9057  -7.9015  -7.8910  -7.8846  -7.8681  -7.8525
    -7.8406  -7.8401  -7.8366  -7.8288  -7.8240  -7.8135  -7.7977  -7.7951
    -7.7932  -7.7862  -7.7855  -7.7764  -7.7491  -7.7477  -7.7433  -7.7366
    -7.7068  -7.7002  -7.6960  -7.6895  -7.6807  -7.5939  -7.5929  -7.5826
    -7.5817  -7.5729  -7.5716  -7.5671  -7.5656  -7.5606  -7.5573  -7.5553
    -7.5467  -7.5266  -7.4887  -7.4796  -7.4578  -7.4468  -7.4402  -7.4389
    -7.4334  -7.4277  -7.4121  -7.3843  -7.3839  -7.3704  -7.3536  -7.2902
    -7.2715  -7.2234  -7.2227  -7.1973  -7.1952  -7.1635  -7.0383  -7.0372
    -4.2162  -4.1547  -3.6744  -3.5899  -3.1855  -3.1638  -3.0765  -3.0692
    -3.0684  -3.0186  -3.0129  -3.0114  -3.0013  -3.0011  -2.9676  -2.9478
    -2.9426  -2.9075  -2.8448  -2.8299  -2.8274  -2.7675  -2.7560  -2.7529
    -2.7317  -2.7100  -2.6988  -2.6926  -2.6924  -2.6529  -2.6235  -2.6148
    -2.6089  -2.5990  -2.5107  -2.4604  -2.4200  -2.4190  -2.3260  -2.2537
    -2.1917  -2.1879  -2.1735  -2.1691  -2.1662  -2.1633  -2.1613  -2.1542
    -2.1424  -2.1401  -2.1274  -2.1269  -2.0627  -2.0617  -2.0597  -2.0529
    -2.0482  -2.0378  -1.9945  -1.9921  -1.9868  -1.9839  -1.9837  -1.9791
    -1.9756  -1.9755  -1.9710  -1.9710  -1.9675  -1.9640  -1.9550  -1.9540
    -1.9076  -1.8780  -1.8755  -1.8711  -1.8709  -1.8674  -1.8612  -1.8572
    -1.8521  -1.8371  -1.8236  -1.8073  -1.7891  -1.7783  -1.7780  -1.7778
    -1.7728  -1.7679  -1.7671  -1.7644  -1.7630  -1.7605  -1.7572  -1.7372
    -1.7111  -1.6818  -1.6814  -1.6642  -1.6551  -1.6330  -1.6006  -1.5862
    -1.5678  -1.5673  -1.5590  -1.5452  -1.5420  -1.5369  -1.5338  -1.5151
    -1.5137  -1.5034  -1.4883  -1.4838  -1.4649  -1.4573  -1.4472  -1.4231
    -1.4173  -1.4103  -1.4011  -1.3970  -1.3959  -1.3849  -1.3746  -1.3620
    -1.3604  -1.3575  -1.3550  -1.3374  -1.3304  -1.3249  -1.3112  -1.3016
    -1.2630  -1.2388  -1.2325  -1.2312  -1.2142  -1.1870  -1.1853  -1.1104
    -1.1021  -1.0676  -1.0532  -1.0380  -1.0327  -0.9912  -0.9827  -0.9673
    -0.9663  -0.9303  -0.9002  -0.8961  -0.8841  -0.8717  -0.8684  -0.8679
    -0.8618  -0.8533  -0.8499  -0.8408  -0.8379  -0.8329  -0.8297  -0.8262
    -0.8244  -0.8034  -0.7920  -0.7754  -0.7744  -0.7644  -0.7544  -0.7384
    -0.7353  -0.7258  -0.7102  -0.7092  -0.7044  -0.6889  -0.6813  -0.6753
    -0.6677  -0.6637  -0.6361  -0.6324  -0.6293  -0.6247  -0.6220  -0.6208
    -0.6068  -0.6063  -0.5867  -0.5772  -0.5446  -0.5326  -0.5308  -0.5302
    -0.5111  -0.4952  -0.4732  -0.4573  -0.4309  -0.4308  -0.4137  -0.4060
    -0.3997  -0.3764  -0.3742  -0.3741  -0.3610  -0.3528  -0.3516  -0.3456
    -0.3444  -0.2815  -0.2734  -0.2615  -0.2504  -0.2361  -0.2320  -0.2260
    -0.2186  -0.2067  -0.1933  -0.1810  -0.1806  -0.1789  -0.1744  -0.1742
    -0.1666  -0.1605  -0.1590  -0.1465  -0.1431  -0.1369  -0.1281  -0.1271
    -0.1218  -0.1215  -0.1069  -0.1009  -0.0999  -0.0991  -0.0975  -0.0890
    -0.0882  -0.0752  -0.0750  -0.0732  -0.0704  -0.0554  -0.0529  -0.0476
    -0.0404  -0.0366  -0.0325  -0.0296  -0.0274  -0.0048   0.0393   0.0443
     0.0508   0.0581   0.0586   0.0624   0.1080   0.1148   0.1149   0.1181
     0.1207   0.1673   0.1688   0.1690   0.1697   0.1775   0.1828   0.1865
     0.2004   0.2095   0.2408   0.2571   0.2666   0.2775   0.2817   0.3432
     0.3444   0.3450   0.3509   0.3545   0.3570   0.3606   0.3616   0.3713
     0.3800   0.4374   0.4392   0.4550   0.4573   0.4576   0.4680   0.4744
     0.4780   0.4796   0.4886   0.4893   0.4902   0.4920   0.5001   0.5172
     0.5190   0.5220   0.5233   0.5267   0.5276   0.5308   0.5343   0.5376
     0.5449   0.5476   0.5634   0.5684   0.5748   0.5768   0.5820   0.5881
     0.6000   0.6158   0.6160   0.6247   0.6361   0.6446   0.6482   0.6525
     0.6528   0.6722   0.6738   0.6837   0.6840   0.7018   0.7113   0.7131
     0.7209   0.7213   0.7326   0.7328   0.7348   0.7414   0.7471   0.7486
     0.7557   0.7572   0.7615   0.7629   0.7854   0.7881   0.7914   0.7939
     0.8042   0.8107   0.8145   0.8202   0.8210   0.8221   0.8513   0.8530
     0.8656   0.8761   0.8771   0.8889   0.9088   0.9106   0.9168   0.9207
     0.9762   1.0761   1.1088   1.1128   1.1198   1.1357   1.1384   1.1542
     1.1713   1.1924   1.1932   1.2011   1.2174   1.2207   1.2225   1.2239
     1.2290   1.2307   1.2321   1.2393   1.2400   1.2457   1.2501   1.2554
     1.2665   1.2755   1.2780   1.2819   1.2881   1.2949   1.3031   1.3096
     1.3102   1.3199   1.3206   1.3254   1.3361   1.3363   1.3454   1.3478
     1.3533   1.3582   1.3586   1.3593   1.3598   1.3617   1.3619   1.3668
     1.3690   1.3698   1.3806   1.3813   1.3819   1.3835   1.3906   1.3935
     1.4026   1.4047   1.4099   1.4219   1.4285   1.4299   1.4352   1.4387
     1.4426   1.4450   1.4468   1.4531   1.4595   1.4612   1.4694   1.4712
     1.4740   1.4758   1.4807   1.4839   1.4877   1.4914   1.4933   1.4973
     1.4990   1.4998   1.5001   1.5056   1.5149   1.5166   1.5195   1.5206
     1.5207   1.5225   1.5337   1.5382   1.5425   1.5464   1.5504   1.5587
     1.5640   1.5812   1.5868   1.5879   1.5933   1.5997   1.6029   1.6054
     1.6406   1.6450   1.6475   1.6587   1.6830   1.7025   1.7749   1.7755
     1.7806   1.7810   1.7812   1.7942   1.7951   1.7954   1.7976   1.8073
     1.8108   1.8359   1.8382   1.8394   1.8522   1.8524   1.8558   1.8583
     1.8600   1.8726   1.8773   1.8797   1.8841   1.8968   1.9004   1.9081
     1.9106   1.9153   1.9262   1.9391   1.9403   1.9461   1.9498   1.9632
     1.9650   1.9721   1.9781   1.9783   1.9816   1.9993   2.0003   2.0023
     2.0099   2.0141   2.0322   2.0407   2.0419   2.0456   2.0516   2.0547
     2.0547   2.0550   2.0568   2.0599   2.0600   2.0622   2.0727   2.0843
     2.1205   2.1259   2.1319   2.1426   2.1436   2.1445   2.1534   2.1540
     2.1551   2.1553   2.1640   2.1723   2.1784   2.1806   2.1841   2.2290
     2.2349   2.2459   2.2724   2.2850   2.2919   2.3219   2.3838   2.4860
     2.5082   2.5136   2.5217   2.5315   2.5365   2.5538   2.5734   2.6160
     2.6164   2.6558   2.6577   2.6650   2.6719   2.6721   2.6741   2.6786
     2.6920   2.6930   2.6974   2.6988   2.7344   2.7463   2.7492   2.7553
     2.7818   2.7844   2.7863   2.7889   2.8275   2.8419   2.9268   2.9421
     2.9526   2.9594   3.0203   3.0265   3.0661   3.1283   3.1581   3.1754
     3.2217   3.2269   3.2583   3.2655   3.2697   3.2750   3.2765   3.2866
     3.2995   3.3245   3.3297   3.3517   3.3520   3.3539   3.3558   3.3674
     3.3850   3.3921   3.3967   3.4094   3.4965   3.5359   3.5411   3.5464
     3.5479   3.5816   3.5916   3.5916   4.7557   4.7940   4.8481   4.8670
     5.1816   5.3069   5.3647   5.8500   5.8614   5.9090   5.9457   6.0192
     6.3479   6.5444   6.5600   6.5944   6.6034   6.6760   6.6826   6.7004
     6.7040   6.7046   6.7053   6.7080   6.7180   6.7184   6.7198   6.7220
     6.8538   7.0207   7.0964   7.0967   7.1022   7.1574   7.1577   7.1635
     7.1988   7.2230   7.2621   7.3468   7.3683   7.3766   7.4358   7.4490
     7.4917   7.5790   7.5970   7.5984   7.6115   7.6658   7.6753   7.7013
     7.7015   7.7198   7.7530   7.7908   7.8248   7.8914   7.9501   7.9637
     7.9682   8.0098   8.0816   8.0902   8.1477   8.1623   8.2266   8.2375
     8.2617   8.3001   8.3406   8.3421   8.3486   8.3555   8.3601   8.3617
     8.3684   8.3793   8.3820   8.3861   8.4005   8.5433   8.6101   8.6134
     8.6335   8.6383   8.6512   8.6543   8.6596   8.6889   8.6949   8.7261
     8.7487   8.7629   8.7838   8.7891   8.7999   8.8142   8.8190   8.8247
     8.8442   8.8479   8.8654   8.8706   8.8857   8.9015   8.9070   8.9183
     8.9205   8.9280   8.9537   8.9629   8.9860   8.9932   9.0003   9.0338
     9.0576   9.0709   9.1045   9.1088   9.1275   9.1281   9.1326   9.1694
     9.1733   9.1802   9.1833   9.1855   9.1943   9.2067   9.2216   9.2217
     9.2252   9.2384   9.2410   9.2540   9.2645   9.2902   9.2918   9.3042
     9.3073   9.3270   9.3433   9.3457   9.3552   9.4112   9.4229   9.4257
     9.4273   9.4734

          k = 0.2326 0.2390 0.0000 (280419 PWs)   bands (ev):

   -38.1433 -38.1162 -38.1147 -38.1087 -38.1081 -38.0934 -38.0910 -38.0789
   -38.0416 -38.0401 -38.0296 -38.0287 -38.0185 -38.0157 -35.6834 -35.6018
   -22.7317 -22.7203 -22.6835 -22.6721 -22.6289 -22.6248 -22.6171 -22.6136
   -22.6087 -22.5997 -22.5910 -22.5884 -22.5797 -22.5765 -22.5555 -22.5468
   -22.5441 -22.5276 -22.5161 -22.5151 -22.5101 -22.5037 -22.4757 -22.4639
   -22.4084 -22.3960 -22.3639 -22.3587 -22.3431 -22.3429 -22.2540 -22.0592
   -18.6916 -18.6574 -18.6403 -18.6175 -18.6136 -18.6097 -18.5884 -18.5853
   -18.5684 -18.5562 -18.5480 -18.5421 -18.5223 -18.5140 -18.4821 -18.4540
   -18.4453 -18.4343 -18.4204 -18.4158 -18.4020 -18.3712 -18.3651 -18.3457
   -18.3448 -18.3322 -18.3244 -18.2925 -18.2754 -18.2546 -18.2399 -18.2374
   -18.2297 -18.2173 -18.1996 -18.1698 -18.1682 -18.1651 -18.1586 -18.1551
   -18.0887 -18.0824 -16.9413 -16.9159 -16.9083 -16.8618 -16.8334 -16.8291
   -15.3651 -15.3132 -15.0954 -15.0431 -14.8391 -14.8098 -14.7809 -14.7662
   -14.7573 -14.7492 -14.7334 -14.7179 -14.7161 -14.6868 -14.6488 -14.6482
   -14.6295 -14.6143 -14.5844 -14.5795 -14.5657 -14.5653 -14.5556 -14.5444
   -14.5349 -14.5217 -14.5139 -14.5087 -14.4843 -14.4720 -14.4701 -14.4578
   -14.4491 -14.4392 -14.4286 -14.4197 -14.4183 -14.4048 -14.3756 -14.3542
   -14.3509 -14.3478 -14.3400 -14.3237 -14.3075 -14.3037 -14.2966 -14.2946
   -14.2856 -14.2816 -14.2744 -14.2466 -14.2336 -14.2244 -14.2221 -14.1971
   -14.1870 -14.1828 -14.1817 -14.1692 -14.1629 -14.1624 -14.1567 -14.1437
   -14.1377 -14.1194 -14.1078 -14.1048 -14.1018 -14.1016 -14.0948 -14.0825
   -14.0741 -14.0649 -14.0461 -14.0443 -14.0439 -14.0160 -14.0139 -14.0087
   -14.0054 -14.0047 -13.9984 -13.9980 -13.9713 -13.9682 -13.9214 -13.9140
   -13.7822 -13.7745 -13.7687 -13.7600 -13.7590 -13.7445 -13.7422 -13.7279
   -13.7233 -13.7178 -13.7017 -13.7004 -13.6961 -13.6876 -13.6800 -13.6714
   -13.6685 -13.6524 -13.6523 -13.5941 -13.5361 -13.5180 -13.5096 -13.5066
   -12.6975 -12.6787 -12.5878 -12.5720 -12.5131 -12.4534 -12.4243 -12.3271
    -8.6012  -8.5904  -8.4084  -8.4050  -8.3942  -8.3017  -8.2906  -8.2138
    -8.1838  -8.1123  -8.0934  -8.0826  -8.0377  -8.0265  -8.0081  -7.9909
    -7.9900  -7.9879  -7.9793  -7.9763  -7.9663  -7.9546  -7.9509  -7.9417
    -7.9380  -7.9365  -7.9307  -7.9299  -7.9248  -7.9238  -7.9223  -7.9146
    -7.9105  -7.9072  -7.8957  -7.8954  -7.8922  -7.8910  -7.8891  -7.8846
    -7.8835  -7.8783  -7.8679  -7.8628  -7.8520  -7.8357  -7.8088  -7.7938
    -7.7876  -7.7870  -7.7858  -7.7763  -7.7740  -7.7534  -7.7525  -7.7461
    -7.7416  -7.7252  -7.6825  -7.6758  -7.6722  -7.6647  -7.6361  -7.6354
    -7.6245  -7.6076  -7.6023  -7.5890  -7.5871  -7.5760  -7.5672  -7.5497
    -7.5388  -7.5256  -7.5213  -7.5146  -7.5079  -7.4970  -7.4967  -7.4861
    -7.4788  -7.4581  -7.4531  -7.4277  -7.4187  -7.3970  -7.3466  -7.3233
    -7.3170  -7.2918  -7.2698  -7.2519  -7.2044  -7.1803  -7.0552  -7.0437
    -4.0553  -3.9943  -3.6202  -3.5598  -3.5288  -3.4438  -3.1668  -3.1486
    -3.1379  -3.1189  -3.0754  -3.0619  -2.9951  -2.9634  -2.9555  -2.9467
    -2.9260  -2.8674  -2.8345  -2.7944  -2.7529  -2.7323  -2.7183  -2.7126
    -2.7004  -2.6647  -2.6503  -2.6458  -2.6247  -2.5562  -2.5118  -2.4671
    -2.4104  -2.3993  -2.3971  -2.3876  -2.3875  -2.3722  -2.3597  -2.3594
    -2.3481  -2.3290  -2.3020  -2.2931  -2.2890  -2.2734  -2.2722  -2.2281
    -2.2172  -2.1579  -2.1460  -2.1242  -2.1147  -2.1107  -2.0902  -2.0805
    -2.0727  -2.0491  -2.0355  -2.0284  -2.0201  -2.0160  -2.0062  -1.9973
    -1.9970  -1.9882  -1.9873  -1.9758  -1.9606  -1.9565  -1.9496  -1.9491
    -1.9324  -1.8968  -1.8821  -1.8753  -1.8689  -1.8685  -1.8676  -1.8664
    -1.8628  -1.8614  -1.8580  -1.8485  -1.8395  -1.8354  -1.8223  -1.8185
    -1.8040  -1.7797  -1.7616  -1.7479  -1.7247  -1.7102  -1.6907  -1.6847
    -1.6668  -1.6637  -1.6474  -1.6320  -1.6277  -1.6145  -1.6133  -1.6001
    -1.5907  -1.5870  -1.5856  -1.5747  -1.5689  -1.5609  -1.5566  -1.5423
    -1.5376  -1.5345  -1.5200  -1.5141  -1.5076  -1.4620  -1.4431  -1.3841
    -1.3601  -1.3486  -1.3443  -1.3313  -1.3269  -1.3252  -1.2942  -1.2924
    -1.2853  -1.2776  -1.2775  -1.2664  -1.2482  -1.2405  -1.2291  -1.2088
    -1.1893  -1.1802  -1.1781  -1.1685  -1.1257  -1.1231  -1.1080  -1.0916
    -1.0812  -1.0553  -1.0496  -1.0119  -1.0018  -0.9660  -0.9605  -0.9218
    -0.9195  -0.9159  -0.9115  -0.9004  -0.8901  -0.8641  -0.8604  -0.8548
    -0.8326  -0.8185  -0.8176  -0.8079  -0.8042  -0.7995  -0.7900  -0.7836
    -0.7696  -0.7666  -0.7649  -0.7605  -0.7574  -0.7573  -0.7432  -0.7384
    -0.7323  -0.7270  -0.7117  -0.6950  -0.6891  -0.6825  -0.6803  -0.6743
    -0.6689  -0.6624  -0.6339  -0.6307  -0.6146  -0.6077  -0.6035  -0.5989
    -0.5980  -0.5942  -0.5806  -0.5691  -0.5660  -0.5567  -0.5435  -0.5345
    -0.5215  -0.5160  -0.5054  -0.4914  -0.4909  -0.4770  -0.4745  -0.4654
    -0.4500  -0.4336  -0.4166  -0.4086  -0.3911  -0.3829  -0.3824  -0.3691
    -0.3652  -0.3502  -0.3355  -0.3348  -0.3297  -0.3280  -0.2922  -0.2786
    -0.2615  -0.2520  -0.2453  -0.2355  -0.2167  -0.2069  -0.1915  -0.1842
    -0.1725  -0.1493  -0.1266  -0.1214  -0.1174  -0.1049  -0.0978  -0.0851
    -0.0658  -0.0646  -0.0570  -0.0496  -0.0345  -0.0335  -0.0173  -0.0081
    -0.0060  -0.0022   0.0022   0.0085   0.0133   0.0312   0.0331   0.0364
     0.0422   0.0446   0.0462   0.0583   0.0610   0.0621   0.0684   0.0736
     0.0816   0.0854   0.1004   0.1036   0.1131   0.1175   0.1208   0.1252
     0.1356   0.1370   0.1454   0.1494   0.1557   0.1639   0.1757   0.1809
     0.1830   0.1920   0.2240   0.2364   0.2459   0.2570   0.2946   0.3080
     0.3246   0.3548   0.3619   0.3676   0.3715   0.3819   0.3830   0.3937
     0.3984   0.4015   0.4026   0.4088   0.4169   0.4230   0.4270   0.4285
     0.4323   0.4442   0.4512   0.4531   0.4597   0.4609   0.4661   0.4702
     0.4783   0.4846   0.4953   0.4979   0.5071   0.5088   0.5182   0.5206
     0.5213   0.5332   0.5379   0.5425   0.5511   0.5564   0.5594   0.5709
     0.5756   0.5897   0.6000   0.6030   0.6046   0.6082   0.6285   0.6297
     0.6337   0.6378   0.6394   0.6407   0.6445   0.6500   0.6555   0.6652
     0.6673   0.6852   0.7004   0.7040   0.7061   0.7112   0.7222   0.7244
     0.7389   0.7579   0.7605   0.7639   0.7912   0.8019   0.8054   0.8126
     0.8296   0.8367   0.8447   0.8515   0.8672   0.8872   0.8956   0.9365
     0.9374   0.9593   0.9826   0.9863   1.0084   1.0102   1.0180   1.0234
     1.0305   1.0344   1.0413   1.0522   1.0680   1.0772   1.0860   1.0922
     1.0938   1.1005   1.1115   1.1198   1.1230   1.1323   1.1565   1.1607
     1.1756   1.1816   1.1832   1.1899   1.1969   1.2063   1.2169   1.2242
     1.2255   1.2338   1.2383   1.2434   1.2516   1.2582   1.2641   1.2660
     1.2734   1.2773   1.2786   1.2848   1.2882   1.2924   1.3048   1.3136
     1.3196   1.3293   1.3304   1.3349   1.3382   1.3425   1.3551   1.3610
     1.3639   1.3679   1.3714   1.3787   1.3846   1.3905   1.3931   1.3996
     1.4044   1.4060   1.4129   1.4207   1.4272   1.4389   1.4397   1.4431
     1.4473   1.4530   1.4541   1.4621   1.4670   1.4692   1.4749   1.4823
     1.4835   1.4863   1.4939   1.4995   1.5012   1.5093   1.5116   1.5164
     1.5221   1.5245   1.5265   1.5315   1.5412   1.5580   1.5659   1.5825
     1.5864   1.5978   1.5992   1.6069   1.6166   1.6321   1.6340   1.6376
     1.6410   1.6430   1.6573   1.6631   1.6698   1.6740   1.6745   1.6845
     1.6973   1.7043   1.7077   1.7227   1.7329   1.7341   1.7406   1.7434
     1.7514   1.7574   1.7669   1.7685   1.7735   1.7815   1.7836   1.7843
     1.7870   1.7914   1.7933   1.8066   1.8078   1.8197   1.8245   1.8336
     1.8394   1.8462   1.8575   1.8665   1.8672   1.8769   1.8796   1.8861
     1.8945   1.8955   1.9007   1.9044   1.9144   1.9217   1.9245   1.9258
     1.9270   1.9302   1.9325   1.9331   1.9458   1.9551   1.9600   1.9639
     1.9657   1.9785   1.9858   2.0003   2.0092   2.0121   2.0201   2.0258
     2.0261   2.0344   2.0555   2.0667   2.0693   2.0823   2.0869   2.0982
     2.1131   2.1402   2.1491   2.1726   2.1892   2.2063   2.2299   2.2411
     2.2954   2.3071   2.3117   2.3353   2.3385   2.3518   2.3642   2.3797
     2.3836   2.3959   2.3964   2.4055   2.4161   2.4311   2.4391   2.4407
     2.4556   2.4661   2.4966   2.5107   2.5316   2.5605   2.5725   2.5762
     2.5815   2.5902   2.5982   2.6185   2.6751   2.6804   2.6861   2.7029
     2.7105   2.7323   2.7407   2.7418   2.7504   2.7558   2.7683   2.7687
     2.7823   2.7855   2.7937   2.8061   2.8435   2.8554   2.8564   2.8780
     2.8825   2.8987   2.9012   2.9963   3.0030   3.0318   3.0446   3.0576
     3.0639   3.0818   3.1122   3.1126   3.1248   3.1287   3.1345   3.1423
     3.1508   3.1537   3.1701   3.1900   3.1980   3.2086   3.2201   3.2526
     3.2545   3.3171   3.3552   3.3805   3.3888   3.4041   3.4147   3.4490
     4.0123   4.0419   4.1314   4.1658   4.5441   4.5794   4.6344   4.6583
     5.4274   5.5505   5.5730   5.9058   6.0836   6.0959   6.1011   6.1381
     6.1490   6.1937   6.2284   6.4340   6.5702   6.5927   6.5974   6.6121
     6.6228   6.6339   6.6625   6.6772   6.7547   6.7720   6.8817   6.8941
     6.9119   6.9364   6.9543   6.9596   7.0416   7.0854   7.0870   7.1067
     7.2243   7.2709   7.2866   7.3466   7.3535   7.4133   7.4982   7.5647
     7.5944   7.6274   7.6342   7.6538   7.6585   7.6923   7.7069   7.7177
     7.7427   7.7529   7.7602   7.7929   7.8020   7.8247   7.8594   7.9166
     7.9209   7.9485   7.9746   7.9991   8.0113   8.0172   8.0769   8.1055
     8.1379   8.1754   8.2108   8.2491   8.2642   8.2762   8.2894   8.3027
     8.3519   8.4157   8.4387   8.4708   8.4901   8.5187   8.5308   8.5531
     8.5847   8.6098   8.6598   8.6725   8.6935   8.7019   8.7242   8.7468
     8.7507   8.7572   8.7680   8.7852   8.8014   8.8140   8.8238   8.8332
     8.8491   8.8529   8.8733   8.8860   8.8903   8.9077   8.9222   8.9320
     8.9544   8.9727   8.9941   9.0082   9.0149   9.0368   9.0466   9.0528
     9.0756   9.1012   9.1090   9.1184   9.1316   9.1522   9.1541   9.1697
     9.1843   9.2145   9.2315   9.2323   9.2772   9.2860   9.2909   9.2991
     9.3279   9.3350   9.3609   9.3687   9.3815   9.3951   9.4019   9.4060
     9.4270   9.4507   9.4679   9.4833   9.4927   9.5023   9.5159   9.5294
     9.5444   9.5508

          k = 0.0000 0.4779 0.0000 (280335 PWs)   bands (ev):

   -38.1433 -38.1164 -38.1146 -38.1097 -38.1071 -38.0926 -38.0918 -38.0789
   -38.0417 -38.0399 -38.0308 -38.0274 -38.0180 -38.0162 -35.6834 -35.6018
   -22.7125 -22.7010 -22.6826 -22.6721 -22.6712 -22.6607 -22.6359 -22.6245
   -22.6006 -22.5861 -22.5747 -22.5711 -22.5587 -22.5540 -22.5522 -22.5474
   -22.5407 -22.5302 -22.5266 -22.5244 -22.5188 -22.5084 -22.4938 -22.4502
   -22.4106 -22.3932 -22.3616 -22.3536 -22.3468 -22.3427 -22.2547 -22.0592
   -18.6870 -18.6827 -18.6464 -18.6175 -18.6127 -18.6094 -18.5878 -18.5871
   -18.5746 -18.5514 -18.5340 -18.5223 -18.5125 -18.4972 -18.4660 -18.4430
   -18.4368 -18.4300 -18.4275 -18.4186 -18.4028 -18.3689 -18.3571 -18.3507
   -18.3484 -18.3477 -18.3294 -18.3034 -18.2874 -18.2794 -18.2615 -18.2429
   -18.2345 -18.2297 -18.2120 -18.1918 -18.1738 -18.1601 -18.1546 -18.1199
   -18.0840 -18.0429 -16.9413 -16.9160 -16.9072 -16.8617 -16.8334 -16.8281
   -15.2870 -15.2361 -15.0738 -15.0218 -15.0184 -14.9696 -14.9028 -14.8543
   -14.8058 -14.7701 -14.6945 -14.6656 -14.6531 -14.6487 -14.6375 -14.6206
   -14.6193 -14.6070 -14.6034 -14.5975 -14.5744 -14.5644 -14.5589 -14.5386
   -14.5028 -14.4806 -14.4660 -14.4645 -14.4368 -14.4249 -14.4164 -14.4104
   -14.4100 -14.4075 -14.4054 -14.3963 -14.3812 -14.3761 -14.3681 -14.3661
   -14.3628 -14.3531 -14.3452 -14.3275 -14.3200 -14.3120 -14.3069 -14.3038
   -14.2992 -14.2920 -14.2910 -14.2789 -14.2781 -14.2519 -14.2242 -14.2103
   -14.1922 -14.1867 -14.1662 -14.1658 -14.1609 -14.1578 -14.1490 -14.1349
   -14.1342 -14.1216 -14.1121 -14.1111 -14.1048 -14.1035 -14.0904 -14.0859
   -14.0813 -14.0622 -14.0592 -14.0467 -14.0327 -14.0297 -14.0295 -14.0267
   -14.0192 -14.0179 -14.0029 -13.9840 -13.9766 -13.9663 -13.9615 -13.9317
   -13.7859 -13.7765 -13.7715 -13.7701 -13.7623 -13.7562 -13.7308 -13.7284
   -13.7171 -13.7162 -13.7122 -13.7121 -13.6860 -13.6806 -13.6743 -13.6699
   -13.6641 -13.6603 -13.6586 -13.5863 -13.5462 -13.5236 -13.5126 -13.4923
   -12.6657 -12.6194 -12.5576 -12.5540 -12.5160 -12.5106 -12.4718 -12.3813
    -8.4429  -8.4321  -8.3011  -8.2912  -8.2904  -8.2804  -8.2572  -8.2180
    -8.2069  -8.1269  -8.1147  -8.0405  -8.0318  -7.9981  -7.9879  -7.9861
    -7.9768  -7.9758  -7.9650  -7.9598  -7.9499  -7.9470  -7.9307  -7.9283
    -7.9179  -7.9174  -7.9061  -7.9036  -7.8989  -7.8951  -7.8950  -7.8917
    -7.8912  -7.8906  -7.8862  -7.8845  -7.8798  -7.8748  -7.8689  -7.8624
    -7.8619  -7.8512  -7.8460  -7.8161  -7.8052  -7.7990  -7.7958  -7.7936
    -7.7930  -7.7880  -7.7872  -7.7858  -7.7846  -7.7821  -7.7764  -7.7746
    -7.7653  -7.7493  -7.7487  -7.7413  -7.7305  -7.7198  -7.6994  -7.6981
    -7.6753  -7.6735  -7.6642  -7.6316  -7.6294  -7.5971  -7.5958  -7.5785
    -7.5741  -7.5640  -7.5253  -7.5216  -7.5140  -7.5104  -7.5024  -7.5011
    -7.4941  -7.4905  -7.4903  -7.4831  -7.4567  -7.4063  -7.4053  -7.3701
    -7.3513  -7.3152  -7.3136  -7.2778  -7.2653  -7.2283  -7.0620  -7.0536
    -3.8889  -3.8277  -3.6015  -3.5479  -3.5423  -3.4887  -3.3817  -3.2963
    -3.2222  -3.1769  -3.1730  -3.1527  -3.0945  -3.0647  -2.9375  -2.9289
    -2.9029  -2.8490  -2.7621  -2.6995  -2.6990  -2.6853  -2.6849  -2.6750
    -2.6056  -2.5959  -2.5652  -2.5495  -2.5312  -2.5171  -2.4555  -2.4373
    -2.4281  -2.4153  -2.3630  -2.3617  -2.3597  -2.3577  -2.3519  -2.3402
    -2.3381  -2.3371  -2.3179  -2.2967  -2.2928  -2.2757  -2.2478  -2.2460
    -2.2075  -2.2055  -2.2005  -2.1883  -2.1871  -2.1719  -2.1045  -2.0935
    -2.0897  -2.0801  -2.0203  -2.0159  -2.0126  -1.9867  -1.9726  -1.9711
    -1.9598  -1.9557  -1.9349  -1.9329  -1.9255  -1.9242  -1.9158  -1.9149
    -1.9045  -1.9001  -1.8976  -1.8889  -1.8871  -1.8778  -1.8772  -1.8742
    -1.8713  -1.8686  -1.8656  -1.8593  -1.8582  -1.8554  -1.8383  -1.8352
    -1.8226  -1.8215  -1.8099  -1.7756  -1.7605  -1.7591  -1.7139  -1.7110
    -1.7052  -1.6993  -1.6959  -1.6805  -1.6487  -1.6478  -1.6447  -1.6329
    -1.6310  -1.6269  -1.6164  -1.6128  -1.6073  -1.5971  -1.5863  -1.5846
    -1.5761  -1.5743  -1.5682  -1.5619  -1.5581  -1.5501  -1.5460  -1.5448
    -1.5345  -1.5115  -1.4907  -1.4571  -1.3880  -1.3549  -1.3111  -1.3014
    -1.2978  -1.2919  -1.2909  -1.2858  -1.2839  -1.2703  -1.2610  -1.2218
    -1.1521  -1.0845  -1.0399  -0.9994  -0.9713  -0.9311  -0.9234  -0.9196
    -0.9093  -0.9075  -0.8995  -0.8973  -0.8950  -0.8888  -0.8584  -0.8565
    -0.8548  -0.8544  -0.8481  -0.8298  -0.8207  -0.8100  -0.8043  -0.7951
    -0.7833  -0.7665  -0.7649  -0.7644  -0.7626  -0.7499  -0.7483  -0.7421
    -0.7414  -0.7324  -0.7238  -0.7154  -0.7125  -0.7122  -0.6975  -0.6895
    -0.6840  -0.6806  -0.6763  -0.6713  -0.6694  -0.6656  -0.6551  -0.6524
    -0.6492  -0.6470  -0.6403  -0.6167  -0.6114  -0.6097  -0.6065  -0.6027
    -0.5988  -0.5934  -0.5929  -0.5901  -0.5782  -0.5607  -0.5538  -0.5335
    -0.5277  -0.5091  -0.5020  -0.4514  -0.4490  -0.4284  -0.4278  -0.4188
    -0.4100  -0.4051  -0.4035  -0.4008  -0.3946  -0.3934  -0.3876  -0.3782
    -0.3758  -0.3726  -0.3291  -0.3279  -0.3086  -0.2992  -0.2961  -0.2743
    -0.2726  -0.2709  -0.2708  -0.2579  -0.2570  -0.2438  -0.2361  -0.2324
    -0.2098  -0.2037  -0.1976  -0.1913  -0.1642  -0.1615  -0.1362  -0.1284
    -0.1243  -0.1190  -0.1102  -0.1036  -0.0987  -0.0716  -0.0538  -0.0465
    -0.0322  -0.0211  -0.0097  -0.0092  -0.0075   0.0003   0.0007   0.0073
     0.0092   0.0109   0.0126   0.0315   0.0362   0.0447   0.0551   0.0593
     0.0680   0.0764   0.1117   0.1144   0.1330   0.1379   0.1400   0.1439
     0.1440   0.1455   0.1576   0.1622   0.1786   0.1886   0.2072   0.2075
     0.2111   0.2466   0.2693   0.2918   0.2922   0.2985   0.3069   0.3139
     0.3234   0.3246   0.3303   0.3334   0.3345   0.3369   0.3389   0.3500
     0.3554   0.3738   0.3746   0.3785   0.3843   0.4135   0.4186   0.4188
     0.4280   0.4546   0.4578   0.4665   0.4693   0.4747   0.4813   0.4911
     0.4932   0.4951   0.5055   0.5173   0.5368   0.5376   0.5424   0.5505
     0.5516   0.5535   0.5681   0.5742   0.5766   0.5823   0.5855   0.6023
     0.6125   0.6133   0.6153   0.6258   0.6275   0.6278   0.6331   0.6419
     0.6454   0.6480   0.6491   0.6576   0.6618   0.6859   0.6904   0.6936
     0.6982   0.6987   0.7004   0.7011   0.7108   0.7136   0.7139   0.7376
     0.7474   0.7533   0.7664   0.7724   0.7915   0.8154   0.8172   0.8249
     0.8319   0.8499   0.8625   0.8675   0.8879   0.8925   0.8978   0.9197
     0.9228   0.9244   0.9270   0.9382   0.9463   0.9562   0.9658   0.9663
     0.9671   0.9861   0.9918   1.0083   1.0324   1.0412   1.0496   1.0541
     1.0927   1.0949   1.1090   1.1334   1.1501   1.1597   1.1821   1.1895
     1.1917   1.1919   1.1961   1.2037   1.2039   1.2151   1.2190   1.2232
     1.2241   1.2318   1.2383   1.2420   1.2473   1.2518   1.2570   1.2653
     1.2681   1.2756   1.2939   1.3039   1.3071   1.3162   1.3242   1.3268
     1.3403   1.3422   1.3426   1.3456   1.3465   1.3508   1.3519   1.3610
     1.3617   1.3733   1.3761   1.3852   1.3899   1.3950   1.3966   1.4117
     1.4168   1.4174   1.4206   1.4219   1.4356   1.4382   1.4470   1.4572
     1.4670   1.4744   1.4854   1.4872   1.4942   1.4949   1.4996   1.5041
     1.5073   1.5107   1.5163   1.5223   1.5243   1.5446   1.5465   1.5535
     1.5685   1.5700   1.5713   1.5732   1.5766   1.5772   1.5864   1.5915
     1.6000   1.6090   1.6197   1.6202   1.6215   1.6286   1.6317   1.6440
     1.6479   1.6508   1.6541   1.6563   1.6591   1.6643   1.6644   1.6733
     1.6771   1.6824   1.6891   1.6904   1.7049   1.7102   1.7182   1.7201
     1.7337   1.7347   1.7387   1.7388   1.7472   1.7527   1.7663   1.7664
     1.7701   1.7789   1.7821   1.7852   1.8083   1.8095   1.8147   1.8178
     1.8306   1.8444   1.8478   1.8529   1.8583   1.8649   1.8680   1.8716
     1.9002   1.9045   1.9146   1.9160   1.9217   1.9314   1.9469   1.9539
     1.9541   1.9598   1.9652   1.9705   1.9721   1.9736   1.9803   1.9826
     1.9839   1.9933   1.9986   2.0007   2.0031   2.0067   2.0080   2.0084
     2.0152   2.0289   2.0313   2.0377   2.0393   2.0519   2.0616   2.0836
     2.0959   2.1120   2.1186   2.1224   2.1394   2.1580   2.1583   2.1742
     2.2054   2.2278   2.2808   2.2814   2.3118   2.3252   2.3351   2.3389
     2.3435   2.3486   2.3526   2.3555   2.3583   2.3602   2.4162   2.4189
     2.4260   2.4385   2.4564   2.4839   2.4972   2.5008   2.5020   2.5164
     2.5469   2.5520   2.5534   2.5552   2.5586   2.5721   2.6070   2.6410
     2.6580   2.6644   2.6646   2.6766   2.6782   2.6797   2.6827   2.7173
     2.7478   2.7578   2.7586   2.7702   2.8192   2.8427   2.8504   2.8553
     2.8774   2.8817   2.9566   2.9766   2.9886   3.0068   3.0342   3.0697
     3.0826   3.0844   3.1230   3.1240   3.1291   3.1311   3.1368   3.1421
     3.1836   3.2370   3.2435   3.2467   3.2731   3.3038   3.3177   3.3365
     3.3712   3.4072   3.4588   3.4937   3.6642   3.6787   3.6988   3.7130
     3.8404   3.8600   3.8766   3.8942   4.3611   4.3905   4.4412   4.4711
     5.7120   5.8859   5.9307   5.9458   6.0008   6.0509   6.0554   6.0634
     6.0676   6.2618   6.2786   6.3294   6.3414   6.4208   6.6820   6.7320
     6.7560   6.7651   6.7772   6.8450   6.8527   6.8529   6.8635   6.8702
     6.8729   6.8812   6.9923   7.0207   7.0373   7.0419   7.0478   7.1101
     7.1436   7.1973   7.2093   7.2171   7.2454   7.2655   7.3474   7.3767
     7.3844   7.4244   7.4420   7.5576   7.6701   7.6951   7.6961   7.7157
     7.7667   7.7847   7.8118   7.8264   7.8858   7.9078   7.9185   7.9728
     7.9738   7.9835   7.9901   8.0046   8.0188   8.0294   8.0421   8.0604
     8.0786   8.1085   8.1206   8.1555   8.2043   8.2433   8.2509   8.2597
     8.2748   8.3099   8.3521   8.3622   8.4357   8.4654   8.5013   8.5497
     8.5708   8.5796   8.5978   8.6148   8.6752   8.7114   8.7427   8.7481
     8.7756   8.8026   8.8052   8.8268   8.8420   8.8483   8.8510   8.8653
     8.8734   8.8927   8.8959   8.9259   8.9475   8.9512   8.9560   8.9563
     8.9729   8.9811   8.9948   9.0133   9.0307   9.0579   9.0664   9.0739
     9.1058   9.1243   9.1276   9.1596   9.1713   9.1919   9.2333   9.2517
     9.2592   9.2620   9.2790   9.2865   9.2937   9.3078   9.3386   9.3455
     9.3690   9.3803   9.3989   9.4040   9.4084   9.4620   9.4852   9.4908
     9.5260   9.5314   9.5377   9.5505   9.5564   9.5653   9.5659   9.5890
     9.6028   9.6125

          k =-0.4652-0.0000 0.0000 (280314 PWs)   bands (ev):

   -38.1433 -38.1170 -38.1137 -38.1097 -38.1074 -38.0930 -38.0914 -38.0789
   -38.0423 -38.0391 -38.0306 -38.0280 -38.0176 -38.0164 -35.6834 -35.6018
   -22.7185 -22.7071 -22.6726 -22.6612 -22.6609 -22.6531 -22.6499 -22.6419
   -22.6019 -22.5716 -22.5702 -22.5681 -22.5630 -22.5584 -22.5567 -22.5519
   -22.5495 -22.5281 -22.5235 -22.5223 -22.5194 -22.5121 -22.4829 -22.4512
   -22.4055 -22.3969 -22.3707 -22.3618 -22.3401 -22.3355 -22.2550 -22.0591
   -18.7227 -18.6504 -18.6485 -18.6446 -18.6202 -18.5930 -18.5774 -18.5719
   -18.5571 -18.5542 -18.5275 -18.5165 -18.5059 -18.4832 -18.4535 -18.4462
   -18.4460 -18.4415 -18.4271 -18.4224 -18.4177 -18.3765 -18.3714 -18.3543
   -18.3518 -18.3414 -18.3386 -18.3156 -18.2825 -18.2751 -18.2553 -18.2436
   -18.2384 -18.2344 -18.2074 -18.1864 -18.1648 -18.1646 -18.1635 -18.1114
   -18.0880 -18.0351 -16.9413 -16.9144 -16.9086 -16.8617 -16.8318 -16.8295
   -15.2798 -15.2278 -15.0923 -15.0402 -15.0210 -14.9746 -14.8875 -14.8438
   -14.7612 -14.7456 -14.7105 -14.7006 -14.6983 -14.6722 -14.6689 -14.6358
   -14.6039 -14.5966 -14.5729 -14.5610 -14.5512 -14.5402 -14.5294 -14.5221
   -14.5175 -14.5064 -14.4940 -14.4918 -14.4732 -14.4714 -14.4519 -14.4468
   -14.4233 -14.4108 -14.3981 -14.3826 -14.3597 -14.3561 -14.3487 -14.3402
   -14.3388 -14.3350 -14.3206 -14.3141 -14.3135 -14.3119 -14.3098 -14.2951
   -14.2815 -14.2678 -14.2661 -14.2468 -14.2466 -14.2270 -14.2101 -14.2094
   -14.1986 -14.1888 -14.1849 -14.1844 -14.1770 -14.1741 -14.1694 -14.1674
   -14.1517 -14.1461 -14.1323 -14.1192 -14.1144 -14.1084 -14.0943 -14.0887
   -14.0776 -14.0719 -14.0698 -14.0494 -14.0484 -14.0466 -14.0425 -14.0290
   -14.0074 -14.0032 -13.9995 -13.9868 -13.9788 -13.9258 -13.9256 -13.9231
   -13.7811 -13.7764 -13.7674 -13.7616 -13.7600 -13.7594 -13.7446 -13.7444
   -13.7277 -13.7097 -13.7062 -13.7061 -13.6948 -13.6910 -13.6737 -13.6670
   -13.6621 -13.6572 -13.6506 -13.5861 -13.5578 -13.5202 -13.5090 -13.4899
   -12.6507 -12.6360 -12.5648 -12.5641 -12.5031 -12.5028 -12.4661 -12.3887
    -8.4980  -8.4873  -8.3149  -8.2181  -8.2124  -8.2088  -8.2070  -8.2016
    -8.1978  -8.0754  -8.0578  -8.0535  -8.0473  -8.0155  -8.0098  -7.9967
    -7.9849  -7.9723  -7.9612  -7.9610  -7.9509  -7.9489  -7.9385  -7.9367
    -7.9336  -7.9228  -7.9194  -7.9161  -7.9105  -7.9072  -7.9048  -7.9047
    -7.8967  -7.8938  -7.8931  -7.8923  -7.8916  -7.8856  -7.8849  -7.8828
    -7.8798  -7.8736  -7.8715  -7.8685  -7.8618  -7.8589  -7.8488  -7.8407
    -7.8387  -7.8308  -7.7916  -7.7910  -7.7824  -7.7509  -7.7467  -7.7463
    -7.7442  -7.7244  -7.7218  -7.7129  -7.6877  -7.6837  -7.6816  -7.6767
    -7.6732  -7.6476  -7.6368  -7.6113  -7.5956  -7.5846  -7.5789  -7.5532
    -7.5516  -7.5495  -7.5414  -7.5323  -7.5303  -7.5294  -7.5229  -7.5214
    -7.5120  -7.4799  -7.4787  -7.4636  -7.4572  -7.4301  -7.4255  -7.3789
    -7.3301  -7.3145  -7.2959  -7.2768  -7.2476  -7.2237  -7.0674  -7.0636
    -3.9335  -3.8750  -3.5151  -3.4613  -3.4541  -3.4385  -3.4078  -3.3754
    -3.3541  -3.3290  -3.0973  -3.0724  -3.0450  -3.0114  -2.9868  -2.9544
    -2.8275  -2.8132  -2.7879  -2.7735  -2.7518  -2.7313  -2.7242  -2.6974
    -2.6811  -2.6777  -2.6616  -2.6483  -2.6295  -2.5462  -2.5339  -2.5220
    -2.4636  -2.4383  -2.3302  -2.3240  -2.2949  -2.2650  -2.2569  -2.2559
    -2.2458  -2.2432  -2.2432  -2.2403  -2.2235  -2.2230  -2.1656  -2.1605
    -2.1540  -2.1216  -2.0958  -2.0882  -2.0438  -2.0356  -2.0320  -2.0303
    -2.0278  -2.0156  -1.9905  -1.9836  -1.9799  -1.9755  -1.9710  -1.9690
    -1.9626  -1.9504  -1.9463  -1.9419  -1.9308  -1.9263  -1.9180  -1.9115
    -1.9040  -1.8936  -1.8824  -1.8729  -1.8686  -1.8639  -1.8608  -1.8604
    -1.8325  -1.8281  -1.8266  -1.8211  -1.8059  -1.7898  -1.7893  -1.7848
    -1.7827  -1.7790  -1.7774  -1.7765  -1.7721  -1.7650  -1.7571  -1.7567
    -1.7543  -1.7400  -1.7311  -1.7278  -1.7123  -1.7091  -1.7053  -1.6942
    -1.6837  -1.6746  -1.6708  -1.6644  -1.6570  -1.6472  -1.6424  -1.6263
    -1.6242  -1.6218  -1.6098  -1.6037  -1.5958  -1.5916  -1.5770  -1.5737
    -1.5712  -1.5653  -1.5585  -1.5520  -1.5444  -1.5247  -1.5054  -1.5019
    -1.4943  -1.4781  -1.4665  -1.3940  -1.2504  -1.2131  -1.1873  -1.1868
    -1.1596  -1.1277  -1.0794  -0.9837  -0.9801  -0.9571  -0.9564  -0.9322
    -0.9069  -0.8882  -0.8878  -0.8758  -0.8657  -0.8543  -0.8513  -0.8480
    -0.8405  -0.8371  -0.8308  -0.8218  -0.8194  -0.8091  -0.8065  -0.7997
    -0.7819  -0.7666  -0.7534  -0.7451  -0.7385  -0.7347  -0.7295  -0.7291
    -0.7220  -0.7095  -0.6969  -0.6838  -0.6799  -0.6695  -0.6691  -0.6654
    -0.6587  -0.6515  -0.6488  -0.6454  -0.6425  -0.6346  -0.6305  -0.6297
    -0.6185  -0.6131  -0.6124  -0.6082  -0.5950  -0.5809  -0.5802  -0.5629
    -0.5623  -0.5462  -0.5383  -0.5356  -0.5167  -0.5086  -0.5018  -0.4941
    -0.4931  -0.4859  -0.4784  -0.4782  -0.4661  -0.4622  -0.4529  -0.4414
    -0.4324  -0.4157  -0.3919  -0.3670  -0.3611  -0.3352  -0.3348  -0.3312
    -0.3273  -0.3259  -0.3229  -0.3163  -0.3085  -0.2886  -0.2572  -0.2504
    -0.2500  -0.2486  -0.2410  -0.2315  -0.2308  -0.2242  -0.2242  -0.2227
    -0.2200  -0.2118  -0.2063  -0.2062  -0.2039  -0.1943  -0.1822  -0.1791
    -0.1400  -0.1139  -0.1135  -0.1064  -0.1011  -0.0947  -0.0845  -0.0706
    -0.0684  -0.0633  -0.0631  -0.0621  -0.0559  -0.0543  -0.0357  -0.0344
    -0.0183  -0.0154  -0.0149  -0.0038   0.0010   0.0049   0.0061   0.0307
     0.0339   0.0449   0.0683   0.0995   0.1250   0.1303   0.1317   0.1394
     0.1422   0.1692   0.1714   0.1767   0.1802   0.1892   0.1896   0.2318
     0.2430   0.2449   0.2531   0.2937   0.3008   0.3025   0.3060   0.3239
     0.3240   0.3372   0.3538   0.3547   0.3572   0.3674   0.3793   0.3829
     0.3859   0.3925   0.3978   0.4040   0.4116   0.4263   0.4273   0.4314
     0.4502   0.4511   0.4684   0.4760   0.4775   0.4836   0.4926   0.4945
     0.4946   0.4961   0.4964   0.5042   0.5259   0.5262   0.5330   0.5364
     0.5425   0.5466   0.5551   0.5626   0.5660   0.5720   0.5815   0.5877
     0.5938   0.6001   0.6013   0.6165   0.6208   0.6227   0.6240   0.6326
     0.6420   0.6445   0.6509   0.6568   0.6582   0.6663   0.6733   0.6811
     0.6869   0.6905   0.7035   0.7153   0.7189   0.7243   0.7292   0.7315
     0.7502   0.7673   0.7689   0.7867   0.7881   0.8058   0.8257   0.8474
     0.8586   0.8690   0.8824   0.8852   0.8915   0.9028   0.9055   0.9072
     0.9159   0.9252   0.9258   0.9295   0.9364   0.9500   0.9545   0.9724
     0.9777   0.9805   0.9821   1.0007   1.0078   1.0204   1.0489   1.0536
     1.0967   1.1087   1.1232   1.1381   1.1460   1.1484   1.1617   1.1647
     1.1653   1.1780   1.1839   1.1962   1.2011   1.2054   1.2317   1.2366
[...]
     atom   61 type  5   force =     0.00000000    0.00000000   -0.00452757
     atom   62 type  5   force =     0.00000000    0.00000000   -0.00452757
     atom   63 type  5   force =     0.00000000    0.00032267   -0.00473851
     atom   64 type  5   force =     0.00000000   -0.00032267   -0.00473851
     atom   65 type  4   force =    -0.00046138   -0.00015712    0.00326401
     atom   66 type  4   force =    -0.00046138    0.00015712    0.00326401
     atom   67 type  4   force =     0.00046138   -0.00015712    0.00326401
     atom   68 type  4   force =     0.00046138    0.00015712    0.00326401
     atom   69 type  4   force =     0.00000000   -0.00009338    0.00286699
     atom   70 type  4   force =     0.00000000    0.00009338    0.00286699
     atom   71 type  4   force =     0.00001714   -0.00018737    0.00489050
     atom   72 type  4   force =     0.00001714    0.00018737    0.00489050
     atom   73 type  4   force =    -0.00001714    0.00018737    0.00489050
     atom   74 type  4   force =    -0.00001714   -0.00018737    0.00489050
     atom   75 type  4   force =     0.00033813    0.00000000    0.00539126
     atom   76 type  4   force =    -0.00033813    0.00000000    0.00539126
     atom   77 type  4   force =     0.00000000   -0.00102707    0.00428517
     atom   78 type  4   force =     0.00000000    0.00102707    0.00428517
     atom   79 type  4   force =     0.00094432    0.00000000    0.00485002
     atom   80 type  4   force =    -0.00094432    0.00000000    0.00485002
     atom   81 type  3   force =    -0.00018847    0.00003638   -0.00141460
     atom   82 type  3   force =    -0.00018847   -0.00003638   -0.00141460
     atom   83 type  3   force =     0.00018847    0.00003638   -0.00141460
     atom   84 type  3   force =     0.00018847   -0.00003638   -0.00141460
     atom   85 type  3   force =    -0.00013788    0.00010225   -0.00225873
     atom   86 type  3   force =     0.00013788    0.00010225   -0.00225873
     atom   87 type  3   force =     0.00013788   -0.00010225   -0.00225873
     atom   88 type  3   force =    -0.00013788   -0.00010225   -0.00225873
     atom   89 type  1   force =     0.00000000    0.00000000    0.00733004
     atom   90 type  1   force =     0.00000000   -0.00051322    0.01406167
     atom   91 type  1   force =     0.00000000    0.00051322    0.01406167
     atom   92 type  1   force =     0.00087907    0.00000000    0.01275262
     atom   93 type  1   force =    -0.00087907    0.00000000    0.01275262
     atom   94 type  1   force =     0.00000000    0.00000000    0.01559053
     atom   95 type  1   force =     0.00000000    0.00000000    0.01559053
     atom   96 type  1   force =     0.00000000    0.00000000    0.01585848
     atom   97 type  4   force =     0.00063804    0.00034474   -0.01512547
     atom   98 type  4   force =     0.00063804   -0.00034474   -0.01512547
     atom   99 type  4   force =    -0.00063804    0.00034474   -0.01512547
     atom  100 type  4   force =    -0.00063804   -0.00034474   -0.01512547
     atom  101 type  4   force =    -0.00231369   -0.00053762   -0.01545554
     atom  102 type  4   force =     0.00231369   -0.00053762   -0.01545554
     atom  103 type  4   force =     0.00231369    0.00053762   -0.01545554
     atom  104 type  4   force =    -0.00231369    0.00053762   -0.01545554
     atom  105 type  4   force =     0.00659649    0.00000000    0.02433676
     atom  106 type  4   force =    -0.00659649    0.00000000    0.02433676
     atom  107 type  3   force =    -0.01048430   -0.00292452   -0.00851006
     atom  108 type  3   force =    -0.01048430    0.00292452   -0.00851006
     atom  109 type  3   force =     0.01048430    0.00292452   -0.00851006
     atom  110 type  3   force =     0.01048430   -0.00292452   -0.00851006
     atom  111 type  3   force =    -0.00442083   -0.00041838   -0.01046259
     atom  112 type  3   force =     0.00442083    0.00041838   -0.01046259
     atom  113 type  3   force =    -0.00442083    0.00041838   -0.01046259
     atom  114 type  3   force =     0.00442083   -0.00041838   -0.01046259
     atom  115 type  4   force =     0.00143256   -0.00029189    0.02144411
     atom  116 type  4   force =    -0.00143256   -0.00029189    0.02144411
     atom  117 type  4   force =     0.00143256    0.00029189    0.02144411
     atom  118 type  4   force =    -0.00143256    0.00029189    0.02144411
     atom  119 type  4   force =    -0.01344949    0.00000000    0.02600253
     atom  120 type  4   force =     0.01344949    0.00000000    0.02600253
     atom  121 type  4   force =     0.00614516    0.00650633    0.01559331
     atom  122 type  4   force =    -0.00614516    0.00650633    0.01559331
     atom  123 type  4   force =    -0.00614516   -0.00650633    0.01559331
     atom  124 type  4   force =     0.00614516   -0.00650633    0.01559331
     atom  125 type  4   force =    -0.00179390    0.00067360    0.01530429
     atom  126 type  4   force =    -0.00179390   -0.00067360    0.01530429
     atom  127 type  4   force =     0.00179390    0.00067360    0.01530429
     atom  128 type  4   force =     0.00179390   -0.00067360    0.01530429
     atom  129 type  1   force =     0.00000000    0.00000000   -0.01769957
     atom  130 type  1   force =     0.00000000    0.00000000   -0.01476182
     atom  131 type  1   force =     0.00000000    0.00000000   -0.01476182
     atom  132 type  1   force =    -0.00515190    0.00000000   -0.01976626
     atom  133 type  1   force =     0.00515190    0.00000000   -0.01976626
     atom  134 type  1   force =     0.00000000   -0.00439440   -0.01437554
     atom  135 type  1   force =     0.00000000    0.00439440   -0.01437554
     atom  136 type  1   force =     0.00000000    0.00000000   -0.02231983
     atom  137 type  3   force =     0.00023388    0.00107495   -0.01988589
     atom  138 type  3   force =     0.00023388   -0.00107495   -0.01988589
     atom  139 type  3   force =    -0.00023388   -0.00107495   -0.01988589
     atom  140 type  3   force =    -0.00023388    0.00107495   -0.01988589
     atom  141 type  3   force =    -0.00156584    0.00083073   -0.02042737
     atom  142 type  3   force =    -0.00156584   -0.00083073   -0.02042737
     atom  143 type  3   force =     0.00156584    0.00083073   -0.02042737
     atom  144 type  3   force =     0.00156584   -0.00083073   -0.02042737
     atom  145 type  4   force =    -0.00235729    0.00000000    0.00354729
     atom  146 type  4   force =     0.00235729    0.00000000    0.00354729
     atom  147 type  4   force =     0.00000000   -0.00185591    0.00578606
     atom  148 type  4   force =     0.00000000    0.00185591    0.00578606
     atom  149 type  4   force =    -0.00033664    0.00000000    0.00008959
     atom  150 type  4   force =     0.00033664    0.00000000    0.00008959
     atom  151 type  4   force =    -0.00069780   -0.00002387    0.00224519
     atom  152 type  4   force =     0.00069780   -0.00002387    0.00224519
     atom  153 type  4   force =     0.00069780    0.00002387    0.00224519
     atom  154 type  4   force =    -0.00069780    0.00002387    0.00224519
     atom  155 type  4   force =     0.00000000   -0.00195991    0.00375226
     atom  156 type  4   force =     0.00000000    0.00195991    0.00375226
     atom  157 type  4   force =    -0.00014694    0.00031169    0.00420408
     atom  158 type  4   force =     0.00014694   -0.00031169    0.00420408
     atom  159 type  4   force =    -0.00014694   -0.00031169    0.00420408
     atom  160 type  4   force =     0.00014694    0.00031169    0.00420408
     atom  161 type  2   force =     0.00000000    0.00000000   -0.00134730
     atom  162 type  5   force =    -0.00022237    0.00000000   -0.00002856
     atom  163 type  5   force =     0.00022237    0.00000000   -0.00002856
     atom  164 type  5   force =     0.00000000    0.00000000    0.00068767
     atom  165 type  5   force =     0.00000000    0.00000000   -0.00025545
     atom  166 type  5   force =     0.00000000    0.00000000   -0.00025545
     atom  167 type  5   force =     0.00000000   -0.00054257   -0.00065971
     atom  168 type  5   force =     0.00000000    0.00054257   -0.00065971
     atom  169 type  4   force =    -0.00024344   -0.00002321    0.00030732
     atom  170 type  4   force =    -0.00024344    0.00002321    0.00030732
     atom  171 type  4   force =     0.00024344   -0.00002321    0.00030732
     atom  172 type  4   force =     0.00024344    0.00002321    0.00030732
     atom  173 type  4   force =     0.00000000    0.00017774    0.00044345
     atom  174 type  4   force =     0.00000000   -0.00017774    0.00044345
     atom  175 type  4   force =    -0.00002959   -0.00003447   -0.00019864
     atom  176 type  4   force =    -0.00002959    0.00003447   -0.00019864
     atom  177 type  4   force =     0.00002959    0.00003447   -0.00019864
     atom  178 type  4   force =     0.00002959   -0.00003447   -0.00019864
     atom  179 type  4   force =    -0.00006212    0.00000000   -0.00054024
     atom  180 type  4   force =     0.00006212    0.00000000   -0.00054024
     atom  181 type  4   force =     0.00000000   -0.00011860    0.00023692
     atom  182 type  4   force =     0.00000000    0.00011860    0.00023692
     atom  183 type  4   force =    -0.00011580    0.00000000   -0.00016286
     atom  184 type  4   force =     0.00011580    0.00000000   -0.00016286
     atom  185 type  3   force =     0.00004412   -0.00003807    0.00032516
     atom  186 type  3   force =     0.00004412    0.00003807    0.00032516
     atom  187 type  3   force =    -0.00004412   -0.00003807    0.00032516
     atom  188 type  3   force =    -0.00004412    0.00003807    0.00032516
     atom  189 type  3   force =     0.00002795    0.00006498    0.00033547
     atom  190 type  3   force =    -0.00002795    0.00006498    0.00033547
     atom  191 type  3   force =    -0.00002795   -0.00006498    0.00033547
     atom  192 type  3   force =     0.00002795   -0.00006498    0.00033547
     atom  193 type  1   force =     0.00000000    0.00000000    0.00018426
     atom  194 type  1   force =     0.00000000   -0.00005056    0.00034848
     atom  195 type  1   force =     0.00000000    0.00005056    0.00034848
     atom  196 type  1   force =     0.00024460    0.00000000    0.00010906
     atom  197 type  1   force =    -0.00024460    0.00000000    0.00010906
     atom  198 type  1   force =     0.00000000    0.00000000    0.00021460
     atom  199 type  1   force =     0.00000000    0.00000000    0.00021460
     atom  200 type  1   force =     0.00000000    0.00000000    0.00016829
     atom  201 type  4   force =     0.00004679    0.00007471   -0.00203824
     atom  202 type  4   force =     0.00004679   -0.00007471   -0.00203824
     atom  203 type  4   force =    -0.00004679    0.00007471   -0.00203824
     atom  204 type  4   force =    -0.00004679   -0.00007471   -0.00203824
     atom  205 type  4   force =     0.00003369    0.00005071   -0.00177215
     atom  206 type  4   force =    -0.00003369    0.00005071   -0.00177215
     atom  207 type  4   force =    -0.00003369   -0.00005071   -0.00177215
     atom  208 type  4   force =     0.00003369   -0.00005071   -0.00177215
     atom  209 type  4   force =     0.00008168    0.00000000   -0.00021258
     atom  210 type  4   force =    -0.00008168    0.00000000   -0.00021258
     atom  211 type  3   force =     0.00008571   -0.00005604    0.00067858
     atom  212 type  3   force =     0.00008571    0.00005604    0.00067858
     atom  213 type  3   force =    -0.00008571    0.00005604    0.00067858
     atom  214 type  3   force =    -0.00008571   -0.00005604    0.00067858
     atom  215 type  3   force =    -0.00000360   -0.00002106    0.00088439
     atom  216 type  3   force =     0.00000360    0.00002106    0.00088439
     atom  217 type  3   force =    -0.00000360    0.00002106    0.00088439
     atom  218 type  3   force =     0.00000360   -0.00002106    0.00088439
     atom  219 type  4   force =    -0.00010549    0.00018019   -0.00017159
     atom  220 type  4   force =     0.00010549    0.00018019   -0.00017159
     atom  221 type  4   force =    -0.00010549   -0.00018019   -0.00017159
     atom  222 type  4   force =     0.00010549   -0.00018019   -0.00017159
     atom  223 type  4   force =    -0.00012908    0.00000000   -0.00011411
     atom  224 type  4   force =     0.00012908    0.00000000   -0.00011411

     Total force =     0.135533     Total SCF correction =     0.000171


     Computing stress (Cartesian axis) and pressure


     negative rho (up, down):  6.349E-01 0.000E+00
          total   stress  (Ry/bohr**3)                   (kbar)     P=       -7.13
  -0.00000413   0.00000000   0.00000000           -0.61        0.00        0.00
  -0.00000000  -0.00009154   0.00000000           -0.00      -13.47        0.00
   0.00000000   0.00000000  -0.00004981            0.00        0.00       -7.33

 
     init_run     :     54.53s CPU     57.23s WALL (       1 calls)
     electrons    :   4079.00s CPU   4262.58s WALL (       1 calls)
     forces       :     32.29s CPU     34.33s WALL (       1 calls)
     stress       :    382.40s CPU    386.76s WALL (       1 calls)

     Called by init_run:
     wfcinit      :     42.98s CPU     44.39s WALL (       1 calls)
     potinit      :      1.61s CPU      1.64s WALL (       1 calls)
     hinit0       :      3.02s CPU      3.06s WALL (       1 calls)

     Called by electrons:
     c_bands      :   3441.14s CPU   3519.91s WALL (      40 calls)
     sum_band     :    453.21s CPU    510.66s WALL (      40 calls)
     v_of_rho     :      9.97s CPU     10.10s WALL (      41 calls)
     newd         :     69.60s CPU    117.19s WALL (      41 calls)
     mix_rho      :    105.99s CPU    106.69s WALL (      40 calls)

     Called by c_bands:
     init_us_2    :     12.24s CPU     12.57s WALL (     332 calls)
     cegterg      :   3361.42s CPU   3436.45s WALL (     160 calls)

     Called by sum_band:
     sum_band:bec :      3.62s CPU      3.63s WALL (     160 calls)
     addusdens    :     72.61s CPU    126.33s WALL (      40 calls)

     Called by *egterg:
     h_psi        :   1401.28s CPU   1429.16s WALL (    1001 calls)
     s_psi        :    414.04s CPU    424.48s WALL (    1001 calls)
     g_psi        :      1.95s CPU      1.97s WALL (     837 calls)
     cdiaghg      :    649.84s CPU    652.55s WALL (     997 calls)

     Called by h_psi:
     h_psi:calbec :    450.78s CPU    453.18s WALL (    1001 calls)
     vloc_psi     :    532.65s CPU    539.78s WALL (    1001 calls)
     add_vuspsi   :    414.59s CPU    425.28s WALL (    1001 calls)

     General routines
     calbec       :    693.40s CPU    696.69s WALL (    1181 calls)
     fft          :     10.08s CPU     10.16s WALL (     556 calls)
     ffts         :     65.90s CPU     66.32s WALL (   28544 calls)
     fftw         :    588.72s CPU    596.39s WALL (  907680 calls)
     interpolate  :      0.88s CPU      0.88s WALL (      41 calls)
 
     Parallel routines
     fft_scatt_xy :     88.83s CPU     89.94s WALL (  936780 calls)
     fft_scatt_yz :    356.21s CPU    360.92s WALL (  936780 calls)
 
     PWSCF        :      1h15m CPU      1h19m WALL

 
   This run was terminated on:  19:19:24  17May2021            

=------------------------------------------------------------------------------=
   JOB DONE.
=------------------------------------------------------------------------------=
[1621293564.750338] [holy7c08611:52575:0]          mpool.c:43   UCX  WARN  object 0x3531d80 was not returned to mpool ucp_requests
[1621293564.753552] [holy7c10110:168150:0]          mpool.c:43   UCX  WARN  object 0x37dc280 was not returned to mpool ucp_requests
[1621293564.758197] [holy7c10109:223708:0]          mpool.c:43   UCX  WARN  object 0x604c0c0 was not returned to mpool ucp_requests
[1621293564.756563] [holy7c08610:28087:0]          mpool.c:43   UCX  WARN  object 0x44ddb00 was not returned to mpool ucp_requests
[1621293564.756125] [holy7c08610:28094:0]          mpool.c:43   UCX  WARN  object 0x3eb5740 was not returned to mpool ucp_requests
[1621293564.756651] [holy7c08610:28089:0]          mpool.c:43   UCX  WARN  object 0x361df80 was not returned to mpool ucp_requests
[1621293564.760130] [holy7c08610:28088:0]          mpool.c:43   UCX  WARN  object 0x3b20740 was not returned to mpool ucp_requests
[1621293564.768974] [holy7c08610:28096:0]          mpool.c:43   UCX  WARN  object 0x62d8fc0 was not returned to mpool ucp_requests
[1621293564.769006] [holy7c08610:28096:0]          mpool.c:43   UCX  WARN  object 0x40da940 was not returned to mpool ucp_requests
[1621293564.769129] [holy7c08610:28095:0]          mpool.c:43   UCX  WARN  object 0x4786f40 was not returned to mpool ucp_requests
[1621293564.769056] [holy7c08610:28097:0]          mpool.c:43   UCX  WARN  object 0x35c6100 was not returned to mpool ucp_requests
[1621293564.756855] [holy7c08611:52580:0]          mpool.c:43   UCX  WARN  object 0x2fbf0c0 was not returned to mpool ucp_requests
[1621293564.757639] [holy7c08611:52572:0]          mpool.c:43   UCX  WARN  object 0x2b06040 was not returned to mpool ucp_requests
[1621293564.755311] [holy7c08611:52574:0]          mpool.c:43   UCX  WARN  object 0x45f1bc0 was not returned to mpool ucp_requests
[1621293564.759930] [holy7c08611:52573:0]          mpool.c:43   UCX  WARN  object 0x444fe80 was not returned to mpool ucp_requests
[1621293564.766048] [holy7c08611:52583:0]          mpool.c:43   UCX  WARN  object 0x33d8b40 was not returned to mpool ucp_requests
[1621293564.766072] [holy7c08611:52583:0]          mpool.c:43   UCX  WARN  object 0x33df7c0 was not returned to mpool ucp_requests
[1621293564.766529] [holy7c08611:52581:0]          mpool.c:43   UCX  WARN  object 0x2d2af80 was not returned to mpool ucp_requests
[1621293564.772922] [holy7c08611:52582:0]          mpool.c:43   UCX  WARN  object 0x349c2c0 was not returned to mpool ucp_requests
[1621293564.759920] [holy7c10110:168152:0]          mpool.c:43   UCX  WARN  object 0x31d1580 was not returned to mpool ucp_requests
[1621293564.757633] [holy7c10110:168160:0]          mpool.c:43   UCX  WARN  object 0x3b4ed40 was not returned to mpool ucp_requests
[1621293564.767904] [holy7c10110:168158:0]          mpool.c:43   UCX  WARN  object 0x348d180 was not returned to mpool ucp_requests
[1621293564.766882] [holy7c10110:168151:0]          mpool.c:43   UCX  WARN  object 0x42b00c0 was not returned to mpool ucp_requests
[1621293564.764752] [holy7c10110:168153:0]          mpool.c:43   UCX  WARN  object 0x2d98380 was not returned to mpool ucp_requests
[1621293564.765983] [holy7c10110:168159:0]          mpool.c:43   UCX  WARN  object 0x3f94340 was not returned to mpool ucp_requests
[1621293564.771278] [holy7c10110:168161:0]          mpool.c:43   UCX  WARN  object 0x4128e80 was not returned to mpool ucp_requests
[1621293564.758126] [holy7c10109:223707:0]          mpool.c:43   UCX  WARN  object 0x40968c0 was not returned to mpool ucp_requests
[1621293564.760167] [holy7c10109:223714:0]          mpool.c:43   UCX  WARN  object 0x3588240 was not returned to mpool ucp_requests
[1621293564.767332] [holy7c10109:223705:0]          mpool.c:43   UCX  WARN  object 0x306e3c0 was not returned to mpool ucp_requests
[1621293564.764213] [holy7c10109:223706:0]          mpool.c:43   UCX  WARN  object 0x44db600 was not returned to mpool ucp_requests
[1621293564.764239] [holy7c10109:223706:0]          mpool.c:43   UCX  WARN  object 0x44dfa40 was not returned to mpool ucp_requests
[1621293564.768043] [holy7c10109:223713:0]          mpool.c:43   UCX  WARN  object 0x470f180 was not returned to mpool ucp_requests
[1621293564.768214] [holy7c10109:223716:0]          mpool.c:43   UCX  WARN  object 0x317c940 was not returned to mpool ucp_requests
[1621293564.772200] [holy7c10109:223715:0]          mpool.c:43   UCX  WARN  object 0x2b74980 was not returned to mpool ucp_requests
