
     Program PWSCF v.6.5 starts on 17May2021 at 12:37:45 

     This program is part of the open-source Quantum ESPRESSO suite
     for quantum simulation of materials; please cite
         "P. Giannozzi et al., J. Phys.:Condens. Matter 21 395502 (2009);
         "P. Giannozzi et al., J. Phys.:Condens. Matter 29 465901 (2017);
          URL http://www.quantum-espresso.org", 
     in publications or presentations arising from this work. More details at
     http://www.quantum-espresso.org/quote

     Parallel version (MPI), running on    80 processors

     MPI processes distributed on     5 nodes
     R & G space division:  proc/nbgrp/npool/nimage =      80
     Reading input from YBCO_Y_cleave_0.5_sep.pwi
Warning: card &IONS ignored
Warning: card     ION_DYNAMICS = 'BFGS' ignored
Warning: card / ignored
Warning: card &CELL ignored
Warning: card     CELL_DYNAMICS = 'BFGS' ignored
Warning: card     PRESS_CONV_THR = 5 ignored
Warning: card / ignored

     Current dimensions of program PWSCF are:
     Max number of different atomic species (ntypx) = 10
     Max number of k-points (npk) =  40000
     Max angular momentum in pseudopotentials (lmaxx) =  3
     Message from routine volume:
     axis vectors are left-handed

     Subspace diagonalization in iterative solution of the eigenvalue problem:
     one sub-group per band group will be used
     scalapack distributed-memory algorithm (size of sub-group:  8*  8 procs)

     Message from routine setup:
     using ibrav=0 with symmetry is DISCOURAGED, use correct ibrav instead
 
     Parallelization info
     --------------------
     sticks:   dense  smooth     PW     G-vecs:    dense   smooth      PW
     Min         300     100     25               142438    27410    3599
     Max         301     101     26               142473    27431    3636
     Sum       24079    8031   2067             11396989  2193539  289955
 


     bravais-lattice index     =            0
     lattice parameter (alat)  =      20.5021  a.u.
     unit-cell volume          =   34932.4146 (a.u.)^3
     number of atoms/cell      =          224
     number of atomic types    =            5
     number of electrons       =      1830.00
     number of Kohn-Sham states=         1098
     kinetic-energy cutoff     =      60.0000  Ry
     charge density cutoff     =     720.0000  Ry
     convergence threshold     =      1.0E-08
     mixing beta               =       0.5000
     number of iterations used =           10  local-TF  mixing
     Exchange-correlation= SLA PW PBE PBE
                           (   1   4   3   4   0   0   0)

     celldm(1)=  20.502120  celldm(2)=   0.000000  celldm(3)=   0.000000
     celldm(4)=   0.000000  celldm(5)=   0.000000  celldm(6)=   0.000000

     crystal axes: (cart. coord. in units of alat)
               a(1) = (  -0.716599   0.697485   0.000000 )  
               a(2) = (   0.716599   0.697485   0.000000 )  
               a(3) = (   0.000000   0.000000   4.055001 )  

     reciprocal axes: (cart. coord. in units 2 pi/alat)
               b(1) = ( -0.697740  0.716861  0.000000 )  
               b(2) = (  0.697740  0.716861  0.000000 )  
               b(3) = (  0.000000  0.000000  0.246609 )  


     PseudoPot. # 1 for Ba read from file:
     ./pseudo/Ba.pbe-nsp-van.UPF
     MD5 check sum: 2b9c31dd849566dd297d80989662b7a0
     Pseudo is Ultrasoft + core correction, Zval = 10.0
     Generated by new atomic code, or converted to UPF format
     Using radial grid of  907 points,  6 beta functions with: 
                l(1) =   0
                l(2) =   0
                l(3) =   1
                l(4) =   1
                l(5) =   2
                l(6) =   2
     Q(r) pseudized with  6 coefficients,  rinner =    1.200   1.200   1.200
                                                       1.200   1.200

     PseudoPot. # 2 for Ca read from file:
     ./pseudo/Ca.pbe-nsp-van.UPF
     MD5 check sum: 6471098428ff4fa451746d08035ff179
     Pseudo is Ultrasoft + core correction, Zval = 10.0
     Generated by new atomic code, or converted to UPF format
     Using radial grid of  845 points,  6 beta functions with: 
                l(1) =   0
                l(2) =   0
                l(3) =   1
                l(4) =   1
                l(5) =   2
                l(6) =   2
     Q(r) pseudized with  6 coefficients,  rinner =    1.200   1.200   1.200
                                                       1.200   1.200

     PseudoPot. # 3 for Cu read from file:
     ./pseudo/Cu.pbe-n-van_ak.UPF
     MD5 check sum: 34e3282627ffb533726feb647e090d62
     Pseudo is Ultrasoft + core correction, Zval = 11.0
     Generated by new atomic code, or converted to UPF format
     Using radial grid of  867 points,  6 beta functions with: 
                l(1) =   0
                l(2) =   0
                l(3) =   1
                l(4) =   1
                l(5) =   2
                l(6) =   2
     Q(r) pseudized with  8 coefficients,  rinner =    1.400   1.400   1.400
                                                       1.400   1.400

     PseudoPot. # 4 for O  read from file:
     ./pseudo/O.pbe-van_ak.UPF
     MD5 check sum: 783ce7fe4c79b6a4916957118fed0856
     Pseudo is Ultrasoft, Zval =  6.0
     Generated by new atomic code, or converted to UPF format
     Using radial grid of  737 points,  4 beta functions with: 
                l(1) =   0
                l(2) =   0
                l(3) =   1
                l(4) =   1
     Q(r) pseudized with  8 coefficients,  rinner =    0.800   0.800   0.800


     PseudoPot. # 5 for Y  read from file:
     ./pseudo/Y.pbe-nsp-van.UPF
     MD5 check sum: 4412fed3ab108fed87a1b7d6a69a4a38
     Pseudo is Ultrasoft + core correction, Zval = 11.0
     Generated by new atomic code, or converted to UPF format
     Using radial grid of  885 points,  6 beta functions with: 
                l(1) =   0
                l(2) =   0
                l(3) =   1
                l(4) =   1
                l(5) =   2
                l(6) =   2
     Q(r) pseudized with  6 coefficients,  rinner =    1.200   1.200   1.200
                                                       1.200   1.200

     atomic species   valence    mass     pseudopotential
        Ba            10.00   137.32700     Ba( 1.00)
        Ca            10.00    40.07800     Ca( 1.00)
        Cu            11.00    63.54600     Cu( 1.00)
        O              6.00    15.99900     O ( 1.00)
        Y             11.00    88.90584     Y ( 1.00)

      4 Sym. Ops. (no inversion) found ( 3 have fractional translation)



   Cartesian axes

     site n.     atom                  positions (alat units)
         1           O   tau(   1) = (   0.3545921   0.8718562  -0.0077406  )
         2           O   tau(   2) = (   0.0037072   0.8718562  -0.0077406  )
         3           Cu  tau(   3) = (  -0.0002581   0.0006065   0.0080789  )
         4           Cu  tau(   4) = (  -0.0002581   0.3481364   0.0080789  )
         5           Cu  tau(   5) = (   0.3585574   0.3481364   0.0080789  )
         6           Cu  tau(   6) = (  -0.3580421   0.6980913   0.0080789  )
         7           Cu  tau(   7) = (   0.3577988   0.6971373   0.0086255  )
         8           Cu  tau(   8) = (   0.0005005   1.0465760   0.0086255  )
         9           Cu  tau(   9) = (  -0.3588016   0.3490903   0.0086255  )
        10           Cu  tau(  10) = (   0.0005005   0.6971373   0.0086255  )
        11           O   tau(  11) = (  -0.0001733   0.5225410  -0.0089757  )
        12           O   tau(  12) = (   0.3584726   0.5225410  -0.0089757  )
        13           O   tau(  13) = (  -0.0001733   1.2211724  -0.0089757  )
        14           O   tau(  14) = (  -0.3581278   0.5236867  -0.0089757  )
        15           O   tau(  15) = (  -0.3544557   0.8718562  -0.0105593  )
        16           O   tau(  16) = (  -0.0038445   0.1743714  -0.0105593  )
        17           O   tau(  17) = (   0.3588818   0.3486599   0.1817056  )
        18           O   tau(  18) = (  -0.0005825   0.3486599   0.1817056  )
        19           O   tau(  19) = (  -0.0005825   0.0000830   0.1817056  )
        20           O   tau(  20) = (  -0.3577167   0.6975677   0.1817056  )
        21           O   tau(  21) = (   0.3584283   0.6967843   0.1825784  )
        22           O   tau(  22) = (  -0.3581712   0.3494443   0.1825784  )
        23           O   tau(  23) = (  -0.0001290   0.6967843   0.1825784  )
        24           O   tau(  24) = (  -0.0001290   1.0469291   0.1825784  )
        25           Ba  tau(  25) = (   0.1791506   0.8718562   0.1908537  )
        26           Ba  tau(  26) = (   0.5374498   0.5231143   0.1919901  )
        27           Ba  tau(  27) = (  -0.1791506   0.5231143   0.1919901  )
        28           Ba  tau(  28) = (  -0.1793773   0.8718562   0.1931958  )
        29           Ba  tau(  29) = (  -0.1789238   0.1743714   0.1931958  )
        30           Ba  tau(  30) = (   0.1791506   0.5222101   0.1929368  )
        31           Ba  tau(  31) = (  -0.5374498   0.5240176   0.1929368  )
        32           Ba  tau(  32) = (   0.1791506   0.1743714   0.1992469  )
        33           Cu  tau(  33) = (  -0.3583426   0.3488452   0.3777458  )
        34           Cu  tau(  34) = (   0.3582559   0.6973834   0.3777458  )
        35           Cu  tau(  35) = (   0.0000433   0.6973834   0.3777458  )
        36           Cu  tau(  36) = (   0.0000433   1.0463299   0.3777458  )
        37           Cu  tau(  37) = (  -0.3586541   0.6975060   0.3775126  )
        38           Cu  tau(  38) = (   0.3579444   0.3487217   0.3775126  )
        39           Cu  tau(  39) = (   0.0003549   0.0000212   0.3775126  )
        40           Cu  tau(  40) = (   0.0003549   0.3487217   0.3775126  )
        41           O   tau(  41) = (  -0.0047976   0.1743714   0.3996864  )
        42           O   tau(  42) = (  -0.3535026   0.8718562   0.3996864  )
        43           O   tau(  43) = (  -0.5374498   0.6924605   0.3956991  )
        44           O   tau(  44) = (   0.1791506   0.3537672   0.3956991  )
        45           O   tau(  45) = (   0.3586385   0.8718562   0.4046840  )
        46           O   tau(  46) = (  -0.0003392   0.8718562   0.4046840  )
        47           O   tau(  47) = (  -0.0004857   0.5230571   0.4066611  )
        48           O   tau(  48) = (   0.3587850   0.5230571   0.4066611  )
        49           O   tau(  49) = (  -0.3578135   0.5231714   0.4066611  )
        50           O   tau(  50) = (  -0.0004857   1.2206562   0.4066611  )
        51           O   tau(  51) = (   0.1791506   1.0461604   0.4028931  )
        52           O   tau(  52) = (   0.1791506   0.6975521   0.4028931  )
        53           O   tau(  53) = (  -0.1792261   0.6967170   0.4025963  )
        54           O   tau(  54) = (  -0.1790731   0.3495106   0.4025963  )
        55           O   tau(  55) = (  -0.1792261   1.0469964   0.4025963  )
        56           O   tau(  56) = (   0.5375263   0.6967170   0.4025963  )
        57           Ca  tau(  57) = (   0.1791506   0.1743714   0.5358617  )
        58           Y   tau(  58) = (  -0.1811525   0.8718562   0.5373908  )
        59           Y   tau(  59) = (  -0.1771467   0.1743714   0.5373908  )
        60           Y   tau(  60) = (   0.1791506   0.8718562   0.5379568  )
        61           Y   tau(  61) = (   0.5374498   0.5231143   0.5384490  )
        62           Y   tau(  62) = (  -0.1791506   0.5231143   0.5384490  )
        63           Y   tau(  63) = (   0.1791506   0.5216598   0.5383310  )
        64           Y   tau(  64) = (  -0.5374498   0.5245688   0.5383310  )
        65           O   tau(  65) = (  -0.1787754   0.3493171   0.6712314  )
        66           O   tau(  66) = (   0.5378231   0.6969115   0.6712314  )
        67           O   tau(  67) = (  -0.1795239   1.0468019   0.6712314  )
        68           O   tau(  68) = (  -0.1795239   0.6969115   0.6712314  )
        69           O   tau(  69) = (   0.1791506   0.6972691   0.6718637  )
        70           O   tau(  70) = (   0.1791506   1.0464433   0.6718637  )
        71           O   tau(  71) = (  -0.0003880   1.2203935   0.6667490  )
        72           O   tau(  72) = (  -0.0003880   0.5233198   0.6667490  )
        73           O   tau(  73) = (   0.3586882   0.5233198   0.6667490  )
        74           O   tau(  74) = (  -0.3579112   0.5229087   0.6667490  )
        75           O   tau(  75) = (   0.3585850   0.8718562   0.6641940  )
        76           O   tau(  76) = (  -0.0002857   0.8718562   0.6641940  )
        77           O   tau(  77) = (   0.1791506   0.3535118   0.6756778  )
        78           O   tau(  78) = (  -0.5374498   0.6927158   0.6756778  )
        79           O   tau(  79) = (  -0.0043044   0.1743714   0.6710848  )
        80           O   tau(  80) = (  -0.3539948   0.8718562   0.6710848  )
        81           Cu  tau(  81) = (  -0.3586514   0.6973604   0.6974442  )
        82           Cu  tau(  82) = (   0.3579472   0.3488682   0.6974442  )
        83           Cu  tau(  83) = (   0.0003521  -0.0001254   0.6974442  )
        84           Cu  tau(  84) = (   0.0003521   0.3488682   0.6974442  )
        85           Cu  tau(  85) = (   0.0000083   1.0459401   0.6989015  )
        86           Cu  tau(  86) = (  -0.3583076   0.3484544   0.6989015  )
        87           Cu  tau(  87) = (   0.3582910   0.6977733   0.6989015  )
        88           Cu  tau(  88) = (   0.0000083   0.6977733   0.6989015  )
        89           Ba  tau(  89) = (   0.1791506   0.1743714   0.8671591  )
        90           Ba  tau(  90) = (  -0.5374498   0.5239908   0.8827639  )
        91           Ba  tau(  91) = (   0.1791506   0.5222377   0.8827639  )
        92           Ba  tau(  92) = (  -0.1785616   0.1743714   0.8784262  )
        93           Ba  tau(  93) = (  -0.1797386   0.8718562   0.8784262  )
        94           Ba  tau(  94) = (  -0.1791506   0.5231143   0.8841483  )
        95           Ba  tau(  95) = (   0.5374498   0.5231143   0.8841483  )
        96           Ba  tau(  96) = (   0.1791506   0.8718562   0.8844635  )
        97           O   tau(  97) = (   0.3607888   0.6975991   0.9037874  )
        98           O   tau(  98) = (  -0.3558097   0.3486286   0.9037874  )
        99           O   tau(  99) = (  -0.0024896   0.6975991   0.9037874  )
       100           O   tau( 100) = (  -0.0024896   1.0461143   0.9037874  )
       101           O   tau( 101) = (   0.3544087   0.3463252   0.9043663  )
       102           O   tau( 102) = (   0.0038906   0.3463252   0.9043663  )
       103           O   tau( 103) = (   0.0038906   0.0024177   0.9043663  )
       104           O   tau( 104) = (  -0.3621908   0.6999025   0.9043663  )
       105           O   tau( 105) = (   0.3314246   0.8718562   1.0783672  )
       106           O   tau( 106) = (   0.0268747   0.8718562   1.0783672  )
       107           Cu  tau( 107) = (  -0.0027882   0.0031818   1.0782086  )
       108           Cu  tau( 108) = (  -0.0027882   0.3455601   1.0782086  )
       109           Cu  tau( 109) = (   0.3610875   0.3455601   1.0782086  )
       110           Cu  tau( 110) = (  -0.3555111   0.7006675   1.0782086  )
       111           Cu  tau( 111) = (   0.3579684   0.6983604   1.0781976  )
       112           Cu  tau( 112) = (   0.0003318   1.0453529   1.0781976  )
       113           Cu  tau( 113) = (  -0.3586320   0.3478672   1.0781976  )
       114           Cu  tau( 114) = (   0.0003318   0.6983604   1.0781976  )
       115           O   tau( 115) = (  -0.0055718   0.5218801   1.0778989  )
       116           O   tau( 116) = (   0.3638720   0.5218801   1.0778989  )
       117           O   tau( 117) = (  -0.0055718   1.2218333   1.0778989  )
       118           O   tau( 118) = (  -0.3527284   0.5243475   1.0778989  )
       119           O   tau( 119) = (  -0.3170374   0.8718562   1.0783192  )
       120           O   tau( 120) = (  -0.0412618   0.1743714   1.0783192  )
       121           O   tau( 121) = (   0.3544105   0.3465040   1.2520362  )
       122           O   tau( 122) = (   0.0038887   0.3465040   1.2520362  )
       123           O   tau( 123) = (   0.0038887   0.0022389   1.2520362  )
       124           O   tau( 124) = (  -0.3621880   0.6997236   1.2520362  )
       125           O   tau( 125) = (   0.3607981   0.6973991   1.2525976  )
       126           O   tau( 126) = (  -0.3558014   0.3488295   1.2525976  )
       127           O   tau( 127) = (  -0.0024988   0.6973991   1.2525976  )
       128           O   tau( 128) = (  -0.0024988   1.0463143   1.2525976  )
       129           Ba  tau( 129) = (   0.1791506   0.8718562   1.2719528  )
       130           Ba  tau( 130) = (   0.5374498   0.5231143   1.2722763  )
       131           Ba  tau( 131) = (  -0.1791506   0.5231143   1.2722763  )
       132           Ba  tau( 132) = (  -0.1796732   0.8718562   1.2779763  )
       133           Ba  tau( 133) = (  -0.1786270   0.1743714   1.2779763  )
       134           Ba  tau( 134) = (   0.1791506   0.5222571   1.2737041  )
       135           Ba  tau( 135) = (  -0.5374498   0.5239706   1.2737041  )
       136           Ba  tau( 136) = (   0.1791506   0.1743714   1.2892268  )
       137           Cu  tau( 137) = (  -0.3583094   0.3484682   1.4575232  )
       138           Cu  tau( 138) = (   0.3582901   0.6977604   1.4575232  )
       139           Cu  tau( 139) = (   0.0000101   0.6977604   1.4575232  )
       140           Cu  tau( 140) = (   0.0000101   1.0459530   1.4575232  )
       141           Cu  tau( 141) = (  -0.3586477   0.6973567   1.4589435  )
       142           Cu  tau( 142) = (   0.3579518   0.3488710   1.4589435  )
       143           Cu  tau( 143) = (   0.0003484  -0.0001281   1.4589435  )
       144           Cu  tau( 144) = (   0.0003484   0.3488710   1.4589435  )
       145           O   tau( 145) = (  -0.0043173   0.1743714   1.4852486  )
       146           O   tau( 146) = (  -0.3539819   0.8718562   1.4852486  )
       147           O   tau( 147) = (  -0.5374498   0.6927305   1.4807174  )
       148           O   tau( 148) = (   0.1791506   0.3534971   1.4807174  )
       149           O   tau( 149) = (   0.3585795   0.8718562   1.4921587  )
       150           O   tau( 150) = (  -0.0002802   0.8718562   1.4921587  )
       151           O   tau( 151) = (  -0.0003853   0.5233134   1.4896627  )
       152           O   tau( 152) = (   0.3586855   0.5233134   1.4896627  )
       153           O   tau( 153) = (  -0.3579140   0.5229152   1.4896627  )
       154           O   tau( 154) = (  -0.0003853   1.2204000   1.4896627  )
       155           O   tau( 155) = (   0.1791506   1.0464553   1.4845361  )
       156           O   tau( 156) = (   0.1791506   0.6972571   1.4845361  )
       157           O   tau( 157) = (  -0.1795146   0.6969069   1.4851647  )
       158           O   tau( 158) = (  -0.1787846   0.3493208   1.4851647  )
       159           O   tau( 159) = (  -0.1795146   1.0468065   1.4851647  )
       160           O   tau( 160) = (   0.5378139   0.6969069   1.4851647  )
       161           Ca  tau( 161) = (   0.1791506   0.1743714   1.6205270  )
       162           Y   tau( 162) = (  -0.1811544   0.8718562   1.6189960  )
       163           Y   tau( 163) = (  -0.1771449   0.1743714   1.6189960  )
       164           Y   tau( 164) = (   0.1791506   0.8718562   1.6184328  )
       165           Y   tau( 165) = (   0.5374498   0.5231143   1.6179637  )
       166           Y   tau( 166) = (  -0.1791506   0.5231143   1.6179637  )
       167           Y   tau( 167) = (   0.1791506   0.5216524   1.6180844  )
       168           Y   tau( 168) = (  -0.5374498   0.5245761   1.6180844  )
       169           O   tau( 169) = (  -0.1790685   0.3495088   1.7998849  )
       170           O   tau( 170) = (   0.5375300   0.6967198   1.7998849  )
       171           O   tau( 171) = (  -0.1792307   1.0469936   1.7998849  )
       172           O   tau( 172) = (  -0.1792307   0.6967198   1.7998849  )
       173           O   tau( 173) = (   0.1791506   0.6975604   1.7995882  )
       174           O   tau( 174) = (   0.1791506   1.0461521   1.7995882  )
       175           O   tau( 175) = (  -0.0004848   1.2206534   1.7958238  )
       176           O   tau( 176) = (  -0.0004848   0.5230599   1.7958238  )
       177           O   tau( 177) = (   0.3587841   0.5230599   1.7958238  )
       178           O   tau( 178) = (  -0.3578144   0.5231687   1.7958238  )
       179           O   tau( 179) = (   0.3586468   0.8718562   1.7977622  )
       180           O   tau( 180) = (  -0.0003466   0.8718562   1.7977622  )
       181           O   tau( 181) = (   0.1791506   0.3537690   1.8067850  )
       182           O   tau( 182) = (  -0.5374498   0.6924586   1.8067850  )
       183           O   tau( 183) = (  -0.0047874   0.1743714   1.8027497  )
       184           O   tau( 184) = (  -0.3535118   0.8718562   1.8027497  )
       185           Cu  tau( 185) = (  -0.3586560   0.6975087   1.8249558  )
       186           Cu  tau( 186) = (   0.3579435   0.3487198   1.8249558  )
       187           Cu  tau( 187) = (   0.0003567   0.0000230   1.8249558  )
       188           Cu  tau( 188) = (   0.0003567   0.3487198   1.8249558  )
       189           Cu  tau( 189) = (   0.0000415   1.0463263   1.8247235  )
       190           Cu  tau( 190) = (  -0.3583407   0.3488406   1.8247235  )
       191           Cu  tau( 191) = (   0.3582587   0.6973871   1.8247235  )
       192           Cu  tau( 192) = (   0.0000415   0.6973871   1.8247235  )
       193           Ba  tau( 193) = (   0.1791506   0.1743714   2.0032289  )
       194           Ba  tau( 194) = (  -0.5374498   0.5240166   2.0095381  )
       195           Ba  tau( 195) = (   0.1791506   0.5222119   2.0095381  )
       196           Ba  tau( 196) = (  -0.1789220   0.1743714   2.0092818  )
       197           Ba  tau( 197) = (  -0.1793773   0.8718562   2.0092818  )
       198           Ba  tau( 198) = (  -0.1791506   0.5231143   2.0104920  )
       199           Ba  tau( 199) = (   0.5374498   0.5231143   2.0104920  )
       200           Ba  tau( 200) = (   0.1791506   0.8718562   2.0116202  )
       201           O   tau( 201) = (   0.3584302   0.6967870   2.0198899  )
       202           O   tau( 202) = (  -0.3581684   0.3494406   2.0198899  )
       203           O   tau( 203) = (  -0.0001309   0.6967870   2.0198899  )
       204           O   tau( 204) = (  -0.0001309   1.0469263   2.0198899  )
       205           O   tau( 205) = (   0.3588800   0.3486562   2.0207628  )
       206           O   tau( 206) = (  -0.0005807   0.3486562   2.0207628  )
       207           O   tau( 207) = (  -0.0005807   0.0000866   2.0207628  )
       208           O   tau( 208) = (  -0.3577186   0.6975714   2.0207628  )
       209           O   tau( 209) = (   0.3545921   0.8718562   2.2101933  )
       210           O   tau( 210) = (   0.0037081   0.8718562   2.2101933  )
       211           Cu  tau( 211) = (  -0.0002516   0.0006074   2.1943895  )
       212           Cu  tau( 212) = (  -0.0002516   0.3481345   2.1943895  )
       213           Cu  tau( 213) = (   0.3585509   0.3481345   2.1943895  )
       214           Cu  tau( 214) = (  -0.3580476   0.6980931   2.1943895  )
       215           Cu  tau( 215) = (   0.3577960   0.6971373   2.1938429  )
       216           Cu  tau( 216) = (   0.0005033   1.0465760   2.1938429  )
       217           Cu  tau( 217) = (  -0.3588035   0.3490903   2.1938429  )
       218           Cu  tau( 218) = (   0.0005033   0.6971373   2.1938429  )
       219           O   tau( 219) = (  -0.0001724   0.5225410   2.2114321  )
       220           O   tau( 220) = (   0.3584716   0.5225410   2.2114321  )
       221           O   tau( 221) = (  -0.0001724   1.2211724   2.2114321  )
       222           O   tau( 222) = (  -0.3581288   0.5236867   2.2114321  )
       223           O   tau( 223) = (  -0.3544640   0.8718562   2.2130221  )
       224           O   tau( 224) = (  -0.0038353   0.1743714   2.2130221  )

     number of k points=     4  Gaussian smearing, width (Ry)=  0.0100
                       cart. coord. in units 2pi/alat
        k(    1) = (   0.0000000   0.0000000   0.0000000), wk =   0.2222222
        k(    2) = (   0.2325801   0.2389537   0.0000000), wk =   0.8888889
        k(    3) = (   0.0000000   0.4779073   0.0000000), wk =   0.4444444
        k(    4) = (  -0.4651601  -0.0000000   0.0000000), wk =   0.4444444

     Dense  grid: 11396989 G-vectors     FFT dimensions: ( 180, 180, 720)

     Smooth grid:  2193539 G-vectors     FFT dimensions: ( 108, 108, 432)

     Estimated max dynamical RAM per process >       2.38 GB

     Estimated total dynamical RAM >     190.42 GB

     Initial potential from superposition of free atoms

     starting charge 1828.78422, renormalised to 1830.00000

     negative rho (up, down):  6.312E-01 0.000E+00
     Starting wfcs are 1602 randomized atomic wfcs

     total cpu time spent up to now is       61.5 secs

     Self-consistent Calculation

     iteration #  1     ecut=    60.00 Ry     beta= 0.50
     Davidson diagonalization with overlap
     ethr =  1.00E-02,  avg # of iterations =  2.0

     negative rho (up, down):  5.977E-01 0.000E+00

     total cpu time spent up to now is      164.9 secs

     total energy              =  -14913.57915440 Ry
     Harris-Foulkes estimate   =  -14942.78865562 Ry
     estimated scf accuracy    <     107.00608028 Ry

     iteration #  2     ecut=    60.00 Ry     beta= 0.50
     Davidson diagonalization with overlap
     ethr =  5.85E-03,  avg # of iterations =  2.0

     negative rho (up, down):  5.965E-01 0.000E+00

     total cpu time spent up to now is      268.1 secs

     total energy              =  -14923.29812665 Ry
     Harris-Foulkes estimate   =  -14926.51788058 Ry
     estimated scf accuracy    <      15.75479818 Ry

     iteration #  3     ecut=    60.00 Ry     beta= 0.50
     Davidson diagonalization with overlap
     ethr =  8.61E-04,  avg # of iterations =  2.0

     negative rho (up, down):  5.987E-01 0.000E+00

     total cpu time spent up to now is      375.4 secs

     total energy              =  -14924.82473556 Ry
     Harris-Foulkes estimate   =  -14925.59147951 Ry
     estimated scf accuracy    <      26.48197162 Ry

     iteration #  4     ecut=    60.00 Ry     beta= 0.50
     Davidson diagonalization with overlap
     ethr =  8.61E-04,  avg # of iterations =  1.0

     negative rho (up, down):  6.058E-01 0.000E+00

     total cpu time spent up to now is      470.2 secs

     total energy              =  -14924.64502400 Ry
     Harris-Foulkes estimate   =  -14925.13078498 Ry
     estimated scf accuracy    <       7.36340199 Ry

     iteration #  5     ecut=    60.00 Ry     beta= 0.50
     Davidson diagonalization with overlap
     ethr =  4.02E-04,  avg # of iterations =  1.5

     negative rho (up, down):  6.126E-01 0.000E+00

     total cpu time spent up to now is      567.8 secs

     total energy              =  -14924.50101248 Ry
     Harris-Foulkes estimate   =  -14924.84063508 Ry
     estimated scf accuracy    <      12.83350567 Ry

     iteration #  6     ecut=    60.00 Ry     beta= 0.50
     Davidson diagonalization with overlap
     ethr =  4.02E-04,  avg # of iterations =  2.2

     negative rho (up, down):  6.184E-01 0.000E+00

     total cpu time spent up to now is      669.0 secs

     total energy              =  -14924.53192991 Ry
     Harris-Foulkes estimate   =  -14924.62485662 Ry
     estimated scf accuracy    <       5.87569219 Ry

     iteration #  7     ecut=    60.00 Ry     beta= 0.50
     Davidson diagonalization with overlap
     ethr =  3.21E-04,  avg # of iterations =  4.5

     negative rho (up, down):  6.251E-01 0.000E+00

     total cpu time spent up to now is      778.3 secs

     total energy              =  -14924.49704784 Ry
     Harris-Foulkes estimate   =  -14924.57174386 Ry
     estimated scf accuracy    <       3.67304964 Ry

     iteration #  8     ecut=    60.00 Ry     beta= 0.50
     Davidson diagonalization with overlap
     ethr =  2.01E-04,  avg # of iterations = 11.5

     negative rho (up, down):  6.288E-01 0.000E+00

     total cpu time spent up to now is      933.4 secs

     total energy              =  -14924.48576494 Ry
     Harris-Foulkes estimate   =  -14924.54030819 Ry
     estimated scf accuracy    <       3.68271021 Ry

     iteration #  9     ecut=    60.00 Ry     beta= 0.50
     Davidson diagonalization with overlap
     ethr =  2.01E-04,  avg # of iterations =  1.0

     negative rho (up, down):  6.299E-01 0.000E+00

     total cpu time spent up to now is     1027.5 secs

     total energy              =  -14924.45697776 Ry
     Harris-Foulkes estimate   =  -14924.50282168 Ry
     estimated scf accuracy    <       1.65013182 Ry

     iteration # 10     ecut=    60.00 Ry     beta= 0.50
     Davidson diagonalization with overlap
     ethr =  9.02E-05,  avg # of iterations =  3.0

     negative rho (up, down):  6.301E-01 0.000E+00

     total cpu time spent up to now is     1131.0 secs

     total energy              =  -14924.44365846 Ry
     Harris-Foulkes estimate   =  -14924.47230639 Ry
     estimated scf accuracy    <       1.20651937 Ry

     iteration # 11     ecut=    60.00 Ry     beta= 0.50
     Davidson diagonalization with overlap
     ethr =  6.59E-05,  avg # of iterations =  3.2

     negative rho (up, down):  6.283E-01 0.000E+00

     total cpu time spent up to now is     1235.5 secs

     total energy              =  -14924.43537978 Ry
     Harris-Foulkes estimate   =  -14924.44992938 Ry
     estimated scf accuracy    <       0.64310684 Ry

     iteration # 12     ecut=    60.00 Ry     beta= 0.50
     Davidson diagonalization with overlap
     ethr =  3.51E-05,  avg # of iterations = 15.2

     negative rho (up, down):  6.259E-01 0.000E+00

     total cpu time spent up to now is     1399.6 secs

     total energy              =  -14924.42950754 Ry
     Harris-Foulkes estimate   =  -14924.43906359 Ry
     estimated scf accuracy    <       0.47590303 Ry

     iteration # 13     ecut=    60.00 Ry     beta= 0.50
     Davidson diagonalization with overlap
     ethr =  2.60E-05,  avg # of iterations =  1.2

     negative rho (up, down):  6.256E-01 0.000E+00

     total cpu time spent up to now is     1497.8 secs

     total energy              =  -14924.42230429 Ry
     Harris-Foulkes estimate   =  -14924.43134465 Ry
     estimated scf accuracy    <       0.34850270 Ry

     iteration # 14     ecut=    60.00 Ry     beta= 0.50
     Davidson diagonalization with overlap
     ethr =  1.90E-05,  avg # of iterations =  4.0

     negative rho (up, down):  6.572E-01 0.000E+00

     total cpu time spent up to now is     1605.6 secs

     total energy              =  -14924.41367386 Ry
     Harris-Foulkes estimate   =  -14924.42363463 Ry
     estimated scf accuracy    <       0.24188313 Ry

     iteration # 15     ecut=    60.00 Ry     beta= 0.50
     Davidson diagonalization with overlap
     c_bands:  1 eigenvalues not converged
     ethr =  1.32E-05,  avg # of iterations = 12.0

     negative rho (up, down):  6.765E-01 0.000E+00

     total cpu time spent up to now is     1746.5 secs

     total energy              =  -14924.40674515 Ry
     Harris-Foulkes estimate   =  -14924.41547210 Ry
     estimated scf accuracy    <       0.17883886 Ry

     iteration # 16     ecut=    60.00 Ry     beta= 0.50
     Davidson diagonalization with overlap
     ethr =  9.77E-06,  avg # of iterations = 15.0

     negative rho (up, down):  7.348E-01 0.000E+00

     total cpu time spent up to now is     1899.3 secs

     total energy              =  -14924.39901123 Ry
     Harris-Foulkes estimate   =  -14924.40786797 Ry
     estimated scf accuracy    <       0.12113934 Ry

     iteration # 17     ecut=    60.00 Ry     beta= 0.50
     Davidson diagonalization with overlap
     ethr =  6.62E-06,  avg # of iterations = 12.8

     negative rho (up, down):  7.654E-01 0.000E+00

     total cpu time spent up to now is     2056.4 secs

     total energy              =  -14924.39453747 Ry
     Harris-Foulkes estimate   =  -14924.40033548 Ry
     estimated scf accuracy    <       0.06372417 Ry

     iteration # 18     ecut=    60.00 Ry     beta= 0.50
     Davidson diagonalization with overlap
     ethr =  3.48E-06,  avg # of iterations = 15.8

     negative rho (up, down):  6.950E-01 0.000E+00

     total cpu time spent up to now is     2227.4 secs

     total energy              =  -14924.39220461 Ry
     Harris-Foulkes estimate   =  -14924.39608097 Ry
     estimated scf accuracy    <       0.03589438 Ry

     iteration # 19     ecut=    60.00 Ry     beta= 0.50
     Davidson diagonalization with overlap
     ethr =  1.96E-06,  avg # of iterations = 11.5

     negative rho (up, down):  6.421E-01 0.000E+00

     total cpu time spent up to now is     2373.2 secs

     total energy              =  -14924.39188694 Ry
     Harris-Foulkes estimate   =  -14924.39276266 Ry
     estimated scf accuracy    <       0.01975641 Ry

     iteration # 20     ecut=    60.00 Ry     beta= 0.50
     Davidson diagonalization with overlap
     c_bands:  1 eigenvalues not converged
     c_bands:  1 eigenvalues not converged
     c_bands:  1 eigenvalues not converged
     ethr =  1.08E-06,  avg # of iterations = 19.0

     negative rho (up, down):  6.414E-01 0.000E+00

     total cpu time spent up to now is     2559.6 secs

     total energy              =  -14924.39068873 Ry
     Harris-Foulkes estimate   =  -14924.39239912 Ry
     estimated scf accuracy    <       0.00944183 Ry

     iteration # 21     ecut=    60.00 Ry     beta= 0.50
     Davidson diagonalization with overlap
     c_bands:  1 eigenvalues not converged
     ethr =  5.16E-07,  avg # of iterations = 14.8

     negative rho (up, down):  6.320E-01 0.000E+00

     total cpu time spent up to now is     2716.5 secs

     total energy              =  -14924.39091296 Ry
     Harris-Foulkes estimate   =  -14924.39102967 Ry
     estimated scf accuracy    <       0.00564760 Ry

     iteration # 22     ecut=    60.00 Ry     beta= 0.50
     Davidson diagonalization with overlap
     c_bands:  2 eigenvalues not converged
     ethr =  3.09E-07,  avg # of iterations = 10.2

     negative rho (up, down):  6.270E-01 0.000E+00

     total cpu time spent up to now is     2850.6 secs

     total energy              =  -14924.39099736 Ry
     Harris-Foulkes estimate   =  -14924.39105750 Ry
     estimated scf accuracy    <       0.00246369 Ry

     iteration # 23     ecut=    60.00 Ry     beta= 0.50
     Davidson diagonalization with overlap
     ethr =  1.35E-07,  avg # of iterations =  6.2

     negative rho (up, down):  6.266E-01 0.000E+00

     total cpu time spent up to now is     2968.0 secs

     total energy              =  -14924.39098548 Ry
     Harris-Foulkes estimate   =  -14924.39109089 Ry
     estimated scf accuracy    <       0.00165562 Ry

     iteration # 24     ecut=    60.00 Ry     beta= 0.50
     Davidson diagonalization with overlap
     ethr =  9.05E-08,  avg # of iterations =  2.8

     negative rho (up, down):  6.279E-01 0.000E+00

     total cpu time spent up to now is     3074.2 secs

     total energy              =  -14924.39101063 Ry
     Harris-Foulkes estimate   =  -14924.39104094 Ry
     estimated scf accuracy    <       0.00070731 Ry

     iteration # 25     ecut=    60.00 Ry     beta= 0.50
     Davidson diagonalization with overlap
     ethr =  3.87E-08,  avg # of iterations =  5.5

     negative rho (up, down):  6.309E-01 0.000E+00

     total cpu time spent up to now is     3190.4 secs

     total energy              =  -14924.39098720 Ry
     Harris-Foulkes estimate   =  -14924.39104630 Ry
     estimated scf accuracy    <       0.00049830 Ry

     iteration # 26     ecut=    60.00 Ry     beta= 0.50
     Davidson diagonalization with overlap
     ethr =  2.72E-08,  avg # of iterations =  3.5

     negative rho (up, down):  6.309E-01 0.000E+00

     total cpu time spent up to now is     3296.3 secs

     total energy              =  -14924.39097915 Ry
     Harris-Foulkes estimate   =  -14924.39100736 Ry
     estimated scf accuracy    <       0.00014995 Ry

     iteration # 27     ecut=    60.00 Ry     beta= 0.50
     Davidson diagonalization with overlap
     ethr =  8.19E-09,  avg # of iterations =  2.5

     negative rho (up, down):  6.313E-01 0.000E+00

     total cpu time spent up to now is     3397.8 secs

     total energy              =  -14924.39101059 Ry
     Harris-Foulkes estimate   =  -14924.39099348 Ry
     estimated scf accuracy    <       0.00012503 Ry

     iteration # 28     ecut=    60.00 Ry     beta= 0.50
     Davidson diagonalization with overlap
     ethr =  6.83E-09,  avg # of iterations =  1.0

     negative rho (up, down):  6.322E-01 0.000E+00

     total cpu time spent up to now is     3494.1 secs

     total energy              =  -14924.39101887 Ry
     Harris-Foulkes estimate   =  -14924.39101572 Ry
     estimated scf accuracy    <       0.00004158 Ry

     iteration # 29     ecut=    60.00 Ry     beta= 0.50
     Davidson diagonalization with overlap
     ethr =  2.27E-09,  avg # of iterations =  2.0

     negative rho (up, down):  6.326E-01 0.000E+00

     total cpu time spent up to now is     3596.7 secs

     total energy              =  -14924.39102371 Ry
     Harris-Foulkes estimate   =  -14924.39102028 Ry
     estimated scf accuracy    <       0.00001516 Ry

     iteration # 30     ecut=    60.00 Ry     beta= 0.50
     Davidson diagonalization with overlap
     ethr =  8.28E-10,  avg # of iterations =  2.0

     negative rho (up, down):  6.329E-01 0.000E+00

     total cpu time spent up to now is     3697.6 secs

     total energy              =  -14924.39102335 Ry
     Harris-Foulkes estimate   =  -14924.39102453 Ry
     estimated scf accuracy    <       0.00000780 Ry

     iteration # 31     ecut=    60.00 Ry     beta= 0.50
     Davidson diagonalization with overlap
     ethr =  4.26E-10,  avg # of iterations =  1.0

     negative rho (up, down):  6.334E-01 0.000E+00

     total cpu time spent up to now is     3792.4 secs

     total energy              =  -14924.39102236 Ry
     Harris-Foulkes estimate   =  -14924.39102366 Ry
     estimated scf accuracy    <       0.00000517 Ry

     iteration # 32     ecut=    60.00 Ry     beta= 0.50
     Davidson diagonalization with overlap
     ethr =  2.83E-10,  avg # of iterations =  2.0

     negative rho (up, down):  6.337E-01 0.000E+00

     total cpu time spent up to now is     3891.5 secs

     total energy              =  -14924.39102193 Ry
     Harris-Foulkes estimate   =  -14924.39102258 Ry
     estimated scf accuracy    <       0.00000235 Ry

     iteration # 33     ecut=    60.00 Ry     beta= 0.50
     Davidson diagonalization with overlap
     ethr =  1.28E-10,  avg # of iterations =  1.0

     negative rho (up, down):  6.339E-01 0.000E+00

     total cpu time spent up to now is     3986.8 secs

     total energy              =  -14924.39102168 Ry
     Harris-Foulkes estimate   =  -14924.39102200 Ry
     estimated scf accuracy    <       0.00000116 Ry

     iteration # 34     ecut=    60.00 Ry     beta= 0.50
     Davidson diagonalization with overlap
     ethr =  6.31E-11,  avg # of iterations =  1.0

     negative rho (up, down):  6.339E-01 0.000E+00

     total cpu time spent up to now is     4085.8 secs

     total energy              =  -14924.39102170 Ry
     Harris-Foulkes estimate   =  -14924.39102173 Ry
     estimated scf accuracy    <       0.00000085 Ry

     iteration # 35     ecut=    60.00 Ry     beta= 0.50
     Davidson diagonalization with overlap
     ethr =  4.63E-11,  avg # of iterations =  1.2

     negative rho (up, down):  6.339E-01 0.000E+00

     total cpu time spent up to now is     4181.9 secs

     total energy              =  -14924.39102169 Ry
     Harris-Foulkes estimate   =  -14924.39102175 Ry
     estimated scf accuracy    <       0.00000052 Ry

     iteration # 36     ecut=    60.00 Ry     beta= 0.50
     Davidson diagonalization with overlap
     ethr =  2.82E-11,  avg # of iterations =  1.0

     negative rho (up, down):  6.339E-01 0.000E+00

     total cpu time spent up to now is     4276.6 secs

     total energy              =  -14924.39102168 Ry
     Harris-Foulkes estimate   =  -14924.39102171 Ry
     estimated scf accuracy    <       0.00000027 Ry

     iteration # 37     ecut=    60.00 Ry     beta= 0.50
     Davidson diagonalization with overlap
     ethr =  1.50E-11,  avg # of iterations =  1.0

     negative rho (up, down):  6.338E-01 0.000E+00

     total cpu time spent up to now is     4372.3 secs

     total energy              =  -14924.39102180 Ry
     Harris-Foulkes estimate   =  -14924.39102168 Ry
     estimated scf accuracy    <       0.00000012 Ry

     iteration # 38     ecut=    60.00 Ry     beta= 0.50
     Davidson diagonalization with overlap
     ethr =  6.57E-12,  avg # of iterations =  2.0

     negative rho (up, down):  6.338E-01 0.000E+00

     total cpu time spent up to now is     4473.4 secs

     total energy              =  -14924.39102182 Ry
     Harris-Foulkes estimate   =  -14924.39102180 Ry
     estimated scf accuracy    <       0.00000012 Ry

     iteration # 39     ecut=    60.00 Ry     beta= 0.50
     Davidson diagonalization with overlap
     ethr =  6.38E-12,  avg # of iterations =  1.0

     negative rho (up, down):  6.338E-01 0.000E+00

     total cpu time spent up to now is     4569.9 secs

     total energy              =  -14924.39102185 Ry
     Harris-Foulkes estimate   =  -14924.39102182 Ry
     estimated scf accuracy    <       0.00000004 Ry

     iteration # 40     ecut=    60.00 Ry     beta= 0.50
     Davidson diagonalization with overlap
     ethr =  2.26E-12,  avg # of iterations =  1.0

     negative rho (up, down):  6.338E-01 0.000E+00

     total cpu time spent up to now is     4665.1 secs

     total energy              =  -14924.39102184 Ry
     Harris-Foulkes estimate   =  -14924.39102185 Ry
     estimated scf accuracy    <       0.00000001 Ry

     iteration # 41     ecut=    60.00 Ry     beta= 0.50
     Davidson diagonalization with overlap
     ethr =  8.06E-13,  avg # of iterations =  1.0

     negative rho (up, down):  6.338E-01 0.000E+00

     total cpu time spent up to now is     4760.5 secs

     total energy              =  -14924.39102184 Ry
     Harris-Foulkes estimate   =  -14924.39102184 Ry
     estimated scf accuracy    <       0.00000001 Ry

     iteration # 42     ecut=    60.00 Ry     beta= 0.50
     Davidson diagonalization with overlap
     ethr =  5.56E-13,  avg # of iterations =  1.0

     negative rho (up, down):  6.338E-01 0.000E+00

     total cpu time spent up to now is     4851.8 secs

     End of self-consistent calculation

          k = 0.0000 0.0000 0.0000 (274311 PWs)   bands (ev):

   -39.0820 -39.0709 -39.0701 -39.0595 -39.0588 -39.0474 -39.0440 -37.8504
   -37.8225 -37.8196 -37.8141 -37.8132 -37.8015 -37.7963 -36.5064 -35.3863
   -22.5046 -22.4750 -22.3939 -22.3823 -22.3790 -22.3788 -22.3751 -22.3594
   -22.3585 -22.3572 -22.3536 -22.3414 -22.3257 -22.2921 -22.2555 -22.2412
   -22.2269 -22.2218 -22.2169 -22.2094 -22.2056 -22.2053 -22.1991 -22.1914
   -22.1895 -22.1751 -22.1453 -22.1062 -22.1031 -22.0313 -22.0144 -21.9251
   -19.3862 -19.3441 -19.3306 -19.3044 -19.2456 -19.2323 -19.2215 -19.1988
   -19.1828 -19.1823 -19.1751 -19.0865 -19.0865 -19.0684 -19.0527 -19.0281
   -19.0207 -19.0193 -19.0021 -18.9985 -18.9530 -18.4320 -18.3941 -18.3487
   -18.3459 -18.3168 -18.1616 -18.1485 -18.1474 -18.1414 -18.1339 -18.1328
   -18.1303 -18.1217 -18.1207 -18.1122 -18.1033 -17.9488 -17.9437 -17.9227
   -17.8245 -17.8164 -17.6319 -17.6158 -17.5511 -16.6457 -16.6167 -16.6093
   -15.2274 -15.1805 -14.8744 -14.8485 -14.8403 -14.7868 -14.7376 -14.6720
   -14.6242 -14.6087 -14.5408 -14.5196 -14.5094 -14.5072 -14.4968 -14.4905
   -14.4837 -14.4835 -14.4800 -14.4576 -14.4523 -14.4138 -14.4088 -14.3690
   -14.3456 -14.3411 -14.3267 -14.3209 -14.3207 -14.2956 -14.2949 -14.2894
   -14.2884 -14.2870 -14.2825 -14.2825 -14.2782 -14.2481 -14.2335 -14.2253
   -14.2160 -14.2010 -14.1949 -14.1836 -14.1656 -14.1156 -14.1151 -14.0954
   -14.0940 -14.0890 -14.0858 -14.0482 -14.0435 -14.0356 -14.0335 -14.0228
   -14.0116 -14.0112 -14.0008 -13.9923 -13.9820 -13.9682 -13.9569 -13.9518
   -13.9439 -13.9302 -13.8672 -13.8314 -13.8238 -13.8067 -13.8041 -13.7947
   -13.7819 -13.7708 -13.7554 -13.7525 -13.7447 -13.7367 -13.7285 -13.7161
   -13.6907 -13.6786 -13.6698 -13.6666 -13.5845 -13.5361 -13.5341 -13.5341
   -13.5337 -13.5256 -13.5215 -13.5204 -13.5136 -13.5108 -13.5079 -13.4928
   -13.4919 -13.4904 -13.4893 -13.4764 -13.4760 -13.4745 -13.4679 -13.4368
   -13.4362 -13.4333 -13.4303 -13.4289 -13.4227 -13.4204 -13.4118 -13.3551
   -13.3533 -13.3171 -13.3101 -13.2970 -13.2826 -13.2281 -13.2159 -13.1248
    -8.4635  -8.3493  -8.3312  -8.1764  -8.1711  -8.1208  -8.0474  -7.9535
    -7.9497  -7.9376  -7.9260  -7.8904  -7.8862  -7.8737  -7.8732  -7.8577
    -7.8343  -7.8177  -7.8133  -7.8085  -7.8018  -7.7916  -7.7853  -7.7620
    -7.7466  -7.7442  -7.7178  -7.7061  -7.7007  -7.6974  -7.6761  -7.6756
    -7.6715  -7.6679  -7.6430  -7.6203  -7.6101  -7.6069  -7.5952  -7.5793
    -7.5682  -7.5627  -7.5453  -7.5341  -7.5282  -7.5264  -7.5263  -7.5149
    -7.5103  -7.5027  -7.4995  -7.4919  -7.4702  -7.4644  -7.4628  -7.4618
    -7.4487  -7.4297  -7.3967  -7.3950  -7.3845  -7.3678  -7.3577  -7.3504
    -7.3487  -7.3477  -7.3267  -7.3248  -7.3211  -7.3126  -7.3024  -7.2842
    -7.2535  -7.2414  -7.2299  -7.2141  -7.2129  -7.2127  -7.1982  -7.1938
    -7.1928  -7.1923  -7.1869  -7.1832  -7.1780  -7.1395  -7.1164  -7.0867
    -7.0716  -7.0680  -7.0547  -7.0516  -7.0212  -7.0005  -6.9378  -6.8758
    -3.9941  -3.9290  -3.3794  -3.2097  -3.0195  -2.9389  -2.9356  -2.9289
    -2.9223  -2.8674  -2.8608  -2.8283  -2.7930  -2.7853  -2.7851  -2.7434
    -2.7185  -2.7060  -2.6799  -2.6558  -2.5999  -2.5268  -2.5259  -2.5206
    -2.5186  -2.4161  -2.4049  -2.3996  -2.3940  -2.3919  -2.3105  -2.2438
    -2.2421  -2.2375  -2.2279  -2.2160  -2.2156  -2.1762  -2.0983  -2.0980
    -2.0937  -2.0848  -2.0030  -1.9940  -1.9897  -1.9806  -1.9700  -1.9641
    -1.9543  -1.9531  -1.9465  -1.9279  -1.9199  -1.9133  -1.8200  -1.8149
    -1.8135  -1.8045  -1.7584  -1.7486  -1.7480  -1.7419  -1.7362  -1.7339
    -1.7241  -1.7217  -1.7199  -1.7173  -1.7149  -1.7114  -1.7093  -1.7027
    -1.6977  -1.6820  -1.6507  -1.6479  -1.6434  -1.6369  -1.6329  -1.6309
    -1.6257  -1.6224  -1.6217  -1.6200  -1.6193  -1.6177  -1.6110  -1.6018
    -1.5935  -1.5863  -1.5826  -1.5776  -1.5612  -1.5450  -1.5378  -1.5372
    -1.5328  -1.5310  -1.5140  -1.5115  -1.5103  -1.5062  -1.5023  -1.4551
    -1.4488  -1.4481  -1.4474  -1.4329  -1.4034  -1.3860  -1.3775  -1.3493
    -1.2971  -1.2809  -1.2708  -1.2519  -1.2425  -1.2318  -1.2212  -1.1837
    -1.1794  -1.1775  -1.1732  -1.1678  -1.1655  -1.1553  -1.1365  -1.1253
    -1.1220  -1.1065  -1.0967  -1.0917  -1.0710  -1.0608  -1.0524  -1.0248
    -1.0246  -1.0138  -0.9734  -0.9409  -0.9030  -0.8808  -0.8604  -0.8584
    -0.8536  -0.8303  -0.8244  -0.8200  -0.8077  -0.8065  -0.7981  -0.7968
    -0.7962  -0.7885  -0.7572  -0.7491  -0.7480  -0.7389  -0.7277  -0.7273
    -0.6939  -0.6526  -0.6501  -0.6492  -0.6409  -0.6300  -0.6262  -0.6127
    -0.6104  -0.6031  -0.6012  -0.5965  -0.5842  -0.5815  -0.5683  -0.5663
    -0.5502  -0.5496  -0.5378  -0.5292  -0.5197  -0.5173  -0.5079  -0.5023
    -0.4925  -0.4886  -0.4779  -0.4766  -0.4689  -0.4649  -0.4595  -0.4556
    -0.4459  -0.4377  -0.4357  -0.4343  -0.4282  -0.4148  -0.4127  -0.4111
    -0.4018  -0.3956  -0.3814  -0.3741  -0.3727  -0.3548  -0.3538  -0.3470
    -0.3279  -0.3031  -0.3020  -0.3000  -0.2946  -0.2907  -0.2711  -0.2700
    -0.2685  -0.2431  -0.2359  -0.2325  -0.2242  -0.2137  -0.2108  -0.2097
    -0.2075  -0.1959  -0.1743  -0.1737  -0.1721  -0.1665  -0.1664  -0.1661
    -0.1191  -0.1032  -0.1000  -0.0974  -0.0872  -0.0767  -0.0628  -0.0463
    -0.0422  -0.0367  -0.0338  -0.0265  -0.0105  -0.0083   0.0100   0.0217
     0.0266   0.0522   0.0538   0.0587   0.0648   0.0711   0.0911   0.1022
     0.1024   0.1035   0.1110   0.1233   0.1381   0.1421   0.1472   0.1608
     0.1620   0.1625   0.1770   0.1853   0.1904   0.1907   0.1955   0.2003
     0.2125   0.2147   0.2222   0.2251   0.2293   0.2458   0.2862   0.3334
     0.3409   0.3474   0.3552   0.3907   0.4036   0.4119   0.4239   0.4310
     0.4364   0.4439   0.4509   0.4766   0.5053   0.5143   0.5212   0.5221
     0.5530   0.5570   0.5649   0.5728   0.5753   0.5938   0.6038   0.6064
     0.6089   0.6281   0.6330   0.6523   0.6725   0.6750   0.6753   0.6827
     0.6830   0.6892   0.6900   0.7088   0.7127   0.7147   0.7161   0.7251
     0.7395   0.7506   0.7573   0.7593   0.7613   0.7617   0.7743   0.7812
     0.7914   0.7925   0.7952   0.8018   0.8098   0.8101   0.8141   0.8165
     0.8268   0.8307   0.8442   0.8658   0.8714   0.8764   0.8807   0.9107
     0.9177   0.9260   0.9389   0.9421   0.9455   0.9495   0.9502   0.9726
     0.9830   0.9845   0.9891   0.9902   0.9946   0.9953   1.0075   1.0196
     1.0271   1.0294   1.0296   1.0453   1.0460   1.0473   1.0642   1.0837
     1.0889   1.0936   1.1005   1.1211   1.1514   1.1565   1.1597   1.2040
     1.2095   1.2278   1.2472   1.2542   1.2544   1.2585   1.2692   1.2768
     1.3417   1.3452   1.3590   1.3632   1.3682   1.3762   1.4015   1.4104
     1.4265   1.4481   1.4528   1.4589   1.4590   1.4666   1.4683   1.4690
     1.4703   1.4805   1.4904   1.4979   1.5079   1.5118   1.5196   1.5258
     1.5294   1.5364   1.5392   1.5416   1.5472   1.5500   1.5532   1.5586
     1.5647   1.5783   1.5849   1.5925   1.5944   1.5985   1.6004   1.6016
     1.6046   1.6060   1.6065   1.6073   1.6102   1.6201   1.6237   1.6248
     1.6252   1.6254   1.6340   1.6349   1.6433   1.6542   1.6545   1.6551
     1.6561   1.6706   1.6772   1.6833   1.6889   1.6936   1.6979   1.7020
     1.7147   1.7231   1.7303   1.7324   1.7378   1.7381   1.7423   1.7443
     1.7588   1.7630   1.7733   1.7765   1.7769   1.7813   1.7848   1.7854
     1.7865   1.7991   1.8004   1.8020   1.8146   1.8147   1.8356   1.8396
     1.8452   1.8543   1.8737   1.8799   1.9046   1.9111   1.9118   1.9221
     1.9278   1.9340   1.9359   1.9447   1.9452   1.9479   1.9509   1.9578
     1.9824   1.9918   2.0117   2.0170   2.0397   2.0481   2.0520   2.0523
     2.0543   2.0616   2.0657   2.0687   2.0690   2.0695   2.0701   2.0762
     2.0778   2.0828   2.0856   2.0914   2.0924   2.1021   2.1074   2.1185
     2.1243   2.1281   2.1318   2.1330   2.1349   2.1471   2.1479   2.1489
     2.1577   2.1603   2.1700   2.1705   2.1733   2.1987   2.1993   2.2129
     2.2219   2.2225   2.2231   2.2312   2.2403   2.2458   2.2527   2.2532
     2.2585   2.2609   2.2881   2.2944   2.2960   2.2983   2.3045   2.3206
     2.3297   2.3421   2.3588   2.3845   2.3849   2.3854   2.3910   2.3938
     2.4001   2.4024   2.4040   2.4059   2.4170   2.4190   2.4285   2.4387
     2.4575   2.4774   2.4956   2.4987   2.5068   2.5340   2.5422   2.5543
     2.5582   2.5716   2.5928   2.6033   2.6161   2.6248   2.6514   2.6839
     2.6848   2.7069   2.7204   2.7326   2.7416   2.7564   2.7619   2.7622
     2.7792   2.7802   2.7849   2.8124   2.8441   2.8487   2.8583   2.8998
     2.9063   2.9089   2.9124   2.9308   3.0322   3.0616   3.0698   3.0763
     3.1931   3.2219   3.2235   3.2390   3.3421   3.3752   3.4821   3.4892
     3.4932   3.4960   3.5134   3.5173   3.5178   3.5228   3.5275   3.5473
     3.5545   3.5640   3.5972   3.6296   3.6400   3.6471   3.7954   3.8309
     3.8344   3.8403   3.8741   3.9250   3.9257   3.9293   3.9404   4.0248
     4.1564   4.1637   4.4776   4.7480   4.8743   5.0470   5.1241   5.1257
     5.2785   5.5358   5.6645   5.7898   5.8297   6.0416   6.0929   6.1219
     6.1596   6.1697   6.2457   6.2480   6.3827   6.6181   6.8561   6.8962
     6.9134   6.9223   6.9304   6.9344   6.9394   6.9404   6.9503   6.9522
     6.9539   6.9569   6.9651   7.0024   7.0026   7.0111   7.0119   7.0402
     7.1068   7.1214   7.1741   7.2277   7.3616   7.4035   7.4054   7.4164
     7.4714   7.4904   7.5288   7.5649   7.5971   7.6539   7.6635   7.6760
     7.6935   7.7503   7.8976   7.8990   7.9146   7.9550   8.0003   8.0131
     8.0246   8.0720   8.0834   8.1020   8.1458   8.1523   8.1644   8.1828
     8.1898   8.1937   8.2857   8.3063   8.3188   8.3270   8.3840   8.3875
     8.4110   8.5072   8.5079   8.5392   8.5434   8.5684   8.5935   8.5970
     8.5996   8.6035   8.6298   8.6605   8.6667   8.6898   8.6946   8.7605
     8.8238   8.8359   8.8570   8.8674   8.8821   8.8881   8.8955   8.9264
     8.9289   8.9308   8.9371   8.9573   8.9608   8.9768   9.0105   9.0566
     9.0589   9.0631   9.0697   9.0851   9.1068   9.1332   9.1397   9.1640
     9.1777   9.1945   9.2145   9.2273   9.2277   9.2316   9.2467   9.2535
     9.2669   9.2715   9.2757   9.3393   9.3523   9.3659   9.3662   9.3803
     9.3877   9.3998   9.4327   9.4464   9.4468   9.4567   9.4685   9.4707
     9.4952   9.4967   9.5203   9.5213   9.5225   9.5461   9.5768   9.5792
     9.5935   9.6131

          k = 0.2326 0.2390 0.0000 (274145 PWs)   bands (ev):

   -39.0819 -39.0710 -39.0701 -39.0596 -39.0589 -39.0464 -39.0447 -37.8504
   -37.8219 -37.8204 -37.8142 -37.8135 -37.8000 -37.7974 -36.5064 -35.3863
   -22.4864 -22.4640 -22.4382 -22.4118 -22.3834 -22.3795 -22.3719 -22.3544
   -22.3457 -22.3444 -22.3352 -22.3294 -22.3101 -22.2865 -22.2807 -22.2698
   -22.2321 -22.2312 -22.2266 -22.2158 -22.2028 -22.1957 -22.1939 -22.1862
   -22.1638 -22.1579 -22.1489 -22.1173 -22.1083 -22.0308 -22.0102 -21.9273
   -19.3655 -19.3306 -19.3269 -19.3089 -19.2995 -19.2668 -19.2320 -19.1859
   -19.1767 -19.1728 -19.1196 -19.0847 -19.0804 -19.0703 -19.0621 -19.0337
   -19.0245 -19.0151 -19.0098 -18.9917 -18.9620 -18.3973 -18.3627 -18.3462
   -18.3217 -18.3150 -18.2940 -18.2614 -18.2302 -18.1492 -18.1423 -18.1254
   -18.1230 -18.1095 -18.0321 -17.9980 -17.9807 -17.9466 -17.9436 -17.9349
   -17.8703 -17.8639 -17.6320 -17.6159 -17.5511 -16.6459 -16.6185 -16.6108
   -15.1756 -15.0801 -15.0266 -14.8269 -14.8176 -14.8114 -14.7626 -14.7289
   -14.6501 -14.5768 -14.5427 -14.5241 -14.5128 -14.4990 -14.4860 -14.4839
   -14.4726 -14.4622 -14.4426 -14.4405 -14.4222 -14.4114 -14.3952 -14.3900
   -14.3811 -14.3700 -14.3504 -14.3347 -14.3265 -14.3134 -14.3101 -14.3020
   -14.3014 -14.2878 -14.2756 -14.2705 -14.2572 -14.2399 -14.2359 -14.2072
   -14.2008 -14.1988 -14.1882 -14.1851 -14.1796 -14.1263 -14.1165 -14.0914
   -14.0775 -14.0714 -14.0619 -14.0531 -14.0530 -14.0515 -14.0398 -14.0232
   -14.0056 -13.9984 -13.9918 -13.9872 -13.9455 -13.9350 -13.9277 -13.9175
   -13.8934 -13.8889 -13.8854 -13.8700 -13.8594 -13.8505 -13.8346 -13.8178
   -13.8094 -13.7937 -13.7787 -13.7745 -13.7739 -13.7352 -13.7088 -13.6976
   -13.6711 -13.6615 -13.6314 -13.6189 -13.6109 -13.5652 -13.5497 -13.5440
   -13.5393 -13.5312 -13.5270 -13.5186 -13.5156 -13.5036 -13.5035 -13.4993
   -13.4926 -13.4879 -13.4746 -13.4743 -13.4638 -13.4616 -13.4526 -13.4443
   -13.4415 -13.4343 -13.4297 -13.4261 -13.4252 -13.4172 -13.4155 -13.3757
   -13.3656 -13.3462 -13.3394 -13.2649 -13.2596 -13.2405 -13.2194 -13.1633
    -8.3562  -8.2460  -8.2238  -8.1601  -8.0773  -8.0568  -8.0549  -8.0267
    -7.9858  -7.9273  -7.9010  -7.8898  -7.8738  -7.8485  -7.8379  -7.7925
    -7.7787  -7.7631  -7.7528  -7.7451  -7.7421  -7.7341  -7.7186  -7.7146
    -7.6961  -7.6929  -7.6907  -7.6763  -7.6726  -7.6617  -7.6580  -7.6499
    -7.6445  -7.6428  -7.6351  -7.6184  -7.6111  -7.6006  -7.5941  -7.5913
    -7.5710  -7.5686  -7.5641  -7.5538  -7.5469  -7.5421  -7.5390  -7.5353
    -7.5309  -7.5175  -7.5141  -7.5102  -7.4999  -7.4881  -7.4727  -7.4690
    -7.4655  -7.4398  -7.4322  -7.4308  -7.4285  -7.4136  -7.4081  -7.4041
    -7.3999  -7.3905  -7.3892  -7.3613  -7.3421  -7.3414  -7.3048  -7.2988
    -7.2961  -7.2835  -7.2805  -7.2633  -7.2629  -7.2541  -7.2525  -7.2517
    -7.2125  -7.2064  -7.1944  -7.1706  -7.1552  -7.1426  -7.1390  -7.1262
    -7.1221  -7.1158  -7.0866  -7.0784  -7.0443  -6.9968  -6.9748  -6.9136
    -3.8396  -3.7684  -3.4269  -3.3344  -3.2339  -3.0643  -2.9989  -2.9639
    -2.9035  -2.8591  -2.8539  -2.8437  -2.8282  -2.7677  -2.7175  -2.6936
    -2.6900  -2.6455  -2.6116  -2.5970  -2.5477  -2.4908  -2.4897  -2.4767
    -2.4412  -2.4232  -2.4198  -2.4170  -2.4151  -2.4083  -2.3723  -2.3524
    -2.2506  -2.2373  -2.2204  -2.1976  -2.1743  -2.1685  -2.1453  -2.1423
    -2.1414  -2.1310  -2.1171  -2.1166  -2.0742  -2.0625  -2.0473  -2.0174
    -1.9783  -1.9681  -1.9360  -1.9334  -1.9219  -1.8962  -1.8883  -1.8581
    -1.8399  -1.8339  -1.8230  -1.8143  -1.7781  -1.7644  -1.7549  -1.7538
    -1.7396  -1.7214  -1.7154  -1.7059  -1.7019  -1.6944  -1.6873  -1.6841
    -1.6733  -1.6670  -1.6629  -1.6558  -1.6540  -1.6460  -1.6445  -1.6393
    -1.6366  -1.6326  -1.6260  -1.6213  -1.6170  -1.6136  -1.6037  -1.5996
    -1.5944  -1.5894  -1.5834  -1.5484  -1.5347  -1.5319  -1.5270  -1.5185
    -1.5049  -1.4900  -1.4403  -1.4363  -1.4321  -1.4262  -1.4190  -1.4134
    -1.3885  -1.3836  -1.3797  -1.3674  -1.3384  -1.3248  -1.3135  -1.2993
    -1.2968  -1.2836  -1.2824  -1.2731  -1.2558  -1.2459  -1.2369  -1.2242
    -1.2063  -1.1858  -1.1605  -1.1334  -1.1161  -1.1059  -1.0933  -1.0622
    -1.0518  -1.0516  -1.0459  -1.0399  -1.0197  -1.0145  -1.0103  -0.9973
    -0.9827  -0.9695  -0.9595  -0.9564  -0.9276  -0.9034  -0.8975  -0.8865
    -0.8722  -0.8595  -0.8476  -0.8404  -0.8279  -0.8229  -0.8113  -0.8045
    -0.7870  -0.7811  -0.7395  -0.7290  -0.7253  -0.7129  -0.6861  -0.6843
    -0.6611  -0.6484  -0.6341  -0.6285  -0.6258  -0.6098  -0.6035  -0.5996
    -0.5927  -0.5849  -0.5744  -0.5644  -0.5494  -0.5448  -0.5410  -0.5356
    -0.5282  -0.5278  -0.5247  -0.5220  -0.5160  -0.5137  -0.5118  -0.5019
    -0.4981  -0.4905  -0.4787  -0.4755  -0.4637  -0.4508  -0.4447  -0.4425
    -0.4390  -0.4357  -0.4305  -0.4217  -0.4096  -0.4057  -0.3973  -0.3901
    -0.3863  -0.3792  -0.3770  -0.3669  -0.3633  -0.3577  -0.3553  -0.3468
    -0.3401  -0.3359  -0.3337  -0.3318  -0.3282  -0.3125  -0.3100  -0.3012
    -0.2935  -0.2811  -0.2774  -0.2535  -0.2487  -0.2448  -0.2389  -0.2373
    -0.2314  -0.2095  -0.1849  -0.1784  -0.1690  -0.1565  -0.1449  -0.1395
    -0.1389  -0.1335  -0.1261  -0.1108  -0.1038  -0.1005  -0.0975  -0.0846
    -0.0685  -0.0569  -0.0375  -0.0261  -0.0239  -0.0192  -0.0171  -0.0101
     0.0033   0.0229   0.0485   0.0523   0.0841   0.1030   0.1044   0.1139
     0.1291   0.1496   0.1533   0.1569   0.1697   0.1742   0.1804   0.1957
     0.2049   0.2073   0.2166   0.2266   0.2314   0.2407   0.2492   0.2658
     0.2809   0.2859   0.2980   0.3016   0.3055   0.3146   0.3201   0.3289
     0.3496   0.3540   0.3601   0.3837   0.3931   0.3967   0.4157   0.4225
     0.4390   0.4462   0.4563   0.4646   0.4952   0.5121   0.5145   0.5377
     0.5403   0.5545   0.5598   0.5768   0.6054   0.6095   0.6110   0.6226
     0.6406   0.6436   0.6474   0.6581   0.6652   0.6693   0.6701   0.6799
     0.6849   0.6922   0.6968   0.7012   0.7084   0.7187   0.7234   0.7294
     0.7337   0.7382   0.7422   0.7434   0.7491   0.7508   0.7574   0.7628
     0.7725   0.7774   0.7821   0.7907   0.8062   0.8103   0.8278   0.8302
     0.8493   0.8549   0.8574   0.8630   0.8691   0.8722   0.8733   0.8756
     0.8805   0.8870   0.8949   0.8996   0.9021   0.9063   0.9143   0.9230
     0.9256   0.9349   0.9422   0.9709   0.9740   0.9925   1.0028   1.0184
     1.0286   1.0316   1.0355   1.0454   1.0517   1.0717   1.0860   1.1314
     1.1389   1.1467   1.1687   1.1700   1.1778   1.1878   1.2004   1.2060
     1.2124   1.2249   1.2425   1.2445   1.2532   1.2550   1.2593   1.2686
     1.2744   1.2874   1.2972   1.3139   1.3234   1.3344   1.3389   1.3523
     1.3592   1.3689   1.3751   1.3772   1.4012   1.4074   1.4287   1.4448
     1.4478   1.4546   1.4654   1.4683   1.4719   1.4767   1.4792   1.4803
     1.4895   1.4924   1.4956   1.5072   1.5183   1.5199   1.5269   1.5319
     1.5443   1.5504   1.5581   1.5671   1.5715   1.5776   1.5858   1.5907
     1.5954   1.6058   1.6086   1.6116   1.6158   1.6209   1.6224   1.6259
     1.6312   1.6376   1.6416   1.6464   1.6514   1.6595   1.6651   1.6693
     1.6787   1.6885   1.6951   1.6984   1.7076   1.7144   1.7170   1.7229
     1.7311   1.7332   1.7345   1.7381   1.7411   1.7435   1.7490   1.7535
     1.7572   1.7633   1.7645   1.7698   1.7817   1.7920   1.7936   1.7997
     1.8104   1.8127   1.8213   1.8293   1.8371   1.8440   1.8551   1.8584
     1.8675   1.8738   1.8816   1.8880   1.8931   1.9075   1.9087   1.9157
     1.9228   1.9265   1.9314   1.9331   1.9407   1.9471   1.9590   1.9672
     1.9713   1.9755   1.9781   1.9859   1.9934   1.9974   2.0119   2.0159
     2.0213   2.0268   2.0301   2.0308   2.0348   2.0481   2.0533   2.0648
     2.0735   2.0796   2.0878   2.0951   2.0997   2.1029   2.1140   2.1190
     2.1234   2.1335   2.1393   2.1448   2.1507   2.1528   2.1584   2.1612
     2.1653   2.1662   2.1711   2.1774   2.1795   2.1836   2.1962   2.1970
     2.2026   2.2096   2.2170   2.2304   2.2328   2.2371   2.2453   2.2482
     2.2551   2.2653   2.2695   2.2886   2.2944   2.3014   2.3031   2.3082
     2.3150   2.3235   2.3370   2.3443   2.3565   2.3968   2.3989   2.4008
     2.4094   2.4165   2.4269   2.4540   2.4678   2.4730   2.4834   2.5223
     2.5431   2.5519   2.5673   2.5819   2.5837   2.6000   2.6233   2.6281
     2.6313   2.6345   2.6418   2.6553   2.6689   2.6751   2.6809   2.6943
     2.7127   2.7262   2.7389   2.7469   2.7500   2.7970   2.8132   2.8183
     2.8229   2.8251   2.8427   2.8670   2.8723   2.9146   2.9413   2.9445
     2.9834   2.9875   2.9918   3.0085   3.0144   3.0615   3.0825   3.1031
     3.1294   3.2010   3.2146   3.2424   3.2721   3.2869   3.3234   3.3305
     3.3378   3.3481   3.3584   3.3606   3.3731   3.3885   3.3921   3.4261
     3.4273   3.4356   3.4453   3.4670   3.4716   3.4877   3.5972   3.6161
     3.6210   3.6695   3.6945   3.7177   4.1625   4.2884   4.3527   4.4117
     4.4275   4.4837   4.5345   4.6649   4.6749   4.8309   4.9163   5.0568
     5.3501   5.7845   5.8302   5.8688   5.8788   5.9731   6.0960   6.2299
     6.3108   6.3274   6.3646   6.3770   6.3964   6.4099   6.4324   6.5322
     6.6639   6.6984   6.8272   6.8324   6.8611   6.8801   6.8914   6.8937
     6.9293   6.9823   6.9965   7.0158   7.0375   7.0965   7.1241   7.1686
     7.1776   7.1982   7.2145   7.2309   7.2609   7.3413   7.3733   7.3967
     7.4057   7.4521   7.5283   7.5922   7.6491   7.6724   7.7163   7.8096
     7.8445   7.8610   7.8730   7.8887   7.9153   7.9212   7.9577   7.9941
     8.0049   8.0395   8.0407   8.0828   8.1075   8.1168   8.1301   8.1723
     8.1989   8.2280   8.2345   8.2654   8.2994   8.3098   8.3253   8.3587
     8.3683   8.3856   8.4109   8.4387   8.4709   8.4962   8.5059   8.5453
     8.5508   8.5593   8.6351   8.6599   8.6852   8.7203   8.7301   8.7592
     8.7942   8.8168   8.8362   8.8546   8.9000   8.9095   8.9422   8.9490
     8.9506   8.9806   8.9865   9.0112   9.0289   9.0438   9.0632   9.0722
     9.0839   9.0979   9.1087   9.1117   9.1173   9.1359   9.1631   9.1712
     9.1874   9.2055   9.2108   9.2202   9.2353   9.2540   9.2728   9.2775
     9.2985   9.3066   9.3114   9.3212   9.3502   9.3632   9.3807   9.4009
     9.4267   9.4334   9.4564   9.4721   9.4764   9.4907   9.5032   9.5225
     9.5300   9.5414   9.5650   9.5659   9.5932   9.6057   9.6154   9.6251
     9.6418   9.6568

          k = 0.0000 0.4779 0.0000 (274115 PWs)   bands (ev):

   -39.0818 -39.0715 -39.0697 -39.0604 -39.0581 -39.0461 -39.0452 -37.8503
   -37.8221 -37.8202 -37.8152 -37.8125 -37.7991 -37.7982 -36.5064 -35.3863
   -22.4671 -22.4549 -22.4373 -22.4268 -22.4187 -22.3905 -22.3770 -22.3540
   -22.3408 -22.3187 -22.3159 -22.3133 -22.3069 -22.2849 -22.2848 -22.2756
   -22.2711 -22.2386 -22.2382 -22.2135 -22.1956 -22.1945 -22.1888 -22.1707
   -22.1603 -22.1554 -22.1385 -22.1323 -22.1090 -22.0283 -22.0103 -21.9280
   -19.3629 -19.3395 -19.3343 -19.3083 -19.3041 -19.2345 -19.2120 -19.2009
   -19.1805 -19.1743 -19.1250 -19.1020 -19.0931 -19.0686 -19.0623 -19.0410
   -19.0187 -19.0023 -18.9994 -18.9855 -18.9706 -18.3927 -18.3880 -18.3523
   -18.3226 -18.2958 -18.2927 -18.2418 -18.2049 -18.1481 -18.1411 -18.1322
   -18.1261 -18.1077 -18.0557 -18.0110 -17.9930 -17.9692 -17.9482 -17.9350
   -17.8654 -17.8250 -17.6320 -17.6158 -17.5511 -16.6459 -16.6187 -16.6097
   -15.1284 -15.0137 -15.0020 -14.9737 -14.8604 -14.7908 -14.7365 -14.6904
   -14.6532 -14.6210 -14.6182 -14.5445 -14.5368 -14.5159 -14.4844 -14.4812
   -14.4499 -14.4380 -14.4235 -14.4109 -14.4068 -14.3934 -14.3913 -14.3842
   -14.3714 -14.3685 -14.3665 -14.3471 -14.3381 -14.3373 -14.3185 -14.3114
   -14.3054 -14.2940 -14.2553 -14.2518 -14.2107 -14.1960 -14.1935 -14.1800
   -14.1791 -14.1747 -14.1737 -14.1639 -14.1493 -14.1491 -14.1385 -14.1365
   -14.1284 -14.1195 -14.0837 -14.0729 -14.0624 -14.0457 -14.0315 -14.0266
   -14.0248 -14.0150 -13.9904 -13.9756 -13.9300 -13.9193 -13.8998 -13.8914
   -13.8757 -13.8687 -13.8636 -13.8598 -13.8537 -13.8494 -13.8285 -13.8183
   -13.7962 -13.7903 -13.7877 -13.7829 -13.7789 -13.7565 -13.7496 -13.7241
   -13.6977 -13.6912 -13.6580 -13.6443 -13.5484 -13.5440 -13.5427 -13.5376
   -13.5336 -13.5305 -13.5272 -13.5247 -13.5216 -13.5169 -13.5159 -13.4874
   -13.4850 -13.4762 -13.4735 -13.4529 -13.4523 -13.4445 -13.4427 -13.4378
   -13.4329 -13.4322 -13.4293 -13.4276 -13.4266 -13.4231 -13.4172 -13.4109
   -13.3993 -13.3666 -13.3468 -13.3115 -13.2465 -13.2355 -13.2024 -13.2014
    -8.1980  -8.0980  -8.0636  -8.0562  -8.0463  -7.9731  -7.9654  -7.9476
    -7.9244  -7.9218  -7.9150  -7.9010  -7.8894  -7.8683  -7.8446  -7.8361
    -7.8164  -7.7838  -7.7743  -7.7521  -7.7420  -7.7419  -7.7305  -7.7122
    -7.6848  -7.6845  -7.6645  -7.6604  -7.6579  -7.6528  -7.6465  -7.6284
    -7.6269  -7.6177  -7.6054  -7.5914  -7.5711  -7.5561  -7.5545  -7.5539
    -7.5487  -7.5486  -7.5476  -7.5471  -7.5424  -7.5407  -7.5353  -7.5248
    -7.5208  -7.5194  -7.5191  -7.5026  -7.4963  -7.4922  -7.4826  -7.4768
    -7.4700  -7.4479  -7.4442  -7.4322  -7.4303  -7.4297  -7.4231  -7.4170
    -7.4145  -7.4094  -7.4078  -7.4075  -7.4034  -7.3946  -7.3800  -7.3608
    -7.3522  -7.3413  -7.3302  -7.3282  -7.2945  -7.2924  -7.2838  -7.2765
    -7.2764  -7.2562  -7.2491  -7.2360  -7.2206  -7.1812  -7.1804  -7.1565
    -7.1385  -7.1238  -7.1194  -7.1127  -7.0885  -7.0067  -6.9687  -6.9247
    -3.6831  -3.6022  -3.4027  -3.3476  -3.3190  -3.2607  -3.0870  -3.0584
    -2.9444  -2.9093  -2.8858  -2.8648  -2.7930  -2.7483  -2.7320  -2.6866
    -2.6800  -2.6674  -2.6405  -2.5266  -2.5097  -2.4907  -2.4852  -2.4578
    -2.4573  -2.4409  -2.4387  -2.3934  -2.3617  -2.3447  -2.3267  -2.2980
    -2.2838  -2.1866  -2.1818  -2.1537  -2.1525  -2.1441  -2.1325  -2.1172
    -2.1103  -2.1034  -2.0815  -2.0610  -2.0605  -2.0147  -1.9985  -1.9853
    -1.9577  -1.9532  -1.9505  -1.9495  -1.9445  -1.9312  -1.9142  -1.9025
    -1.8793  -1.8772  -1.8461  -1.8385  -1.7936  -1.7880  -1.7809  -1.7469
    -1.7392  -1.7276  -1.7205  -1.7196  -1.7010  -1.6994  -1.6906  -1.6896
    -1.6796  -1.6657  -1.6639  -1.6511  -1.6461  -1.6424  -1.6421  -1.6414
    -1.6406  -1.6376  -1.6345  -1.6343  -1.6325  -1.6278  -1.6172  -1.6097
    -1.6096  -1.6076  -1.5867  -1.5841  -1.5823  -1.5802  -1.5652  -1.5607
    -1.5160  -1.5050  -1.4999  -1.4790  -1.4773  -1.4713  -1.4375  -1.4257
    -1.4243  -1.4197  -1.4154  -1.4118  -1.3909  -1.3827  -1.3635  -1.3584
    -1.3532  -1.3497  -1.3213  -1.2843  -1.2702  -1.2588  -1.2436  -1.2162
    -1.2102  -1.1997  -1.1669  -1.1226  -1.1068  -1.0936  -1.0856  -1.0643
    -1.0583  -1.0574  -1.0467  -1.0443  -1.0432  -1.0237  -1.0139  -0.9946
    -0.9848  -0.9689  -0.9441  -0.9359  -0.9268  -0.9249  -0.9217  -0.8884
    -0.8450  -0.8020  -0.7707  -0.7628  -0.7297  -0.7286  -0.7221  -0.7082
    -0.7024  -0.6826  -0.6776  -0.6728  -0.6677  -0.6588  -0.6504  -0.6417
    -0.6315  -0.6278  -0.6156  -0.5939  -0.5814  -0.5689  -0.5670  -0.5627
    -0.5428  -0.5342  -0.5265  -0.5243  -0.5229  -0.5206  -0.5203  -0.5176
    -0.5172  -0.5148  -0.5106  -0.5088  -0.4994  -0.4819  -0.4807  -0.4736
    -0.4626  -0.4574  -0.4546  -0.4487  -0.4469  -0.4435  -0.4399  -0.4363
    -0.4303  -0.4217  -0.4166  -0.4055  -0.4046  -0.3916  -0.3868  -0.3792
    -0.3699  -0.3695  -0.3518  -0.3475  -0.3397  -0.3326  -0.3283  -0.3246
    -0.3228  -0.3210  -0.3094  -0.3035  -0.2925  -0.2853  -0.2782  -0.2781
    -0.2704  -0.2692  -0.2236  -0.2097  -0.2055  -0.1992  -0.1914  -0.1819
    -0.1776  -0.1739  -0.1686  -0.1674  -0.1653  -0.1550  -0.1535  -0.1484
    -0.1406  -0.1393  -0.1361  -0.1314  -0.1208  -0.1035  -0.1033  -0.0970
    -0.0845  -0.0804  -0.0731  -0.0638  -0.0493  -0.0449  -0.0302  -0.0298
    -0.0159  -0.0085  -0.0051  -0.0032   0.0317   0.0366   0.0548   0.0645
     0.1033   0.1118   0.1136   0.1361   0.1382   0.1388   0.1465   0.1476
     0.1505   0.1653   0.1905   0.2064   0.2130   0.2322   0.2385   0.2432
     0.2472   0.2504   0.2619   0.2744   0.2881   0.3076   0.3146   0.3519
     0.3771   0.3835   0.3849   0.3865   0.3982   0.4127   0.4381   0.4383
     0.4575   0.4791   0.4917   0.5077   0.5214   0.5504   0.5567   0.5568
     0.5618   0.5645   0.5763   0.5844   0.5870   0.5936   0.5949   0.5986
     0.6024   0.6061   0.6248   0.6356   0.6555   0.6674   0.6696   0.6922
     0.6945   0.6969   0.7127   0.7156   0.7331   0.7342   0.7429   0.7446
     0.7449   0.7496   0.7543   0.7554   0.7578   0.7665   0.7707   0.7792
     0.7850   0.7906   0.8054   0.8060   0.8111   0.8141   0.8283   0.8481
     0.8546   0.8645   0.8684   0.8689   0.8742   0.8879   0.8919   0.8927
     0.9002   0.9019   0.9093   0.9164   0.9194   0.9309   0.9345   0.9368
     0.9379   0.9414   0.9539   0.9703   0.9813   0.9821   0.9835   0.9923
     1.0296   1.0334   1.0403   1.0438   1.0509   1.0605   1.0823   1.0969
     1.1339   1.1413   1.1459   1.1578   1.1627   1.1742   1.1755   1.1884
     1.1993   1.2035   1.2205   1.2244   1.2260   1.2422   1.2493   1.2758
     1.3012   1.3101   1.3114   1.3233   1.3338   1.3396   1.3484   1.3591
     1.3778   1.3963   1.3997   1.4141   1.4223   1.4295   1.4328   1.4466
     1.4614   1.4656   1.4662   1.4688   1.4731   1.4741   1.4809   1.4862
     1.5016   1.5042   1.5180   1.5289   1.5465   1.5551   1.5640   1.5646
     1.5649   1.5729   1.5752   1.5804   1.5812   1.5823   1.5862   1.6001
     1.6010   1.6019   1.6053   1.6132   1.6188   1.6269   1.6280   1.6287
     1.6316   1.6332   1.6347   1.6401   1.6414   1.6506   1.6525   1.6544
     1.6570   1.6598   1.6675   1.6810   1.6868   1.6903   1.6982   1.7043
     1.7280   1.7383   1.7395   1.7515   1.7541   1.7561   1.7630   1.7662
     1.7702   1.7745   1.7806   1.7908   1.7956   1.8022   1.8026   1.8079
     1.8134   1.8144   1.8167   1.8259   1.8266   1.8293   1.8366   1.8527
     1.8627   1.8658   1.8674   1.8713   1.8869   1.8891   1.8938   1.8983
     1.8994   1.9035   1.9100   1.9159   1.9178   1.9230   1.9387   1.9442
     1.9460   1.9634   1.9697   1.9704   1.9741   1.9782   1.9859   1.9927
     2.0009   2.0174   2.0190   2.0233   2.0271   2.0423   2.0539   2.0544
     2.0589   2.0703   2.0851   2.0899   2.0997   2.1048   2.1065   2.1140
     2.1228   2.1245   2.1359   2.1451   2.1495   2.1497   2.1515   2.1587
     2.1685   2.1759   2.1832   2.1849   2.1853   2.1898   2.1930   2.2011
     2.2033   2.2148   2.2159   2.2274   2.2336   2.2373   2.2445   2.2554
     2.2584   2.2602   2.2639   2.2785   2.2796   2.2799   2.2972   2.2995
     2.3143   2.3236   2.3256   2.3625   2.3630   2.3759   2.3903   2.3941
     2.3976   2.4150   2.4268   2.4315   2.4317   2.4349   2.4416   2.4627
     2.4823   2.4945   2.4965   2.5417   2.5497   2.5542   2.5641   2.5681
     2.5781   2.6032   2.6034   2.6160   2.6241   2.6288   2.6429   2.6485
     2.6563   2.6819   2.6974   2.7028   2.7455   2.7525   2.7687   2.7732
     2.7833   2.7849   2.7885   2.7906   2.7966   2.8117   2.9054   2.9068
     2.9127   2.9165   2.9175   2.9592   3.0139   3.0332   3.0398   3.0629
     3.1472   3.1571   3.2282   3.2443   3.2529   3.2713   3.3409   3.3454
     3.3511   3.3545   3.3670   3.3703   3.3833   3.3908   3.4491   3.4599
     3.4771   3.5189   3.5242   3.5612   3.5848   3.6286   3.7393   3.7794
     3.8507   3.8539   3.9445   3.9600   4.1261   4.1373   4.1922   4.2173
     4.3288   4.4483   4.4965   4.5683   4.5991   4.6401   4.7332   4.8511
     5.5922   5.9063   5.9633   6.0197   6.0390   6.1666   6.1729   6.2183
     6.2704   6.2917   6.2954   6.3220   6.3260   6.4332   6.5110   6.5287
     6.5471   6.5547   6.5957   6.7177   6.7699   6.7948   6.8129   6.8152
     6.9939   7.0778   7.0828   7.1010   7.1059   7.1269   7.1451   7.1462
     7.2008   7.2686   7.2742   7.3460   7.3512   7.3558   7.3975   7.4109
     7.4191   7.4210   7.4621   7.5034   7.5061   7.5408   7.6591   7.6832
     7.6959   7.7217   7.7711   7.7831   7.8562   7.9287   7.9485   7.9651
     8.0167   8.0548   8.0565   8.1046   8.1416   8.1534   8.2024   8.2152
     8.2259   8.2287   8.2549   8.2553   8.2716   8.3100   8.3195   8.3240
     8.3311   8.3618   8.3938   8.4169   8.4280   8.4503   8.4975   8.5084
     8.5092   8.5483   8.6052   8.6687   8.6733   8.6873   8.6930   8.7283
     8.7976   8.8363   8.8453   8.8636   8.8688   8.9074   8.9118   8.9654
     8.9772   8.9958   9.0188   9.0241   9.0367   9.0400   9.0698   9.0843
     9.0875   9.0985   9.0995   9.1106   9.1489   9.1697   9.1730   9.1982
     9.2075   9.2207   9.2242   9.2258   9.2343   9.2473   9.2510   9.2653
     9.2748   9.3060   9.3797   9.3929   9.3955   9.4023   9.4078   9.4098
     9.4170   9.4560   9.4984   9.5177   9.5358   9.5388   9.5662   9.5715
     9.5811   9.6006   9.6113   9.6142   9.6241   9.6468   9.6577   9.6903
     9.6930   9.7112

          k =-0.4652-0.0000 0.0000 (274136 PWs)   bands (ev):

   -39.0819 -39.0717 -39.0694 -39.0602 -39.0583 -39.0460 -39.0451 -37.8503
   -37.8227 -37.8193 -37.8152 -37.8128 -37.7995 -37.7978 -36.5064 -35.3863
   -22.4732 -22.4558 -22.4273 -22.4171 -22.4158 -22.4079 -22.3819 -22.3457
   -22.3248 -22.3227 -22.3218 -22.3215 -22.3176 -22.2782 -22.2759 -22.2719
   -22.2637 -22.2556 -22.2380 -22.2213 -22.1971 -22.1888 -22.1735 -22.1705
   -22.1645 -22.1640 -22.1413 -22.1259 -22.1093 -22.0359 -22.0035 -21.9284
   -19.3842 -19.3331 -19.3191 -19.3118 -19.2693 -19.2403 -19.2350 -19.2099
   -19.1868 -19.1708 -19.1202 -19.1000 -19.0912 -19.0673 -19.0664 -19.0403
   -19.0132 -19.0027 -19.0013 -18.9885 -18.9684 -18.4285 -18.3559 -18.3502
   -18.3254 -18.3011 -18.2622 -18.2242 -18.2139 -18.1586 -18.1516 -18.1318
   -18.1299 -18.1224 -18.0492 -18.0233 -17.9879 -17.9628 -17.9437 -17.9397
   -17.8697 -17.8167 -17.6319 -17.6159 -17.5511 -16.6458 -16.6171 -16.6111
   -15.1290 -15.0154 -14.9953 -14.9666 -14.8694 -14.8078 -14.7382 -14.6847
   -14.6410 -14.6256 -14.6135 -14.5471 -14.5124 -14.5109 -14.4780 -14.4706
   -14.4682 -14.4599 -14.4543 -14.4384 -14.4229 -14.4062 -14.3972 -14.3882
   -14.3690 -14.3547 -14.3289 -14.3221 -14.3191 -14.3107 -14.3006 -14.2868
   -14.2817 -14.2740 -14.2688 -14.2634 -14.2555 -14.2386 -14.2253 -14.2240
   -14.2075 -14.1772 -14.1735 -14.1447 -14.1386 -14.1118 -14.1095 -14.1076
   -14.0966 -14.0954 -14.0843 -14.0820 -14.0773 -14.0638 -14.0538 -14.0466
   -14.0400 -14.0313 -13.9901 -13.9565 -13.9373 -13.9189 -13.9099 -13.9099
   -13.8924 -13.8828 -13.8771 -13.8434 -13.8331 -13.8224 -13.8176 -13.8039
   -13.7773 -13.7724 -13.7691 -13.7659 -13.7608 -13.7592 -13.7575 -13.7205
   -13.7134 -13.6931 -13.6658 -13.6479 -13.6420 -13.5622 -13.5416 -13.5381
   -13.5330 -13.5247 -13.5168 -13.5163 -13.5154 -13.5142 -13.5069 -13.5001
   -13.4853 -13.4667 -13.4635 -13.4587 -13.4563 -13.4556 -13.4534 -13.4461
   -13.4373 -13.4304 -13.4237 -13.4233 -13.4210 -13.4154 -13.4055 -13.3751
   -13.3696 -13.3663 -13.3295 -13.3218 -13.3132 -13.2509 -13.2111 -13.1625
    -8.2531  -8.1471  -8.1221  -7.9731  -7.9699  -7.9674  -7.9639  -7.9402
    -7.9105  -7.8912  -7.8690  -7.8381  -7.8362  -7.8319  -7.8314  -7.8162
    -7.8130  -7.7814  -7.7508  -7.7484  -7.7470  -7.7349  -7.7259  -7.7150
    -7.7045  -7.6830  -7.6751  -7.6733  -7.6701  -7.6617  -7.6591  -7.6522
    -7.6517  -7.6486  -7.6398  -7.6346  -7.6253  -7.6084  -7.5991  -7.5861
    -7.5775  -7.5748  -7.5600  -7.5542  -7.5523  -7.5451  -7.5323  -7.5299
    -7.5251  -7.5192  -7.5176  -7.5107  -7.5070  -7.5025  -7.5018  -7.4889
    -7.4874  -7.4791  -7.4626  -7.4592  -7.4483  -7.4427  -7.4419  -7.4163
    -7.4026  -7.3953  -7.3915  -7.3808  -7.3694  -7.3511  -7.3494  -7.3425
    -7.3327  -7.3047  -7.3021  -7.3013  -7.2964  -7.2873  -7.2779  -7.2772
    -7.2647  -7.2414  -7.2172  -7.2171  -7.2137  -7.1725  -7.1603  -7.1509
    -7.1435  -7.1380  -7.1245  -7.0908  -7.0589  -7.0393  -6.9945  -6.9366
    -3.7199  -3.6479  -3.3332  -3.2786  -3.2297  -3.1875  -3.1781  -3.1440
    -3.1008  -2.9885  -2.8664  -2.7787  -2.7672  -2.7506  -2.7443  -2.7170
    -2.6628  -2.6138  -2.6014  -2.5851  -2.5838  -2.5745  -2.5473  -2.5463
    -2.5362  -2.4886  -2.4280  -2.4133  -2.3224  -2.2744  -2.2476  -2.2222
    -2.1675  -2.1555  -2.1491  -2.1084  -2.0962  -2.0818  -2.0811  -2.0718
    -2.0273  -2.0203  -2.0091  -2.0040  -2.0032  -1.9832  -1.9782  -1.9428
    -1.9249  -1.9243  -1.9212  -1.9062  -1.8849  -1.8628  -1.8543  -1.8449
    -1.8366  -1.8356  -1.8329  -1.7971  -1.7938  -1.7842  -1.7791  -1.7656
    -1.7413  -1.7398  -1.7364  -1.7331  -1.7295  -1.7097  -1.7088  -1.7055
    -1.7008  -1.6935  -1.6816  -1.6800  -1.6755  -1.6750  -1.6699  -1.6595
    -1.6592  -1.6417  -1.6358  -1.6315  -1.6308  -1.6291  -1.6268  -1.6206
    -1.6033  -1.6030  -1.5866  -1.5846  -1.5752  -1.5477  -1.5462  -1.5439
    -1.5349  -1.5348  -1.5323  -1.5301  -1.5268  -1.5166  -1.5162  -1.5045
    -1.4772  -1.4676  -1.4471  -1.4410  -1.4372  -1.4170  -1.4123  -1.3964
    -1.3885  -1.3883  -1.3789  -1.3754  -1.3564  -1.3389  -1.3362  -1.3040
    -1.2757  -1.2470  -1.2222  -1.2029  -1.1769  -1.1605  -1.1502  -1.1482
    -1.1028  -1.0917  -1.0445  -0.9962  -0.9923  -0.9850  -0.9772  -0.9702
    -0.9696  -0.9516  -0.9385  -0.9275  -0.9136  -0.9023  -0.9002  -0.8715
    -0.8444  -0.8124  -0.7911  -0.7704  -0.7506  -0.7448  -0.7423  -0.7405
    -0.7074  -0.6847  -0.6672  -0.6622  -0.6496  -0.6310  -0.6258  -0.6144
    -0.6132  -0.6086  -0.6007  -0.5965  -0.5960  -0.5907  -0.5808  -0.5763
    -0.5706  -0.5686  -0.5681  -0.5589  -0.5508  -0.5340  -0.5275  -0.5242
    -0.5077  -0.5062  -0.4932  -0.4904  -0.4871  -0.4677  -0.4557  -0.4539
    -0.4489  -0.4459  -0.4291  -0.4120  -0.4037  -0.3905  -0.3885  -0.3834
    -0.3796  -0.3741  -0.3622  -0.3589  -0.3574  -0.3500  -0.3471  -0.3452
    -0.3416  -0.3408  -0.3386  -0.3247  -0.3153  -0.3025  -0.2816  -0.2756
    -0.2755  -0.2662  -0.2618  -0.2606  -0.2539  -0.2502  -0.2470  -0.2413
    -0.2395  -0.2382  -0.2350  -0.2330  -0.2228  -0.2029  -0.2005  -0.1958
    -0.1930  -0.1895  -0.1855  -0.1825  -0.1801  -0.1650  -0.1622  -0.1441
    -0.1427  -0.1329  -0.1172  -0.1162  -0.0969  -0.0946  -0.0896  -0.0887
    -0.0753  -0.0625  -0.0578  -0.0564  -0.0485  -0.0463  -0.0316  -0.0071
    -0.0030   0.0151   0.0223   0.0274   0.0305   0.0321   0.0361   0.0502
     0.0550   0.0840   0.0845   0.1025   0.1194   0.1402   0.1565   0.1619
     0.1637   0.1676   0.1706   0.1878   0.1988   0.2009   0.2113   0.2189
     0.2245   0.2308   0.2329   0.2399   0.2486   0.2558   0.2635   0.3160
     0.3218   0.3764   0.3814   0.3852   0.4089   0.4096   0.4320   0.4408
     0.4529   0.4651   0.4795   0.5114   0.5121   0.5275   0.5288   0.5490
     0.5870   0.5927   0.5984   0.6005   0.6061   0.6092   0.6217   0.6229
     0.6310   0.6339   0.6590   0.6608   0.6702   0.6769   0.6807   0.6879
     0.6942   0.7030   0.7105   0.7121   0.7182   0.7237   0.7241   0.7289
[...]
     atom   61 type  5   force =     0.00000000    0.00000000   -0.00022346
     atom   62 type  5   force =     0.00000000    0.00000000   -0.00022346
     atom   63 type  5   force =     0.00000000   -0.00001262   -0.00029437
     atom   64 type  5   force =     0.00000000    0.00001262   -0.00029437
     atom   65 type  4   force =    -0.00031385    0.00006713    0.00018995
     atom   66 type  4   force =    -0.00031385   -0.00006713    0.00018995
     atom   67 type  4   force =     0.00031385    0.00006713    0.00018995
     atom   68 type  4   force =     0.00031385   -0.00006713    0.00018995
     atom   69 type  4   force =     0.00000000   -0.00018960   -0.00017015
     atom   70 type  4   force =     0.00000000    0.00018960   -0.00017015
     atom   71 type  4   force =    -0.00010474   -0.00003468    0.00026932
     atom   72 type  4   force =    -0.00010474    0.00003468    0.00026932
     atom   73 type  4   force =     0.00010474    0.00003468    0.00026932
     atom   74 type  4   force =     0.00010474   -0.00003468    0.00026932
     atom   75 type  4   force =     0.00017340    0.00000000    0.00023993
     atom   76 type  4   force =    -0.00017340    0.00000000    0.00023993
     atom   77 type  4   force =     0.00000000   -0.00030764    0.00078015
     atom   78 type  4   force =     0.00000000    0.00030764    0.00078015
     atom   79 type  4   force =     0.00013743    0.00000000   -0.00016081
     atom   80 type  4   force =    -0.00013743    0.00000000   -0.00016081
     atom   81 type  3   force =     0.00008402   -0.00001766   -0.00058715
     atom   82 type  3   force =     0.00008402    0.00001766   -0.00058715
     atom   83 type  3   force =    -0.00008402   -0.00001766   -0.00058715
     atom   84 type  3   force =    -0.00008402    0.00001766   -0.00058715
     atom   85 type  3   force =     0.00002869   -0.00001936   -0.00067758
     atom   86 type  3   force =    -0.00002869   -0.00001936   -0.00067758
     atom   87 type  3   force =    -0.00002869    0.00001936   -0.00067758
     atom   88 type  3   force =     0.00002869    0.00001936   -0.00067758
     atom   89 type  1   force =     0.00000000    0.00000000   -0.00050655
     atom   90 type  1   force =     0.00000000   -0.00003949   -0.00099545
     atom   91 type  1   force =     0.00000000    0.00003949   -0.00099545
     atom   92 type  1   force =    -0.00003222    0.00000000   -0.00038507
     atom   93 type  1   force =     0.00003222    0.00000000   -0.00038507
     atom   94 type  1   force =     0.00000000    0.00000000   -0.00086649
     atom   95 type  1   force =     0.00000000    0.00000000   -0.00086649
     atom   96 type  1   force =     0.00000000    0.00000000   -0.00056758
     atom   97 type  4   force =    -0.00012464   -0.00005878    0.00125738
     atom   98 type  4   force =    -0.00012464    0.00005878    0.00125738
     atom   99 type  4   force =     0.00012464   -0.00005878    0.00125738
     atom  100 type  4   force =     0.00012464    0.00005878    0.00125738
     atom  101 type  4   force =    -0.00003820   -0.00041913    0.00117802
     atom  102 type  4   force =     0.00003820   -0.00041913    0.00117802
     atom  103 type  4   force =     0.00003820    0.00041913    0.00117802
     atom  104 type  4   force =    -0.00003820    0.00041913    0.00117802
     atom  105 type  4   force =     0.00050436    0.00000000    0.00233953
     atom  106 type  4   force =    -0.00050436    0.00000000    0.00233953
     atom  107 type  3   force =    -0.00085192   -0.00026611   -0.00386863
     atom  108 type  3   force =    -0.00085192    0.00026611   -0.00386863
     atom  109 type  3   force =     0.00085192    0.00026611   -0.00386863
     atom  110 type  3   force =     0.00085192   -0.00026611   -0.00386863
     atom  111 type  3   force =    -0.00099834   -0.00018240   -0.00413064
     atom  112 type  3   force =     0.00099834    0.00018240   -0.00413064
     atom  113 type  3   force =    -0.00099834    0.00018240   -0.00413064
     atom  114 type  3   force =     0.00099834   -0.00018240   -0.00413064
     atom  115 type  4   force =     0.00018031   -0.00063446    0.00243072
     atom  116 type  4   force =    -0.00018031   -0.00063446    0.00243072
     atom  117 type  4   force =     0.00018031    0.00063446    0.00243072
     atom  118 type  4   force =    -0.00018031    0.00063446    0.00243072
     atom  119 type  4   force =     0.00001951    0.00000000    0.00213458
     atom  120 type  4   force =    -0.00001951    0.00000000    0.00213458
     atom  121 type  4   force =    -0.00053442   -0.00024461    0.00540433
     atom  122 type  4   force =     0.00053442   -0.00024461    0.00540433
     atom  123 type  4   force =     0.00053442    0.00024461    0.00540433
     atom  124 type  4   force =    -0.00053442    0.00024461    0.00540433
     atom  125 type  4   force =     0.00032096   -0.00028691    0.00589158
     atom  126 type  4   force =     0.00032096    0.00028691    0.00589158
     atom  127 type  4   force =    -0.00032096   -0.00028691    0.00589158
     atom  128 type  4   force =    -0.00032096    0.00028691    0.00589158
     atom  129 type  1   force =     0.00000000    0.00000000   -0.01072372
     atom  130 type  1   force =     0.00000000    0.00000000   -0.01015982
     atom  131 type  1   force =     0.00000000    0.00000000   -0.01015982
     atom  132 type  1   force =    -0.00069253    0.00000000   -0.01063602
     atom  133 type  1   force =     0.00069253    0.00000000   -0.01063602
     atom  134 type  1   force =     0.00000000   -0.00044665   -0.00939581
     atom  135 type  1   force =     0.00000000    0.00044665   -0.00939581
     atom  136 type  1   force =     0.00000000    0.00000000   -0.00869183
     atom  137 type  3   force =     0.00018525   -0.00000146    0.00042107
     atom  138 type  3   force =     0.00018525    0.00000146    0.00042107
     atom  139 type  3   force =    -0.00018525    0.00000146    0.00042107
     atom  140 type  3   force =    -0.00018525   -0.00000146    0.00042107
     atom  141 type  3   force =    -0.00089805    0.00086065    0.00132765
     atom  142 type  3   force =    -0.00089805   -0.00086065    0.00132765
     atom  143 type  3   force =     0.00089805    0.00086065    0.00132765
     atom  144 type  3   force =     0.00089805   -0.00086065    0.00132765
     atom  145 type  4   force =    -0.00663350    0.00000000    0.03220603
     atom  146 type  4   force =     0.00663350    0.00000000    0.03220603
     atom  147 type  4   force =     0.00000000   -0.00659416    0.03085941
     atom  148 type  4   force =     0.00000000    0.00659416    0.03085941
     atom  149 type  4   force =     0.00065413    0.00000000    0.04007015
     atom  150 type  4   force =    -0.00065413    0.00000000    0.04007015
     atom  151 type  4   force =    -0.00064573   -0.00059210    0.03962800
     atom  152 type  4   force =     0.00064573   -0.00059210    0.03962800
     atom  153 type  4   force =     0.00064573    0.00059210    0.03962800
     atom  154 type  4   force =    -0.00064573    0.00059210    0.03962800
     atom  155 type  4   force =     0.00000000    0.00068386    0.03956410
     atom  156 type  4   force =     0.00000000   -0.00068386    0.03956410
     atom  157 type  4   force =     0.00022910   -0.00083908    0.03921336
     atom  158 type  4   force =    -0.00022910    0.00083908    0.03921336
     atom  159 type  4   force =     0.00022910    0.00083908    0.03921336
     atom  160 type  4   force =    -0.00022910   -0.00083908    0.03921336
     atom  161 type  2   force =     0.00000000    0.00000000    0.03718969
     atom  162 type  5   force =    -0.00141218    0.00000000    0.04415833
     atom  163 type  5   force =     0.00141218    0.00000000    0.04415833
     atom  164 type  5   force =     0.00000000    0.00000000    0.04585821
     atom  165 type  5   force =     0.00000000    0.00000000    0.04796875
     atom  166 type  5   force =     0.00000000    0.00000000    0.04796875
     atom  167 type  5   force =     0.00000000   -0.00097267    0.04289660
     atom  168 type  5   force =     0.00000000    0.00097267    0.04289660
     atom  169 type  4   force =    -0.00040232    0.00043680   -0.04348010
     atom  170 type  4   force =    -0.00040232   -0.00043680   -0.04348010
     atom  171 type  4   force =     0.00040232    0.00043680   -0.04348010
     atom  172 type  4   force =     0.00040232   -0.00043680   -0.04348010
     atom  173 type  4   force =     0.00000000    0.00101747   -0.04205362
     atom  174 type  4   force =     0.00000000   -0.00101747   -0.04205362
     atom  175 type  4   force =    -0.00063074   -0.00019772   -0.04451220
     atom  176 type  4   force =    -0.00063074    0.00019772   -0.04451220
     atom  177 type  4   force =     0.00063074    0.00019772   -0.04451220
     atom  178 type  4   force =     0.00063074   -0.00019772   -0.04451220
     atom  179 type  4   force =    -0.00021530    0.00000000   -0.04191588
     atom  180 type  4   force =     0.00021530    0.00000000   -0.04191588
     atom  181 type  4   force =     0.00000000    0.00059862   -0.03140217
     atom  182 type  4   force =     0.00000000   -0.00059862   -0.03140217
     atom  183 type  4   force =    -0.00158532    0.00000000   -0.03353000
     atom  184 type  4   force =     0.00158532    0.00000000   -0.03353000
     atom  185 type  3   force =     0.00083934   -0.00072852   -0.01173973
     atom  186 type  3   force =     0.00083934    0.00072852   -0.01173973
     atom  187 type  3   force =    -0.00083934   -0.00072852   -0.01173973
     atom  188 type  3   force =    -0.00083934    0.00072852   -0.01173973
     atom  189 type  3   force =     0.00016003    0.00011022   -0.01424401
     atom  190 type  3   force =    -0.00016003    0.00011022   -0.01424401
     atom  191 type  3   force =    -0.00016003   -0.00011022   -0.01424401
     atom  192 type  3   force =     0.00016003   -0.00011022   -0.01424401
     atom  193 type  1   force =     0.00000000    0.00000000   -0.01812818
     atom  194 type  1   force =     0.00000000   -0.00015047   -0.02027782
     atom  195 type  1   force =     0.00000000    0.00015047   -0.02027782
     atom  196 type  1   force =     0.00000807    0.00000000   -0.02093161
     atom  197 type  1   force =    -0.00000807    0.00000000   -0.02093161
     atom  198 type  1   force =     0.00000000    0.00000000   -0.02029630
     atom  199 type  1   force =     0.00000000    0.00000000   -0.02029630
     atom  200 type  1   force =     0.00000000    0.00000000   -0.02043899
     atom  201 type  4   force =    -0.00006041    0.00011137    0.00036234
     atom  202 type  4   force =    -0.00006041   -0.00011137    0.00036234
     atom  203 type  4   force =     0.00006041    0.00011137    0.00036234
     atom  204 type  4   force =     0.00006041   -0.00011137    0.00036234
     atom  205 type  4   force =    -0.00009554   -0.00004288   -0.00007453
     atom  206 type  4   force =     0.00009554   -0.00004288   -0.00007453
     atom  207 type  4   force =     0.00009554    0.00004288   -0.00007453
     atom  208 type  4   force =    -0.00009554    0.00004288   -0.00007453
     atom  209 type  4   force =     0.00017383    0.00000000    0.00192541
     atom  210 type  4   force =    -0.00017383    0.00000000    0.00192541
     atom  211 type  3   force =     0.00013817   -0.00007557   -0.00172290
     atom  212 type  3   force =     0.00013817    0.00007557   -0.00172290
     atom  213 type  3   force =    -0.00013817    0.00007557   -0.00172290
     atom  214 type  3   force =    -0.00013817   -0.00007557   -0.00172290
     atom  215 type  3   force =     0.00004105   -0.00007893   -0.00186644
     atom  216 type  3   force =    -0.00004105    0.00007893   -0.00186644
     atom  217 type  3   force =     0.00004105    0.00007893   -0.00186644
     atom  218 type  3   force =    -0.00004105   -0.00007893   -0.00186644
     atom  219 type  4   force =    -0.00008009    0.00035096    0.00189973
     atom  220 type  4   force =     0.00008009    0.00035096    0.00189973
     atom  221 type  4   force =    -0.00008009   -0.00035096    0.00189973
     atom  222 type  4   force =     0.00008009   -0.00035096    0.00189973
     atom  223 type  4   force =    -0.00024277    0.00000000    0.00145754
     atom  224 type  4   force =     0.00024277    0.00000000    0.00145754

     Total force =     0.267118     Total SCF correction =     0.000149


     Computing stress (Cartesian axis) and pressure


     negative rho (up, down):  6.338E-01 0.000E+00
          total   stress  (Ry/bohr**3)                   (kbar)     P=       -9.25
  -0.00001895  -0.00000000   0.00000000           -2.79       -0.00        0.00
  -0.00000000  -0.00001399   0.00000000           -0.00       -2.06        0.00
   0.00000000   0.00000000  -0.00015574            0.00        0.00      -22.91

 
     init_run     :     58.60s CPU     60.01s WALL (       1 calls)
     electrons    :   4713.21s CPU   4790.39s WALL (       1 calls)
     forces       :     35.01s CPU     35.78s WALL (       1 calls)
     stress       :    464.68s CPU    467.23s WALL (       1 calls)

     Called by init_run:
     wfcinit      :     46.12s CPU     46.79s WALL (       1 calls)
     potinit      :      1.64s CPU      1.67s WALL (       1 calls)
     hinit0       :      2.72s CPU      2.90s WALL (       1 calls)

     Called by electrons:
     c_bands      :   3858.25s CPU   3896.73s WALL (      42 calls)
     sum_band     :    573.41s CPU    594.16s WALL (      42 calls)
     v_of_rho     :     12.36s CPU     12.60s WALL (      43 calls)
     newd         :    121.54s CPU    138.80s WALL (      43 calls)
     mix_rho      :    148.53s CPU    149.31s WALL (      42 calls)

     Called by c_bands:
     init_us_2    :      7.98s CPU      8.08s WALL (     348 calls)
     cegterg      :   3750.76s CPU   3787.19s WALL (     168 calls)

     Called by sum_band:
     sum_band:bec :      3.56s CPU      3.58s WALL (     168 calls)
     addusdens    :     72.70s CPU     90.35s WALL (      42 calls)

     Called by *egterg:
     h_psi        :   1562.20s CPU   1579.20s WALL (     993 calls)
     s_psi        :    400.12s CPU    404.96s WALL (     993 calls)
     g_psi        :      1.60s CPU      1.61s WALL (     821 calls)
     cdiaghg      :    736.45s CPU    739.72s WALL (     989 calls)

     Called by h_psi:
     h_psi:calbec :    477.97s CPU    479.66s WALL (     993 calls)
     vloc_psi     :    681.47s CPU    688.32s WALL (     993 calls)
     add_vuspsi   :    400.30s CPU    404.93s WALL (     993 calls)

     General routines
     calbec       :    869.28s CPU    872.11s WALL (    1181 calls)
     fft          :     13.52s CPU     13.66s WALL (     582 calls)
     ffts         :     97.26s CPU     97.76s WALL (   33166 calls)
     fftw         :    791.10s CPU    798.81s WALL (  952544 calls)
     interpolate  :      1.19s CPU      1.19s WALL (      43 calls)
 
     Parallel routines
     fft_scatt_xy :     80.41s CPU     81.16s WALL (  986292 calls)
     fft_scatt_yz :    608.90s CPU    614.65s WALL (  986292 calls)
 
     PWSCF        :      1h27m CPU      1h29m WALL

 
   This run was terminated on:  14: 7: 0  17May2021            

=------------------------------------------------------------------------------=
   JOB DONE.
=------------------------------------------------------------------------------=
[1621274821.002344] [holy7c08610:273446:0]          mpool.c:43   UCX  WARN  object 0x393b600 was not returned to mpool ucp_requests
[1621274821.002374] [holy7c08610:273446:0]          mpool.c:43   UCX  WARN  object 0x393cb00 was not returned to mpool ucp_requests
[1621274821.029938] [holy7c08611:19741:0]          mpool.c:43   UCX  WARN  object 0x68a9b80 was not returned to mpool ucp_requests
[1621274821.005938] [holy7c08610:273452:0]          mpool.c:43   UCX  WARN  object 0x3ac47c0 was not returned to mpool ucp_requests
[1621274821.014191] [holy7c08610:273454:0]          mpool.c:43   UCX  WARN  object 0x2bdfd80 was not returned to mpool ucp_requests
[1621274821.017714] [holy7c08610:273460:0]          mpool.c:43   UCX  WARN  object 0x3689100 was not returned to mpool ucp_requests
[1621274821.015085] [holy7c08610:273444:0]          mpool.c:43   UCX  WARN  object 0x37d0680 was not returned to mpool ucp_requests
[1621274821.013599] [holy7c08610:273459:0]          mpool.c:43   UCX  WARN  object 0x3b4dc80 was not returned to mpool ucp_requests
[1621274821.021186] [holy7c08610:273453:0]          mpool.c:43   UCX  WARN  object 0x44c66c0 was not returned to mpool ucp_requests
[1621274821.019134] [holy7c08610:273451:0]          mpool.c:43   UCX  WARN  object 0x4545380 was not returned to mpool ucp_requests
[1621274821.029763] [holy7c08611:19728:0]          mpool.c:43   UCX  WARN  object 0x34164c0 was not returned to mpool ucp_requests
[1621274821.034138] [holy7c08611:19734:0]          mpool.c:43   UCX  WARN  object 0x40b97c0 was not returned to mpool ucp_requests
[1621274821.037386] [holy7c08611:19727:0]          mpool.c:43   UCX  WARN  object 0x3e1bb00 was not returned to mpool ucp_requests
[1621274821.037412] [holy7c08611:19727:0]          mpool.c:43   UCX  WARN  object 0x3e26a00 was not returned to mpool ucp_requests
[1621274821.037859] [holy7c08611:19720:0]          mpool.c:43   UCX  WARN  object 0x3dafb40 was not returned to mpool ucp_requests
[1621274821.043727] [holy7c08611:19733:0]          mpool.c:43   UCX  WARN  object 0x356b580 was not returned to mpool ucp_requests
[1621274821.040997] [holy7c08611:19742:0]          mpool.c:43   UCX  WARN  object 0x4821640 was not returned to mpool ucp_requests
[1621274821.036551] [holy7c08611:19719:0]          mpool.c:43   UCX  WARN  object 0x2fe0540 was not returned to mpool ucp_requests
[1621274821.048720] [holy7c08611:19736:0]          mpool.c:43   UCX  WARN  object 0x4102180 was not returned to mpool ucp_requests
[1621274821.052487] [holy7c08611:19726:0]          mpool.c:43   UCX  WARN  object 0x39c3140 was not returned to mpool ucp_requests
[1621274821.058014] [holy7c08611:19744:0]          mpool.c:43   UCX  WARN  object 0x455e880 was not returned to mpool ucp_requests
[1621274821.057436] [holy7c08611:19735:0]          mpool.c:43   UCX  WARN  object 0x3aa2080 was not returned to mpool ucp_requests
[1621274821.059867] [holy7c08611:19743:0]          mpool.c:43   UCX  WARN  object 0x3ee2f80 was not returned to mpool ucp_requests
[1621274821.021748] [holy7c08610:273445:0]          mpool.c:43   UCX  WARN  object 0x4651240 was not returned to mpool ucp_requests
[1621274821.021774] [holy7c08610:273445:0]          mpool.c:43   UCX  WARN  object 0x4652900 was not returned to mpool ucp_requests
[1621274821.051276] [holy7c08612:96151:0]          mpool.c:43   UCX  WARN  object 0x4861e00 was not returned to mpool ucp_requests
[1621274821.060494] [holy7c08612:96157:0]          mpool.c:43   UCX  WARN  object 0x3d82e80 was not returned to mpool ucp_requests
[1621274821.060427] [holy7c08612:96159:0]          mpool.c:43   UCX  WARN  object 0x2bd5640 was not returned to mpool ucp_requests
[1621274821.066269] [holy7c08612:96156:0]          mpool.c:43   UCX  WARN  object 0x40d4bc0 was not returned to mpool ucp_requests
[1621274821.062802] [holy7c08612:96158:0]          mpool.c:43   UCX  WARN  object 0x2984f40 was not returned to mpool ucp_requests
[1621274821.064289] [holy7c08612:96149:0]          mpool.c:43   UCX  WARN  object 0x3927cc0 was not returned to mpool ucp_requests
[1621274821.067277] [holy7c08612:96148:0]          mpool.c:43   UCX  WARN  object 0x2f26900 was not returned to mpool ucp_requests
[1621274821.067454] [holy7c08612:96150:0]          mpool.c:43   UCX  WARN  object 0x357bd40 was not returned to mpool ucp_requests
[1621274821.057077] [holy7c08611:19725:0]          mpool.c:43   UCX  WARN  object 0x2952a40 was not returned to mpool ucp_requests
