
     Program PWSCF v.6.5 starts on 17May2021 at 17:55:38 

     This program is part of the open-source Quantum ESPRESSO suite
     for quantum simulation of materials; please cite
         "P. Giannozzi et al., J. Phys.:Condens. Matter 21 395502 (2009);
         "P. Giannozzi et al., J. Phys.:Condens. Matter 29 465901 (2017);
          URL http://www.quantum-espresso.org", 
     in publications or presentations arising from this work. More details at
     http://www.quantum-espresso.org/quote

     Parallel version (MPI), running on    80 processors

     MPI processes distributed on     5 nodes
     R & G space division:  proc/nbgrp/npool/nimage =      80
     Reading input from YBCO_Y_cleave_1.5_sep.pwi
Warning: card &IONS ignored
Warning: card     ION_DYNAMICS = 'BFGS' ignored
Warning: card / ignored
Warning: card &CELL ignored
Warning: card     CELL_DYNAMICS = 'BFGS' ignored
Warning: card     PRESS_CONV_THR = 5 ignored
Warning: card / ignored

     Current dimensions of program PWSCF are:
     Max number of different atomic species (ntypx) = 10
     Max number of k-points (npk) =  40000
     Max angular momentum in pseudopotentials (lmaxx) =  3
     Message from routine volume:
     axis vectors are left-handed

     Subspace diagonalization in iterative solution of the eigenvalue problem:
     one sub-group per band group will be used
     scalapack distributed-memory algorithm (size of sub-group:  8*  8 procs)

     Message from routine setup:
     using ibrav=0 with symmetry is DISCOURAGED, use correct ibrav instead
 
     Parallelization info
     --------------------
     sticks:   dense  smooth     PW     G-vecs:    dense   smooth      PW
     Min         300     100     25               145680    28036    3681
     Max         301     101     26               145717    28055    3718
     Sum       24079    8031   2067             11656413  2243513  296475
 


     bravais-lattice index     =            0
     lattice parameter (alat)  =      20.5021  a.u.
     unit-cell volume          =   35726.4460 (a.u.)^3
     number of atoms/cell      =          224
     number of atomic types    =            5
     number of electrons       =      1830.00
     number of Kohn-Sham states=         1098
     kinetic-energy cutoff     =      60.0000  Ry
     charge density cutoff     =     720.0000  Ry
     convergence threshold     =      1.0E-08
     mixing beta               =       0.5000
     number of iterations used =           10  local-TF  mixing
     Exchange-correlation= SLA PW PBE PBE
                           (   1   4   3   4   0   0   0)

     celldm(1)=  20.502120  celldm(2)=   0.000000  celldm(3)=   0.000000
     celldm(4)=   0.000000  celldm(5)=   0.000000  celldm(6)=   0.000000

     crystal axes: (cart. coord. in units of alat)
               a(1) = (  -0.716599   0.697485   0.000000 )  
               a(2) = (   0.716599   0.697485   0.000000 )  
               a(3) = (   0.000000   0.000000   4.147173 )  

     reciprocal axes: (cart. coord. in units 2 pi/alat)
               b(1) = ( -0.697740  0.716861  0.000000 )  
               b(2) = (  0.697740  0.716861  0.000000 )  
               b(3) = (  0.000000  0.000000  0.241128 )  


     PseudoPot. # 1 for Ba read from file:
     ./pseudo/Ba.pbe-nsp-van.UPF
     MD5 check sum: 2b9c31dd849566dd297d80989662b7a0
     Pseudo is Ultrasoft + core correction, Zval = 10.0
     Generated by new atomic code, or converted to UPF format
     Using radial grid of  907 points,  6 beta functions with: 
                l(1) =   0
                l(2) =   0
                l(3) =   1
                l(4) =   1
                l(5) =   2
                l(6) =   2
     Q(r) pseudized with  6 coefficients,  rinner =    1.200   1.200   1.200
                                                       1.200   1.200

     PseudoPot. # 2 for Ca read from file:
     ./pseudo/Ca.pbe-nsp-van.UPF
     MD5 check sum: 6471098428ff4fa451746d08035ff179
     Pseudo is Ultrasoft + core correction, Zval = 10.0
     Generated by new atomic code, or converted to UPF format
     Using radial grid of  845 points,  6 beta functions with: 
                l(1) =   0
                l(2) =   0
                l(3) =   1
                l(4) =   1
                l(5) =   2
                l(6) =   2
     Q(r) pseudized with  6 coefficients,  rinner =    1.200   1.200   1.200
                                                       1.200   1.200

     PseudoPot. # 3 for Cu read from file:
     ./pseudo/Cu.pbe-n-van_ak.UPF
     MD5 check sum: 34e3282627ffb533726feb647e090d62
     Pseudo is Ultrasoft + core correction, Zval = 11.0
     Generated by new atomic code, or converted to UPF format
     Using radial grid of  867 points,  6 beta functions with: 
                l(1) =   0
                l(2) =   0
                l(3) =   1
                l(4) =   1
                l(5) =   2
                l(6) =   2
     Q(r) pseudized with  8 coefficients,  rinner =    1.400   1.400   1.400
                                                       1.400   1.400

     PseudoPot. # 4 for O  read from file:
     ./pseudo/O.pbe-van_ak.UPF
     MD5 check sum: 783ce7fe4c79b6a4916957118fed0856
     Pseudo is Ultrasoft, Zval =  6.0
     Generated by new atomic code, or converted to UPF format
     Using radial grid of  737 points,  4 beta functions with: 
                l(1) =   0
                l(2) =   0
                l(3) =   1
                l(4) =   1
     Q(r) pseudized with  8 coefficients,  rinner =    0.800   0.800   0.800


     PseudoPot. # 5 for Y  read from file:
     ./pseudo/Y.pbe-nsp-van.UPF
     MD5 check sum: 4412fed3ab108fed87a1b7d6a69a4a38
     Pseudo is Ultrasoft + core correction, Zval = 11.0
     Generated by new atomic code, or converted to UPF format
     Using radial grid of  885 points,  6 beta functions with: 
                l(1) =   0
                l(2) =   0
                l(3) =   1
                l(4) =   1
                l(5) =   2
                l(6) =   2
     Q(r) pseudized with  6 coefficients,  rinner =    1.200   1.200   1.200
                                                       1.200   1.200

     atomic species   valence    mass     pseudopotential
        Ba            10.00   137.32700     Ba( 1.00)
        Ca            10.00    40.07800     Ca( 1.00)
        Cu            11.00    63.54600     Cu( 1.00)
        O              6.00    15.99900     O ( 1.00)
        Y             11.00    88.90584     Y ( 1.00)

      4 Sym. Ops. (no inversion) found ( 3 have fractional translation)



   Cartesian axes

     site n.     atom                  positions (alat units)
         1           O   tau(   1) = (   0.3545921   0.8718562  -0.0077406  )
         2           O   tau(   2) = (   0.0037072   0.8718562  -0.0077406  )
         3           Cu  tau(   3) = (  -0.0002581   0.0006065   0.0080789  )
         4           Cu  tau(   4) = (  -0.0002581   0.3481364   0.0080789  )
         5           Cu  tau(   5) = (   0.3585574   0.3481364   0.0080789  )
         6           Cu  tau(   6) = (  -0.3580421   0.6980913   0.0080789  )
         7           Cu  tau(   7) = (   0.3577988   0.6971373   0.0086255  )
         8           Cu  tau(   8) = (   0.0005005   1.0465760   0.0086255  )
         9           Cu  tau(   9) = (  -0.3588016   0.3490903   0.0086255  )
        10           Cu  tau(  10) = (   0.0005005   0.6971373   0.0086255  )
        11           O   tau(  11) = (  -0.0001733   0.5225410  -0.0089757  )
        12           O   tau(  12) = (   0.3584726   0.5225410  -0.0089757  )
        13           O   tau(  13) = (  -0.0001733   1.2211724  -0.0089757  )
        14           O   tau(  14) = (  -0.3581278   0.5236867  -0.0089757  )
        15           O   tau(  15) = (  -0.3544557   0.8718562  -0.0105593  )
        16           O   tau(  16) = (  -0.0038445   0.1743714  -0.0105593  )
        17           O   tau(  17) = (   0.3588818   0.3486599   0.1817056  )
        18           O   tau(  18) = (  -0.0005825   0.3486599   0.1817056  )
        19           O   tau(  19) = (  -0.0005825   0.0000830   0.1817056  )
        20           O   tau(  20) = (  -0.3577167   0.6975677   0.1817056  )
        21           O   tau(  21) = (   0.3584283   0.6967843   0.1825784  )
        22           O   tau(  22) = (  -0.3581712   0.3494443   0.1825784  )
        23           O   tau(  23) = (  -0.0001290   0.6967843   0.1825784  )
        24           O   tau(  24) = (  -0.0001290   1.0469291   0.1825784  )
        25           Ba  tau(  25) = (   0.1791506   0.8718562   0.1908537  )
        26           Ba  tau(  26) = (   0.5374498   0.5231143   0.1919901  )
        27           Ba  tau(  27) = (  -0.1791506   0.5231143   0.1919901  )
        28           Ba  tau(  28) = (  -0.1793773   0.8718562   0.1931958  )
        29           Ba  tau(  29) = (  -0.1789238   0.1743714   0.1931958  )
        30           Ba  tau(  30) = (   0.1791506   0.5222101   0.1929368  )
        31           Ba  tau(  31) = (  -0.5374498   0.5240176   0.1929368  )
        32           Ba  tau(  32) = (   0.1791506   0.1743714   0.1992469  )
        33           Cu  tau(  33) = (  -0.3583426   0.3488452   0.3777458  )
        34           Cu  tau(  34) = (   0.3582559   0.6973834   0.3777458  )
        35           Cu  tau(  35) = (   0.0000433   0.6973834   0.3777458  )
        36           Cu  tau(  36) = (   0.0000433   1.0463299   0.3777458  )
        37           Cu  tau(  37) = (  -0.3586541   0.6975060   0.3775126  )
        38           Cu  tau(  38) = (   0.3579444   0.3487217   0.3775126  )
        39           Cu  tau(  39) = (   0.0003549   0.0000212   0.3775126  )
        40           Cu  tau(  40) = (   0.0003549   0.3487217   0.3775126  )
        41           O   tau(  41) = (  -0.0047976   0.1743714   0.3996864  )
        42           O   tau(  42) = (  -0.3535026   0.8718562   0.3996864  )
        43           O   tau(  43) = (  -0.5374498   0.6924605   0.3956991  )
        44           O   tau(  44) = (   0.1791506   0.3537672   0.3956991  )
        45           O   tau(  45) = (   0.3586385   0.8718562   0.4046840  )
        46           O   tau(  46) = (  -0.0003392   0.8718562   0.4046840  )
        47           O   tau(  47) = (  -0.0004857   0.5230571   0.4066611  )
        48           O   tau(  48) = (   0.3587850   0.5230571   0.4066611  )
        49           O   tau(  49) = (  -0.3578135   0.5231714   0.4066611  )
        50           O   tau(  50) = (  -0.0004857   1.2206562   0.4066611  )
        51           O   tau(  51) = (   0.1791506   1.0461604   0.4028931  )
        52           O   tau(  52) = (   0.1791506   0.6975521   0.4028931  )
        53           O   tau(  53) = (  -0.1792261   0.6967170   0.4025963  )
        54           O   tau(  54) = (  -0.1790731   0.3495106   0.4025963  )
        55           O   tau(  55) = (  -0.1792261   1.0469964   0.4025963  )
        56           O   tau(  56) = (   0.5375263   0.6967170   0.4025963  )
        57           Ca  tau(  57) = (   0.1791506   0.1743714   0.5358617  )
        58           Y   tau(  58) = (  -0.1811525   0.8718562   0.5373908  )
        59           Y   tau(  59) = (  -0.1771467   0.1743714   0.5373908  )
        60           Y   tau(  60) = (   0.1791506   0.8718562   0.5379568  )
        61           Y   tau(  61) = (   0.5374498   0.5231143   0.5384490  )
        62           Y   tau(  62) = (  -0.1791506   0.5231143   0.5384490  )
        63           Y   tau(  63) = (   0.1791506   0.5216598   0.5383310  )
        64           Y   tau(  64) = (  -0.5374498   0.5245688   0.5383310  )
        65           O   tau(  65) = (  -0.1787754   0.3493171   0.6712314  )
        66           O   tau(  66) = (   0.5378231   0.6969115   0.6712314  )
        67           O   tau(  67) = (  -0.1795239   1.0468019   0.6712314  )
        68           O   tau(  68) = (  -0.1795239   0.6969115   0.6712314  )
        69           O   tau(  69) = (   0.1791506   0.6972691   0.6718637  )
        70           O   tau(  70) = (   0.1791506   1.0464433   0.6718637  )
        71           O   tau(  71) = (  -0.0003880   1.2203935   0.6667490  )
        72           O   tau(  72) = (  -0.0003880   0.5233198   0.6667490  )
        73           O   tau(  73) = (   0.3586882   0.5233198   0.6667490  )
        74           O   tau(  74) = (  -0.3579112   0.5229087   0.6667490  )
        75           O   tau(  75) = (   0.3585850   0.8718562   0.6641940  )
        76           O   tau(  76) = (  -0.0002857   0.8718562   0.6641940  )
        77           O   tau(  77) = (   0.1791506   0.3535118   0.6756778  )
        78           O   tau(  78) = (  -0.5374498   0.6927158   0.6756778  )
        79           O   tau(  79) = (  -0.0043044   0.1743714   0.6710848  )
        80           O   tau(  80) = (  -0.3539948   0.8718562   0.6710848  )
        81           Cu  tau(  81) = (  -0.3586514   0.6973604   0.6974442  )
        82           Cu  tau(  82) = (   0.3579472   0.3488682   0.6974442  )
        83           Cu  tau(  83) = (   0.0003521  -0.0001254   0.6974442  )
        84           Cu  tau(  84) = (   0.0003521   0.3488682   0.6974442  )
        85           Cu  tau(  85) = (   0.0000083   1.0459401   0.6989015  )
        86           Cu  tau(  86) = (  -0.3583076   0.3484544   0.6989015  )
        87           Cu  tau(  87) = (   0.3582910   0.6977733   0.6989015  )
        88           Cu  tau(  88) = (   0.0000083   0.6977733   0.6989015  )
        89           Ba  tau(  89) = (   0.1791506   0.1743714   0.8671591  )
        90           Ba  tau(  90) = (  -0.5374498   0.5239908   0.8827639  )
        91           Ba  tau(  91) = (   0.1791506   0.5222377   0.8827639  )
        92           Ba  tau(  92) = (  -0.1785616   0.1743714   0.8784262  )
        93           Ba  tau(  93) = (  -0.1797386   0.8718562   0.8784262  )
        94           Ba  tau(  94) = (  -0.1791506   0.5231143   0.8841483  )
        95           Ba  tau(  95) = (   0.5374498   0.5231143   0.8841483  )
        96           Ba  tau(  96) = (   0.1791506   0.8718562   0.8844635  )
        97           O   tau(  97) = (   0.3607888   0.6975991   0.9037874  )
        98           O   tau(  98) = (  -0.3558097   0.3486286   0.9037874  )
        99           O   tau(  99) = (  -0.0024896   0.6975991   0.9037874  )
       100           O   tau( 100) = (  -0.0024896   1.0461143   0.9037874  )
       101           O   tau( 101) = (   0.3544087   0.3463252   0.9043663  )
       102           O   tau( 102) = (   0.0038906   0.3463252   0.9043663  )
       103           O   tau( 103) = (   0.0038906   0.0024177   0.9043663  )
       104           O   tau( 104) = (  -0.3621908   0.6999025   0.9043663  )
       105           O   tau( 105) = (   0.3314246   0.8718562   1.0783672  )
       106           O   tau( 106) = (   0.0268747   0.8718562   1.0783672  )
       107           Cu  tau( 107) = (  -0.0027882   0.0031818   1.0782086  )
       108           Cu  tau( 108) = (  -0.0027882   0.3455601   1.0782086  )
       109           Cu  tau( 109) = (   0.3610875   0.3455601   1.0782086  )
       110           Cu  tau( 110) = (  -0.3555111   0.7006675   1.0782086  )
       111           Cu  tau( 111) = (   0.3579684   0.6983604   1.0781976  )
       112           Cu  tau( 112) = (   0.0003318   1.0453529   1.0781976  )
       113           Cu  tau( 113) = (  -0.3586320   0.3478672   1.0781976  )
       114           Cu  tau( 114) = (   0.0003318   0.6983604   1.0781976  )
       115           O   tau( 115) = (  -0.0055718   0.5218801   1.0778989  )
       116           O   tau( 116) = (   0.3638720   0.5218801   1.0778989  )
       117           O   tau( 117) = (  -0.0055718   1.2218333   1.0778989  )
       118           O   tau( 118) = (  -0.3527284   0.5243475   1.0778989  )
       119           O   tau( 119) = (  -0.3170374   0.8718562   1.0783192  )
       120           O   tau( 120) = (  -0.0412618   0.1743714   1.0783192  )
       121           O   tau( 121) = (   0.3544105   0.3465040   1.2520362  )
       122           O   tau( 122) = (   0.0038887   0.3465040   1.2520362  )
       123           O   tau( 123) = (   0.0038887   0.0022389   1.2520362  )
       124           O   tau( 124) = (  -0.3621880   0.6997236   1.2520362  )
       125           O   tau( 125) = (   0.3607981   0.6973991   1.2525976  )
       126           O   tau( 126) = (  -0.3558014   0.3488295   1.2525976  )
       127           O   tau( 127) = (  -0.0024988   0.6973991   1.2525976  )
       128           O   tau( 128) = (  -0.0024988   1.0463143   1.2525976  )
       129           Ba  tau( 129) = (   0.1791506   0.8718562   1.2719528  )
       130           Ba  tau( 130) = (   0.5374498   0.5231143   1.2722763  )
       131           Ba  tau( 131) = (  -0.1791506   0.5231143   1.2722763  )
       132           Ba  tau( 132) = (  -0.1796732   0.8718562   1.2779763  )
       133           Ba  tau( 133) = (  -0.1786270   0.1743714   1.2779763  )
       134           Ba  tau( 134) = (   0.1791506   0.5222571   1.2737041  )
       135           Ba  tau( 135) = (  -0.5374498   0.5239706   1.2737041  )
       136           Ba  tau( 136) = (   0.1791506   0.1743714   1.2892268  )
       137           Cu  tau( 137) = (  -0.3583094   0.3484682   1.4575232  )
       138           Cu  tau( 138) = (   0.3582901   0.6977604   1.4575232  )
       139           Cu  tau( 139) = (   0.0000101   0.6977604   1.4575232  )
       140           Cu  tau( 140) = (   0.0000101   1.0459530   1.4575232  )
       141           Cu  tau( 141) = (  -0.3586477   0.6973567   1.4589435  )
       142           Cu  tau( 142) = (   0.3579518   0.3488710   1.4589435  )
       143           Cu  tau( 143) = (   0.0003484  -0.0001281   1.4589435  )
       144           Cu  tau( 144) = (   0.0003484   0.3488710   1.4589435  )
       145           O   tau( 145) = (  -0.0043173   0.1743714   1.4852486  )
       146           O   tau( 146) = (  -0.3539819   0.8718562   1.4852486  )
       147           O   tau( 147) = (  -0.5374498   0.6927305   1.4807174  )
       148           O   tau( 148) = (   0.1791506   0.3534971   1.4807174  )
       149           O   tau( 149) = (   0.3585795   0.8718562   1.4921587  )
       150           O   tau( 150) = (  -0.0002802   0.8718562   1.4921587  )
       151           O   tau( 151) = (  -0.0003853   0.5233134   1.4896627  )
       152           O   tau( 152) = (   0.3586855   0.5233134   1.4896627  )
       153           O   tau( 153) = (  -0.3579140   0.5229152   1.4896627  )
       154           O   tau( 154) = (  -0.0003853   1.2204000   1.4896627  )
       155           O   tau( 155) = (   0.1791506   1.0464553   1.4845361  )
       156           O   tau( 156) = (   0.1791506   0.6972571   1.4845361  )
       157           O   tau( 157) = (  -0.1795146   0.6969069   1.4851647  )
       158           O   tau( 158) = (  -0.1787846   0.3493208   1.4851647  )
       159           O   tau( 159) = (  -0.1795146   1.0468065   1.4851647  )
       160           O   tau( 160) = (   0.5378139   0.6969069   1.4851647  )
       161           Ca  tau( 161) = (   0.1791506   0.1743714   1.6205270  )
       162           Y   tau( 162) = (  -0.1811544   0.8718562   1.6189960  )
       163           Y   tau( 163) = (  -0.1771449   0.1743714   1.6189960  )
       164           Y   tau( 164) = (   0.1791506   0.8718562   1.6184328  )
       165           Y   tau( 165) = (   0.5374498   0.5231143   1.6179637  )
       166           Y   tau( 166) = (  -0.1791506   0.5231143   1.6179637  )
       167           Y   tau( 167) = (   0.1791506   0.5216524   1.6180844  )
       168           Y   tau( 168) = (  -0.5374498   0.5245761   1.6180844  )
       169           O   tau( 169) = (  -0.1790685   0.3495088   1.8920572  )
       170           O   tau( 170) = (   0.5375300   0.6967198   1.8920572  )
       171           O   tau( 171) = (  -0.1792307   1.0469936   1.8920572  )
       172           O   tau( 172) = (  -0.1792307   0.6967198   1.8920572  )
       173           O   tau( 173) = (   0.1791506   0.6975604   1.8917604  )
       174           O   tau( 174) = (   0.1791506   1.0461521   1.8917604  )
       175           O   tau( 175) = (  -0.0004848   1.2206534   1.8879961  )
       176           O   tau( 176) = (  -0.0004848   0.5230599   1.8879961  )
       177           O   tau( 177) = (   0.3587841   0.5230599   1.8879961  )
       178           O   tau( 178) = (  -0.3578144   0.5231687   1.8879961  )
       179           O   tau( 179) = (   0.3586468   0.8718562   1.8899344  )
       180           O   tau( 180) = (  -0.0003466   0.8718562   1.8899344  )
       181           O   tau( 181) = (   0.1791506   0.3537690   1.8989572  )
       182           O   tau( 182) = (  -0.5374498   0.6924586   1.8989572  )
       183           O   tau( 183) = (  -0.0047874   0.1743714   1.8949219  )
       184           O   tau( 184) = (  -0.3535118   0.8718562   1.8949219  )
       185           Cu  tau( 185) = (  -0.3586560   0.6975087   1.9171280  )
       186           Cu  tau( 186) = (   0.3579435   0.3487198   1.9171280  )
       187           Cu  tau( 187) = (   0.0003567   0.0000230   1.9171280  )
       188           Cu  tau( 188) = (   0.0003567   0.3487198   1.9171280  )
       189           Cu  tau( 189) = (   0.0000415   1.0463263   1.9168957  )
       190           Cu  tau( 190) = (  -0.3583407   0.3488406   1.9168957  )
       191           Cu  tau( 191) = (   0.3582587   0.6973871   1.9168957  )
       192           Cu  tau( 192) = (   0.0000415   0.6973871   1.9168957  )
       193           Ba  tau( 193) = (   0.1791506   0.1743714   2.0954011  )
       194           Ba  tau( 194) = (  -0.5374498   0.5240166   2.1017103  )
       195           Ba  tau( 195) = (   0.1791506   0.5222119   2.1017103  )
       196           Ba  tau( 196) = (  -0.1789220   0.1743714   2.1014541  )
       197           Ba  tau( 197) = (  -0.1793773   0.8718562   2.1014541  )
       198           Ba  tau( 198) = (  -0.1791506   0.5231143   2.1026643  )
       199           Ba  tau( 199) = (   0.5374498   0.5231143   2.1026643  )
       200           Ba  tau( 200) = (   0.1791506   0.8718562   2.1037925  )
       201           O   tau( 201) = (   0.3584302   0.6967870   2.1120622  )
       202           O   tau( 202) = (  -0.3581684   0.3494406   2.1120622  )
       203           O   tau( 203) = (  -0.0001309   0.6967870   2.1120622  )
       204           O   tau( 204) = (  -0.0001309   1.0469263   2.1120622  )
       205           O   tau( 205) = (   0.3588800   0.3486562   2.1129350  )
       206           O   tau( 206) = (  -0.0005807   0.3486562   2.1129350  )
       207           O   tau( 207) = (  -0.0005807   0.0000866   2.1129350  )
       208           O   tau( 208) = (  -0.3577186   0.6975714   2.1129350  )
       209           O   tau( 209) = (   0.3545921   0.8718562   2.3023655  )
       210           O   tau( 210) = (   0.0037081   0.8718562   2.3023655  )
       211           Cu  tau( 211) = (  -0.0002516   0.0006074   2.2865617  )
       212           Cu  tau( 212) = (  -0.0002516   0.3481345   2.2865617  )
       213           Cu  tau( 213) = (   0.3585509   0.3481345   2.2865617  )
       214           Cu  tau( 214) = (  -0.3580476   0.6980931   2.2865617  )
       215           Cu  tau( 215) = (   0.3577960   0.6971373   2.2860151  )
       216           Cu  tau( 216) = (   0.0005033   1.0465760   2.2860151  )
       217           Cu  tau( 217) = (  -0.3588035   0.3490903   2.2860151  )
       218           Cu  tau( 218) = (   0.0005033   0.6971373   2.2860151  )
       219           O   tau( 219) = (  -0.0001724   0.5225410   2.3036043  )
       220           O   tau( 220) = (   0.3584716   0.5225410   2.3036043  )
       221           O   tau( 221) = (  -0.0001724   1.2211724   2.3036043  )
       222           O   tau( 222) = (  -0.3581288   0.5236867   2.3036043  )
       223           O   tau( 223) = (  -0.3544640   0.8718562   2.3051943  )
       224           O   tau( 224) = (  -0.0038353   0.1743714   2.3051943  )

     number of k points=     4  Gaussian smearing, width (Ry)=  0.0100
                       cart. coord. in units 2pi/alat
        k(    1) = (   0.0000000   0.0000000   0.0000000), wk =   0.2222222
        k(    2) = (   0.2325801   0.2389537   0.0000000), wk =   0.8888889
        k(    3) = (   0.0000000   0.4779073   0.0000000), wk =   0.4444444
        k(    4) = (  -0.4651601  -0.0000000   0.0000000), wk =   0.4444444

     Dense  grid: 11656413 G-vectors     FFT dimensions: ( 180, 180, 729)

     Smooth grid:  2243513 G-vectors     FFT dimensions: ( 108, 108, 432)

     Estimated max dynamical RAM per process >       2.44 GB

     Estimated total dynamical RAM >     194.84 GB

     Initial potential from superposition of free atoms

     starting charge 1828.78422, renormalised to 1830.00000

     negative rho (up, down):  6.318E-01 0.000E+00
     Starting wfcs are 1602 randomized atomic wfcs

     total cpu time spent up to now is       59.5 secs

     Self-consistent Calculation

     iteration #  1     ecut=    60.00 Ry     beta= 0.50
     Davidson diagonalization with overlap
     ethr =  1.00E-02,  avg # of iterations =  2.0

     negative rho (up, down):  5.973E-01 0.000E+00

     total cpu time spent up to now is      158.6 secs

     total energy              =  -14912.56831527 Ry
     Harris-Foulkes estimate   =  -14942.45427614 Ry
     estimated scf accuracy    <     113.73278055 Ry

     iteration #  2     ecut=    60.00 Ry     beta= 0.50
     Davidson diagonalization with overlap
     ethr =  6.21E-03,  avg # of iterations =  2.0

     negative rho (up, down):  5.948E-01 0.000E+00

     total cpu time spent up to now is      256.7 secs

     total energy              =  -14921.90542993 Ry
     Harris-Foulkes estimate   =  -14925.93134384 Ry
     estimated scf accuracy    <      38.89320855 Ry

     iteration #  3     ecut=    60.00 Ry     beta= 0.50
     Davidson diagonalization with overlap
     ethr =  2.13E-03,  avg # of iterations =  1.0

     negative rho (up, down):  5.963E-01 0.000E+00

     total cpu time spent up to now is      346.7 secs

     total energy              =  -14922.93347936 Ry
     Harris-Foulkes estimate   =  -14924.53248504 Ry
     estimated scf accuracy    <      33.61048740 Ry

     iteration #  4     ecut=    60.00 Ry     beta= 0.50
     Davidson diagonalization with overlap
     ethr =  1.84E-03,  avg # of iterations =  1.0

     negative rho (up, down):  6.012E-01 0.000E+00

     total cpu time spent up to now is      436.1 secs

     total energy              =  -14922.75611157 Ry
     Harris-Foulkes estimate   =  -14923.83487886 Ry
     estimated scf accuracy    <      15.46769587 Ry

     iteration #  5     ecut=    60.00 Ry     beta= 0.50
     Davidson diagonalization with overlap
     ethr =  8.45E-04,  avg # of iterations =  2.2

     negative rho (up, down):  6.126E-01 0.000E+00

     total cpu time spent up to now is      529.9 secs

     total energy              =  -14922.61757056 Ry
     Harris-Foulkes estimate   =  -14923.28721181 Ry
     estimated scf accuracy    <       5.44971155 Ry

     iteration #  6     ecut=    60.00 Ry     beta= 0.50
     Davidson diagonalization with overlap
     ethr =  2.98E-04,  avg # of iterations =  8.5

     negative rho (up, down):  6.155E-01 0.000E+00

     total cpu time spent up to now is      669.8 secs

     total energy              =  -14922.89100314 Ry
     Harris-Foulkes estimate   =  -14922.97335798 Ry
     estimated scf accuracy    <       9.74786045 Ry

     iteration #  7     ecut=    60.00 Ry     beta= 0.50
     Davidson diagonalization with overlap
     ethr =  2.98E-04,  avg # of iterations =  1.5

     negative rho (up, down):  6.225E-01 0.000E+00

     total cpu time spent up to now is      761.4 secs

     total energy              =  -14922.76325748 Ry
     Harris-Foulkes estimate   =  -14922.93292334 Ry
     estimated scf accuracy    <       6.19487948 Ry

     iteration #  8     ecut=    60.00 Ry     beta= 0.50
     Davidson diagonalization with overlap
     ethr =  2.98E-04,  avg # of iterations =  1.0

     negative rho (up, down):  6.249E-01 0.000E+00

     total cpu time spent up to now is      851.3 secs

     total energy              =  -14922.69628676 Ry
     Harris-Foulkes estimate   =  -14922.85542759 Ry
     estimated scf accuracy    <       4.65689419 Ry

     iteration #  9     ecut=    60.00 Ry     beta= 0.50
     Davidson diagonalization with overlap
     ethr =  2.54E-04,  avg # of iterations =  1.0

     negative rho (up, down):  6.265E-01 0.000E+00

     total cpu time spent up to now is      941.5 secs

     total energy              =  -14922.70479238 Ry
     Harris-Foulkes estimate   =  -14922.77313549 Ry
     estimated scf accuracy    <       2.06534596 Ry

     iteration # 10     ecut=    60.00 Ry     beta= 0.50
     Davidson diagonalization with overlap
     ethr =  1.13E-04,  avg # of iterations =  8.5

     negative rho (up, down):  6.252E-01 0.000E+00

     total cpu time spent up to now is     1060.3 secs

     total energy              =  -14922.70555702 Ry
     Harris-Foulkes estimate   =  -14922.72786304 Ry
     estimated scf accuracy    <       0.71564046 Ry

     iteration # 11     ecut=    60.00 Ry     beta= 0.50
     Davidson diagonalization with overlap
     c_bands:  1 eigenvalues not converged
     ethr =  3.91E-05,  avg # of iterations = 11.0

     negative rho (up, down):  6.231E-01 0.000E+00

     total cpu time spent up to now is     1189.0 secs

     total energy              =  -14922.70220212 Ry
     Harris-Foulkes estimate   =  -14922.71334943 Ry
     estimated scf accuracy    <       0.47703329 Ry

     iteration # 12     ecut=    60.00 Ry     beta= 0.50
     Davidson diagonalization with overlap
     c_bands:  1 eigenvalues not converged
     ethr =  2.61E-05,  avg # of iterations =  9.5

     negative rho (up, down):  6.216E-01 0.000E+00

     total cpu time spent up to now is     1308.6 secs

     total energy              =  -14922.70074891 Ry
     Harris-Foulkes estimate   =  -14922.70784857 Ry
     estimated scf accuracy    <       0.53983357 Ry

     iteration # 13     ecut=    60.00 Ry     beta= 0.50
     Davidson diagonalization with overlap
     ethr =  2.61E-05,  avg # of iterations =  1.5

     negative rho (up, down):  6.195E-01 0.000E+00

     total cpu time spent up to now is     1399.2 secs

     total energy              =  -14922.68982866 Ry
     Harris-Foulkes estimate   =  -14922.70182058 Ry
     estimated scf accuracy    <       0.40162815 Ry

     iteration # 14     ecut=    60.00 Ry     beta= 0.50
     Davidson diagonalization with overlap
     c_bands:  1 eigenvalues not converged
     ethr =  2.19E-05,  avg # of iterations = 12.2

     negative rho (up, down):  6.192E-01 0.000E+00

     total cpu time spent up to now is     1530.3 secs

     total energy              =  -14922.68348500 Ry
     Harris-Foulkes estimate   =  -14922.69179176 Ry
     estimated scf accuracy    <       0.27695423 Ry

     iteration # 15     ecut=    60.00 Ry     beta= 0.50
     Davidson diagonalization with overlap
     ethr =  1.51E-05,  avg # of iterations =  5.8

     negative rho (up, down):  6.748E-01 0.000E+00

     total cpu time spent up to now is     1637.4 secs

     total energy              =  -14922.67133596 Ry
     Harris-Foulkes estimate   =  -14922.68521875 Ry
     estimated scf accuracy    <       0.15171335 Ry

     iteration # 16     ecut=    60.00 Ry     beta= 0.50
     Davidson diagonalization with overlap
     ethr =  8.29E-06,  avg # of iterations = 14.2

     negative rho (up, down):  6.841E-01 0.000E+00

     total cpu time spent up to now is     1789.3 secs

     total energy              =  -14922.66904537 Ry
     Harris-Foulkes estimate   =  -14922.67428362 Ry
     estimated scf accuracy    <       0.06753827 Ry

     iteration # 17     ecut=    60.00 Ry     beta= 0.50
     Davidson diagonalization with overlap
     ethr =  3.69E-06,  avg # of iterations = 13.2

     negative rho (up, down):  6.741E-01 0.000E+00

     total cpu time spent up to now is     1929.3 secs

     total energy              =  -14922.66626498 Ry
     Harris-Foulkes estimate   =  -14922.67057472 Ry
     estimated scf accuracy    <       0.02451217 Ry

     iteration # 18     ecut=    60.00 Ry     beta= 0.50
     Davidson diagonalization with overlap
     c_bands:  1 eigenvalues not converged
     ethr =  1.34E-06,  avg # of iterations = 10.8

     negative rho (up, down):  6.462E-01 0.000E+00

     total cpu time spent up to now is     2057.1 secs

     total energy              =  -14922.66504073 Ry
     Harris-Foulkes estimate   =  -14922.66732359 Ry
     estimated scf accuracy    <       0.03531266 Ry

     iteration # 19     ecut=    60.00 Ry     beta= 0.50
     Davidson diagonalization with overlap
     ethr =  1.34E-06,  avg # of iterations =  6.8

     negative rho (up, down):  6.350E-01 0.000E+00

     total cpu time spent up to now is     2170.6 secs

     total energy              =  -14922.66477713 Ry
     Harris-Foulkes estimate   =  -14922.66543588 Ry
     estimated scf accuracy    <       0.02809455 Ry

     iteration # 20     ecut=    60.00 Ry     beta= 0.50
     Davidson diagonalization with overlap
     ethr =  1.34E-06,  avg # of iterations =  6.5

     negative rho (up, down):  6.228E-01 0.000E+00

     total cpu time spent up to now is     2281.7 secs

     total energy              =  -14922.66398660 Ry
     Harris-Foulkes estimate   =  -14922.66494717 Ry
     estimated scf accuracy    <       0.01389874 Ry

     iteration # 21     ecut=    60.00 Ry     beta= 0.50
     Davidson diagonalization with overlap
     c_bands:  1 eigenvalues not converged
     ethr =  7.59E-07,  avg # of iterations = 12.0

     negative rho (up, down):  6.236E-01 0.000E+00

     total cpu time spent up to now is     2412.6 secs

     total energy              =  -14922.66373931 Ry
     Harris-Foulkes estimate   =  -14922.66426554 Ry
     estimated scf accuracy    <       0.00480690 Ry

     iteration # 22     ecut=    60.00 Ry     beta= 0.50
     Davidson diagonalization with overlap
     c_bands:  1 eigenvalues not converged
     c_bands:  2 eigenvalues not converged
     ethr =  2.63E-07,  avg # of iterations = 14.8

     negative rho (up, down):  6.264E-01 0.000E+00

     total cpu time spent up to now is     2557.3 secs

     total energy              =  -14922.66375684 Ry
     Harris-Foulkes estimate   =  -14922.66397196 Ry
     estimated scf accuracy    <       0.00256964 Ry

     iteration # 23     ecut=    60.00 Ry     beta= 0.50
     Davidson diagonalization with overlap
     ethr =  1.40E-07,  avg # of iterations = 10.8

     negative rho (up, down):  6.269E-01 0.000E+00

     total cpu time spent up to now is     2683.8 secs

     total energy              =  -14922.66391112 Ry
     Harris-Foulkes estimate   =  -14922.66389855 Ry
     estimated scf accuracy    <       0.00174998 Ry

     iteration # 24     ecut=    60.00 Ry     beta= 0.50
     Davidson diagonalization with overlap
     ethr =  9.56E-08,  avg # of iterations =  2.0

     negative rho (up, down):  6.309E-01 0.000E+00

     total cpu time spent up to now is     2777.5 secs

     total energy              =  -14922.66399366 Ry
     Harris-Foulkes estimate   =  -14922.66395637 Ry
     estimated scf accuracy    <       0.00053069 Ry

     iteration # 25     ecut=    60.00 Ry     beta= 0.50
     Davidson diagonalization with overlap
     ethr =  2.90E-08,  avg # of iterations =  4.2

     negative rho (up, down):  6.287E-01 0.000E+00

     total cpu time spent up to now is     2880.5 secs

     total energy              =  -14922.66402087 Ry
     Harris-Foulkes estimate   =  -14922.66401525 Ry
     estimated scf accuracy    <       0.00016707 Ry

     iteration # 26     ecut=    60.00 Ry     beta= 0.50
     Davidson diagonalization with overlap
     ethr =  9.13E-09,  avg # of iterations =  3.2

     negative rho (up, down):  6.300E-01 0.000E+00

     total cpu time spent up to now is     2978.9 secs

     total energy              =  -14922.66402815 Ry
     Harris-Foulkes estimate   =  -14922.66402903 Ry
     estimated scf accuracy    <       0.00007302 Ry

     iteration # 27     ecut=    60.00 Ry     beta= 0.50
     Davidson diagonalization with overlap
     ethr =  3.99E-09,  avg # of iterations =  2.0

     negative rho (up, down):  6.295E-01 0.000E+00

     total cpu time spent up to now is     3072.0 secs

     total energy              =  -14922.66402875 Ry
     Harris-Foulkes estimate   =  -14922.66403214 Ry
     estimated scf accuracy    <       0.00005270 Ry

     iteration # 28     ecut=    60.00 Ry     beta= 0.50
     Davidson diagonalization with overlap
     ethr =  2.88E-09,  avg # of iterations =  1.0

     negative rho (up, down):  6.295E-01 0.000E+00

     total cpu time spent up to now is     3163.7 secs

     total energy              =  -14922.66402991 Ry
     Harris-Foulkes estimate   =  -14922.66403049 Ry
     estimated scf accuracy    <       0.00002155 Ry

     iteration # 29     ecut=    60.00 Ry     beta= 0.50
     Davidson diagonalization with overlap
     ethr =  1.18E-09,  avg # of iterations =  1.0

     negative rho (up, down):  6.300E-01 0.000E+00

     total cpu time spent up to now is     3253.9 secs

     total energy              =  -14922.66402832 Ry
     Harris-Foulkes estimate   =  -14922.66403040 Ry
     estimated scf accuracy    <       0.00001059 Ry

     iteration # 30     ecut=    60.00 Ry     beta= 0.50
     Davidson diagonalization with overlap
     ethr =  5.79E-10,  avg # of iterations =  2.0

     negative rho (up, down):  6.298E-01 0.000E+00

     total cpu time spent up to now is     3348.0 secs

     total energy              =  -14922.66402894 Ry
     Harris-Foulkes estimate   =  -14922.66402891 Ry
     estimated scf accuracy    <       0.00000540 Ry

     iteration # 31     ecut=    60.00 Ry     beta= 0.50
     Davidson diagonalization with overlap
     ethr =  2.95E-10,  avg # of iterations =  1.0

     negative rho (up, down):  6.298E-01 0.000E+00

     total cpu time spent up to now is     3437.9 secs

     total energy              =  -14922.66402903 Ry
     Harris-Foulkes estimate   =  -14922.66402910 Ry
     estimated scf accuracy    <       0.00000280 Ry

     iteration # 32     ecut=    60.00 Ry     beta= 0.50
     Davidson diagonalization with overlap
     ethr =  1.53E-10,  avg # of iterations =  1.0

     negative rho (up, down):  6.296E-01 0.000E+00

     total cpu time spent up to now is     3527.1 secs

     total energy              =  -14922.66402920 Ry
     Harris-Foulkes estimate   =  -14922.66402912 Ry
     estimated scf accuracy    <       0.00000204 Ry

     iteration # 33     ecut=    60.00 Ry     beta= 0.50
     Davidson diagonalization with overlap
     ethr =  1.11E-10,  avg # of iterations =  1.0

     negative rho (up, down):  6.296E-01 0.000E+00

     total cpu time spent up to now is     3618.3 secs

     total energy              =  -14922.66402937 Ry
     Harris-Foulkes estimate   =  -14922.66402926 Ry
     estimated scf accuracy    <       0.00000072 Ry

     iteration # 34     ecut=    60.00 Ry     beta= 0.50
     Davidson diagonalization with overlap
     ethr =  3.92E-11,  avg # of iterations =  1.8

     negative rho (up, down):  6.297E-01 0.000E+00

     total cpu time spent up to now is     3710.6 secs

     total energy              =  -14922.66402908 Ry
     Harris-Foulkes estimate   =  -14922.66402939 Ry
     estimated scf accuracy    <       0.00000072 Ry

     iteration # 35     ecut=    60.00 Ry     beta= 0.50
     Davidson diagonalization with overlap
     ethr =  3.92E-11,  avg # of iterations =  1.0

     negative rho (up, down):  6.299E-01 0.000E+00

     total cpu time spent up to now is     3801.4 secs

     total energy              =  -14922.66402869 Ry
     Harris-Foulkes estimate   =  -14922.66402909 Ry
     estimated scf accuracy    <       0.00000044 Ry

     iteration # 36     ecut=    60.00 Ry     beta= 0.50
     Davidson diagonalization with overlap
     ethr =  2.41E-11,  avg # of iterations =  1.5

     negative rho (up, down):  6.300E-01 0.000E+00

     total cpu time spent up to now is     3893.4 secs

     total energy              =  -14922.66402849 Ry
     Harris-Foulkes estimate   =  -14922.66402870 Ry
     estimated scf accuracy    <       0.00000022 Ry

     iteration # 37     ecut=    60.00 Ry     beta= 0.50
     Davidson diagonalization with overlap
     ethr =  1.22E-11,  avg # of iterations =  1.2

     negative rho (up, down):  6.300E-01 0.000E+00

     total cpu time spent up to now is     3983.9 secs

     total energy              =  -14922.66402848 Ry
     Harris-Foulkes estimate   =  -14922.66402850 Ry
     estimated scf accuracy    <       0.00000010 Ry

     iteration # 38     ecut=    60.00 Ry     beta= 0.50
     Davidson diagonalization with overlap
     ethr =  5.73E-12,  avg # of iterations =  1.0

     negative rho (up, down):  6.301E-01 0.000E+00

     total cpu time spent up to now is     4073.7 secs

     total energy              =  -14922.66402838 Ry
     Harris-Foulkes estimate   =  -14922.66402848 Ry
     estimated scf accuracy    <       0.00000006 Ry

     iteration # 39     ecut=    60.00 Ry     beta= 0.50
     Davidson diagonalization with overlap
     ethr =  3.16E-12,  avg # of iterations =  1.8

     negative rho (up, down):  6.301E-01 0.000E+00

     total cpu time spent up to now is     4166.5 secs

     total energy              =  -14922.66402834 Ry
     Harris-Foulkes estimate   =  -14922.66402838 Ry
     estimated scf accuracy    <       0.00000003 Ry

     iteration # 40     ecut=    60.00 Ry     beta= 0.50
     Davidson diagonalization with overlap
     ethr =  1.71E-12,  avg # of iterations =  1.8

     negative rho (up, down):  6.301E-01 0.000E+00

     total cpu time spent up to now is     4259.4 secs

     total energy              =  -14922.66402831 Ry
     Harris-Foulkes estimate   =  -14922.66402834 Ry
     estimated scf accuracy    <       0.00000002 Ry

     iteration # 41     ecut=    60.00 Ry     beta= 0.50
     Davidson diagonalization with overlap
     ethr =  9.97E-13,  avg # of iterations =  1.8

     negative rho (up, down):  6.301E-01 0.000E+00

     total cpu time spent up to now is     4352.6 secs

     total energy              =  -14922.66402831 Ry
     Harris-Foulkes estimate   =  -14922.66402831 Ry
     estimated scf accuracy    <       0.00000001 Ry

     iteration # 42     ecut=    60.00 Ry     beta= 0.50
     Davidson diagonalization with overlap
     ethr =  6.13E-13,  avg # of iterations =  1.0

     negative rho (up, down):  6.301E-01 0.000E+00

     total cpu time spent up to now is     4439.2 secs

     End of self-consistent calculation

          k = 0.0000 0.0000 0.0000 (280459 PWs)   bands (ev):

   -40.9200 -40.9080 -40.9042 -40.8995 -40.8964 -40.8861 -40.8841 -38.3613
   -37.9166 -37.8892 -37.8863 -37.8812 -37.8803 -37.8684 -37.8631 -35.4536
   -22.8699 -22.7774 -22.7677 -22.7430 -22.7130 -22.6051 -22.5848 -22.5656
   -22.4822 -22.4549 -22.4400 -22.4360 -22.4205 -22.4194 -22.4024 -22.3943
   -22.3274 -22.3165 -22.3090 -22.2923 -22.2792 -22.2478 -22.2137 -22.1982
   -22.1941 -22.1833 -22.1798 -22.1631 -22.1286 -22.1127 -22.0756 -22.0225
   -21.1237 -21.0741 -21.0712 -21.0427 -21.0058 -20.9895 -20.9848 -20.9649
   -20.9423 -20.9364 -20.9244 -20.8614 -20.8599 -20.8555 -20.8456 -20.8236
   -20.8207 -20.8131 -20.8088 -20.7988 -20.7857 -19.4390 -19.4187 -19.3603
   -18.4989 -18.4606 -18.4155 -18.4123 -18.3828 -18.2285 -18.2156 -18.2143
   -18.2079 -18.2008 -18.1991 -18.1969 -18.1884 -18.1875 -18.1788 -18.1699
   -18.0150 -18.0106 -17.9894 -17.8914 -17.8834 -16.7128 -16.6841 -16.6763
   -16.0460 -15.7556 -15.7160 -15.7099 -15.6370 -15.5644 -15.5115 -15.4462
   -15.3359 -15.3157 -15.3101 -15.2721 -15.2458 -15.2077 -15.1197 -15.1007
   -14.9557 -14.6925 -14.6108 -14.6054 -14.5711 -14.5607 -14.5528 -14.5471
   -14.5125 -14.4746 -14.4260 -14.4099 -14.4009 -14.3901 -14.3695 -14.3572
   -14.3566 -14.3495 -14.3220 -14.3175 -14.3140 -14.3063 -14.2814 -14.2804
   -14.2696 -14.2693 -14.2687 -14.2680 -14.2666 -14.2487 -14.2458 -14.1748
   -14.1736 -14.1577 -14.1553 -14.0943 -14.0721 -14.0657 -14.0624 -14.0492
   -14.0457 -14.0399 -14.0176 -14.0112 -14.0089 -13.9803 -13.9408 -13.9386
   -13.9349 -13.9139 -13.9120 -13.9053 -13.9010 -13.8981 -13.8723 -13.8700
   -13.8607 -13.8233 -13.8135 -13.8032 -13.7983 -13.7712 -13.7461 -13.7351
   -13.7220 -13.6603 -13.6574 -13.6563 -13.6405 -13.6368 -13.6313 -13.6067
   -13.5949 -13.5895 -13.5867 -13.5623 -13.5536 -13.5527 -13.5513 -13.5501
   -13.5428 -13.5200 -13.5187 -13.5175 -13.5164 -13.4941 -13.4907 -13.4812
   -13.4749 -13.4724 -13.4620 -13.4549 -13.4528 -13.4469 -13.4391 -13.4297
   -13.4169 -13.3711 -13.3322 -13.3102 -13.3076 -13.3033 -13.2498 -13.1114
    -8.7314  -8.5245  -8.4649  -8.3098  -8.2903  -8.2728  -8.2562  -8.2476
    -8.2374  -8.2320  -8.2296  -8.2140  -8.1646  -8.1507  -8.1382  -8.0448
    -8.0296  -8.0268  -8.0145  -8.0107  -7.9986  -7.9870  -7.9349  -7.9029
    -7.8990  -7.8057  -7.7981  -7.7930  -7.7836  -7.7830  -7.7803  -7.7761
    -7.7732  -7.7699  -7.7672  -7.7613  -7.7569  -7.7439  -7.7410  -7.7369
    -7.7325  -7.7289  -7.7170  -7.6992  -7.6840  -7.6827  -7.6824  -7.6677
    -7.6404  -7.6402  -7.6006  -7.5935  -7.5854  -7.5636  -7.5607  -7.5228
    -7.5192  -7.4959  -7.4810  -7.4620  -7.4595  -7.4548  -7.4458  -7.4378
    -7.4311  -7.4166  -7.4109  -7.4103  -7.4098  -7.4089  -7.4023  -7.3876
    -7.3828  -7.3817  -7.3735  -7.3506  -7.3429  -7.3283  -7.3061  -7.2814
    -7.2737  -7.2547  -7.2369  -7.1939  -7.1933  -7.1892  -7.1749  -7.1702
    -7.1696  -7.1669  -7.1280  -7.1145  -7.0502  -7.0381  -7.0348  -6.9790
    -4.6383  -3.9944  -3.6145  -3.6062  -3.6036  -3.5259  -3.5209  -3.4463
    -3.3681  -3.0216  -3.0076  -2.9725  -2.9497  -2.8584  -2.8535  -2.8504
    -2.8502  -2.8051  -2.7849  -2.7712  -2.7684  -2.7235  -2.6899  -2.6611
    -2.6395  -2.6236  -2.6116  -2.5878  -2.5867  -2.5772  -2.5556  -2.5434
    -2.4853  -2.4739  -2.4681  -2.4649  -2.4584  -2.3501  -2.2999  -2.2816
    -2.2368  -2.2131  -2.1527  -2.1504  -2.1148  -2.1098  -2.1036  -2.0955
    -2.0927  -2.0927  -2.0898  -2.0882  -2.0709  -2.0693  -2.0656  -2.0082
    -2.0074  -1.9888  -1.9808  -1.9745  -1.9704  -1.9675  -1.9342  -1.9129
    -1.8859  -1.8819  -1.8808  -1.8709  -1.8547  -1.8442  -1.8381  -1.8230
    -1.8225  -1.8172  -1.8121  -1.8102  -1.8026  -1.8011  -1.7971  -1.7945
    -1.7841  -1.7813  -1.7787  -1.7772  -1.7669  -1.7449  -1.7444  -1.7418
    -1.7392  -1.7352  -1.7003  -1.6977  -1.6966  -1.6944  -1.6919  -1.6819
    -1.6696  -1.6545  -1.6327  -1.6324  -1.6006  -1.5986  -1.5979  -1.5923
    -1.5917  -1.5898  -1.5788  -1.5714  -1.5690  -1.5687  -1.5586  -1.5160
    -1.5131  -1.4829  -1.4741  -1.4605  -1.4586  -1.4567  -1.4498  -1.4456
    -1.4243  -1.3889  -1.3608  -1.3466  -1.3356  -1.3168  -1.3061  -1.2970
    -1.2872  -1.2859  -1.2375  -1.2366  -1.2336  -1.2323  -1.2187  -1.1961
    -1.1871  -1.1842  -1.1768  -1.1738  -1.1483  -1.1411  -1.1223  -1.0955
    -1.0841  -1.0257  -1.0085  -0.9901  -0.9886  -0.9765  -0.9761  -0.9420
    -0.9413  -0.9113  -0.8949  -0.8921  -0.8831  -0.8760  -0.8717  -0.8433
    -0.8400  -0.8160  -0.8139  -0.7741  -0.7681  -0.7668  -0.7637  -0.7608
    -0.7576  -0.6795  -0.6758  -0.6692  -0.6674  -0.6621  -0.6594  -0.6514
    -0.6460  -0.6341  -0.6267  -0.6181  -0.6132  -0.6092  -0.5961  -0.5944
    -0.5843  -0.5704  -0.5570  -0.5553  -0.5473  -0.5316  -0.5309  -0.5288
    -0.5259  -0.5246  -0.5134  -0.5124  -0.5048  -0.4949  -0.4842  -0.4789
    -0.4715  -0.4510  -0.4390  -0.4386  -0.4366  -0.4264  -0.4101  -0.4051
    -0.3971  -0.3790  -0.3699  -0.3651  -0.3630  -0.3460  -0.3414  -0.3322
    -0.3308  -0.3277  -0.3260  -0.3185  -0.3165  -0.3113  -0.3070  -0.3061
    -0.2958  -0.2807  -0.2779  -0.2731  -0.2653  -0.2328  -0.2253  -0.2213
    -0.2140  -0.2082  -0.2071  -0.2036  -0.2009  -0.1853  -0.1736  -0.1601
    -0.1591  -0.1431  -0.1327  -0.1132  -0.1072  -0.1023  -0.0842  -0.0478
    -0.0148  -0.0107  -0.0102  -0.0087  -0.0079  -0.0062  -0.0054  -0.0031
     0.0067   0.0229   0.0577   0.0722   0.0760   0.0782   0.0805   0.0810
     0.0915   0.0925   0.0958   0.0959   0.0963   0.1023   0.1103   0.1113
     0.1245   0.1353   0.1379   0.1479   0.1562   0.1655   0.1660   0.1752
     0.2140   0.2237   0.2248   0.2274   0.2285   0.2341   0.2714   0.2762
     0.2859   0.3060   0.3164   0.3173   0.3319   0.3339   0.3551   0.3824
     0.3849   0.4223   0.4230   0.4243   0.4358   0.4438   0.4598   0.5088
     0.5424   0.5426   0.5435   0.5554   0.5732   0.5891   0.5921   0.5961
     0.6017   0.6041   0.6208   0.6334   0.6349   0.6520   0.6540   0.6622
     0.6644   0.6966   0.7006   0.7061   0.7074   0.7078   0.7098   0.7168
     0.7203   0.7233   0.7292   0.7324   0.7354   0.7379   0.7392   0.7396
     0.7451   0.7477   0.7620   0.7679   0.7745   0.7886   0.8046   0.8110
     0.8182   0.8184   0.8394   0.8396   0.8439   0.8489   0.8520   0.8576
     0.8647   0.8660   0.8700   0.8731   0.8832   0.8836   0.9087   0.9170
     0.9332   0.9335   0.9373   0.9513   0.9562   0.9584   0.9629   0.9649
     0.9656   0.9707   0.9763   0.9850   0.9936   0.9941   1.0012   1.0045
     1.0050   1.0219   1.0297   1.0456   1.0717   1.0718   1.0745   1.1079
     1.1476   1.1608   1.1758   1.1761   1.2089   1.2211   1.2302   1.2525
     1.2612   1.2677   1.2784   1.2963   1.3135   1.3197   1.3264   1.3426
     1.3604   1.3897   1.3934   1.3937   1.3984   1.4053   1.4083   1.4184
     1.4312   1.4521   1.4578   1.4583   1.4696   1.4738   1.4761   1.4786
     1.4789   1.4822   1.4884   1.4931   1.4965   1.5046   1.5053   1.5106
     1.5124   1.5126   1.5331   1.5332   1.5336   1.5378   1.5401   1.5447
     1.5480   1.5534   1.5657   1.5658   1.5681   1.5732   1.5836   1.5901
     1.5904   1.5920   1.5939   1.5960   1.6110   1.6169   1.6342   1.6414
     1.6438   1.6542   1.6616   1.6719   1.6723   1.6735   1.6798   1.6862
     1.6992   1.7025   1.7065   1.7068   1.7090   1.7224   1.7262   1.7265
     1.7480   1.7498   1.7508   1.7514   1.7602   1.7771   1.7859   1.7907
     1.7913   1.7996   1.8166   1.8211   1.8269   1.8278   1.8315   1.8316
     1.8491   1.8667   1.8690   1.8766   1.8885   1.9060   1.9282   1.9285
     1.9367   1.9417   1.9541   1.9615   1.9631   1.9734   1.9854   1.9876
     2.0089   2.0110   2.0120   2.0188   2.0192   2.0238   2.0273   2.0287
     2.0307   2.0331   2.0406   2.0412   2.0454   2.0493   2.0498   2.0579
     2.0661   2.0709   2.0788   2.0850   2.0978   2.0991   2.1074   2.1185
     2.1360   2.1397   2.1480   2.1485   2.1493   2.1496   2.1542   2.1682
     2.1939   2.2185   2.2266   2.2286   2.2316   2.2327   2.2355   2.2411
     2.2431   2.2432   2.2438   2.2570   2.2638   2.2703   2.2792   2.2938
     2.3222   2.3229   2.3234   2.3244   2.3292   2.3425   2.3497   2.3586
     2.3596   2.3687   2.3736   2.3811   2.3849   2.3944   2.3962   2.4031
     2.4187   2.4366   2.4374   2.4647   2.4667   2.4725   2.4735   2.4774
     2.4837   2.4935   2.5242   2.5289   2.5380   2.5624   2.5901   2.5932
     2.6087   2.6153   2.6530   2.6699   2.6905   2.6935   2.6948   2.6978
     2.7089   2.7183   2.7291   2.7382   2.7532   2.7557   2.7774   2.7809
     2.8358   2.8390   2.8446   2.8694   2.9213   3.0090   3.0391   3.1486
     3.1641   3.1642   3.1876   3.1903   3.1923   3.1997   3.2165   3.2809
     3.3780   3.3796   3.4186   3.4203   3.4276   3.4319   3.4346   3.5006
     3.5026   3.5088   3.5110   3.5351   3.5671   3.5778   3.5846   3.7301
     3.7609   3.7660   3.7753   3.8003   3.8866   3.9098   3.9278   3.9641
     3.9808   3.9842   3.9972   4.0074   4.0214   4.0447   4.0475   4.1408
     4.4957   4.5208   4.5924   4.6759   4.6811   4.9852   5.0282   5.0605
     5.2079   5.2386   5.2504   5.2505   5.3157   5.3295   5.3614   5.3840
     5.4243   5.4309   5.4710   5.5100   5.5616   5.6267   5.6665   5.7226
     5.7325   5.7776   5.8093   5.9105   5.9809   6.0321   6.0665   6.0985
     6.1291   6.1383   6.1827   6.1894   6.2603   6.4485   6.7031   6.7187
     6.7639   6.7692   6.8724   6.8777   6.8887   6.8890   6.8908   6.8925
     6.9445   6.9713   6.9714   6.9750   6.9914   7.0148   7.0169   7.0366
     7.0804   7.0915   7.0970   7.0990   7.0991   7.1400   7.1614   7.1926
     7.2102   7.2623   7.3341   7.3353   7.3810   7.4015   7.4460   7.5378
     7.6086   7.6156   7.6319   7.6445   7.6539   7.6972   7.7718   7.7788
     7.8305   7.8309   7.8488   7.9328   7.9470   8.0672   8.0831   8.1228
     8.1229   8.1327   8.2257   8.2383   8.2570   8.2827   8.3211   8.3332
     8.4531   8.4563   8.5325   8.5345   8.5347   8.5380   8.5656   8.5692
     8.6483   8.6616   8.6617   8.6644   8.6825   8.7131   8.7296   8.7461
     8.7488   8.8487   8.8520   8.8656   8.8727   8.8779   8.8976   8.9433
     8.9720   8.9977   9.0061   9.0160   9.0197   9.0200   9.0578   9.0591
     9.0906   9.0987   9.1130   9.1299   9.1316   9.1612   9.2103   9.2218
     9.2343   9.2727   9.3033   9.3078   9.3288   9.3781   9.3875   9.3950
     9.3972   9.4048

          k = 0.2326 0.2390 0.0000 (280419 PWs)   bands (ev):

   -40.9199 -40.9074 -40.9056 -40.8983 -40.8969 -40.8857 -40.8845 -38.3613
   -37.9166 -37.8886 -37.8870 -37.8813 -37.8806 -37.8668 -37.8642 -35.4536
   -22.8610 -22.7988 -22.7661 -22.7307 -22.7169 -22.6024 -22.5835 -22.5474
   -22.4992 -22.4837 -22.4444 -22.4405 -22.4154 -22.4067 -22.3827 -22.3711
   -22.3355 -22.3308 -22.3088 -22.2882 -22.2673 -22.2598 -22.2515 -22.2028
   -22.1990 -22.1766 -22.1675 -22.1307 -22.1287 -22.1082 -22.0899 -22.0246
   -21.1067 -21.0714 -21.0613 -21.0588 -21.0390 -21.0138 -20.9854 -20.9452
   -20.9393 -20.9261 -20.8955 -20.8626 -20.8596 -20.8543 -20.8517 -20.8274
   -20.8206 -20.8144 -20.8064 -20.8035 -20.7901 -19.4390 -19.4187 -19.3603
   -18.4642 -18.4291 -18.4129 -18.3882 -18.3811 -18.3609 -18.3280 -18.2968
   -18.2163 -18.2088 -18.1920 -18.1897 -18.1761 -18.0988 -18.0649 -18.0475
   -18.0133 -18.0099 -18.0017 -17.9371 -17.9308 -16.7130 -16.6859 -16.6777
   -16.0064 -15.8785 -15.6940 -15.6842 -15.6069 -15.5776 -15.5055 -15.3802
   -15.3760 -15.3215 -15.2813 -15.2665 -15.2274 -15.1453 -15.1406 -15.0978
   -14.9614 -14.8765 -14.6427 -14.5761 -14.5715 -14.5615 -14.5472 -14.4903
   -14.4667 -14.4638 -14.4429 -14.4127 -14.3982 -14.3870 -14.3745 -14.3631
   -14.3562 -14.3534 -14.3459 -14.3396 -14.3332 -14.3090 -14.3000 -14.2912
   -14.2713 -14.2696 -14.2493 -14.2449 -14.2122 -14.2003 -14.1806 -14.1565
   -14.1526 -14.1459 -14.1325 -14.1140 -14.1128 -14.1083 -14.0787 -14.0749
   -14.0700 -14.0425 -14.0102 -14.0080 -13.9989 -13.9931 -13.9499 -13.9390
   -13.9286 -13.9191 -13.9081 -13.8861 -13.8846 -13.8750 -13.8694 -13.8687
   -13.8471 -13.8437 -13.8294 -13.8007 -13.7776 -13.7687 -13.7669 -13.7429
   -13.7353 -13.7211 -13.6869 -13.6670 -13.6465 -13.6230 -13.6095 -13.6001
   -13.5922 -13.5826 -13.5767 -13.5658 -13.5602 -13.5555 -13.5404 -13.5392
   -13.5346 -13.5239 -13.5135 -13.5051 -13.5017 -13.4945 -13.4861 -13.4856
   -13.4852 -13.4772 -13.4733 -13.4720 -13.4666 -13.4401 -13.4305 -13.3990
   -13.3986 -13.3735 -13.3606 -13.3577 -13.3412 -13.2901 -13.2150 -13.1391
    -8.6274  -8.4343  -8.4172  -8.3465  -8.2892  -8.2518  -8.2383  -8.2210
    -8.2029  -8.1749  -8.1662  -8.1576  -8.1265  -8.1177  -8.0728  -8.0332
    -8.0247  -8.0069  -7.9990  -7.9827  -7.9591  -7.9217  -7.9095  -7.9094
    -7.8919  -7.8535  -7.8365  -7.8213  -7.8062  -7.8032  -7.7800  -7.7573
    -7.7539  -7.7520  -7.7377  -7.7366  -7.7266  -7.7221  -7.7110  -7.7082
    -7.7053  -7.6955  -7.6854  -7.6829  -7.6782  -7.6684  -7.6611  -7.6438
    -7.6383  -7.6209  -7.6097  -7.6032  -7.5736  -7.5701  -7.5639  -7.5453
    -7.5401  -7.5300  -7.5206  -7.5121  -7.4996  -7.4984  -7.4917  -7.4836
    -7.4627  -7.4515  -7.4491  -7.4424  -7.4353  -7.4215  -7.4166  -7.4134
    -7.4030  -7.3873  -7.3839  -7.3836  -7.3657  -7.3557  -7.3555  -7.3415
    -7.3238  -7.3127  -7.2769  -7.2684  -7.2357  -7.2200  -7.1868  -7.1833
    -7.1522  -7.1493  -7.1222  -7.1073  -7.0995  -7.0971  -7.0766  -7.0199
    -4.4861  -4.0762  -3.8338  -3.5876  -3.5617  -3.4848  -3.3997  -3.3978
    -3.3010  -3.1751  -2.9722  -2.9222  -2.9095  -2.8987  -2.8908  -2.8750
    -2.8676  -2.7823  -2.7621  -2.7601  -2.7537  -2.6823  -2.6495  -2.6345
    -2.6283  -2.6116  -2.5997  -2.5833  -2.5612  -2.5507  -2.5439  -2.5245
    -2.5083  -2.4977  -2.4860  -2.4840  -2.4814  -2.4504  -2.3859  -2.3737
    -2.3185  -2.3043  -2.2966  -2.2407  -2.2319  -2.2293  -2.2061  -2.1921
    -2.1840  -2.1456  -2.1453  -2.1366  -2.1081  -2.1054  -2.0993  -2.0775
    -2.0512  -2.0447  -1.9629  -1.9608  -1.9515  -1.9303  -1.9064  -1.9020
    -1.8938  -1.8905  -1.8885  -1.8703  -1.8600  -1.8405  -1.8324  -1.8265
    -1.8174  -1.8155  -1.8054  -1.8041  -1.8033  -1.7952  -1.7949  -1.7901
    -1.7785  -1.7737  -1.7730  -1.7590  -1.7578  -1.7452  -1.7230  -1.7222
    -1.7090  -1.7007  -1.6939  -1.6904  -1.6870  -1.6849  -1.6813  -1.6810
    -1.6729  -1.6569  -1.6490  -1.6348  -1.6072  -1.6031  -1.5997  -1.5861
    -1.5626  -1.5276  -1.5257  -1.5094  -1.4972  -1.4884  -1.4744  -1.4438
    -1.4412  -1.4317  -1.4260  -1.4010  -1.3848  -1.3722  -1.3650  -1.3571
    -1.3460  -1.3387  -1.3082  -1.2925  -1.2885  -1.2579  -1.2568  -1.2343
    -1.2263  -1.1982  -1.1951  -1.1694  -1.1564  -1.1522  -1.1272  -1.1222
    -1.1126  -1.1081  -1.1024  -1.1009  -1.0904  -1.0876  -1.0753  -1.0628
    -1.0534  -1.0514  -1.0461  -1.0291  -0.9957  -0.9875  -0.9772  -0.9595
    -0.9381  -0.9177  -0.9148  -0.9118  -0.9010  -0.8842  -0.8725  -0.8513
    -0.8337  -0.8186  -0.7984  -0.7779  -0.7539  -0.7511  -0.7471  -0.7284
    -0.7042  -0.6929  -0.6902  -0.6584  -0.6529  -0.6386  -0.6276  -0.6239
    -0.6228  -0.6190  -0.6163  -0.6095  -0.5982  -0.5972  -0.5916  -0.5889
    -0.5835  -0.5806  -0.5744  -0.5680  -0.5669  -0.5578  -0.5523  -0.5519
    -0.5368  -0.5256  -0.5136  -0.5055  -0.5026  -0.4985  -0.4955  -0.4869
    -0.4853  -0.4741  -0.4676  -0.4525  -0.4500  -0.4402  -0.4304  -0.4279
    -0.4252  -0.4186  -0.4026  -0.4008  -0.4002  -0.3835  -0.3738  -0.3701
    -0.3644  -0.3621  -0.3548  -0.3381  -0.3261  -0.3231  -0.3209  -0.3144
    -0.3121  -0.3083  -0.2925  -0.2819  -0.2764  -0.2708  -0.2538  -0.2529
    -0.2450  -0.2436  -0.2342  -0.2225  -0.2060  -0.1987  -0.1978  -0.1777
    -0.1722  -0.1660  -0.1551  -0.1514  -0.1506  -0.1432  -0.1324  -0.1230
    -0.1210  -0.0884  -0.0773  -0.0586  -0.0494  -0.0289  -0.0110  -0.0107
    -0.0017   0.0057   0.0652   0.0803   0.0912   0.0988   0.1078   0.1160
     0.1292   0.1345   0.1405   0.1427   0.1467   0.1637   0.1744   0.1877
     0.2121   0.2128   0.2207   0.2260   0.2426   0.2450   0.2467   0.2555
     0.2622   0.2768   0.2806   0.2853   0.2863   0.2896   0.3055   0.3215
     0.3265   0.3332   0.3405   0.3512   0.3638   0.3845   0.3946   0.4030
     0.4156   0.4177   0.4461   0.4510   0.4609   0.4634   0.4807   0.4962
     0.5169   0.5313   0.5497   0.5540   0.5650   0.5722   0.5780   0.5820
     0.5863   0.5898   0.5977   0.6012   0.6200   0.6265   0.6378   0.6406
     0.6458   0.6473   0.6534   0.6578   0.6625   0.6696   0.6731   0.6775
     0.6882   0.6988   0.7022   0.7106   0.7145   0.7192   0.7231   0.7275
     0.7347   0.7422   0.7451   0.7564   0.7634   0.7692   0.7763   0.7777
     0.7849   0.7919   0.8142   0.8166   0.8234   0.8283   0.8293   0.8360
     0.8423   0.8512   0.8660   0.8726   0.8763   0.8797   0.8867   0.8946
     0.8988   0.9057   0.9296   0.9392   0.9446   0.9509   0.9546   0.9736
     0.9747   0.9782   1.0020   1.0052   1.0155   1.0220   1.0264   1.0553
     1.0921   1.1051   1.1181   1.1289   1.1455   1.1571   1.1691   1.1747
     1.1878   1.1897   1.1933   1.1977   1.1994   1.2083   1.2135   1.2274
     1.2295   1.2437   1.2536   1.2616   1.2675   1.2709   1.2941   1.2997
     1.3090   1.3188   1.3213   1.3235   1.3397   1.3577   1.3649   1.3676
     1.3938   1.3967   1.3998   1.4052   1.4105   1.4163   1.4264   1.4297
     1.4456   1.4514   1.4612   1.4671   1.4728   1.4825   1.4861   1.4886
     1.4929   1.4987   1.5045   1.5087   1.5137   1.5302   1.5373   1.5419
     1.5485   1.5561   1.5765   1.5821   1.5858   1.5927   1.5946   1.5966
     1.6012   1.6065   1.6096   1.6164   1.6217   1.6266   1.6323   1.6384
     1.6440   1.6443   1.6546   1.6594   1.6704   1.6802   1.6830   1.6890
     1.6960   1.7029   1.7111   1.7123   1.7196   1.7352   1.7427   1.7515
     1.7525   1.7609   1.7669   1.7946   1.8028   1.8144   1.8227   1.8230
     1.8391   1.8443   1.8520   1.8537   1.8563   1.8628   1.8655   1.8678
     1.8814   1.8850   1.8937   1.8970   1.9029   1.9129   1.9153   1.9188
     1.9228   1.9279   1.9370   1.9401   1.9565   1.9598   1.9633   1.9672
     1.9691   1.9726   1.9797   1.9868   1.9903   2.0005   2.0041   2.0107
     2.0161   2.0171   2.0234   2.0239   2.0271   2.0393   2.0462   2.0523
     2.0594   2.0680   2.0746   2.0869   2.0913   2.0958   2.1002   2.1060
     2.1086   2.1095   2.1166   2.1244   2.1255   2.1366   2.1411   2.1470
     2.1534   2.1571   2.1726   2.1746   2.1765   2.1829   2.1934   2.1946
     2.1993   2.2024   2.2232   2.2290   2.2345   2.2419   2.2526   2.2727
     2.2863   2.2925   2.2982   2.3165   2.3219   2.3286   2.3372   2.3387
     2.3428   2.3740   2.3852   2.4076   2.4224   2.4281   2.4613   2.4625
     2.4730   2.4931   2.5071   2.5214   2.5283   2.5393   2.5534   2.5631
     2.5702   2.5719   2.5798   2.5816   2.5946   2.6067   2.6118   2.6200
     2.6399   2.6479   2.6767   2.6778   2.6862   2.6881   2.7075   2.7154
     2.7165   2.7575   2.7809   2.7905   2.8768   2.8974   2.9065   2.9147
     2.9234   2.9333   2.9424   2.9651   2.9667   2.9877   3.0105   3.0185
     3.0367   3.0592   3.0973   3.1463   3.2085   3.2451   3.2696   3.2776
     3.2849   3.2978   3.3185   3.3295   3.3498   3.3629   3.3690   3.3736
     3.3828   3.3940   3.4100   3.4228   3.4660   3.4727   3.4781   3.5025
     3.5520   3.5586   3.6147   3.6794   3.7089   3.7853   3.8239   3.9518
     4.0254   4.1732   4.2010   4.2278   4.2828   4.3068   4.3571   4.3727
     4.4308   4.4430   4.5638   4.5766   4.6229   4.7696   4.8523   5.0694
     5.1115   5.1773   5.2225   5.2675   5.3036   5.4006   5.4494   5.4619
     5.4889   5.5193   5.5333   5.5592   5.6267   5.7085   5.7220   5.7414
     5.7878   5.7997   5.8193   5.8825   5.9880   6.0556   6.0660   6.1308
     6.1730   6.2310   6.2665   6.2796   6.3179   6.3788   6.3978   6.4368
     6.4980   6.6321   6.7146   6.7715   6.8008   6.8261   6.8522   6.8757
     6.8994   6.9132   6.9690   6.9867   7.0450   7.0598   7.0648   7.0794
     7.1143   7.1309   7.1377   7.1568   7.1863   7.1956   7.2119   7.2625
     7.2748   7.3340   7.3621   7.3867   7.4093   7.4479   7.4507   7.4669
     7.5052   7.5839   7.6187   7.6928   7.7004   7.7394   7.7742   7.8024
     7.8251   7.8887   7.9120   7.9295   7.9414   7.9724   8.0059   8.0250
     8.0310   8.0578   8.1325   8.1651   8.2205   8.2225   8.2445   8.2822
     8.3180   8.3804   8.4430   8.4539   8.4702   8.4761   8.5391   8.5424
     8.5470   8.6855   8.6924   8.7163   8.7280   8.7449   8.8039   8.8087
     8.8578   8.8674   8.8796   8.9011   8.9130   8.9372   8.9453   8.9804
     8.9952   9.0205   9.0279   9.0430   9.0497   9.0776   9.0866   9.0985
     9.1076   9.1258   9.1294   9.1524   9.1589   9.1699   9.1792   9.2007
     9.2147   9.2527   9.2553   9.2603   9.2862   9.2967   9.3129   9.3340
     9.3576   9.3782

          k = 0.0000 0.4779 0.0000 (280335 PWs)   bands (ev):

   -40.9199 -40.9077 -40.9054 -40.8991 -40.8960 -40.8858 -40.8845 -38.3613
   -37.9165 -37.8887 -37.8869 -37.8823 -37.8796 -37.8659 -37.8651 -35.4536
   -22.8538 -22.8062 -22.7630 -22.7467 -22.7050 -22.6007 -22.5834 -22.5281
   -22.4983 -22.4878 -22.4843 -22.4515 -22.4018 -22.3743 -22.3730 -22.3679
   -22.3458 -22.3417 -22.2979 -22.2893 -22.2722 -22.2583 -22.2484 -22.2419
   -22.2108 -22.1620 -22.1336 -22.1279 -22.1262 -22.1083 -22.1050 -22.0253
   -21.1052 -21.0744 -21.0708 -21.0560 -21.0442 -20.9901 -20.9667 -20.9612
   -20.9426 -20.9350 -20.8913 -20.8752 -20.8645 -20.8517 -20.8509 -20.8301
   -20.8200 -20.8067 -20.8030 -20.7994 -20.7939 -19.4390 -19.4187 -19.3603
   -18.4596 -18.4545 -18.4190 -18.3886 -18.3623 -18.3596 -18.3084 -18.2715
   -18.2148 -18.2081 -18.1990 -18.1927 -18.1741 -18.1223 -18.0775 -18.0599
   -18.0359 -18.0144 -18.0019 -17.9324 -17.8919 -16.7130 -16.6860 -16.6767
   -15.9676 -15.8722 -15.8287 -15.7004 -15.5470 -15.5125 -15.4736 -15.3974
   -15.3681 -15.3334 -15.3069 -15.2623 -15.2211 -15.1349 -15.1127 -15.0671
   -14.9682 -14.8561 -14.8014 -14.6852 -14.6031 -14.5069 -14.4884 -14.4757
   -14.4557 -14.4526 -14.4292 -14.4273 -14.4157 -14.4116 -14.3933 -14.3379
   -14.3374 -14.3331 -14.3253 -14.3249 -14.3069 -14.3035 -14.2447 -14.2444
   -14.2369 -14.2266 -14.2239 -14.2231 -14.2139 -14.2040 -14.1941 -14.1897
   -14.1663 -14.1436 -14.1431 -14.1313 -14.1237 -14.1071 -14.0915 -14.0801
   -14.0797 -14.0605 -14.0563 -14.0162 -14.0120 -13.9941 -13.9864 -13.9614
   -13.9405 -13.9305 -13.9252 -13.8946 -13.8895 -13.8637 -13.8570 -13.8552
   -13.8474 -13.8286 -13.8181 -13.7958 -13.7646 -13.7623 -13.7592 -13.7482
   -13.7187 -13.6939 -13.6865 -13.6333 -13.6310 -13.6150 -13.6086 -13.6035
   -13.5942 -13.5881 -13.5695 -13.5687 -13.5577 -13.5572 -13.5528 -13.5526
   -13.5485 -13.5455 -13.5357 -13.5102 -13.5097 -13.5034 -13.4979 -13.4922
   -13.4921 -13.4762 -13.4729 -13.4666 -13.4637 -13.4623 -13.4440 -13.4406
   -13.3874 -13.3563 -13.3423 -13.3405 -13.3384 -13.2564 -13.2378 -13.1671
    -8.4810  -8.3416  -8.3244  -8.2912  -8.2590  -8.2530  -8.2508  -8.2229
    -8.1972  -8.1466  -8.1172  -8.1072  -8.0437  -8.0424  -8.0383  -8.0340
    -8.0178  -7.9954  -7.9514  -7.9259  -7.9054  -7.8950  -7.8783  -7.8778
    -7.8648  -7.8575  -7.8526  -7.8275  -7.8132  -7.8073  -7.8030  -7.7918
    -7.7893  -7.7735  -7.7558  -7.7464  -7.7426  -7.7215  -7.7211  -7.7190
    -7.7143  -7.7078  -7.7060  -7.6902  -7.6847  -7.6769  -7.6656  -7.6335
    -7.6318  -7.6149  -7.6091  -7.6034  -7.6017  -7.5805  -7.5574  -7.5396
    -7.5254  -7.5148  -7.5142  -7.5100  -7.4986  -7.4927  -7.4912  -7.4879
    -7.4873  -7.4599  -7.4519  -7.4502  -7.4388  -7.4252  -7.4077  -7.3994
    -7.3983  -7.3943  -7.3939  -7.3861  -7.3835  -7.3819  -7.3782  -7.3702
    -7.3653  -7.3419  -7.3375  -7.3329  -7.3172  -7.3107  -7.3101  -7.2767
    -7.2672  -7.2583  -7.1193  -7.1079  -7.1007  -7.0938  -7.0711  -7.0293
    -4.3312  -4.0390  -3.9689  -3.6674  -3.6557  -3.3840  -3.3635  -3.3261
    -3.1832  -3.1542  -3.1328  -3.0087  -2.9863  -2.9577  -2.9415  -2.8175
    -2.7985  -2.7914  -2.7349  -2.7331  -2.7126  -2.7086  -2.6445  -2.6309
    -2.6259  -2.6240  -2.6158  -2.6081  -2.5791  -2.5222  -2.5186  -2.5181
    -2.4950  -2.4865  -2.4754  -2.4741  -2.4550  -2.4465  -2.4409  -2.3615
    -2.3491  -2.3487  -2.3383  -2.3036  -2.2873  -2.2473  -2.2246  -2.2056
    -2.1959  -2.1779  -2.1711  -2.1435  -2.1392  -2.1268  -2.1022  -2.0867
    -2.0786  -2.0597  -2.0189  -2.0063  -1.9928  -1.9458  -1.9004  -1.8782
    -1.8724  -1.8667  -1.8544  -1.8480  -1.8269  -1.8213  -1.8102  -1.8053
    -1.7988  -1.7959  -1.7882  -1.7800  -1.7770  -1.7706  -1.7564  -1.7506
    -1.7471  -1.7440  -1.7399  -1.7396  -1.7359  -1.7291  -1.7260  -1.7117
    -1.7051  -1.7014  -1.6961  -1.6891  -1.6835  -1.6773  -1.6765  -1.6536
    -1.6451  -1.6438  -1.6315  -1.5959  -1.5917  -1.5496  -1.5484  -1.5284
    -1.5232  -1.5167  -1.5087  -1.5075  -1.4943  -1.4817  -1.4809  -1.4579
    -1.4543  -1.4283  -1.4254  -1.4217  -1.4145  -1.4074  -1.4001  -1.3994
    -1.3891  -1.3880  -1.3789  -1.3521  -1.3332  -1.3292  -1.3180  -1.3133
    -1.2555  -1.2284  -1.2074  -1.1997  -1.1861  -1.1734  -1.1687  -1.1654
    -1.1204  -1.1190  -1.1124  -1.1050  -1.0972  -1.0860  -1.0839  -1.0834
    -1.0727  -1.0501  -1.0359  -1.0197  -0.9912  -0.9818  -0.9663  -0.9589
    -0.9479  -0.8694  -0.8156  -0.8038  -0.7920  -0.7883  -0.7503  -0.7476
    -0.7429  -0.7386  -0.7374  -0.7310  -0.7299  -0.6941  -0.6852  -0.6813
    -0.6558  -0.6488  -0.6358  -0.6323  -0.6296  -0.6211  -0.6099  -0.6061
    -0.5924  -0.5922  -0.5918  -0.5855  -0.5836  -0.5827  -0.5802  -0.5791
    -0.5731  -0.5579  -0.5578  -0.5573  -0.5465  -0.5442  -0.5350  -0.5213
    -0.5179  -0.5111  -0.5109  -0.4970  -0.4947  -0.4937  -0.4825  -0.4776
    -0.4708  -0.4672  -0.4647  -0.4583  -0.4422  -0.4408  -0.4346  -0.4265
    -0.4251  -0.4110  -0.4091  -0.4076  -0.3982  -0.3943  -0.3849  -0.3789
    -0.3774  -0.3690  -0.3569  -0.3531  -0.3273  -0.3061  -0.3036  -0.2960
    -0.2905  -0.2673  -0.2642  -0.2576  -0.2522  -0.2466  -0.2399  -0.2374
    -0.2273  -0.2156  -0.2050  -0.1936  -0.1916  -0.1853  -0.1713  -0.1682
    -0.1649  -0.1596  -0.1589  -0.1541  -0.1474  -0.1425  -0.1341  -0.1234
    -0.1129  -0.1056  -0.0971  -0.0863  -0.0765  -0.0535  -0.0379  -0.0351
    -0.0251  -0.0241  -0.0204  -0.0063   0.0280   0.0390   0.0442   0.0625
     0.0750   0.0774   0.1036   0.1222   0.1460   0.1463   0.1535   0.1698
     0.1754   0.1774   0.1858   0.1858   0.1881   0.1977   0.2136   0.2336
     0.2361   0.2573   0.2693   0.2994   0.3091   0.3242   0.3289   0.3354
     0.3456   0.3565   0.3721   0.3736   0.3992   0.4082   0.4162   0.4248
     0.4565   0.4733   0.4759   0.4877   0.4899   0.4946   0.4989   0.5065
     0.5136   0.5155   0.5199   0.5248   0.5268   0.5309   0.5376   0.5500
     0.5564   0.5697   0.5759   0.5787   0.5823   0.6039   0.6289   0.6396
     0.6512   0.6537   0.6590   0.6661   0.6754   0.6847   0.6886   0.7138
     0.7151   0.7162   0.7180   0.7304   0.7307   0.7337   0.7350   0.7376
     0.7443   0.7532   0.7727   0.7827   0.7949   0.7974   0.8068   0.8076
     0.8134   0.8252   0.8279   0.8328   0.8337   0.8382   0.8395   0.8442
     0.8464   0.8616   0.8722   0.8806   0.8817   0.8905   0.8907   0.8965
     0.9006   0.9020   0.9231   0.9297   0.9489   0.9828   0.9896   0.9995
     1.0218   1.0267   1.0410   1.0473   1.0510   1.0597   1.0713   1.0769
     1.0808   1.0867   1.1166   1.1268   1.1277   1.1371   1.1385   1.1416
     1.1577   1.1676   1.1779   1.1820   1.1889   1.1997   1.2077   1.2255
     1.2679   1.2680   1.2750   1.3038   1.3063   1.3111   1.3182   1.3191
     1.3468   1.3480   1.3488   1.3681   1.3732   1.3869   1.3943   1.3981
     1.4042   1.4084   1.4085   1.4145   1.4156   1.4168   1.4209   1.4325
     1.4383   1.4421   1.4433   1.4496   1.4534   1.4608   1.4612   1.4675
     1.4951   1.5022   1.5121   1.5135   1.5161   1.5195   1.5265   1.5267
     1.5313   1.5392   1.5600   1.5622   1.5661   1.5698   1.5731   1.5814
     1.5902   1.6102   1.6122   1.6147   1.6172   1.6263   1.6323   1.6359
     1.6452   1.6511   1.6587   1.6670   1.6843   1.7009   1.7022   1.7064
     1.7283   1.7305   1.7307   1.7385   1.7507   1.7536   1.7581   1.7730
     1.7770   1.7803   1.7935   1.7955   1.7976   1.8003   1.8140   1.8155
     1.8201   1.8269   1.8282   1.8315   1.8341   1.8351   1.8444   1.8557
     1.8570   1.8624   1.8654   1.8684   1.8784   1.8850   1.8869   1.8977
     1.9014   1.9045   1.9071   1.9118   1.9144   1.9195   1.9264   1.9307
     1.9362   1.9540   1.9591   1.9759   1.9795   1.9823   1.9826   1.9902
     1.9919   1.9966   2.0124   2.0243   2.0254   2.0310   2.0320   2.0361
     2.0366   2.0446   2.0514   2.0572   2.0634   2.0684   2.0760   2.0774
     2.0796   2.0814   2.0934   2.1007   2.1148   2.1351   2.1406   2.1439
     2.1586   2.1666   2.1690   2.1777   2.1781   2.1806   2.1835   2.1882
     2.1912   2.1937   2.2090   2.2095   2.2109   2.2256   2.2424   2.2466
     2.2519   2.2626   2.2638   2.2660   2.2759   2.2814   2.2904   2.2956
     2.2984   2.3258   2.3410   2.3594   2.3651   2.4038   2.4278   2.4508
     2.4558   2.4645   2.4798   2.4828   2.4933   2.5009   2.5108   2.5301
     2.5323   2.5348   2.5404   2.5454   2.5594   2.5646   2.5788   2.5827
     2.6269   2.6299   2.6517   2.6865   2.6961   2.7187   2.7198   2.7310
     2.7318   2.7734   2.7750   2.7971   2.8422   2.8459   2.8465   2.8611
     2.8728   2.9124   2.9294   2.9662   2.9892   3.0326   3.0435   3.0494
     3.0599   3.1177   3.1320   3.1492   3.1659   3.2784   3.2799   3.2841
     3.2878   3.2927   3.3038   3.3555   3.3602   3.3723   3.3730   3.3983
     3.4382   3.4562   3.4581   3.4645   3.4712   3.4870   3.5054   3.5561
     3.6773   3.7069   3.7141   3.8809   3.8904   3.8970   3.9549   3.9639
     4.0110   4.0272   4.0632   4.0809   4.1241   4.2356   4.3085   4.3255
     4.3330   4.4934   4.5120   4.5782   4.6058   4.6170   4.6703   4.8882
     5.0387   5.1787   5.2453   5.3048   5.3838   5.4251   5.4433   5.4558
     5.4743   5.5111   5.5920   5.6391   5.6557   5.6906   5.7038   5.7810
     5.8084   5.8648   5.9154   6.0214   6.1071   6.1455   6.1945   6.2312
     6.2349   6.2466   6.2743   6.2937   6.3020   6.3028   6.4496   6.4738
     6.5304   6.6021   6.6024   6.6087   6.6134   6.6870   6.6977   6.9216
     6.9765   6.9865   6.9925   7.0067   7.0180   7.0394   7.0438   7.0841
     7.0958   7.1420   7.1685   7.1715   7.1762   7.1866   7.2045   7.2126
     7.2828   7.2922   7.3198   7.3344   7.3508   7.3902   7.4188   7.4416
     7.4801   7.5847   7.5923   7.6138   7.6290   7.6606   7.6814   7.8568
     7.8655   7.8867   7.9268   7.9986   8.0140   8.0475   8.0499   8.0719
     8.0821   8.1356   8.1544   8.1720   8.1935   8.2361   8.2411   8.2569
     8.2660   8.2702   8.3150   8.3449   8.3770   8.4519   8.5462   8.5679
     8.5973   8.6100   8.6254   8.6598   8.6811   8.7355   8.7798   8.7945
     8.8089   8.8620   8.8714   8.9071   8.9083   8.9482   8.9577   8.9688
     8.9737   8.9928   9.0206   9.0315   9.0531   9.0575   9.0929   9.1219
     9.1465   9.1488   9.1572   9.1666   9.2065   9.2313   9.2650   9.2903
     9.2915   9.3032   9.3046   9.3174   9.3222   9.3325   9.3596   9.3830
     9.4110   9.4140

          k =-0.4652-0.0000 0.0000 (280314 PWs)   bands (ev):

   -40.9199 -40.9083 -40.9037 -40.9005 -40.8956 -40.8852 -40.8850 -38.3613
   -37.9165 -37.8894 -37.8859 -37.8823 -37.8799 -37.8664 -37.8646 -35.4536
   -22.8548 -22.8022 -22.7738 -22.7350 -22.7075 -22.6086 -22.5768 -22.5342
   -22.4883 -22.4845 -22.4768 -22.4688 -22.3858 -22.3837 -22.3786 -22.3735
   -22.3421 -22.3392 -22.2992 -22.2953 -22.2658 -22.2492 -22.2451 -22.2364
   -22.2286 -22.1466 -22.1435 -22.1372 -22.1336 -22.1017 -22.0985 -22.0257
   -21.1225 -21.0726 -21.0550 -21.0475 -21.0158 -21.0012 -20.9973 -20.9718
   -20.9404 -20.9297 -20.8859 -20.8726 -20.8657 -20.8540 -20.8504 -20.8291
   -20.8105 -20.8087 -20.8072 -20.8014 -20.7935 -19.4390 -19.4187 -19.3603
   -18.4953 -18.4225 -18.4169 -18.3914 -18.3676 -18.3288 -18.2910 -18.2803
   -18.2257 -18.2184 -18.1982 -18.1965 -18.1895 -18.1156 -18.0902 -18.0546
   -18.0294 -18.0106 -18.0059 -17.9365 -17.8836 -16.7129 -16.6844 -16.6780
   -15.9696 -15.8706 -15.8233 -15.7084 -15.5519 -15.5004 -15.4764 -15.3749
   -15.3698 -15.3688 -15.2942 -15.2601 -15.2242 -15.1319 -15.1143 -15.0606
   -14.9683 -14.8727 -14.8027 -14.6777 -14.5691 -14.5354 -14.5193 -14.5022
   -14.4682 -14.4521 -14.4207 -14.3879 -14.3772 -14.3679 -14.3530 -14.3471
   -14.3442 -14.3253 -14.3182 -14.3048 -14.3006 -14.2977 -14.2966 -14.2838
   -14.2762 -14.2728 -14.2625 -14.2452 -14.2419 -14.1980 -14.1747 -14.1707
   -14.1460 -14.1442 -14.1433 -14.1373 -14.1277 -14.1208 -14.0952 -14.0591
   -14.0321 -14.0241 -14.0185 -14.0070 -14.0023 -13.9853 -13.9765 -13.9579
   -13.9466 -13.9343 -13.9076 -13.8976 -13.8953 -13.8917 -13.8911 -13.8716
   -13.8632 -13.8360 -13.8272 -13.8111 -13.7829 -13.7652 -13.7509 -13.7370
   -13.6995 -13.6657 -13.6587 -13.6557 -13.6293 -13.6163 -13.6107 -13.5989
   -13.5949 -13.5938 -13.5777 -13.5769 -13.5665 -13.5632 -13.5554 -13.5438
   -13.5429 -13.5273 -13.5259 -13.5242 -13.5143 -13.4926 -13.4912 -13.4911
   -13.4885 -13.4845 -13.4784 -13.4566 -13.4555 -13.4528 -13.4440 -13.4345
   -13.4326 -13.3910 -13.3533 -13.3325 -13.2971 -13.2534 -13.2397 -13.1682
    -8.5273  -8.3319  -8.3141  -8.2795  -8.2551  -8.2450  -8.2237  -8.1871
    -8.1806  -8.1470  -8.1126  -8.1017  -8.0713  -8.0410  -8.0340  -8.0284
    -8.0279  -8.0248  -7.9626  -7.9572  -7.9287  -7.9050  -7.9006  -7.8740
    -7.8339  -7.8181  -7.8139  -7.8124  -7.8114  -7.8020  -7.7865  -7.7763
    -7.7659  -7.7656  -7.7439  -7.7349  -7.7313  -7.7208  -7.7176  -7.7127
    -7.7096  -7.7009  -7.6964  -7.6953  -7.6875  -7.6866  -7.6767  -7.6676
    -7.6641  -7.6572  -7.6450  -7.6337  -7.6304  -7.5903  -7.5520  -7.5491
    -7.5401  -7.5068  -7.5062  -7.5058  -7.5037  -7.4995  -7.4944  -7.4910
    -7.4882  -7.4714  -7.4708  -7.4636  -7.4551  -7.4506  -7.4366  -7.4352
    -7.4250  -7.4116  -7.4094  -7.4074  -7.3961  -7.3901  -7.3638  -7.3574
    -7.3483  -7.3388  -7.3237  -7.3228  -7.2852  -7.2453  -7.2254  -7.2220
    -7.1996  -7.1693  -7.1420  -7.1416  -7.1323  -7.1172  -7.0951  -7.0426
    -4.3619  -3.9809  -3.9136  -3.7654  -3.7132  -3.2949  -3.2771  -3.2442
    -3.2208  -3.2122  -3.1976  -3.1667  -2.9801  -2.9564  -2.8793  -2.8464
    -2.8236  -2.8194  -2.8184  -2.8155  -2.7102  -2.6839  -2.6459  -2.6410
    -2.6196  -2.6071  -2.6008  -2.5835  -2.5619  -2.5513  -2.5504  -2.5330
    -2.5020  -2.4978  -2.4902  -2.4771  -2.4213  -2.4154  -2.4128  -2.3927
    -2.3318  -2.3267  -2.3137  -2.2972  -2.2191  -2.1683  -2.1653  -2.1425
    -2.0888  -2.0692  -2.0642  -2.0572  -2.0509  -2.0460  -2.0454  -2.0339
    -2.0272  -1.9956  -1.9913  -1.9807  -1.9666  -1.9150  -1.9109  -1.9030
    -1.8581  -1.8545  -1.8446  -1.8286  -1.8153  -1.8087  -1.8034  -1.8014
    -1.7968  -1.7928  -1.7913  -1.7876  -1.7729  -1.7700  -1.7661  -1.7592
    -1.7578  -1.7555  -1.7393  -1.7380  -1.7365  -1.7339  -1.7295  -1.7157
    -1.7097  -1.6950  -1.6931  -1.6842  -1.6635  -1.6619  -1.6581  -1.6574
    -1.6512  -1.6293  -1.6120  -1.6084  -1.6047  -1.6022  -1.5957  -1.5953
    -1.5809  -1.5698  -1.5622  -1.5594  -1.5578  -1.5542  -1.5444  -1.5347
    -1.5333  -1.5123  -1.5054  -1.4800  -1.4693  -1.4608  -1.4511  -1.4508
    -1.4354  -1.4252  -1.4171  -1.4162  -1.3984  -1.3785  -1.3691  -1.3661
    -1.3420  -1.3196  -1.3169  -1.2765  -1.2340  -1.2325  -1.2248  -1.1905
    -1.1451  -1.1214  -1.1213  -1.0761  -1.0528  -1.0268  -1.0161  -1.0065
    -1.0006  -1.0004  -0.9948  -0.9789  -0.9707  -0.9293  -0.9136  -0.9019
    -0.8867  -0.8747  -0.8619  -0.8564  -0.8320  -0.8224  -0.8058  -0.7890
    -0.7858  -0.7437  -0.7385  -0.7136  -0.7105  -0.7032  -0.6991  -0.6910
    -0.6864  -0.6725  -0.6638  -0.6571  -0.6460  -0.6448  -0.6427  -0.6402
    -0.6345  -0.6320  -0.6232  -0.5914  -0.5895  -0.5786  -0.5734  -0.5560
    -0.5526  -0.5458  -0.5440  -0.5421  -0.5385  -0.5219  -0.5146  -0.4961
    -0.4783  -0.4673  -0.4620  -0.4581  -0.4543  -0.4445  -0.4423  -0.4370
    -0.4320  -0.4207  -0.4165  -0.4103  -0.4081  -0.4049  -0.4022  -0.3920
    -0.3879  -0.3738  -0.3698  -0.3620  -0.3530  -0.3488  -0.3362  -0.3354
    -0.3248  -0.3213  -0.3126  -0.3093  -0.3075  -0.3020  -0.2981  -0.2926
    -0.2922  -0.2702  -0.2678  -0.2587  -0.2573  -0.2507  -0.2429  -0.2337
    -0.2308  -0.2228  -0.2105  -0.2099  -0.1746  -0.1720  -0.1582  -0.1477
    -0.1473  -0.1273  -0.1226  -0.1207  -0.1132  -0.1014  -0.1007  -0.0965
    -0.0891  -0.0811  -0.0684  -0.0604  -0.0551  -0.0463  -0.0397  -0.0341
    -0.0283  -0.0222  -0.0120  -0.0095  -0.0071  -0.0006   0.0179   0.0203
     0.0370   0.0557   0.0939   0.1001   0.1048   0.1054   0.1221   0.1280
     0.1363   0.1371   0.1478   0.1523   0.1692   0.1788   0.2058   0.2130
     0.2201   0.2338   0.2350   0.2661   0.2798   0.2929   0.3233   0.3255
     0.3410   0.3412   0.3535   0.3685   0.3798   0.3963   0.4064   0.4117
     0.4137   0.4365   0.4376   0.4613   0.4844   0.4982   0.5220   0.5251
     0.5336   0.5361   0.5422   0.5478   0.5539   0.5720   0.5867   0.5960
[...]
     atom   58 type  5   force =     0.00031828    0.00000000   -0.00062710
     atom   59 type  5   force =    -0.00031828    0.00000000   -0.00062710
     atom   60 type  5   force =     0.00000000    0.00000000   -0.00014593
     atom   61 type  5   force =     0.00000000    0.00000000   -0.00073410
     atom   62 type  5   force =     0.00000000    0.00000000   -0.00073410
     atom   63 type  5   force =     0.00000000    0.00005510   -0.00083004
     atom   64 type  5   force =     0.00000000   -0.00005510   -0.00083004
     atom   65 type  4   force =    -0.00030490    0.00008681    0.00090479
     atom   66 type  4   force =    -0.00030490   -0.00008681    0.00090479
     atom   67 type  4   force =     0.00030490    0.00008681    0.00090479
     atom   68 type  4   force =     0.00030490   -0.00008681    0.00090479
     atom   69 type  4   force =     0.00000000   -0.00023140    0.00051113
     atom   70 type  4   force =     0.00000000    0.00023140    0.00051113
     atom   71 type  4   force =    -0.00009976   -0.00002577    0.00108261
     atom   72 type  4   force =    -0.00009976    0.00002577    0.00108261
     atom   73 type  4   force =     0.00009976    0.00002577    0.00108261
     atom   74 type  4   force =     0.00009976   -0.00002577    0.00108261
     atom   75 type  4   force =     0.00018535    0.00000000    0.00094576
     atom   76 type  4   force =    -0.00018535    0.00000000    0.00094576
     atom   77 type  4   force =     0.00000000   -0.00040341    0.00159877
     atom   78 type  4   force =     0.00000000    0.00040341    0.00159877
     atom   79 type  4   force =     0.00019714    0.00000000    0.00066754
     atom   80 type  4   force =    -0.00019714    0.00000000    0.00066754
     atom   81 type  3   force =     0.00009049   -0.00007004   -0.00161405
     atom   82 type  3   force =     0.00009049    0.00007004   -0.00161405
     atom   83 type  3   force =    -0.00009049   -0.00007004   -0.00161405
     atom   84 type  3   force =    -0.00009049    0.00007004   -0.00161405
     atom   85 type  3   force =     0.00002823   -0.00004740   -0.00178288
     atom   86 type  3   force =    -0.00002823   -0.00004740   -0.00178288
     atom   87 type  3   force =    -0.00002823    0.00004740   -0.00178288
     atom   88 type  3   force =     0.00002823    0.00004740   -0.00178288
     atom   89 type  1   force =     0.00000000    0.00000000   -0.00168630
     atom   90 type  1   force =     0.00000000   -0.00019960   -0.00233875
     atom   91 type  1   force =     0.00000000    0.00019960   -0.00233875
     atom   92 type  1   force =    -0.00014952    0.00000000   -0.00149206
     atom   93 type  1   force =     0.00014952    0.00000000   -0.00149206
     atom   94 type  1   force =     0.00000000    0.00000000   -0.00224910
     atom   95 type  1   force =     0.00000000    0.00000000   -0.00224910
     atom   96 type  1   force =     0.00000000    0.00000000   -0.00162810
     atom   97 type  4   force =    -0.00023499   -0.00015782    0.00328424
     atom   98 type  4   force =    -0.00023499    0.00015782    0.00328424
     atom   99 type  4   force =     0.00023499   -0.00015782    0.00328424
     atom  100 type  4   force =     0.00023499    0.00015782    0.00328424
     atom  101 type  4   force =     0.00010446   -0.00038311    0.00324908
     atom  102 type  4   force =    -0.00010446   -0.00038311    0.00324908
     atom  103 type  4   force =    -0.00010446    0.00038311    0.00324908
     atom  104 type  4   force =     0.00010446    0.00038311    0.00324908
     atom  105 type  4   force =     0.00184116    0.00000000    0.00555039
     atom  106 type  4   force =    -0.00184116    0.00000000    0.00555039
     atom  107 type  3   force =    -0.00275249   -0.00109182   -0.01043720
     atom  108 type  3   force =    -0.00275249    0.00109182   -0.01043720
     atom  109 type  3   force =     0.00275249    0.00109182   -0.01043720
     atom  110 type  3   force =     0.00275249   -0.00109182   -0.01043720
     atom  111 type  3   force =    -0.00220757   -0.00025114   -0.01101697
     atom  112 type  3   force =     0.00220757    0.00025114   -0.01101697
     atom  113 type  3   force =    -0.00220757    0.00025114   -0.01101697
     atom  114 type  3   force =     0.00220757   -0.00025114   -0.01101697
     atom  115 type  4   force =     0.00053865   -0.00098183    0.00597353
     atom  116 type  4   force =    -0.00053865   -0.00098183    0.00597353
     atom  117 type  4   force =     0.00053865    0.00098183    0.00597353
     atom  118 type  4   force =    -0.00053865    0.00098183    0.00597353
     atom  119 type  4   force =    -0.00067108    0.00000000    0.00541485
     atom  120 type  4   force =     0.00067108    0.00000000    0.00541485
     atom  121 type  4   force =    -0.00156118   -0.00030257    0.01797431
     atom  122 type  4   force =     0.00156118   -0.00030257    0.01797431
     atom  123 type  4   force =     0.00156118    0.00030257    0.01797431
     atom  124 type  4   force =    -0.00156118    0.00030257    0.01797431
     atom  125 type  4   force =     0.00090101   -0.00067218    0.01935789
     atom  126 type  4   force =     0.00090101    0.00067218    0.01935789
     atom  127 type  4   force =    -0.00090101   -0.00067218    0.01935789
     atom  128 type  4   force =    -0.00090101    0.00067218    0.01935789
     atom  129 type  1   force =     0.00000000    0.00000000   -0.02565884
     atom  130 type  1   force =     0.00000000    0.00000000   -0.02447514
     atom  131 type  1   force =     0.00000000    0.00000000   -0.02447514
     atom  132 type  1   force =    -0.00146143    0.00000000   -0.02521395
     atom  133 type  1   force =     0.00146143    0.00000000   -0.02521395
     atom  134 type  1   force =     0.00000000   -0.00072676   -0.02305092
     atom  135 type  1   force =     0.00000000    0.00072676   -0.02305092
     atom  136 type  1   force =     0.00000000    0.00000000   -0.02133523
     atom  137 type  3   force =     0.00048196    0.00017688   -0.00072061
     atom  138 type  3   force =     0.00048196   -0.00017688   -0.00072061
     atom  139 type  3   force =    -0.00048196   -0.00017688   -0.00072061
     atom  140 type  3   force =    -0.00048196    0.00017688   -0.00072061
     atom  141 type  3   force =    -0.00179760    0.00146887    0.00273500
     atom  142 type  3   force =    -0.00179760   -0.00146887    0.00273500
     atom  143 type  3   force =     0.00179760    0.00146887    0.00273500
     atom  144 type  3   force =     0.00179760   -0.00146887    0.00273500
     atom  145 type  4   force =    -0.01629560    0.00000000    0.06873329
     atom  146 type  4   force =     0.01629560    0.00000000    0.06873329
     atom  147 type  4   force =     0.00000000   -0.01602249    0.06721159
     atom  148 type  4   force =     0.00000000    0.01602249    0.06721159
     atom  149 type  4   force =     0.00068453    0.00000000    0.08140685
     atom  150 type  4   force =    -0.00068453    0.00000000    0.08140685
     atom  151 type  4   force =    -0.00185831   -0.00033933    0.07990798
     atom  152 type  4   force =     0.00185831   -0.00033933    0.07990798
     atom  153 type  4   force =     0.00185831    0.00033933    0.07990798
     atom  154 type  4   force =    -0.00185831    0.00033933    0.07990798
     atom  155 type  4   force =     0.00000000    0.00085742    0.07923414
     atom  156 type  4   force =     0.00000000   -0.00085742    0.07923414
     atom  157 type  4   force =     0.00107621   -0.00231046    0.07920229
     atom  158 type  4   force =    -0.00107621    0.00231046    0.07920229
     atom  159 type  4   force =     0.00107621    0.00231046    0.07920229
     atom  160 type  4   force =    -0.00107621   -0.00231046    0.07920229
     atom  161 type  2   force =     0.00000000    0.00000000   -0.01652634
     atom  162 type  5   force =    -0.00432230    0.00000000   -0.05974738
     atom  163 type  5   force =     0.00432230    0.00000000   -0.05974738
     atom  164 type  5   force =     0.00000000    0.00000000   -0.05426001
     atom  165 type  5   force =     0.00000000    0.00000000   -0.05345736
     atom  166 type  5   force =     0.00000000    0.00000000   -0.05345736
     atom  167 type  5   force =     0.00000000   -0.00444430   -0.06151181
     atom  168 type  5   force =     0.00000000    0.00444430   -0.06151181
     atom  169 type  4   force =    -0.00073308    0.00041828   -0.01977225
     atom  170 type  4   force =    -0.00073308   -0.00041828   -0.01977225
     atom  171 type  4   force =     0.00073308    0.00041828   -0.01977225
     atom  172 type  4   force =     0.00073308   -0.00041828   -0.01977225
     atom  173 type  4   force =     0.00000000    0.00008518   -0.01810674
     atom  174 type  4   force =     0.00000000   -0.00008518   -0.01810674
     atom  175 type  4   force =    -0.00070503   -0.00048166   -0.02383065
     atom  176 type  4   force =    -0.00070503    0.00048166   -0.02383065
     atom  177 type  4   force =     0.00070503    0.00048166   -0.02383065
     atom  178 type  4   force =     0.00070503   -0.00048166   -0.02383065
     atom  179 type  4   force =     0.00052017    0.00000000   -0.02125346
     atom  180 type  4   force =    -0.00052017    0.00000000   -0.02125346
     atom  181 type  4   force =     0.00000000   -0.00368264   -0.01098118
     atom  182 type  4   force =     0.00000000    0.00368264   -0.01098118
     atom  183 type  4   force =     0.00249470    0.00000000   -0.01587355
     atom  184 type  4   force =    -0.00249470    0.00000000   -0.01587355
     atom  185 type  3   force =     0.00078058   -0.00068674   -0.02372984
     atom  186 type  3   force =     0.00078058    0.00068674   -0.02372984
     atom  187 type  3   force =    -0.00078058   -0.00068674   -0.02372984
     atom  188 type  3   force =    -0.00078058    0.00068674   -0.02372984
     atom  189 type  3   force =     0.00082600   -0.00011195   -0.02713446
     atom  190 type  3   force =    -0.00082600   -0.00011195   -0.02713446
     atom  191 type  3   force =    -0.00082600    0.00011195   -0.02713446
     atom  192 type  3   force =     0.00082600    0.00011195   -0.02713446
     atom  193 type  1   force =     0.00000000    0.00000000   -0.02421944
     atom  194 type  1   force =     0.00000000   -0.00009956   -0.02773082
     atom  195 type  1   force =     0.00000000    0.00009956   -0.02773082
     atom  196 type  1   force =    -0.00001264    0.00000000   -0.02837389
     atom  197 type  1   force =     0.00001264    0.00000000   -0.02837389
     atom  198 type  1   force =     0.00000000    0.00000000   -0.02763663
     atom  199 type  1   force =     0.00000000    0.00000000   -0.02763663
     atom  200 type  1   force =     0.00000000    0.00000000   -0.02798354
     atom  201 type  4   force =    -0.00009898    0.00015191   -0.00225941
     atom  202 type  4   force =    -0.00009898   -0.00015191   -0.00225941
     atom  203 type  4   force =     0.00009898    0.00015191   -0.00225941
     atom  204 type  4   force =     0.00009898   -0.00015191   -0.00225941
     atom  205 type  4   force =    -0.00011284   -0.00005879   -0.00256745
     atom  206 type  4   force =     0.00011284   -0.00005879   -0.00256745
     atom  207 type  4   force =     0.00011284    0.00005879   -0.00256745
     atom  208 type  4   force =    -0.00011284    0.00005879   -0.00256745
     atom  209 type  4   force =     0.00023405    0.00000000    0.00241040
     atom  210 type  4   force =    -0.00023405    0.00000000    0.00241040
     atom  211 type  3   force =     0.00012906   -0.00006430   -0.00140167
     atom  212 type  3   force =     0.00012906    0.00006430   -0.00140167
     atom  213 type  3   force =    -0.00012906    0.00006430   -0.00140167
     atom  214 type  3   force =    -0.00012906   -0.00006430   -0.00140167
     atom  215 type  3   force =     0.00002842   -0.00011681   -0.00151281
     atom  216 type  3   force =    -0.00002842    0.00011681   -0.00151281
     atom  217 type  3   force =     0.00002842    0.00011681   -0.00151281
     atom  218 type  3   force =    -0.00002842   -0.00011681   -0.00151281
     atom  219 type  4   force =    -0.00007983    0.00058414    0.00233025
     atom  220 type  4   force =     0.00007983    0.00058414    0.00233025
     atom  221 type  4   force =    -0.00007983   -0.00058414    0.00233025
     atom  222 type  4   force =     0.00007983   -0.00058414    0.00233025
     atom  223 type  4   force =    -0.00028513    0.00000000    0.00174588
     atom  224 type  4   force =     0.00028513    0.00000000    0.00174588

     Total force =     0.382361     Total SCF correction =     0.000406


     Computing stress (Cartesian axis) and pressure


     negative rho (up, down):  6.301E-01 0.000E+00
          total   stress  (Ry/bohr**3)                   (kbar)     P=      -11.22
  -0.00000863  -0.00000000   0.00000000           -1.27       -0.00        0.00
   0.00000000   0.00000578   0.00000000            0.00        0.85        0.00
   0.00000000   0.00000000  -0.00022593            0.00        0.00      -33.24

 
     init_run     :     54.76s CPU     57.86s WALL (       1 calls)
     electrons    :   4176.66s CPU   4379.76s WALL (       1 calls)
     forces       :     32.49s CPU     34.79s WALL (       1 calls)
     stress       :    408.78s CPU    413.28s WALL (       1 calls)

     Called by init_run:
     wfcinit      :     44.00s CPU     45.50s WALL (       1 calls)
     potinit      :      1.58s CPU      1.63s WALL (       1 calls)
     hinit0       :      2.90s CPU      3.02s WALL (       1 calls)

     Called by electrons:
     c_bands      :   3500.50s CPU   3584.77s WALL (      42 calls)
     sum_band     :    470.41s CPU    535.64s WALL (      42 calls)
     v_of_rho     :     10.45s CPU     10.60s WALL (      43 calls)
     newd         :     72.73s CPU    126.63s WALL (      43 calls)
     mix_rho      :    123.23s CPU    124.01s WALL (      42 calls)

     Called by c_bands:
     init_us_2    :     13.54s CPU     14.00s WALL (     348 calls)
     cegterg      :   3418.31s CPU   3496.97s WALL (     168 calls)

     Called by sum_band:
     sum_band:bec :      3.70s CPU      3.72s WALL (     168 calls)
     addusdens    :     76.66s CPU    137.67s WALL (      42 calls)

     Called by *egterg:
     h_psi        :   1468.32s CPU   1497.52s WALL (     928 calls)
     s_psi        :    428.82s CPU    439.32s WALL (     928 calls)
     g_psi        :      2.13s CPU      2.15s WALL (     756 calls)
     cdiaghg      :    593.89s CPU    596.19s WALL (     924 calls)

     Called by h_psi:
     h_psi:calbec :    469.26s CPU    471.83s WALL (     928 calls)
     vloc_psi     :    566.64s CPU    574.09s WALL (     928 calls)
     add_vuspsi   :    429.02s CPU    440.17s WALL (     928 calls)

     General routines
     calbec       :    752.21s CPU    755.75s WALL (    1116 calls)
     fft          :     10.61s CPU     10.75s WALL (     582 calls)
     ffts         :     76.61s CPU     77.09s WALL (   32896 calls)
     fftw         :    623.57s CPU    631.45s WALL (  947968 calls)
     interpolate  :      0.91s CPU      0.92s WALL (      43 calls)
 
     Parallel routines
     fft_scatt_xy :     94.03s CPU     95.20s WALL (  981446 calls)
     fft_scatt_yz :    380.34s CPU    385.20s WALL (  981446 calls)
 
     PWSCF        :      1h17m CPU      1h21m WALL

 
   This run was terminated on:  19:17: 6  17May2021            

=------------------------------------------------------------------------------=
   JOB DONE.
=------------------------------------------------------------------------------=
[1621293426.570824] [holy7c08403:255955:0]          mpool.c:43   UCX  WARN  object 0x57562c0 was not returned to mpool ucp_requests
[1621293426.602773] [holy7c08312:201625:0]          mpool.c:43   UCX  WARN  object 0x629e740 was not returned to mpool ucp_requests
[1621293426.604636] [holy7c08312:201627:0]          mpool.c:43   UCX  WARN  object 0x2fddec0 was not returned to mpool ucp_requests
[1621293426.609174] [holy7c08312:201626:0]          mpool.c:43   UCX  WARN  object 0x312fcc0 was not returned to mpool ucp_requests
[1621293426.608893] [holy7c08411:221545:0]          mpool.c:43   UCX  WARN  object 0x4683780 was not returned to mpool ucp_requests
[1621293426.569183] [holy7c08403:255957:0]          mpool.c:43   UCX  WARN  object 0x470ac00 was not returned to mpool ucp_requests
[1621293426.570699] [holy7c08403:255956:0]          mpool.c:43   UCX  WARN  object 0x3bd6600 was not returned to mpool ucp_requests
[1621293426.570962] [holy7c08403:255958:0]          mpool.c:43   UCX  WARN  object 0x45505c0 was not returned to mpool ucp_requests
[1621293426.616439] [holy7c08312:201634:0]          mpool.c:43   UCX  WARN  object 0x51aec00 was not returned to mpool ucp_requests
[1621293426.616466] [holy7c08312:201634:0]          mpool.c:43   UCX  WARN  object 0x2fe57c0 was not returned to mpool ucp_requests
[1621293426.617850] [holy7c08312:201632:0]          mpool.c:43   UCX  WARN  object 0x3a30b00 was not returned to mpool ucp_requests
[1621293426.617346] [holy7c08412:7644 :0]          mpool.c:43   UCX  WARN  object 0x36386c0 was not returned to mpool ucp_requests
[1621293426.625629] [holy7c08312:201635:0]          mpool.c:43   UCX  WARN  object 0x4436740 was not returned to mpool ucp_requests
[1621293426.637372] [holy7c08312:201633:0]          mpool.c:43   UCX  WARN  object 0x2dde100 was not returned to mpool ucp_requests
[1621293426.615743] [holy7c08411:221551:0]          mpool.c:43   UCX  WARN  object 0x3f28400 was not returned to mpool ucp_requests
[1621293426.621112] [holy7c08411:221553:0]          mpool.c:43   UCX  WARN  object 0x2c9a980 was not returned to mpool ucp_requests
[1621293426.619911] [holy7c08411:221543:0]          mpool.c:43   UCX  WARN  object 0x42cee40 was not returned to mpool ucp_requests
[1621293426.619718] [holy7c08411:221544:0]          mpool.c:43   UCX  WARN  object 0x2caddc0 was not returned to mpool ucp_requests
[1621293426.621805] [holy7c08411:221546:0]          mpool.c:43   UCX  WARN  object 0x2c2df00 was not returned to mpool ucp_requests
[1621293426.627875] [holy7c08411:221552:0]          mpool.c:43   UCX  WARN  object 0x3b88700 was not returned to mpool ucp_requests
[1621293426.636473] [holy7c08411:221554:0]          mpool.c:43   UCX  WARN  object 0x4797140 was not returned to mpool ucp_requests
[1621293426.617107] [holy7c08501:258601:0]          mpool.c:43   UCX  WARN  object 0x438be40 was not returned to mpool ucp_requests
[1621293426.637894] [holy7c08501:258602:0]          mpool.c:43   UCX  WARN  object 0x30482c0 was not returned to mpool ucp_requests
[1621293426.617263] [holy7c08412:7635 :0]          mpool.c:43   UCX  WARN  object 0x2f91680 was not returned to mpool ucp_requests
[1621293426.617267] [holy7c08412:7627 :0]          mpool.c:43   UCX  WARN  object 0x31dd600 was not returned to mpool ucp_requests
[1621293426.627119] [holy7c08412:7638 :0]          mpool.c:43   UCX  WARN  object 0x4352c40 was not returned to mpool ucp_requests
[1621293426.620050] [holy7c08412:7630 :0]          mpool.c:43   UCX  WARN  object 0x2b80cc0 was not returned to mpool ucp_requests
[1621293426.621640] [holy7c08412:7628 :0]          mpool.c:43   UCX  WARN  object 0x46dc4c0 was not returned to mpool ucp_requests
[1621293426.629627] [holy7c08412:7629 :0]          mpool.c:43   UCX  WARN  object 0x3adc700 was not returned to mpool ucp_requests
[1621293426.637827] [holy7c08412:7636 :0]          mpool.c:43   UCX  WARN  object 0x365f080 was not returned to mpool ucp_requests
[1621293426.632387] [holy7c08412:7643 :0]          mpool.c:43   UCX  WARN  object 0x2d489c0 was not returned to mpool ucp_requests
[1621293426.635029] [holy7c08412:7637 :0]          mpool.c:43   UCX  WARN  object 0x3239f40 was not returned to mpool ucp_requests
