
     Program PWSCF v.6.5 starts on 18May2021 at 21:33:37 

     This program is part of the open-source Quantum ESPRESSO suite
     for quantum simulation of materials; please cite
         "P. Giannozzi et al., J. Phys.:Condens. Matter 21 395502 (2009);
         "P. Giannozzi et al., J. Phys.:Condens. Matter 29 465901 (2017);
          URL http://www.quantum-espresso.org", 
     in publications or presentations arising from this work. More details at
     http://www.quantum-espresso.org/quote

     Parallel version (MPI), running on    80 processors

     MPI processes distributed on     5 nodes
     R & G space division:  proc/nbgrp/npool/nimage =      80
     Reading input from YBCO_Y_cleave_7.0_sep.pwi
Warning: card &IONS ignored
Warning: card     ION_DYNAMICS = 'BFGS' ignored
Warning: card / ignored
Warning: card &CELL ignored
Warning: card     CELL_DYNAMICS = 'BFGS' ignored
Warning: card     PRESS_CONV_THR = 5 ignored
Warning: card / ignored

     Current dimensions of program PWSCF are:
     Max number of different atomic species (ntypx) = 10
     Max number of k-points (npk) =  40000
     Max angular momentum in pseudopotentials (lmaxx) =  3
     Message from routine volume:
     axis vectors are left-handed

     Subspace diagonalization in iterative solution of the eigenvalue problem:
     one sub-group per band group will be used
     scalapack distributed-memory algorithm (size of sub-group:  8*  8 procs)

     Message from routine setup:
     using ibrav=0 with symmetry is DISCOURAGED, use correct ibrav instead
 
     Parallelization info
     --------------------
     sticks:   dense  smooth     PW     G-vecs:    dense   smooth      PW
     Min         300     100     25               163480    31462    4133
     Max         301     101     26               163519    31485    4174
     Sum       24079    8031   2067             13080645  2517777  332833
 


     bravais-lattice index     =            0
     lattice parameter (alat)  =      20.5021  a.u.
     unit-cell volume          =   40093.6191 (a.u.)^3
     number of atoms/cell      =          224
     number of atomic types    =            5
     number of electrons       =      1830.00
     number of Kohn-Sham states=         1098
     kinetic-energy cutoff     =      60.0000  Ry
     charge density cutoff     =     720.0000  Ry
     convergence threshold     =      1.0E-08
     mixing beta               =       0.5000
     number of iterations used =           10  local-TF  mixing
     Exchange-correlation= SLA PW PBE PBE
                           (   1   4   3   4   0   0   0)

     celldm(1)=  20.502120  celldm(2)=   0.000000  celldm(3)=   0.000000
     celldm(4)=   0.000000  celldm(5)=   0.000000  celldm(6)=   0.000000

     crystal axes: (cart. coord. in units of alat)
               a(1) = (  -0.716599   0.697485   0.000000 )  
               a(2) = (   0.716599   0.697485   0.000000 )  
               a(3) = (   0.000000   0.000000   4.654121 )  

     reciprocal axes: (cart. coord. in units 2 pi/alat)
               b(1) = ( -0.697740  0.716861  0.000000 )  
               b(2) = (  0.697740  0.716861  0.000000 )  
               b(3) = (  0.000000  0.000000  0.214863 )  


     PseudoPot. # 1 for Ba read from file:
     ./pseudo/Ba.pbe-nsp-van.UPF
     MD5 check sum: 2b9c31dd849566dd297d80989662b7a0
     Pseudo is Ultrasoft + core correction, Zval = 10.0
     Generated by new atomic code, or converted to UPF format
     Using radial grid of  907 points,  6 beta functions with: 
                l(1) =   0
                l(2) =   0
                l(3) =   1
                l(4) =   1
                l(5) =   2
                l(6) =   2
     Q(r) pseudized with  6 coefficients,  rinner =    1.200   1.200   1.200
                                                       1.200   1.200

     PseudoPot. # 2 for Ca read from file:
     ./pseudo/Ca.pbe-nsp-van.UPF
     MD5 check sum: 6471098428ff4fa451746d08035ff179
     Pseudo is Ultrasoft + core correction, Zval = 10.0
     Generated by new atomic code, or converted to UPF format
     Using radial grid of  845 points,  6 beta functions with: 
                l(1) =   0
                l(2) =   0
                l(3) =   1
                l(4) =   1
                l(5) =   2
                l(6) =   2
     Q(r) pseudized with  6 coefficients,  rinner =    1.200   1.200   1.200
                                                       1.200   1.200

     PseudoPot. # 3 for Cu read from file:
     ./pseudo/Cu.pbe-n-van_ak.UPF
     MD5 check sum: 34e3282627ffb533726feb647e090d62
     Pseudo is Ultrasoft + core correction, Zval = 11.0
     Generated by new atomic code, or converted to UPF format
     Using radial grid of  867 points,  6 beta functions with: 
                l(1) =   0
                l(2) =   0
                l(3) =   1
                l(4) =   1
                l(5) =   2
                l(6) =   2
     Q(r) pseudized with  8 coefficients,  rinner =    1.400   1.400   1.400
                                                       1.400   1.400

     PseudoPot. # 4 for O  read from file:
     ./pseudo/O.pbe-van_ak.UPF
     MD5 check sum: 783ce7fe4c79b6a4916957118fed0856
     Pseudo is Ultrasoft, Zval =  6.0
     Generated by new atomic code, or converted to UPF format
     Using radial grid of  737 points,  4 beta functions with: 
                l(1) =   0
                l(2) =   0
                l(3) =   1
                l(4) =   1
     Q(r) pseudized with  8 coefficients,  rinner =    0.800   0.800   0.800


     PseudoPot. # 5 for Y  read from file:
     ./pseudo/Y.pbe-nsp-van.UPF
     MD5 check sum: 4412fed3ab108fed87a1b7d6a69a4a38
     Pseudo is Ultrasoft + core correction, Zval = 11.0
     Generated by new atomic code, or converted to UPF format
     Using radial grid of  885 points,  6 beta functions with: 
                l(1) =   0
                l(2) =   0
                l(3) =   1
                l(4) =   1
                l(5) =   2
                l(6) =   2
     Q(r) pseudized with  6 coefficients,  rinner =    1.200   1.200   1.200
                                                       1.200   1.200

     atomic species   valence    mass     pseudopotential
        Ba            10.00   137.32700     Ba( 1.00)
        Ca            10.00    40.07800     Ca( 1.00)
        Cu            11.00    63.54600     Cu( 1.00)
        O              6.00    15.99900     O ( 1.00)
        Y             11.00    88.90584     Y ( 1.00)

      4 Sym. Ops. (no inversion) found ( 3 have fractional translation)



   Cartesian axes

     site n.     atom                  positions (alat units)
         1           O   tau(   1) = (   0.3545921   0.8718562  -0.0077406  )
         2           O   tau(   2) = (   0.0037072   0.8718562  -0.0077406  )
         3           Cu  tau(   3) = (  -0.0002581   0.0006065   0.0080789  )
         4           Cu  tau(   4) = (  -0.0002581   0.3481364   0.0080789  )
         5           Cu  tau(   5) = (   0.3585574   0.3481364   0.0080789  )
         6           Cu  tau(   6) = (  -0.3580421   0.6980913   0.0080789  )
         7           Cu  tau(   7) = (   0.3577988   0.6971373   0.0086255  )
         8           Cu  tau(   8) = (   0.0005005   1.0465760   0.0086255  )
         9           Cu  tau(   9) = (  -0.3588016   0.3490903   0.0086255  )
        10           Cu  tau(  10) = (   0.0005005   0.6971373   0.0086255  )
        11           O   tau(  11) = (  -0.0001733   0.5225410  -0.0089757  )
        12           O   tau(  12) = (   0.3584726   0.5225410  -0.0089757  )
        13           O   tau(  13) = (  -0.0001733   1.2211724  -0.0089757  )
        14           O   tau(  14) = (  -0.3581278   0.5236867  -0.0089757  )
        15           O   tau(  15) = (  -0.3544557   0.8718562  -0.0105593  )
        16           O   tau(  16) = (  -0.0038445   0.1743714  -0.0105593  )
        17           O   tau(  17) = (   0.3588818   0.3486599   0.1817056  )
        18           O   tau(  18) = (  -0.0005825   0.3486599   0.1817056  )
        19           O   tau(  19) = (  -0.0005825   0.0000830   0.1817056  )
        20           O   tau(  20) = (  -0.3577167   0.6975677   0.1817056  )
        21           O   tau(  21) = (   0.3584283   0.6967843   0.1825784  )
        22           O   tau(  22) = (  -0.3581712   0.3494443   0.1825784  )
        23           O   tau(  23) = (  -0.0001290   0.6967843   0.1825784  )
        24           O   tau(  24) = (  -0.0001290   1.0469291   0.1825784  )
        25           Ba  tau(  25) = (   0.1791506   0.8718562   0.1908537  )
        26           Ba  tau(  26) = (   0.5374498   0.5231143   0.1919901  )
        27           Ba  tau(  27) = (  -0.1791506   0.5231143   0.1919901  )
        28           Ba  tau(  28) = (  -0.1793773   0.8718562   0.1931958  )
        29           Ba  tau(  29) = (  -0.1789238   0.1743714   0.1931958  )
        30           Ba  tau(  30) = (   0.1791506   0.5222101   0.1929368  )
        31           Ba  tau(  31) = (  -0.5374498   0.5240176   0.1929368  )
        32           Ba  tau(  32) = (   0.1791506   0.1743714   0.1992469  )
        33           Cu  tau(  33) = (  -0.3583426   0.3488452   0.3777458  )
        34           Cu  tau(  34) = (   0.3582559   0.6973834   0.3777458  )
        35           Cu  tau(  35) = (   0.0000433   0.6973834   0.3777458  )
        36           Cu  tau(  36) = (   0.0000433   1.0463299   0.3777458  )
        37           Cu  tau(  37) = (  -0.3586541   0.6975060   0.3775126  )
        38           Cu  tau(  38) = (   0.3579444   0.3487217   0.3775126  )
        39           Cu  tau(  39) = (   0.0003549   0.0000212   0.3775126  )
        40           Cu  tau(  40) = (   0.0003549   0.3487217   0.3775126  )
        41           O   tau(  41) = (  -0.0047976   0.1743714   0.3996864  )
        42           O   tau(  42) = (  -0.3535026   0.8718562   0.3996864  )
        43           O   tau(  43) = (  -0.5374498   0.6924605   0.3956991  )
        44           O   tau(  44) = (   0.1791506   0.3537672   0.3956991  )
        45           O   tau(  45) = (   0.3586385   0.8718562   0.4046840  )
        46           O   tau(  46) = (  -0.0003392   0.8718562   0.4046840  )
        47           O   tau(  47) = (  -0.0004857   0.5230571   0.4066611  )
        48           O   tau(  48) = (   0.3587850   0.5230571   0.4066611  )
        49           O   tau(  49) = (  -0.3578135   0.5231714   0.4066611  )
        50           O   tau(  50) = (  -0.0004857   1.2206562   0.4066611  )
        51           O   tau(  51) = (   0.1791506   1.0461604   0.4028931  )
        52           O   tau(  52) = (   0.1791506   0.6975521   0.4028931  )
        53           O   tau(  53) = (  -0.1792261   0.6967170   0.4025963  )
        54           O   tau(  54) = (  -0.1790731   0.3495106   0.4025963  )
        55           O   tau(  55) = (  -0.1792261   1.0469964   0.4025963  )
        56           O   tau(  56) = (   0.5375263   0.6967170   0.4025963  )
        57           Ca  tau(  57) = (   0.1791506   0.1743714   0.5358617  )
        58           Y   tau(  58) = (  -0.1811525   0.8718562   0.5373908  )
        59           Y   tau(  59) = (  -0.1771467   0.1743714   0.5373908  )
        60           Y   tau(  60) = (   0.1791506   0.8718562   0.5379568  )
        61           Y   tau(  61) = (   0.5374498   0.5231143   0.5384490  )
        62           Y   tau(  62) = (  -0.1791506   0.5231143   0.5384490  )
        63           Y   tau(  63) = (   0.1791506   0.5216598   0.5383310  )
        64           Y   tau(  64) = (  -0.5374498   0.5245688   0.5383310  )
        65           O   tau(  65) = (  -0.1787754   0.3493171   0.6712314  )
        66           O   tau(  66) = (   0.5378231   0.6969115   0.6712314  )
        67           O   tau(  67) = (  -0.1795239   1.0468019   0.6712314  )
        68           O   tau(  68) = (  -0.1795239   0.6969115   0.6712314  )
        69           O   tau(  69) = (   0.1791506   0.6972691   0.6718637  )
        70           O   tau(  70) = (   0.1791506   1.0464433   0.6718637  )
        71           O   tau(  71) = (  -0.0003880   1.2203935   0.6667490  )
        72           O   tau(  72) = (  -0.0003880   0.5233198   0.6667490  )
        73           O   tau(  73) = (   0.3586882   0.5233198   0.6667490  )
        74           O   tau(  74) = (  -0.3579112   0.5229087   0.6667490  )
        75           O   tau(  75) = (   0.3585850   0.8718562   0.6641940  )
        76           O   tau(  76) = (  -0.0002857   0.8718562   0.6641940  )
        77           O   tau(  77) = (   0.1791506   0.3535118   0.6756778  )
        78           O   tau(  78) = (  -0.5374498   0.6927158   0.6756778  )
        79           O   tau(  79) = (  -0.0043044   0.1743714   0.6710848  )
        80           O   tau(  80) = (  -0.3539948   0.8718562   0.6710848  )
        81           Cu  tau(  81) = (  -0.3586514   0.6973604   0.6974442  )
        82           Cu  tau(  82) = (   0.3579472   0.3488682   0.6974442  )
        83           Cu  tau(  83) = (   0.0003521  -0.0001254   0.6974442  )
        84           Cu  tau(  84) = (   0.0003521   0.3488682   0.6974442  )
        85           Cu  tau(  85) = (   0.0000083   1.0459401   0.6989015  )
        86           Cu  tau(  86) = (  -0.3583076   0.3484544   0.6989015  )
        87           Cu  tau(  87) = (   0.3582910   0.6977733   0.6989015  )
        88           Cu  tau(  88) = (   0.0000083   0.6977733   0.6989015  )
        89           Ba  tau(  89) = (   0.1791506   0.1743714   0.8671591  )
        90           Ba  tau(  90) = (  -0.5374498   0.5239908   0.8827639  )
        91           Ba  tau(  91) = (   0.1791506   0.5222377   0.8827639  )
        92           Ba  tau(  92) = (  -0.1785616   0.1743714   0.8784262  )
        93           Ba  tau(  93) = (  -0.1797386   0.8718562   0.8784262  )
        94           Ba  tau(  94) = (  -0.1791506   0.5231143   0.8841483  )
        95           Ba  tau(  95) = (   0.5374498   0.5231143   0.8841483  )
        96           Ba  tau(  96) = (   0.1791506   0.8718562   0.8844635  )
        97           O   tau(  97) = (   0.3607888   0.6975991   0.9037874  )
        98           O   tau(  98) = (  -0.3558097   0.3486286   0.9037874  )
        99           O   tau(  99) = (  -0.0024896   0.6975991   0.9037874  )
       100           O   tau( 100) = (  -0.0024896   1.0461143   0.9037874  )
       101           O   tau( 101) = (   0.3544087   0.3463252   0.9043663  )
       102           O   tau( 102) = (   0.0038906   0.3463252   0.9043663  )
       103           O   tau( 103) = (   0.0038906   0.0024177   0.9043663  )
       104           O   tau( 104) = (  -0.3621908   0.6999025   0.9043663  )
       105           O   tau( 105) = (   0.3314246   0.8718562   1.0783672  )
       106           O   tau( 106) = (   0.0268747   0.8718562   1.0783672  )
       107           Cu  tau( 107) = (  -0.0027882   0.0031818   1.0782086  )
       108           Cu  tau( 108) = (  -0.0027882   0.3455601   1.0782086  )
       109           Cu  tau( 109) = (   0.3610875   0.3455601   1.0782086  )
       110           Cu  tau( 110) = (  -0.3555111   0.7006675   1.0782086  )
       111           Cu  tau( 111) = (   0.3579684   0.6983604   1.0781976  )
       112           Cu  tau( 112) = (   0.0003318   1.0453529   1.0781976  )
       113           Cu  tau( 113) = (  -0.3586320   0.3478672   1.0781976  )
       114           Cu  tau( 114) = (   0.0003318   0.6983604   1.0781976  )
       115           O   tau( 115) = (  -0.0055718   0.5218801   1.0778989  )
       116           O   tau( 116) = (   0.3638720   0.5218801   1.0778989  )
       117           O   tau( 117) = (  -0.0055718   1.2218333   1.0778989  )
       118           O   tau( 118) = (  -0.3527284   0.5243475   1.0778989  )
       119           O   tau( 119) = (  -0.3170374   0.8718562   1.0783192  )
       120           O   tau( 120) = (  -0.0412618   0.1743714   1.0783192  )
       121           O   tau( 121) = (   0.3544105   0.3465040   1.2520362  )
       122           O   tau( 122) = (   0.0038887   0.3465040   1.2520362  )
       123           O   tau( 123) = (   0.0038887   0.0022389   1.2520362  )
       124           O   tau( 124) = (  -0.3621880   0.6997236   1.2520362  )
       125           O   tau( 125) = (   0.3607981   0.6973991   1.2525976  )
       126           O   tau( 126) = (  -0.3558014   0.3488295   1.2525976  )
       127           O   tau( 127) = (  -0.0024988   0.6973991   1.2525976  )
       128           O   tau( 128) = (  -0.0024988   1.0463143   1.2525976  )
       129           Ba  tau( 129) = (   0.1791506   0.8718562   1.2719528  )
       130           Ba  tau( 130) = (   0.5374498   0.5231143   1.2722763  )
       131           Ba  tau( 131) = (  -0.1791506   0.5231143   1.2722763  )
       132           Ba  tau( 132) = (  -0.1796732   0.8718562   1.2779763  )
       133           Ba  tau( 133) = (  -0.1786270   0.1743714   1.2779763  )
       134           Ba  tau( 134) = (   0.1791506   0.5222571   1.2737041  )
       135           Ba  tau( 135) = (  -0.5374498   0.5239706   1.2737041  )
       136           Ba  tau( 136) = (   0.1791506   0.1743714   1.2892268  )
       137           Cu  tau( 137) = (  -0.3583094   0.3484682   1.4575232  )
       138           Cu  tau( 138) = (   0.3582901   0.6977604   1.4575232  )
       139           Cu  tau( 139) = (   0.0000101   0.6977604   1.4575232  )
       140           Cu  tau( 140) = (   0.0000101   1.0459530   1.4575232  )
       141           Cu  tau( 141) = (  -0.3586477   0.6973567   1.4589435  )
       142           Cu  tau( 142) = (   0.3579518   0.3488710   1.4589435  )
       143           Cu  tau( 143) = (   0.0003484  -0.0001281   1.4589435  )
       144           Cu  tau( 144) = (   0.0003484   0.3488710   1.4589435  )
       145           O   tau( 145) = (  -0.0043173   0.1743714   1.4852486  )
       146           O   tau( 146) = (  -0.3539819   0.8718562   1.4852486  )
       147           O   tau( 147) = (  -0.5374498   0.6927305   1.4807174  )
       148           O   tau( 148) = (   0.1791506   0.3534971   1.4807174  )
       149           O   tau( 149) = (   0.3585795   0.8718562   1.4921587  )
       150           O   tau( 150) = (  -0.0002802   0.8718562   1.4921587  )
       151           O   tau( 151) = (  -0.0003853   0.5233134   1.4896627  )
       152           O   tau( 152) = (   0.3586855   0.5233134   1.4896627  )
       153           O   tau( 153) = (  -0.3579140   0.5229152   1.4896627  )
       154           O   tau( 154) = (  -0.0003853   1.2204000   1.4896627  )
       155           O   tau( 155) = (   0.1791506   1.0464553   1.4845361  )
       156           O   tau( 156) = (   0.1791506   0.6972571   1.4845361  )
       157           O   tau( 157) = (  -0.1795146   0.6969069   1.4851647  )
       158           O   tau( 158) = (  -0.1787846   0.3493208   1.4851647  )
       159           O   tau( 159) = (  -0.1795146   1.0468065   1.4851647  )
       160           O   tau( 160) = (   0.5378139   0.6969069   1.4851647  )
       161           Ca  tau( 161) = (   0.1791506   0.1743714   1.6205270  )
       162           Y   tau( 162) = (  -0.1811544   0.8718562   1.6189960  )
       163           Y   tau( 163) = (  -0.1771449   0.1743714   1.6189960  )
       164           Y   tau( 164) = (   0.1791506   0.8718562   1.6184328  )
       165           Y   tau( 165) = (   0.5374498   0.5231143   1.6179637  )
       166           Y   tau( 166) = (  -0.1791506   0.5231143   1.6179637  )
       167           Y   tau( 167) = (   0.1791506   0.5216524   1.6180844  )
       168           Y   tau( 168) = (  -0.5374498   0.5245761   1.6180844  )
       169           O   tau( 169) = (  -0.1790685   0.3495088   2.3990044  )
       170           O   tau( 170) = (   0.5375300   0.6967198   2.3990044  )
       171           O   tau( 171) = (  -0.1792307   1.0469936   2.3990044  )
       172           O   tau( 172) = (  -0.1792307   0.6967198   2.3990044  )
       173           O   tau( 173) = (   0.1791506   0.6975604   2.3987077  )
       174           O   tau( 174) = (   0.1791506   1.0461521   2.3987077  )
       175           O   tau( 175) = (  -0.0004848   1.2206534   2.3949433  )
       176           O   tau( 176) = (  -0.0004848   0.5230599   2.3949433  )
       177           O   tau( 177) = (   0.3587841   0.5230599   2.3949433  )
       178           O   tau( 178) = (  -0.3578144   0.5231687   2.3949433  )
       179           O   tau( 179) = (   0.3586468   0.8718562   2.3968817  )
       180           O   tau( 180) = (  -0.0003466   0.8718562   2.3968817  )
       181           O   tau( 181) = (   0.1791506   0.3537690   2.4059045  )
       182           O   tau( 182) = (  -0.5374498   0.6924586   2.4059045  )
       183           O   tau( 183) = (  -0.0047874   0.1743714   2.4018692  )
       184           O   tau( 184) = (  -0.3535118   0.8718562   2.4018692  )
       185           Cu  tau( 185) = (  -0.3586560   0.6975087   2.4240753  )
       186           Cu  tau( 186) = (   0.3579435   0.3487198   2.4240753  )
       187           Cu  tau( 187) = (   0.0003567   0.0000230   2.4240753  )
       188           Cu  tau( 188) = (   0.0003567   0.3487198   2.4240753  )
       189           Cu  tau( 189) = (   0.0000415   1.0463263   2.4238430  )
       190           Cu  tau( 190) = (  -0.3583407   0.3488406   2.4238430  )
       191           Cu  tau( 191) = (   0.3582587   0.6973871   2.4238430  )
       192           Cu  tau( 192) = (   0.0000415   0.6973871   2.4238430  )
       193           Ba  tau( 193) = (   0.1791506   0.1743714   2.6023484  )
       194           Ba  tau( 194) = (  -0.5374498   0.5240166   2.6086576  )
       195           Ba  tau( 195) = (   0.1791506   0.5222119   2.6086576  )
       196           Ba  tau( 196) = (  -0.1789220   0.1743714   2.6084013  )
       197           Ba  tau( 197) = (  -0.1793773   0.8718562   2.6084013  )
       198           Ba  tau( 198) = (  -0.1791506   0.5231143   2.6096115  )
       199           Ba  tau( 199) = (   0.5374498   0.5231143   2.6096115  )
       200           Ba  tau( 200) = (   0.1791506   0.8718562   2.6107397  )
       201           O   tau( 201) = (   0.3584302   0.6967870   2.6190094  )
       202           O   tau( 202) = (  -0.3581684   0.3494406   2.6190094  )
       203           O   tau( 203) = (  -0.0001309   0.6967870   2.6190094  )
       204           O   tau( 204) = (  -0.0001309   1.0469263   2.6190094  )
       205           O   tau( 205) = (   0.3588800   0.3486562   2.6198823  )
       206           O   tau( 206) = (  -0.0005807   0.3486562   2.6198823  )
       207           O   tau( 207) = (  -0.0005807   0.0000866   2.6198823  )
       208           O   tau( 208) = (  -0.3577186   0.6975714   2.6198823  )
       209           O   tau( 209) = (   0.3545921   0.8718562   2.8093128  )
       210           O   tau( 210) = (   0.0037081   0.8718562   2.8093128  )
       211           Cu  tau( 211) = (  -0.0002516   0.0006074   2.7935090  )
       212           Cu  tau( 212) = (  -0.0002516   0.3481345   2.7935090  )
       213           Cu  tau( 213) = (   0.3585509   0.3481345   2.7935090  )
       214           Cu  tau( 214) = (  -0.3580476   0.6980931   2.7935090  )
       215           Cu  tau( 215) = (   0.3577960   0.6971373   2.7929624  )
       216           Cu  tau( 216) = (   0.0005033   1.0465760   2.7929624  )
       217           Cu  tau( 217) = (  -0.3588035   0.3490903   2.7929624  )
       218           Cu  tau( 218) = (   0.0005033   0.6971373   2.7929624  )
       219           O   tau( 219) = (  -0.0001724   0.5225410   2.8105516  )
       220           O   tau( 220) = (   0.3584716   0.5225410   2.8105516  )
       221           O   tau( 221) = (  -0.0001724   1.2211724   2.8105516  )
       222           O   tau( 222) = (  -0.3581288   0.5236867   2.8105516  )
       223           O   tau( 223) = (  -0.3544640   0.8718562   2.8121416  )
       224           O   tau( 224) = (  -0.0038353   0.1743714   2.8121416  )

     number of k points=     4  Gaussian smearing, width (Ry)=  0.0100
                       cart. coord. in units 2pi/alat
        k(    1) = (   0.0000000   0.0000000   0.0000000), wk =   0.2222222
        k(    2) = (   0.2325801   0.2389537   0.0000000), wk =   0.8888889
        k(    3) = (   0.0000000   0.4779073   0.0000000), wk =   0.4444444
        k(    4) = (  -0.4651601  -0.0000000   0.0000000), wk =   0.4444444

     Dense  grid: 13080645 G-vectors     FFT dimensions: ( 180, 180, 864)

     Smooth grid:  2517777 G-vectors     FFT dimensions: ( 108, 108, 480)

     Estimated max dynamical RAM per process >       2.73 GB

     Estimated total dynamical RAM >     218.26 GB

     Initial potential from superposition of free atoms

     starting charge 1828.78422, renormalised to 1830.00000

     negative rho (up, down):  6.307E-01 0.000E+00
     Starting wfcs are 1602 randomized atomic wfcs

     total cpu time spent up to now is       66.7 secs

     Self-consistent Calculation

     iteration #  1     ecut=    60.00 Ry     beta= 0.50
     Davidson diagonalization with overlap
     ethr =  1.00E-02,  avg # of iterations =  2.0

     negative rho (up, down):  5.969E-01 0.000E+00

     total cpu time spent up to now is      178.0 secs

     total energy              =  -14912.55070964 Ry
     Harris-Foulkes estimate   =  -14942.66469843 Ry
     estimated scf accuracy    <     118.94207753 Ry

     iteration #  2     ecut=    60.00 Ry     beta= 0.50
     Davidson diagonalization with overlap
     ethr =  6.50E-03,  avg # of iterations =  2.0

     negative rho (up, down):  5.947E-01 0.000E+00

     total cpu time spent up to now is      282.5 secs

     total energy              =  -14922.16864075 Ry
     Harris-Foulkes estimate   =  -14925.98856936 Ry
     estimated scf accuracy    <      79.80285903 Ry

     iteration #  3     ecut=    60.00 Ry     beta= 0.50
     Davidson diagonalization with overlap
     ethr =  4.36E-03,  avg # of iterations =  1.0

     negative rho (up, down):  5.954E-01 0.000E+00

     total cpu time spent up to now is      380.4 secs

     total energy              =  -14922.55855731 Ry
     Harris-Foulkes estimate   =  -14924.58930767 Ry
     estimated scf accuracy    <      46.46774413 Ry

     iteration #  4     ecut=    60.00 Ry     beta= 0.50
     Davidson diagonalization with overlap
     ethr =  2.54E-03,  avg # of iterations =  1.0

     negative rho (up, down):  5.991E-01 0.000E+00

     total cpu time spent up to now is      479.3 secs

     total energy              =  -14922.15252554 Ry
     Harris-Foulkes estimate   =  -14923.52971114 Ry
     estimated scf accuracy    <      34.95328188 Ry

     iteration #  5     ecut=    60.00 Ry     beta= 0.50
     Davidson diagonalization with overlap
     ethr =  1.91E-03,  avg # of iterations =  1.0

     negative rho (up, down):  6.097E-01 0.000E+00

     total cpu time spent up to now is      578.9 secs

     total energy              =  -14921.33341980 Ry
     Harris-Foulkes estimate   =  -14922.73609870 Ry
     estimated scf accuracy    <      32.13032285 Ry

     iteration #  6     ecut=    60.00 Ry     beta= 0.50
     Davidson diagonalization with overlap
     ethr =  1.76E-03,  avg # of iterations =  2.0

     negative rho (up, down):  6.192E-01 0.000E+00

     total cpu time spent up to now is      682.3 secs

     total energy              =  -14921.00405046 Ry
     Harris-Foulkes estimate   =  -14921.96275360 Ry
     estimated scf accuracy    <      44.85854972 Ry

     iteration #  7     ecut=    60.00 Ry     beta= 0.50
     Davidson diagonalization with overlap
     ethr =  1.76E-03,  avg # of iterations =  2.5

     negative rho (up, down):  6.183E-01 0.000E+00

     total cpu time spent up to now is      788.0 secs

     total energy              =  -14921.21586687 Ry
     Harris-Foulkes estimate   =  -14921.88352750 Ry
     estimated scf accuracy    <      24.73815855 Ry

     iteration #  8     ecut=    60.00 Ry     beta= 0.50
     Davidson diagonalization with overlap
     ethr =  1.35E-03,  avg # of iterations =  3.0

     negative rho (up, down):  6.240E-01 0.000E+00

     total cpu time spent up to now is      895.7 secs

     total energy              =  -14921.35742794 Ry
     Harris-Foulkes estimate   =  -14921.66705452 Ry
     estimated scf accuracy    <       3.69021877 Ry

     iteration #  9     ecut=    60.00 Ry     beta= 0.50
     Davidson diagonalization with overlap
     ethr =  2.02E-04,  avg # of iterations =  8.5

     negative rho (up, down):  6.280E-01 0.000E+00

     total cpu time spent up to now is     1052.1 secs

     total energy              =  -14921.40394143 Ry
     Harris-Foulkes estimate   =  -14921.50326253 Ry
     estimated scf accuracy    <       2.45308359 Ry

     iteration # 10     ecut=    60.00 Ry     beta= 0.50
     Davidson diagonalization with overlap
     ethr =  1.34E-04,  avg # of iterations =  1.2

     negative rho (up, down):  6.283E-01 0.000E+00

     total cpu time spent up to now is     1151.0 secs

     total energy              =  -14921.45974867 Ry
     Harris-Foulkes estimate   =  -14921.46833515 Ry
     estimated scf accuracy    <       4.82599612 Ry

     iteration # 11     ecut=    60.00 Ry     beta= 0.50
     Davidson diagonalization with overlap
     ethr =  1.34E-04,  avg # of iterations =  1.0

     negative rho (up, down):  6.264E-01 0.000E+00

     total cpu time spent up to now is     1250.0 secs

     total energy              =  -14921.39389255 Ry
     Harris-Foulkes estimate   =  -14921.46761903 Ry
     estimated scf accuracy    <       5.60600419 Ry

     iteration # 12     ecut=    60.00 Ry     beta= 0.50
     Davidson diagonalization with overlap
     ethr =  1.34E-04,  avg # of iterations =  1.0

     negative rho (up, down):  6.251E-01 0.000E+00

     total cpu time spent up to now is     1347.9 secs

     total energy              =  -14921.36356317 Ry
     Harris-Foulkes estimate   =  -14921.42098078 Ry
     estimated scf accuracy    <       3.65504366 Ry

     iteration # 13     ecut=    60.00 Ry     beta= 0.50
     Davidson diagonalization with overlap
     ethr =  1.34E-04,  avg # of iterations =  1.0

     negative rho (up, down):  6.246E-01 0.000E+00

     total cpu time spent up to now is     1445.6 secs

     total energy              =  -14921.37846129 Ry
     Harris-Foulkes estimate   =  -14921.38352831 Ry
     estimated scf accuracy    <       1.46693813 Ry

     iteration # 14     ecut=    60.00 Ry     beta= 0.50
     Davidson diagonalization with overlap
     ethr =  8.02E-05,  avg # of iterations =  1.8

     negative rho (up, down):  6.234E-01 0.000E+00

     total cpu time spent up to now is     1545.4 secs

     total energy              =  -14921.36948421 Ry
     Harris-Foulkes estimate   =  -14921.38064670 Ry
     estimated scf accuracy    <       1.05386983 Ry

     iteration # 15     ecut=    60.00 Ry     beta= 0.50
     Davidson diagonalization with overlap
     ethr =  5.76E-05,  avg # of iterations = 11.5

     negative rho (up, down):  6.214E-01 0.000E+00

     total cpu time spent up to now is     1689.7 secs

     total energy              =  -14921.35772890 Ry
     Harris-Foulkes estimate   =  -14921.37563287 Ry
     estimated scf accuracy    <       1.04178605 Ry

     iteration # 16     ecut=    60.00 Ry     beta= 0.50
     Davidson diagonalization with overlap
     ethr =  5.69E-05,  avg # of iterations =  1.0

     negative rho (up, down):  6.296E-01 0.000E+00

     total cpu time spent up to now is     1789.7 secs

     total energy              =  -14921.36154915 Ry
     Harris-Foulkes estimate   =  -14921.36577397 Ry
     estimated scf accuracy    <       0.29544725 Ry

     iteration # 17     ecut=    60.00 Ry     beta= 0.50
     Davidson diagonalization with overlap
     ethr =  1.61E-05,  avg # of iterations =  7.0

     negative rho (up, down):  7.003E-01 0.000E+00

     total cpu time spent up to now is     1914.1 secs

     total energy              =  -14921.35589902 Ry
     Harris-Foulkes estimate   =  -14921.36229994 Ry
     estimated scf accuracy    <       0.17347830 Ry

     iteration # 18     ecut=    60.00 Ry     beta= 0.50
     Davidson diagonalization with overlap
     ethr =  9.48E-06,  avg # of iterations = 11.0

     negative rho (up, down):  7.252E-01 0.000E+00

     total cpu time spent up to now is     2061.6 secs

     total energy              =  -14921.35346683 Ry
     Harris-Foulkes estimate   =  -14921.35821306 Ry
     estimated scf accuracy    <       0.10829139 Ry

     iteration # 19     ecut=    60.00 Ry     beta= 0.50
     Davidson diagonalization with overlap
     ethr =  5.92E-06,  avg # of iterations =  5.2

     negative rho (up, down):  6.951E-01 0.000E+00

     total cpu time spent up to now is     2178.3 secs

     total energy              =  -14921.35091404 Ry
     Harris-Foulkes estimate   =  -14921.35522888 Ry
     estimated scf accuracy    <       0.13072035 Ry

     iteration # 20     ecut=    60.00 Ry     beta= 0.50
     Davidson diagonalization with overlap
     ethr =  5.92E-06,  avg # of iterations =  5.5

     negative rho (up, down):  6.957E-01 0.000E+00

     total cpu time spent up to now is     2293.3 secs

     total energy              =  -14921.34916072 Ry
     Harris-Foulkes estimate   =  -14921.35150324 Ry
     estimated scf accuracy    <       0.12263760 Ry

     iteration # 21     ecut=    60.00 Ry     beta= 0.50
     Davidson diagonalization with overlap
     ethr =  5.92E-06,  avg # of iterations =  3.0

     negative rho (up, down):  6.543E-01 0.000E+00

     total cpu time spent up to now is     2399.2 secs

     total energy              =  -14921.34358671 Ry
     Harris-Foulkes estimate   =  -14921.34979019 Ry
     estimated scf accuracy    <       0.10899321 Ry

     iteration # 22     ecut=    60.00 Ry     beta= 0.50
     Davidson diagonalization with overlap
     ethr =  5.92E-06,  avg # of iterations = 16.5

     negative rho (up, down):  6.242E-01 0.000E+00

     total cpu time spent up to now is     2570.7 secs

     total energy              =  -14921.34099099 Ry
     Harris-Foulkes estimate   =  -14921.34496315 Ry
     estimated scf accuracy    <       0.03522452 Ry

     iteration # 23     ecut=    60.00 Ry     beta= 0.50
     Davidson diagonalization with overlap
     c_bands:  2 eigenvalues not converged
     ethr =  1.92E-06,  avg # of iterations = 11.5

     negative rho (up, down):  6.231E-01 0.000E+00

     total cpu time spent up to now is     2720.8 secs

     total energy              =  -14921.34084306 Ry
     Harris-Foulkes estimate   =  -14921.34185344 Ry
     estimated scf accuracy    <       0.03423773 Ry

     iteration # 24     ecut=    60.00 Ry     beta= 0.50
     Davidson diagonalization with overlap
     ethr =  1.87E-06,  avg # of iterations =  7.5

     negative rho (up, down):  6.260E-01 0.000E+00

     total cpu time spent up to now is     2844.3 secs

     total energy              =  -14921.34029476 Ry
     Harris-Foulkes estimate   =  -14921.34117894 Ry
     estimated scf accuracy    <       0.02146690 Ry

     iteration # 25     ecut=    60.00 Ry     beta= 0.50
     Davidson diagonalization with overlap
     c_bands:  1 eigenvalues not converged
     ethr =  1.17E-06,  avg # of iterations = 12.2

     negative rho (up, down):  6.273E-01 0.000E+00

     total cpu time spent up to now is     2993.9 secs

     total energy              =  -14921.34019709 Ry
     Harris-Foulkes estimate   =  -14921.34064792 Ry
     estimated scf accuracy    <       0.00604685 Ry

     iteration # 26     ecut=    60.00 Ry     beta= 0.50
     Davidson diagonalization with overlap
     ethr =  3.30E-07,  avg # of iterations =  8.2

     negative rho (up, down):  6.243E-01 0.000E+00

     total cpu time spent up to now is     3124.7 secs

     total energy              =  -14921.34041637 Ry
     Harris-Foulkes estimate   =  -14921.34063648 Ry
     estimated scf accuracy    <       0.00608757 Ry

     iteration # 27     ecut=    60.00 Ry     beta= 0.50
     Davidson diagonalization with overlap
     ethr =  3.30E-07,  avg # of iterations =  2.5

     negative rho (up, down):  6.228E-01 0.000E+00

     total cpu time spent up to now is     3230.0 secs

     total energy              =  -14921.34054320 Ry
     Harris-Foulkes estimate   =  -14921.34063431 Ry
     estimated scf accuracy    <       0.00154366 Ry

     iteration # 28     ecut=    60.00 Ry     beta= 0.50
     Davidson diagonalization with overlap
     ethr =  8.44E-08,  avg # of iterations =  4.5

     negative rho (up, down):  6.240E-01 0.000E+00

     total cpu time spent up to now is     3344.4 secs

     total energy              =  -14921.34065816 Ry
     Harris-Foulkes estimate   =  -14921.34061690 Ry
     estimated scf accuracy    <       0.00108047 Ry

     iteration # 29     ecut=    60.00 Ry     beta= 0.50
     Davidson diagonalization with overlap
     ethr =  5.90E-08,  avg # of iterations =  3.2

     negative rho (up, down):  6.253E-01 0.000E+00

     total cpu time spent up to now is     3456.1 secs

     total energy              =  -14921.34071529 Ry
     Harris-Foulkes estimate   =  -14921.34068773 Ry
     estimated scf accuracy    <       0.00039808 Ry

     iteration # 30     ecut=    60.00 Ry     beta= 0.50
     Davidson diagonalization with overlap
     ethr =  2.18E-08,  avg # of iterations =  2.0

     negative rho (up, down):  6.291E-01 0.000E+00

     total cpu time spent up to now is     3557.8 secs

     total energy              =  -14921.34072588 Ry
     Harris-Foulkes estimate   =  -14921.34073155 Ry
     estimated scf accuracy    <       0.00029879 Ry

     iteration # 31     ecut=    60.00 Ry     beta= 0.50
     Davidson diagonalization with overlap
     ethr =  1.63E-08,  avg # of iterations =  3.0

     negative rho (up, down):  6.299E-01 0.000E+00

     total cpu time spent up to now is     3666.3 secs

     total energy              =  -14921.34073427 Ry
     Harris-Foulkes estimate   =  -14921.34074323 Ry
     estimated scf accuracy    <       0.00005479 Ry

     iteration # 32     ecut=    60.00 Ry     beta= 0.50
     Davidson diagonalization with overlap
     ethr =  2.99E-09,  avg # of iterations =  3.0

     negative rho (up, down):  6.300E-01 0.000E+00

     total cpu time spent up to now is     3775.4 secs

     total energy              =  -14921.34074067 Ry
     Harris-Foulkes estimate   =  -14921.34073903 Ry
     estimated scf accuracy    <       0.00004379 Ry

     iteration # 33     ecut=    60.00 Ry     beta= 0.50
     Davidson diagonalization with overlap
     ethr =  2.39E-09,  avg # of iterations =  1.0

     negative rho (up, down):  6.298E-01 0.000E+00

     total cpu time spent up to now is     3872.7 secs

     total energy              =  -14921.34074133 Ry
     Harris-Foulkes estimate   =  -14921.34074174 Ry
     estimated scf accuracy    <       0.00002654 Ry

     iteration # 34     ecut=    60.00 Ry     beta= 0.50
     Davidson diagonalization with overlap
     ethr =  1.45E-09,  avg # of iterations =  1.0

     negative rho (up, down):  6.297E-01 0.000E+00

     total cpu time spent up to now is     3971.4 secs

     total energy              =  -14921.34074293 Ry
     Harris-Foulkes estimate   =  -14921.34074187 Ry
     estimated scf accuracy    <       0.00001171 Ry

     iteration # 35     ecut=    60.00 Ry     beta= 0.50
     Davidson diagonalization with overlap
     ethr =  6.40E-10,  avg # of iterations =  2.0

     negative rho (up, down):  6.300E-01 0.000E+00

     total cpu time spent up to now is     4075.3 secs

     total energy              =  -14921.34074373 Ry
     Harris-Foulkes estimate   =  -14921.34074349 Ry
     estimated scf accuracy    <       0.00000776 Ry

     iteration # 36     ecut=    60.00 Ry     beta= 0.50
     Davidson diagonalization with overlap
     ethr =  4.24E-10,  avg # of iterations =  2.0

     negative rho (up, down):  6.303E-01 0.000E+00

     total cpu time spent up to now is     4179.3 secs

     total energy              =  -14921.34074312 Ry
     Harris-Foulkes estimate   =  -14921.34074394 Ry
     estimated scf accuracy    <       0.00000349 Ry

     iteration # 37     ecut=    60.00 Ry     beta= 0.50
     Davidson diagonalization with overlap
     ethr =  1.91E-10,  avg # of iterations =  2.0

     negative rho (up, down):  6.307E-01 0.000E+00

     total cpu time spent up to now is     4284.0 secs

     total energy              =  -14921.34074217 Ry
     Harris-Foulkes estimate   =  -14921.34074330 Ry
     estimated scf accuracy    <       0.00000427 Ry

     iteration # 38     ecut=    60.00 Ry     beta= 0.50
     Davidson diagonalization with overlap
     ethr =  1.91E-10,  avg # of iterations =  2.0

     negative rho (up, down):  6.307E-01 0.000E+00

     total cpu time spent up to now is     4387.6 secs

     total energy              =  -14921.34074228 Ry
     Harris-Foulkes estimate   =  -14921.34074230 Ry
     estimated scf accuracy    <       0.00000215 Ry

     iteration # 39     ecut=    60.00 Ry     beta= 0.50
     Davidson diagonalization with overlap
     ethr =  1.18E-10,  avg # of iterations =  1.0

     negative rho (up, down):  6.307E-01 0.000E+00

     total cpu time spent up to now is     4487.8 secs

     total energy              =  -14921.34074231 Ry
     Harris-Foulkes estimate   =  -14921.34074230 Ry
     estimated scf accuracy    <       0.00000184 Ry

     iteration # 40     ecut=    60.00 Ry     beta= 0.50
     Davidson diagonalization with overlap
     ethr =  1.00E-10,  avg # of iterations =  1.0

     negative rho (up, down):  6.307E-01 0.000E+00

     total cpu time spent up to now is     4588.0 secs

     total energy              =  -14921.34074243 Ry
     Harris-Foulkes estimate   =  -14921.34074233 Ry
     estimated scf accuracy    <       0.00000150 Ry

     iteration # 41     ecut=    60.00 Ry     beta= 0.50
     Davidson diagonalization with overlap
     ethr =  8.21E-11,  avg # of iterations =  2.0

     negative rho (up, down):  6.306E-01 0.000E+00

     total cpu time spent up to now is     4691.3 secs

     total energy              =  -14921.34074250 Ry
     Harris-Foulkes estimate   =  -14921.34074245 Ry
     estimated scf accuracy    <       0.00000102 Ry

     iteration # 42     ecut=    60.00 Ry     beta= 0.50
     Davidson diagonalization with overlap
     ethr =  5.56E-11,  avg # of iterations =  2.0

     negative rho (up, down):  6.307E-01 0.000E+00

     total cpu time spent up to now is     4795.5 secs

     total energy              =  -14921.34074248 Ry
     Harris-Foulkes estimate   =  -14921.34074252 Ry
     estimated scf accuracy    <       0.00000086 Ry

     iteration # 43     ecut=    60.00 Ry     beta= 0.50
     Davidson diagonalization with overlap
     ethr =  4.70E-11,  avg # of iterations =  1.0

     negative rho (up, down):  6.307E-01 0.000E+00

     total cpu time spent up to now is     4894.2 secs

     total energy              =  -14921.34074237 Ry
     Harris-Foulkes estimate   =  -14921.34074248 Ry
     estimated scf accuracy    <       0.00000048 Ry

     iteration # 44     ecut=    60.00 Ry     beta= 0.50
     Davidson diagonalization with overlap
     ethr =  2.62E-11,  avg # of iterations =  1.0

     negative rho (up, down):  6.309E-01 0.000E+00

     total cpu time spent up to now is     4992.6 secs

     total energy              =  -14921.34074211 Ry
     Harris-Foulkes estimate   =  -14921.34074238 Ry
     estimated scf accuracy    <       0.00000023 Ry

     iteration # 45     ecut=    60.00 Ry     beta= 0.50
     Davidson diagonalization with overlap
     ethr =  1.27E-11,  avg # of iterations =  2.8

     negative rho (up, down):  6.308E-01 0.000E+00

     total cpu time spent up to now is     5102.4 secs

     total energy              =  -14921.34074224 Ry
     Harris-Foulkes estimate   =  -14921.34074213 Ry
     estimated scf accuracy    <       0.00000018 Ry

     iteration # 46     ecut=    60.00 Ry     beta= 0.50
     Davidson diagonalization with overlap
     ethr =  1.00E-11,  avg # of iterations =  2.0

     negative rho (up, down):  6.308E-01 0.000E+00

     total cpu time spent up to now is     5205.1 secs

     total energy              =  -14921.34074216 Ry
     Harris-Foulkes estimate   =  -14921.34074224 Ry
     estimated scf accuracy    <       0.00000006 Ry

     iteration # 47     ecut=    60.00 Ry     beta= 0.50
     Davidson diagonalization with overlap
     ethr =  3.06E-12,  avg # of iterations =  1.8

     negative rho (up, down):  6.308E-01 0.000E+00

     total cpu time spent up to now is     5307.9 secs

     total energy              =  -14921.34074216 Ry
     Harris-Foulkes estimate   =  -14921.34074216 Ry
     estimated scf accuracy    <       0.00000002 Ry

     iteration # 48     ecut=    60.00 Ry     beta= 0.50
     Davidson diagonalization with overlap
     ethr =  9.62E-13,  avg # of iterations =  2.0

     negative rho (up, down):  6.309E-01 0.000E+00

     total cpu time spent up to now is     5406.5 secs

     End of self-consistent calculation

          k = 0.0000 0.0000 0.0000 (314657 PWs)   bands (ev):

   -41.6873 -41.6802 -41.6796 -41.6690 -41.6685 -41.6397 -41.6381 -39.3151
   -38.8845 -38.8570 -38.8541 -38.8490 -38.8481 -38.8362 -38.8309 -36.4215
   -23.7748 -23.6809 -23.6684 -23.6395 -23.6123 -23.5339 -23.5039 -23.4837
   -23.4231 -23.4083 -23.4043 -23.3887 -23.3877 -23.3822 -23.3707 -23.3575
   -23.2848 -23.2718 -23.2558 -23.2420 -23.2109 -23.1268 -23.0926 -23.0764
   -23.0069 -23.0009 -22.9951 -22.9862 -22.9807 -22.9780 -22.9609 -22.8736
   -21.8527 -21.8266 -21.8240 -21.8232 -21.8056 -21.7833 -21.7584 -21.7516
   -21.7462 -21.7353 -21.6968 -21.6914 -21.6728 -21.6521 -21.6466 -21.6374
   -21.6306 -21.6045 -21.6013 -21.5379 -21.5348 -20.3914 -20.3638 -20.3481
   -19.4667 -19.4284 -19.3833 -19.3802 -19.3507 -19.1963 -19.1834 -19.1821
   -19.1757 -19.1685 -19.1670 -19.1647 -19.1562 -19.1553 -19.1467 -19.1377
   -18.9829 -18.9785 -18.9572 -18.8592 -18.8512 -17.6807 -17.6520 -17.6442
   -16.8518 -16.5479 -16.5182 -16.5094 -16.4491 -16.3707 -16.3044 -16.2449
   -16.2137 -16.1431 -16.1351 -16.1006 -16.0573 -16.0014 -15.9495 -15.9354
   -15.7978 -15.6589 -15.5734 -15.5641 -15.5391 -15.5287 -15.5207 -15.5151
   -15.4423 -15.4075 -15.3822 -15.3767 -15.3579 -15.3247 -15.3240 -15.3171
   -15.2818 -15.2758 -15.2754 -15.2734 -15.2579 -15.2483 -15.2443 -15.2363
   -15.2004 -15.1966 -15.1533 -15.1518 -15.1505 -15.1485 -15.1428 -15.1416
   -15.1258 -15.1235 -15.0848 -15.0625 -15.0404 -15.0336 -15.0138 -15.0060
   -14.9855 -14.9767 -14.9702 -14.9606 -14.9486 -14.9315 -14.8731 -14.8692
   -14.8659 -14.8576 -14.8392 -14.8371 -14.8241 -14.7812 -14.7710 -14.7647
   -14.7177 -14.7139 -14.7028 -14.6584 -14.6391 -14.6366 -14.6261 -14.6177
   -14.6159 -14.5969 -14.5947 -14.5797 -14.5771 -14.5675 -14.5630 -14.5547
   -14.5216 -14.5207 -14.5192 -14.5181 -14.4699 -14.4621 -14.4492 -14.4364
   -14.4340 -14.4299 -14.4217 -14.4199 -14.4198 -14.4188 -14.4028 -14.3990
   -14.3890 -14.3784 -14.3759 -14.3748 -14.3269 -14.2809 -14.2657 -14.2551
   -14.2108 -14.1301 -14.0916 -14.0026 -13.9745 -13.9635 -13.9630 -13.7869
    -9.6321  -9.4927  -9.3731  -9.2360  -9.2056  -9.1993  -9.1571  -9.1495
    -9.1355  -9.1293  -9.1171  -9.1079  -9.0671  -9.0442  -9.0352  -8.9828
    -8.9790  -8.9668  -8.9622  -8.9553  -8.9271  -8.8711  -8.8360  -8.8046
    -8.8020  -8.7739  -8.7479  -8.7360  -8.7354  -8.7303  -8.7265  -8.7074
    -8.7051  -8.7011  -8.7007  -8.6972  -8.6881  -8.6755  -8.6709  -8.6414
    -8.6345  -8.6197  -8.6195  -8.6085  -8.6076  -8.6018  -8.6009  -8.5984
    -8.5863  -8.5765  -8.5319  -8.5213  -8.5114  -8.5064  -8.4911  -8.4775
    -8.4563  -8.4177  -8.4115  -8.3957  -8.3780  -8.3771  -8.3559  -8.3504
    -8.3433  -8.3418  -8.3231  -8.2861  -8.2709  -8.2571  -8.2447  -8.2419
    -8.2366  -8.2346  -8.2335  -8.2230  -8.2160  -8.2042  -8.2041  -8.1985
    -8.1587  -8.1523  -8.1386  -8.1334  -8.1089  -8.0907  -8.0769  -8.0015
    -8.0000  -7.9975  -7.9786  -7.9757  -7.9734  -7.9420  -7.8494  -7.8393
    -5.4626  -4.9624  -4.4331  -4.4328  -4.4304  -4.4142  -4.3890  -4.3603
    -4.2273  -3.9809  -3.9364  -3.8262  -3.8189  -3.8182  -3.8123  -3.8022
    -3.7526  -3.7365  -3.7178  -3.6910  -3.6291  -3.6267  -3.5977  -3.5964
    -3.5555  -3.5548  -3.5271  -3.5020  -3.4820  -3.4647  -3.4532  -3.4471
    -3.4401  -3.4354  -3.4318  -3.4153  -3.2802  -3.2673  -3.2051  -3.1493
    -3.0893  -3.0769  -3.0647  -3.0479  -3.0447  -3.0394  -3.0374  -2.9757
    -2.9757  -2.9628  -2.9623  -2.9572  -2.9491  -2.9427  -2.9366  -2.8907
    -2.8854  -2.8801  -2.8659  -2.8617  -2.8538  -2.8500  -2.8487  -2.8388
    -2.8320  -2.8120  -2.7997  -2.7954  -2.7932  -2.7883  -2.7799  -2.7782
    -2.7708  -2.7653  -2.7627  -2.7613  -2.7563  -2.7520  -2.7496  -2.7418
    -2.7295  -2.7127  -2.6994  -2.6904  -2.6646  -2.6589  -2.6518  -2.6508
    -2.6502  -2.6362  -2.6157  -2.6133  -2.6098  -2.5998  -2.5775  -2.5740
    -2.5724  -2.5668  -2.5661  -2.5631  -2.5623  -2.5600  -2.5573  -2.5536
    -2.5468  -2.5339  -2.4833  -2.4706  -2.4582  -2.4462  -2.4445  -2.4440
    -2.4179  -2.4128  -2.3548  -2.3061  -2.2999  -2.2926  -2.2850  -2.2811
    -2.2741  -2.2667  -2.2646  -2.2598  -2.2546  -2.2297  -2.2183  -2.2047
    -2.2025  -2.1867  -2.1629  -2.1584  -2.1564  -2.1394  -2.1304  -2.1172
    -2.1026  -2.0927  -2.0912  -2.0811  -2.0656  -2.0598  -2.0294  -2.0094
    -1.9898  -1.9741  -1.9735  -1.9429  -1.9322  -1.9197  -1.9027  -1.8936
    -1.8669  -1.8411  -1.8274  -1.8141  -1.8027  -1.8002  -1.7838  -1.7815
    -1.7298  -1.7257  -1.6867  -1.6470  -1.6436  -1.6361  -1.6347  -1.6318
    -1.6292  -1.6267  -1.6236  -1.6235  -1.6192  -1.6072  -1.6059  -1.5854
    -1.5787  -1.5754  -1.5657  -1.5594  -1.5550  -1.5533  -1.5366  -1.5207
    -1.5128  -1.5070  -1.5061  -1.4983  -1.4797  -1.4796  -1.4673  -1.4646
    -1.4632  -1.4470  -1.4368  -1.4145  -1.3982  -1.3933  -1.3889  -1.3834
    -1.3818  -1.3781  -1.3727  -1.3633  -1.3494  -1.3478  -1.3401  -1.3375
    -1.3320  -1.3274  -1.3006  -1.2987  -1.2740  -1.2670  -1.2666  -1.2637
    -1.2545  -1.2501  -1.2485  -1.2309  -1.2298  -1.2010  -1.2009  -1.1957
    -1.1931  -1.1756  -1.1569  -1.1400  -1.1255  -1.1244  -1.1234  -1.1096
    -1.0972  -1.0960  -1.0723  -1.0699  -1.0635  -1.0622  -1.0378  -1.0237
    -1.0213  -1.0204  -1.0179  -1.0163  -1.0107  -0.9783  -0.9779  -0.9743
    -0.9739  -0.9612  -0.9449  -0.9371  -0.9207  -0.9142  -0.9126  -0.9099
    -0.9058  -0.8955  -0.8915  -0.8892  -0.8747  -0.8744  -0.8717  -0.8564
    -0.8436  -0.8402  -0.8300  -0.8263  -0.8178  -0.8001  -0.7898  -0.7866
    -0.7761  -0.7731  -0.7686  -0.7469  -0.7422  -0.7408  -0.7336  -0.7161
    -0.7096  -0.6821  -0.6539  -0.6428  -0.6415  -0.6286  -0.6270  -0.6030
    -0.5976  -0.5965  -0.5833  -0.5507  -0.5501  -0.5496  -0.5482  -0.5366
    -0.5356  -0.5315  -0.5232  -0.5190  -0.5084  -0.4459  -0.4253  -0.4246
    -0.4157  -0.3837  -0.3754  -0.3749  -0.3712  -0.3672  -0.3586  -0.3543
    -0.3464  -0.3463  -0.3273  -0.3143  -0.3007  -0.2717  -0.2677  -0.2609
    -0.2602  -0.2589  -0.2510  -0.2508  -0.2301  -0.2236  -0.2214  -0.2210
    -0.2205  -0.2194  -0.2136  -0.2024  -0.2001  -0.1996  -0.1903  -0.1855
    -0.1670  -0.1512  -0.1459  -0.1374  -0.1180  -0.1139  -0.1078  -0.1056
    -0.1021  -0.0973  -0.0938  -0.0859  -0.0777  -0.0755  -0.0716  -0.0696
    -0.0677  -0.0676  -0.0674  -0.0608  -0.0566  -0.0353  -0.0171  -0.0166
    -0.0093  -0.0085  -0.0079   0.0056   0.0107   0.0174   0.0273   0.0295
     0.0313   0.0321   0.0522   0.0660   0.0742   0.0845   0.0877   0.0972
     0.1083   0.1143   0.1151   0.1483   0.1484   0.1766   0.1901   0.2059
     0.2139   0.2206   0.2266   0.2270   0.2359   0.2674   0.2731   0.2898
     0.3090   0.3298   0.3307   0.3413   0.3469   0.3730   0.3758   0.4132
     0.4155   0.4227   0.4265   0.4283   0.4376   0.4405   0.4646   0.4648
     0.4901   0.5048   0.5076   0.5082   0.5090   0.5115   0.5120   0.5281
     0.5392   0.5462   0.5470   0.5597   0.5657   0.5659   0.5679   0.5698
     0.5723   0.5797   0.5830   0.5938   0.6002   0.6005   0.6066   0.6168
     0.6178   0.6187   0.6195   0.6201   0.6432   0.6495   0.6663   0.6796
     0.6900   0.6960   0.7040   0.7042   0.7107   0.7109   0.7188   0.7232
     0.7304   0.7341   0.7396   0.7408   0.7427   0.7428   0.7430   0.7475
     0.7488   0.7536   0.7590   0.7624   0.7845   0.7862   0.7932   0.7937
     0.8110   0.8117   0.8320   0.8338   0.8397   0.8434   0.8508   0.8694
     0.8697   0.8709   0.8936   0.9015   0.9033   0.9140   0.9589   0.9628
     0.9689   0.9757   0.9849   0.9863   1.0011   1.0012   1.0041   1.0156
     1.0270   1.0297   1.0462   1.0521   1.0591   1.0634   1.0695   1.0701
     1.0743   1.0799   1.0841   1.1065   1.1156   1.1372   1.1375   1.1393
     1.1396   1.1427   1.1554   1.1601   1.1682   1.1697   1.1735   1.1822
     1.1826   1.1834   1.1861   1.1865   1.2127   1.2535   1.2573   1.2595
     1.2606   1.2650   1.2681   1.2695   1.2748   1.2862   1.2917   1.3040
     1.3051   1.3070   1.3238   1.3259   1.3266   1.3283   1.3376   1.3474
     1.3548   1.3551   1.3561   1.3562   1.3628   1.3838   1.3924   1.3936
     1.3940   1.3946   1.4172   1.4215   1.4233   1.4242   1.4312   1.4586
     1.4739   1.4801   1.4829   1.5104   1.5155   1.5380   1.5412   1.5464
     1.5600   1.5632   1.5718   1.5765   1.5862   1.6062   1.6291   1.6443
     1.6595   1.6850   1.7126   1.7275   1.7400   1.7418   1.7496   1.7503
     1.7653   1.7661   1.7890   1.8140   1.8212   1.8224   1.8275   1.8342
     1.8470   1.8555   1.8664   1.8710   1.8742   1.8763   1.9058   1.9387
     1.9487   1.9503   1.9545   1.9752   1.9811   2.0172   2.0409   2.1078
     2.1182   2.1476   2.1493   2.1812   2.1975   2.2021   2.2404   2.2534
     2.2627   2.2653   2.3121   2.3766   2.3947   2.4386   2.4407   2.4527
     2.4597   2.4640   2.4667   2.5669   2.5675   2.5988   2.6096   2.6164
     2.6375   2.6376   2.6397   2.6441   2.6443   2.7620   2.7966   2.7980
     2.8072   2.8443   2.8772   2.9329   3.0581   3.0636   3.0937   3.1446
     3.1456   3.1501   3.3297   3.3737   3.5391   3.5461   3.5771   3.6292
     3.6674   3.6871   3.8876   3.9087   3.9169   4.0170   4.0898   4.0908
     4.0923   4.1931   4.1998   4.2331   4.3624   4.3738   4.4305   4.4493
     4.4592   4.4773   4.5042   4.5638   4.5970   4.6632   4.6801   4.6949
     4.9533   4.9739   5.0643   5.2444   5.2822   5.2890   5.5226   5.7294
     5.7674   5.7993   5.8145   5.9108   5.9128   5.9133   5.9218   5.9224
     5.9230   5.9272   6.0012   6.0282   6.0321   6.0529   6.0699   6.0756
     6.0788   6.0796   6.1231   6.1240   6.1266   6.1312   6.1640   6.1719
     6.2267   6.2362   6.2992   6.3667   6.3680   6.4343   6.4602   6.4702
     6.4832   6.5024   6.5646   6.5936   6.6036   6.6488   6.7454   6.7549
     6.8433   6.8630   6.8636   6.8831   6.8981   6.9390   6.9651   7.0020
     7.1550   7.1650   7.1792   7.2480   7.3463   7.3500   7.3504   7.3532
     7.4188   7.4636   7.4953   7.5053   7.5148   7.5173   7.5273   7.5622
     7.5697   7.5710   7.5753   7.5994   7.6152   7.6781   7.6832   7.7878
     7.7885   7.7896   7.8036   7.8067   7.8167   7.8307   7.8311   7.8823
     7.8951   7.8979   7.9180   7.9269   7.9557   7.9691   7.9877   8.0406
     8.0444   8.0540   8.0560   8.0646   8.0685   8.0905   8.0937   8.1027
     8.1031   8.1550   8.1557   8.1886   8.1921   8.2066   8.2597   8.2672
     8.2753   8.3300

          k = 0.2326 0.2390 0.0000 (314683 PWs)   bands (ev):

   -41.6872 -41.6805 -41.6794 -41.6692 -41.6683 -41.6393 -41.6385 -39.3151
   -38.8844 -38.8564 -38.8549 -38.8491 -38.8484 -38.8346 -38.8320 -36.4215
   -23.7669 -23.6989 -23.6675 -23.6287 -23.6161 -23.5156 -23.5012 -23.4825
   -23.4674 -23.4127 -23.4088 -23.3837 -23.3836 -23.3749 -23.3459 -23.3394
   -23.2990 -23.2984 -23.2514 -23.2301 -23.2145 -23.1080 -23.0925 -23.0720
   -23.0581 -23.0023 -22.9975 -22.9884 -22.9745 -22.9654 -22.9291 -22.8880
   -21.8400 -21.8259 -21.8213 -21.8206 -21.8027 -21.7947 -21.7663 -21.7621
   -21.7478 -21.7322 -21.7146 -21.6961 -21.6743 -21.6586 -21.6527 -21.6069
   -21.6024 -21.5969 -21.5910 -21.5539 -21.5520 -20.3914 -20.3638 -20.3481
   -19.4321 -19.3969 -19.3808 -19.3560 -19.3490 -19.3287 -19.2958 -19.2646
   -19.1841 -19.1766 -19.1598 -19.1576 -19.1439 -19.0666 -19.0327 -19.0153
   -18.9811 -18.9778 -18.9695 -18.9049 -18.8986 -17.6809 -17.6538 -17.6456
   -16.8105 -16.6817 -16.4939 -16.4822 -16.4132 -16.3804 -16.3097 -16.1786
   -16.1664 -16.1132 -16.1102 -16.0870 -16.0720 -16.0268 -15.9755 -15.9256
   -15.8444 -15.8048 -15.6096 -15.5440 -15.5308 -15.5262 -15.5134 -15.4552
   -15.4284 -15.4067 -15.3782 -15.3586 -15.3579 -15.3507 -15.3392 -15.3229
   -15.3109 -15.2979 -15.2754 -15.2679 -15.2437 -15.2393 -15.2205 -15.2172
   -15.2128 -15.1652 -15.1532 -15.1481 -15.1215 -15.1210 -15.1107 -15.1104
   -15.1070 -15.0900 -15.0831 -15.0821 -15.0808 -15.0425 -15.0153 -14.9905
   -14.9781 -14.9716 -14.9605 -14.9556 -14.9279 -14.9174 -14.9065 -14.8865
   -14.8743 -14.8527 -14.8518 -14.8360 -14.8152 -14.8145 -14.8108 -14.7725
   -14.7685 -14.7449 -14.7337 -14.6873 -14.6574 -14.6312 -14.6257 -14.6075
   -14.5896 -14.5857 -14.5846 -14.5683 -14.5681 -14.5602 -14.5447 -14.5282
   -14.5217 -14.5039 -14.4998 -14.4815 -14.4744 -14.4731 -14.4634 -14.4599
   -14.4558 -14.4540 -14.4430 -14.4383 -14.4273 -14.4216 -14.4163 -14.4035
   -14.3802 -14.3703 -14.3654 -14.3563 -14.3327 -14.3170 -14.2841 -14.2508
   -14.1384 -14.0956 -14.0859 -14.0542 -14.0172 -14.0003 -13.8833 -13.8124
    -9.5287  -9.3855  -9.3365  -9.2547  -9.1979  -9.1893  -9.1558  -9.1394
    -9.1251  -9.0860  -9.0685  -9.0516  -9.0295  -9.0020  -8.9908  -8.9373
    -8.9298  -8.9155  -8.8913  -8.8777  -8.8737  -8.8304  -8.8217  -8.8086
    -8.7953  -8.7866  -8.7744  -8.7715  -8.7483  -8.7284  -8.7254  -8.7218
    -8.7201  -8.7157  -8.7056  -8.6944  -8.6900  -8.6793  -8.6739  -8.6597
    -8.6483  -8.6416  -8.6391  -8.6315  -8.6212  -8.6056  -8.5716  -8.5696
    -8.5606  -8.5350  -8.5087  -8.4988  -8.4961  -8.4888  -8.4825  -8.4657
    -8.4599  -8.4447  -8.4330  -8.4244  -8.4197  -8.3940  -8.3744  -8.3713
    -8.3510  -8.3464  -8.3433  -8.3340  -8.3134  -8.3097  -8.3010  -8.2921
    -8.2810  -8.2752  -8.2596  -8.2390  -8.2354  -8.2304  -8.2190  -8.2080
    -8.1870  -8.1827  -8.1818  -8.1512  -8.1466  -8.1123  -8.0826  -8.0627
    -8.0407  -8.0398  -7.9919  -7.9825  -7.9558  -7.9259  -7.9101  -7.9022
    -5.3098  -4.9025  -4.8017  -4.4248  -4.4116  -4.3676  -4.3254  -4.2687
    -4.2489  -4.0028  -3.9388  -3.8894  -3.8768  -3.8484  -3.7503  -3.7354
    -3.7259  -3.7162  -3.7140  -3.6492  -3.5965  -3.5900  -3.5849  -3.5284
    -3.5229  -3.5187  -3.5094  -3.4843  -3.4835  -3.4735  -3.4597  -3.4525
    -3.4517  -3.4396  -3.4092  -3.3661  -3.3560  -3.2702  -3.2505  -3.2198
    -3.2034  -3.1973  -3.1771  -3.1743  -3.1601  -3.1516  -3.1307  -3.1029
    -3.0764  -3.0580  -3.0432  -3.0292  -3.0129  -2.9732  -2.9376  -2.9308
    -2.9194  -2.9128  -2.9009  -2.8980  -2.8705  -2.8682  -2.8554  -2.8152
    -2.8092  -2.8055  -2.7959  -2.7856  -2.7802  -2.7790  -2.7704  -2.7669
    -2.7546  -2.7533  -2.7475  -2.7432  -2.7368  -2.7314  -2.7223  -2.7154
    -2.7103  -2.7096  -2.6858  -2.6735  -2.6697  -2.6622  -2.6546  -2.6525
    -2.6510  -2.6476  -2.6432  -2.6406  -2.6401  -2.6273  -2.6167  -2.6013
    -2.5968  -2.5709  -2.5673  -2.5571  -2.5542  -2.5533  -2.5368  -2.5006
    -2.4819  -2.4772  -2.4713  -2.4611  -2.4384  -2.4103  -2.3950  -2.3896
    -2.3537  -2.3392  -2.3282  -2.3231  -2.2753  -2.2622  -2.2330  -2.2132
    -2.2051  -2.1941  -2.1777  -2.1640  -2.1525  -2.1358  -2.1221  -2.1212
    -2.1133  -2.0853  -2.0805  -2.0803  -2.0689  -2.0543  -2.0328  -2.0238
    -2.0192  -2.0151  -2.0111  -2.0085  -2.0075  -1.9863  -1.9847  -1.9792
    -1.9616  -1.9467  -1.9391  -1.9348  -1.9232  -1.8774  -1.8719  -1.8653
    -1.8513  -1.8428  -1.8379  -1.7917  -1.7882  -1.7837  -1.7670  -1.7541
    -1.7184  -1.7174  -1.6984  -1.6607  -1.6535  -1.6253  -1.6183  -1.5997
    -1.5972  -1.5945  -1.5910  -1.5814  -1.5730  -1.5722  -1.5684  -1.5626
    -1.5622  -1.5548  -1.5477  -1.5417  -1.5397  -1.5323  -1.5251  -1.5103
    -1.5058  -1.5034  -1.4972  -1.4892  -1.4838  -1.4806  -1.4758  -1.4694
    -1.4681  -1.4634  -1.4585  -1.4550  -1.4547  -1.4480  -1.4431  -1.4341
    -1.4227  -1.4143  -1.4055  -1.3973  -1.3911  -1.3846  -1.3675  -1.3536
    -1.3509  -1.3378  -1.3342  -1.3256  -1.3026  -1.2892  -1.2814  -1.2788
    -1.2764  -1.2695  -1.2632  -1.2507  -1.2422  -1.2289  -1.2184  -1.2155
    -1.2126  -1.2075  -1.1985  -1.1931  -1.1862  -1.1722  -1.1659  -1.1598
    -1.1522  -1.1506  -1.1331  -1.1258  -1.1213  -1.1192  -1.1051  -1.0986
    -1.0778  -1.0775  -1.0662  -1.0613  -1.0446  -1.0428  -1.0265  -1.0171
    -1.0069  -0.9873  -0.9846  -0.9720  -0.9703  -0.9558  -0.9190  -0.9025
    -0.8852  -0.8849  -0.8771  -0.8695  -0.8591  -0.8290  -0.8211  -0.8030
    -0.7917  -0.7901  -0.7771  -0.7543  -0.7403  -0.7350  -0.7319  -0.7298
    -0.7256  -0.7197  -0.7085  -0.6986  -0.6942  -0.6847  -0.6766  -0.6603
    -0.6588  -0.6448  -0.6404  -0.6372  -0.6217  -0.6194  -0.6119  -0.6008
    -0.5752  -0.5674  -0.5438  -0.5275  -0.5170  -0.5126  -0.5022  -0.4997
    -0.4595  -0.4587  -0.4538  -0.4481  -0.4290  -0.4288  -0.4182  -0.4045
    -0.3947  -0.3943  -0.3881  -0.3811  -0.3771  -0.3724  -0.3680  -0.3652
    -0.3561  -0.3549  -0.3466  -0.3293  -0.3270  -0.3218  -0.3115  -0.3078
    -0.3005  -0.2947  -0.2839  -0.2805  -0.2785  -0.2508  -0.2492  -0.2478
    -0.2435  -0.2399  -0.2271  -0.2242  -0.2128  -0.2076  -0.2075  -0.2008
    -0.1950  -0.1924  -0.1854  -0.1748  -0.1732  -0.1609  -0.1542  -0.1531
    -0.1480  -0.1428  -0.1344  -0.1302  -0.1139  -0.0980  -0.0943  -0.0831
    -0.0769  -0.0677  -0.0660  -0.0511  -0.0446  -0.0347  -0.0263  -0.0191
    -0.0185  -0.0040   0.0055   0.0090   0.0193   0.0209   0.0383   0.0486
     0.0610   0.0741   0.0762   0.1018   0.1033   0.1401   0.1489   0.1502
     0.1650   0.1730   0.1782   0.1826   0.1946   0.2136   0.2197   0.2279
     0.2289   0.2290   0.2433   0.2526   0.2818   0.2865   0.2911   0.2973
     0.3020   0.3112   0.3129   0.3323   0.3329   0.3404   0.3444   0.3488
     0.3608   0.3621   0.3744   0.3781   0.3914   0.3999   0.4186   0.4329
     0.4357   0.4433   0.4461   0.4585   0.4630   0.4741   0.4759   0.4808
     0.4853   0.5160   0.5245   0.5261   0.5377   0.5393   0.5470   0.5521
     0.5688   0.5716   0.5799   0.5849   0.5901   0.5931   0.5975   0.6151
     0.6196   0.6212   0.6267   0.6278   0.6435   0.6461   0.6584   0.6676
     0.6679   0.6759   0.6832   0.6866   0.6881   0.7002   0.7085   0.7139
     0.7175   0.7266   0.7292   0.7382   0.7475   0.7496   0.7546   0.7714
     0.7798   0.7826   0.7911   0.7913   0.8061   0.8300   0.8372   0.8523
     0.8674   0.8763   0.8835   0.8923   0.8946   0.8970   0.8997   0.9050
     0.9054   0.9228   0.9293   0.9358   0.9508   0.9528   0.9577   0.9609
     0.9691   0.9758   0.9805   0.9881   0.9894   0.9969   1.0084   1.0090
     1.0121   1.0164   1.0170   1.0201   1.0290   1.0318   1.0500   1.0545
     1.0630   1.0639   1.0677   1.0753   1.0794   1.0920   1.0960   1.1070
     1.1101   1.1138   1.1235   1.1248   1.1255   1.1326   1.1348   1.1423
     1.1605   1.1642   1.1822   1.1864   1.1906   1.1928   1.2097   1.2102
     1.2113   1.2138   1.2198   1.2213   1.2292   1.2403   1.2594   1.2610
     1.2660   1.2706   1.2743   1.2893   1.3033   1.3329   1.3372   1.3533
     1.3566   1.3599   1.3771   1.3795   1.3827   1.4167   1.4281   1.4384
     1.4533   1.4597   1.4677   1.4805   1.4975   1.5001   1.5168   1.5292
     1.5398   1.5444   1.5484   1.5524   1.5544   1.5602   1.5736   1.5849
     1.5948   1.5975   1.6042   1.6211   1.6311   1.6348   1.6415   1.6445
     1.6539   1.6872   1.6968   1.7043   1.7100   1.7200   1.7225   1.7299
     1.7344   1.7462   1.7619   1.7701   1.7703   1.7895   1.7995   1.8127
     1.8406   1.8805   1.8889   1.8944   1.9297   1.9424   1.9470   1.9553
     1.9579   1.9681   2.0097   2.0311   2.0382   2.0468   2.0727   2.1129
     2.1271   2.1782   2.1786   2.1995   2.2075   2.2253   2.2349   2.2395
     2.2533   2.3020   2.3103   2.3146   2.3303   2.3646   2.3861   2.3952
     2.4096   2.4147   2.4410   2.4788   2.4919   2.5038   2.5164   2.5213
     2.5384   2.5487   2.5558   2.5784   2.5817   2.5856   2.6214   2.6507
     2.6600   2.8028   2.8712   2.9138   2.9497   3.2418   3.2633   3.3180
     3.3680   3.3891   3.4259   3.4571   3.4699   3.5629   3.6202   3.6803
     3.7048   3.7335   3.7519   3.7993   3.8528   3.8776   3.8882   3.9640
     4.0747   4.1236   4.2411   4.2518   4.3357   4.3802   4.4156   4.4550
     4.4701   4.5414   4.5597   4.6002   4.6954   4.7552   4.8483   4.9154
     4.9394   5.0985   5.2036   5.2983   5.3033   5.3507   5.4171   5.4753
     5.5171   5.5273   5.6519   5.7427   5.8038   5.8333   5.8539   5.8664
     5.8892   5.9209   5.9451   5.9794   6.0083   6.0277   6.0669   6.0884
     6.0969   6.1002   6.1524   6.1703   6.1888   6.2214   6.2348   6.2473
     6.2844   6.3063   6.3669   6.4205   6.4446   6.4752   6.4865   6.4935
     6.5092   6.5349   6.5849   6.6173   6.6374   6.6838   6.7611   6.7819
     6.8322   6.8453   6.8610   6.9213   6.9593   6.9648   7.0031   7.0266
     7.0387   7.0638   7.0956   7.1167   7.1501   7.1793   7.1986   7.2254
     7.2670   7.2782   7.3266   7.3294   7.3805   7.4079   7.4779   7.4905
     7.5277   7.5774   7.6009   7.6634   7.6658   7.7245   7.7334   7.7514
     7.7786   7.8204   7.8366   7.8783   7.9048   7.9118   7.9196   7.9359
     7.9620   7.9772   7.9871   7.9905   8.0014   8.0151   8.0383   8.0625
     8.0809   8.0939   8.0983   8.1165   8.1326   8.1361   8.1495   8.1625
     8.1664   8.1729   8.1860   8.2013   8.2167   8.2309   8.2368   8.2632
     8.2854   8.2908

          k = 0.0000 0.4779 0.0000 (314615 PWs)   bands (ev):

   -41.6871 -41.6809 -41.6792 -41.6695 -41.6680 -41.6391 -41.6387 -39.3151
   -38.8844 -38.8566 -38.8547 -38.8501 -38.8474 -38.8337 -38.8329 -36.4215
   -23.7606 -23.7064 -23.6598 -23.6494 -23.6032 -23.4999 -23.4964 -23.4820
   -23.4665 -23.4560 -23.4198 -23.3843 -23.3700 -23.3426 -23.3363 -23.3361
   -23.3141 -23.3047 -23.2608 -23.2355 -23.2048 -23.0900 -23.0882 -23.0722
   -23.0536 -23.0505 -23.0100 -22.9891 -22.9595 -22.9295 -22.9283 -22.9032
   -21.8361 -21.8309 -21.8208 -21.8198 -21.8083 -21.7965 -21.7668 -21.7661
   -21.7360 -21.7260 -21.7098 -21.6998 -21.6728 -21.6569 -21.6396 -21.6334
   -21.6041 -21.6034 -21.5943 -21.5534 -21.5382 -20.3914 -20.3638 -20.3481
   -19.4274 -19.4223 -19.3869 -19.3565 -19.3301 -19.3275 -19.2762 -19.2393
   -19.1827 -19.1759 -19.1668 -19.1605 -19.1419 -19.0901 -19.0454 -19.0277
   -19.0037 -18.9822 -18.9697 -18.9002 -18.8597 -17.6809 -17.6539 -17.6446
   -16.7702 -16.6714 -16.6335 -16.5135 -16.3419 -16.3081 -16.2748 -16.1945
   -16.1595 -16.1295 -16.1070 -16.0668 -16.0350 -16.0318 -15.9611 -15.9429
   -15.8240 -15.8135 -15.7693 -15.6532 -15.5703 -15.4606 -15.4470 -15.4394
   -15.4235 -15.4078 -15.3949 -15.3940 -15.3795 -15.3605 -15.3126 -15.2951
   -15.2923 -15.2666 -15.2125 -15.2122 -15.2057 -15.2050 -15.2004 -15.1946
   -15.1816 -15.1788 -15.1719 -15.1559 -15.1259 -15.1202 -15.1198 -15.1102
   -15.1089 -15.0940 -15.0927 -15.0830 -15.0776 -15.0753 -15.0471 -15.0240
   -14.9682 -14.9625 -14.9608 -14.9536 -14.9283 -14.9083 -14.8927 -14.8774
   -14.8624 -14.8565 -14.8314 -14.8246 -14.8225 -14.8150 -14.8035 -14.7955
   -14.7945 -14.7856 -14.7628 -14.7024 -14.6998 -14.6861 -14.6624 -14.6266
   -14.5715 -14.5709 -14.5623 -14.5562 -14.5555 -14.5476 -14.5301 -14.5188
   -14.5164 -14.5138 -14.5134 -14.5056 -14.4749 -14.4732 -14.4713 -14.4658
   -14.4604 -14.4600 -14.4578 -14.4257 -14.4156 -14.4061 -14.4038 -14.3914
   -14.3775 -14.3447 -14.3431 -14.3428 -14.3177 -14.3122 -14.2999 -14.2975
   -14.1432 -14.1032 -14.1021 -14.0999 -14.0075 -13.9265 -13.8971 -13.8395
    -9.3826  -9.2427  -9.2283  -9.2272  -9.1996  -9.1563  -9.1541  -9.1228
    -9.0923  -9.0854  -9.0755  -9.0403  -9.0023  -8.9839  -8.9421  -8.9402
    -8.9050  -8.8700  -8.8417  -8.8307  -8.8307  -8.8054  -8.7817  -8.7737
    -8.7711  -8.7677  -8.7658  -8.7600  -8.7416  -8.7297  -8.7140  -8.7133
    -8.7055  -8.6984  -8.6927  -8.6897  -8.6872  -8.6824  -8.6758  -8.6751
    -8.6579  -8.6427  -8.6357  -8.6349  -8.6326  -8.6247  -8.6091  -8.6002
    -8.5920  -8.5832  -8.5774  -8.5716  -8.5699  -8.5256  -8.5019  -8.4774
    -8.4727  -8.4595  -8.4484  -8.4255  -8.4161  -8.4013  -8.3842  -8.3601
    -8.3445  -8.3418  -8.3170  -8.3082  -8.3057  -8.3006  -8.2943  -8.2933
    -8.2869  -8.2854  -8.2783  -8.2692  -8.2463  -8.2298  -8.2201  -8.2182
    -8.2091  -8.2072  -8.1950  -8.1915  -8.1801  -8.1772  -8.1683  -8.1624
    -8.1450  -8.0838  -8.0713  -8.0343  -7.9921  -7.9249  -7.9045  -7.8988
    -5.1541  -4.8661  -4.8056  -4.6354  -4.4981  -4.3520  -4.2940  -4.2174
    -4.1219  -4.0130  -3.9768  -3.9748  -3.9241  -3.9068  -3.8250  -3.7571
    -3.7518  -3.7004  -3.6763  -3.6647  -3.5854  -3.5590  -3.5169  -3.4875
    -3.4866  -3.4861  -3.4711  -3.4682  -3.4666  -3.4396  -3.4271  -3.4206
    -3.4086  -3.3779  -3.3770  -3.3444  -3.3335  -3.3293  -3.3153  -3.2796
    -3.2714  -3.2154  -3.1912  -3.1910  -3.1860  -3.1695  -3.1462  -3.1444
    -3.1392  -3.1331  -3.1119  -3.0530  -3.0494  -3.0361  -2.9940  -2.9870
    -2.9746  -2.9611  -2.9551  -2.9118  -2.9012  -2.8686  -2.8408  -2.8355
    -2.8235  -2.7777  -2.7662  -2.7624  -2.7483  -2.7434  -2.7414  -2.7336
    -2.7334  -2.7318  -2.7227  -2.7217  -2.7178  -2.7177  -2.7157  -2.7050
    -2.6943  -2.6860  -2.6799  -2.6728  -2.6693  -2.6643  -2.6515  -2.6507
    -2.6461  -2.6441  -2.6426  -2.6400  -2.6209  -2.6130  -2.6001  -2.5945
    -2.5805  -2.5638  -2.5575  -2.5303  -2.5112  -2.5108  -2.4816  -2.4741
    -2.4663  -2.4496  -2.4465  -2.4281  -2.4093  -2.3884  -2.3827  -2.3563
    -2.3537  -2.3276  -2.3211  -2.3006  -2.2987  -2.2805  -2.2692  -2.2556
    -2.2462  -2.2370  -2.2324  -2.2117  -2.2058  -2.1618  -2.1535  -2.1493
    -2.1457  -2.1385  -2.1368  -2.0906  -2.0878  -2.0803  -2.0731  -2.0716
    -2.0426  -2.0383  -2.0251  -2.0239  -2.0167  -2.0041  -1.9989  -1.9988
    -1.9711  -1.9639  -1.9424  -1.8910  -1.8719  -1.8360  -1.7974  -1.7946
    -1.7743  -1.7508  -1.7404  -1.7123  -1.7094  -1.7052  -1.7049  -1.6939
    -1.6697  -1.6501  -1.6473  -1.6320  -1.6168  -1.6107  -1.5929  -1.5893
    -1.5873  -1.5795  -1.5675  -1.5618  -1.5531  -1.5529  -1.5481  -1.5473
    -1.5396  -1.5294  -1.5260  -1.5184  -1.5109  -1.5098  -1.4976  -1.4915
    -1.4817  -1.4781  -1.4769  -1.4754  -1.4751  -1.4624  -1.4589  -1.4471
    -1.4299  -1.4264  -1.4162  -1.4052  -1.4047  -1.4011  -1.3981  -1.3893
    -1.3830  -1.3815  -1.3800  -1.3759  -1.3708  -1.3635  -1.3529  -1.3517
    -1.3437  -1.3432  -1.3361  -1.3214  -1.3207  -1.2912  -1.2901  -1.2889
    -1.2841  -1.2835  -1.2742  -1.2556  -1.2476  -1.2348  -1.2220  -1.2144
    -1.2068  -1.2041  -1.2020  -1.1928  -1.1918  -1.1841  -1.1819  -1.1732
    -1.1615  -1.1395  -1.1373  -1.1222  -1.1219  -1.0999  -1.0843  -1.0694
    -1.0692  -1.0636  -1.0528  -1.0470  -1.0465  -1.0446  -1.0291  -1.0061
    -1.0042  -0.9976  -0.9924  -0.9903  -0.9900  -0.9794  -0.9727  -0.9582
    -0.9553  -0.9379  -0.9267  -0.9235  -0.9011  -0.8918  -0.8903  -0.8802
    -0.8577  -0.8550  -0.8165  -0.7927  -0.7906  -0.7789  -0.7764  -0.7686
    -0.7574  -0.7546  -0.6928  -0.6543  -0.6479  -0.6440  -0.6398  -0.6321
    -0.6241  -0.6095  -0.6032  -0.5943  -0.5877  -0.5841  -0.5801  -0.5646
    -0.5559  -0.5555  -0.5506  -0.5429  -0.4996  -0.4958  -0.4890  -0.4770
    -0.4769  -0.4720  -0.4685  -0.4680  -0.4488  -0.4429  -0.4390  -0.4255
    -0.4251  -0.4188  -0.4138  -0.4101  -0.3969  -0.3914  -0.3882  -0.3836
    -0.3784  -0.3580  -0.3387  -0.3223  -0.3219  -0.3141  -0.3140  -0.3024
    -0.2925  -0.2832  -0.2782  -0.2729  -0.2701  -0.2526  -0.2437  -0.2418
    -0.2373  -0.2351  -0.2225  -0.2175  -0.2138  -0.1910  -0.1851  -0.1847
    -0.1818  -0.1786  -0.1676  -0.1604  -0.1592  -0.1546  -0.1479  -0.1427
    -0.1331  -0.1198  -0.1054  -0.1039  -0.0926  -0.0915  -0.0873  -0.0866
    -0.0832  -0.0816  -0.0666  -0.0639  -0.0490  -0.0421  -0.0375  -0.0367
    -0.0165  -0.0095   0.0056   0.0062   0.0153   0.0313   0.0379   0.0750
     0.0778   0.0804   0.1094   0.1141   0.1148   0.1233   0.1519   0.1620
     0.1626   0.1740   0.1800   0.1823   0.1928   0.2100   0.2114   0.2255
     0.2413   0.2557   0.2566   0.2924   0.2927   0.3074   0.3166   0.3184
     0.3593   0.3636   0.3707   0.3791   0.3806   0.3830   0.3859   0.3886
     0.3907   0.4003   0.4042   0.4086   0.4104   0.4195   0.4334   0.4402
     0.4424   0.4473   0.4498   0.4573   0.4715   0.4781   0.4812   0.4875
     0.4913   0.4978   0.5053   0.5059   0.5101   0.5295   0.5391   0.5444
     0.5458   0.5506   0.5540   0.5656   0.5667   0.5708   0.5719   0.5975
     0.6066   0.6089   0.6158   0.6231   0.6340   0.6453   0.6464   0.6546
     0.6655   0.6699   0.6834   0.6955   0.7001   0.7187   0.7348   0.7387
     0.7408   0.7426   0.7449   0.7717   0.7741   0.7873   0.7906   0.7963
     0.8040   0.8123   0.8255   0.8282   0.8333   0.8484   0.8492   0.8561
     0.8604   0.8643   0.8674   0.8696   0.8786   0.8826   0.8881   0.8890
     0.8985   0.9036   0.9044   0.9185   0.9218   0.9317   0.9339   0.9355
     0.9459   0.9489   0.9603   0.9732   0.9884   0.9888   0.9912   0.9976
     1.0039   1.0130   1.0153   1.0225   1.0240   1.0289   1.0292   1.0294
     1.0308   1.0351   1.0525   1.0551   1.0588   1.0632   1.0692   1.0785
     1.0820   1.0894   1.0950   1.1066   1.1142   1.1189   1.1197   1.1235
     1.1295   1.1399   1.1546   1.1683   1.1709   1.1837   1.1937   1.1996
     1.2049   1.2091   1.2109   1.2196   1.2293   1.2305   1.2432   1.2638
     1.2642   1.2664   1.2783   1.2802   1.2856   1.3003   1.3041   1.3140
     1.3285   1.3296   1.3306   1.3351   1.3397   1.3549   1.3558   1.3647
     1.3796   1.3861   1.3913   1.3983   1.4011   1.4015   1.4420   1.4680
     1.4862   1.4913   1.4936   1.5048   1.5097   1.5168   1.5226   1.5253
     1.5668   1.5717   1.5757   1.5777   1.6001   1.6061   1.6139   1.6253
     1.6537   1.6634   1.6718   1.6734   1.7281   1.7404   1.7480   1.7517
     1.7629   1.7701   1.7922   1.8010   1.8016   1.8093   1.8157   1.8236
     1.8732   1.8779   1.8784   1.8817   1.9077   1.9082   1.9374   1.9630
     1.9659   1.9699   1.9980   1.9997   2.0231   2.0680   2.0885   2.0985
     2.1326   2.1667   2.1670   2.1837   2.1982   2.2003   2.2236   2.2322
     2.3108   2.3153   2.3205   2.3238   2.4106   2.4277   2.4422   2.4540
     2.4670   2.4820   2.4859   2.4884   2.4963   2.4975   2.5111   2.5122
     2.5269   2.5286   2.5995   2.6112   2.6289   2.6679   2.7195   2.7378
     2.7553   2.9136   2.9289   2.9993   3.0937   3.1044   3.1996   3.3081
     3.3562   3.4383   3.4498   3.4569   3.4601   3.4847   3.5163   3.5514
     3.6099   3.6233   3.6414   3.6999   3.8074   3.8511   3.8756   4.0052
     4.0491   4.1434   4.1774   4.1966   4.2393   4.3136   4.4070   4.4133
     4.4786   4.5040   4.5502   4.6650   4.8166   4.9025   4.9357   5.1404
     5.1953   5.2640   5.2678   5.2748   5.2824   5.3912   5.3963   5.4819
     5.5134   5.5755   5.6199   5.6401   5.6558   5.6885   5.7057   5.7480
     5.9525   5.9948   5.9994   6.0378   6.0468   6.0509   6.0529   6.0716
     6.0763   6.1086   6.1132   6.1207   6.1955   6.2447   6.2793   6.2861
     6.2920   6.3168   6.3241   6.3825   6.3850   6.4256   6.4257   6.4338
     6.4735   6.5262   6.5788   6.6002   6.6243   6.6476   6.7894   6.7922
     6.8208   6.8311   6.8988   6.9021   6.9195   6.9586   6.9691   6.9876
     7.1015   7.1087   7.1200   7.1514   7.1690   7.1857   7.1878   7.2120
     7.2263   7.2374   7.2705   7.2753   7.2844   7.2848   7.3391   7.3766
     7.4031   7.4298   7.5009   7.5449   7.6519   7.6525   7.6859   7.6863
     7.6886   7.7479   7.7808   7.8455   7.8654   7.8910   7.9164   7.9264
     7.9630   7.9859   7.9899   7.9984   8.0086   8.0358   8.0519   8.0725
     8.0800   8.0957   8.1172   8.1679   8.1704   8.1842   8.1873   8.1916
     8.1932   8.2208   8.2348   8.2400   8.2846   8.3035   8.3146   8.3810
     8.3815   8.3891

          k =-0.4652-0.0000 0.0000 (314644 PWs)   bands (ev):

   -41.6871 -41.6809 -41.6791 -41.6694 -41.6681 -41.6392 -41.6386 -39.3151
   -38.8844 -38.8572 -38.8538 -38.8501 -38.8477 -38.8342 -38.8324 -36.4215
   -23.7616 -23.7014 -23.6741 -23.6354 -23.6053 -23.5078 -23.5025 -23.4755
   -23.4566 -23.4450 -23.4371 -23.3844 -23.3541 -23.3520 -23.3469 -23.3367
   -23.3074 -23.3048 -23.2624 -23.2290 -23.2079 -23.0975 -23.0942 -23.0655
   -23.0444 -23.0391 -23.0273 -22.9894 -22.9420 -22.9415 -22.9378 -22.8967
   -21.8506 -21.8297 -21.8209 -21.8190 -21.8001 -21.7781 -21.7733 -21.7638
   -21.7411 -21.7213 -21.7153 -21.6988 -21.6725 -21.6530 -21.6463 -21.6431
   -21.6059 -21.6011 -21.5901 -21.5541 -21.5350 -20.3914 -20.3638 -20.3481
   -19.4632 -19.3903 -19.3847 -19.3592 -19.3354 -19.2966 -19.2588 -19.2481
   -19.1935 -19.1863 -19.1661 -19.1643 -19.1573 -19.0834 -19.0580 -19.0224
   -18.9972 -18.9784 -18.9738 -18.9044 -18.8514 -17.6808 -17.6523 -17.6459
   -16.7726 -16.6699 -16.6255 -16.5246 -16.3466 -16.3019 -16.2638 -16.1831
   -16.1682 -16.1591 -16.0890 -16.0641 -16.0358 -16.0285 -15.9548 -15.9473
   -15.8406 -15.8137 -15.7707 -15.6457 -15.5272 -15.5034 -15.4811 -15.4701
   -15.4335 -15.4090 -15.3558 -15.3449 -15.3240 -15.3187 -15.3150 -15.3081
   -15.2857 -15.2815 -15.2653 -15.2378 -15.2246 -15.2123 -15.2096 -15.2011
   -15.1997 -15.1894 -15.1491 -15.1427 -15.1388 -15.1282 -15.1189 -15.1168
   -15.1139 -15.1124 -15.1111 -15.0958 -15.0632 -15.0413 -15.0268 -14.9918
   -14.9702 -14.9528 -14.9439 -14.9256 -14.9108 -14.9104 -14.8887 -14.8706
   -14.8652 -14.8588 -14.8523 -14.8490 -14.8382 -14.8159 -14.8034 -14.7948
   -14.7666 -14.7581 -14.7504 -14.7495 -14.7115 -14.7096 -14.6423 -14.6061
   -14.5984 -14.5932 -14.5720 -14.5669 -14.5654 -14.5618 -14.5456 -14.5449
   -14.4952 -14.4921 -14.4755 -14.4734 -14.4656 -14.4643 -14.4622 -14.4591
   -14.4559 -14.4525 -14.4483 -14.4471 -14.4410 -14.4157 -14.4052 -14.3887
   -14.3787 -14.3706 -14.3699 -14.3484 -14.3096 -14.2802 -14.2673 -14.2560
   -14.2231 -14.1347 -14.0840 -14.0768 -13.9920 -13.9246 -13.9070 -13.8379
    -9.4287  -9.2823  -9.2383  -9.1814  -9.1617  -9.1470  -9.1267  -9.0895
    -9.0751  -9.0408  -9.0343  -9.0142  -9.0023  -8.9967  -8.9930  -8.9429
    -8.9259  -8.9015  -8.8691  -8.8635  -8.8422  -8.8384  -8.8079  -8.8045
    -8.7852  -8.7800  -8.7556  -8.7444  -8.7338  -8.7237  -8.7213  -8.7029
    -8.6994  -8.6972  -8.6883  -8.6809  -8.6779  -8.6749  -8.6691  -8.6638
    -8.6544  -8.6343  -8.6302  -8.6219  -8.6188  -8.6175  -8.6150  -8.6118
    -8.5984  -8.5887  -8.5748  -8.5472  -8.5083  -8.4952  -8.4920  -8.4719
    -8.4674  -8.4661  -8.4618  -8.4496  -8.4318  -8.4265  -8.4072  -8.3981
    -8.3799  -8.3611  -8.3508  -8.3256  -8.3165  -8.3143  -8.3108  -8.3071
    -8.2964  -8.2915  -8.2858  -8.2829  -8.2677  -8.2403  -8.2365  -8.2069
    -8.1985  -8.1911  -8.1888  -8.1839  -8.1600  -8.1317  -8.1282  -8.1052
    -8.0936  -8.0585  -8.0473  -8.0080  -8.0053  -7.9456  -7.9392  -7.9176
    -5.1869  -4.8045  -4.7427  -4.6812  -4.6168  -4.2628  -4.2121  -4.1796
    -4.1344  -4.1155  -4.0674  -4.0450  -3.9379  -3.8374  -3.8140  -3.7901
    -3.7887  -3.7829  -3.6688  -3.6140  -3.5932  -3.5806  -3.5752  -3.5358
    -3.5194  -3.4911  -3.4868  -3.4800  -3.4601  -3.4450  -3.4424  -3.4349
    -3.4137  -3.3834  -3.3603  -3.3558  -3.3164  -3.2891  -3.2696  -3.2663
    -3.1788  -3.1761  -3.1605  -3.1575  -3.1132  -3.1111  -3.0984  -3.0555
    -3.0372  -3.0325  -3.0264  -3.0139  -2.9911  -2.9861  -2.9589  -2.9540
    -2.8823  -2.8785  -2.8759  -2.8705  -2.8602  -2.8262  -2.8254  -2.8227
[...]
     atom   65 type  4   force =    -0.00029850    0.00008085    0.00084040
     atom   66 type  4   force =    -0.00029850   -0.00008085    0.00084040
     atom   67 type  4   force =     0.00029850    0.00008085    0.00084040
     atom   68 type  4   force =     0.00029850   -0.00008085    0.00084040
     atom   69 type  4   force =     0.00000000   -0.00022820    0.00043715
     atom   70 type  4   force =     0.00000000    0.00022820    0.00043715
     atom   71 type  4   force =    -0.00009947   -0.00002769    0.00100735
     atom   72 type  4   force =    -0.00009947    0.00002769    0.00100735
     atom   73 type  4   force =     0.00009947    0.00002769    0.00100735
     atom   74 type  4   force =     0.00009947   -0.00002769    0.00100735
     atom   75 type  4   force =     0.00018391    0.00000000    0.00087768
     atom   76 type  4   force =    -0.00018391    0.00000000    0.00087768
     atom   77 type  4   force =     0.00000000   -0.00040106    0.00152643
     atom   78 type  4   force =     0.00000000    0.00040106    0.00152643
     atom   79 type  4   force =     0.00019572    0.00000000    0.00060201
     atom   80 type  4   force =    -0.00019572    0.00000000    0.00060201
     atom   81 type  3   force =     0.00008849   -0.00006486   -0.00151616
     atom   82 type  3   force =     0.00008849    0.00006486   -0.00151616
     atom   83 type  3   force =    -0.00008849   -0.00006486   -0.00151616
     atom   84 type  3   force =    -0.00008849    0.00006486   -0.00151616
     atom   85 type  3   force =     0.00003139   -0.00004486   -0.00167906
     atom   86 type  3   force =    -0.00003139   -0.00004486   -0.00167906
     atom   87 type  3   force =    -0.00003139    0.00004486   -0.00167906
     atom   88 type  3   force =     0.00003139    0.00004486   -0.00167906
     atom   89 type  1   force =     0.00000000    0.00000000   -0.00146812
     atom   90 type  1   force =     0.00000000   -0.00020089   -0.00207731
     atom   91 type  1   force =     0.00000000    0.00020089   -0.00207731
     atom   92 type  1   force =    -0.00016929    0.00000000   -0.00126053
     atom   93 type  1   force =     0.00016929    0.00000000   -0.00126053
     atom   94 type  1   force =     0.00000000    0.00000000   -0.00197186
     atom   95 type  1   force =     0.00000000    0.00000000   -0.00197186
     atom   96 type  1   force =     0.00000000    0.00000000   -0.00139743
     atom   97 type  4   force =    -0.00020656   -0.00017047    0.00291429
     atom   98 type  4   force =    -0.00020656    0.00017047    0.00291429
     atom   99 type  4   force =     0.00020656   -0.00017047    0.00291429
     atom  100 type  4   force =     0.00020656    0.00017047    0.00291429
     atom  101 type  4   force =     0.00006929   -0.00038091    0.00293009
     atom  102 type  4   force =    -0.00006929   -0.00038091    0.00293009
     atom  103 type  4   force =    -0.00006929    0.00038091    0.00293009
     atom  104 type  4   force =     0.00006929    0.00038091    0.00293009
     atom  105 type  4   force =     0.00178405    0.00000000    0.00503229
     atom  106 type  4   force =    -0.00178405    0.00000000    0.00503229
     atom  107 type  3   force =    -0.00261692   -0.00097676   -0.00962829
     atom  108 type  3   force =    -0.00261692    0.00097676   -0.00962829
     atom  109 type  3   force =     0.00261692    0.00097676   -0.00962829
     atom  110 type  3   force =     0.00261692   -0.00097676   -0.00962829
     atom  111 type  3   force =    -0.00208509   -0.00023816   -0.01002256
     atom  112 type  3   force =     0.00208509    0.00023816   -0.01002256
     atom  113 type  3   force =    -0.00208509    0.00023816   -0.01002256
     atom  114 type  3   force =     0.00208509   -0.00023816   -0.01002256
     atom  115 type  4   force =     0.00053335   -0.00083180    0.00533997
     atom  116 type  4   force =    -0.00053335   -0.00083180    0.00533997
     atom  117 type  4   force =     0.00053335    0.00083180    0.00533997
     atom  118 type  4   force =    -0.00053335    0.00083180    0.00533997
     atom  119 type  4   force =    -0.00085954    0.00000000    0.00487478
     atom  120 type  4   force =     0.00085954    0.00000000    0.00487478
     atom  121 type  4   force =    -0.00177561   -0.00044047    0.01689031
     atom  122 type  4   force =     0.00177561   -0.00044047    0.01689031
     atom  123 type  4   force =     0.00177561    0.00044047    0.01689031
     atom  124 type  4   force =    -0.00177561    0.00044047    0.01689031
     atom  125 type  4   force =     0.00080193   -0.00063836    0.01765248
     atom  126 type  4   force =     0.00080193    0.00063836    0.01765248
     atom  127 type  4   force =    -0.00080193   -0.00063836    0.01765248
     atom  128 type  4   force =    -0.00080193    0.00063836    0.01765248
     atom  129 type  1   force =     0.00000000    0.00000000   -0.02303430
     atom  130 type  1   force =     0.00000000    0.00000000   -0.02181087
     atom  131 type  1   force =     0.00000000    0.00000000   -0.02181087
     atom  132 type  1   force =    -0.00094425    0.00000000   -0.02274584
     atom  133 type  1   force =     0.00094425    0.00000000   -0.02274584
     atom  134 type  1   force =     0.00000000   -0.00036172   -0.02087085
     atom  135 type  1   force =     0.00000000    0.00036172   -0.02087085
     atom  136 type  1   force =     0.00000000    0.00000000   -0.01991975
     atom  137 type  3   force =     0.00100446    0.00072613    0.00229980
     atom  138 type  3   force =     0.00100446   -0.00072613    0.00229980
     atom  139 type  3   force =    -0.00100446   -0.00072613    0.00229980
     atom  140 type  3   force =    -0.00100446    0.00072613    0.00229980
     atom  141 type  3   force =    -0.00042152    0.00024844    0.00505166
     atom  142 type  3   force =    -0.00042152   -0.00024844    0.00505166
     atom  143 type  3   force =     0.00042152    0.00024844    0.00505166
     atom  144 type  3   force =     0.00042152   -0.00024844    0.00505166
     atom  145 type  4   force =    -0.01545568    0.00000000    0.05901892
     atom  146 type  4   force =     0.01545568    0.00000000    0.05901892
     atom  147 type  4   force =     0.00000000   -0.01510763    0.05612725
     atom  148 type  4   force =     0.00000000    0.01510763    0.05612725
     atom  149 type  4   force =     0.00069366    0.00000000    0.06708514
     atom  150 type  4   force =    -0.00069366    0.00000000    0.06708514
     atom  151 type  4   force =    -0.00117924   -0.00014615    0.06447634
     atom  152 type  4   force =     0.00117924   -0.00014615    0.06447634
     atom  153 type  4   force =     0.00117924    0.00014615    0.06447634
     atom  154 type  4   force =    -0.00117924    0.00014615    0.06447634
     atom  155 type  4   force =     0.00000000    0.00119294    0.06287645
     atom  156 type  4   force =     0.00000000   -0.00119294    0.06287645
     atom  157 type  4   force =     0.00143166   -0.00178743    0.06123657
     atom  158 type  4   force =    -0.00143166    0.00178743    0.06123657
     atom  159 type  4   force =     0.00143166    0.00178743    0.06123657
     atom  160 type  4   force =    -0.00143166   -0.00178743    0.06123657
     atom  161 type  2   force =     0.00000000    0.00000000   -0.06458360
     atom  162 type  5   force =    -0.00126602    0.00000000   -0.12917874
     atom  163 type  5   force =     0.00126602    0.00000000   -0.12917874
     atom  164 type  5   force =     0.00000000    0.00000000   -0.12316112
     atom  165 type  5   force =     0.00000000    0.00000000   -0.12098616
     atom  166 type  5   force =     0.00000000    0.00000000   -0.12098616
     atom  167 type  5   force =     0.00000000   -0.00089020   -0.13102043
     atom  168 type  5   force =     0.00000000    0.00089020   -0.13102043
     atom  169 type  4   force =    -0.00239415    0.00108901    0.03097448
     atom  170 type  4   force =    -0.00239415   -0.00108901    0.03097448
     atom  171 type  4   force =     0.00239415    0.00108901    0.03097448
     atom  172 type  4   force =     0.00239415   -0.00108901    0.03097448
     atom  173 type  4   force =     0.00000000   -0.00041321    0.03153856
     atom  174 type  4   force =     0.00000000    0.00041321    0.03153856
     atom  175 type  4   force =    -0.00135869   -0.00171652    0.02398280
     atom  176 type  4   force =    -0.00135869    0.00171652    0.02398280
     atom  177 type  4   force =     0.00135869    0.00171652    0.02398280
     atom  178 type  4   force =     0.00135869   -0.00171652    0.02398280
     atom  179 type  4   force =     0.00075910    0.00000000    0.02404870
     atom  180 type  4   force =    -0.00075910    0.00000000    0.02404870
     atom  181 type  4   force =     0.00000000   -0.00116229    0.02975929
     atom  182 type  4   force =     0.00000000    0.00116229    0.02975929
     atom  183 type  4   force =     0.00037540    0.00000000    0.02269671
     atom  184 type  4   force =    -0.00037540    0.00000000    0.02269671
     atom  185 type  3   force =     0.00051433   -0.00039237   -0.02019977
     atom  186 type  3   force =     0.00051433    0.00039237   -0.02019977
     atom  187 type  3   force =    -0.00051433   -0.00039237   -0.02019977
     atom  188 type  3   force =    -0.00051433    0.00039237   -0.02019977
     atom  189 type  3   force =     0.00047393    0.00045966   -0.02221215
     atom  190 type  3   force =    -0.00047393    0.00045966   -0.02221215
     atom  191 type  3   force =    -0.00047393   -0.00045966   -0.02221215
     atom  192 type  3   force =     0.00047393   -0.00045966   -0.02221215
     atom  193 type  1   force =     0.00000000    0.00000000   -0.02668792
     atom  194 type  1   force =     0.00000000    0.00000747   -0.03143486
     atom  195 type  1   force =     0.00000000   -0.00000747   -0.03143486
     atom  196 type  1   force =     0.00007560    0.00000000   -0.03203733
     atom  197 type  1   force =    -0.00007560    0.00000000   -0.03203733
     atom  198 type  1   force =     0.00000000    0.00000000   -0.03134641
     atom  199 type  1   force =     0.00000000    0.00000000   -0.03134641
     atom  200 type  1   force =     0.00000000    0.00000000   -0.03203285
     atom  201 type  4   force =    -0.00008128    0.00009042   -0.00598464
     atom  202 type  4   force =    -0.00008128   -0.00009042   -0.00598464
     atom  203 type  4   force =     0.00008128    0.00009042   -0.00598464
     atom  204 type  4   force =     0.00008128   -0.00009042   -0.00598464
     atom  205 type  4   force =    -0.00045267   -0.00028995   -0.00638644
     atom  206 type  4   force =     0.00045267   -0.00028995   -0.00638644
     atom  207 type  4   force =     0.00045267    0.00028995   -0.00638644
     atom  208 type  4   force =    -0.00045267    0.00028995   -0.00638644
     atom  209 type  4   force =     0.00018920    0.00000000    0.00668220
     atom  210 type  4   force =    -0.00018920    0.00000000    0.00668220
     atom  211 type  3   force =     0.00022602    0.00004141   -0.00305876
     atom  212 type  3   force =     0.00022602   -0.00004141   -0.00305876
     atom  213 type  3   force =    -0.00022602   -0.00004141   -0.00305876
     atom  214 type  3   force =    -0.00022602    0.00004141   -0.00305876
     atom  215 type  3   force =     0.00007572   -0.00022933   -0.00326884
     atom  216 type  3   force =    -0.00007572    0.00022933   -0.00326884
     atom  217 type  3   force =     0.00007572    0.00022933   -0.00326884
     atom  218 type  3   force =    -0.00007572   -0.00022933   -0.00326884
     atom  219 type  4   force =    -0.00008548    0.00112872    0.00629054
     atom  220 type  4   force =     0.00008548    0.00112872    0.00629054
     atom  221 type  4   force =    -0.00008548   -0.00112872    0.00629054
     atom  222 type  4   force =     0.00008548   -0.00112872    0.00629054
     atom  223 type  4   force =    -0.00033602    0.00000000    0.00557053
     atom  224 type  4   force =     0.00033602    0.00000000    0.00557053

     Total force =     0.459108     Total SCF correction =     0.000347


     Computing stress (Cartesian axis) and pressure


     negative rho (up, down):  6.309E-01 0.000E+00
          total   stress  (Ry/bohr**3)                   (kbar)     P=       -9.39
  -0.00005217   0.00000000   0.00000000           -7.67        0.00        0.00
   0.00000000  -0.00004940   0.00000000            0.00       -7.27        0.00
   0.00000000   0.00000000  -0.00008996            0.00        0.00      -13.23

 
     init_run     :     61.85s CPU     65.20s WALL (       1 calls)
     electrons    :   5082.32s CPU   5339.82s WALL (       1 calls)
     forces       :     35.47s CPU     38.06s WALL (       1 calls)
     stress       :    445.21s CPU    450.53s WALL (       1 calls)

     Called by init_run:
     wfcinit      :     48.69s CPU     50.30s WALL (       1 calls)
     potinit      :      1.79s CPU      1.86s WALL (       1 calls)
     hinit0       :      3.28s CPU      3.34s WALL (       1 calls)

     Called by electrons:
     c_bands      :   4241.21s CPU   4347.04s WALL (      48 calls)
     sum_band     :    587.92s CPU    672.40s WALL (      48 calls)
     v_of_rho     :     13.63s CPU     14.52s WALL (      49 calls)
     newd         :     90.23s CPU    156.74s WALL (      49 calls)
     mix_rho      :    149.79s CPU    150.96s WALL (      48 calls)

     Called by c_bands:
     init_us_2    :     17.56s CPU     18.06s WALL (     396 calls)
     cegterg      :   4136.92s CPU   4234.88s WALL (     192 calls)

     Called by sum_band:
     sum_band:bec :      4.46s CPU      4.47s WALL (     192 calls)
     addusdens    :    100.63s CPU    179.52s WALL (      48 calls)

     Called by *egterg:
     h_psi        :   1807.11s CPU   1842.72s WALL (     892 calls)
     s_psi        :    541.76s CPU    554.34s WALL (     892 calls)
     g_psi        :      2.81s CPU      2.84s WALL (     696 calls)
     cdiaghg      :    596.99s CPU    599.66s WALL (     888 calls)

     Called by h_psi:
     h_psi:calbec :    587.17s CPU    590.89s WALL (     892 calls)
     vloc_psi     :    674.21s CPU    683.14s WALL (     892 calls)
     add_vuspsi   :    541.40s CPU    554.12s WALL (     892 calls)

     General routines
     calbec       :    896.78s CPU    901.73s WALL (    1104 calls)
     fft          :     13.84s CPU     14.05s WALL (     660 calls)
     ffts         :     90.12s CPU     90.76s WALL (   36720 calls)
     fftw         :    750.25s CPU    759.82s WALL ( 1081050 calls)
     interpolate  :      1.20s CPU      1.21s WALL (      49 calls)
 
     Parallel routines
     fft_scatt_xy :    106.98s CPU    108.27s WALL ( 1118430 calls)
     fft_scatt_yz :    468.20s CPU    474.35s WALL ( 1118430 calls)
 
     PWSCF        :      1h33m CPU      1h38m WALL

 
   This run was terminated on:  23:11:52  18May2021            

=------------------------------------------------------------------------------=
   JOB DONE.
=------------------------------------------------------------------------------=
[1621393912.620368] [holy7c04312:265171:0]          mpool.c:43   UCX  WARN  object 0x35f7bc0 was not returned to mpool ucp_requests
[1621393912.627211] [holy7c04105:18142:0]          mpool.c:43   UCX  WARN  object 0x2a8a400 was not returned to mpool ucp_requests
[1621393912.632566] [holy7c04105:18140:0]          mpool.c:43   UCX  WARN  object 0x3d65f80 was not returned to mpool ucp_requests
[1621393912.632578] [holy7c04105:18140:0]          mpool.c:43   UCX  WARN  object 0x3d6f0c0 was not returned to mpool ucp_requests
[1621393912.629564] [holy7c04105:18132:0]          mpool.c:43   UCX  WARN  object 0x4ef8c80 was not returned to mpool ucp_requests
[1621393912.638445] [holy7c04309:183375:0]          mpool.c:43   UCX  WARN  object 0x4679b80 was not returned to mpool ucp_requests
[1621393912.645848] [holy7c08311:210137:0]          mpool.c:43   UCX  WARN  object 0x45ea180 was not returned to mpool ucp_requests
[1621393912.625591] [holy7c06401:111404:0]          mpool.c:43   UCX  WARN  object 0x3734d80 was not returned to mpool ucp_requests
[1621393912.648178] [holy7c04105:18134:0]          mpool.c:43   UCX  WARN  object 0x4435c80 was not returned to mpool ucp_requests
[1621393912.620295] [holy7c04312:265161:0]          mpool.c:43   UCX  WARN  object 0x3716480 was not returned to mpool ucp_requests
[1621393912.621605] [holy7c04312:265163:0]          mpool.c:43   UCX  WARN  object 0x622ff40 was not returned to mpool ucp_requests
[1621393912.623007] [holy7c04312:265169:0]          mpool.c:43   UCX  WARN  object 0x36f2ec0 was not returned to mpool ucp_requests
[1621393912.622666] [holy7c04312:265162:0]          mpool.c:43   UCX  WARN  object 0x362c2c0 was not returned to mpool ucp_requests
[1621393912.624619] [holy7c04312:265170:0]          mpool.c:43   UCX  WARN  object 0x2ece4c0 was not returned to mpool ucp_requests
[1621393912.628809] [holy7c04312:265168:0]          mpool.c:43   UCX  WARN  object 0x336aa80 was not returned to mpool ucp_requests
[1621393912.623792] [holy7c04312:265160:0]          mpool.c:43   UCX  WARN  object 0x2ef3440 was not returned to mpool ucp_requests
[1621393912.645806] [holy7c04105:18139:0]          mpool.c:43   UCX  WARN  object 0x318aa40 was not returned to mpool ucp_requests
[1621393912.645829] [holy7c04105:18139:0]          mpool.c:43   UCX  WARN  object 0x3190380 was not returned to mpool ucp_requests
[1621393912.640120] [holy7c04309:183364:0]          mpool.c:43   UCX  WARN  object 0x4287540 was not returned to mpool ucp_requests
[1621393912.644375] [holy7c04309:183365:0]          mpool.c:43   UCX  WARN  object 0x42da200 was not returned to mpool ucp_requests
[1621393912.644404] [holy7c04309:183365:0]          mpool.c:43   UCX  WARN  object 0x42da580 was not returned to mpool ucp_requests
[1621393912.649963] [holy7c04309:183373:0]          mpool.c:43   UCX  WARN  object 0x482f840 was not returned to mpool ucp_requests
[1621393912.649992] [holy7c04309:183373:0]          mpool.c:43   UCX  WARN  object 0x4836bc0 was not returned to mpool ucp_requests
[1621393912.652147] [holy7c04309:183367:0]          mpool.c:43   UCX  WARN  object 0x29b2d80 was not returned to mpool ucp_requests
[1621393912.645569] [holy7c04309:183372:0]          mpool.c:43   UCX  WARN  object 0x3715a00 was not returned to mpool ucp_requests
[1621393912.647585] [holy7c04309:183366:0]          mpool.c:43   UCX  WARN  object 0x37a2540 was not returned to mpool ucp_requests
[1621393912.651541] [holy7c04309:183374:0]          mpool.c:43   UCX  WARN  object 0x39ef440 was not returned to mpool ucp_requests
[1621393912.650936] [holy7c04105:18133:0]          mpool.c:43   UCX  WARN  object 0x3358ec0 was not returned to mpool ucp_requests
[1621393912.626895] [holy7c06401:111398:0]          mpool.c:43   UCX  WARN  object 0x2b8e600 was not returned to mpool ucp_requests
[1621393912.623555] [holy7c06401:111405:0]          mpool.c:43   UCX  WARN  object 0x5ed66c0 was not returned to mpool ucp_requests
[1621393912.633641] [holy7c06401:111396:0]          mpool.c:43   UCX  WARN  object 0x528af40 was not returned to mpool ucp_requests
[1621393912.629960] [holy7c06401:111399:0]          mpool.c:43   UCX  WARN  object 0x5a7a040 was not returned to mpool ucp_requests
[1621393912.630704] [holy7c06401:111397:0]          mpool.c:43   UCX  WARN  object 0x38d9c80 was not returned to mpool ucp_requests
[1621393912.657409] [holy7c04105:18141:0]          mpool.c:43   UCX  WARN  object 0x2ac2540 was not returned to mpool ucp_requests
[1621393912.657431] [holy7c04105:18141:0]          mpool.c:43   UCX  WARN  object 0x2ac3500 was not returned to mpool ucp_requests
[1621393912.654676] [holy7c08311:210138:0]          mpool.c:43   UCX  WARN  object 0x3131180 was not returned to mpool ucp_requests
