
     Program PWSCF v.6.5 starts on 17May2021 at 12:36:12 

     This program is part of the open-source Quantum ESPRESSO suite
     for quantum simulation of materials; please cite
         "P. Giannozzi et al., J. Phys.:Condens. Matter 21 395502 (2009);
         "P. Giannozzi et al., J. Phys.:Condens. Matter 29 465901 (2017);
          URL http://www.quantum-espresso.org", 
     in publications or presentations arising from this work. More details at
     http://www.quantum-espresso.org/quote

     Parallel version (MPI), running on    80 processors

     MPI processes distributed on     5 nodes
     R & G space division:  proc/nbgrp/npool/nimage =      80
     Reading input from YBCO_BaO_cleave_0.5_sep.pwi
Warning: card &IONS ignored
Warning: card     ION_DYNAMICS = 'BFGS' ignored
Warning: card / ignored
Warning: card &CELL ignored
Warning: card     CELL_DYNAMICS = 'BFGS' ignored
Warning: card     PRESS_CONV_THR = 5 ignored
Warning: card / ignored

     Current dimensions of program PWSCF are:
     Max number of different atomic species (ntypx) = 10
     Max number of k-points (npk) =  40000
     Max angular momentum in pseudopotentials (lmaxx) =  3
     Message from routine volume:
     axis vectors are left-handed

     Subspace diagonalization in iterative solution of the eigenvalue problem:
     one sub-group per band group will be used
     scalapack distributed-memory algorithm (size of sub-group:  8*  8 procs)

     Message from routine setup:
     using ibrav=0 with symmetry is DISCOURAGED, use correct ibrav instead
 
     Parallelization info
     --------------------
     sticks:   dense  smooth     PW     G-vecs:    dense   smooth      PW
     Min         300     100     25               142438    27410    3599
     Max         301     101     26               142473    27431    3636
     Sum       24079    8031   2067             11396989  2193539  289955
 


     bravais-lattice index     =            0
     lattice parameter (alat)  =      20.5021  a.u.
     unit-cell volume          =   34932.4146 (a.u.)^3
     number of atoms/cell      =          224
     number of atomic types    =            5
     number of electrons       =      1830.00
     number of Kohn-Sham states=         1098
     kinetic-energy cutoff     =      60.0000  Ry
     charge density cutoff     =     720.0000  Ry
     convergence threshold     =      1.0E-08
     mixing beta               =       0.5000
     number of iterations used =           10  local-TF  mixing
     Exchange-correlation= SLA PW PBE PBE
                           (   1   4   3   4   0   0   0)

     celldm(1)=  20.502120  celldm(2)=   0.000000  celldm(3)=   0.000000
     celldm(4)=   0.000000  celldm(5)=   0.000000  celldm(6)=   0.000000

     crystal axes: (cart. coord. in units of alat)
               a(1) = (  -0.716599   0.697485   0.000000 )  
               a(2) = (   0.716599   0.697485   0.000000 )  
               a(3) = (   0.000000   0.000000   4.055001 )  

     reciprocal axes: (cart. coord. in units 2 pi/alat)
               b(1) = ( -0.697740  0.716861  0.000000 )  
               b(2) = (  0.697740  0.716861  0.000000 )  
               b(3) = (  0.000000  0.000000  0.246609 )  


     PseudoPot. # 1 for Ba read from file:
     ./pseudo/Ba.pbe-nsp-van.UPF
     MD5 check sum: 2b9c31dd849566dd297d80989662b7a0
     Pseudo is Ultrasoft + core correction, Zval = 10.0
     Generated by new atomic code, or converted to UPF format
     Using radial grid of  907 points,  6 beta functions with: 
                l(1) =   0
                l(2) =   0
                l(3) =   1
                l(4) =   1
                l(5) =   2
                l(6) =   2
     Q(r) pseudized with  6 coefficients,  rinner =    1.200   1.200   1.200
                                                       1.200   1.200

     PseudoPot. # 2 for Ca read from file:
     ./pseudo/Ca.pbe-nsp-van.UPF
     MD5 check sum: 6471098428ff4fa451746d08035ff179
     Pseudo is Ultrasoft + core correction, Zval = 10.0
     Generated by new atomic code, or converted to UPF format
     Using radial grid of  845 points,  6 beta functions with: 
                l(1) =   0
                l(2) =   0
                l(3) =   1
                l(4) =   1
                l(5) =   2
                l(6) =   2
     Q(r) pseudized with  6 coefficients,  rinner =    1.200   1.200   1.200
                                                       1.200   1.200

     PseudoPot. # 3 for Cu read from file:
     ./pseudo/Cu.pbe-n-van_ak.UPF
     MD5 check sum: 34e3282627ffb533726feb647e090d62
     Pseudo is Ultrasoft + core correction, Zval = 11.0
     Generated by new atomic code, or converted to UPF format
     Using radial grid of  867 points,  6 beta functions with: 
                l(1) =   0
                l(2) =   0
                l(3) =   1
                l(4) =   1
                l(5) =   2
                l(6) =   2
     Q(r) pseudized with  8 coefficients,  rinner =    1.400   1.400   1.400
                                                       1.400   1.400

     PseudoPot. # 4 for O  read from file:
     ./pseudo/O.pbe-van_ak.UPF
     MD5 check sum: 783ce7fe4c79b6a4916957118fed0856
     Pseudo is Ultrasoft, Zval =  6.0
     Generated by new atomic code, or converted to UPF format
     Using radial grid of  737 points,  4 beta functions with: 
                l(1) =   0
                l(2) =   0
                l(3) =   1
                l(4) =   1
     Q(r) pseudized with  8 coefficients,  rinner =    0.800   0.800   0.800


     PseudoPot. # 5 for Y  read from file:
     ./pseudo/Y.pbe-nsp-van.UPF
     MD5 check sum: 4412fed3ab108fed87a1b7d6a69a4a38
     Pseudo is Ultrasoft + core correction, Zval = 11.0
     Generated by new atomic code, or converted to UPF format
     Using radial grid of  885 points,  6 beta functions with: 
                l(1) =   0
                l(2) =   0
                l(3) =   1
                l(4) =   1
                l(5) =   2
                l(6) =   2
     Q(r) pseudized with  6 coefficients,  rinner =    1.200   1.200   1.200
                                                       1.200   1.200

     atomic species   valence    mass     pseudopotential
        Ba            10.00   137.32700     Ba( 1.00)
        Ca            10.00    40.07800     Ca( 1.00)
        Cu            11.00    63.54600     Cu( 1.00)
        O              6.00    15.99900     O ( 1.00)
        Y             11.00    88.90584     Y ( 1.00)

      4 Sym. Ops. (no inversion) found ( 3 have fractional translation)



   Cartesian axes

     site n.     atom                  positions (alat units)
         1           O   tau(   1) = (   0.3545921   0.8718562  -0.0077406  )
         2           O   tau(   2) = (   0.0037072   0.8718562  -0.0077406  )
         3           Cu  tau(   3) = (  -0.0002581   0.0006065   0.0080789  )
         4           Cu  tau(   4) = (  -0.0002581   0.3481364   0.0080789  )
         5           Cu  tau(   5) = (   0.3585574   0.3481364   0.0080789  )
         6           Cu  tau(   6) = (  -0.3580421   0.6980913   0.0080789  )
         7           Cu  tau(   7) = (   0.3577988   0.6971373   0.0086255  )
         8           Cu  tau(   8) = (   0.0005005   1.0465760   0.0086255  )
         9           Cu  tau(   9) = (  -0.3588016   0.3490903   0.0086255  )
        10           Cu  tau(  10) = (   0.0005005   0.6971373   0.0086255  )
        11           O   tau(  11) = (  -0.0001733   0.5225410  -0.0089757  )
        12           O   tau(  12) = (   0.3584726   0.5225410  -0.0089757  )
        13           O   tau(  13) = (  -0.0001733   1.2211724  -0.0089757  )
        14           O   tau(  14) = (  -0.3581278   0.5236867  -0.0089757  )
        15           O   tau(  15) = (  -0.3544557   0.8718562  -0.0105593  )
        16           O   tau(  16) = (  -0.0038445   0.1743714  -0.0105593  )
        17           O   tau(  17) = (   0.3588818   0.3486599   0.1817056  )
        18           O   tau(  18) = (  -0.0005825   0.3486599   0.1817056  )
        19           O   tau(  19) = (  -0.0005825   0.0000830   0.1817056  )
        20           O   tau(  20) = (  -0.3577167   0.6975677   0.1817056  )
        21           O   tau(  21) = (   0.3584283   0.6967843   0.1825784  )
        22           O   tau(  22) = (  -0.3581712   0.3494443   0.1825784  )
        23           O   tau(  23) = (  -0.0001290   0.6967843   0.1825784  )
        24           O   tau(  24) = (  -0.0001290   1.0469291   0.1825784  )
        25           Ba  tau(  25) = (   0.1791506   0.8718562   0.1908537  )
        26           Ba  tau(  26) = (   0.5374498   0.5231143   0.1919901  )
        27           Ba  tau(  27) = (  -0.1791506   0.5231143   0.1919901  )
        28           Ba  tau(  28) = (  -0.1793773   0.8718562   0.1931958  )
        29           Ba  tau(  29) = (  -0.1789238   0.1743714   0.1931958  )
        30           Ba  tau(  30) = (   0.1791506   0.5222101   0.1929368  )
        31           Ba  tau(  31) = (  -0.5374498   0.5240176   0.1929368  )
        32           Ba  tau(  32) = (   0.1791506   0.1743714   0.1992469  )
        33           Cu  tau(  33) = (  -0.3583426   0.3488452   0.3777458  )
        34           Cu  tau(  34) = (   0.3582559   0.6973834   0.3777458  )
        35           Cu  tau(  35) = (   0.0000433   0.6973834   0.3777458  )
        36           Cu  tau(  36) = (   0.0000433   1.0463299   0.3777458  )
        37           Cu  tau(  37) = (  -0.3586541   0.6975060   0.3775126  )
        38           Cu  tau(  38) = (   0.3579444   0.3487217   0.3775126  )
        39           Cu  tau(  39) = (   0.0003549   0.0000212   0.3775126  )
        40           Cu  tau(  40) = (   0.0003549   0.3487217   0.3775126  )
        41           O   tau(  41) = (  -0.0047976   0.1743714   0.3996864  )
        42           O   tau(  42) = (  -0.3535026   0.8718562   0.3996864  )
        43           O   tau(  43) = (  -0.5374498   0.6924605   0.3956991  )
        44           O   tau(  44) = (   0.1791506   0.3537672   0.3956991  )
        45           O   tau(  45) = (   0.3586385   0.8718562   0.4046840  )
        46           O   tau(  46) = (  -0.0003392   0.8718562   0.4046840  )
        47           O   tau(  47) = (  -0.0004857   0.5230571   0.4066611  )
        48           O   tau(  48) = (   0.3587850   0.5230571   0.4066611  )
        49           O   tau(  49) = (  -0.3578135   0.5231714   0.4066611  )
        50           O   tau(  50) = (  -0.0004857   1.2206562   0.4066611  )
        51           O   tau(  51) = (   0.1791506   1.0461604   0.4028931  )
        52           O   tau(  52) = (   0.1791506   0.6975521   0.4028931  )
        53           O   tau(  53) = (  -0.1792261   0.6967170   0.4025963  )
        54           O   tau(  54) = (  -0.1790731   0.3495106   0.4025963  )
        55           O   tau(  55) = (  -0.1792261   1.0469964   0.4025963  )
        56           O   tau(  56) = (   0.5375263   0.6967170   0.4025963  )
        57           Ca  tau(  57) = (   0.1791506   0.1743714   0.5358617  )
        58           Y   tau(  58) = (  -0.1811525   0.8718562   0.5373908  )
        59           Y   tau(  59) = (  -0.1771467   0.1743714   0.5373908  )
        60           Y   tau(  60) = (   0.1791506   0.8718562   0.5379568  )
        61           Y   tau(  61) = (   0.5374498   0.5231143   0.5384490  )
        62           Y   tau(  62) = (  -0.1791506   0.5231143   0.5384490  )
        63           Y   tau(  63) = (   0.1791506   0.5216598   0.5383310  )
        64           Y   tau(  64) = (  -0.5374498   0.5245688   0.5383310  )
        65           O   tau(  65) = (  -0.1787754   0.3493171   0.6712314  )
        66           O   tau(  66) = (   0.5378231   0.6969115   0.6712314  )
        67           O   tau(  67) = (  -0.1795239   1.0468019   0.6712314  )
        68           O   tau(  68) = (  -0.1795239   0.6969115   0.6712314  )
        69           O   tau(  69) = (   0.1791506   0.6972691   0.6718637  )
        70           O   tau(  70) = (   0.1791506   1.0464433   0.6718637  )
        71           O   tau(  71) = (  -0.0003880   1.2203935   0.6667490  )
        72           O   tau(  72) = (  -0.0003880   0.5233198   0.6667490  )
        73           O   tau(  73) = (   0.3586882   0.5233198   0.6667490  )
        74           O   tau(  74) = (  -0.3579112   0.5229087   0.6667490  )
        75           O   tau(  75) = (   0.3585850   0.8718562   0.6641940  )
        76           O   tau(  76) = (  -0.0002857   0.8718562   0.6641940  )
        77           O   tau(  77) = (   0.1791506   0.3535118   0.6756778  )
        78           O   tau(  78) = (  -0.5374498   0.6927158   0.6756778  )
        79           O   tau(  79) = (  -0.0043044   0.1743714   0.6710848  )
        80           O   tau(  80) = (  -0.3539948   0.8718562   0.6710848  )
        81           Cu  tau(  81) = (  -0.3586514   0.6973604   0.6974442  )
        82           Cu  tau(  82) = (   0.3579472   0.3488682   0.6974442  )
        83           Cu  tau(  83) = (   0.0003521  -0.0001254   0.6974442  )
        84           Cu  tau(  84) = (   0.0003521   0.3488682   0.6974442  )
        85           Cu  tau(  85) = (   0.0000083   1.0459401   0.6989015  )
        86           Cu  tau(  86) = (  -0.3583076   0.3484544   0.6989015  )
        87           Cu  tau(  87) = (   0.3582910   0.6977733   0.6989015  )
        88           Cu  tau(  88) = (   0.0000083   0.6977733   0.6989015  )
        89           Ba  tau(  89) = (   0.1791506   0.1743714   0.8671591  )
        90           Ba  tau(  90) = (  -0.5374498   0.5239908   0.8827639  )
        91           Ba  tau(  91) = (   0.1791506   0.5222377   0.8827639  )
        92           Ba  tau(  92) = (  -0.1785616   0.1743714   0.8784262  )
        93           Ba  tau(  93) = (  -0.1797386   0.8718562   0.8784262  )
        94           Ba  tau(  94) = (  -0.1791506   0.5231143   0.8841483  )
        95           Ba  tau(  95) = (   0.5374498   0.5231143   0.8841483  )
        96           Ba  tau(  96) = (   0.1791506   0.8718562   0.8844635  )
        97           O   tau(  97) = (   0.3607888   0.6975991   0.9037874  )
        98           O   tau(  98) = (  -0.3558097   0.3486286   0.9037874  )
        99           O   tau(  99) = (  -0.0024896   0.6975991   0.9037874  )
       100           O   tau( 100) = (  -0.0024896   1.0461143   0.9037874  )
       101           O   tau( 101) = (   0.3544087   0.3463252   0.9043663  )
       102           O   tau( 102) = (   0.0038906   0.3463252   0.9043663  )
       103           O   tau( 103) = (   0.0038906   0.0024177   0.9043663  )
       104           O   tau( 104) = (  -0.3621908   0.6999025   0.9043663  )
       105           O   tau( 105) = (   0.3314246   0.8718562   1.0783672  )
       106           O   tau( 106) = (   0.0268747   0.8718562   1.0783672  )
       107           Cu  tau( 107) = (  -0.0027882   0.0031818   1.0782086  )
       108           Cu  tau( 108) = (  -0.0027882   0.3455601   1.0782086  )
       109           Cu  tau( 109) = (   0.3610875   0.3455601   1.0782086  )
       110           Cu  tau( 110) = (  -0.3555111   0.7006675   1.0782086  )
       111           Cu  tau( 111) = (   0.3579684   0.6983604   1.0781976  )
       112           Cu  tau( 112) = (   0.0003318   1.0453529   1.0781976  )
       113           Cu  tau( 113) = (  -0.3586320   0.3478672   1.0781976  )
       114           Cu  tau( 114) = (   0.0003318   0.6983604   1.0781976  )
       115           O   tau( 115) = (  -0.0055718   0.5218801   1.0778989  )
       116           O   tau( 116) = (   0.3638720   0.5218801   1.0778989  )
       117           O   tau( 117) = (  -0.0055718   1.2218333   1.0778989  )
       118           O   tau( 118) = (  -0.3527284   0.5243475   1.0778989  )
       119           O   tau( 119) = (  -0.3170374   0.8718562   1.0783192  )
       120           O   tau( 120) = (  -0.0412618   0.1743714   1.0783192  )
       121           O   tau( 121) = (   0.3544105   0.3465040   1.2520362  )
       122           O   tau( 122) = (   0.0038887   0.3465040   1.2520362  )
       123           O   tau( 123) = (   0.0038887   0.0022389   1.2520362  )
       124           O   tau( 124) = (  -0.3621880   0.6997236   1.2520362  )
       125           O   tau( 125) = (   0.3607981   0.6973991   1.2525976  )
       126           O   tau( 126) = (  -0.3558014   0.3488295   1.2525976  )
       127           O   tau( 127) = (  -0.0024988   0.6973991   1.2525976  )
       128           O   tau( 128) = (  -0.0024988   1.0463143   1.2525976  )
       129           Ba  tau( 129) = (   0.1791506   0.8718562   1.2719528  )
       130           Ba  tau( 130) = (   0.5374498   0.5231143   1.2722763  )
       131           Ba  tau( 131) = (  -0.1791506   0.5231143   1.2722763  )
       132           Ba  tau( 132) = (  -0.1796732   0.8718562   1.2779763  )
       133           Ba  tau( 133) = (  -0.1786270   0.1743714   1.2779763  )
       134           Ba  tau( 134) = (   0.1791506   0.5222571   1.2737041  )
       135           Ba  tau( 135) = (  -0.5374498   0.5239706   1.2737041  )
       136           Ba  tau( 136) = (   0.1791506   0.1743714   1.2892268  )
       137           Cu  tau( 137) = (  -0.3583094   0.3484682   1.5036093  )
       138           Cu  tau( 138) = (   0.3582901   0.6977604   1.5036093  )
       139           Cu  tau( 139) = (   0.0000101   0.6977604   1.5036093  )
       140           Cu  tau( 140) = (   0.0000101   1.0459530   1.5036093  )
       141           Cu  tau( 141) = (  -0.3586477   0.6973567   1.5050297  )
       142           Cu  tau( 142) = (   0.3579518   0.3488710   1.5050297  )
       143           Cu  tau( 143) = (   0.0003484  -0.0001281   1.5050297  )
       144           Cu  tau( 144) = (   0.0003484   0.3488710   1.5050297  )
       145           O   tau( 145) = (  -0.0043173   0.1743714   1.5313347  )
       146           O   tau( 146) = (  -0.3539819   0.8718562   1.5313347  )
       147           O   tau( 147) = (  -0.5374498   0.6927305   1.5268035  )
       148           O   tau( 148) = (   0.1791506   0.3534971   1.5268035  )
       149           O   tau( 149) = (   0.3585795   0.8718562   1.5382448  )
       150           O   tau( 150) = (  -0.0002802   0.8718562   1.5382448  )
       151           O   tau( 151) = (  -0.0003853   0.5233134   1.5357488  )
       152           O   tau( 152) = (   0.3586855   0.5233134   1.5357488  )
       153           O   tau( 153) = (  -0.3579140   0.5229152   1.5357488  )
       154           O   tau( 154) = (  -0.0003853   1.2204000   1.5357488  )
       155           O   tau( 155) = (   0.1791506   1.0464553   1.5306222  )
       156           O   tau( 156) = (   0.1791506   0.6972571   1.5306222  )
       157           O   tau( 157) = (  -0.1795146   0.6969069   1.5312508  )
       158           O   tau( 158) = (  -0.1787846   0.3493208   1.5312508  )
       159           O   tau( 159) = (  -0.1795146   1.0468065   1.5312508  )
       160           O   tau( 160) = (   0.5378139   0.6969069   1.5312508  )
       161           Ca  tau( 161) = (   0.1791506   0.1743714   1.6666131  )
       162           Y   tau( 162) = (  -0.1811544   0.8718562   1.6650821  )
       163           Y   tau( 163) = (  -0.1771449   0.1743714   1.6650821  )
       164           Y   tau( 164) = (   0.1791506   0.8718562   1.6645190  )
       165           Y   tau( 165) = (   0.5374498   0.5231143   1.6640498  )
       166           Y   tau( 166) = (  -0.1791506   0.5231143   1.6640498  )
       167           Y   tau( 167) = (   0.1791506   0.5216524   1.6641706  )
       168           Y   tau( 168) = (  -0.5374498   0.5245761   1.6641706  )
       169           O   tau( 169) = (  -0.1790685   0.3495088   1.7998849  )
       170           O   tau( 170) = (   0.5375300   0.6967198   1.7998849  )
       171           O   tau( 171) = (  -0.1792307   1.0469936   1.7998849  )
       172           O   tau( 172) = (  -0.1792307   0.6967198   1.7998849  )
       173           O   tau( 173) = (   0.1791506   0.6975604   1.7995882  )
       174           O   tau( 174) = (   0.1791506   1.0461521   1.7995882  )
       175           O   tau( 175) = (  -0.0004848   1.2206534   1.7958238  )
       176           O   tau( 176) = (  -0.0004848   0.5230599   1.7958238  )
       177           O   tau( 177) = (   0.3587841   0.5230599   1.7958238  )
       178           O   tau( 178) = (  -0.3578144   0.5231687   1.7958238  )
       179           O   tau( 179) = (   0.3586468   0.8718562   1.7977622  )
       180           O   tau( 180) = (  -0.0003466   0.8718562   1.7977622  )
       181           O   tau( 181) = (   0.1791506   0.3537690   1.8067850  )
       182           O   tau( 182) = (  -0.5374498   0.6924586   1.8067850  )
       183           O   tau( 183) = (  -0.0047874   0.1743714   1.8027497  )
       184           O   tau( 184) = (  -0.3535118   0.8718562   1.8027497  )
       185           Cu  tau( 185) = (  -0.3586560   0.6975087   1.8249558  )
       186           Cu  tau( 186) = (   0.3579435   0.3487198   1.8249558  )
       187           Cu  tau( 187) = (   0.0003567   0.0000230   1.8249558  )
       188           Cu  tau( 188) = (   0.0003567   0.3487198   1.8249558  )
       189           Cu  tau( 189) = (   0.0000415   1.0463263   1.8247235  )
       190           Cu  tau( 190) = (  -0.3583407   0.3488406   1.8247235  )
       191           Cu  tau( 191) = (   0.3582587   0.6973871   1.8247235  )
       192           Cu  tau( 192) = (   0.0000415   0.6973871   1.8247235  )
       193           Ba  tau( 193) = (   0.1791506   0.1743714   2.0032289  )
       194           Ba  tau( 194) = (  -0.5374498   0.5240166   2.0095381  )
       195           Ba  tau( 195) = (   0.1791506   0.5222119   2.0095381  )
       196           Ba  tau( 196) = (  -0.1789220   0.1743714   2.0092818  )
       197           Ba  tau( 197) = (  -0.1793773   0.8718562   2.0092818  )
       198           Ba  tau( 198) = (  -0.1791506   0.5231143   2.0104920  )
       199           Ba  tau( 199) = (   0.5374498   0.5231143   2.0104920  )
       200           Ba  tau( 200) = (   0.1791506   0.8718562   2.0116202  )
       201           O   tau( 201) = (   0.3584302   0.6967870   2.0198899  )
       202           O   tau( 202) = (  -0.3581684   0.3494406   2.0198899  )
       203           O   tau( 203) = (  -0.0001309   0.6967870   2.0198899  )
       204           O   tau( 204) = (  -0.0001309   1.0469263   2.0198899  )
       205           O   tau( 205) = (   0.3588800   0.3486562   2.0207628  )
       206           O   tau( 206) = (  -0.0005807   0.3486562   2.0207628  )
       207           O   tau( 207) = (  -0.0005807   0.0000866   2.0207628  )
       208           O   tau( 208) = (  -0.3577186   0.6975714   2.0207628  )
       209           O   tau( 209) = (   0.3545921   0.8718562   2.2101933  )
       210           O   tau( 210) = (   0.0037081   0.8718562   2.2101933  )
       211           Cu  tau( 211) = (  -0.0002516   0.0006074   2.1943895  )
       212           Cu  tau( 212) = (  -0.0002516   0.3481345   2.1943895  )
       213           Cu  tau( 213) = (   0.3585509   0.3481345   2.1943895  )
       214           Cu  tau( 214) = (  -0.3580476   0.6980931   2.1943895  )
       215           Cu  tau( 215) = (   0.3577960   0.6971373   2.1938429  )
       216           Cu  tau( 216) = (   0.0005033   1.0465760   2.1938429  )
       217           Cu  tau( 217) = (  -0.3588035   0.3490903   2.1938429  )
       218           Cu  tau( 218) = (   0.0005033   0.6971373   2.1938429  )
       219           O   tau( 219) = (  -0.0001724   0.5225410   2.2114321  )
       220           O   tau( 220) = (   0.3584716   0.5225410   2.2114321  )
       221           O   tau( 221) = (  -0.0001724   1.2211724   2.2114321  )
       222           O   tau( 222) = (  -0.3581288   0.5236867   2.2114321  )
       223           O   tau( 223) = (  -0.3544640   0.8718562   2.2130221  )
       224           O   tau( 224) = (  -0.0038353   0.1743714   2.2130221  )

     number of k points=     4  Gaussian smearing, width (Ry)=  0.0100
                       cart. coord. in units 2pi/alat
        k(    1) = (   0.0000000   0.0000000   0.0000000), wk =   0.2222222
        k(    2) = (   0.2325801   0.2389537   0.0000000), wk =   0.8888889
        k(    3) = (   0.0000000   0.4779073   0.0000000), wk =   0.4444444
        k(    4) = (  -0.4651601  -0.0000000   0.0000000), wk =   0.4444444

     Dense  grid: 11396989 G-vectors     FFT dimensions: ( 180, 180, 720)

     Smooth grid:  2193539 G-vectors     FFT dimensions: ( 108, 108, 432)

     Estimated max dynamical RAM per process >       2.38 GB

     Estimated total dynamical RAM >     190.42 GB

     Initial potential from superposition of free atoms

     starting charge 1828.78422, renormalised to 1830.00000

     negative rho (up, down):  6.308E-01 0.000E+00
     Starting wfcs are 1602 randomized atomic wfcs

     total cpu time spent up to now is       58.7 secs

     Self-consistent Calculation

     iteration #  1     ecut=    60.00 Ry     beta= 0.50
     Davidson diagonalization with overlap
     ethr =  1.00E-02,  avg # of iterations =  2.0

     negative rho (up, down):  5.999E-01 0.000E+00

     total cpu time spent up to now is      178.0 secs

     total energy              =  -14913.39772551 Ry
     Harris-Foulkes estimate   =  -14943.10048526 Ry
     estimated scf accuracy    <     106.44555138 Ry

     iteration #  2     ecut=    60.00 Ry     beta= 0.50
     Davidson diagonalization with overlap
     ethr =  5.82E-03,  avg # of iterations =  2.0

     negative rho (up, down):  6.001E-01 0.000E+00

     total cpu time spent up to now is      299.3 secs

     total energy              =  -14923.40519440 Ry
     Harris-Foulkes estimate   =  -14926.87328192 Ry
     estimated scf accuracy    <      21.48688708 Ry

     iteration #  3     ecut=    60.00 Ry     beta= 0.50
     Davidson diagonalization with overlap
     ethr =  1.17E-03,  avg # of iterations =  2.0

     negative rho (up, down):  6.036E-01 0.000E+00

     total cpu time spent up to now is      417.5 secs

     total energy              =  -14924.72658768 Ry
     Harris-Foulkes estimate   =  -14925.74764365 Ry
     estimated scf accuracy    <      21.66872686 Ry

     iteration #  4     ecut=    60.00 Ry     beta= 0.50
     Davidson diagonalization with overlap
     ethr =  1.17E-03,  avg # of iterations =  1.0

     negative rho (up, down):  6.126E-01 0.000E+00

     total cpu time spent up to now is      527.0 secs

     total energy              =  -14924.78722275 Ry
     Harris-Foulkes estimate   =  -14925.26272359 Ry
     estimated scf accuracy    <       3.38318981 Ry

     iteration #  5     ecut=    60.00 Ry     beta= 0.50
     Davidson diagonalization with overlap
     ethr =  1.85E-04,  avg # of iterations =  8.2

     negative rho (up, down):  6.178E-01 0.000E+00

     total cpu time spent up to now is      690.0 secs

     total energy              =  -14924.95771215 Ry
     Harris-Foulkes estimate   =  -14925.10496269 Ry
     estimated scf accuracy    <       8.40220143 Ry

     iteration #  6     ecut=    60.00 Ry     beta= 0.50
     Davidson diagonalization with overlap
     ethr =  1.85E-04,  avg # of iterations =  2.2

     negative rho (up, down):  6.245E-01 0.000E+00

     total cpu time spent up to now is      807.2 secs

     total energy              =  -14924.93128976 Ry
     Harris-Foulkes estimate   =  -14925.01699496 Ry
     estimated scf accuracy    <       3.57739256 Ry

     iteration #  7     ecut=    60.00 Ry     beta= 0.50
     Davidson diagonalization with overlap
     ethr =  1.85E-04,  avg # of iterations =  1.0

     negative rho (up, down):  6.282E-01 0.000E+00

     total cpu time spent up to now is      923.2 secs

     total energy              =  -14924.94032042 Ry
     Harris-Foulkes estimate   =  -14924.98089500 Ry
     estimated scf accuracy    <       5.71927394 Ry

     iteration #  8     ecut=    60.00 Ry     beta= 0.50
     Davidson diagonalization with overlap
     ethr =  1.85E-04,  avg # of iterations =  1.0

     negative rho (up, down):  6.313E-01 0.000E+00

     total cpu time spent up to now is     1034.4 secs

     total energy              =  -14924.90896495 Ry
     Harris-Foulkes estimate   =  -14924.95790294 Ry
     estimated scf accuracy    <       4.04764241 Ry

     iteration #  9     ecut=    60.00 Ry     beta= 0.50
     Davidson diagonalization with overlap
     ethr =  1.85E-04,  avg # of iterations =  1.0

     negative rho (up, down):  6.315E-01 0.000E+00

     total cpu time spent up to now is     1143.9 secs

     total energy              =  -14924.87002729 Ry
     Harris-Foulkes estimate   =  -14924.92345189 Ry
     estimated scf accuracy    <       2.18379846 Ry

     iteration # 10     ecut=    60.00 Ry     beta= 0.50
     Davidson diagonalization with overlap
     ethr =  1.19E-04,  avg # of iterations =  1.0

     negative rho (up, down):  6.306E-01 0.000E+00

     total cpu time spent up to now is     1251.0 secs

     total energy              =  -14924.83737365 Ry
     Harris-Foulkes estimate   =  -14924.88503354 Ry
     estimated scf accuracy    <       0.98912015 Ry

     iteration # 11     ecut=    60.00 Ry     beta= 0.50
     Davidson diagonalization with overlap
     ethr =  5.41E-05,  avg # of iterations = 12.0

     negative rho (up, down):  6.298E-01 0.000E+00

     total cpu time spent up to now is     1419.7 secs

     total energy              =  -14924.83640041 Ry
     Harris-Foulkes estimate   =  -14924.84889819 Ry
     estimated scf accuracy    <       0.26718386 Ry

     iteration # 12     ecut=    60.00 Ry     beta= 0.50
     Davidson diagonalization with overlap
     c_bands:  2 eigenvalues not converged
     ethr =  1.46E-05,  avg # of iterations = 12.2

     negative rho (up, down):  6.286E-01 0.000E+00

     total cpu time spent up to now is     1578.0 secs

     total energy              =  -14924.83331016 Ry
     Harris-Foulkes estimate   =  -14924.83914624 Ry
     estimated scf accuracy    <       0.16698483 Ry

     iteration # 13     ecut=    60.00 Ry     beta= 0.50
     Davidson diagonalization with overlap
     ethr =  9.12E-06,  avg # of iterations =  6.2

     negative rho (up, down):  6.404E-01 0.000E+00

     total cpu time spent up to now is     1708.9 secs

     total energy              =  -14924.82475254 Ry
     Harris-Foulkes estimate   =  -14924.83417690 Ry
     estimated scf accuracy    <       0.18783824 Ry

     iteration # 14     ecut=    60.00 Ry     beta= 0.50
     Davidson diagonalization with overlap
     ethr =  9.12E-06,  avg # of iterations = 11.2

     negative rho (up, down):  6.915E-01 0.000E+00

     total cpu time spent up to now is     1863.8 secs

     total energy              =  -14924.81840474 Ry
     Harris-Foulkes estimate   =  -14924.82623140 Ry
     estimated scf accuracy    <       0.18160129 Ry

     iteration # 15     ecut=    60.00 Ry     beta= 0.50
     Davidson diagonalization with overlap
     ethr =  9.12E-06,  avg # of iterations = 13.0

     negative rho (up, down):  7.512E-01 0.000E+00

     total cpu time spent up to now is     2022.3 secs

     total energy              =  -14924.81001338 Ry
     Harris-Foulkes estimate   =  -14924.81997152 Ry
     estimated scf accuracy    <       0.15922733 Ry

     iteration # 16     ecut=    60.00 Ry     beta= 0.50
     Davidson diagonalization with overlap
     ethr =  8.70E-06,  avg # of iterations =  9.8

     negative rho (up, down):  7.682E-01 0.000E+00

     total cpu time spent up to now is     2152.3 secs

     total energy              =  -14924.80475709 Ry
     Harris-Foulkes estimate   =  -14924.81126496 Ry
     estimated scf accuracy    <       0.06390697 Ry

     iteration # 17     ecut=    60.00 Ry     beta= 0.50
     Davidson diagonalization with overlap
     ethr =  3.49E-06,  avg # of iterations = 12.5

     negative rho (up, down):  7.639E-01 0.000E+00

     total cpu time spent up to now is     2292.9 secs

     total energy              =  -14924.80096830 Ry
     Harris-Foulkes estimate   =  -14924.80541822 Ry
     estimated scf accuracy    <       0.04722706 Ry

     iteration # 18     ecut=    60.00 Ry     beta= 0.50
     Davidson diagonalization with overlap
     ethr =  2.58E-06,  avg # of iterations = 15.2

     negative rho (up, down):  7.510E-01 0.000E+00

     total cpu time spent up to now is     2446.9 secs

     total energy              =  -14924.79716361 Ry
     Harris-Foulkes estimate   =  -14924.80157076 Ry
     estimated scf accuracy    <       0.03445139 Ry

     iteration # 19     ecut=    60.00 Ry     beta= 0.50
     Davidson diagonalization with overlap
     ethr =  1.88E-06,  avg # of iterations = 12.5

     negative rho (up, down):  7.435E-01 0.000E+00

     total cpu time spent up to now is     2596.5 secs

     total energy              =  -14924.79656881 Ry
     Harris-Foulkes estimate   =  -14924.79790013 Ry
     estimated scf accuracy    <       0.01183379 Ry

     iteration # 20     ecut=    60.00 Ry     beta= 0.50
     Davidson diagonalization with overlap
     ethr =  6.47E-07,  avg # of iterations = 13.5

     negative rho (up, down):  7.059E-01 0.000E+00

     total cpu time spent up to now is     2748.0 secs

     total energy              =  -14924.79606899 Ry
     Harris-Foulkes estimate   =  -14924.79695696 Ry
     estimated scf accuracy    <       0.00537705 Ry

     iteration # 21     ecut=    60.00 Ry     beta= 0.50
     Davidson diagonalization with overlap
     c_bands:  1 eigenvalues not converged
     ethr =  2.94E-07,  avg # of iterations = 12.8

     negative rho (up, down):  6.533E-01 0.000E+00

     total cpu time spent up to now is     2884.9 secs

     total energy              =  -14924.79518283 Ry
     Harris-Foulkes estimate   =  -14924.79619394 Ry
     estimated scf accuracy    <       0.00326480 Ry

     iteration # 22     ecut=    60.00 Ry     beta= 0.50
     Davidson diagonalization with overlap
     c_bands:  2 eigenvalues not converged
     c_bands:  2 eigenvalues not converged
     ethr =  1.78E-07,  avg # of iterations = 17.0

     negative rho (up, down):  6.335E-01 0.000E+00

     total cpu time spent up to now is     3053.2 secs

     total energy              =  -14924.79546404 Ry
     Harris-Foulkes estimate   =  -14924.79529101 Ry
     estimated scf accuracy    <       0.00287415 Ry

     iteration # 23     ecut=    60.00 Ry     beta= 0.50
     Davidson diagonalization with overlap
     c_bands:  3 eigenvalues not converged
     c_bands:  2 eigenvalues not converged
     ethr =  1.57E-07,  avg # of iterations = 15.5

     negative rho (up, down):  6.291E-01 0.000E+00

     total cpu time spent up to now is     3206.2 secs

     total energy              =  -14924.79551156 Ry
     Harris-Foulkes estimate   =  -14924.79553129 Ry
     estimated scf accuracy    <       0.00217250 Ry

     iteration # 24     ecut=    60.00 Ry     beta= 0.50
     Davidson diagonalization with overlap
     c_bands:  3 eigenvalues not converged
     c_bands:  1 eigenvalues not converged
     c_bands:  1 eigenvalues not converged
     ethr =  1.19E-07,  avg # of iterations = 18.0

     negative rho (up, down):  6.313E-01 0.000E+00

     total cpu time spent up to now is     3364.6 secs

     total energy              =  -14924.79555289 Ry
     Harris-Foulkes estimate   =  -14924.79555873 Ry
     estimated scf accuracy    <       0.00033544 Ry

     iteration # 25     ecut=    60.00 Ry     beta= 0.50
     Davidson diagonalization with overlap
     c_bands:  1 eigenvalues not converged
     ethr =  1.83E-08,  avg # of iterations =  9.2

     negative rho (up, down):  6.334E-01 0.000E+00

     total cpu time spent up to now is     3487.5 secs

     total energy              =  -14924.79557198 Ry
     Harris-Foulkes estimate   =  -14924.79556595 Ry
     estimated scf accuracy    <       0.00014078 Ry

     iteration # 26     ecut=    60.00 Ry     beta= 0.50
     Davidson diagonalization with overlap
     c_bands:  1 eigenvalues not converged
     ethr =  7.69E-09,  avg # of iterations =  7.2

     negative rho (up, down):  6.337E-01 0.000E+00

     total cpu time spent up to now is     3602.2 secs

     total energy              =  -14924.79556259 Ry
     Harris-Foulkes estimate   =  -14924.79557651 Ry
     estimated scf accuracy    <       0.00011079 Ry

     iteration # 27     ecut=    60.00 Ry     beta= 0.50
     Davidson diagonalization with overlap
     ethr =  6.05E-09,  avg # of iterations =  1.0

     negative rho (up, down):  6.331E-01 0.000E+00

     total cpu time spent up to now is     3693.9 secs

     total energy              =  -14924.79558335 Ry
     Harris-Foulkes estimate   =  -14924.79556531 Ry
     estimated scf accuracy    <       0.00006202 Ry

     iteration # 28     ecut=    60.00 Ry     beta= 0.50
     Davidson diagonalization with overlap
     ethr =  3.39E-09,  avg # of iterations =  1.0

     negative rho (up, down):  6.335E-01 0.000E+00

     total cpu time spent up to now is     3785.1 secs

     total energy              =  -14924.79558797 Ry
     Harris-Foulkes estimate   =  -14924.79558583 Ry
     estimated scf accuracy    <       0.00004503 Ry

     iteration # 29     ecut=    60.00 Ry     beta= 0.50
     Davidson diagonalization with overlap
     ethr =  2.46E-09,  avg # of iterations =  1.5

     negative rho (up, down):  6.339E-01 0.000E+00

     total cpu time spent up to now is     3878.6 secs

     total energy              =  -14924.79558901 Ry
     Harris-Foulkes estimate   =  -14924.79558971 Ry
     estimated scf accuracy    <       0.00001740 Ry

     iteration # 30     ecut=    60.00 Ry     beta= 0.50
     Davidson diagonalization with overlap
     ethr =  9.51E-10,  avg # of iterations =  2.8

     negative rho (up, down):  6.339E-01 0.000E+00

     total cpu time spent up to now is     3978.8 secs

     total energy              =  -14924.79559034 Ry
     Harris-Foulkes estimate   =  -14924.79559003 Ry
     estimated scf accuracy    <       0.00000913 Ry

     iteration # 31     ecut=    60.00 Ry     beta= 0.50
     Davidson diagonalization with overlap
     ethr =  4.99E-10,  avg # of iterations =  1.0

     negative rho (up, down):  6.344E-01 0.000E+00

     total cpu time spent up to now is     4070.1 secs

     total energy              =  -14924.79558896 Ry
     Harris-Foulkes estimate   =  -14924.79559068 Ry
     estimated scf accuracy    <       0.00000446 Ry

     iteration # 32     ecut=    60.00 Ry     beta= 0.50
     Davidson diagonalization with overlap
     ethr =  2.44E-10,  avg # of iterations =  1.0

     negative rho (up, down):  6.349E-01 0.000E+00

     total cpu time spent up to now is     4163.0 secs

     total energy              =  -14924.79558764 Ry
     Harris-Foulkes estimate   =  -14924.79558916 Ry
     estimated scf accuracy    <       0.00000236 Ry

     iteration # 33     ecut=    60.00 Ry     beta= 0.50
     Davidson diagonalization with overlap
     ethr =  1.29E-10,  avg # of iterations =  2.0

     negative rho (up, down):  6.352E-01 0.000E+00

     total cpu time spent up to now is     4259.4 secs

     total energy              =  -14924.79558729 Ry
     Harris-Foulkes estimate   =  -14924.79558781 Ry
     estimated scf accuracy    <       0.00000094 Ry

     iteration # 34     ecut=    60.00 Ry     beta= 0.50
     Davidson diagonalization with overlap
     ethr =  5.13E-11,  avg # of iterations =  2.0

     negative rho (up, down):  6.353E-01 0.000E+00

     total cpu time spent up to now is     4354.2 secs

     total energy              =  -14924.79558719 Ry
     Harris-Foulkes estimate   =  -14924.79558733 Ry
     estimated scf accuracy    <       0.00000029 Ry

     iteration # 35     ecut=    60.00 Ry     beta= 0.50
     Davidson diagonalization with overlap
     ethr =  1.56E-11,  avg # of iterations =  1.8

     negative rho (up, down):  6.353E-01 0.000E+00

     total cpu time spent up to now is     4448.8 secs

     total energy              =  -14924.79558719 Ry
     Harris-Foulkes estimate   =  -14924.79558721 Ry
     estimated scf accuracy    <       0.00000033 Ry

     iteration # 36     ecut=    60.00 Ry     beta= 0.50
     Davidson diagonalization with overlap
     ethr =  1.56E-11,  avg # of iterations =  1.0

     negative rho (up, down):  6.353E-01 0.000E+00

     total cpu time spent up to now is     4540.8 secs

     total energy              =  -14924.79558714 Ry
     Harris-Foulkes estimate   =  -14924.79558720 Ry
     estimated scf accuracy    <       0.00000006 Ry

     iteration # 37     ecut=    60.00 Ry     beta= 0.50
     Davidson diagonalization with overlap
     ethr =  3.03E-12,  avg # of iterations =  2.5

     negative rho (up, down):  6.353E-01 0.000E+00

     total cpu time spent up to now is     4637.9 secs

     total energy              =  -14924.79558715 Ry
     Harris-Foulkes estimate   =  -14924.79558714 Ry
     estimated scf accuracy    <       0.00000007 Ry

     iteration # 38     ecut=    60.00 Ry     beta= 0.50
     Davidson diagonalization with overlap
     ethr =  3.03E-12,  avg # of iterations =  1.0

     negative rho (up, down):  6.353E-01 0.000E+00

     total cpu time spent up to now is     4739.4 secs

     total energy              =  -14924.79558714 Ry
     Harris-Foulkes estimate   =  -14924.79558715 Ry
     estimated scf accuracy    <       0.00000002 Ry

     iteration # 39     ecut=    60.00 Ry     beta= 0.50
     Davidson diagonalization with overlap
     ethr =  1.15E-12,  avg # of iterations =  1.0

     negative rho (up, down):  6.353E-01 0.000E+00

     total cpu time spent up to now is     4849.5 secs

     total energy              =  -14924.79558716 Ry
     Harris-Foulkes estimate   =  -14924.79558714 Ry
     estimated scf accuracy    <       0.00000001 Ry

     iteration # 40     ecut=    60.00 Ry     beta= 0.50
     Davidson diagonalization with overlap
     ethr =  6.46E-13,  avg # of iterations =  1.0

     negative rho (up, down):  6.353E-01 0.000E+00

     total cpu time spent up to now is     4957.3 secs

     End of self-consistent calculation

          k = 0.0000 0.0000 0.0000 (274311 PWs)   bands (ev):

   -37.8876 -37.8599 -37.8571 -37.8516 -37.8507 -37.8390 -37.8337 -37.7818
   -37.7445 -37.7411 -37.7373 -37.7364 -37.7245 -37.7191 -35.4241 -35.2674
   -22.7227 -22.6063 -22.5883 -22.5438 -22.5359 -22.5301 -22.5217 -22.4330
   -22.4251 -22.4224 -22.4181 -22.4143 -22.4097 -22.4067 -22.3986 -22.3976
   -22.3972 -22.3907 -22.3899 -22.3806 -22.3728 -22.3284 -22.2947 -22.2868
   -22.2594 -22.2414 -22.2278 -22.2114 -22.1813 -22.0666 -22.0495 -21.9586
   -18.4695 -18.4315 -18.3861 -18.3834 -18.3607 -18.3541 -18.3269 -18.2822
   -18.2522 -18.2497 -18.1990 -18.1860 -18.1848 -18.1789 -18.1713 -18.1703
   -18.1678 -18.1593 -18.1582 -18.1496 -18.1408 -18.0903 -18.0767 -18.0747
   -18.0613 -18.0531 -18.0506 -18.0413 -18.0318 -18.0309 -18.0264 -18.0045
   -17.9861 -17.9811 -17.9603 -17.8828 -17.8764 -17.8620 -17.8539 -17.8230
   -17.7556 -17.7451 -16.6836 -16.6545 -16.6471 -16.5080 -16.5040 -16.5026
   -15.2183 -15.1102 -14.6629 -14.6213 -14.5793 -14.5453 -14.5350 -14.5283
   -14.5215 -14.5187 -14.4970 -14.4910 -14.4817 -14.4750 -14.4639 -14.4469
   -14.3747 -14.3652 -14.3604 -14.3379 -14.3267 -14.3255 -14.3199 -14.3151
   -14.2864 -14.2792 -14.2714 -14.2618 -14.2538 -14.2390 -14.2086 -14.1959
   -14.1905 -14.1894 -14.1878 -14.1820 -14.1740 -14.1538 -14.1532 -14.1471
   -14.1440 -14.1344 -14.1331 -14.1215 -14.1071 -14.1041 -14.0846 -14.0767
   -14.0728 -14.0606 -14.0510 -14.0458 -14.0389 -14.0364 -14.0204 -14.0202
   -14.0027 -13.9893 -13.9813 -13.9756 -13.9699 -13.9676 -13.9279 -13.9004
   -13.8951 -13.8930 -13.8690 -13.8644 -13.8533 -13.8435 -13.8422 -13.8191
   -13.8079 -13.7837 -13.7749 -13.7668 -13.7235 -13.7167 -13.7152 -13.7055
   -13.6839 -13.6678 -13.6483 -13.6345 -13.6270 -13.6181 -13.5912 -13.5735
   -13.5711 -13.5659 -13.5645 -13.5331 -13.5322 -13.5318 -13.5313 -13.5303
   -13.5299 -13.5292 -13.5286 -13.5133 -13.5104 -13.5008 -13.4739 -13.4726
   -13.4612 -13.4597 -13.4504 -13.4482 -13.3982 -13.3969 -13.3755 -13.3704
   -13.2512 -13.2378 -13.2118 -13.1935 -13.1757 -13.1616 -13.1589 -12.9894
    -8.5027  -8.4971  -8.4945  -8.2426  -8.2156  -8.2083  -8.2056  -8.0832
    -7.9947  -7.9934  -7.9927  -7.9907  -7.9889  -7.9850  -7.9811  -7.9769
    -7.9751  -7.9696  -7.9691  -7.9652  -7.9576  -7.9363  -7.8852  -7.8817
    -7.8729  -7.7836  -7.7744  -7.7617  -7.7560  -7.7470  -7.7453  -7.7384
    -7.7373  -7.7367  -7.7288  -7.7148  -7.7106  -7.7071  -7.7062  -7.7051
    -7.7022  -7.6985  -7.6940  -7.6803  -7.6629  -7.6591  -7.6462  -7.6379
    -7.6332  -7.6185  -7.6106  -7.6072  -7.5974  -7.5826  -7.5701  -7.5680
    -7.5503  -7.5419  -7.5344  -7.5011  -7.4990  -7.4933  -7.4870  -7.4306
    -7.4174  -7.3880  -7.3879  -7.3866  -7.3855  -7.3800  -7.3794  -7.3659
    -7.3603  -7.3596  -7.3582  -7.3528  -7.3518  -7.3445  -7.3377  -7.3178
    -7.2973  -7.2668  -7.2519  -7.2509  -7.2439  -7.2330  -7.2255  -7.2139
    -7.1875  -7.1459  -7.1215  -7.1024  -7.0582  -7.0412  -6.9720  -6.9107
    -3.9674  -3.8924  -3.4166  -3.2608  -2.9707  -2.9467  -2.9040  -2.8309
    -2.8232  -2.8229  -2.7770  -2.7698  -2.7626  -2.7607  -2.7552  -2.7446
    -2.7230  -2.7040  -2.6929  -2.6477  -2.6390  -2.5686  -2.5669  -2.5654
    -2.5557  -2.4518  -2.4407  -2.4349  -2.4293  -2.4019  -2.2967  -2.2852
    -2.2792  -2.2732  -2.2556  -2.2200  -2.2152  -2.2087  -2.0400  -1.9978
    -1.9893  -1.9853  -1.9773  -1.9768  -1.9725  -1.9664  -1.9587  -1.9567
    -1.9520  -1.9477  -1.9408  -1.9391  -1.8573  -1.8517  -1.8503  -1.8415
    -1.7966  -1.7918  -1.7868  -1.7867  -1.7812  -1.7779  -1.7778  -1.7753
    -1.7749  -1.7732  -1.7706  -1.7640  -1.7599  -1.7589  -1.7454  -1.7358
    -1.7291  -1.7276  -1.6936  -1.6767  -1.6723  -1.6710  -1.6609  -1.6577
    -1.6489  -1.6230  -1.6062  -1.5772  -1.5766  -1.5765  -1.5764  -1.5761
    -1.5726  -1.5705  -1.5693  -1.5645  -1.5518  -1.5409  -1.5359  -1.5078
    -1.5061  -1.5039  -1.4906  -1.4864  -1.4814  -1.4732  -1.4708  -1.4677
    -1.4258  -1.4233  -1.4134  -1.3657  -1.3610  -1.3510  -1.3498  -1.2899
    -1.2797  -1.2696  -1.2587  -1.2260  -1.2216  -1.2108  -1.2054  -1.2034
    -1.1928  -1.1803  -1.1754  -1.1670  -1.1651  -1.1593  -1.1439  -1.1431
    -1.1356  -1.1277  -1.1162  -1.0895  -1.0776  -1.0692  -1.0599  -1.0547
    -1.0316  -1.0090  -0.9804  -0.9757  -0.9613  -0.9482  -0.9405  -0.8978
    -0.8914  -0.8800  -0.8610  -0.8561  -0.8558  -0.8533  -0.8375  -0.8318
    -0.8280  -0.7885  -0.7858  -0.7849  -0.7719  -0.7323  -0.7031  -0.6868
    -0.6641  -0.6534  -0.6510  -0.6482  -0.6398  -0.6324  -0.6220  -0.6215
    -0.6090  -0.6084  -0.6039  -0.5999  -0.5908  -0.5792  -0.5713  -0.5607
    -0.5371  -0.5365  -0.5297  -0.5285  -0.5181  -0.5152  -0.5083  -0.5044
    -0.4917  -0.4897  -0.4749  -0.4737  -0.4693  -0.4560  -0.4463  -0.4451
    -0.4288  -0.4183  -0.4141  -0.4018  -0.3974  -0.3596  -0.3560  -0.3493
    -0.3439  -0.3431  -0.3428  -0.3373  -0.3370  -0.3113  -0.3094  -0.2993
    -0.2903  -0.2882  -0.2736  -0.2728  -0.2637  -0.2634  -0.2483  -0.2464
    -0.2443  -0.2128  -0.2114  -0.2082  -0.1897  -0.1444  -0.1427  -0.1341
    -0.1184  -0.1072  -0.1051  -0.1048  -0.0904  -0.0856  -0.0750  -0.0697
    -0.0572  -0.0555  -0.0288  -0.0220  -0.0179  -0.0026   0.0114   0.0140
     0.0158   0.0187   0.0196   0.0208   0.0236   0.0274   0.0276   0.0288
     0.0379   0.0416   0.0814   0.0890   0.1012   0.1041   0.1098   0.1211
     0.1217   0.1242   0.1261   0.1313   0.1399   0.1471   0.1491   0.1541
     0.1589   0.1693   0.1770   0.1773   0.1844   0.1864   0.2076   0.2085
     0.2135   0.2239   0.2264   0.2281   0.2346   0.2472   0.2510   0.2735
     0.2775   0.3082   0.3095   0.3876   0.4017   0.4060   0.4102   0.4166
     0.4309   0.4675   0.4698   0.4837   0.4996   0.5099   0.5400   0.5497
     0.5552   0.5596   0.5639   0.5654   0.5679   0.5747   0.5756   0.6053
     0.6147   0.6213   0.6229   0.6310   0.6398   0.6411   0.6439   0.6444
     0.6649   0.6737   0.6752   0.6991   0.7159   0.7160   0.7179   0.7213
     0.7221   0.7384   0.7451   0.7554   0.7627   0.7669   0.7669   0.7775
     0.7923   0.7958   0.8046   0.8071   0.8277   0.8320   0.8389   0.8482
     0.8513   0.8662   0.8693   0.8772   0.8801   0.8866   0.8888   0.8889
     0.8983   0.8984   0.9105   0.9114   0.9192   0.9314   0.9348   0.9438
     0.9513   0.9538   0.9668   0.9764   0.9806   0.9814   1.0034   1.0079
     1.0083   1.0102   1.0114   1.0125   1.0250   1.0384   1.0405   1.0465
     1.0510   1.0573   1.0766   1.1051   1.1086   1.1312   1.1444   1.1451
     1.1624   1.1748   1.1806   1.1869   1.1914   1.2389   1.2556   1.2894
     1.3192   1.3222   1.3301   1.3329   1.3373   1.3518   1.3548   1.3739
     1.3889   1.4165   1.4170   1.4183   1.4187   1.4231   1.4258   1.4311
     1.4311   1.4331   1.4588   1.4725   1.4758   1.4890   1.4993   1.5008
     1.5025   1.5075   1.5107   1.5183   1.5192   1.5223   1.5391   1.5453
     1.5510   1.5529   1.5539   1.5554   1.5595   1.5609   1.5625   1.5626
     1.5636   1.5686   1.5694   1.5718   1.5808   1.5860   1.5952   1.5956
     1.5962   1.6079   1.6098   1.6307   1.6338   1.6379   1.6442   1.6468
     1.6486   1.6589   1.6590   1.6619   1.6723   1.6861   1.6867   1.6870
     1.6916   1.6953   1.6964   1.6984   1.7119   1.7164   1.7181   1.7193
     1.7286   1.7371   1.7381   1.7387   1.7403   1.7424   1.7453   1.7574
     1.7578   1.7628   1.7779   1.7872   1.7994   1.8012   1.8012   1.8058
     1.8272   1.8363   1.8414   1.8530   1.8615   1.8694   1.8765   1.8814
     1.8889   1.8920   1.8958   1.8976   1.8983   1.9047   1.9134   1.9138
     1.9148   1.9226   1.9279   1.9507   1.9894   2.0015   2.0071   2.0099
     2.0136   2.0162   2.0178   2.0210   2.0234   2.0237   2.0365   2.0395
     2.0441   2.0488   2.0504   2.0529   2.0551   2.0626   2.0655   2.0684
     2.0774   2.0924   2.1016   2.1052   2.1074   2.1220   2.1344   2.1432
     2.1451   2.1504   2.1593   2.1595   2.1654   2.1693   2.1719   2.1735
     2.1756   2.1808   2.1850   2.1957   2.1960   2.1997   2.2144   2.2226
     2.2433   2.2489   2.2564   2.2585   2.2617   2.2659   2.2735   2.2744
     2.2801   2.3203   2.3209   2.3437   2.3447   2.3448   2.3461   2.3465
     2.3476   2.3527   2.3536   2.3551   2.3691   2.3732   2.3797   2.3890
     2.3902   2.4232   2.4446   2.4505   2.4517   2.4603   2.4820   2.4890
     2.5055   2.5198   2.5273   2.5448   2.5660   2.5724   2.5866   2.6672
     2.6744   2.6748   2.6871   2.6972   2.7154   2.7170   2.7385   2.7396
     2.7416   2.7418   2.7701   2.7788   2.7932   2.8234   2.8365   2.8551
     2.8593   2.8604   2.8611   2.8705   2.9531   2.9691   3.0289   3.0304
     3.1370   3.1789   3.1811   3.1936   3.2980   3.3070   3.4403   3.4460
     3.4473   3.4518   3.4527   3.4542   3.4561   3.4594   3.5586   3.5758
     3.5911   3.6014   3.6086   3.6114   3.6201   3.6289   3.7580   3.7933
     3.7970   3.8028   3.8257   3.8591   3.8637   3.8715   3.9177   4.0066
     4.1406   4.1506   4.5534   4.7405   5.0088   5.0284   5.0864   5.1533
     5.4747   5.5026   5.6993   5.8253   6.0535   6.0571   6.1388   6.3838
     6.5097   6.6603   6.8130   6.8178   6.8595   6.8999   6.9036   6.9107
     6.9112   6.9115   6.9136   6.9137   6.9147   6.9173   6.9182   6.9863
     7.0681   7.1418   7.3634   7.3651   7.4212   7.4321   7.4478   7.4526
     7.4728   7.5275   7.5381   7.5593   7.5707   7.6357   7.6365   7.7142
     7.7341   7.7954   7.8215   7.8355   7.8548   7.8625   7.8626   7.8816
     7.9638   7.9840   8.0234   8.1345   8.1522   8.1542   8.1574   8.2249
     8.2251   8.3474   8.3501   8.3998   8.4236   8.4277   8.4317   8.4348
     8.4411   8.4627   8.4858   8.5096   8.5506   8.5564   8.5583   8.5619
     8.5637   8.5711   8.5717   8.5896   8.6008   8.6273   8.6397   8.6451
     8.7022   8.7034   8.7816   8.7838   8.8615   8.8641   8.8940   8.9045
     8.9236   8.9561   8.9611   8.9819   9.0089   9.0300   9.0306   9.0476
     9.0514   9.0714   9.0791   9.0964   9.1007   9.1022   9.1253   9.1290
     9.1301   9.1419   9.1474   9.1817   9.1829   9.1910   9.2112   9.2317
     9.2332   9.2405   9.2674   9.2693   9.3266   9.3301   9.3312   9.3389
     9.3389   9.3519   9.3746   9.3925   9.4054   9.4166   9.4282   9.4311
     9.4319   9.4522   9.4553   9.4697   9.4912   9.4922   9.5067   9.5241
     9.5775   9.5834   9.5979   9.6112   9.6141   9.6373   9.6410   9.6561
     9.6585   9.6673

          k = 0.2326 0.2390 0.0000 (274145 PWs)   bands (ev):

   -37.8876 -37.8594 -37.8578 -37.8516 -37.8510 -37.8374 -37.8349 -37.7818
   -37.7438 -37.7420 -37.7373 -37.7368 -37.7229 -37.7202 -35.4241 -35.2674
   -22.7202 -22.6105 -22.5890 -22.5281 -22.5256 -22.5238 -22.5176 -22.4774
   -22.4694 -22.4226 -22.4187 -22.4163 -22.4143 -22.4110 -22.4005 -22.3936
   -22.3857 -22.3849 -22.3770 -22.3493 -22.3414 -22.3169 -22.3090 -22.3010
   -22.2685 -22.2596 -22.2227 -22.1999 -22.1849 -22.0660 -22.0455 -21.9607
   -18.4349 -18.4000 -18.3836 -18.3592 -18.3523 -18.3315 -18.3263 -18.2988
   -18.2956 -18.2796 -18.2677 -18.2501 -18.2256 -18.2229 -18.1934 -18.1867
   -18.1798 -18.1629 -18.1606 -18.1470 -18.1317 -18.0776 -18.0697 -18.0564
   -18.0459 -18.0355 -18.0228 -18.0181 -18.0105 -17.9841 -17.9809 -17.9723
   -17.9324 -17.9278 -17.9112 -17.9077 -17.9014 -17.8778 -17.8680 -17.8469
   -17.8012 -17.7929 -16.6838 -16.6564 -16.6485 -16.5099 -16.5042 -16.5041
   -15.1179 -15.0122 -14.8492 -14.7534 -14.6150 -14.5783 -14.5512 -14.5375
   -14.5237 -14.5085 -14.4955 -14.4721 -14.4690 -14.4489 -14.4170 -14.3885
   -14.3685 -14.3510 -14.3459 -14.3386 -14.3267 -14.3225 -14.3133 -14.2998
   -14.2896 -14.2758 -14.2744 -14.2708 -14.2479 -14.2453 -14.2298 -14.2259
   -14.2217 -14.2176 -14.2125 -14.1823 -14.1784 -14.1634 -14.1564 -14.1552
   -14.1455 -14.1369 -14.1304 -14.1093 -14.0922 -14.0906 -14.0904 -14.0866
   -14.0752 -14.0633 -14.0573 -14.0434 -14.0252 -14.0119 -14.0111 -13.9834
   -13.9712 -13.9644 -13.9278 -13.9195 -13.9183 -13.9076 -13.9008 -13.8951
   -13.8920 -13.8869 -13.8706 -13.8613 -13.8558 -13.8462 -13.8341 -13.8305
   -13.8260 -13.8162 -13.8113 -13.7730 -13.7665 -13.7461 -13.7352 -13.7067
   -13.6943 -13.6801 -13.6494 -13.6419 -13.6239 -13.6120 -13.5786 -13.5776
   -13.5768 -13.5707 -13.5697 -13.5554 -13.5537 -13.5409 -13.5388 -13.5380
   -13.5181 -13.5138 -13.5073 -13.4925 -13.4920 -13.4846 -13.4836 -13.4771
   -13.4658 -13.4646 -13.4623 -13.4288 -13.4110 -13.4095 -13.3949 -13.3197
   -13.3052 -13.2520 -13.2216 -13.2140 -13.1782 -13.1525 -13.1267 -13.0354
    -8.3954  -8.3937  -8.3875  -8.1992  -8.1938  -8.1914  -8.1318  -8.0960
    -8.0917  -8.0886  -8.0839  -7.9899  -7.9715  -7.9195  -7.9071  -7.8976
    -7.8877  -7.8859  -7.8799  -7.8316  -7.8292  -7.8237  -7.7876  -7.7843
    -7.7813  -7.7758  -7.7728  -7.7630  -7.7603  -7.7559  -7.7484  -7.7353
    -7.7319  -7.7306  -7.7293  -7.7266  -7.7238  -7.7209  -7.7155  -7.7070
    -7.7036  -7.7007  -7.6921  -7.6891  -7.6837  -7.6826  -7.6807  -7.6752
    -7.6575  -7.6530  -7.6486  -7.6197  -7.6131  -7.6102  -7.5957  -7.5820
    -7.5811  -7.5764  -7.5738  -7.5472  -7.5105  -7.4938  -7.4699  -7.4654
    -7.4623  -7.4491  -7.4421  -7.4310  -7.4296  -7.4220  -7.4211  -7.4123
    -7.3909  -7.3812  -7.3735  -7.3453  -7.3439  -7.3363  -7.3311  -7.3197
    -7.3121  -7.3034  -7.3020  -7.2945  -7.2913  -7.2902  -7.2834  -7.2621
    -7.2066  -7.1835  -7.1469  -7.1164  -7.0808  -7.0323  -7.0089  -6.9493
    -3.8067  -3.7329  -3.3725  -3.3025  -3.2709  -3.1151  -2.9430  -2.9152
    -2.8907  -2.8820  -2.8381  -2.8025  -2.7557  -2.7363  -2.7319  -2.7145
    -2.6910  -2.6755  -2.6483  -2.5812  -2.5462  -2.5292  -2.5276  -2.5182
    -2.4641  -2.4626  -2.4562  -2.4507  -2.4090  -2.3996  -2.3683  -2.2937
    -2.2750  -2.2393  -2.2080  -2.2079  -2.1843  -2.1772  -2.1705  -2.1704
    -2.1573  -2.1017  -2.0957  -2.0863  -2.0782  -2.0153  -1.9330  -1.9269
    -1.9234  -1.9146  -1.8983  -1.8785  -1.8713  -1.8592  -1.8418  -1.8360
    -1.8282  -1.8166  -1.8016  -1.8008  -1.7920  -1.7832  -1.7780  -1.7582
    -1.7572  -1.7494  -1.7391  -1.7311  -1.7285  -1.6983  -1.6904  -1.6892
    -1.6801  -1.6730  -1.6701  -1.6647  -1.6617  -1.6615  -1.6597  -1.6516
    -1.6423  -1.6268  -1.6146  -1.6089  -1.5874  -1.5837  -1.5816  -1.5680
    -1.5510  -1.5442  -1.5279  -1.5205  -1.5095  -1.5014  -1.4993  -1.4986
    -1.4882  -1.4859  -1.4774  -1.4700  -1.4621  -1.4588  -1.4459  -1.4425
    -1.4196  -1.4118  -1.4070  -1.3904  -1.3835  -1.3760  -1.3560  -1.3536
    -1.3319  -1.3236  -1.2989  -1.2801  -1.2775  -1.2662  -1.2382  -1.2167
    -1.2032  -1.1965  -1.1527  -1.1431  -1.1394  -1.1267  -1.1140  -1.1050
    -1.0927  -1.0912  -1.0793  -1.0709  -1.0496  -1.0413  -1.0161  -1.0021
    -0.9892  -0.9767  -0.9707  -0.9535  -0.9393  -0.9220  -0.9132  -0.9090
    -0.8866  -0.8752  -0.8696  -0.8532  -0.8491  -0.8233  -0.8087  -0.7766
    -0.7722  -0.7435  -0.7381  -0.7261  -0.7230  -0.7140  -0.6990  -0.6941
    -0.6873  -0.6668  -0.6612  -0.6437  -0.6358  -0.6110  -0.6008  -0.5838
    -0.5732  -0.5720  -0.5712  -0.5677  -0.5645  -0.5614  -0.5557  -0.5536
    -0.5456  -0.5349  -0.5311  -0.5284  -0.5086  -0.4847  -0.4819  -0.4741
    -0.4687  -0.4639  -0.4494  -0.4413  -0.4275  -0.4191  -0.4152  -0.4106
    -0.4089  -0.4052  -0.4028  -0.3970  -0.3922  -0.3879  -0.3817  -0.3685
    -0.3543  -0.3349  -0.3306  -0.3205  -0.3192  -0.3095  -0.3037  -0.2979
    -0.2931  -0.2912  -0.2866  -0.2828  -0.2783  -0.2670  -0.2439  -0.2412
    -0.2304  -0.2223  -0.2166  -0.2086  -0.2020  -0.1981  -0.1923  -0.1894
    -0.1789  -0.1727  -0.1619  -0.1429  -0.1411  -0.1395  -0.1339  -0.1293
    -0.1186  -0.1007  -0.0903  -0.0809  -0.0741  -0.0695  -0.0481  -0.0412
    -0.0333  -0.0275  -0.0240  -0.0139  -0.0047   0.0082   0.0103   0.0145
     0.0276   0.0354   0.0563   0.0922   0.1027   0.1043   0.1153   0.1273
     0.1370   0.1481   0.1519   0.1681   0.1774   0.1939   0.2017   0.2145
     0.2262   0.2303   0.2477   0.2508   0.2629   0.2648   0.2692   0.2830
     0.2938   0.2950   0.3124   0.3226   0.3308   0.3402   0.3467   0.3556
     0.3597   0.3599   0.3769   0.3820   0.3911   0.4105   0.4215   0.4363
     0.4466   0.4649   0.4706   0.4752   0.5022   0.5214   0.5469   0.5559
     0.5706   0.5712   0.5770   0.5780   0.5913   0.6029   0.6101   0.6183
     0.6198   0.6227   0.6293   0.6305   0.6358   0.6416   0.6485   0.6550
     0.6636   0.6649   0.6653   0.6698   0.6774   0.6843   0.6930   0.7010
     0.7082   0.7088   0.7097   0.7397   0.7461   0.7483   0.7512   0.7614
     0.7741   0.7785   0.7853   0.7905   0.7988   0.8086   0.8156   0.8160
     0.8283   0.8307   0.8395   0.8424   0.8445   0.8484   0.8608   0.8643
     0.8771   0.8853   0.8876   0.8923   0.8938   0.9039   0.9096   0.9225
     0.9310   0.9382   0.9618   0.9622   0.9760   0.9834   0.9928   0.9957
     0.9966   1.0181   1.0226   1.0317   1.0354   1.0482   1.0905   1.0959
     1.1106   1.1237   1.1319   1.1417   1.1599   1.1690   1.1693   1.1984
     1.2020   1.2142   1.2153   1.2193   1.2218   1.2243   1.2346   1.2357
     1.2542   1.2688   1.2873   1.3022   1.3093   1.3242   1.3314   1.3357
     1.3443   1.3597   1.3647   1.3734   1.3839   1.3914   1.3952   1.4032
     1.4120   1.4192   1.4247   1.4290   1.4351   1.4361   1.4398   1.4463
     1.4560   1.4611   1.4637   1.4690   1.4716   1.4775   1.4843   1.5003
     1.5127   1.5247   1.5312   1.5349   1.5404   1.5472   1.5554   1.5670
     1.5684   1.5776   1.5797   1.5843   1.5894   1.5990   1.6003   1.6052
     1.6141   1.6177   1.6185   1.6208   1.6246   1.6301   1.6338   1.6386
     1.6399   1.6444   1.6496   1.6595   1.6655   1.6697   1.6730   1.6756
     1.6835   1.6896   1.6958   1.7011   1.7034   1.7104   1.7135   1.7162
     1.7184   1.7227   1.7240   1.7301   1.7381   1.7410   1.7520   1.7560
     1.7647   1.7711   1.7798   1.7886   1.7956   1.8126   1.8175   1.8264
     1.8281   1.8377   1.8395   1.8568   1.8660   1.8683   1.8763   1.8915
     1.8921   1.9032   1.9116   1.9181   1.9295   1.9356   1.9451   1.9484
     1.9564   1.9609   1.9675   1.9776   1.9792   1.9829   1.9860   1.9917
     2.0047   2.0072   2.0128   2.0278   2.0383   2.0407   2.0452   2.0496
     2.0545   2.0572   2.0684   2.0708   2.0717   2.0764   2.0838   2.0909
     2.0956   2.0975   2.0989   2.1088   2.1115   2.1131   2.1152   2.1163
     2.1208   2.1216   2.1254   2.1314   2.1332   2.1352   2.1419   2.1469
     2.1517   2.1636   2.1669   2.1745   2.1769   2.2037   2.2085   2.2169
     2.2174   2.2229   2.2304   2.2365   2.2441   2.2514   2.2611   2.2744
     2.2765   2.2905   2.2920   2.2977   2.3116   2.3280   2.3326   2.3477
     2.3535   2.3615   2.3876   2.3890   2.4003   2.4134   2.4233   2.4432
     2.4514   2.5016   2.5103   2.5216   2.5429   2.5434   2.5444   2.5825
     2.5838   2.5877   2.5888   2.5926   2.5985   2.6281   2.6360   2.6408
     2.6616   2.6668   2.6849   2.6985   2.6996   2.7066   2.7696   2.7779
     2.7789   2.7871   2.8044   2.8154   2.8285   2.8916   2.9398   2.9430
     2.9449   2.9502   2.9612   2.9929   3.0192   3.0409   3.0418   3.0802
     3.0931   3.1485   3.1768   3.2319   3.2356   3.2454   3.2807   3.2882
     3.2986   3.3000   3.3062   3.3181   3.3279   3.3295   3.3878   3.3921
     3.4011   3.4064   3.4141   3.4208   3.4333   3.4399   3.5612   3.5810
     3.5852   3.6101   3.6587   3.6898   4.2506   4.2714   4.3621   4.3811
     4.4147   4.4528   4.5398   4.6623   4.7928   4.8106   4.8787   4.9481
     5.7350   5.7482   5.8778   6.0318   6.2879   6.2910   6.3163   6.3346
     6.3403   6.3518   6.5010   6.6043   6.7570   6.7907   6.7972   6.8160
     6.8249   6.8252   6.8660   6.9469   6.9579   7.0033   7.0842   7.0866
     7.1312   7.1504   7.1574   7.1650   7.2222   7.2955   7.3015   7.3095
     7.4891   7.5714   7.5889   7.6151   7.6427   7.6846   7.7689   7.8250
     7.8309   7.8419   7.8460   7.8504   7.8936   7.9175   7.9230   7.9466
     7.9592   7.9853   8.0078   8.0164   8.0604   8.0763   8.1318   8.1754
     8.1852   8.2018   8.2130   8.2331   8.2633   8.2775   8.3201   8.3605
     8.4029   8.4400   8.4648   8.4657   8.4781   8.4923   8.5317   8.5805
     8.5868   8.6205   8.6437   8.6494   8.6781   8.6980   8.7218   8.7281
     8.7402   8.7915   8.8080   8.8298   8.8327   8.8740   8.8776   8.9017
     8.9083   8.9304   8.9409   8.9619   8.9708   8.9811   8.9928   9.0165
     9.0415   9.0427   9.0512   9.0617   9.0910   9.0943   9.1125   9.1432
     9.1514   9.1872   9.1998   9.2053   9.2155   9.2353   9.2474   9.2532
     9.2739   9.2770   9.2871   9.2935   9.3214   9.3334   9.3402   9.3638
     9.4014   9.4116   9.4298   9.4550   9.4597   9.4798   9.4958   9.5134
     9.5237   9.5444   9.5511   9.5563   9.5837   9.5884   9.6044   9.6111
     9.6304   9.6427   9.6464   9.6530   9.6883   9.7138   9.7233   9.7462
     9.7476   9.7658

          k = 0.0000 0.4779 0.0000 (274115 PWs)   bands (ev):

   -37.8875 -37.8595 -37.8577 -37.8527 -37.8500 -37.8366 -37.8357 -37.7818
   -37.7437 -37.7421 -37.7383 -37.7359 -37.7219 -37.7211 -35.4241 -35.2674
   -22.7182 -22.6161 -22.5784 -22.5511 -22.5083 -22.5063 -22.4984 -22.4765
   -22.4686 -22.4660 -22.4579 -22.4297 -22.4218 -22.4161 -22.4002 -22.3800
   -22.3721 -22.3525 -22.3460 -22.3447 -22.3381 -22.3240 -22.3161 -22.3074
   -22.2750 -22.2598 -22.2307 -22.2070 -22.1746 -22.0634 -22.0457 -21.9614
   -18.4302 -18.4254 -18.3897 -18.3599 -18.3333 -18.3303 -18.3217 -18.3200
   -18.2861 -18.2794 -18.2581 -18.2424 -18.2214 -18.2002 -18.1856 -18.1786
   -18.1697 -18.1636 -18.1451 -18.1423 -18.1090 -18.0932 -18.0792 -18.0692
   -18.0643 -18.0485 -18.0388 -18.0305 -18.0254 -18.0067 -17.9855 -17.9724
   -17.9589 -17.9217 -17.9103 -17.9029 -17.8823 -17.8700 -17.8679 -17.8624
   -17.7941 -17.7561 -16.6837 -16.6565 -16.6475 -16.5100 -16.5042 -16.5030
   -15.0398 -14.9378 -14.8288 -14.7744 -14.7340 -14.6895 -14.6589 -14.5832
   -14.5754 -14.5288 -14.4490 -14.4296 -14.4085 -14.4056 -14.3993 -14.3856
   -14.3712 -14.3681 -14.3680 -14.3559 -14.3272 -14.3245 -14.3229 -14.2991
   -14.2955 -14.2927 -14.2841 -14.2439 -14.2185 -14.2170 -14.2129 -14.2114
   -14.2025 -14.1877 -14.1770 -14.1753 -14.1581 -14.1522 -14.1471 -14.1266
   -14.1252 -14.1221 -14.1128 -14.1109 -14.1065 -14.1011 -14.0915 -14.0848
   -14.0727 -14.0696 -14.0518 -14.0507 -14.0498 -14.0274 -14.0043 -14.0025
   -13.9678 -13.9558 -13.9277 -13.9139 -13.9025 -13.9009 -13.8900 -13.8889
   -13.8842 -13.8700 -13.8663 -13.8621 -13.8546 -13.8361 -13.8338 -13.8285
   -13.8242 -13.8163 -13.7945 -13.7913 -13.7878 -13.7867 -13.7613 -13.7137
   -13.6851 -13.6760 -13.6646 -13.6493 -13.6462 -13.6107 -13.5820 -13.5816
   -13.5785 -13.5728 -13.5693 -13.5666 -13.5650 -13.5288 -13.5273 -13.5268
   -13.5243 -13.5125 -13.5076 -13.5012 -13.4894 -13.4831 -13.4818 -13.4775
   -13.4762 -13.4720 -13.4706 -13.4535 -13.3775 -13.3539 -13.3431 -13.3427
   -13.3084 -13.3055 -13.2752 -13.2325 -13.1720 -13.1213 -13.1071 -13.1008
    -8.2453  -8.2372  -8.2292  -8.1039  -8.0976  -8.0954  -8.0915  -8.0877
    -8.0855  -8.0776  -8.0154  -8.0122  -8.0049  -7.9884  -7.9564  -7.9481
    -7.9321  -7.8798  -7.8339  -7.8161  -7.7994  -7.7913  -7.7825  -7.7810
    -7.7727  -7.7716  -7.7695  -7.7611  -7.7512  -7.7421  -7.7237  -7.7148
    -7.7139  -7.7117  -7.6995  -7.6970  -7.6919  -7.6914  -7.6889  -7.6855
    -7.6836  -7.6775  -7.6770  -7.6720  -7.6674  -7.6623  -7.6590  -7.6378
    -7.6351  -7.6103  -7.6022  -7.5978  -7.5953  -7.5933  -7.5873  -7.5854
    -7.5817  -7.5816  -7.5796  -7.5793  -7.5743  -7.5734  -7.5722  -7.5655
    -7.5564  -7.5356  -7.5278  -7.5268  -7.4771  -7.4710  -7.4695  -7.4620
    -7.4449  -7.4269  -7.4186  -7.3830  -7.3678  -7.3327  -7.3283  -7.3237
    -7.3157  -7.3149  -7.3081  -7.2954  -7.2927  -7.2882  -7.2879  -7.2806
    -7.2670  -7.2476  -7.2028  -7.1928  -7.1703  -7.0419  -7.0035  -6.9599
    -3.6403  -3.5670  -3.3574  -3.2994  -3.2969  -3.2415  -3.1241  -2.9826
    -2.9695  -2.9328  -2.9217  -2.9006  -2.7757  -2.7521  -2.7063  -2.7024
    -2.7012  -2.6826  -2.6776  -2.5389  -2.5222  -2.4980  -2.4974  -2.4972
    -2.4967  -2.4284  -2.3770  -2.3363  -2.3345  -2.3221  -2.3103  -2.2976
    -2.2260  -2.2259  -2.1879  -2.1675  -2.1560  -2.1518  -2.1497  -2.1476
    -2.1198  -2.1041  -2.0552  -2.0157  -2.0146  -1.9932  -1.9908  -1.9879
    -1.9829  -1.9706  -1.9699  -1.9511  -1.8921  -1.8772  -1.8592  -1.8524
    -1.8249  -1.8197  -1.7760  -1.7576  -1.7393  -1.7352  -1.7282  -1.7221
    -1.7212  -1.7176  -1.7064  -1.7048  -1.7018  -1.7005  -1.6920  -1.6905
    -1.6843  -1.6795  -1.6774  -1.6748  -1.6708  -1.6631  -1.6613  -1.6581
    -1.6508  -1.6450  -1.6339  -1.6325  -1.6246  -1.6227  -1.6101  -1.6006
    -1.5968  -1.5706  -1.5312  -1.5304  -1.5212  -1.5108  -1.5059  -1.5017
    -1.4945  -1.4943  -1.4889  -1.4812  -1.4785  -1.4734  -1.4638  -1.4510
    -1.4474  -1.4458  -1.4344  -1.4311  -1.4279  -1.4014  -1.3907  -1.3901
    -1.3818  -1.3648  -1.3586  -1.3483  -1.3347  -1.3295  -1.3213  -1.3189
    -1.3020  -1.2832  -1.2828  -1.2333  -1.1663  -1.1553  -1.1549  -1.1473
    -1.1265  -1.0993  -1.0977  -1.0856  -1.0837  -1.0790  -1.0746  -1.0582
    -1.0258  -1.0111  -1.0106  -1.0029  -0.9859  -0.9573  -0.8403  -0.8151
    -0.8115  -0.7869  -0.7494  -0.7200  -0.7104  -0.7092  -0.7010  -0.6899
    -0.6837  -0.6660  -0.6608  -0.6459  -0.6176  -0.6174  -0.6109  -0.6094
    -0.5747  -0.5703  -0.5647  -0.5621  -0.5617  -0.5615  -0.5590  -0.5577
    -0.5524  -0.5372  -0.5362  -0.5229  -0.5213  -0.5145  -0.5043  -0.4912
    -0.4875  -0.4837  -0.4785  -0.4741  -0.4716  -0.4687  -0.4616  -0.4534
    -0.4454  -0.4249  -0.4218  -0.4139  -0.4104  -0.4064  -0.3951  -0.3861
    -0.3799  -0.3781  -0.3731  -0.3692  -0.3673  -0.3661  -0.3579  -0.3411
    -0.3345  -0.3324  -0.3312  -0.3275  -0.3257  -0.3159  -0.3125  -0.3040
    -0.3031  -0.3003  -0.2950  -0.2745  -0.2462  -0.2368  -0.2363  -0.2209
    -0.2200  -0.2105  -0.2043  -0.2039  -0.1968  -0.1967  -0.1898  -0.1836
    -0.1588  -0.1557  -0.1482  -0.1429  -0.1421  -0.1281  -0.1253  -0.1178
    -0.1145  -0.0914  -0.0804  -0.0721  -0.0701  -0.0687  -0.0572  -0.0570
    -0.0555  -0.0511  -0.0479  -0.0460  -0.0351  -0.0326  -0.0179  -0.0074
    -0.0042  -0.0009   0.0025   0.0311   0.0331   0.0373   0.0706   0.0759
     0.0833   0.1070   0.1102   0.1153   0.1475   0.1539   0.1555   0.1649
     0.1835   0.1977   0.1986   0.2090   0.2268   0.2292   0.2315   0.2368
     0.2391   0.2432   0.2640   0.2863   0.3206   0.3440   0.3455   0.3589
     0.3738   0.4009   0.4170   0.4399   0.4434   0.4510   0.4565   0.4922
     0.5120   0.5121   0.5226   0.5252   0.5253   0.5291   0.5470   0.5489
     0.5491   0.5609   0.5617   0.5627   0.5695   0.5816   0.5822   0.5882
     0.5991   0.6153   0.6338   0.6363   0.6485   0.6567   0.6635   0.6649
     0.6718   0.6752   0.6796   0.6824   0.6919   0.6962   0.7006   0.7081
     0.7124   0.7293   0.7308   0.7373   0.7374   0.7383   0.7521   0.7548
     0.7569   0.7636   0.7745   0.7796   0.7831   0.8149   0.8276   0.8289
     0.8315   0.8347   0.8352   0.8421   0.8694   0.8789   0.8891   0.8957
     0.9022   0.9027   0.9063   0.9071   0.9152   0.9162   0.9314   0.9329
     0.9476   0.9491   0.9669   0.9843   1.0062   1.0115   1.0184   1.0210
     1.0242   1.0514   1.0632   1.0779   1.0791   1.0890   1.0978   1.1106
     1.1136   1.1271   1.1278   1.1372   1.1430   1.1479   1.1576   1.1608
     1.1711   1.1853   1.1890   1.1972   1.1994   1.2413   1.2425   1.2573
     1.2783   1.2902   1.2948   1.2999   1.3129   1.3390   1.3545   1.3685
     1.3797   1.3845   1.3893   1.3932   1.3999   1.4063   1.4087   1.4129
     1.4167   1.4240   1.4293   1.4377   1.4385   1.4436   1.4474   1.4533
     1.4594   1.4602   1.4736   1.4811   1.4965   1.5006   1.5078   1.5103
     1.5166   1.5253   1.5264   1.5275   1.5376   1.5385   1.5435   1.5442
     1.5498   1.5547   1.5573   1.5626   1.5668   1.5723   1.5842   1.5873
     1.5904   1.5962   1.5970   1.5976   1.6066   1.6127   1.6248   1.6417
     1.6425   1.6450   1.6470   1.6549   1.6678   1.6712   1.6715   1.6773
     1.6932   1.7021   1.7073   1.7156   1.7216   1.7277   1.7347   1.7440
     1.7452   1.7484   1.7591   1.7768   1.7825   1.7859   1.7869   1.7941
     1.8050   1.8105   1.8149   1.8150   1.8232   1.8278   1.8359   1.8388
     1.8399   1.8426   1.8434   1.8494   1.8509   1.8590   1.8641   1.8647
     1.8706   1.8770   1.8803   1.8840   1.8963   1.9177   1.9224   1.9247
     1.9325   1.9383   1.9424   1.9462   1.9523   1.9586   1.9603   1.9754
     1.9765   1.9797   1.9870   1.9888   1.9905   1.9983   2.0001   2.0170
     2.0201   2.0227   2.0320   2.0491   2.0583   2.0669   2.0705   2.0806
     2.0834   2.0858   2.0900   2.0972   2.1124   2.1233   2.1255   2.1345
     2.1381   2.1399   2.1409   2.1560   2.1565   2.1616   2.1635   2.1720
     2.1744   2.1912   2.1917   2.1965   2.1997   2.2047   2.2076   2.2103
     2.2165   2.2167   2.2194   2.2197   2.2239   2.2310   2.2403   2.2432
     2.2658   2.2748   2.2840   2.2888   2.2945   2.3027   2.3215   2.3236
     2.3314   2.3373   2.3486   2.3533   2.3595   2.3611   2.3864   2.3924
     2.3979   2.4163   2.4178   2.4457   2.4575   2.4756   2.4977   2.5149
     2.5154   2.5156   2.5582   2.5620   2.5655   2.5686   2.5854   2.5946
     2.6114   2.6208   2.6504   2.6802   2.6925   2.7212   2.7322   2.7429
     2.7468   2.7503   2.7531   2.7620   2.7730   2.8124   2.8543   2.8661
     2.8663   2.8673   2.8680   2.9123   2.9988   3.0220   3.0605   3.0790
     3.0977   3.1080   3.1562   3.1764   3.1952   3.2122   3.2982   3.3031
     3.3048   3.3088   3.3090   3.3138   3.3168   3.3182   3.4170   3.4259
     3.4806   3.4813   3.4891   3.4980   3.5579   3.5981   3.7297   3.7620
     3.9062   3.9216   3.9312   3.9481   4.0886   4.0999   4.1508   4.1616
     4.3592   4.4287   4.5879   4.6005   4.6163   4.6219   4.6971   4.7654
     5.9750   6.1241   6.1313   6.2520   6.2526   6.2558   6.2564   6.2745
     6.4712   6.4747   6.5038   6.5900   6.6118   6.6826   6.6884   6.7672
     6.8145   6.9071   6.9522   7.0399   7.0452   7.0599   7.0609   7.0620
     7.0675   7.0853   7.1419   7.2325   7.2354   7.2389   7.2998   7.3189
     7.3578   7.3819   7.4146   7.4166   7.4567   7.4657   7.5768   7.5809
     7.6227   7.6454   7.7276   7.8570   7.8803   7.8944   7.9032   7.9147
     7.9706   7.9765   8.0957   8.1638   8.1701   8.1759   8.2102   8.2185
     8.2330   8.2342   8.2586   8.2656   8.2738   8.2889   8.3273   8.3527
     8.3801   8.3818   8.3951   8.4146   8.4818   8.4989   8.4995   8.5421
     8.5989   8.6093   8.6273   8.6532   8.6551   8.7053   8.7165   8.7352
     8.7701   8.7748   8.7823   8.7904   8.8381   8.8404   8.8970   8.9091
     8.9194   8.9390   8.9708   8.9808   8.9891   8.9938   9.0220   9.0276
     9.0288   9.0620   9.0796   9.0937   9.1122   9.1194   9.1239   9.1402
     9.1532   9.1663   9.1772   9.1785   9.1990   9.2096   9.2318   9.2366
     9.2597   9.3086   9.3182   9.3465   9.3932   9.4427   9.4430   9.4531
     9.4745   9.4844   9.5342   9.5367   9.5454   9.5719   9.5777   9.5778
     9.6084   9.6146   9.6308   9.6334   9.6604   9.6637   9.6867   9.7072
     9.7128   9.7275   9.7373   9.7679   9.7722   9.7723   9.7858   9.7920
     9.8068   9.8070

          k =-0.4652-0.0000 0.0000 (274136 PWs)   bands (ev):

   -37.8875 -37.8602 -37.8567 -37.8527 -37.8503 -37.8370 -37.8353 -37.7818
   -37.7445 -37.7408 -37.7384 -37.7362 -37.7225 -37.7206 -35.4241 -35.2674
   -22.7185 -22.6102 -22.5904 -22.5433 -22.5124 -22.5074 -22.5045 -22.4665
   -22.4586 -22.4550 -22.4470 -22.4469 -22.4392 -22.4245 -22.3940 -22.3640
   -22.3619 -22.3568 -22.3560 -22.3541 -22.3489 -22.3174 -22.3094 -22.3081
   -22.2743 -22.2600 -22.2333 -22.2000 -22.1774 -22.0711 -22.0389 -21.9617
   -18.4660 -18.3933 -18.3876 -18.3626 -18.3570 -18.3386 -18.2996 -18.2888
   -18.2833 -18.2618 -18.2609 -18.2514 -18.2050 -18.1961 -18.1944 -18.1891
   -18.1692 -18.1674 -18.1599 -18.1263 -18.1178 -18.0870 -18.0866 -18.0793
   -18.0617 -18.0608 -18.0520 -18.0291 -18.0253 -18.0003 -17.9811 -17.9770
   -17.9518 -17.9232 -17.9197 -17.9072 -17.8764 -17.8739 -17.8631 -17.8542
   -17.8010 -17.7454 -16.6837 -16.6549 -16.6488 -16.5084 -16.5044 -16.5041
   -15.0331 -14.9293 -14.8456 -14.7760 -14.7521 -14.6898 -14.6519 -14.5927
   -14.5127 -14.5090 -14.4766 -14.4432 -14.4431 -14.4276 -14.4246 -14.4118
   -14.3788 -14.3602 -14.3575 -14.3484 -14.3249 -14.3200 -14.2942 -14.2738
   -14.2705 -14.2620 -14.2541 -14.2425 -14.2297 -14.2287 -14.2246 -14.2156
   -14.2076 -14.1915 -14.1872 -14.1775 -14.1584 -14.1560 -14.1505 -14.1456
   -14.1340 -14.1231 -14.1209 -14.1143 -14.1094 -14.1020 -14.0758 -14.0715
   -14.0695 -14.0654 -14.0633 -14.0629 -14.0278 -14.0196 -14.0151 -13.9944
   -13.9750 -13.9561 -13.9474 -13.9294 -13.9152 -13.9055 -13.8803 -13.8795
   -13.8709 -13.8683 -13.8589 -13.8514 -13.8417 -13.8301 -13.8256 -13.8191
   -13.8149 -13.8110 -13.8043 -13.7968 -13.7797 -13.7634 -13.7563 -13.7508
   -13.7009 -13.6846 -13.6638 -13.6447 -13.6444 -13.6147 -13.5949 -13.5774
   -13.5759 -13.5723 -13.5686 -13.5592 -13.5586 -13.5562 -13.5555 -13.5534
   -13.5129 -13.5058 -13.5057 -13.5032 -13.5027 -13.4981 -13.4714 -13.4697
   -13.4648 -13.4631 -13.4324 -13.4010 -13.3954 -13.3901 -13.3882 -13.3647
   -13.2584 -13.2555 -13.2445 -13.2355 -13.2019 -13.1739 -13.1348 -13.0525
    -8.2960  -8.2923  -8.2844  -8.1063  -8.0491  -8.0135  -8.0123  -8.0067
    -8.0053  -8.0042  -8.0039  -8.0029  -7.9989  -7.9957  -7.9589  -7.9579
    -7.9172  -7.8812  -7.8702  -7.8522  -7.8444  -7.8137  -7.7897  -7.7807
    -7.7732  -7.7651  -7.7562  -7.7542  -7.7538  -7.7455  -7.7441  -7.7437
    -7.7346  -7.7207  -7.7122  -7.7093  -7.7034  -7.7005  -7.6981  -7.6911
    -7.6897  -7.6879  -7.6844  -7.6833  -7.6805  -7.6797  -7.6789  -7.6738
    -7.6710  -7.6657  -7.6644  -7.6558  -7.6498  -7.6490  -7.6351  -7.6266
    -7.5941  -7.5939  -7.5851  -7.5755  -7.5538  -7.5183  -7.5150  -7.5108
    -7.4819  -7.4745  -7.4609  -7.4561  -7.4418  -7.4397  -7.4340  -7.4285
    -7.4269  -7.4219  -7.3899  -7.3825  -7.3696  -7.3596  -7.3568  -7.3531
    -7.3356  -7.3281  -7.3266  -7.3190  -7.3178  -7.3171  -7.3091  -7.2972
    -7.2518  -7.2279  -7.1591  -7.1431  -7.0981  -7.0748  -7.0286  -6.9724
    -3.6864  -3.6171  -3.2676  -3.2173  -3.1988  -3.1809  -3.1579  -3.1400
    -3.0947  -3.0250  -2.9002  -2.8158  -2.7963  -2.7868  -2.7811  -2.6855
    -2.6656  -2.6251  -2.6245  -2.6160  -2.5870  -2.5857  -2.5271  -2.5045
    -2.4661  -2.4516  -2.4376  -2.4255  -2.3587  -2.2805  -2.2544  -2.1944
    -2.1299  -2.1207  -2.1120  -2.0970  -2.0627  -2.0456  -2.0421  -2.0340
    -2.0306  -2.0238  -2.0213  -2.0173  -2.0038  -1.9856  -1.9603  -1.9553
    -1.9535  -1.9382  -1.8816  -1.8717  -1.8503  -1.8363  -1.8331  -1.8301
    -1.8295  -1.8182  -1.8085  -1.7971  -1.7867  -1.7805  -1.7755  -1.7715
    -1.7636  -1.7578  -1.7490  -1.7459  -1.7443  -1.7315  -1.7135  -1.6896
    -1.6797  -1.6725  -1.6693  -1.6660  -1.6651  -1.6535  -1.6533  -1.6399
    -1.6338  -1.6124  -1.5966  -1.5921  -1.5873  -1.5871  -1.5845  -1.5836
    -1.5834  -1.5766  -1.5708  -1.5600  -1.5525  -1.5470  -1.5458  -1.5337
    -1.5175  -1.5143  -1.5009  -1.4989  -1.4902  -1.4895  -1.4852  -1.4786
    -1.4770  -1.4714  -1.4600  -1.4511  -1.4455  -1.4430  -1.4345  -1.4301
    -1.4196  -1.3997  -1.3970  -1.3946  -1.3847  -1.3801  -1.3692  -1.3515
    -1.3499  -1.3364  -1.3258  -1.3225  -1.3148  -1.3089  -1.3026  -1.2733
    -1.2481  -1.1973  -1.1883  -1.1600  -1.0585  -1.0157  -1.0129  -0.9800
    -0.9633  -0.9460  -0.9341  -0.9321  -0.9213  -0.9054  -0.8926  -0.8901
    -0.8452  -0.8009  -0.7925  -0.7629  -0.7340  -0.6878  -0.6828  -0.6614
    -0.6578  -0.6564  -0.6483  -0.6452  -0.6320  -0.6183  -0.6176  -0.6061
    -0.6054  -0.5970  -0.5860  -0.5850  -0.5677  -0.5551  -0.5522  -0.5470
    -0.5305  -0.5268  -0.5156  -0.5131  -0.4844  -0.4838  -0.4723  -0.4605
    -0.4594  -0.4591  -0.4537  -0.4512  -0.4280  -0.4205  -0.4187  -0.4159
    -0.4061  -0.4020  -0.3853  -0.3820  -0.3784  -0.3755  -0.3671  -0.3616
    -0.3613  -0.3511  -0.3484  -0.3427  -0.3263  -0.3212  -0.3198  -0.3149
    -0.3103  -0.3036  -0.3018  -0.3001  -0.2993  -0.2930  -0.2920  -0.2867
    -0.2836  -0.2769  -0.2769  -0.2759  -0.2538  -0.2533  -0.2431  -0.2257
    -0.2251  -0.2248  -0.2167  -0.2103  -0.2033  -0.1870  -0.1729  -0.1593
    -0.1557  -0.1380  -0.1348  -0.1330  -0.1288  -0.1249  -0.1216  -0.1175
    -0.1091  -0.0980  -0.0859  -0.0793  -0.0473  -0.0410  -0.0337  -0.0304
    -0.0269  -0.0248  -0.0242  -0.0153  -0.0112  -0.0106  -0.0064  -0.0039
     0.0103   0.0106   0.0174   0.0414   0.0421   0.0480   0.0597   0.0615
     0.0683   0.0702   0.1219   0.1242   0.1285   0.1300   0.1361   0.1442
     0.1535   0.1612   0.1623   0.1649   0.1695   0.1781   0.1824   0.2002
     0.2014   0.2050   0.2060   0.2244   0.2987   0.3097   0.3340   0.3474
     0.3642   0.3717   0.3976   0.4104   0.4208   0.4416   0.4546   0.4732
     0.4840   0.4846   0.4982   0.5512   0.5558   0.5618   0.5620   0.5691
     0.5711   0.5799   0.5921   0.5941   0.5992   0.6023   0.6090   0.6107
     0.6222   0.6285   0.6363   0.6422   0.6452   0.6505   0.6506   0.6650
     0.6692   0.6708   0.6796   0.6822   0.6840   0.6845   0.6901   0.6961
     0.6979   0.7025   0.7121   0.7141   0.7264   0.7328   0.7381   0.7395
     0.7501   0.7568   0.7699   0.7750   0.7818   0.7854   0.7941   0.7958
     0.8045   0.8067   0.8221   0.8232   0.8339   0.8389   0.8532   0.8560
     0.8589   0.8629   0.9003   0.9102   0.9145   0.9165   0.9271   0.9481
     0.9580   0.9697   0.9937   1.0174   1.0176   1.0293   1.0344   1.0402
     1.0477   1.0600   1.0839   1.0872   1.0932   1.1135   1.1160   1.1182
     1.1278   1.1315   1.1470   1.1489   1.1523   1.1623   1.1706   1.1848
     1.1891   1.2040   1.2081   1.2100   1.2423   1.2496   1.2513   1.2698
[...]
     atom   58 type  5   force =     0.00030305    0.00000000   -0.00002086
     atom   59 type  5   force =    -0.00030305    0.00000000   -0.00002086
     atom   60 type  5   force =     0.00000000    0.00000000    0.00042750
     atom   61 type  5   force =     0.00000000    0.00000000   -0.00011652
     atom   62 type  5   force =     0.00000000    0.00000000   -0.00011652
     atom   63 type  5   force =     0.00000000    0.00001311   -0.00018609
     atom   64 type  5   force =     0.00000000   -0.00001311   -0.00018609
     atom   65 type  4   force =    -0.00027782    0.00007082    0.00008001
     atom   66 type  4   force =    -0.00027782   -0.00007082    0.00008001
     atom   67 type  4   force =     0.00027782    0.00007082    0.00008001
     atom   68 type  4   force =     0.00027782   -0.00007082    0.00008001
     atom   69 type  4   force =     0.00000000   -0.00020971   -0.00029782
     atom   70 type  4   force =     0.00000000    0.00020971   -0.00029782
     atom   71 type  4   force =    -0.00010803   -0.00001577    0.00011805
     atom   72 type  4   force =    -0.00010803    0.00001577    0.00011805
     atom   73 type  4   force =     0.00010803    0.00001577    0.00011805
     atom   74 type  4   force =     0.00010803   -0.00001577    0.00011805
     atom   75 type  4   force =     0.00018740    0.00000000    0.00004378
     atom   76 type  4   force =    -0.00018740    0.00000000    0.00004378
     atom   77 type  4   force =     0.00000000   -0.00031624    0.00068408
     atom   78 type  4   force =     0.00000000    0.00031624    0.00068408
     atom   79 type  4   force =     0.00012622    0.00000000   -0.00029986
     atom   80 type  4   force =    -0.00012622    0.00000000   -0.00029986
     atom   81 type  3   force =     0.00011350   -0.00004754   -0.00031667
     atom   82 type  3   force =     0.00011350    0.00004754   -0.00031667
     atom   83 type  3   force =    -0.00011350   -0.00004754   -0.00031667
     atom   84 type  3   force =    -0.00011350    0.00004754   -0.00031667
     atom   85 type  3   force =     0.00005157   -0.00003744   -0.00029152
     atom   86 type  3   force =    -0.00005157   -0.00003744   -0.00029152
     atom   87 type  3   force =    -0.00005157    0.00003744   -0.00029152
     atom   88 type  3   force =     0.00005157    0.00003744   -0.00029152
     atom   89 type  1   force =     0.00000000    0.00000000   -0.00074680
     atom   90 type  1   force =     0.00000000   -0.00014382   -0.00131920
     atom   91 type  1   force =     0.00000000    0.00014382   -0.00131920
     atom   92 type  1   force =    -0.00030384    0.00000000   -0.00070854
     atom   93 type  1   force =     0.00030384    0.00000000   -0.00070854
     atom   94 type  1   force =     0.00000000    0.00000000   -0.00119788
     atom   95 type  1   force =     0.00000000    0.00000000   -0.00119788
     atom   96 type  1   force =     0.00000000    0.00000000   -0.00081691
     atom   97 type  4   force =    -0.00010418   -0.00009691    0.00066891
     atom   98 type  4   force =    -0.00010418    0.00009691    0.00066891
     atom   99 type  4   force =     0.00010418   -0.00009691    0.00066891
     atom  100 type  4   force =     0.00010418    0.00009691    0.00066891
     atom  101 type  4   force =     0.00003247   -0.00044118    0.00106301
     atom  102 type  4   force =    -0.00003247   -0.00044118    0.00106301
     atom  103 type  4   force =    -0.00003247    0.00044118    0.00106301
     atom  104 type  4   force =     0.00003247    0.00044118    0.00106301
     atom  105 type  4   force =    -0.00003904    0.00000000    0.00430853
     atom  106 type  4   force =     0.00003904    0.00000000    0.00430853
     atom  107 type  3   force =    -0.00056212   -0.00018345   -0.00086818
     atom  108 type  3   force =    -0.00056212    0.00018345   -0.00086818
     atom  109 type  3   force =     0.00056212    0.00018345   -0.00086818
     atom  110 type  3   force =     0.00056212   -0.00018345   -0.00086818
     atom  111 type  3   force =    -0.00093826   -0.00010774   -0.00018127
     atom  112 type  3   force =     0.00093826    0.00010774   -0.00018127
     atom  113 type  3   force =    -0.00093826    0.00010774   -0.00018127
     atom  114 type  3   force =     0.00093826   -0.00010774   -0.00018127
     atom  115 type  4   force =     0.00020849   -0.00059765    0.00468812
     atom  116 type  4   force =    -0.00020849   -0.00059765    0.00468812
     atom  117 type  4   force =     0.00020849    0.00059765    0.00468812
     atom  118 type  4   force =    -0.00020849    0.00059765    0.00468812
     atom  119 type  4   force =     0.00139957    0.00000000    0.00446466
     atom  120 type  4   force =    -0.00139957    0.00000000    0.00446466
     atom  121 type  4   force =    -0.00278464   -0.00202661    0.00564109
     atom  122 type  4   force =     0.00278464   -0.00202661    0.00564109
     atom  123 type  4   force =     0.00278464    0.00202661    0.00564109
     atom  124 type  4   force =    -0.00278464    0.00202661    0.00564109
     atom  125 type  4   force =     0.00091441   -0.00073254    0.00430275
     atom  126 type  4   force =     0.00091441    0.00073254    0.00430275
     atom  127 type  4   force =    -0.00091441   -0.00073254    0.00430275
     atom  128 type  4   force =    -0.00091441    0.00073254    0.00430275
     atom  129 type  1   force =     0.00000000    0.00000000    0.01070957
     atom  130 type  1   force =     0.00000000    0.00000000    0.01169695
     atom  131 type  1   force =     0.00000000    0.00000000    0.01169695
     atom  132 type  1   force =     0.00001731    0.00000000    0.01570758
     atom  133 type  1   force =    -0.00001731    0.00000000    0.01570758
     atom  134 type  1   force =     0.00000000   -0.00004377    0.01397525
     atom  135 type  1   force =     0.00000000    0.00004377    0.01397525
     atom  136 type  1   force =     0.00000000    0.00000000    0.02443455
     atom  137 type  3   force =     0.00021217    0.00023904    0.00318063
     atom  138 type  3   force =     0.00021217   -0.00023904    0.00318063
     atom  139 type  3   force =    -0.00021217   -0.00023904    0.00318063
     atom  140 type  3   force =    -0.00021217    0.00023904    0.00318063
     atom  141 type  3   force =    -0.00205211    0.00252877    0.00068332
     atom  142 type  3   force =    -0.00205211   -0.00252877    0.00068332
     atom  143 type  3   force =     0.00205211    0.00252877    0.00068332
     atom  144 type  3   force =     0.00205211   -0.00252877    0.00068332
     atom  145 type  4   force =    -0.00037751    0.00000000   -0.00570646
     atom  146 type  4   force =     0.00037751    0.00000000   -0.00570646
     atom  147 type  4   force =     0.00000000    0.00039336   -0.00809841
     atom  148 type  4   force =     0.00000000   -0.00039336   -0.00809841
     atom  149 type  4   force =     0.00011242    0.00000000   -0.00467594
     atom  150 type  4   force =    -0.00011242    0.00000000   -0.00467594
     atom  151 type  4   force =    -0.00059203    0.00048421   -0.00293095
     atom  152 type  4   force =     0.00059203    0.00048421   -0.00293095
     atom  153 type  4   force =     0.00059203   -0.00048421   -0.00293095
     atom  154 type  4   force =    -0.00059203   -0.00048421   -0.00293095
     atom  155 type  4   force =     0.00000000   -0.00085033   -0.00416938
     atom  156 type  4   force =     0.00000000    0.00085033   -0.00416938
     atom  157 type  4   force =     0.00092973    0.00021346   -0.00437273
     atom  158 type  4   force =    -0.00092973   -0.00021346   -0.00437273
     atom  159 type  4   force =     0.00092973   -0.00021346   -0.00437273
     atom  160 type  4   force =    -0.00092973    0.00021346   -0.00437273
     atom  161 type  2   force =     0.00000000    0.00000000   -0.01802490
     atom  162 type  5   force =     0.00005570    0.00000000   -0.02078499
     atom  163 type  5   force =    -0.00005570    0.00000000   -0.02078499
     atom  164 type  5   force =     0.00000000    0.00000000   -0.01872455
     atom  165 type  5   force =     0.00000000    0.00000000   -0.01922165
     atom  166 type  5   force =     0.00000000    0.00000000   -0.01922165
     atom  167 type  5   force =     0.00000000   -0.00035091   -0.01991379
     atom  168 type  5   force =     0.00000000    0.00035091   -0.01991379
     atom  169 type  4   force =    -0.00014383    0.00002029    0.00163873
     atom  170 type  4   force =    -0.00014383   -0.00002029    0.00163873
     atom  171 type  4   force =     0.00014383    0.00002029    0.00163873
     atom  172 type  4   force =     0.00014383   -0.00002029    0.00163873
     atom  173 type  4   force =     0.00000000    0.00005660    0.00160977
     atom  174 type  4   force =     0.00000000   -0.00005660    0.00160977
     atom  175 type  4   force =    -0.00001665    0.00001475    0.00130608
     atom  176 type  4   force =    -0.00001665   -0.00001475    0.00130608
     atom  177 type  4   force =     0.00001665   -0.00001475    0.00130608
     atom  178 type  4   force =     0.00001665    0.00001475    0.00130608
     atom  179 type  4   force =    -0.00004317    0.00000000    0.00113014
     atom  180 type  4   force =     0.00004317    0.00000000    0.00113014
     atom  181 type  4   force =     0.00000000   -0.00015563    0.00180471
     atom  182 type  4   force =     0.00000000    0.00015563    0.00180471
     atom  183 type  4   force =     0.00007356    0.00000000    0.00166644
     atom  184 type  4   force =    -0.00007356    0.00000000    0.00166644
     atom  185 type  3   force =    -0.00001025    0.00014535    0.00088373
     atom  186 type  3   force =    -0.00001025   -0.00014535    0.00088373
     atom  187 type  3   force =     0.00001025    0.00014535    0.00088373
     atom  188 type  3   force =     0.00001025   -0.00014535    0.00088373
     atom  189 type  3   force =     0.00003466    0.00001248    0.00080191
     atom  190 type  3   force =    -0.00003466    0.00001248    0.00080191
     atom  191 type  3   force =    -0.00003466   -0.00001248    0.00080191
     atom  192 type  3   force =     0.00003466   -0.00001248    0.00080191
     atom  193 type  1   force =     0.00000000    0.00000000   -0.00040071
     atom  194 type  1   force =     0.00000000   -0.00007829   -0.00019343
     atom  195 type  1   force =     0.00000000    0.00007829   -0.00019343
     atom  196 type  1   force =     0.00019428    0.00000000   -0.00044352
     atom  197 type  1   force =    -0.00019428    0.00000000   -0.00044352
     atom  198 type  1   force =     0.00000000    0.00000000   -0.00033889
     atom  199 type  1   force =     0.00000000    0.00000000   -0.00033889
     atom  200 type  1   force =     0.00000000    0.00000000   -0.00037820
     atom  201 type  4   force =     0.00002601    0.00008726    0.00019201
     atom  202 type  4   force =     0.00002601   -0.00008726    0.00019201
     atom  203 type  4   force =    -0.00002601    0.00008726    0.00019201
     atom  204 type  4   force =    -0.00002601   -0.00008726    0.00019201
     atom  205 type  4   force =     0.00003154    0.00004839    0.00024051
     atom  206 type  4   force =    -0.00003154    0.00004839    0.00024051
     atom  207 type  4   force =    -0.00003154   -0.00004839    0.00024051
     atom  208 type  4   force =     0.00003154   -0.00004839    0.00024051
     atom  209 type  4   force =     0.00011418    0.00000000   -0.00001299
     atom  210 type  4   force =    -0.00011418    0.00000000   -0.00001299
     atom  211 type  3   force =     0.00009266   -0.00005692   -0.00014464
     atom  212 type  3   force =     0.00009266    0.00005692   -0.00014464
     atom  213 type  3   force =    -0.00009266    0.00005692   -0.00014464
     atom  214 type  3   force =    -0.00009266   -0.00005692   -0.00014464
     atom  215 type  3   force =    -0.00000329   -0.00003330   -0.00001375
     atom  216 type  3   force =     0.00000329    0.00003330   -0.00001375
     atom  217 type  3   force =    -0.00000329    0.00003330   -0.00001375
     atom  218 type  3   force =     0.00000329   -0.00003330   -0.00001375
     atom  219 type  4   force =    -0.00010478    0.00005153    0.00004892
     atom  220 type  4   force =     0.00010478    0.00005153    0.00004892
     atom  221 type  4   force =    -0.00010478   -0.00005153    0.00004892
     atom  222 type  4   force =     0.00010478   -0.00005153    0.00004892
     atom  223 type  4   force =    -0.00016480    0.00000000    0.00001933
     atom  224 type  4   force =     0.00016480    0.00000000    0.00001933

     Total force =     0.076951     Total SCF correction =     0.000403


     Computing stress (Cartesian axis) and pressure


     negative rho (up, down):  6.353E-01 0.000E+00
          total   stress  (Ry/bohr**3)                   (kbar)     P=       -4.82
  -0.00003483  -0.00000000   0.00000000           -5.12       -0.00        0.00
  -0.00000000  -0.00002383   0.00000000           -0.00       -3.51        0.00
   0.00000000   0.00000000  -0.00003970            0.00        0.00       -5.84

 
     init_run     :     53.51s CPU     56.41s WALL (       1 calls)
     electrons    :   4687.78s CPU   4898.65s WALL (       1 calls)
     forces       :     38.44s CPU     41.28s WALL (       1 calls)
     stress       :    741.50s CPU    748.90s WALL (       1 calls)

     Called by init_run:
     wfcinit      :     42.57s CPU     44.04s WALL (       1 calls)
     potinit      :      1.55s CPU      1.61s WALL (       1 calls)
     hinit0       :      2.93s CPU      2.99s WALL (       1 calls)

     Called by electrons:
     c_bands      :   3930.61s CPU   4021.28s WALL (      40 calls)
     sum_band     :    522.16s CPU    590.72s WALL (      40 calls)
     v_of_rho     :     12.18s CPU     12.37s WALL (      41 calls)
     newd         :     82.17s CPU    133.56s WALL (      41 calls)
     mix_rho      :    141.05s CPU    142.06s WALL (      40 calls)

     Called by c_bands:
     init_us_2    :     17.28s CPU     17.82s WALL (     332 calls)
     cegterg      :   3847.69s CPU   3931.94s WALL (     160 calls)

     Called by sum_band:
     sum_band:bec :      4.47s CPU      4.48s WALL (     160 calls)
     addusdens    :     90.88s CPU    154.23s WALL (      40 calls)

     Called by *egterg:
     h_psi        :   1593.82s CPU   1624.73s WALL (    1124 calls)
     s_psi        :    441.57s CPU    452.96s WALL (    1124 calls)
     g_psi        :      2.65s CPU      2.67s WALL (     960 calls)
     cdiaghg      :    806.50s CPU    810.11s WALL (    1120 calls)

     Called by h_psi:
     h_psi:calbec :    476.20s CPU    479.15s WALL (    1124 calls)
     vloc_psi     :    670.08s CPU    678.34s WALL (    1124 calls)
     add_vuspsi   :    443.33s CPU    455.07s WALL (    1124 calls)

     General routines
     calbec       :    730.32s CPU    734.56s WALL (    1304 calls)
     fft          :     12.82s CPU     12.91s WALL (     556 calls)
     ffts         :     82.47s CPU     83.09s WALL (   30126 calls)
     fftw         :    730.13s CPU    738.83s WALL (  911636 calls)
     interpolate  :      1.06s CPU      1.08s WALL (      41 calls)
 
     Parallel routines
     fft_scatt_xy :    117.68s CPU    118.97s WALL (  942318 calls)
     fft_scatt_yz :    437.84s CPU    443.49s WALL (  942318 calls)
 
     PWSCF        :      1h32m CPU      1h35m WALL

 
   This run was terminated on:  14:12: 0  17May2021            

=------------------------------------------------------------------------------=
   JOB DONE.
=------------------------------------------------------------------------------=
[1621275120.717504] [holy7c08610:273269:0]          mpool.c:43   UCX  WARN  object 0x2b07100 was not returned to mpool ucp_requests
[1621275120.720994] [holy7c08506:143730:0]          mpool.c:43   UCX  WARN  object 0x4845440 was not returned to mpool ucp_requests
[1621275120.723423] [holy7c08608:221971:0]          mpool.c:43   UCX  WARN  object 0x5c15b80 was not returned to mpool ucp_requests
[1621275120.723554] [holy7c08506:143728:0]          mpool.c:43   UCX  WARN  object 0x41cb180 was not returned to mpool ucp_requests
[1621275120.727460] [holy7c08506:143736:0]          mpool.c:43   UCX  WARN  object 0x38764c0 was not returned to mpool ucp_requests
[1621275120.741496] [holy7c08609:80395:0]          mpool.c:43   UCX  WARN  object 0x2c31e00 was not returned to mpool ucp_requests
[1621275120.719817] [holy7c08610:273271:0]          mpool.c:43   UCX  WARN  object 0x2ad8cc0 was not returned to mpool ucp_requests
[1621275120.724798] [holy7c08610:273279:0]          mpool.c:43   UCX  WARN  object 0x4bbcc00 was not returned to mpool ucp_requests
[1621275120.724836] [holy7c08610:273270:0]          mpool.c:43   UCX  WARN  object 0x34ff440 was not returned to mpool ucp_requests
[1621275120.728964] [holy7c08610:273278:0]          mpool.c:43   UCX  WARN  object 0x36b8680 was not returned to mpool ucp_requests
[1621275120.730734] [holy7c08610:273268:0]          mpool.c:43   UCX  WARN  object 0x3bb1640 was not returned to mpool ucp_requests
[1621275120.728187] [holy7c08610:273277:0]          mpool.c:43   UCX  WARN  object 0x59837c0 was not returned to mpool ucp_requests
[1621275120.751671] [holy7c08610:273276:0]          mpool.c:43   UCX  WARN  object 0x577d480 was not returned to mpool ucp_requests
[1621275120.728958] [holy7c08608:221979:0]          mpool.c:43   UCX  WARN  object 0x3341d80 was not returned to mpool ucp_requests
[1621275120.728988] [holy7c08608:221979:0]          mpool.c:43   UCX  WARN  object 0x3342b80 was not returned to mpool ucp_requests
[1621275120.729170] [holy7c08608:221970:0]          mpool.c:43   UCX  WARN  object 0x473a5c0 was not returned to mpool ucp_requests
[1621275120.732495] [holy7c08608:221978:0]          mpool.c:43   UCX  WARN  object 0x2daf500 was not returned to mpool ucp_requests
[1621275120.738516] [holy7c08608:221973:0]          mpool.c:43   UCX  WARN  object 0x3d10ac0 was not returned to mpool ucp_requests
[1621275120.739610] [holy7c08608:221972:0]          mpool.c:43   UCX  WARN  object 0x34d4000 was not returned to mpool ucp_requests
[1621275120.741437] [holy7c08608:221981:0]          mpool.c:43   UCX  WARN  object 0x2df2f40 was not returned to mpool ucp_requests
[1621275120.742843] [holy7c08608:221980:0]          mpool.c:43   UCX  WARN  object 0x43edd80 was not returned to mpool ucp_requests
[1621275120.743713] [holy7c08608:221965:0]          mpool.c:43   UCX  WARN  object 0x3ec6dc0 was not returned to mpool ucp_requests
[1621275120.733389] [holy7c08506:143729:0]          mpool.c:43   UCX  WARN  object 0x5aa6440 was not returned to mpool ucp_requests
[1621275120.738271] [holy7c08506:143735:0]          mpool.c:43   UCX  WARN  object 0x2c11140 was not returned to mpool ucp_requests
[1621275120.745708] [holy7c08609:80396:0]          mpool.c:43   UCX  WARN  object 0x337af40 was not returned to mpool ucp_requests
[1621275120.749204] [holy7c08609:80405:0]          mpool.c:43   UCX  WARN  object 0x2b38600 was not returned to mpool ucp_requests
[1621275120.752617] [holy7c08609:80394:0]          mpool.c:43   UCX  WARN  object 0x3c07d40 was not returned to mpool ucp_requests
[1621275120.752559] [holy7c08609:80397:0]          mpool.c:43   UCX  WARN  object 0x4534640 was not returned to mpool ucp_requests
[1621275120.756474] [holy7c08609:80403:0]          mpool.c:43   UCX  WARN  object 0x3da2ac0 was not returned to mpool ucp_requests
[1621275120.762997] [holy7c08609:80402:0]          mpool.c:43   UCX  WARN  object 0x302e940 was not returned to mpool ucp_requests
[1621275120.757185] [holy7c08609:80404:0]          mpool.c:43   UCX  WARN  object 0x2c1c240 was not returned to mpool ucp_requests
[1621275120.745681] [holy7c08506:143737:0]          mpool.c:43   UCX  WARN  object 0x30f9400 was not returned to mpool ucp_requests
