
     Program PWSCF v.6.5 starts on 17May2021 at 17:59:42 

     This program is part of the open-source Quantum ESPRESSO suite
     for quantum simulation of materials; please cite
         "P. Giannozzi et al., J. Phys.:Condens. Matter 21 395502 (2009);
         "P. Giannozzi et al., J. Phys.:Condens. Matter 29 465901 (2017);
          URL http://www.quantum-espresso.org", 
     in publications or presentations arising from this work. More details at
     http://www.quantum-espresso.org/quote

     Parallel version (MPI), running on    80 processors

     MPI processes distributed on     5 nodes
     R & G space division:  proc/nbgrp/npool/nimage =      80
     Reading input from YBCO_BaO_cleave_1.5_sep.pwi
Warning: card &IONS ignored
Warning: card     ION_DYNAMICS = 'BFGS' ignored
Warning: card / ignored
Warning: card &CELL ignored
Warning: card     CELL_DYNAMICS = 'BFGS' ignored
Warning: card     PRESS_CONV_THR = 5 ignored
Warning: card / ignored

     Current dimensions of program PWSCF are:
     Max number of different atomic species (ntypx) = 10
     Max number of k-points (npk) =  40000
     Max angular momentum in pseudopotentials (lmaxx) =  3
     Message from routine volume:
     axis vectors are left-handed

     Subspace diagonalization in iterative solution of the eigenvalue problem:
     one sub-group per band group will be used
     scalapack distributed-memory algorithm (size of sub-group:  8*  8 procs)

     Message from routine setup:
     using ibrav=0 with symmetry is DISCOURAGED, use correct ibrav instead
 
     Parallelization info
     --------------------
     sticks:   dense  smooth     PW     G-vecs:    dense   smooth      PW
     Min         300     100     25               145680    28036    3681
     Max         301     101     26               145717    28055    3718
     Sum       24079    8031   2067             11656413  2243513  296475
 


     bravais-lattice index     =            0
     lattice parameter (alat)  =      20.5021  a.u.
     unit-cell volume          =   35726.4460 (a.u.)^3
     number of atoms/cell      =          224
     number of atomic types    =            5
     number of electrons       =      1830.00
     number of Kohn-Sham states=         1098
     kinetic-energy cutoff     =      60.0000  Ry
     charge density cutoff     =     720.0000  Ry
     convergence threshold     =      1.0E-08
     mixing beta               =       0.5000
     number of iterations used =           10  local-TF  mixing
     Exchange-correlation= SLA PW PBE PBE
                           (   1   4   3   4   0   0   0)

     celldm(1)=  20.502120  celldm(2)=   0.000000  celldm(3)=   0.000000
     celldm(4)=   0.000000  celldm(5)=   0.000000  celldm(6)=   0.000000

     crystal axes: (cart. coord. in units of alat)
               a(1) = (  -0.716599   0.697485   0.000000 )  
               a(2) = (   0.716599   0.697485   0.000000 )  
               a(3) = (   0.000000   0.000000   4.147173 )  

     reciprocal axes: (cart. coord. in units 2 pi/alat)
               b(1) = ( -0.697740  0.716861  0.000000 )  
               b(2) = (  0.697740  0.716861  0.000000 )  
               b(3) = (  0.000000  0.000000  0.241128 )  


     PseudoPot. # 1 for Ba read from file:
     ./pseudo/Ba.pbe-nsp-van.UPF
     MD5 check sum: 2b9c31dd849566dd297d80989662b7a0
     Pseudo is Ultrasoft + core correction, Zval = 10.0
     Generated by new atomic code, or converted to UPF format
     Using radial grid of  907 points,  6 beta functions with: 
                l(1) =   0
                l(2) =   0
                l(3) =   1
                l(4) =   1
                l(5) =   2
                l(6) =   2
     Q(r) pseudized with  6 coefficients,  rinner =    1.200   1.200   1.200
                                                       1.200   1.200

     PseudoPot. # 2 for Ca read from file:
     ./pseudo/Ca.pbe-nsp-van.UPF
     MD5 check sum: 6471098428ff4fa451746d08035ff179
     Pseudo is Ultrasoft + core correction, Zval = 10.0
     Generated by new atomic code, or converted to UPF format
     Using radial grid of  845 points,  6 beta functions with: 
                l(1) =   0
                l(2) =   0
                l(3) =   1
                l(4) =   1
                l(5) =   2
                l(6) =   2
     Q(r) pseudized with  6 coefficients,  rinner =    1.200   1.200   1.200
                                                       1.200   1.200

     PseudoPot. # 3 for Cu read from file:
     ./pseudo/Cu.pbe-n-van_ak.UPF
     MD5 check sum: 34e3282627ffb533726feb647e090d62
     Pseudo is Ultrasoft + core correction, Zval = 11.0
     Generated by new atomic code, or converted to UPF format
     Using radial grid of  867 points,  6 beta functions with: 
                l(1) =   0
                l(2) =   0
                l(3) =   1
                l(4) =   1
                l(5) =   2
                l(6) =   2
     Q(r) pseudized with  8 coefficients,  rinner =    1.400   1.400   1.400
                                                       1.400   1.400

     PseudoPot. # 4 for O  read from file:
     ./pseudo/O.pbe-van_ak.UPF
     MD5 check sum: 783ce7fe4c79b6a4916957118fed0856
     Pseudo is Ultrasoft, Zval =  6.0
     Generated by new atomic code, or converted to UPF format
     Using radial grid of  737 points,  4 beta functions with: 
                l(1) =   0
                l(2) =   0
                l(3) =   1
                l(4) =   1
     Q(r) pseudized with  8 coefficients,  rinner =    0.800   0.800   0.800


     PseudoPot. # 5 for Y  read from file:
     ./pseudo/Y.pbe-nsp-van.UPF
     MD5 check sum: 4412fed3ab108fed87a1b7d6a69a4a38
     Pseudo is Ultrasoft + core correction, Zval = 11.0
     Generated by new atomic code, or converted to UPF format
     Using radial grid of  885 points,  6 beta functions with: 
                l(1) =   0
                l(2) =   0
                l(3) =   1
                l(4) =   1
                l(5) =   2
                l(6) =   2
     Q(r) pseudized with  6 coefficients,  rinner =    1.200   1.200   1.200
                                                       1.200   1.200

     atomic species   valence    mass     pseudopotential
        Ba            10.00   137.32700     Ba( 1.00)
        Ca            10.00    40.07800     Ca( 1.00)
        Cu            11.00    63.54600     Cu( 1.00)
        O              6.00    15.99900     O ( 1.00)
        Y             11.00    88.90584     Y ( 1.00)

      4 Sym. Ops. (no inversion) found ( 3 have fractional translation)



   Cartesian axes

     site n.     atom                  positions (alat units)
         1           O   tau(   1) = (   0.3545921   0.8718562  -0.0077406  )
         2           O   tau(   2) = (   0.0037072   0.8718562  -0.0077406  )
         3           Cu  tau(   3) = (  -0.0002581   0.0006065   0.0080789  )
         4           Cu  tau(   4) = (  -0.0002581   0.3481364   0.0080789  )
         5           Cu  tau(   5) = (   0.3585574   0.3481364   0.0080789  )
         6           Cu  tau(   6) = (  -0.3580421   0.6980913   0.0080789  )
         7           Cu  tau(   7) = (   0.3577988   0.6971373   0.0086255  )
         8           Cu  tau(   8) = (   0.0005005   1.0465760   0.0086255  )
         9           Cu  tau(   9) = (  -0.3588016   0.3490903   0.0086255  )
        10           Cu  tau(  10) = (   0.0005005   0.6971373   0.0086255  )
        11           O   tau(  11) = (  -0.0001733   0.5225410  -0.0089757  )
        12           O   tau(  12) = (   0.3584726   0.5225410  -0.0089757  )
        13           O   tau(  13) = (  -0.0001733   1.2211724  -0.0089757  )
        14           O   tau(  14) = (  -0.3581278   0.5236867  -0.0089757  )
        15           O   tau(  15) = (  -0.3544557   0.8718562  -0.0105593  )
        16           O   tau(  16) = (  -0.0038445   0.1743714  -0.0105593  )
        17           O   tau(  17) = (   0.3588818   0.3486599   0.1817056  )
        18           O   tau(  18) = (  -0.0005825   0.3486599   0.1817056  )
        19           O   tau(  19) = (  -0.0005825   0.0000830   0.1817056  )
        20           O   tau(  20) = (  -0.3577167   0.6975677   0.1817056  )
        21           O   tau(  21) = (   0.3584283   0.6967843   0.1825784  )
        22           O   tau(  22) = (  -0.3581712   0.3494443   0.1825784  )
        23           O   tau(  23) = (  -0.0001290   0.6967843   0.1825784  )
        24           O   tau(  24) = (  -0.0001290   1.0469291   0.1825784  )
        25           Ba  tau(  25) = (   0.1791506   0.8718562   0.1908537  )
        26           Ba  tau(  26) = (   0.5374498   0.5231143   0.1919901  )
        27           Ba  tau(  27) = (  -0.1791506   0.5231143   0.1919901  )
        28           Ba  tau(  28) = (  -0.1793773   0.8718562   0.1931958  )
        29           Ba  tau(  29) = (  -0.1789238   0.1743714   0.1931958  )
        30           Ba  tau(  30) = (   0.1791506   0.5222101   0.1929368  )
        31           Ba  tau(  31) = (  -0.5374498   0.5240176   0.1929368  )
        32           Ba  tau(  32) = (   0.1791506   0.1743714   0.1992469  )
        33           Cu  tau(  33) = (  -0.3583426   0.3488452   0.3777458  )
        34           Cu  tau(  34) = (   0.3582559   0.6973834   0.3777458  )
        35           Cu  tau(  35) = (   0.0000433   0.6973834   0.3777458  )
        36           Cu  tau(  36) = (   0.0000433   1.0463299   0.3777458  )
        37           Cu  tau(  37) = (  -0.3586541   0.6975060   0.3775126  )
        38           Cu  tau(  38) = (   0.3579444   0.3487217   0.3775126  )
        39           Cu  tau(  39) = (   0.0003549   0.0000212   0.3775126  )
        40           Cu  tau(  40) = (   0.0003549   0.3487217   0.3775126  )
        41           O   tau(  41) = (  -0.0047976   0.1743714   0.3996864  )
        42           O   tau(  42) = (  -0.3535026   0.8718562   0.3996864  )
        43           O   tau(  43) = (  -0.5374498   0.6924605   0.3956991  )
        44           O   tau(  44) = (   0.1791506   0.3537672   0.3956991  )
        45           O   tau(  45) = (   0.3586385   0.8718562   0.4046840  )
        46           O   tau(  46) = (  -0.0003392   0.8718562   0.4046840  )
        47           O   tau(  47) = (  -0.0004857   0.5230571   0.4066611  )
        48           O   tau(  48) = (   0.3587850   0.5230571   0.4066611  )
        49           O   tau(  49) = (  -0.3578135   0.5231714   0.4066611  )
        50           O   tau(  50) = (  -0.0004857   1.2206562   0.4066611  )
        51           O   tau(  51) = (   0.1791506   1.0461604   0.4028931  )
        52           O   tau(  52) = (   0.1791506   0.6975521   0.4028931  )
        53           O   tau(  53) = (  -0.1792261   0.6967170   0.4025963  )
        54           O   tau(  54) = (  -0.1790731   0.3495106   0.4025963  )
        55           O   tau(  55) = (  -0.1792261   1.0469964   0.4025963  )
        56           O   tau(  56) = (   0.5375263   0.6967170   0.4025963  )
        57           Ca  tau(  57) = (   0.1791506   0.1743714   0.5358617  )
        58           Y   tau(  58) = (  -0.1811525   0.8718562   0.5373908  )
        59           Y   tau(  59) = (  -0.1771467   0.1743714   0.5373908  )
        60           Y   tau(  60) = (   0.1791506   0.8718562   0.5379568  )
        61           Y   tau(  61) = (   0.5374498   0.5231143   0.5384490  )
        62           Y   tau(  62) = (  -0.1791506   0.5231143   0.5384490  )
        63           Y   tau(  63) = (   0.1791506   0.5216598   0.5383310  )
        64           Y   tau(  64) = (  -0.5374498   0.5245688   0.5383310  )
        65           O   tau(  65) = (  -0.1787754   0.3493171   0.6712314  )
        66           O   tau(  66) = (   0.5378231   0.6969115   0.6712314  )
        67           O   tau(  67) = (  -0.1795239   1.0468019   0.6712314  )
        68           O   tau(  68) = (  -0.1795239   0.6969115   0.6712314  )
        69           O   tau(  69) = (   0.1791506   0.6972691   0.6718637  )
        70           O   tau(  70) = (   0.1791506   1.0464433   0.6718637  )
        71           O   tau(  71) = (  -0.0003880   1.2203935   0.6667490  )
        72           O   tau(  72) = (  -0.0003880   0.5233198   0.6667490  )
        73           O   tau(  73) = (   0.3586882   0.5233198   0.6667490  )
        74           O   tau(  74) = (  -0.3579112   0.5229087   0.6667490  )
        75           O   tau(  75) = (   0.3585850   0.8718562   0.6641940  )
        76           O   tau(  76) = (  -0.0002857   0.8718562   0.6641940  )
        77           O   tau(  77) = (   0.1791506   0.3535118   0.6756778  )
        78           O   tau(  78) = (  -0.5374498   0.6927158   0.6756778  )
        79           O   tau(  79) = (  -0.0043044   0.1743714   0.6710848  )
        80           O   tau(  80) = (  -0.3539948   0.8718562   0.6710848  )
        81           Cu  tau(  81) = (  -0.3586514   0.6973604   0.6974442  )
        82           Cu  tau(  82) = (   0.3579472   0.3488682   0.6974442  )
        83           Cu  tau(  83) = (   0.0003521  -0.0001254   0.6974442  )
        84           Cu  tau(  84) = (   0.0003521   0.3488682   0.6974442  )
        85           Cu  tau(  85) = (   0.0000083   1.0459401   0.6989015  )
        86           Cu  tau(  86) = (  -0.3583076   0.3484544   0.6989015  )
        87           Cu  tau(  87) = (   0.3582910   0.6977733   0.6989015  )
        88           Cu  tau(  88) = (   0.0000083   0.6977733   0.6989015  )
        89           Ba  tau(  89) = (   0.1791506   0.1743714   0.8671591  )
        90           Ba  tau(  90) = (  -0.5374498   0.5239908   0.8827639  )
        91           Ba  tau(  91) = (   0.1791506   0.5222377   0.8827639  )
        92           Ba  tau(  92) = (  -0.1785616   0.1743714   0.8784262  )
        93           Ba  tau(  93) = (  -0.1797386   0.8718562   0.8784262  )
        94           Ba  tau(  94) = (  -0.1791506   0.5231143   0.8841483  )
        95           Ba  tau(  95) = (   0.5374498   0.5231143   0.8841483  )
        96           Ba  tau(  96) = (   0.1791506   0.8718562   0.8844635  )
        97           O   tau(  97) = (   0.3607888   0.6975991   0.9037874  )
        98           O   tau(  98) = (  -0.3558097   0.3486286   0.9037874  )
        99           O   tau(  99) = (  -0.0024896   0.6975991   0.9037874  )
       100           O   tau( 100) = (  -0.0024896   1.0461143   0.9037874  )
       101           O   tau( 101) = (   0.3544087   0.3463252   0.9043663  )
       102           O   tau( 102) = (   0.0038906   0.3463252   0.9043663  )
       103           O   tau( 103) = (   0.0038906   0.0024177   0.9043663  )
       104           O   tau( 104) = (  -0.3621908   0.6999025   0.9043663  )
       105           O   tau( 105) = (   0.3314246   0.8718562   1.0783672  )
       106           O   tau( 106) = (   0.0268747   0.8718562   1.0783672  )
       107           Cu  tau( 107) = (  -0.0027882   0.0031818   1.0782086  )
       108           Cu  tau( 108) = (  -0.0027882   0.3455601   1.0782086  )
       109           Cu  tau( 109) = (   0.3610875   0.3455601   1.0782086  )
       110           Cu  tau( 110) = (  -0.3555111   0.7006675   1.0782086  )
       111           Cu  tau( 111) = (   0.3579684   0.6983604   1.0781976  )
       112           Cu  tau( 112) = (   0.0003318   1.0453529   1.0781976  )
       113           Cu  tau( 113) = (  -0.3586320   0.3478672   1.0781976  )
       114           Cu  tau( 114) = (   0.0003318   0.6983604   1.0781976  )
       115           O   tau( 115) = (  -0.0055718   0.5218801   1.0778989  )
       116           O   tau( 116) = (   0.3638720   0.5218801   1.0778989  )
       117           O   tau( 117) = (  -0.0055718   1.2218333   1.0778989  )
       118           O   tau( 118) = (  -0.3527284   0.5243475   1.0778989  )
       119           O   tau( 119) = (  -0.3170374   0.8718562   1.0783192  )
       120           O   tau( 120) = (  -0.0412618   0.1743714   1.0783192  )
       121           O   tau( 121) = (   0.3544105   0.3465040   1.2520362  )
       122           O   tau( 122) = (   0.0038887   0.3465040   1.2520362  )
       123           O   tau( 123) = (   0.0038887   0.0022389   1.2520362  )
       124           O   tau( 124) = (  -0.3621880   0.6997236   1.2520362  )
       125           O   tau( 125) = (   0.3607981   0.6973991   1.2525976  )
       126           O   tau( 126) = (  -0.3558014   0.3488295   1.2525976  )
       127           O   tau( 127) = (  -0.0024988   0.6973991   1.2525976  )
       128           O   tau( 128) = (  -0.0024988   1.0463143   1.2525976  )
       129           Ba  tau( 129) = (   0.1791506   0.8718562   1.2719528  )
       130           Ba  tau( 130) = (   0.5374498   0.5231143   1.2722763  )
       131           Ba  tau( 131) = (  -0.1791506   0.5231143   1.2722763  )
       132           Ba  tau( 132) = (  -0.1796732   0.8718562   1.2779763  )
       133           Ba  tau( 133) = (  -0.1786270   0.1743714   1.2779763  )
       134           Ba  tau( 134) = (   0.1791506   0.5222571   1.2737041  )
       135           Ba  tau( 135) = (  -0.5374498   0.5239706   1.2737041  )
       136           Ba  tau( 136) = (   0.1791506   0.1743714   1.2892268  )
       137           Cu  tau( 137) = (  -0.3583094   0.3484682   1.5957815  )
       138           Cu  tau( 138) = (   0.3582901   0.6977604   1.5957815  )
       139           Cu  tau( 139) = (   0.0000101   0.6977604   1.5957815  )
       140           Cu  tau( 140) = (   0.0000101   1.0459530   1.5957815  )
       141           Cu  tau( 141) = (  -0.3586477   0.6973567   1.5972019  )
       142           Cu  tau( 142) = (   0.3579518   0.3488710   1.5972019  )
       143           Cu  tau( 143) = (   0.0003484  -0.0001281   1.5972019  )
       144           Cu  tau( 144) = (   0.0003484   0.3488710   1.5972019  )
       145           O   tau( 145) = (  -0.0043173   0.1743714   1.6235069  )
       146           O   tau( 146) = (  -0.3539819   0.8718562   1.6235069  )
       147           O   tau( 147) = (  -0.5374498   0.6927305   1.6189757  )
       148           O   tau( 148) = (   0.1791506   0.3534971   1.6189757  )
       149           O   tau( 149) = (   0.3585795   0.8718562   1.6304171  )
       150           O   tau( 150) = (  -0.0002802   0.8718562   1.6304171  )
       151           O   tau( 151) = (  -0.0003853   0.5233134   1.6279211  )
       152           O   tau( 152) = (   0.3586855   0.5233134   1.6279211  )
       153           O   tau( 153) = (  -0.3579140   0.5229152   1.6279211  )
       154           O   tau( 154) = (  -0.0003853   1.2204000   1.6279211  )
       155           O   tau( 155) = (   0.1791506   1.0464553   1.6227944  )
       156           O   tau( 156) = (   0.1791506   0.6972571   1.6227944  )
       157           O   tau( 157) = (  -0.1795146   0.6969069   1.6234231  )
       158           O   tau( 158) = (  -0.1787846   0.3493208   1.6234231  )
       159           O   tau( 159) = (  -0.1795146   1.0468065   1.6234231  )
       160           O   tau( 160) = (   0.5378139   0.6969069   1.6234231  )
       161           Ca  tau( 161) = (   0.1791506   0.1743714   1.7587853  )
       162           Y   tau( 162) = (  -0.1811544   0.8718562   1.7572544  )
       163           Y   tau( 163) = (  -0.1771449   0.1743714   1.7572544  )
       164           Y   tau( 164) = (   0.1791506   0.8718562   1.7566912  )
       165           Y   tau( 165) = (   0.5374498   0.5231143   1.7562220  )
       166           Y   tau( 166) = (  -0.1791506   0.5231143   1.7562220  )
       167           Y   tau( 167) = (   0.1791506   0.5216524   1.7563428  )
       168           Y   tau( 168) = (  -0.5374498   0.5245761   1.7563428  )
       169           O   tau( 169) = (  -0.1790685   0.3495088   1.8920572  )
       170           O   tau( 170) = (   0.5375300   0.6967198   1.8920572  )
       171           O   tau( 171) = (  -0.1792307   1.0469936   1.8920572  )
       172           O   tau( 172) = (  -0.1792307   0.6967198   1.8920572  )
       173           O   tau( 173) = (   0.1791506   0.6975604   1.8917604  )
       174           O   tau( 174) = (   0.1791506   1.0461521   1.8917604  )
       175           O   tau( 175) = (  -0.0004848   1.2206534   1.8879961  )
       176           O   tau( 176) = (  -0.0004848   0.5230599   1.8879961  )
       177           O   tau( 177) = (   0.3587841   0.5230599   1.8879961  )
       178           O   tau( 178) = (  -0.3578144   0.5231687   1.8879961  )
       179           O   tau( 179) = (   0.3586468   0.8718562   1.8899344  )
       180           O   tau( 180) = (  -0.0003466   0.8718562   1.8899344  )
       181           O   tau( 181) = (   0.1791506   0.3537690   1.8989572  )
       182           O   tau( 182) = (  -0.5374498   0.6924586   1.8989572  )
       183           O   tau( 183) = (  -0.0047874   0.1743714   1.8949219  )
       184           O   tau( 184) = (  -0.3535118   0.8718562   1.8949219  )
       185           Cu  tau( 185) = (  -0.3586560   0.6975087   1.9171280  )
       186           Cu  tau( 186) = (   0.3579435   0.3487198   1.9171280  )
       187           Cu  tau( 187) = (   0.0003567   0.0000230   1.9171280  )
       188           Cu  tau( 188) = (   0.0003567   0.3487198   1.9171280  )
       189           Cu  tau( 189) = (   0.0000415   1.0463263   1.9168957  )
       190           Cu  tau( 190) = (  -0.3583407   0.3488406   1.9168957  )
       191           Cu  tau( 191) = (   0.3582587   0.6973871   1.9168957  )
       192           Cu  tau( 192) = (   0.0000415   0.6973871   1.9168957  )
       193           Ba  tau( 193) = (   0.1791506   0.1743714   2.0954011  )
       194           Ba  tau( 194) = (  -0.5374498   0.5240166   2.1017103  )
       195           Ba  tau( 195) = (   0.1791506   0.5222119   2.1017103  )
       196           Ba  tau( 196) = (  -0.1789220   0.1743714   2.1014541  )
       197           Ba  tau( 197) = (  -0.1793773   0.8718562   2.1014541  )
       198           Ba  tau( 198) = (  -0.1791506   0.5231143   2.1026643  )
       199           Ba  tau( 199) = (   0.5374498   0.5231143   2.1026643  )
       200           Ba  tau( 200) = (   0.1791506   0.8718562   2.1037925  )
       201           O   tau( 201) = (   0.3584302   0.6967870   2.1120622  )
       202           O   tau( 202) = (  -0.3581684   0.3494406   2.1120622  )
       203           O   tau( 203) = (  -0.0001309   0.6967870   2.1120622  )
       204           O   tau( 204) = (  -0.0001309   1.0469263   2.1120622  )
       205           O   tau( 205) = (   0.3588800   0.3486562   2.1129350  )
       206           O   tau( 206) = (  -0.0005807   0.3486562   2.1129350  )
       207           O   tau( 207) = (  -0.0005807   0.0000866   2.1129350  )
       208           O   tau( 208) = (  -0.3577186   0.6975714   2.1129350  )
       209           O   tau( 209) = (   0.3545921   0.8718562   2.3023655  )
       210           O   tau( 210) = (   0.0037081   0.8718562   2.3023655  )
       211           Cu  tau( 211) = (  -0.0002516   0.0006074   2.2865617  )
       212           Cu  tau( 212) = (  -0.0002516   0.3481345   2.2865617  )
       213           Cu  tau( 213) = (   0.3585509   0.3481345   2.2865617  )
       214           Cu  tau( 214) = (  -0.3580476   0.6980931   2.2865617  )
       215           Cu  tau( 215) = (   0.3577960   0.6971373   2.2860151  )
       216           Cu  tau( 216) = (   0.0005033   1.0465760   2.2860151  )
       217           Cu  tau( 217) = (  -0.3588035   0.3490903   2.2860151  )
       218           Cu  tau( 218) = (   0.0005033   0.6971373   2.2860151  )
       219           O   tau( 219) = (  -0.0001724   0.5225410   2.3036043  )
       220           O   tau( 220) = (   0.3584716   0.5225410   2.3036043  )
       221           O   tau( 221) = (  -0.0001724   1.2211724   2.3036043  )
       222           O   tau( 222) = (  -0.3581288   0.5236867   2.3036043  )
       223           O   tau( 223) = (  -0.3544640   0.8718562   2.3051943  )
       224           O   tau( 224) = (  -0.0038353   0.1743714   2.3051943  )

     number of k points=     4  Gaussian smearing, width (Ry)=  0.0100
                       cart. coord. in units 2pi/alat
        k(    1) = (   0.0000000   0.0000000   0.0000000), wk =   0.2222222
        k(    2) = (   0.2325801   0.2389537   0.0000000), wk =   0.8888889
        k(    3) = (   0.0000000   0.4779073   0.0000000), wk =   0.4444444
        k(    4) = (  -0.4651601  -0.0000000   0.0000000), wk =   0.4444444

     Dense  grid: 11656413 G-vectors     FFT dimensions: ( 180, 180, 729)

     Smooth grid:  2243513 G-vectors     FFT dimensions: ( 108, 108, 432)

     Estimated max dynamical RAM per process >       2.44 GB

     Estimated total dynamical RAM >     194.84 GB

     Initial potential from superposition of free atoms

     starting charge 1828.78422, renormalised to 1830.00000

     negative rho (up, down):  6.300E-01 0.000E+00
     Starting wfcs are 1602 randomized atomic wfcs

     total cpu time spent up to now is       58.9 secs

     Self-consistent Calculation

     iteration #  1     ecut=    60.00 Ry     beta= 0.50
     Davidson diagonalization with overlap
     ethr =  1.00E-02,  avg # of iterations =  2.0

     negative rho (up, down):  5.997E-01 0.000E+00

     total cpu time spent up to now is      156.6 secs

     total energy              =  -14912.91527004 Ry
     Harris-Foulkes estimate   =  -14943.45075087 Ry
     estimated scf accuracy    <     115.07640596 Ry

     iteration #  2     ecut=    60.00 Ry     beta= 0.50
     Davidson diagonalization with overlap
     ethr =  6.29E-03,  avg # of iterations =  2.0

     negative rho (up, down):  6.001E-01 0.000E+00

     total cpu time spent up to now is      251.7 secs

     total energy              =  -14922.96309236 Ry
     Harris-Foulkes estimate   =  -14926.92706452 Ry
     estimated scf accuracy    <      24.86300924 Ry

     iteration #  3     ecut=    60.00 Ry     beta= 0.50
     Davidson diagonalization with overlap
     ethr =  1.36E-03,  avg # of iterations =  2.0

     negative rho (up, down):  6.034E-01 0.000E+00

     total cpu time spent up to now is      345.8 secs

     total energy              =  -14924.60078361 Ry
     Harris-Foulkes estimate   =  -14925.62197004 Ry
     estimated scf accuracy    <      29.36590087 Ry

     iteration #  4     ecut=    60.00 Ry     beta= 0.50
     Davidson diagonalization with overlap
     ethr =  1.36E-03,  avg # of iterations =  1.0

     negative rho (up, down):  6.098E-01 0.000E+00

     total cpu time spent up to now is      435.1 secs

     total energy              =  -14924.65644782 Ry
     Harris-Foulkes estimate   =  -14925.11050510 Ry
     estimated scf accuracy    <       7.57557363 Ry

     iteration #  5     ecut=    60.00 Ry     beta= 0.50
     Davidson diagonalization with overlap
     ethr =  4.14E-04,  avg # of iterations =  1.8

     negative rho (up, down):  6.188E-01 0.000E+00

     total cpu time spent up to now is      526.3 secs

     total energy              =  -14924.54885892 Ry
     Harris-Foulkes estimate   =  -14924.93435477 Ry
     estimated scf accuracy    <      13.02050496 Ry

     iteration #  6     ecut=    60.00 Ry     beta= 0.50
     Davidson diagonalization with overlap
     ethr =  4.14E-04,  avg # of iterations =  1.0

     negative rho (up, down):  6.229E-01 0.000E+00

     total cpu time spent up to now is      615.9 secs

     total energy              =  -14924.62899683 Ry
     Harris-Foulkes estimate   =  -14924.72255043 Ry
     estimated scf accuracy    <       3.92575589 Ry

     iteration #  7     ecut=    60.00 Ry     beta= 0.50
     Davidson diagonalization with overlap
     ethr =  2.15E-04,  avg # of iterations = 11.0

     negative rho (up, down):  6.292E-01 0.000E+00

     total cpu time spent up to now is      745.0 secs

     total energy              =  -14924.63103154 Ry
     Harris-Foulkes estimate   =  -14924.68853884 Ry
     estimated scf accuracy    <       3.54777541 Ry

     iteration #  8     ecut=    60.00 Ry     beta= 0.50
     Davidson diagonalization with overlap
     ethr =  1.94E-04,  avg # of iterations =  4.5

     negative rho (up, down):  6.326E-01 0.000E+00

     total cpu time spent up to now is      845.3 secs

     total energy              =  -14924.60212209 Ry
     Harris-Foulkes estimate   =  -14924.66637121 Ry
     estimated scf accuracy    <       2.94486285 Ry

     iteration #  9     ecut=    60.00 Ry     beta= 0.50
     Davidson diagonalization with overlap
     ethr =  1.61E-04,  avg # of iterations =  2.8

     negative rho (up, down):  6.325E-01 0.000E+00

     total cpu time spent up to now is      939.1 secs

     total energy              =  -14924.57095837 Ry
     Harris-Foulkes estimate   =  -14924.62169199 Ry
     estimated scf accuracy    <       1.50101397 Ry

     iteration # 10     ecut=    60.00 Ry     beta= 0.50
     Davidson diagonalization with overlap
     ethr =  8.20E-05,  avg # of iterations = 10.2

     negative rho (up, down):  6.306E-01 0.000E+00

     total cpu time spent up to now is     1062.7 secs

     total energy              =  -14924.55001049 Ry
     Harris-Foulkes estimate   =  -14924.58572479 Ry
     estimated scf accuracy    <       0.64830685 Ry

     iteration # 11     ecut=    60.00 Ry     beta= 0.50
     Davidson diagonalization with overlap
     ethr =  3.54E-05,  avg # of iterations = 12.2

     negative rho (up, down):  6.289E-01 0.000E+00

     total cpu time spent up to now is     1201.0 secs

     total energy              =  -14924.54991655 Ry
     Harris-Foulkes estimate   =  -14924.55976488 Ry
     estimated scf accuracy    <       0.31547515 Ry

     iteration # 12     ecut=    60.00 Ry     beta= 0.50
     Davidson diagonalization with overlap
     ethr =  1.72E-05,  avg # of iterations =  3.0

     negative rho (up, down):  6.269E-01 0.000E+00

     total cpu time spent up to now is     1295.4 secs

     total energy              =  -14924.54753629 Ry
     Harris-Foulkes estimate   =  -14924.55275462 Ry
     estimated scf accuracy    <       0.24311036 Ry

     iteration # 13     ecut=    60.00 Ry     beta= 0.50
     Davidson diagonalization with overlap
     ethr =  1.33E-05,  avg # of iterations =  2.0

     negative rho (up, down):  6.250E-01 0.000E+00

     total cpu time spent up to now is     1386.2 secs

     total energy              =  -14924.54137436 Ry
     Harris-Foulkes estimate   =  -14924.54919131 Ry
     estimated scf accuracy    <       0.28704015 Ry

     iteration # 14     ecut=    60.00 Ry     beta= 0.50
     Davidson diagonalization with overlap
     ethr =  1.33E-05,  avg # of iterations =  5.8

     negative rho (up, down):  6.288E-01 0.000E+00

     total cpu time spent up to now is     1491.0 secs

     total energy              =  -14924.53535806 Ry
     Harris-Foulkes estimate   =  -14924.54257984 Ry
     estimated scf accuracy    <       0.25196032 Ry

     iteration # 15     ecut=    60.00 Ry     beta= 0.50
     Davidson diagonalization with overlap
     ethr =  1.33E-05,  avg # of iterations =  5.5

     negative rho (up, down):  6.348E-01 0.000E+00

     total cpu time spent up to now is     1594.2 secs

     total energy              =  -14924.53072392 Ry
     Harris-Foulkes estimate   =  -14924.53616775 Ry
     estimated scf accuracy    <       0.23148098 Ry

     iteration # 16     ecut=    60.00 Ry     beta= 0.50
     Davidson diagonalization with overlap
     ethr =  1.26E-05,  avg # of iterations = 14.0

     negative rho (up, down):  6.829E-01 0.000E+00

     total cpu time spent up to now is     1726.6 secs

     total energy              =  -14924.51901581 Ry
     Harris-Foulkes estimate   =  -14924.53164739 Ry
     estimated scf accuracy    <       0.23092148 Ry

     iteration # 17     ecut=    60.00 Ry     beta= 0.50
     Davidson diagonalization with overlap
     ethr =  1.26E-05,  avg # of iterations = 10.5

     negative rho (up, down):  6.974E-01 0.000E+00

     total cpu time spent up to now is     1858.6 secs

     total energy              =  -14924.51441725 Ry
     Harris-Foulkes estimate   =  -14924.52170393 Ry
     estimated scf accuracy    <       0.13995981 Ry

     iteration # 18     ecut=    60.00 Ry     beta= 0.50
     Davidson diagonalization with overlap
     ethr =  7.65E-06,  avg # of iterations = 10.0

     negative rho (up, down):  7.053E-01 0.000E+00

     total cpu time spent up to now is     1981.4 secs

     total energy              =  -14924.51033836 Ry
     Harris-Foulkes estimate   =  -14924.51573423 Ry
     estimated scf accuracy    <       0.08489922 Ry

     iteration # 19     ecut=    60.00 Ry     beta= 0.50
     Davidson diagonalization with overlap
     ethr =  4.64E-06,  avg # of iterations = 14.5

     negative rho (up, down):  7.152E-01 0.000E+00

     total cpu time spent up to now is     2129.8 secs

     total energy              =  -14924.51044741 Ry
     Harris-Foulkes estimate   =  -14924.51173062 Ry
     estimated scf accuracy    <       0.01903416 Ry

     iteration # 20     ecut=    60.00 Ry     beta= 0.50
     Davidson diagonalization with overlap
     ethr =  1.04E-06,  avg # of iterations = 13.5

     negative rho (up, down):  6.505E-01 0.000E+00

     total cpu time spent up to now is     2273.3 secs

     total energy              =  -14924.50934843 Ry
     Harris-Foulkes estimate   =  -14924.51102880 Ry
     estimated scf accuracy    <       0.01555672 Ry

     iteration # 21     ecut=    60.00 Ry     beta= 0.50
     Davidson diagonalization with overlap
     c_bands:  2 eigenvalues not converged
     ethr =  8.50E-07,  avg # of iterations = 15.8

     negative rho (up, down):  6.411E-01 0.000E+00

     total cpu time spent up to now is     2427.6 secs

     total energy              =  -14924.50988269 Ry
     Harris-Foulkes estimate   =  -14924.50975344 Ry
     estimated scf accuracy    <       0.00665020 Ry

     iteration # 22     ecut=    60.00 Ry     beta= 0.50
     Davidson diagonalization with overlap
     c_bands:  1 eigenvalues not converged
     c_bands:  1 eigenvalues not converged
     ethr =  3.63E-07,  avg # of iterations = 16.2

     negative rho (up, down):  6.396E-01 0.000E+00

     total cpu time spent up to now is     2572.9 secs

     total energy              =  -14924.50988030 Ry
     Harris-Foulkes estimate   =  -14924.51004724 Ry
     estimated scf accuracy    <       0.00225372 Ry

     iteration # 23     ecut=    60.00 Ry     beta= 0.50
     Davidson diagonalization with overlap
     c_bands:  1 eigenvalues not converged
     ethr =  1.23E-07,  avg # of iterations = 10.5

     negative rho (up, down):  6.346E-01 0.000E+00

     total cpu time spent up to now is     2695.3 secs

     total energy              =  -14924.50987677 Ry
     Harris-Foulkes estimate   =  -14924.50994504 Ry
     estimated scf accuracy    <       0.00091542 Ry

     iteration # 24     ecut=    60.00 Ry     beta= 0.50
     Davidson diagonalization with overlap
     c_bands:  3 eigenvalues not converged
     c_bands:  1 eigenvalues not converged
     ethr =  5.00E-08,  avg # of iterations = 15.5

     negative rho (up, down):  6.340E-01 0.000E+00

     total cpu time spent up to now is     2837.3 secs

     total energy              =  -14924.50991566 Ry
     Harris-Foulkes estimate   =  -14924.50993981 Ry
     estimated scf accuracy    <       0.00065744 Ry

     iteration # 25     ecut=    60.00 Ry     beta= 0.50
     Davidson diagonalization with overlap
     c_bands:  1 eigenvalues not converged
     ethr =  3.59E-08,  avg # of iterations =  6.8

     negative rho (up, down):  6.357E-01 0.000E+00

     total cpu time spent up to now is     2946.4 secs

     total energy              =  -14924.50994950 Ry
     Harris-Foulkes estimate   =  -14924.50994888 Ry
     estimated scf accuracy    <       0.00037110 Ry

     iteration # 26     ecut=    60.00 Ry     beta= 0.50
     Davidson diagonalization with overlap
     ethr =  2.03E-08,  avg # of iterations =  4.8

     negative rho (up, down):  6.382E-01 0.000E+00

     total cpu time spent up to now is     3046.7 secs

     total energy              =  -14924.50995677 Ry
     Harris-Foulkes estimate   =  -14924.50995842 Ry
     estimated scf accuracy    <       0.00021327 Ry

     iteration # 27     ecut=    60.00 Ry     beta= 0.50
     Davidson diagonalization with overlap
     ethr =  1.17E-08,  avg # of iterations =  1.0

     negative rho (up, down):  6.372E-01 0.000E+00

     total cpu time spent up to now is     3134.6 secs

     total energy              =  -14924.50994704 Ry
     Harris-Foulkes estimate   =  -14924.50996039 Ry
     estimated scf accuracy    <       0.00011460 Ry

     iteration # 28     ecut=    60.00 Ry     beta= 0.50
     Davidson diagonalization with overlap
     ethr =  6.26E-09,  avg # of iterations =  1.0

     negative rho (up, down):  6.371E-01 0.000E+00

     total cpu time spent up to now is     3222.6 secs

     total energy              =  -14924.50994552 Ry
     Harris-Foulkes estimate   =  -14924.50994983 Ry
     estimated scf accuracy    <       0.00008781 Ry

     iteration # 29     ecut=    60.00 Ry     beta= 0.50
     Davidson diagonalization with overlap
     ethr =  4.80E-09,  avg # of iterations =  1.0

     negative rho (up, down):  6.368E-01 0.000E+00

     total cpu time spent up to now is     3310.5 secs

     total energy              =  -14924.50994510 Ry
     Harris-Foulkes estimate   =  -14924.50994700 Ry
     estimated scf accuracy    <       0.00004988 Ry

     iteration # 30     ecut=    60.00 Ry     beta= 0.50
     Davidson diagonalization with overlap
     ethr =  2.73E-09,  avg # of iterations =  1.0

     negative rho (up, down):  6.370E-01 0.000E+00

     total cpu time spent up to now is     3399.6 secs

     total energy              =  -14924.50994416 Ry
     Harris-Foulkes estimate   =  -14924.50994618 Ry
     estimated scf accuracy    <       0.00005742 Ry

     iteration # 31     ecut=    60.00 Ry     beta= 0.50
     Davidson diagonalization with overlap
     ethr =  2.73E-09,  avg # of iterations =  1.0

     negative rho (up, down):  6.366E-01 0.000E+00

     total cpu time spent up to now is     3488.5 secs

     total energy              =  -14924.50994362 Ry
     Harris-Foulkes estimate   =  -14924.50994507 Ry
     estimated scf accuracy    <       0.00002188 Ry

     iteration # 32     ecut=    60.00 Ry     beta= 0.50
     Davidson diagonalization with overlap
     ethr =  1.20E-09,  avg # of iterations =  1.0

     negative rho (up, down):  6.360E-01 0.000E+00

     total cpu time spent up to now is     3577.1 secs

     total energy              =  -14924.50994414 Ry
     Harris-Foulkes estimate   =  -14924.50994440 Ry
     estimated scf accuracy    <       0.00001505 Ry

     iteration # 33     ecut=    60.00 Ry     beta= 0.50
     Davidson diagonalization with overlap
     ethr =  8.22E-10,  avg # of iterations =  1.0

     negative rho (up, down):  6.361E-01 0.000E+00

     total cpu time spent up to now is     3665.0 secs

     total energy              =  -14924.50994324 Ry
     Harris-Foulkes estimate   =  -14924.50994486 Ry
     estimated scf accuracy    <       0.00000559 Ry

     iteration # 34     ecut=    60.00 Ry     beta= 0.50
     Davidson diagonalization with overlap
     ethr =  3.06E-10,  avg # of iterations =  1.0

     negative rho (up, down):  6.358E-01 0.000E+00

     total cpu time spent up to now is     3753.1 secs

     total energy              =  -14924.50994324 Ry
     Harris-Foulkes estimate   =  -14924.50994348 Ry
     estimated scf accuracy    <       0.00000293 Ry

     iteration # 35     ecut=    60.00 Ry     beta= 0.50
     Davidson diagonalization with overlap
     ethr =  1.60E-10,  avg # of iterations =  1.0

     negative rho (up, down):  6.357E-01 0.000E+00

     total cpu time spent up to now is     3842.4 secs

     total energy              =  -14924.50994326 Ry
     Harris-Foulkes estimate   =  -14924.50994333 Ry
     estimated scf accuracy    <       0.00000124 Ry

     iteration # 36     ecut=    60.00 Ry     beta= 0.50
     Davidson diagonalization with overlap
     ethr =  6.76E-11,  avg # of iterations =  2.0

     negative rho (up, down):  6.354E-01 0.000E+00

     total cpu time spent up to now is     3934.5 secs

     total energy              =  -14924.50994344 Ry
     Harris-Foulkes estimate   =  -14924.50994330 Ry
     estimated scf accuracy    <       0.00000053 Ry

     iteration # 37     ecut=    60.00 Ry     beta= 0.50
     Davidson diagonalization with overlap
     ethr =  2.92E-11,  avg # of iterations =  2.0

     negative rho (up, down):  6.353E-01 0.000E+00

     total cpu time spent up to now is     4028.0 secs

     total energy              =  -14924.50994360 Ry
     Harris-Foulkes estimate   =  -14924.50994349 Ry
     estimated scf accuracy    <       0.00000058 Ry

     iteration # 38     ecut=    60.00 Ry     beta= 0.50
     Davidson diagonalization with overlap
     ethr =  2.92E-11,  avg # of iterations =  1.0

     negative rho (up, down):  6.353E-01 0.000E+00

     total cpu time spent up to now is     4115.7 secs

     total energy              =  -14924.50994360 Ry
     Harris-Foulkes estimate   =  -14924.50994361 Ry
     estimated scf accuracy    <       0.00000014 Ry

     iteration # 39     ecut=    60.00 Ry     beta= 0.50
     Davidson diagonalization with overlap
     ethr =  7.45E-12,  avg # of iterations =  1.0

     negative rho (up, down):  6.353E-01 0.000E+00

     total cpu time spent up to now is     4203.8 secs

     total energy              =  -14924.50994363 Ry
     Harris-Foulkes estimate   =  -14924.50994360 Ry
     estimated scf accuracy    <       0.00000007 Ry

     iteration # 40     ecut=    60.00 Ry     beta= 0.50
     Davidson diagonalization with overlap
     ethr =  3.90E-12,  avg # of iterations =  1.0

     negative rho (up, down):  6.353E-01 0.000E+00

     total cpu time spent up to now is     4292.6 secs

     total energy              =  -14924.50994369 Ry
     Harris-Foulkes estimate   =  -14924.50994363 Ry
     estimated scf accuracy    <       0.00000003 Ry

     iteration # 41     ecut=    60.00 Ry     beta= 0.50
     Davidson diagonalization with overlap
     ethr =  1.61E-12,  avg # of iterations =  2.0

     negative rho (up, down):  6.352E-01 0.000E+00

     total cpu time spent up to now is     4385.3 secs

     total energy              =  -14924.50994378 Ry
     Harris-Foulkes estimate   =  -14924.50994369 Ry
     estimated scf accuracy    <       0.00000003 Ry

     iteration # 42     ecut=    60.00 Ry     beta= 0.50
     Davidson diagonalization with overlap
     ethr =  1.61E-12,  avg # of iterations =  1.8

     negative rho (up, down):  6.352E-01 0.000E+00

     total cpu time spent up to now is     4476.5 secs

     total energy              =  -14924.50994379 Ry
     Harris-Foulkes estimate   =  -14924.50994378 Ry
     estimated scf accuracy    <       0.00000002 Ry

     iteration # 43     ecut=    60.00 Ry     beta= 0.50
     Davidson diagonalization with overlap
     ethr =  9.23E-13,  avg # of iterations =  1.0

     negative rho (up, down):  6.352E-01 0.000E+00

     total cpu time spent up to now is     4562.1 secs

     End of self-consistent calculation

          k = 0.0000 0.0000 0.0000 (280459 PWs)   bands (ev):

   -38.0273 -38.0005 -37.9976 -37.9926 -37.9918 -37.9798 -37.9746 -37.8104
   -37.7643 -37.7605 -37.7562 -37.7551 -37.7451 -37.7394 -35.5656 -35.2619
   -23.5916 -23.3411 -23.3220 -23.2387 -23.2289 -23.1601 -23.1256 -22.9123
   -22.6800 -22.6623 -22.5692 -22.5544 -22.5513 -22.5504 -22.5357 -22.5348
   -22.5338 -22.5332 -22.5171 -22.5168 -22.5163 -22.5106 -22.4991 -22.4309
   -22.4257 -22.4131 -22.4088 -22.3968 -22.3643 -22.2425 -22.2263 -22.1332
   -18.6103 -18.5719 -18.5265 -18.5239 -18.4937 -18.3866 -18.3575 -18.3398
   -18.3270 -18.3255 -18.3193 -18.3121 -18.3115 -18.3106 -18.3085 -18.3000
   -18.2989 -18.2901 -18.2857 -18.2814 -18.2632 -18.1259 -18.1217 -18.1173
   -18.1030 -18.1009 -18.1006 -18.0911 -18.0796 -18.0704 -18.0626 -18.0407
   -18.0398 -18.0347 -18.0141 -18.0027 -17.9947 -17.9132 -17.9029 -17.8320
   -17.7819 -17.7688 -16.8250 -16.7961 -16.7882 -16.5093 -16.5070 -16.4887
   -15.3580 -15.1615 -14.8060 -14.7349 -14.7255 -14.7184 -14.6839 -14.6735
   -14.6655 -14.6596 -14.6225 -14.5915 -14.5901 -14.5819 -14.5759 -14.5716
   -14.5626 -14.5227 -14.5032 -14.4685 -14.4677 -14.4605 -14.4394 -14.4349
   -14.4313 -14.4265 -14.4186 -14.4039 -14.3941 -14.3927 -14.3818 -14.3599
   -14.3589 -14.3503 -14.2941 -14.2911 -14.2890 -14.2879 -14.2876 -14.2717
   -14.2695 -14.2653 -14.2623 -14.2348 -14.2222 -14.2107 -14.2089 -14.1869
   -14.1782 -14.1773 -14.1585 -14.1464 -14.1290 -14.1205 -14.1196 -14.1100
   -14.0941 -14.0873 -14.0732 -14.0702 -14.0628 -14.0494 -14.0485 -14.0434
   -14.0098 -13.9933 -13.9921 -13.9856 -13.9831 -13.9806 -13.9693 -13.9541
   -13.9255 -13.9153 -13.9082 -13.8899 -13.8581 -13.8481 -13.8462 -13.7572
   -13.7221 -13.7156 -13.7095 -13.7024 -13.7009 -13.6970 -13.6854 -13.6682
   -13.6673 -13.6673 -13.6664 -13.6658 -13.6647 -13.6647 -13.6633 -13.6539
   -13.6511 -13.6347 -13.6123 -13.6086 -13.6083 -13.5964 -13.5958 -13.5912
   -13.5862 -13.5858 -13.5802 -13.5800 -13.5774 -13.5527 -13.5417 -13.5403
   -13.5014 -13.4775 -13.4453 -13.4252 -13.4249 -13.4122 -13.3653 -13.2762
    -9.1946  -8.9440  -8.9201  -8.6879  -8.6849  -8.6625  -8.6574  -8.6441
    -8.6389  -8.6358  -8.6212  -8.5819  -8.5469  -8.4699  -8.4298  -8.3845
    -8.3517  -8.3353  -8.3350  -8.2741  -8.2175  -8.2104  -8.1348  -8.1289
    -8.1251  -8.1130  -8.1117  -8.1078  -8.1014  -8.0960  -8.0853  -8.0844
    -8.0695  -8.0485  -8.0367  -7.9869  -7.9201  -7.9142  -7.9000  -7.8953
    -7.8928  -7.8826  -7.8815  -7.8759  -7.8727  -7.8663  -7.8620  -7.8600
    -7.8542  -7.8514  -7.8468  -7.8432  -7.8312  -7.8290  -7.8277  -7.8240
    -7.8118  -7.7956  -7.7826  -7.7730  -7.7629  -7.7617  -7.7547  -7.7447
    -7.7372  -7.6780  -7.6614  -7.6372  -7.6199  -7.5998  -7.5989  -7.5676
    -7.5241  -7.5233  -7.5066  -7.5060  -7.5020  -7.5014  -7.4964  -7.4879
    -7.4851  -7.4795  -7.4717  -7.4457  -7.3947  -7.3880  -7.3704  -7.3691
    -7.3544  -7.3523  -7.3026  -7.2828  -7.2430  -7.2274  -7.1502  -7.0928
    -4.1062  -3.9803  -3.5569  -3.2663  -3.1266  -3.0839  -3.0661  -2.9764
    -2.9698  -2.9621  -2.9618  -2.8966  -2.8818  -2.8676  -2.8605  -2.8567
    -2.8405  -2.8348  -2.8063  -2.7801  -2.7754  -2.7023  -2.7013  -2.6978
    -2.6129  -2.5933  -2.5820  -2.5762  -2.5713  -2.4167  -2.4137  -2.3510
    -2.3348  -2.2993  -2.2937  -2.2768  -2.2735  -2.2462  -2.1984  -2.1911
    -2.1908  -2.1860  -2.1794  -2.1215  -2.1030  -2.0989  -2.0948  -2.0884
    -2.0787  -2.0695  -2.0606  -2.0089  -1.9966  -1.9914  -1.9904  -1.9809
    -1.9345  -1.9248  -1.9237  -1.9209  -1.9172  -1.9116  -1.9092  -1.9089
    -1.9064  -1.9046  -1.9021  -1.8974  -1.8954  -1.8946  -1.8278  -1.8196
    -1.8133  -1.8021  -1.7967  -1.7903  -1.7901  -1.7762  -1.7747  -1.7567
    -1.7473  -1.7287  -1.7266  -1.7132  -1.7126  -1.7104  -1.7100  -1.7071
    -1.7067  -1.7065  -1.7020  -1.6944  -1.6895  -1.6853  -1.6712  -1.6687
    -1.6666  -1.6328  -1.6283  -1.6207  -1.6192  -1.6172  -1.5922  -1.5611
    -1.5560  -1.5516  -1.5444  -1.4609  -1.4450  -1.4352  -1.4291  -1.4182
    -1.4090  -1.3978  -1.3572  -1.3486  -1.3430  -1.3306  -1.3221  -1.3177
    -1.3115  -1.3025  -1.3010  -1.2918  -1.2911  -1.2835  -1.2752  -1.2626
    -1.2583  -1.2362  -1.2336  -1.2268  -1.2110  -1.1936  -1.1855  -1.1594
    -1.1496  -1.1337  -1.1187  -1.1051  -1.0672  -1.0668  -1.0463  -1.0414
    -1.0175  -1.0033  -0.9896  -0.9894  -0.9711  -0.9546  -0.9510  -0.9357
    -0.9294  -0.9273  -0.9265  -0.9182  -0.9048  -0.8706  -0.8204  -0.8102
    -0.7905  -0.7897  -0.7881  -0.7799  -0.7733  -0.7515  -0.7466  -0.7399
    -0.7396  -0.7256  -0.7158  -0.7099  -0.7049  -0.7044  -0.7021  -0.6831
    -0.6778  -0.6768  -0.6564  -0.6438  -0.6336  -0.6333  -0.6328  -0.6322
    -0.6096  -0.6037  -0.6036  -0.5910  -0.5888  -0.5871  -0.5815  -0.5617
    -0.5563  -0.5515  -0.5454  -0.5392  -0.5355  -0.4986  -0.4972  -0.4880
    -0.4844  -0.4789  -0.4782  -0.4472  -0.4468  -0.4453  -0.4408  -0.4346
    -0.4301  -0.4276  -0.4263  -0.4215  -0.4080  -0.4029  -0.3802  -0.3776
    -0.3703  -0.3638  -0.3481  -0.3474  -0.3370  -0.2881  -0.2819  -0.2698
    -0.2642  -0.2609  -0.2558  -0.2275  -0.2249  -0.2145  -0.2071  -0.1995
    -0.1965  -0.1602  -0.1238  -0.1238  -0.1215  -0.1214  -0.1143  -0.1104
    -0.1078  -0.1070  -0.1029  -0.1027  -0.0998  -0.0982  -0.0867  -0.0761
    -0.0753  -0.0474  -0.0388  -0.0359  -0.0326  -0.0324  -0.0126  -0.0101
    -0.0096  -0.0090  -0.0082   0.0113   0.0161   0.0167   0.0425   0.0500
     0.0511   0.0572   0.0684   0.0724   0.0824   0.0879   0.0925   0.0960
     0.1121   0.1152   0.1241   0.1268   0.1526   0.1577   0.1682   0.1721
     0.1762   0.1818   0.1950   0.2010   0.2199   0.2238   0.2322   0.2429
     0.2753   0.3070   0.3272   0.3374   0.3468   0.3896   0.4131   0.4145
     0.4191   0.4245   0.4247   0.4267   0.4303   0.4306   0.4382   0.4443
     0.4446   0.4496   0.4521   0.4578   0.4597   0.4820   0.4889   0.5055
     0.5064   0.5274   0.5372   0.5392   0.5544   0.5798   0.5819   0.5861
     0.5868   0.5972   0.6057   0.6093   0.6246   0.6285   0.6297   0.6480
     0.6530   0.6560   0.6628   0.6658   0.6772   0.6932   0.6994   0.7038
     0.7149   0.7184   0.7244   0.7275   0.7364   0.7376   0.7410   0.7447
     0.7511   0.7570   0.7676   0.7786   0.7832   0.7954   0.8000   0.8014
     0.8107   0.8272   0.8295   0.8333   0.8390   0.8410   0.8419   0.8482
     0.8483   0.8699   0.8709   0.8724   0.8733   0.8812   0.8834   0.9070
     0.9079   0.9335   0.9341   0.9423   0.9663   0.9671   0.9679   0.9720
     0.9941   1.0088   1.0477   1.0629   1.1046   1.1215   1.1220   1.1273
     1.1431   1.1438   1.1450   1.1825   1.1857   1.1975   1.2167   1.2634
     1.2675   1.2702   1.2788   1.2799   1.2815   1.2844   1.2863   1.2885
     1.2903   1.2922   1.2964   1.3192   1.3380   1.3590   1.3612   1.3614
     1.3657   1.3660   1.3736   1.3812   1.3823   1.3882   1.4029   1.4110
     1.4137   1.4139   1.4159   1.4163   1.4191   1.4231   1.4242   1.4259
     1.4260   1.4318   1.4324   1.4330   1.4383   1.4432   1.4463   1.4501
     1.4560   1.4623   1.4638   1.4664   1.4964   1.4986   1.5027   1.5095
     1.5203   1.5204   1.5214   1.5269   1.5315   1.5335   1.5412   1.5543
     1.5556   1.5568   1.5582   1.5633   1.5668   1.5677   1.5723   1.5775
     1.5859   1.5920   1.5955   1.5975   1.5980   1.6103   1.6135   1.6167
     1.6205   1.6238   1.6276   1.6319   1.6457   1.6524   1.6595   1.6631
     1.6726   1.6755   1.6876   1.6904   1.6937   1.7009   1.7042   1.7050
     1.7091   1.7242   1.7404   1.7562   1.7763   1.7882   1.7891   1.7978
     1.8006   1.8069   1.8194   1.8234   1.8281   1.8312   1.8515   1.8528
     1.8537   1.8615   1.8652   1.8791   1.8793   1.8973   1.8974   1.8987
     1.9019   1.9023   1.9099   1.9167   1.9190   1.9197   1.9217   1.9226
     1.9287   1.9350   1.9364   1.9483   1.9497   1.9575   1.9957   2.0105
     2.0112   2.0139   2.0163   2.0227   2.0269   2.0290   2.0361   2.0390
     2.0424   2.0433   2.0477   2.0567   2.0651   2.0913   2.0933   2.0934
     2.1058   2.1107   2.1148   2.1178   2.1205   2.1293   2.1499   2.1533
     2.1546   2.1583   2.1820   2.2010   2.2071   2.2075   2.2095   2.2104
     2.2116   2.2118   2.2119   2.2133   2.2180   2.2245   2.2411   2.2443
     2.2515   2.2550   2.2657   2.2783   2.3056   2.3058   2.3173   2.3216
     2.3308   2.3326   2.3361   2.3522   2.3917   2.3983   2.4188   2.4413
     2.4657   2.4926   2.4989   2.5250   2.5417   2.5540   2.5704   2.5755
     2.5806   2.5809   2.5903   2.6036   2.6037   2.6177   2.6338   2.7014
     2.7188   2.7219   2.7242   2.7244   2.7292   2.7864   2.8935   2.8944
     3.0017   3.0339   3.0452   3.0544   3.1657   3.1694   3.3057   3.3099
     3.3129   3.3166   3.3173   3.3199   3.3204   3.3231   3.4219   3.4542
     3.4557   3.4647   3.4717   3.4930   3.5011   3.5105   3.6192   3.6536
     3.6549   3.6642   3.7037   3.7510   3.7822   3.7898   3.7970   3.8016
     3.9318   3.9452   4.4046   4.5286   4.8721   4.9061   4.9487   5.0711
     5.1775   5.3252   5.3617   5.4419   5.8979   5.9174   5.9262   6.0163
     6.0834   6.3878   6.4024   6.5066   6.5117   6.6019   6.6827   6.7056
     6.7099   6.7554   6.7617   6.7705   6.7730   6.7749   6.7750   6.7780
     6.7817   6.7827   6.7829   6.7985   6.8105   6.8266   6.8651   6.9494
     7.0176   7.2187   7.2198   7.2872   7.3124   7.3799   7.3849   7.4181
     7.4344   7.4542   7.4825   7.4848   7.5004   7.5015   7.5244   7.6442
     7.6866   7.7070   7.7121   7.7260   7.7479   7.7671   7.7698   7.8185
     7.8263   7.8275   7.9051   7.9414   8.0118   8.0137   8.0183   8.0265
     8.0659   8.1215   8.1231   8.1365   8.1609   8.1652   8.2099   8.2134
     8.2340   8.2876   8.3701   8.4070   8.4186   8.4211   8.4245   8.4348
     8.4373   8.4431   8.4441   8.4536   8.4668   8.4853   8.5188   8.5394
     8.5776   8.6002   8.6269   8.6401   8.7213   8.7470   8.7476   8.7545
     8.7654   8.8085   8.8385   8.8613   8.8629   8.8792   8.9026   8.9057
     8.9077   8.9171   8.9388   8.9431   8.9636   8.9794   8.9965   9.0051
     9.0069   9.0090   9.0143   9.0170   9.0382   9.0731   9.0736   9.0958
     9.1076   9.1650   9.1693   9.1699   9.1941   9.2033   9.2120   9.2192
     9.2308   9.2616   9.2680   9.2755   9.2930   9.3006   9.3010   9.3062
     9.3218   9.3237   9.3554   9.3562   9.3747   9.3814   9.3984   9.4067
     9.4314   9.4414

          k = 0.2326 0.2390 0.0000 (280419 PWs)   bands (ev):

   -38.0273 -37.9999 -37.9983 -37.9927 -37.9920 -37.9782 -37.9757 -37.8104
   -37.7634 -37.7615 -37.7561 -37.7556 -37.7433 -37.7405 -35.5656 -35.2619
   -23.5912 -23.3388 -23.3248 -23.2380 -23.2337 -23.1495 -23.1320 -22.9123
   -22.6618 -22.6440 -22.6136 -22.5958 -22.5588 -22.5549 -22.5404 -22.5374
   -22.5298 -22.5210 -22.5121 -22.5034 -22.4990 -22.4855 -22.4677 -22.4522
   -22.4451 -22.4273 -22.4049 -22.3844 -22.3680 -22.2424 -22.2223 -22.1352
   -18.5756 -18.5404 -18.5240 -18.4996 -18.4921 -18.4723 -18.4393 -18.4083
   -18.3524 -18.3276 -18.3265 -18.3202 -18.3088 -18.3032 -18.3013 -18.2876
   -18.2831 -18.2487 -18.2394 -18.2227 -18.2104 -18.1762 -18.1588 -18.1434
   -18.1247 -18.1209 -18.1128 -18.1027 -18.0824 -18.0602 -18.0484 -18.0421
   -18.0318 -18.0199 -17.9535 -17.9419 -17.9369 -17.9077 -17.8949 -17.8563
   -17.8276 -17.8170 -16.8252 -16.7979 -16.7896 -16.5113 -16.5084 -16.4889
   -15.2575 -15.0669 -14.9888 -14.8212 -14.7564 -14.6914 -14.6901 -14.6881
   -14.6747 -14.6603 -14.6149 -14.6109 -14.5999 -14.5842 -14.5738 -14.5593
   -14.5343 -14.5164 -14.4980 -14.4861 -14.4738 -14.4623 -14.4528 -14.4415
   -14.4215 -14.4128 -14.4105 -14.3945 -14.3842 -14.3628 -14.3574 -14.3537
   -14.3328 -14.3115 -14.3113 -14.3069 -14.2941 -14.2742 -14.2710 -14.2671
   -14.2593 -14.2501 -14.2464 -14.2364 -14.2284 -14.2269 -14.2211 -14.2070
   -14.1887 -14.1882 -14.1668 -14.1503 -14.1441 -14.1336 -14.1222 -14.1107
   -14.1037 -14.0998 -14.0910 -14.0735 -14.0624 -14.0518 -14.0297 -14.0173
   -14.0136 -13.9991 -13.9955 -13.9831 -13.9807 -13.9584 -13.9542 -13.9126
   -13.8966 -13.8895 -13.8890 -13.8774 -13.8633 -13.8368 -13.8121 -13.7668
   -13.7209 -13.7147 -13.7101 -13.7065 -13.7042 -13.6939 -13.6923 -13.6909
   -13.6903 -13.6747 -13.6743 -13.6600 -13.6575 -13.6544 -13.6495 -13.6362
   -13.6297 -13.6295 -13.6280 -13.6254 -13.6196 -13.6190 -13.6122 -13.6090
   -13.6032 -13.6006 -13.5964 -13.5919 -13.5774 -13.5545 -13.5513 -13.5228
   -13.4897 -13.4648 -13.4468 -13.4307 -13.4287 -13.4108 -13.3914 -13.3204
    -9.0977  -8.9485  -8.8763  -8.7992  -8.6874  -8.6690  -8.5980  -8.5887
    -8.5631  -8.5316  -8.5140  -8.5038  -8.4687  -8.4481  -8.4350  -8.4251
    -8.3488  -8.3354  -8.3182  -8.2791  -8.2569  -8.2321  -8.2191  -8.2156
    -8.1543  -8.1328  -8.0823  -8.0744  -8.0476  -8.0239  -8.0134  -8.0066
    -7.9679  -7.9659  -7.9501  -7.9226  -7.9206  -7.9175  -7.9018  -7.8985
    -7.8945  -7.8741  -7.8718  -7.8684  -7.8666  -7.8568  -7.8527  -7.8519
    -7.8501  -7.8465  -7.8414  -7.8369  -7.8324  -7.8254  -7.8210  -7.8180
    -7.8177  -7.8097  -7.8071  -7.8010  -7.7935  -7.7794  -7.7744  -7.7735
    -7.7637  -7.7176  -7.7006  -7.6940  -7.6433  -7.6368  -7.6215  -7.6061
    -7.5913  -7.5892  -7.5676  -7.5658  -7.5488  -7.5174  -7.5041  -7.5003
    -7.4801  -7.4728  -7.4630  -7.4559  -7.4388  -7.4382  -7.4271  -7.4213
    -7.4101  -7.3834  -7.3357  -7.2968  -7.2634  -7.2134  -7.1885  -7.1333
    -3.9455  -3.8218  -3.5114  -3.4114  -3.3942  -3.1210  -3.0830  -3.0318
    -3.0316  -3.0205  -2.9946  -2.9456  -2.8949  -2.8798  -2.8686  -2.8278
    -2.8014  -2.7934  -2.7358  -2.7347  -2.6705  -2.6679  -2.6652  -2.6296
    -2.6048  -2.5994  -2.5986  -2.5940  -2.5699  -2.4501  -2.4130  -2.3780
    -2.3506  -2.3439  -2.3412  -2.3202  -2.3066  -2.3064  -2.3017  -2.2971
    -2.2928  -2.2380  -2.2222  -2.2033  -2.1631  -2.1548  -2.0722  -2.0641
    -2.0156  -2.0154  -2.0087  -1.9831  -1.9819  -1.9763  -1.9535  -1.9532
    -1.9401  -1.9300  -1.9279  -1.9149  -1.9128  -1.9029  -1.8950  -1.8905
    -1.8882  -1.8864  -1.8678  -1.8438  -1.8308  -1.8225  -1.8190  -1.8142
    -1.8090  -1.8018  -1.8007  -1.7982  -1.7921  -1.7891  -1.7884  -1.7674
    -1.7646  -1.7409  -1.7330  -1.7264  -1.7177  -1.7118  -1.7055  -1.6939
    -1.6759  -1.6678  -1.6638  -1.6597  -1.6569  -1.6449  -1.6336  -1.6290
    -1.6235  -1.6191  -1.6115  -1.6031  -1.5975  -1.5785  -1.5745  -1.5520
    -1.5360  -1.5249  -1.4994  -1.4946  -1.4781  -1.4703  -1.4655  -1.4606
    -1.4237  -1.4059  -1.4012  -1.3888  -1.3575  -1.3503  -1.3465  -1.3246
    -1.3216  -1.2966  -1.2804  -1.2681  -1.2620  -1.2585  -1.2445  -1.2280
    -1.2273  -1.2188  -1.2160  -1.2120  -1.2099  -1.2070  -1.1797  -1.1775
    -1.1587  -1.1514  -1.1063  -1.0871  -1.0708  -1.0695  -1.0167  -0.9958
    -0.9947  -0.9895  -0.9833  -0.9592  -0.9354  -0.9310  -0.9230  -0.9036
    -0.8843  -0.8779  -0.8676  -0.8637  -0.8627  -0.8168  -0.8070  -0.8040
    -0.8038  -0.7747  -0.7699  -0.7534  -0.7487  -0.7459  -0.7288  -0.7214
    -0.7149  -0.7103  -0.7089  -0.7058  -0.7033  -0.7002  -0.6984  -0.6886
    -0.6875  -0.6763  -0.6435  -0.6393  -0.6287  -0.6272  -0.6162  -0.6145
    -0.6120  -0.6040  -0.5987  -0.5982  -0.5806  -0.5673  -0.5651  -0.5552
    -0.5431  -0.5400  -0.5381  -0.5235  -0.5208  -0.5063  -0.5009  -0.4965
    -0.4812  -0.4762  -0.4650  -0.4625  -0.4534  -0.4399  -0.4355  -0.4310
    -0.4234  -0.4121  -0.4013  -0.3848  -0.3820  -0.3701  -0.3672  -0.3625
    -0.3564  -0.3434  -0.3420  -0.3260  -0.3248  -0.3228  -0.3142  -0.3131
    -0.3090  -0.2967  -0.2912  -0.2838  -0.2802  -0.2757  -0.2735  -0.2724
    -0.2556  -0.2444  -0.2401  -0.2180  -0.2003  -0.1895  -0.1733  -0.1537
    -0.1473  -0.1390  -0.1241  -0.1150  -0.1068  -0.1025  -0.0922  -0.0843
    -0.0732  -0.0581  -0.0452  -0.0399  -0.0263  -0.0216  -0.0208  -0.0188
    -0.0042   0.0035   0.0206   0.0380   0.0452   0.0554   0.0581   0.0726
     0.0930   0.1070   0.1114   0.1272   0.1298   0.1311   0.1321   0.1422
     0.1532   0.1715   0.1795   0.2027   0.2043   0.2139   0.2253   0.2370
     0.2429   0.2507   0.2515   0.2770   0.2854   0.2893   0.2969   0.3203
     0.3315   0.3418   0.3600   0.3712   0.3775   0.3798   0.3829   0.3984
     0.4177   0.4284   0.4341   0.4357   0.4384   0.4424   0.4512   0.4620
     0.4723   0.4831   0.4843   0.4953   0.5038   0.5156   0.5242   0.5251
     0.5289   0.5327   0.5379   0.5382   0.5463   0.5495   0.5500   0.5617
     0.5663   0.5734   0.5735   0.5764   0.5929   0.6118   0.6166   0.6233
     0.6260   0.6343   0.6374   0.6439   0.6475   0.6606   0.6663   0.6740
     0.6819   0.6883   0.6959   0.6986   0.7039   0.7051   0.7103   0.7136
     0.7187   0.7224   0.7330   0.7399   0.7464   0.7571   0.7585   0.7734
     0.7836   0.8000   0.8114   0.8214   0.8366   0.8516   0.8536   0.8601
     0.8617   0.8808   0.8844   0.8960   0.9022   0.9099   0.9251   0.9472
     0.9569   0.9836   0.9971   0.9989   1.0212   1.0291   1.0316   1.0372
     1.0455   1.0575   1.0779   1.0799   1.0845   1.0857   1.0919   1.0949
     1.0983   1.1122   1.1163   1.1555   1.1574   1.1715   1.1814   1.1926
     1.1981   1.2117   1.2247   1.2327   1.2358   1.2396   1.2435   1.2507
     1.2629   1.2782   1.2806   1.2861   1.2885   1.2923   1.2959   1.2983
     1.3027   1.3126   1.3175   1.3257   1.3298   1.3386   1.3425   1.3506
     1.3641   1.3835   1.3863   1.3913   1.4016   1.4049   1.4086   1.4113
     1.4182   1.4226   1.4267   1.4338   1.4371   1.4383   1.4520   1.4616
     1.4690   1.4711   1.4788   1.4819   1.4884   1.4968   1.4989   1.5017
     1.5068   1.5097   1.5120   1.5151   1.5213   1.5265   1.5309   1.5411
     1.5434   1.5497   1.5508   1.5634   1.5694   1.5765   1.5789   1.5827
     1.5851   1.5887   1.5927   1.6004   1.6071   1.6166   1.6235   1.6295
     1.6322   1.6453   1.6518   1.6561   1.6691   1.6703   1.6776   1.6847
     1.6859   1.6989   1.7039   1.7104   1.7197   1.7240   1.7290   1.7354
     1.7359   1.7413   1.7500   1.7520   1.7615   1.7673   1.7784   1.7876
     1.7980   1.8010   1.8090   1.8131   1.8170   1.8340   1.8424   1.8427
     1.8493   1.8509   1.8591   1.8601   1.8662   1.8670   1.8747   1.8775
     1.8990   1.9015   1.9069   1.9084   1.9189   1.9241   1.9344   1.9402
     1.9454   1.9547   1.9594   1.9607   1.9617   1.9694   1.9746   1.9795
     1.9798   1.9863   1.9872   1.9983   2.0008   2.0108   2.0116   2.0130
     2.0252   2.0308   2.0386   2.0509   2.0555   2.0576   2.0606   2.0685
     2.0730   2.0845   2.0847   2.0946   2.0974   2.1080   2.1163   2.1177
     2.1315   2.1470   2.1528   2.1617   2.1654   2.1870   2.1919   2.2087
     2.2172   2.2294   2.2317   2.2535   2.2604   2.2658   2.2793   2.2895
     2.3078   2.3175   2.3371   2.3454   2.3470   2.3569   2.3852   2.3995
     2.4075   2.4092   2.4102   2.4360   2.4483   2.4490   2.4532   2.4584
     2.4639   2.4987   2.5387   2.5457   2.5606   2.5635   2.5642   2.5854
     2.6311   2.6418   2.6429   2.6435   2.6677   2.6922   2.8017   2.8078
     2.8088   2.8229   2.8308   2.8533   2.8855   2.8949   2.9059   2.9243
     2.9648   2.9688   3.0354   3.0950   3.1228   3.1518   3.1537   3.1577
     3.1632   3.1692   3.1745   3.1747   3.1833   3.2072   3.2503   3.2591
     3.2657   3.2698   3.2845   3.2969   3.3039   3.3161   3.3668   3.3955
     3.4402   3.5044   3.5120   3.5944   4.1131   4.1509   4.1580   4.2092
     4.2471   4.3725   4.3753   4.4565   4.6560   4.6882   4.7407   4.8677
     5.4105   5.5050   5.6099   5.6472   5.8921   5.9955   6.1163   6.1518
     6.1597   6.2023   6.2068   6.2395   6.3326   6.5205   6.5240   6.6512
     6.6571   6.6592   6.6868   6.6924   6.7181   6.7302   6.7408   6.7649
     6.7734   6.8018   6.8567   6.8916   6.9479   6.9533   7.0078   7.0380
     7.0443   7.0789   7.1211   7.1558   7.1645   7.1766   7.2638   7.3493
     7.3833   7.4691   7.4836   7.5153   7.6150   7.6170   7.6534   7.6640
     7.6911   7.7099   7.7120   7.7314   7.7394   7.7678   7.7879   7.8104
     7.8212   7.8568   7.8803   7.9179   7.9331   7.9479   7.9772   8.0074
     8.0271   8.0360   8.0574   8.1152   8.1227   8.1512   8.1611   8.2055
     8.2157   8.2487   8.2557   8.3160   8.3265   8.3318   8.3349   8.3504
     8.3666   8.4039   8.4520   8.5316   8.5519   8.5740   8.5884   8.5925
     8.6075   8.6112   8.6235   8.6313   8.6492   8.6670   8.6895   8.7556
     8.7796   8.7963   8.8154   8.8307   8.8365   8.8774   8.8824   8.9078
     8.9151   8.9224   8.9431   8.9724   8.9826   9.0066   9.0272   9.0342
     9.0487   9.0603   9.0853   9.1018   9.1057   9.1318   9.1427   9.1502
     9.1571   9.1654   9.1769   9.2013   9.2178   9.2272   9.2408   9.2662
     9.2834   9.2945   9.3003   9.3145   9.3239   9.3282   9.3541   9.3697
     9.3894   9.4075   9.4226   9.4407   9.4677   9.4895   9.4899   9.5056
     9.5115   9.6071

          k = 0.0000 0.4779 0.0000 (280335 PWs)   bands (ev):

   -38.0273 -38.0000 -37.9982 -37.9937 -37.9911 -37.9773 -37.9765 -37.8103
   -37.7633 -37.7616 -37.7572 -37.7547 -37.7424 -37.7414 -35.5656 -35.2619
   -23.5909 -23.3420 -23.3185 -23.2555 -23.2196 -23.1492 -23.1324 -22.9123
   -22.6425 -22.6247 -22.6126 -22.6021 -22.5949 -22.5842 -22.5659 -22.5481
   -22.5162 -22.4984 -22.4894 -22.4887 -22.4822 -22.4710 -22.4644 -22.4602
   -22.4583 -22.4423 -22.4151 -22.3884 -22.3589 -22.2398 -22.2226 -22.1358
   -18.5710 -18.5658 -18.5301 -18.4994 -18.4737 -18.4710 -18.4200 -18.3829
   -18.3510 -18.3464 -18.3262 -18.3195 -18.3158 -18.3103 -18.3043 -18.2920
   -18.2853 -18.2470 -18.2338 -18.2145 -18.1891 -18.1712 -18.1535 -18.1474
   -18.1253 -18.1231 -18.1130 -18.1070 -18.0930 -18.0916 -18.0670 -18.0437
   -18.0343 -18.0032 -17.9703 -17.9454 -17.9203 -17.9121 -17.8945 -17.8792
   -17.8179 -17.7823 -16.8251 -16.7981 -16.7885 -16.5113 -16.5075 -16.4889
   -15.1792 -14.9967 -14.9685 -14.9137 -14.8036 -14.7978 -14.7671 -14.7166
   -14.6692 -14.6397 -14.6370 -14.6197 -14.5885 -14.5686 -14.5590 -14.5414
   -14.5403 -14.5248 -14.5054 -14.4705 -14.4588 -14.4565 -14.4371 -14.4236
   -14.4204 -14.4100 -14.3968 -14.3887 -14.3570 -14.3566 -14.3506 -14.3429
   -14.3404 -14.3269 -14.3170 -14.3079 -14.2804 -14.2570 -14.2568 -14.2556
   -14.2466 -14.2379 -14.2374 -14.2262 -14.2214 -14.2194 -14.1985 -14.1910
   -14.1908 -14.1904 -14.1777 -14.1681 -14.1554 -14.1386 -14.1359 -14.1305
   -14.1106 -14.1063 -14.0959 -14.0703 -14.0682 -14.0531 -14.0370 -14.0066
   -13.9999 -13.9822 -13.9754 -13.9697 -13.9660 -13.9589 -13.9535 -13.9401
   -13.9307 -13.9079 -13.9065 -13.8544 -13.8532 -13.8100 -13.7841 -13.7274
   -13.7216 -13.7181 -13.7152 -13.7091 -13.7088 -13.7044 -13.7026 -13.6939
   -13.6884 -13.6734 -13.6730 -13.6625 -13.6604 -13.6579 -13.6570 -13.6483
   -13.6316 -13.6259 -13.6203 -13.6180 -13.6130 -13.6126 -13.6105 -13.6068
   -13.5991 -13.5982 -13.5950 -13.5924 -13.5756 -13.5623 -13.5610 -13.5540
   -13.5138 -13.4856 -13.4627 -13.4419 -13.4351 -13.4115 -13.3763 -13.3657
    -8.9741  -8.9423  -8.7997  -8.7801  -8.6816  -8.6756  -8.6678  -8.6058
    -8.5708  -8.4776  -8.4750  -8.4262  -8.4080  -8.3733  -8.3557  -8.3455
    -8.3091  -8.2986  -8.2426  -8.2316  -8.2216  -8.2177  -8.2143  -8.2042
    -8.1730  -8.1484  -8.1320  -8.1320  -8.1170  -8.1165  -8.0366  -7.9912
    -7.9767  -7.9331  -7.9277  -7.9174  -7.9081  -7.9061  -7.8979  -7.8964
    -7.8879  -7.8868  -7.8674  -7.8606  -7.8559  -7.8499  -7.8403  -7.8358
    -7.8335  -7.8289  -7.8217  -7.8174  -7.8154  -7.8152  -7.8093  -7.8066
    -7.8038  -7.8033  -7.7889  -7.7849  -7.7581  -7.7463  -7.7293  -7.7285
    -7.7235  -7.7178  -7.7161  -7.7121  -7.7062  -7.7014  -7.6987  -7.6718
    -7.6544  -7.6337  -7.6220  -7.6127  -7.6056  -7.5889  -7.5815  -7.5538
    -7.5154  -7.5072  -7.4978  -7.4518  -7.4492  -7.4349  -7.4316  -7.4285
    -7.4244  -7.4147  -7.4073  -7.3794  -7.3757  -7.2219  -7.1839  -7.1424
    -3.7792  -3.6563  -3.4959  -3.4379  -3.3942  -3.3417  -3.2647  -3.1212
    -3.0659  -3.0489  -3.0398  -2.9725  -2.9128  -2.9082  -2.8444  -2.8191
    -2.8027  -2.7871  -2.7541  -2.7215  -2.6332  -2.6327  -2.6321  -2.6312
    -2.5851  -2.5810  -2.5270  -2.4739  -2.4597  -2.4251  -2.4130  -2.3772
    -2.3619  -2.3582  -2.3304  -2.3102  -2.2920  -2.2867  -2.2857  -2.2730
    -2.2563  -2.2203  -2.1948  -2.1575  -2.1295  -2.1196  -2.1065  -2.0946
    -2.0909  -2.0486  -2.0137  -2.0049  -1.9856  -1.9774  -1.9661  -1.9609
    -1.9607  -1.9146  -1.8956  -1.8743  -1.8730  -1.8643  -1.8608  -1.8557
    -1.8490  -1.8408  -1.8317  -1.8292  -1.8266  -1.8194  -1.8158  -1.8147
    -1.8109  -1.8094  -1.8006  -1.7994  -1.7993  -1.7949  -1.7887  -1.7732
    -1.7611  -1.7574  -1.7552  -1.7504  -1.7413  -1.7393  -1.7370  -1.7153
    -1.7141  -1.7044  -1.6954  -1.6823  -1.6705  -1.6668  -1.6550  -1.6539
    -1.6406  -1.6295  -1.6245  -1.6224  -1.5999  -1.5924  -1.5915  -1.5911
    -1.5742  -1.5504  -1.5329  -1.5276  -1.5273  -1.5232  -1.5106  -1.5008
    -1.4901  -1.4768  -1.4624  -1.4440  -1.4380  -1.4283  -1.3855  -1.3736
    -1.3496  -1.3495  -1.3348  -1.3032  -1.3010  -1.2971  -1.2937  -1.2459
    -1.2357  -1.2349  -1.2324  -1.2289  -1.2213  -1.2197  -1.2043  -1.2022
    -1.1714  -1.1641  -1.1536  -1.1442  -1.1052  -1.0511  -0.9946  -0.9820
    -0.9188  -0.9040  -0.8636  -0.8613  -0.8583  -0.8493  -0.8489  -0.8240
    -0.8123  -0.8002  -0.7952  -0.7902  -0.7783  -0.7694  -0.7576  -0.7549
    -0.7213  -0.7153  -0.7106  -0.7038  -0.7028  -0.7005  -0.6932  -0.6894
    -0.6880  -0.6838  -0.6727  -0.6608  -0.6531  -0.6322  -0.6244  -0.6207
    -0.6180  -0.6170  -0.6145  -0.6127  -0.6065  -0.5982  -0.5774  -0.5674
    -0.5671  -0.5589  -0.5564  -0.5486  -0.5419  -0.5291  -0.5248  -0.5244
    -0.5193  -0.5111  -0.5099  -0.4971  -0.4865  -0.4857  -0.4807  -0.4789
    -0.4698  -0.4676  -0.4628  -0.4527  -0.4525  -0.4486  -0.4408  -0.4217
    -0.4139  -0.4069  -0.4051  -0.3772  -0.3689  -0.3673  -0.3569  -0.3519
    -0.3438  -0.3433  -0.3318  -0.3265  -0.3223  -0.3213  -0.3211  -0.3189
    -0.3056  -0.3035  -0.2972  -0.2894  -0.2830  -0.2675  -0.2641  -0.2468
    -0.2346  -0.2273  -0.2097  -0.2039  -0.1942  -0.1915  -0.1911  -0.1874
    -0.1791  -0.1540  -0.1519  -0.1389  -0.1342  -0.1300  -0.1199  -0.1152
    -0.1132  -0.0992  -0.0875  -0.0864  -0.0688  -0.0665  -0.0605  -0.0521
    -0.0427  -0.0381  -0.0353   0.0072   0.0090   0.0481   0.0609   0.0654
     0.0657   0.0719   0.0750   0.0839   0.0856   0.0862   0.0991   0.1038
     0.1224   0.1294   0.1707   0.1862   0.1893   0.2077   0.2095   0.2131
     0.2260   0.2561   0.2625   0.3053   0.3120   0.3292   0.3441   0.3609
     0.3747   0.3802   0.3869   0.3891   0.3954   0.3971   0.3983   0.4037
     0.4119   0.4130   0.4156   0.4218   0.4248   0.4386   0.4427   0.4450
     0.4546   0.4598   0.4639   0.4736   0.5152   0.5224   0.5246   0.5307
     0.5362   0.5385   0.5405   0.5469   0.5516   0.5555   0.5633   0.5663
     0.5742   0.5746   0.5863   0.6013   0.6086   0.6122   0.6170   0.6195
     0.6303   0.6404   0.6453   0.6548   0.6599   0.6722   0.6792   0.6913
     0.6927   0.6933   0.6981   0.6987   0.7206   0.7261   0.7323   0.7487
     0.7610   0.7668   0.7701   0.7720   0.7724   0.7734   0.7741   0.7851
     0.7887   0.8086   0.8372   0.8529   0.8703   0.8850   0.8852   0.8926
     0.9000   0.9053   0.9110   0.9187   0.9225   0.9290   0.9293   0.9423
     0.9698   0.9756   0.9845   0.9878   0.9937   1.0176   1.0203   1.0226
     1.0432   1.0436   1.0552   1.0567   1.0907   1.0922   1.0947   1.1039
     1.1247   1.1437   1.1551   1.1575   1.1592   1.1680   1.1812   1.1837
     1.1915   1.2134   1.2268   1.2344   1.2385   1.2416   1.2511   1.2570
     1.2582   1.2640   1.2727   1.2827   1.2859   1.2875   1.2987   1.3016
     1.3073   1.3238   1.3239   1.3360   1.3384   1.3435   1.3492   1.3687
     1.3744   1.3753   1.3948   1.3952   1.3965   1.3984   1.4000   1.4026
     1.4036   1.4114   1.4129   1.4190   1.4242   1.4336   1.4384   1.4475
     1.4522   1.4641   1.4664   1.4780   1.4891   1.4989   1.4997   1.5049
     1.5057   1.5203   1.5280   1.5286   1.5294   1.5463   1.5473   1.5511
     1.5549   1.5582   1.5607   1.5792   1.5828   1.5868   1.5891   1.5915
     1.6116   1.6182   1.6186   1.6269   1.6389   1.6426   1.6515   1.6601
     1.6708   1.6710   1.6760   1.6846   1.6908   1.6961   1.6983   1.6992
     1.7016   1.7083   1.7083   1.7097   1.7116   1.7176   1.7241   1.7267
     1.7310   1.7388   1.7468   1.7477   1.7517   1.7600   1.7629   1.7678
     1.7716   1.7741   1.7838   1.7879   1.7968   1.8082   1.8097   1.8120
     1.8147   1.8311   1.8325   1.8344   1.8468   1.8550   1.8594   1.8602
     1.8613   1.8685   1.8727   1.8804   1.8879   1.8929   1.9071   1.9103
     1.9119   1.9298   1.9346   1.9402   1.9444   1.9493   1.9530   1.9547
     1.9678   1.9734   1.9823   1.9827   1.9943   1.9952   1.9972   2.0174
     2.0192   2.0235   2.0364   2.0423   2.0484   2.0500   2.0520   2.0634
     2.0764   2.0776   2.0800   2.0819   2.0851   2.0982   2.1036   2.1045
     2.1337   2.1348   2.1412   2.1507   2.1570   2.1750   2.1811   2.1981
     2.2140   2.2196   2.2226   2.2255   2.2295   2.2483   2.2510   2.2588
     2.2612   2.2721   2.2953   2.3055   2.3073   2.3211   2.3388   2.3391
     2.3492   2.3570   2.3751   2.3783   2.3852   2.3911   2.4035   2.4256
     2.4273   2.4307   2.4327   2.4453   2.5134   2.5161   2.5827   2.6055
     2.6108   2.6122   2.6167   2.6258   2.6418   2.6575   2.7085   2.7308
     2.7311   2.7313   2.7315   2.7375   2.8510   2.8733   2.9248   2.9380
     2.9640   2.9731   3.0331   3.0504   3.0526   3.0799   3.1642   3.1676
     3.1696   3.1718   3.1732   3.1785   3.1816   3.1836   3.2839   3.2873
     3.3438   3.3446   3.3530   3.3582   3.3770   3.4050   3.5862   3.6563
     3.7689   3.7844   3.8139   3.8314   3.9504   3.9609   4.0685   4.0780
     4.1750   4.2127   4.3943   4.4389   4.4655   4.4936   4.5581   4.6833
     5.5855   5.6808   5.9410   5.9944   6.0131   6.0651   6.1163   6.1200
     6.1208   6.1321   6.1794   6.2482   6.3352   6.3441   6.3719   6.4241
     6.4926   6.5504   6.6073   6.7548   6.7822   6.8158   6.8261   6.8780
     6.9025   6.9058   6.9175   6.9249   6.9296   6.9547   6.9752   6.9886
     7.0976   7.1066   7.1077   7.1707   7.2379   7.2382   7.2699   7.2703
     7.2906   7.3188   7.3331   7.3698   7.4561   7.4750   7.4824   7.4981
     7.5371   7.5703   7.6992   7.7271   7.7409   7.7525   7.7569   7.7736
     7.7784   7.7864   7.7985   7.8425   7.9266   7.9571   7.9666   8.0239
     8.0394   8.0486   8.0549   8.0766   8.1260   8.1293   8.1699   8.1703
     8.2036   8.2150   8.2476   8.3064   8.3305   8.3404   8.3619   8.3760
     8.3936   8.4617   8.4699   8.5123   8.5192   8.5596   8.5870   8.5904
     8.6260   8.6363   8.6448   8.6632   8.6765   8.6933   8.7191   8.7363
     8.7993   8.8279   8.8548   8.8621   8.8806   8.8883   8.9142   8.9360
     8.9561   8.9653   8.9674   8.9902   8.9927   9.0037   9.0086   9.0179
     9.0221   9.0303   9.0475   9.0542   9.0842   9.1094   9.1376   9.1724
     9.1852   9.2079   9.2123   9.2573   9.2748   9.2986   9.3068   9.3179
     9.3316   9.3346   9.3600   9.3996   9.4272   9.4420   9.4480   9.4636
     9.4746   9.5215   9.5249   9.5298   9.5483   9.5665   9.5951   9.6089
     9.6425   9.6522

          k =-0.4652-0.0000 0.0000 (280314 PWs)   bands (ev):

   -38.0273 -38.0007 -37.9972 -37.9938 -37.9914 -37.9778 -37.9761 -37.8103
   -37.7641 -37.7603 -37.7574 -37.7550 -37.7428 -37.7409 -35.5656 -35.2619
   -23.5909 -23.3367 -23.3260 -23.2546 -23.2133 -23.1611 -23.1253 -22.9123
   -22.6486 -22.6308 -22.6027 -22.5912 -22.5849 -22.5832 -22.5731 -22.5656
   -22.5002 -22.4981 -22.4930 -22.4897 -22.4824 -22.4804 -22.4752 -22.4591
   -22.4536 -22.4357 -22.4160 -22.3820 -22.3623 -22.2472 -22.2160 -22.1361
   -18.6067 -18.5337 -18.5281 -18.5022 -18.4790 -18.4401 -18.4027 -18.3916
   -18.3827 -18.3371 -18.3297 -18.3186 -18.3129 -18.3095 -18.3080 -18.3009
   -18.2949 -18.2269 -18.2242 -18.2186 -18.2018 -18.1659 -18.1409 -18.1389
   -18.1326 -18.1216 -18.1168 -18.1106 -18.1022 -18.0898 -18.0761 -18.0479
   -18.0373 -17.9949 -17.9636 -17.9472 -17.9319 -17.9041 -17.9028 -17.8727
   -17.8276 -17.7691 -16.8251 -16.7965 -16.7899 -16.5097 -16.5089 -16.4888
   -15.1728 -14.9869 -14.9849 -14.9149 -14.8210 -14.7907 -14.7670 -14.6895
   -14.6884 -14.6483 -14.6364 -14.6151 -14.6019 -14.5738 -14.5449 -14.5349
   -14.5198 -14.5002 -14.4897 -14.4745 -14.4651 -14.4628 -14.4600 -14.4339
   -14.4314 -14.4096 -14.4092 -14.3724 -14.3620 -14.3576 -14.3548 -14.3271
   -14.3208 -14.3193 -14.3171 -14.2999 -14.2903 -14.2878 -14.2841 -14.2831
   -14.2602 -14.2582 -14.2563 -14.2412 -14.2405 -14.2222 -14.2082 -14.1823
   -14.1710 -14.1703 -14.1485 -14.1416 -14.1362 -14.1198 -14.1142 -14.1010
   -14.0975 -14.0940 -14.0702 -14.0685 -14.0590 -14.0541 -14.0541 -14.0235
   -14.0092 -14.0016 -13.9984 -13.9817 -13.9783 -13.9550 -13.9472 -13.9385
   -13.9112 -13.9008 -13.8941 -13.8785 -13.8296 -13.8202 -13.8195 -13.7506
   -13.7292 -13.7135 -13.7125 -13.7120 -13.7084 -13.7074 -13.6924 -13.6922
   -13.6919 -13.6916 -13.6730 -13.6678 -13.6606 -13.6463 -13.6435 -13.6419
   -13.6388 -13.6360 -13.6282 -13.6093 -13.6083 -13.6067 -13.6057 -13.6000
   -13.5991 -13.5929 -13.5901 -13.5810 -13.5630 -13.5545 -13.5477 -13.5394
   -13.5323 -13.4872 -13.4791 -13.4580 -13.4437 -13.4336 -13.3901 -13.3263
    -8.9993  -8.9528  -8.7764  -8.6987  -8.6844  -8.6765  -8.6490  -8.6143
    -8.5564  -8.5391  -8.4762  -8.4459  -8.4285  -8.4109  -8.4052  -8.4012
    -8.3427  -8.3233  -8.2293  -8.1994  -8.1832  -8.1485  -8.1428  -8.1392
    -8.1310  -8.1255  -8.1249  -8.1244  -8.1227  -8.0472  -8.0422  -7.9884
    -7.9710  -7.9529  -7.9517  -7.9262  -7.9062  -7.9016  -7.8962  -7.8913
    -7.8885  -7.8818  -7.8800  -7.8709  -7.8598  -7.8496  -7.8457  -7.8431
    -7.8361  -7.8334  -7.8289  -7.8271  -7.8263  -7.8241  -7.8154  -7.8153
    -7.8101  -7.8100  -7.8075  -7.8069  -7.7996  -7.7974  -7.7920  -7.7910
    -7.7816  -7.7814  -7.7719  -7.7527  -7.6545  -7.6377  -7.6272  -7.6181
    -7.6142  -7.6109  -7.6014  -7.5940  -7.5780  -7.5605  -7.5585  -7.5493
    -7.5260  -7.5095  -7.5092  -7.4718  -7.4626  -7.4549  -7.4532  -7.4459
    -7.4418  -7.4356  -7.3380  -7.3374  -7.2854  -7.2561  -7.2069  -7.1559
    -3.8250  -3.7090  -3.4068  -3.3559  -3.3220  -3.2909  -3.2788  -3.2580
    -3.2001  -3.0867  -3.0356  -2.9975  -2.9567  -2.9360  -2.9262  -2.7689
    -2.7605  -2.7220  -2.7217  -2.7090  -2.6717  -2.6644  -2.6212  -2.6146
    -2.6036  -2.5888  -2.5522  -2.5409  -2.5010  -2.4242  -2.3993  -2.2567
    -2.2357  -2.2256  -2.2240  -2.2024  -2.1978  -2.1827  -2.1780  -2.1606
    -2.1569  -2.1536  -2.1536  -2.1528  -2.1501  -2.1323  -2.1125  -2.0992
    -2.0931  -2.0584  -2.0206  -2.0104  -1.9724  -1.9691  -1.9613  -1.9598
    -1.9546  -1.9352  -1.9165  -1.9149  -1.9120  -1.9115  -1.9043  -1.8849
    -1.8847  -1.8753  -1.8704  -1.8528  -1.8483  -1.8354  -1.8087  -1.8084
    -1.8032  -1.8017  -1.8015  -1.7961  -1.7918  -1.7750  -1.7735  -1.7433
    -1.7312  -1.7297  -1.7232  -1.7212  -1.7203  -1.7195  -1.7194  -1.7147
    -1.7047  -1.7042  -1.6996  -1.6964  -1.6960  -1.6851  -1.6814  -1.6731
    -1.6640  -1.6613  -1.6593  -1.6462  -1.6356  -1.6334  -1.6251  -1.6223
    -1.6140  -1.6003  -1.5902  -1.5772  -1.5651  -1.5446  -1.5419  -1.5384
    -1.5353  -1.5258  -1.5191  -1.4999  -1.4807  -1.4702  -1.4611  -1.4496
    -1.4129  -1.4112  -1.3986  -1.3927  -1.3654  -1.3644  -1.3342  -1.3314
    -1.2991  -1.2625  -1.2565  -1.2256  -1.1990  -1.1633  -1.1349  -1.1316
    -1.1292  -1.1143  -1.0861  -1.0860  -1.0779  -1.0634  -1.0387  -1.0215
    -1.0095  -0.9944  -0.9434  -0.8755  -0.8727  -0.8225  -0.8127  -0.8060
    -0.7914  -0.7869  -0.7819  -0.7794  -0.7778  -0.7709  -0.7578  -0.7568
    -0.7449  -0.7354  -0.7238  -0.6973  -0.6934  -0.6759  -0.6714  -0.6690
    -0.6636  -0.6477  -0.6388  -0.6373  -0.6241  -0.6156  -0.5957  -0.5940
    -0.5810  -0.5752  -0.5746  -0.5693  -0.5678  -0.5647  -0.5569  -0.5563
    -0.5535  -0.5441  -0.5248  -0.5236  -0.5174  -0.5101  -0.5024  -0.4977
    -0.4975  -0.4918  -0.4635  -0.4566  -0.4524  -0.4511  -0.4508  -0.4506
    -0.4476  -0.4376  -0.4362  -0.4358  -0.4322  -0.4235  -0.4156  -0.4134
    -0.4131  -0.4090  -0.3987  -0.3837  -0.3732  -0.3611  -0.3603  -0.3594
    -0.3551  -0.3475  -0.3432  -0.3415  -0.3309  -0.3231  -0.3224  -0.3118
    -0.3038  -0.3009  -0.2692  -0.2633  -0.2602  -0.2559  -0.2482  -0.2372
    -0.2242  -0.2064  -0.2019  -0.1940  -0.1806  -0.1711  -0.1633  -0.1611
    -0.1594  -0.1488  -0.1478  -0.1431  -0.1426  -0.1341  -0.1006  -0.0973
    -0.0948  -0.0924  -0.0857  -0.0782  -0.0600  -0.0560  -0.0533  -0.0184
    -0.0160  -0.0121  -0.0086  -0.0072   0.0005   0.0077   0.0211   0.0277
     0.0283   0.0312   0.0349   0.0470   0.0488   0.0566   0.0682   0.0707
[...]
     atom   56 type  4   force =    -0.00008688    0.00000892    0.00018283
     atom   57 type  2   force =     0.00000000    0.00000000   -0.00018628
     atom   58 type  5   force =     0.00036305    0.00000000   -0.00039391
     atom   59 type  5   force =    -0.00036305    0.00000000   -0.00039391
     atom   60 type  5   force =     0.00000000    0.00000000    0.00013410
     atom   61 type  5   force =     0.00000000    0.00000000   -0.00052904
     atom   62 type  5   force =     0.00000000    0.00000000   -0.00052904
     atom   63 type  5   force =     0.00000000    0.00012342   -0.00061826
     atom   64 type  5   force =     0.00000000   -0.00012342   -0.00061826
     atom   65 type  4   force =    -0.00026226    0.00010383    0.00068539
     atom   66 type  4   force =    -0.00026226   -0.00010383    0.00068539
     atom   67 type  4   force =     0.00026226    0.00010383    0.00068539
     atom   68 type  4   force =     0.00026226   -0.00010383    0.00068539
     atom   69 type  4   force =     0.00000000   -0.00027329    0.00021305
     atom   70 type  4   force =     0.00000000    0.00027329    0.00021305
     atom   71 type  4   force =    -0.00010951    0.00002647    0.00085225
     atom   72 type  4   force =    -0.00010951   -0.00002647    0.00085225
     atom   73 type  4   force =     0.00010951   -0.00002647    0.00085225
     atom   74 type  4   force =     0.00010951    0.00002647    0.00085225
     atom   75 type  4   force =     0.00021929    0.00000000    0.00060996
     atom   76 type  4   force =    -0.00021929    0.00000000    0.00060996
     atom   77 type  4   force =     0.00000000   -0.00040680    0.00144703
     atom   78 type  4   force =     0.00000000    0.00040680    0.00144703
     atom   79 type  4   force =     0.00018054    0.00000000    0.00047627
     atom   80 type  4   force =    -0.00018054    0.00000000    0.00047627
     atom   81 type  3   force =     0.00013852   -0.00014926   -0.00139318
     atom   82 type  3   force =     0.00013852    0.00014926   -0.00139318
     atom   83 type  3   force =    -0.00013852   -0.00014926   -0.00139318
     atom   84 type  3   force =    -0.00013852    0.00014926   -0.00139318
     atom   85 type  3   force =     0.00007148   -0.00009592   -0.00134920
     atom   86 type  3   force =    -0.00007148   -0.00009592   -0.00134920
     atom   87 type  3   force =    -0.00007148    0.00009592   -0.00134920
     atom   88 type  3   force =     0.00007148    0.00009592   -0.00134920
     atom   89 type  1   force =     0.00000000    0.00000000   -0.00269159
     atom   90 type  1   force =     0.00000000   -0.00046164   -0.00356949
     atom   91 type  1   force =     0.00000000    0.00046164   -0.00356949
     atom   92 type  1   force =    -0.00070786    0.00000000   -0.00266090
     atom   93 type  1   force =     0.00070786    0.00000000   -0.00266090
     atom   94 type  1   force =     0.00000000    0.00000000   -0.00352081
     atom   95 type  1   force =     0.00000000    0.00000000   -0.00352081
     atom   96 type  1   force =     0.00000000    0.00000000   -0.00262140
     atom   97 type  4   force =    -0.00022445   -0.00024460    0.00257213
     atom   98 type  4   force =    -0.00022445    0.00024460    0.00257213
     atom   99 type  4   force =     0.00022445   -0.00024460    0.00257213
     atom  100 type  4   force =     0.00022445    0.00024460    0.00257213
     atom  101 type  4   force =     0.00030725   -0.00037261    0.00340811
     atom  102 type  4   force =    -0.00030725   -0.00037261    0.00340811
     atom  103 type  4   force =    -0.00030725    0.00037261    0.00340811
     atom  104 type  4   force =     0.00030725    0.00037261    0.00340811
     atom  105 type  4   force =     0.00066548    0.00000000    0.01011491
     atom  106 type  4   force =    -0.00066548    0.00000000    0.01011491
     atom  107 type  3   force =    -0.00201376   -0.00104757   -0.00693627
     atom  108 type  3   force =    -0.00201376    0.00104757   -0.00693627
     atom  109 type  3   force =     0.00201376    0.00104757   -0.00693627
     atom  110 type  3   force =     0.00201376   -0.00104757   -0.00693627
     atom  111 type  3   force =    -0.00195872   -0.00045876   -0.00490759
     atom  112 type  3   force =     0.00195872    0.00045876   -0.00490759
     atom  113 type  3   force =    -0.00195872    0.00045876   -0.00490759
     atom  114 type  3   force =     0.00195872   -0.00045876   -0.00490759
     atom  115 type  4   force =     0.00062212   -0.00065938    0.01077342
     atom  116 type  4   force =    -0.00062212   -0.00065938    0.01077342
     atom  117 type  4   force =     0.00062212    0.00065938    0.01077342
     atom  118 type  4   force =    -0.00062212    0.00065938    0.01077342
     atom  119 type  4   force =     0.00203794    0.00000000    0.01100409
     atom  120 type  4   force =    -0.00203794    0.00000000    0.01100409
     atom  121 type  4   force =    -0.00584269   -0.00397978    0.01595502
     atom  122 type  4   force =     0.00584269   -0.00397978    0.01595502
     atom  123 type  4   force =     0.00584269    0.00397978    0.01595502
     atom  124 type  4   force =    -0.00584269    0.00397978    0.01595502
     atom  125 type  4   force =     0.00197766   -0.00148541    0.01058373
     atom  126 type  4   force =     0.00197766    0.00148541    0.01058373
     atom  127 type  4   force =    -0.00197766   -0.00148541    0.01058373
     atom  128 type  4   force =    -0.00197766    0.00148541    0.01058373
     atom  129 type  1   force =     0.00000000    0.00000000   -0.00799475
     atom  130 type  1   force =     0.00000000    0.00000000   -0.00728968
     atom  131 type  1   force =     0.00000000    0.00000000   -0.00728968
     atom  132 type  1   force =     0.00129102    0.00000000   -0.00375970
     atom  133 type  1   force =    -0.00129102    0.00000000   -0.00375970
     atom  134 type  1   force =     0.00000000    0.00179014   -0.00548591
     atom  135 type  1   force =     0.00000000   -0.00179014   -0.00548591
     atom  136 type  1   force =     0.00000000    0.00000000    0.00688565
     atom  137 type  3   force =     0.00050120    0.00052087    0.00811585
     atom  138 type  3   force =     0.00050120   -0.00052087    0.00811585
     atom  139 type  3   force =    -0.00050120   -0.00052087    0.00811585
     atom  140 type  3   force =    -0.00050120    0.00052087    0.00811585
     atom  141 type  3   force =    -0.00440693    0.00531817    0.00111948
     atom  142 type  3   force =    -0.00440693   -0.00531817    0.00111948
     atom  143 type  3   force =     0.00440693    0.00531817    0.00111948
     atom  144 type  3   force =     0.00440693   -0.00531817    0.00111948
     atom  145 type  4   force =    -0.00161757    0.00000000    0.00376556
     atom  146 type  4   force =     0.00161757    0.00000000    0.00376556
     atom  147 type  4   force =     0.00000000   -0.00115580    0.00274012
     atom  148 type  4   force =     0.00000000    0.00115580    0.00274012
     atom  149 type  4   force =    -0.00048732    0.00000000    0.00122143
     atom  150 type  4   force =     0.00048732    0.00000000    0.00122143
     atom  151 type  4   force =    -0.00073978    0.00095290    0.00461456
     atom  152 type  4   force =     0.00073978    0.00095290    0.00461456
     atom  153 type  4   force =     0.00073978   -0.00095290    0.00461456
     atom  154 type  4   force =    -0.00073978   -0.00095290    0.00461456
     atom  155 type  4   force =     0.00000000   -0.00169982    0.00401871
     atom  156 type  4   force =     0.00000000    0.00169982    0.00401871
     atom  157 type  4   force =     0.00131792    0.00012374    0.00466080
     atom  158 type  4   force =    -0.00131792   -0.00012374    0.00466080
     atom  159 type  4   force =     0.00131792   -0.00012374    0.00466080
     atom  160 type  4   force =    -0.00131792    0.00012374    0.00466080
     atom  161 type  2   force =     0.00000000    0.00000000   -0.02955243
     atom  162 type  5   force =    -0.00033701    0.00000000   -0.03462960
     atom  163 type  5   force =     0.00033701    0.00000000   -0.03462960
     atom  164 type  5   force =     0.00000000    0.00000000   -0.03101221
     atom  165 type  5   force =     0.00000000    0.00000000   -0.03232090
     atom  166 type  5   force =     0.00000000    0.00000000   -0.03232090
     atom  167 type  5   force =     0.00000000   -0.00083581   -0.03341108
     atom  168 type  5   force =     0.00000000    0.00083581   -0.03341108
     atom  169 type  4   force =    -0.00020451    0.00003860    0.00353034
     atom  170 type  4   force =    -0.00020451   -0.00003860    0.00353034
     atom  171 type  4   force =     0.00020451    0.00003860    0.00353034
     atom  172 type  4   force =     0.00020451   -0.00003860    0.00353034
     atom  173 type  4   force =     0.00000000    0.00012955    0.00329161
     atom  174 type  4   force =     0.00000000   -0.00012955    0.00329161
     atom  175 type  4   force =    -0.00001634    0.00003994    0.00263657
     atom  176 type  4   force =    -0.00001634   -0.00003994    0.00263657
     atom  177 type  4   force =     0.00001634   -0.00003994    0.00263657
     atom  178 type  4   force =     0.00001634    0.00003994    0.00263657
     atom  179 type  4   force =    -0.00013762    0.00000000    0.00221955
     atom  180 type  4   force =     0.00013762    0.00000000    0.00221955
     atom  181 type  4   force =     0.00000000   -0.00039001    0.00366020
     atom  182 type  4   force =     0.00000000    0.00039001    0.00366020
     atom  183 type  4   force =     0.00036435    0.00000000    0.00308517
     atom  184 type  4   force =    -0.00036435    0.00000000    0.00308517
     atom  185 type  3   force =    -0.00000565    0.00020171    0.00128970
     atom  186 type  3   force =    -0.00000565   -0.00020171    0.00128970
     atom  187 type  3   force =     0.00000565    0.00020171    0.00128970
     atom  188 type  3   force =     0.00000565   -0.00020171    0.00128970
     atom  189 type  3   force =     0.00002451    0.00000495    0.00127248
     atom  190 type  3   force =    -0.00002451    0.00000495    0.00127248
     atom  191 type  3   force =    -0.00002451   -0.00000495    0.00127248
     atom  192 type  3   force =     0.00002451   -0.00000495    0.00127248
     atom  193 type  1   force =     0.00000000    0.00000000   -0.00092654
     atom  194 type  1   force =     0.00000000   -0.00005442   -0.00066681
     atom  195 type  1   force =     0.00000000    0.00005442   -0.00066681
     atom  196 type  1   force =     0.00020310    0.00000000   -0.00091301
     atom  197 type  1   force =    -0.00020310    0.00000000   -0.00091301
     atom  198 type  1   force =     0.00000000    0.00000000   -0.00082424
     atom  199 type  1   force =     0.00000000    0.00000000   -0.00082424
     atom  200 type  1   force =     0.00000000    0.00000000   -0.00080241
     atom  201 type  4   force =     0.00002299    0.00009423    0.00058877
     atom  202 type  4   force =     0.00002299   -0.00009423    0.00058877
     atom  203 type  4   force =    -0.00002299    0.00009423    0.00058877
     atom  204 type  4   force =    -0.00002299   -0.00009423    0.00058877
     atom  205 type  4   force =     0.00002881    0.00005093    0.00059700
     atom  206 type  4   force =    -0.00002881    0.00005093    0.00059700
     atom  207 type  4   force =    -0.00002881   -0.00005093    0.00059700
     atom  208 type  4   force =     0.00002881   -0.00005093    0.00059700
     atom  209 type  4   force =     0.00010965    0.00000000    0.00011180
     atom  210 type  4   force =    -0.00010965    0.00000000    0.00011180
     atom  211 type  3   force =     0.00009088   -0.00006591   -0.00034181
     atom  212 type  3   force =     0.00009088    0.00006591   -0.00034181
     atom  213 type  3   force =    -0.00009088    0.00006591   -0.00034181
     atom  214 type  3   force =    -0.00009088   -0.00006591   -0.00034181
     atom  215 type  3   force =    -0.00000656   -0.00002773   -0.00023029
     atom  216 type  3   force =     0.00000656    0.00002773   -0.00023029
     atom  217 type  3   force =    -0.00000656    0.00002773   -0.00023029
     atom  218 type  3   force =     0.00000656   -0.00002773   -0.00023029
     atom  219 type  4   force =    -0.00010415    0.00003550    0.00018867
     atom  220 type  4   force =     0.00010415    0.00003550    0.00018867
     atom  221 type  4   force =    -0.00010415   -0.00003550    0.00018867
     atom  222 type  4   force =     0.00010415   -0.00003550    0.00018867
     atom  223 type  4   force =    -0.00016112    0.00000000    0.00016167
     atom  224 type  4   force =     0.00016112    0.00000000    0.00016167

     Total force =     0.113652     Total SCF correction =     0.000323


     Computing stress (Cartesian axis) and pressure


     negative rho (up, down):  6.352E-01 0.000E+00
          total   stress  (Ry/bohr**3)                   (kbar)     P=       -6.86
  -0.00006370   0.00000000   0.00000000           -9.37        0.00        0.00
   0.00000000  -0.00003718   0.00000000            0.00       -5.47        0.00
   0.00000000   0.00000000  -0.00003895            0.00        0.00       -5.73

 
     init_run     :     54.82s CPU     57.53s WALL (       1 calls)
     electrons    :   4312.62s CPU   4503.30s WALL (       1 calls)
     forces       :     32.39s CPU     34.62s WALL (       1 calls)
     stress       :    392.32s CPU    396.62s WALL (       1 calls)

     Called by init_run:
     wfcinit      :     43.52s CPU     44.90s WALL (       1 calls)
     potinit      :      1.63s CPU      1.67s WALL (       1 calls)
     hinit0       :      2.83s CPU      3.05s WALL (       1 calls)

     Called by electrons:
     c_bands      :   3630.86s CPU   3711.96s WALL (      43 calls)
     sum_band     :    476.66s CPU    537.37s WALL (      43 calls)
     v_of_rho     :     10.08s CPU     10.20s WALL (      44 calls)
     newd         :     75.99s CPU    124.72s WALL (      44 calls)
     mix_rho      :    120.05s CPU    120.89s WALL (      43 calls)

     Called by c_bands:
     init_us_2    :     13.00s CPU     13.17s WALL (     356 calls)
     cegterg      :   3547.32s CPU   3623.77s WALL (     172 calls)

     Called by sum_band:
     sum_band:bec :      3.84s CPU      3.85s WALL (     172 calls)
     addusdens    :     76.58s CPU    133.29s WALL (      43 calls)

     Called by *egterg:
     h_psi        :   1490.71s CPU   1519.17s WALL (    1054 calls)
     s_psi        :    440.88s CPU    451.48s WALL (    1054 calls)
     g_psi        :      2.06s CPU      2.08s WALL (     878 calls)
     cdiaghg      :    655.85s CPU    658.45s WALL (    1050 calls)

     Called by h_psi:
     h_psi:calbec :    478.93s CPU    481.21s WALL (    1054 calls)
     vloc_psi     :    567.38s CPU    574.78s WALL (    1054 calls)
     add_vuspsi   :    441.00s CPU    451.87s WALL (    1054 calls)

     General routines
     calbec       :    755.35s CPU    758.54s WALL (    1246 calls)
     fft          :     10.07s CPU     10.25s WALL (     595 calls)
     ffts         :     75.08s CPU     75.61s WALL (   33517 calls)
     fftw         :    630.80s CPU    638.78s WALL (  972152 calls)
     interpolate  :      0.87s CPU      0.88s WALL (      44 calls)
 
     Parallel routines
     fft_scatt_xy :     91.45s CPU     92.55s WALL ( 1006264 calls)
     fft_scatt_yz :    394.47s CPU    399.54s WALL ( 1006264 calls)
 
     PWSCF        :      1h19m CPU      1h23m WALL

 
   This run was terminated on:  19:22:55  17May2021            

=------------------------------------------------------------------------------=
   JOB DONE.
=------------------------------------------------------------------------------=
[1621293776.056553] [holy7c08507:95145:0]          mpool.c:43   UCX  WARN  object 0x3205000 was not returned to mpool ucp_requests
[1621293776.060187] [holy7c08603:156157:0]          mpool.c:43   UCX  WARN  object 0x416f600 was not returned to mpool ucp_requests
[1621293776.066438] [holy7c08504:91481:0]          mpool.c:43   UCX  WARN  object 0x336da40 was not returned to mpool ucp_requests
[1621293776.065385] [holy7c08509:167850:0]          mpool.c:43   UCX  WARN  object 0x3cf3ac0 was not returned to mpool ucp_requests
[1621293776.071838] [holy7c08504:91489:0]          mpool.c:43   UCX  WARN  object 0x42d98c0 was not returned to mpool ucp_requests
[1621293776.073494] [holy7c08504:91480:0]          mpool.c:43   UCX  WARN  object 0x4530180 was not returned to mpool ucp_requests
[1621293776.074483] [holy7c08504:91482:0]          mpool.c:43   UCX  WARN  object 0x2c4dec0 was not returned to mpool ucp_requests
[1621293776.076718] [holy7c08504:91488:0]          mpool.c:43   UCX  WARN  object 0x43413c0 was not returned to mpool ucp_requests
[1621293776.075594] [holy7c08504:91487:0]          mpool.c:43   UCX  WARN  object 0x6651240 was not returned to mpool ucp_requests
[1621293776.084629] [holy7c08504:91490:0]          mpool.c:43   UCX  WARN  object 0x326d6c0 was not returned to mpool ucp_requests
[1621293776.062750] [holy7c08507:95153:0]          mpool.c:43   UCX  WARN  object 0x2e03780 was not returned to mpool ucp_requests
[1621293776.064113] [holy7c08507:95144:0]          mpool.c:43   UCX  WARN  object 0x3d2ac40 was not returned to mpool ucp_requests
[1621293776.068414] [holy7c08507:95154:0]          mpool.c:43   UCX  WARN  object 0x32a0880 was not returned to mpool ucp_requests
[1621293776.064601] [holy7c08507:95152:0]          mpool.c:43   UCX  WARN  object 0x4555040 was not returned to mpool ucp_requests
[1621293776.070889] [holy7c08507:95146:0]          mpool.c:43   UCX  WARN  object 0x436b4c0 was not returned to mpool ucp_requests
[1621293776.071739] [holy7c08507:95143:0]          mpool.c:43   UCX  WARN  object 0x38cb200 was not returned to mpool ucp_requests
[1621293776.078778] [holy7c08507:95151:0]          mpool.c:43   UCX  WARN  object 0x46f4100 was not returned to mpool ucp_requests
[1621293776.066071] [holy7c08603:156158:0]          mpool.c:43   UCX  WARN  object 0x4863e00 was not returned to mpool ucp_requests
[1621293776.067471] [holy7c08603:156165:0]          mpool.c:43   UCX  WARN  object 0x31fb200 was not returned to mpool ucp_requests
[1621293776.066801] [holy7c08603:156166:0]          mpool.c:43   UCX  WARN  object 0x41bdb00 was not returned to mpool ucp_requests
[1621293776.070228] [holy7c08603:156167:0]          mpool.c:43   UCX  WARN  object 0x3210d40 was not returned to mpool ucp_requests
[1621293776.073348] [holy7c08603:156160:0]          mpool.c:43   UCX  WARN  object 0x3c2d8c0 was not returned to mpool ucp_requests
[1621293776.073412] [holy7c08603:156159:0]          mpool.c:43   UCX  WARN  object 0x2d84140 was not returned to mpool ucp_requests
[1621293776.077174] [holy7c08603:156168:0]          mpool.c:43   UCX  WARN  object 0x348cbc0 was not returned to mpool ucp_requests
[1621293776.072857] [holy7c08509:167858:0]          mpool.c:43   UCX  WARN  object 0x3889cc0 was not returned to mpool ucp_requests
[1621293776.074452] [holy7c08509:167860:0]          mpool.c:43   UCX  WARN  object 0x448de40 was not returned to mpool ucp_requests
[1621293776.077118] [holy7c08509:167852:0]          mpool.c:43   UCX  WARN  object 0x3075100 was not returned to mpool ucp_requests
[1621293776.078981] [holy7c08509:167853:0]          mpool.c:43   UCX  WARN  object 0x3bb9980 was not returned to mpool ucp_requests
[1621293776.083260] [holy7c08509:167851:0]          mpool.c:43   UCX  WARN  object 0x421ba80 was not returned to mpool ucp_requests
[1621293776.079942] [holy7c08509:167859:0]          mpool.c:43   UCX  WARN  object 0x31bccc0 was not returned to mpool ucp_requests
[1621293776.091787] [holy7c08509:167861:0]          mpool.c:43   UCX  WARN  object 0x2f0fc80 was not returned to mpool ucp_requests
