
     Program PWSCF v.6.5 starts on 17May2021 at 22:29:41 

     This program is part of the open-source Quantum ESPRESSO suite
     for quantum simulation of materials; please cite
         "P. Giannozzi et al., J. Phys.:Condens. Matter 21 395502 (2009);
         "P. Giannozzi et al., J. Phys.:Condens. Matter 29 465901 (2017);
          URL http://www.quantum-espresso.org", 
     in publications or presentations arising from this work. More details at
     http://www.quantum-espresso.org/quote

     Parallel version (MPI), running on    80 processors

     MPI processes distributed on     5 nodes
     R & G space division:  proc/nbgrp/npool/nimage =      80
     Reading input from YBCO_Y_cleave_2.0_sep.pwi
Warning: card &IONS ignored
Warning: card     ION_DYNAMICS = 'BFGS' ignored
Warning: card / ignored
Warning: card &CELL ignored
Warning: card     CELL_DYNAMICS = 'BFGS' ignored
Warning: card     PRESS_CONV_THR = 5 ignored
Warning: card / ignored

     Current dimensions of program PWSCF are:
     Max number of different atomic species (ntypx) = 10
     Max number of k-points (npk) =  40000
     Max angular momentum in pseudopotentials (lmaxx) =  3
     Message from routine volume:
     axis vectors are left-handed

     Subspace diagonalization in iterative solution of the eigenvalue problem:
     one sub-group per band group will be used
     scalapack distributed-memory algorithm (size of sub-group:  8*  8 procs)

     Message from routine setup:
     using ibrav=0 with symmetry is DISCOURAGED, use correct ibrav instead
 
     Parallelization info
     --------------------
     sticks:   dense  smooth     PW     G-vecs:    dense   smooth      PW
     Min         300     100     25               147294    28346    3721
     Max         301     101     26               147329    28365    3760
     Sum       24079    8031   2067             11785545  2268261  299801
 


     bravais-lattice index     =            0
     lattice parameter (alat)  =      20.5021  a.u.
     unit-cell volume          =   36123.4618 (a.u.)^3
     number of atoms/cell      =          224
     number of atomic types    =            5
     number of electrons       =      1830.00
     number of Kohn-Sham states=         1098
     kinetic-energy cutoff     =      60.0000  Ry
     charge density cutoff     =     720.0000  Ry
     convergence threshold     =      1.0E-08
     mixing beta               =       0.5000
     number of iterations used =           10  local-TF  mixing
     Exchange-correlation= SLA PW PBE PBE
                           (   1   4   3   4   0   0   0)

     celldm(1)=  20.502120  celldm(2)=   0.000000  celldm(3)=   0.000000
     celldm(4)=   0.000000  celldm(5)=   0.000000  celldm(6)=   0.000000

     crystal axes: (cart. coord. in units of alat)
               a(1) = (  -0.716599   0.697485   0.000000 )  
               a(2) = (   0.716599   0.697485   0.000000 )  
               a(3) = (   0.000000   0.000000   4.193260 )  

     reciprocal axes: (cart. coord. in units 2 pi/alat)
               b(1) = ( -0.697740  0.716861  0.000000 )  
               b(2) = (  0.697740  0.716861  0.000000 )  
               b(3) = (  0.000000  0.000000  0.238478 )  


     PseudoPot. # 1 for Ba read from file:
     ./pseudo/Ba.pbe-nsp-van.UPF
     MD5 check sum: 2b9c31dd849566dd297d80989662b7a0
     Pseudo is Ultrasoft + core correction, Zval = 10.0
     Generated by new atomic code, or converted to UPF format
     Using radial grid of  907 points,  6 beta functions with: 
                l(1) =   0
                l(2) =   0
                l(3) =   1
                l(4) =   1
                l(5) =   2
                l(6) =   2
     Q(r) pseudized with  6 coefficients,  rinner =    1.200   1.200   1.200
                                                       1.200   1.200

     PseudoPot. # 2 for Ca read from file:
     ./pseudo/Ca.pbe-nsp-van.UPF
     MD5 check sum: 6471098428ff4fa451746d08035ff179
     Pseudo is Ultrasoft + core correction, Zval = 10.0
     Generated by new atomic code, or converted to UPF format
     Using radial grid of  845 points,  6 beta functions with: 
                l(1) =   0
                l(2) =   0
                l(3) =   1
                l(4) =   1
                l(5) =   2
                l(6) =   2
     Q(r) pseudized with  6 coefficients,  rinner =    1.200   1.200   1.200
                                                       1.200   1.200

     PseudoPot. # 3 for Cu read from file:
     ./pseudo/Cu.pbe-n-van_ak.UPF
     MD5 check sum: 34e3282627ffb533726feb647e090d62
     Pseudo is Ultrasoft + core correction, Zval = 11.0
     Generated by new atomic code, or converted to UPF format
     Using radial grid of  867 points,  6 beta functions with: 
                l(1) =   0
                l(2) =   0
                l(3) =   1
                l(4) =   1
                l(5) =   2
                l(6) =   2
     Q(r) pseudized with  8 coefficients,  rinner =    1.400   1.400   1.400
                                                       1.400   1.400

     PseudoPot. # 4 for O  read from file:
     ./pseudo/O.pbe-van_ak.UPF
     MD5 check sum: 783ce7fe4c79b6a4916957118fed0856
     Pseudo is Ultrasoft, Zval =  6.0
     Generated by new atomic code, or converted to UPF format
     Using radial grid of  737 points,  4 beta functions with: 
                l(1) =   0
                l(2) =   0
                l(3) =   1
                l(4) =   1
     Q(r) pseudized with  8 coefficients,  rinner =    0.800   0.800   0.800


     PseudoPot. # 5 for Y  read from file:
     ./pseudo/Y.pbe-nsp-van.UPF
     MD5 check sum: 4412fed3ab108fed87a1b7d6a69a4a38
     Pseudo is Ultrasoft + core correction, Zval = 11.0
     Generated by new atomic code, or converted to UPF format
     Using radial grid of  885 points,  6 beta functions with: 
                l(1) =   0
                l(2) =   0
                l(3) =   1
                l(4) =   1
                l(5) =   2
                l(6) =   2
     Q(r) pseudized with  6 coefficients,  rinner =    1.200   1.200   1.200
                                                       1.200   1.200

     atomic species   valence    mass     pseudopotential
        Ba            10.00   137.32700     Ba( 1.00)
        Ca            10.00    40.07800     Ca( 1.00)
        Cu            11.00    63.54600     Cu( 1.00)
        O              6.00    15.99900     O ( 1.00)
        Y             11.00    88.90584     Y ( 1.00)

      4 Sym. Ops. (no inversion) found ( 3 have fractional translation)



   Cartesian axes

     site n.     atom                  positions (alat units)
         1           O   tau(   1) = (   0.3545921   0.8718562  -0.0077406  )
         2           O   tau(   2) = (   0.0037072   0.8718562  -0.0077406  )
         3           Cu  tau(   3) = (  -0.0002581   0.0006065   0.0080789  )
         4           Cu  tau(   4) = (  -0.0002581   0.3481364   0.0080789  )
         5           Cu  tau(   5) = (   0.3585574   0.3481364   0.0080789  )
         6           Cu  tau(   6) = (  -0.3580421   0.6980913   0.0080789  )
         7           Cu  tau(   7) = (   0.3577988   0.6971373   0.0086255  )
         8           Cu  tau(   8) = (   0.0005005   1.0465760   0.0086255  )
         9           Cu  tau(   9) = (  -0.3588016   0.3490903   0.0086255  )
        10           Cu  tau(  10) = (   0.0005005   0.6971373   0.0086255  )
        11           O   tau(  11) = (  -0.0001733   0.5225410  -0.0089757  )
        12           O   tau(  12) = (   0.3584726   0.5225410  -0.0089757  )
        13           O   tau(  13) = (  -0.0001733   1.2211724  -0.0089757  )
        14           O   tau(  14) = (  -0.3581278   0.5236867  -0.0089757  )
        15           O   tau(  15) = (  -0.3544557   0.8718562  -0.0105593  )
        16           O   tau(  16) = (  -0.0038445   0.1743714  -0.0105593  )
        17           O   tau(  17) = (   0.3588818   0.3486599   0.1817056  )
        18           O   tau(  18) = (  -0.0005825   0.3486599   0.1817056  )
        19           O   tau(  19) = (  -0.0005825   0.0000830   0.1817056  )
        20           O   tau(  20) = (  -0.3577167   0.6975677   0.1817056  )
        21           O   tau(  21) = (   0.3584283   0.6967843   0.1825784  )
        22           O   tau(  22) = (  -0.3581712   0.3494443   0.1825784  )
        23           O   tau(  23) = (  -0.0001290   0.6967843   0.1825784  )
        24           O   tau(  24) = (  -0.0001290   1.0469291   0.1825784  )
        25           Ba  tau(  25) = (   0.1791506   0.8718562   0.1908537  )
        26           Ba  tau(  26) = (   0.5374498   0.5231143   0.1919901  )
        27           Ba  tau(  27) = (  -0.1791506   0.5231143   0.1919901  )
        28           Ba  tau(  28) = (  -0.1793773   0.8718562   0.1931958  )
        29           Ba  tau(  29) = (  -0.1789238   0.1743714   0.1931958  )
        30           Ba  tau(  30) = (   0.1791506   0.5222101   0.1929368  )
        31           Ba  tau(  31) = (  -0.5374498   0.5240176   0.1929368  )
        32           Ba  tau(  32) = (   0.1791506   0.1743714   0.1992469  )
        33           Cu  tau(  33) = (  -0.3583426   0.3488452   0.3777458  )
        34           Cu  tau(  34) = (   0.3582559   0.6973834   0.3777458  )
        35           Cu  tau(  35) = (   0.0000433   0.6973834   0.3777458  )
        36           Cu  tau(  36) = (   0.0000433   1.0463299   0.3777458  )
        37           Cu  tau(  37) = (  -0.3586541   0.6975060   0.3775126  )
        38           Cu  tau(  38) = (   0.3579444   0.3487217   0.3775126  )
        39           Cu  tau(  39) = (   0.0003549   0.0000212   0.3775126  )
        40           Cu  tau(  40) = (   0.0003549   0.3487217   0.3775126  )
        41           O   tau(  41) = (  -0.0047976   0.1743714   0.3996864  )
        42           O   tau(  42) = (  -0.3535026   0.8718562   0.3996864  )
        43           O   tau(  43) = (  -0.5374498   0.6924605   0.3956991  )
        44           O   tau(  44) = (   0.1791506   0.3537672   0.3956991  )
        45           O   tau(  45) = (   0.3586385   0.8718562   0.4046840  )
        46           O   tau(  46) = (  -0.0003392   0.8718562   0.4046840  )
        47           O   tau(  47) = (  -0.0004857   0.5230571   0.4066611  )
        48           O   tau(  48) = (   0.3587850   0.5230571   0.4066611  )
        49           O   tau(  49) = (  -0.3578135   0.5231714   0.4066611  )
        50           O   tau(  50) = (  -0.0004857   1.2206562   0.4066611  )
        51           O   tau(  51) = (   0.1791506   1.0461604   0.4028931  )
        52           O   tau(  52) = (   0.1791506   0.6975521   0.4028931  )
        53           O   tau(  53) = (  -0.1792261   0.6967170   0.4025963  )
        54           O   tau(  54) = (  -0.1790731   0.3495106   0.4025963  )
        55           O   tau(  55) = (  -0.1792261   1.0469964   0.4025963  )
        56           O   tau(  56) = (   0.5375263   0.6967170   0.4025963  )
        57           Ca  tau(  57) = (   0.1791506   0.1743714   0.5358617  )
        58           Y   tau(  58) = (  -0.1811525   0.8718562   0.5373908  )
        59           Y   tau(  59) = (  -0.1771467   0.1743714   0.5373908  )
        60           Y   tau(  60) = (   0.1791506   0.8718562   0.5379568  )
        61           Y   tau(  61) = (   0.5374498   0.5231143   0.5384490  )
        62           Y   tau(  62) = (  -0.1791506   0.5231143   0.5384490  )
        63           Y   tau(  63) = (   0.1791506   0.5216598   0.5383310  )
        64           Y   tau(  64) = (  -0.5374498   0.5245688   0.5383310  )
        65           O   tau(  65) = (  -0.1787754   0.3493171   0.6712314  )
        66           O   tau(  66) = (   0.5378231   0.6969115   0.6712314  )
        67           O   tau(  67) = (  -0.1795239   1.0468019   0.6712314  )
        68           O   tau(  68) = (  -0.1795239   0.6969115   0.6712314  )
        69           O   tau(  69) = (   0.1791506   0.6972691   0.6718637  )
        70           O   tau(  70) = (   0.1791506   1.0464433   0.6718637  )
        71           O   tau(  71) = (  -0.0003880   1.2203935   0.6667490  )
        72           O   tau(  72) = (  -0.0003880   0.5233198   0.6667490  )
        73           O   tau(  73) = (   0.3586882   0.5233198   0.6667490  )
        74           O   tau(  74) = (  -0.3579112   0.5229087   0.6667490  )
        75           O   tau(  75) = (   0.3585850   0.8718562   0.6641940  )
        76           O   tau(  76) = (  -0.0002857   0.8718562   0.6641940  )
        77           O   tau(  77) = (   0.1791506   0.3535118   0.6756778  )
        78           O   tau(  78) = (  -0.5374498   0.6927158   0.6756778  )
        79           O   tau(  79) = (  -0.0043044   0.1743714   0.6710848  )
        80           O   tau(  80) = (  -0.3539948   0.8718562   0.6710848  )
        81           Cu  tau(  81) = (  -0.3586514   0.6973604   0.6974442  )
        82           Cu  tau(  82) = (   0.3579472   0.3488682   0.6974442  )
        83           Cu  tau(  83) = (   0.0003521  -0.0001254   0.6974442  )
        84           Cu  tau(  84) = (   0.0003521   0.3488682   0.6974442  )
        85           Cu  tau(  85) = (   0.0000083   1.0459401   0.6989015  )
        86           Cu  tau(  86) = (  -0.3583076   0.3484544   0.6989015  )
        87           Cu  tau(  87) = (   0.3582910   0.6977733   0.6989015  )
        88           Cu  tau(  88) = (   0.0000083   0.6977733   0.6989015  )
        89           Ba  tau(  89) = (   0.1791506   0.1743714   0.8671591  )
        90           Ba  tau(  90) = (  -0.5374498   0.5239908   0.8827639  )
        91           Ba  tau(  91) = (   0.1791506   0.5222377   0.8827639  )
        92           Ba  tau(  92) = (  -0.1785616   0.1743714   0.8784262  )
        93           Ba  tau(  93) = (  -0.1797386   0.8718562   0.8784262  )
        94           Ba  tau(  94) = (  -0.1791506   0.5231143   0.8841483  )
        95           Ba  tau(  95) = (   0.5374498   0.5231143   0.8841483  )
        96           Ba  tau(  96) = (   0.1791506   0.8718562   0.8844635  )
        97           O   tau(  97) = (   0.3607888   0.6975991   0.9037874  )
        98           O   tau(  98) = (  -0.3558097   0.3486286   0.9037874  )
        99           O   tau(  99) = (  -0.0024896   0.6975991   0.9037874  )
       100           O   tau( 100) = (  -0.0024896   1.0461143   0.9037874  )
       101           O   tau( 101) = (   0.3544087   0.3463252   0.9043663  )
       102           O   tau( 102) = (   0.0038906   0.3463252   0.9043663  )
       103           O   tau( 103) = (   0.0038906   0.0024177   0.9043663  )
       104           O   tau( 104) = (  -0.3621908   0.6999025   0.9043663  )
       105           O   tau( 105) = (   0.3314246   0.8718562   1.0783672  )
       106           O   tau( 106) = (   0.0268747   0.8718562   1.0783672  )
       107           Cu  tau( 107) = (  -0.0027882   0.0031818   1.0782086  )
       108           Cu  tau( 108) = (  -0.0027882   0.3455601   1.0782086  )
       109           Cu  tau( 109) = (   0.3610875   0.3455601   1.0782086  )
       110           Cu  tau( 110) = (  -0.3555111   0.7006675   1.0782086  )
       111           Cu  tau( 111) = (   0.3579684   0.6983604   1.0781976  )
       112           Cu  tau( 112) = (   0.0003318   1.0453529   1.0781976  )
       113           Cu  tau( 113) = (  -0.3586320   0.3478672   1.0781976  )
       114           Cu  tau( 114) = (   0.0003318   0.6983604   1.0781976  )
       115           O   tau( 115) = (  -0.0055718   0.5218801   1.0778989  )
       116           O   tau( 116) = (   0.3638720   0.5218801   1.0778989  )
       117           O   tau( 117) = (  -0.0055718   1.2218333   1.0778989  )
       118           O   tau( 118) = (  -0.3527284   0.5243475   1.0778989  )
       119           O   tau( 119) = (  -0.3170374   0.8718562   1.0783192  )
       120           O   tau( 120) = (  -0.0412618   0.1743714   1.0783192  )
       121           O   tau( 121) = (   0.3544105   0.3465040   1.2520362  )
       122           O   tau( 122) = (   0.0038887   0.3465040   1.2520362  )
       123           O   tau( 123) = (   0.0038887   0.0022389   1.2520362  )
       124           O   tau( 124) = (  -0.3621880   0.6997236   1.2520362  )
       125           O   tau( 125) = (   0.3607981   0.6973991   1.2525976  )
       126           O   tau( 126) = (  -0.3558014   0.3488295   1.2525976  )
       127           O   tau( 127) = (  -0.0024988   0.6973991   1.2525976  )
       128           O   tau( 128) = (  -0.0024988   1.0463143   1.2525976  )
       129           Ba  tau( 129) = (   0.1791506   0.8718562   1.2719528  )
       130           Ba  tau( 130) = (   0.5374498   0.5231143   1.2722763  )
       131           Ba  tau( 131) = (  -0.1791506   0.5231143   1.2722763  )
       132           Ba  tau( 132) = (  -0.1796732   0.8718562   1.2779763  )
       133           Ba  tau( 133) = (  -0.1786270   0.1743714   1.2779763  )
       134           Ba  tau( 134) = (   0.1791506   0.5222571   1.2737041  )
       135           Ba  tau( 135) = (  -0.5374498   0.5239706   1.2737041  )
       136           Ba  tau( 136) = (   0.1791506   0.1743714   1.2892268  )
       137           Cu  tau( 137) = (  -0.3583094   0.3484682   1.4575232  )
       138           Cu  tau( 138) = (   0.3582901   0.6977604   1.4575232  )
       139           Cu  tau( 139) = (   0.0000101   0.6977604   1.4575232  )
       140           Cu  tau( 140) = (   0.0000101   1.0459530   1.4575232  )
       141           Cu  tau( 141) = (  -0.3586477   0.6973567   1.4589435  )
       142           Cu  tau( 142) = (   0.3579518   0.3488710   1.4589435  )
       143           Cu  tau( 143) = (   0.0003484  -0.0001281   1.4589435  )
       144           Cu  tau( 144) = (   0.0003484   0.3488710   1.4589435  )
       145           O   tau( 145) = (  -0.0043173   0.1743714   1.4852486  )
       146           O   tau( 146) = (  -0.3539819   0.8718562   1.4852486  )
       147           O   tau( 147) = (  -0.5374498   0.6927305   1.4807174  )
       148           O   tau( 148) = (   0.1791506   0.3534971   1.4807174  )
       149           O   tau( 149) = (   0.3585795   0.8718562   1.4921587  )
       150           O   tau( 150) = (  -0.0002802   0.8718562   1.4921587  )
       151           O   tau( 151) = (  -0.0003853   0.5233134   1.4896627  )
       152           O   tau( 152) = (   0.3586855   0.5233134   1.4896627  )
       153           O   tau( 153) = (  -0.3579140   0.5229152   1.4896627  )
       154           O   tau( 154) = (  -0.0003853   1.2204000   1.4896627  )
       155           O   tau( 155) = (   0.1791506   1.0464553   1.4845361  )
       156           O   tau( 156) = (   0.1791506   0.6972571   1.4845361  )
       157           O   tau( 157) = (  -0.1795146   0.6969069   1.4851647  )
       158           O   tau( 158) = (  -0.1787846   0.3493208   1.4851647  )
       159           O   tau( 159) = (  -0.1795146   1.0468065   1.4851647  )
       160           O   tau( 160) = (   0.5378139   0.6969069   1.4851647  )
       161           Ca  tau( 161) = (   0.1791506   0.1743714   1.6205270  )
       162           Y   tau( 162) = (  -0.1811544   0.8718562   1.6189960  )
       163           Y   tau( 163) = (  -0.1771449   0.1743714   1.6189960  )
       164           Y   tau( 164) = (   0.1791506   0.8718562   1.6184328  )
       165           Y   tau( 165) = (   0.5374498   0.5231143   1.6179637  )
       166           Y   tau( 166) = (  -0.1791506   0.5231143   1.6179637  )
       167           Y   tau( 167) = (   0.1791506   0.5216524   1.6180844  )
       168           Y   tau( 168) = (  -0.5374498   0.5245761   1.6180844  )
       169           O   tau( 169) = (  -0.1790685   0.3495088   1.9381433  )
       170           O   tau( 170) = (   0.5375300   0.6967198   1.9381433  )
       171           O   tau( 171) = (  -0.1792307   1.0469936   1.9381433  )
       172           O   tau( 172) = (  -0.1792307   0.6967198   1.9381433  )
       173           O   tau( 173) = (   0.1791506   0.6975604   1.9378465  )
       174           O   tau( 174) = (   0.1791506   1.0461521   1.9378465  )
       175           O   tau( 175) = (  -0.0004848   1.2206534   1.9340822  )
       176           O   tau( 176) = (  -0.0004848   0.5230599   1.9340822  )
       177           O   tau( 177) = (   0.3587841   0.5230599   1.9340822  )
       178           O   tau( 178) = (  -0.3578144   0.5231687   1.9340822  )
       179           O   tau( 179) = (   0.3586468   0.8718562   1.9360206  )
       180           O   tau( 180) = (  -0.0003466   0.8718562   1.9360206  )
       181           O   tau( 181) = (   0.1791506   0.3537690   1.9450433  )
       182           O   tau( 182) = (  -0.5374498   0.6924586   1.9450433  )
       183           O   tau( 183) = (  -0.0047874   0.1743714   1.9410080  )
       184           O   tau( 184) = (  -0.3535118   0.8718562   1.9410080  )
       185           Cu  tau( 185) = (  -0.3586560   0.6975087   1.9632141  )
       186           Cu  tau( 186) = (   0.3579435   0.3487198   1.9632141  )
       187           Cu  tau( 187) = (   0.0003567   0.0000230   1.9632141  )
       188           Cu  tau( 188) = (   0.0003567   0.3487198   1.9632141  )
       189           Cu  tau( 189) = (   0.0000415   1.0463263   1.9629819  )
       190           Cu  tau( 190) = (  -0.3583407   0.3488406   1.9629819  )
       191           Cu  tau( 191) = (   0.3582587   0.6973871   1.9629819  )
       192           Cu  tau( 192) = (   0.0000415   0.6973871   1.9629819  )
       193           Ba  tau( 193) = (   0.1791506   0.1743714   2.1414872  )
       194           Ba  tau( 194) = (  -0.5374498   0.5240166   2.1477964  )
       195           Ba  tau( 195) = (   0.1791506   0.5222119   2.1477964  )
       196           Ba  tau( 196) = (  -0.1789220   0.1743714   2.1475402  )
       197           Ba  tau( 197) = (  -0.1793773   0.8718562   2.1475402  )
       198           Ba  tau( 198) = (  -0.1791506   0.5231143   2.1487504  )
       199           Ba  tau( 199) = (   0.5374498   0.5231143   2.1487504  )
       200           Ba  tau( 200) = (   0.1791506   0.8718562   2.1498786  )
       201           O   tau( 201) = (   0.3584302   0.6967870   2.1581483  )
       202           O   tau( 202) = (  -0.3581684   0.3494406   2.1581483  )
       203           O   tau( 203) = (  -0.0001309   0.6967870   2.1581483  )
       204           O   tau( 204) = (  -0.0001309   1.0469263   2.1581483  )
       205           O   tau( 205) = (   0.3588800   0.3486562   2.1590211  )
       206           O   tau( 206) = (  -0.0005807   0.3486562   2.1590211  )
       207           O   tau( 207) = (  -0.0005807   0.0000866   2.1590211  )
       208           O   tau( 208) = (  -0.3577186   0.6975714   2.1590211  )
       209           O   tau( 209) = (   0.3545921   0.8718562   2.3484517  )
       210           O   tau( 210) = (   0.0037081   0.8718562   2.3484517  )
       211           Cu  tau( 211) = (  -0.0002516   0.0006074   2.3326478  )
       212           Cu  tau( 212) = (  -0.0002516   0.3481345   2.3326478  )
       213           Cu  tau( 213) = (   0.3585509   0.3481345   2.3326478  )
       214           Cu  tau( 214) = (  -0.3580476   0.6980931   2.3326478  )
       215           Cu  tau( 215) = (   0.3577960   0.6971373   2.3321012  )
       216           Cu  tau( 216) = (   0.0005033   1.0465760   2.3321012  )
       217           Cu  tau( 217) = (  -0.3588035   0.3490903   2.3321012  )
       218           Cu  tau( 218) = (   0.0005033   0.6971373   2.3321012  )
       219           O   tau( 219) = (  -0.0001724   0.5225410   2.3496905  )
       220           O   tau( 220) = (   0.3584716   0.5225410   2.3496905  )
       221           O   tau( 221) = (  -0.0001724   1.2211724   2.3496905  )
       222           O   tau( 222) = (  -0.3581288   0.5236867   2.3496905  )
       223           O   tau( 223) = (  -0.3544640   0.8718562   2.3512804  )
       224           O   tau( 224) = (  -0.0038353   0.1743714   2.3512804  )

     number of k points=     4  Gaussian smearing, width (Ry)=  0.0100
                       cart. coord. in units 2pi/alat
        k(    1) = (   0.0000000   0.0000000   0.0000000), wk =   0.2222222
        k(    2) = (   0.2325801   0.2389537   0.0000000), wk =   0.8888889
        k(    3) = (   0.0000000   0.4779073   0.0000000), wk =   0.4444444
        k(    4) = (  -0.4651601  -0.0000000   0.0000000), wk =   0.4444444

     Dense  grid: 11785545 G-vectors     FFT dimensions: ( 180, 180, 750)

     Smooth grid:  2268261 G-vectors     FFT dimensions: ( 108, 108, 432)

     Estimated max dynamical RAM per process >       2.46 GB

     Estimated total dynamical RAM >     196.93 GB

     Initial potential from superposition of free atoms

     starting charge 1828.78422, renormalised to 1830.00000

     negative rho (up, down):  6.317E-01 0.000E+00
     Starting wfcs are 1602 randomized atomic wfcs

     total cpu time spent up to now is       65.1 secs

     Self-consistent Calculation

     iteration #  1     ecut=    60.00 Ry     beta= 0.50
     Davidson diagonalization with overlap
     ethr =  1.00E-02,  avg # of iterations =  2.0

     negative rho (up, down):  5.972E-01 0.000E+00

     total cpu time spent up to now is      170.3 secs

     total energy              =  -14912.40141605 Ry
     Harris-Foulkes estimate   =  -14942.48883109 Ry
     estimated scf accuracy    <     115.32546254 Ry

     iteration #  2     ecut=    60.00 Ry     beta= 0.50
     Davidson diagonalization with overlap
     ethr =  6.30E-03,  avg # of iterations =  2.0

     negative rho (up, down):  5.947E-01 0.000E+00

     total cpu time spent up to now is      271.8 secs

     total energy              =  -14921.83433872 Ry
     Harris-Foulkes estimate   =  -14925.92916974 Ry
     estimated scf accuracy    <      56.23716624 Ry

     iteration #  3     ecut=    60.00 Ry     beta= 0.50
     Davidson diagonalization with overlap
     ethr =  3.07E-03,  avg # of iterations =  1.0

     negative rho (up, down):  5.959E-01 0.000E+00

     total cpu time spent up to now is      366.9 secs

     total energy              =  -14922.54522589 Ry
     Harris-Foulkes estimate   =  -14924.44946217 Ry
     estimated scf accuracy    <      34.28406848 Ry

     iteration #  4     ecut=    60.00 Ry     beta= 0.50
     Davidson diagonalization with overlap
     ethr =  1.87E-03,  avg # of iterations =  1.0

     negative rho (up, down):  6.002E-01 0.000E+00

     total cpu time spent up to now is      461.5 secs

     total energy              =  -14922.33044168 Ry
     Harris-Foulkes estimate   =  -14923.58762692 Ry
     estimated scf accuracy    <      25.87578711 Ry

     iteration #  5     ecut=    60.00 Ry     beta= 0.50
     Davidson diagonalization with overlap
     ethr =  1.41E-03,  avg # of iterations =  1.0

     negative rho (up, down):  6.114E-01 0.000E+00

     total cpu time spent up to now is      555.6 secs

     total energy              =  -14922.03309994 Ry
     Harris-Foulkes estimate   =  -14922.93536498 Ry
     estimated scf accuracy    <      13.88884623 Ry

     iteration #  6     ecut=    60.00 Ry     beta= 0.50
     Davidson diagonalization with overlap
     ethr =  7.59E-04,  avg # of iterations =  8.5

     negative rho (up, down):  6.208E-01 0.000E+00

     total cpu time spent up to now is      692.5 secs

     total energy              =  -14922.06618004 Ry
     Harris-Foulkes estimate   =  -14922.47542277 Ry
     estimated scf accuracy    <      14.79163031 Ry

     iteration #  7     ecut=    60.00 Ry     beta= 0.50
     Davidson diagonalization with overlap
     ethr =  7.59E-04,  avg # of iterations =  1.8

     negative rho (up, down):  6.239E-01 0.000E+00

     total cpu time spent up to now is      789.8 secs

     total energy              =  -14922.09252597 Ry
     Harris-Foulkes estimate   =  -14922.28805760 Ry
     estimated scf accuracy    <       2.72889964 Ry

     iteration #  8     ecut=    60.00 Ry     beta= 0.50
     Davidson diagonalization with overlap
     ethr =  1.49E-04,  avg # of iterations =  7.8

     negative rho (up, down):  6.247E-01 0.000E+00

     total cpu time spent up to now is      916.7 secs

     total energy              =  -14922.13649053 Ry
     Harris-Foulkes estimate   =  -14922.21958514 Ry
     estimated scf accuracy    <       1.05756037 Ry

     iteration #  9     ecut=    60.00 Ry     beta= 0.50
     Davidson diagonalization with overlap
     ethr =  5.78E-05,  avg # of iterations =  7.0

     negative rho (up, down):  6.255E-01 0.000E+00

     total cpu time spent up to now is     1039.5 secs

     total energy              =  -14922.13379668 Ry
     Harris-Foulkes estimate   =  -14922.18350437 Ry
     estimated scf accuracy    <       0.85380280 Ry

     iteration # 10     ecut=    60.00 Ry     beta= 0.50
     Davidson diagonalization with overlap
     ethr =  4.67E-05,  avg # of iterations =  2.8

     negative rho (up, down):  6.238E-01 0.000E+00

     total cpu time spent up to now is     1141.7 secs

     total energy              =  -14922.12084284 Ry
     Harris-Foulkes estimate   =  -14922.15356233 Ry
     estimated scf accuracy    <       0.56097104 Ry

     iteration # 11     ecut=    60.00 Ry     beta= 0.50
     Davidson diagonalization with overlap
     c_bands:  1 eigenvalues not converged
     c_bands:  1 eigenvalues not converged
     ethr =  3.07E-05,  avg # of iterations = 17.0

     negative rho (up, down):  6.218E-01 0.000E+00

     total cpu time spent up to now is     1305.2 secs

     total energy              =  -14922.11810214 Ry
     Harris-Foulkes estimate   =  -14922.13232587 Ry
     estimated scf accuracy    <       0.33196738 Ry

     iteration # 12     ecut=    60.00 Ry     beta= 0.50
     Davidson diagonalization with overlap
     c_bands:  2 eigenvalues not converged
     ethr =  1.81E-05,  avg # of iterations = 10.2

     negative rho (up, down):  6.209E-01 0.000E+00

     total cpu time spent up to now is     1439.7 secs

     total energy              =  -14922.11732004 Ry
     Harris-Foulkes estimate   =  -14922.12599253 Ry
     estimated scf accuracy    <       0.35990013 Ry

     iteration # 13     ecut=    60.00 Ry     beta= 0.50
     Davidson diagonalization with overlap
     c_bands:  1 eigenvalues not converged
     ethr =  1.81E-05,  avg # of iterations = 10.5

     negative rho (up, down):  6.199E-01 0.000E+00

     total cpu time spent up to now is     1570.7 secs

     total energy              =  -14922.11441847 Ry
     Harris-Foulkes estimate   =  -14922.12010604 Ry
     estimated scf accuracy    <       0.36362581 Ry

     iteration # 14     ecut=    60.00 Ry     beta= 0.50
     Davidson diagonalization with overlap
     ethr =  1.81E-05,  avg # of iterations =  2.8

     negative rho (up, down):  6.181E-01 0.000E+00

     total cpu time spent up to now is     1671.6 secs

     total energy              =  -14922.10633872 Ry
     Harris-Foulkes estimate   =  -14922.11582360 Ry
     estimated scf accuracy    <       0.29231136 Ry

     iteration # 15     ecut=    60.00 Ry     beta= 0.50
     Davidson diagonalization with overlap
     ethr =  1.60E-05,  avg # of iterations =  5.5

     negative rho (up, down):  6.375E-01 0.000E+00

     total cpu time spent up to now is     1783.9 secs

     total energy              =  -14922.09714074 Ry
     Harris-Foulkes estimate   =  -14922.10897107 Ry
     estimated scf accuracy    <       0.18563659 Ry

     iteration # 16     ecut=    60.00 Ry     beta= 0.50
     Davidson diagonalization with overlap
     c_bands:  2 eigenvalues not converged
     ethr =  1.01E-05,  avg # of iterations = 11.5

     negative rho (up, down):  6.479E-01 0.000E+00

     total cpu time spent up to now is     1928.6 secs

     total energy              =  -14922.09365482 Ry
     Harris-Foulkes estimate   =  -14922.09926967 Ry
     estimated scf accuracy    <       0.07144413 Ry

     iteration # 17     ecut=    60.00 Ry     beta= 0.50
     Davidson diagonalization with overlap
     ethr =  3.90E-06,  avg # of iterations = 14.5

     negative rho (up, down):  6.408E-01 0.000E+00

     total cpu time spent up to now is     2089.1 secs

     total energy              =  -14922.09135148 Ry
     Harris-Foulkes estimate   =  -14922.09472318 Ry
     estimated scf accuracy    <       0.03679038 Ry

     iteration # 18     ecut=    60.00 Ry     beta= 0.50
     Davidson diagonalization with overlap
     ethr =  2.01E-06,  avg # of iterations = 10.5

     negative rho (up, down):  6.408E-01 0.000E+00

     total cpu time spent up to now is     2223.6 secs

     total energy              =  -14922.08889275 Ry
     Harris-Foulkes estimate   =  -14922.09206743 Ry
     estimated scf accuracy    <       0.02470754 Ry

     iteration # 19     ecut=    60.00 Ry     beta= 0.50
     Davidson diagonalization with overlap
     c_bands:  1 eigenvalues not converged
     ethr =  1.35E-06,  avg # of iterations = 13.5

     negative rho (up, down):  6.361E-01 0.000E+00

     total cpu time spent up to now is     2375.3 secs

     total energy              =  -14922.08753016 Ry
     Harris-Foulkes estimate   =  -14922.08923348 Ry
     estimated scf accuracy    <       0.01120451 Ry

     iteration # 20     ecut=    60.00 Ry     beta= 0.50
     Davidson diagonalization with overlap
     c_bands:  1 eigenvalues not converged
     ethr =  6.12E-07,  avg # of iterations =  8.8

     negative rho (up, down):  6.430E-01 0.000E+00

     total cpu time spent up to now is     2504.9 secs

     total energy              =  -14922.08667881 Ry
     Harris-Foulkes estimate   =  -14922.08776072 Ry
     estimated scf accuracy    <       0.00925090 Ry

     iteration # 21     ecut=    60.00 Ry     beta= 0.50
     Davidson diagonalization with overlap
     ethr =  5.06E-07,  avg # of iterations = 13.5

     negative rho (up, down):  6.341E-01 0.000E+00

     total cpu time spent up to now is     2660.0 secs

     total energy              =  -14922.08674318 Ry
     Harris-Foulkes estimate   =  -14922.08695508 Ry
     estimated scf accuracy    <       0.00638372 Ry

     iteration # 22     ecut=    60.00 Ry     beta= 0.50
     Davidson diagonalization with overlap
     ethr =  3.49E-07,  avg # of iterations =  6.0

     negative rho (up, down):  6.284E-01 0.000E+00

     total cpu time spent up to now is     2772.8 secs

     total energy              =  -14922.08688172 Ry
     Harris-Foulkes estimate   =  -14922.08687683 Ry
     estimated scf accuracy    <       0.00274067 Ry

     iteration # 23     ecut=    60.00 Ry     beta= 0.50
     Davidson diagonalization with overlap
     ethr =  1.50E-07,  avg # of iterations =  7.0

     negative rho (up, down):  6.347E-01 0.000E+00

     total cpu time spent up to now is     2895.7 secs

     total energy              =  -14922.08691925 Ry
     Harris-Foulkes estimate   =  -14922.08698971 Ry
     estimated scf accuracy    <       0.00113648 Ry

     iteration # 24     ecut=    60.00 Ry     beta= 0.50
     Davidson diagonalization with overlap
     ethr =  6.21E-08,  avg # of iterations =  4.8

     negative rho (up, down):  6.294E-01 0.000E+00

     total cpu time spent up to now is     3009.1 secs

     total energy              =  -14922.08690683 Ry
     Harris-Foulkes estimate   =  -14922.08698342 Ry
     estimated scf accuracy    <       0.00055213 Ry

     iteration # 25     ecut=    60.00 Ry     beta= 0.50
     Davidson diagonalization with overlap
     ethr =  3.02E-08,  avg # of iterations =  4.2

     negative rho (up, down):  6.307E-01 0.000E+00

     total cpu time spent up to now is     3123.8 secs

     total energy              =  -14922.08693041 Ry
     Harris-Foulkes estimate   =  -14922.08693500 Ry
     estimated scf accuracy    <       0.00019217 Ry

     iteration # 26     ecut=    60.00 Ry     beta= 0.50
     Davidson diagonalization with overlap
     ethr =  1.05E-08,  avg # of iterations =  2.2

     negative rho (up, down):  6.309E-01 0.000E+00

     total cpu time spent up to now is     3224.3 secs

     total energy              =  -14922.08693280 Ry
     Harris-Foulkes estimate   =  -14922.08694092 Ry
     estimated scf accuracy    <       0.00010846 Ry

     iteration # 27     ecut=    60.00 Ry     beta= 0.50
     Davidson diagonalization with overlap
     ethr =  5.93E-09,  avg # of iterations =  1.8

     negative rho (up, down):  6.305E-01 0.000E+00

     total cpu time spent up to now is     3322.3 secs

     total energy              =  -14922.08692373 Ry
     Harris-Foulkes estimate   =  -14922.08693579 Ry
     estimated scf accuracy    <       0.00005611 Ry

     iteration # 28     ecut=    60.00 Ry     beta= 0.50
     Davidson diagonalization with overlap
     ethr =  3.07E-09,  avg # of iterations =  2.0

     negative rho (up, down):  6.292E-01 0.000E+00

     total cpu time spent up to now is     3424.6 secs

     total energy              =  -14922.08692512 Ry
     Harris-Foulkes estimate   =  -14922.08692646 Ry
     estimated scf accuracy    <       0.00002763 Ry

     iteration # 29     ecut=    60.00 Ry     beta= 0.50
     Davidson diagonalization with overlap
     ethr =  1.51E-09,  avg # of iterations =  1.0

     negative rho (up, down):  6.289E-01 0.000E+00

     total cpu time spent up to now is     3521.5 secs

     total energy              =  -14922.08692681 Ry
     Harris-Foulkes estimate   =  -14922.08692665 Ry
     estimated scf accuracy    <       0.00001160 Ry

     iteration # 30     ecut=    60.00 Ry     beta= 0.50
     Davidson diagonalization with overlap
     ethr =  6.34E-10,  avg # of iterations =  1.0

     negative rho (up, down):  6.287E-01 0.000E+00

     total cpu time spent up to now is     3620.6 secs

     total energy              =  -14922.08692775 Ry
     Harris-Foulkes estimate   =  -14922.08692732 Ry
     estimated scf accuracy    <       0.00000519 Ry

     iteration # 31     ecut=    60.00 Ry     beta= 0.50
     Davidson diagonalization with overlap
     ethr =  2.84E-10,  avg # of iterations =  1.5

     negative rho (up, down):  6.288E-01 0.000E+00

     total cpu time spent up to now is     3725.6 secs

     total energy              =  -14922.08692749 Ry
     Harris-Foulkes estimate   =  -14922.08692787 Ry
     estimated scf accuracy    <       0.00000350 Ry

     iteration # 32     ecut=    60.00 Ry     beta= 0.50
     Davidson diagonalization with overlap
     ethr =  1.91E-10,  avg # of iterations =  1.0

     negative rho (up, down):  6.286E-01 0.000E+00

     total cpu time spent up to now is     3823.7 secs

     total energy              =  -14922.08692785 Ry
     Harris-Foulkes estimate   =  -14922.08692758 Ry
     estimated scf accuracy    <       0.00000338 Ry

     iteration # 33     ecut=    60.00 Ry     beta= 0.50
     Davidson diagonalization with overlap
     ethr =  1.85E-10,  avg # of iterations =  1.0

     negative rho (up, down):  6.287E-01 0.000E+00

     total cpu time spent up to now is     3922.0 secs

     total energy              =  -14922.08692757 Ry
     Harris-Foulkes estimate   =  -14922.08692795 Ry
     estimated scf accuracy    <       0.00000210 Ry

     iteration # 34     ecut=    60.00 Ry     beta= 0.50
     Davidson diagonalization with overlap
     ethr =  1.15E-10,  avg # of iterations =  1.0

     negative rho (up, down):  6.289E-01 0.000E+00

     total cpu time spent up to now is     4018.8 secs

     total energy              =  -14922.08692716 Ry
     Harris-Foulkes estimate   =  -14922.08692762 Ry
     estimated scf accuracy    <       0.00000100 Ry

     iteration # 35     ecut=    60.00 Ry     beta= 0.50
     Davidson diagonalization with overlap
     ethr =  5.47E-11,  avg # of iterations =  1.8

     negative rho (up, down):  6.291E-01 0.000E+00

     total cpu time spent up to now is     4121.2 secs

     total energy              =  -14922.08692681 Ry
     Harris-Foulkes estimate   =  -14922.08692719 Ry
     estimated scf accuracy    <       0.00000053 Ry

     iteration # 36     ecut=    60.00 Ry     beta= 0.50
     Davidson diagonalization with overlap
     ethr =  2.87E-11,  avg # of iterations =  2.0

     negative rho (up, down):  6.291E-01 0.000E+00

     total cpu time spent up to now is     4223.9 secs

     total energy              =  -14922.08692668 Ry
     Harris-Foulkes estimate   =  -14922.08692683 Ry
     estimated scf accuracy    <       0.00000024 Ry

     iteration # 37     ecut=    60.00 Ry     beta= 0.50
     Davidson diagonalization with overlap
     ethr =  1.30E-11,  avg # of iterations =  2.0

     negative rho (up, down):  6.292E-01 0.000E+00

     total cpu time spent up to now is     4325.1 secs

     total energy              =  -14922.08692648 Ry
     Harris-Foulkes estimate   =  -14922.08692669 Ry
     estimated scf accuracy    <       0.00000013 Ry

     iteration # 38     ecut=    60.00 Ry     beta= 0.50
     Davidson diagonalization with overlap
     ethr =  7.35E-12,  avg # of iterations =  2.0

     negative rho (up, down):  6.293E-01 0.000E+00

     total cpu time spent up to now is     4426.5 secs

     total energy              =  -14922.08692645 Ry
     Harris-Foulkes estimate   =  -14922.08692649 Ry
     estimated scf accuracy    <       0.00000003 Ry

     iteration # 39     ecut=    60.00 Ry     beta= 0.50
     Davidson diagonalization with overlap
     ethr =  1.44E-12,  avg # of iterations =  3.0

     negative rho (up, down):  6.293E-01 0.000E+00

     total cpu time spent up to now is     4538.3 secs

     total energy              =  -14922.08692642 Ry
     Harris-Foulkes estimate   =  -14922.08692645 Ry
     estimated scf accuracy    <       0.00000001 Ry

     iteration # 40     ecut=    60.00 Ry     beta= 0.50
     Davidson diagonalization with overlap
     ethr =  7.70E-13,  avg # of iterations =  2.0

     negative rho (up, down):  6.293E-01 0.000E+00

     total cpu time spent up to now is     4641.0 secs

     total energy              =  -14922.08692641 Ry
     Harris-Foulkes estimate   =  -14922.08692642 Ry
     estimated scf accuracy    <       0.00000001 Ry

     iteration # 41     ecut=    60.00 Ry     beta= 0.50
     Davidson diagonalization with overlap
     ethr =  6.62E-13,  avg # of iterations =  1.0

     negative rho (up, down):  6.293E-01 0.000E+00

     total cpu time spent up to now is     4734.2 secs

     End of self-consistent calculation

          k = 0.0000 0.0000 0.0000 (283521 PWs)   bands (ev):

   -41.1622 -41.1588 -41.1503 -41.1464 -41.1460 -41.1460 -41.1390 -38.7285
   -37.9927 -37.9654 -37.9625 -37.9575 -37.9566 -37.9446 -37.9394 -35.5300
   -22.9817 -22.8880 -22.8736 -22.8466 -22.8185 -22.7108 -22.6896 -22.6407
   -22.5834 -22.5300 -22.5151 -22.5111 -22.4955 -22.4945 -22.4775 -22.4767
   -22.3916 -22.3915 -22.3747 -22.3618 -22.3513 -22.3303 -22.2359 -22.2224
   -22.2187 -22.2106 -22.2066 -22.2035 -22.1947 -22.1865 -22.1044 -22.0990
   -21.3531 -21.3100 -21.2975 -21.2762 -21.2551 -21.2500 -21.2262 -21.2109
   -21.2022 -21.1859 -21.1815 -21.1468 -21.1233 -21.1212 -21.1141 -21.0998
   -21.0828 -21.0776 -21.0769 -21.0436 -21.0404 -19.7913 -19.7724 -19.7538
   -18.5751 -18.5368 -18.4917 -18.4885 -18.4589 -18.3047 -18.2919 -18.2905
   -18.2841 -18.2770 -18.2753 -18.2731 -18.2646 -18.2637 -18.2551 -18.2461
   -18.0911 -18.0869 -18.0656 -17.9676 -17.9596 -16.7892 -16.7605 -16.7527
   -16.1853 -15.8935 -15.8544 -15.8453 -15.7743 -15.7041 -15.6460 -15.5806
   -15.4699 -15.4657 -15.4400 -15.4046 -15.3344 -15.3218 -15.2694 -15.2537
   -15.1092 -14.7699 -14.6977 -14.6812 -14.6468 -14.6364 -14.6285 -14.6228
   -14.5711 -14.5510 -14.5128 -14.4863 -14.4659 -14.4337 -14.4333 -14.4262
   -14.4261 -14.4092 -14.4029 -14.3900 -14.3830 -14.3701 -14.3601 -14.3563
   -14.3482 -14.3358 -14.3356 -14.3209 -14.3204 -14.3197 -14.3175 -14.2500
   -14.2489 -14.2330 -14.2304 -14.1693 -14.1470 -14.1416 -14.1223 -14.1214
   -14.1173 -14.1163 -14.1004 -14.0937 -14.0848 -14.0631 -13.9951 -13.9949
   -13.9875 -13.9743 -13.9489 -13.9467 -13.9398 -13.9209 -13.9179 -13.9151
   -13.8898 -13.8897 -13.8793 -13.8775 -13.8602 -13.8225 -13.8200 -13.8127
   -13.8116 -13.7573 -13.7539 -13.7401 -13.7363 -13.7320 -13.6699 -13.6617
   -13.6286 -13.6277 -13.6262 -13.6257 -13.6251 -13.6101 -13.5992 -13.5793
   -13.5787 -13.5775 -13.5772 -13.5705 -13.5691 -13.5678 -13.5599 -13.5571
   -13.5562 -13.5488 -13.5368 -13.5156 -13.5113 -13.5042 -13.5030 -13.4580
   -13.4462 -13.4078 -13.3350 -13.3005 -13.2746 -13.2717 -13.2682 -13.0815
    -8.8373  -8.5995  -8.5703  -8.4104  -8.3617  -8.3562  -8.3530  -8.3362
    -8.3342  -8.3339  -8.3201  -8.3124  -8.2720  -8.2563  -8.2426  -8.1470
    -8.1326  -8.0896  -8.0858  -8.0736  -8.0621  -8.0567  -8.0238  -8.0080
    -7.9994  -7.8907  -7.8809  -7.8617  -7.8609  -7.8577  -7.8517  -7.8423
    -7.8367  -7.8287  -7.8244  -7.8240  -7.8195  -7.8121  -7.8096  -7.8077
    -7.8041  -7.8039  -7.8011  -7.7993  -7.7784  -7.7752  -7.7663  -7.7432
    -7.7235  -7.7153  -7.6993  -7.6906  -7.6768  -7.6638  -7.6387  -7.6081
    -7.5992  -7.5979  -7.5473  -7.5374  -7.4997  -7.4980  -7.4847  -7.4840
    -7.4803  -7.4647  -7.4642  -7.4627  -7.4591  -7.4571  -7.4570  -7.4486
    -7.4381  -7.4307  -7.4303  -7.4114  -7.3781  -7.3637  -7.3635  -7.3487
    -7.3319  -7.3298  -7.3198  -7.2716  -7.2526  -7.2207  -7.2195  -7.2105
    -7.2011  -7.1971  -7.1959  -7.1949  -7.1203  -7.0747  -7.0614  -7.0609
    -4.7591  -4.0703  -3.7359  -3.7290  -3.7228  -3.6478  -3.6477  -3.5226
    -3.4861  -3.1046  -3.0874  -3.0500  -2.9913  -2.9374  -2.9362  -2.9332
    -2.9264  -2.9262  -2.8992  -2.8609  -2.8438  -2.8001  -2.7583  -2.7495
    -2.7432  -2.7361  -2.7268  -2.7023  -2.6684  -2.6644  -2.6616  -2.6179
    -2.5623  -2.5507  -2.5449  -2.5421  -2.4914  -2.4818  -2.3762  -2.3405
    -2.3119  -2.2978  -2.2792  -2.2701  -2.2470  -2.2269  -2.2039  -2.1909
    -2.1792  -2.1790  -2.1457  -2.1378  -2.1087  -2.1046  -2.0991  -2.0971
    -2.0881  -2.0825  -2.0799  -2.0640  -2.0560  -2.0537  -2.0497  -1.9801
    -1.9737  -1.9623  -1.9585  -1.9575  -1.9493  -1.9479  -1.9471  -1.9447
    -1.9180  -1.9127  -1.9105  -1.8977  -1.8879  -1.8852  -1.8776  -1.8745
    -1.8722  -1.8695  -1.8609  -1.8586  -1.8566  -1.8405  -1.8344  -1.8250
    -1.8046  -1.8020  -1.7719  -1.7569  -1.7476  -1.7463  -1.7456  -1.7388
    -1.7348  -1.7295  -1.7207  -1.7080  -1.6980  -1.6736  -1.6729  -1.6703
    -1.6667  -1.6548  -1.6494  -1.6372  -1.6369  -1.6234  -1.6182  -1.6176
    -1.5985  -1.5915  -1.5585  -1.5256  -1.5215  -1.5133  -1.5079  -1.4803
    -1.4761  -1.4700  -1.4679  -1.4495  -1.4121  -1.3929  -1.3831  -1.3726
    -1.3692  -1.3614  -1.3270  -1.3263  -1.3149  -1.3123  -1.3089  -1.2942
    -1.2748  -1.2668  -1.2627  -1.2550  -1.2374  -1.2292  -1.1997  -1.1762
    -1.1736  -1.1251  -1.1115  -1.0874  -1.0743  -1.0624  -1.0605  -1.0500
    -1.0266  -1.0177  -0.9888  -0.9777  -0.9487  -0.9277  -0.9208  -0.9062
    -0.8923  -0.8902  -0.8571  -0.8334  -0.8112  -0.8051  -0.8037  -0.8032
    -0.7562  -0.7519  -0.7459  -0.7440  -0.7426  -0.7388  -0.7369  -0.7312
    -0.7296  -0.7150  -0.7021  -0.7006  -0.6944  -0.6841  -0.6790  -0.6760
    -0.6482  -0.6427  -0.6407  -0.6330  -0.6198  -0.6058  -0.6005  -0.5888
    -0.5882  -0.5852  -0.5699  -0.5502  -0.5475  -0.5463  -0.5447  -0.5394
    -0.5313  -0.5190  -0.5090  -0.5038  -0.4877  -0.4839  -0.4816  -0.4808
    -0.4466  -0.4428  -0.4392  -0.4384  -0.4313  -0.4222  -0.4115  -0.4060
    -0.4056  -0.4016  -0.3940  -0.3875  -0.3766  -0.3763  -0.3727  -0.3552
    -0.3397  -0.3264  -0.3239  -0.3199  -0.3104  -0.3092  -0.3076  -0.2933
    -0.2656  -0.2629  -0.2510  -0.2444  -0.2296  -0.2294  -0.2274  -0.2243
    -0.2239  -0.2224  -0.2200  -0.2084  -0.1958  -0.1957  -0.1836  -0.1245
    -0.1128  -0.0860  -0.0858  -0.0819  -0.0809  -0.0720  -0.0688  -0.0645
    -0.0637  -0.0589  -0.0181  -0.0039  -0.0001   0.0019   0.0155   0.0158
     0.0196   0.0356   0.0389   0.0482   0.0521   0.0527   0.0553   0.0587
     0.0599   0.0702   0.0767   0.0826   0.0875   0.0959   0.1129   0.1312
     0.1509   0.1732   0.1872   0.2082   0.2130   0.2144   0.2159   0.2229
     0.2251   0.2360   0.2450   0.2509   0.2567   0.2697   0.2977   0.3084
     0.3284   0.3294   0.3306   0.3419   0.3658   0.3775   0.3843   0.4221
     0.4581   0.4676   0.4680   0.4809   0.4881   0.4932   0.5045   0.5094
     0.5111   0.5140   0.5223   0.5444   0.5530   0.5790   0.5821   0.5897
     0.5969   0.6086   0.6216   0.6256   0.6267   0.6305   0.6386   0.6400
     0.6406   0.6552   0.6607   0.6685   0.6693   0.6808   0.6829   0.6884
     0.6893   0.7018   0.7030   0.7133   0.7143   0.7161   0.7210   0.7303
     0.7330   0.7357   0.7383   0.7469   0.7527   0.7588   0.7830   0.7893
     0.7898   0.7909   0.7912   0.7961   0.8021   0.8064   0.8307   0.8312
     0.8435   0.8525   0.8617   0.8764   0.8798   0.8803   0.8926   0.9075
     0.9097   0.9144   0.9174   0.9222   0.9246   0.9249   0.9250   0.9315
     0.9368   0.9395   0.9486   0.9652   0.9818   0.9859   0.9868   1.0229
     1.0330   1.0567   1.0597   1.0641   1.0861   1.1185   1.1403   1.1466
     1.1594   1.1737   1.1787   1.2027   1.2101   1.2252   1.2379   1.2390
     1.2467   1.3111   1.3121   1.3171   1.3252   1.3297   1.3322   1.3413
     1.3415   1.3514   1.3704   1.3781   1.3877   1.3991   1.4021   1.4118
     1.4127   1.4181   1.4184   1.4214   1.4233   1.4286   1.4294   1.4333
     1.4375   1.4501   1.4523   1.4578   1.4586   1.4627   1.4648   1.4724
     1.4884   1.4918   1.4961   1.5063   1.5241   1.5276   1.5349   1.5366
     1.5396   1.5403   1.5405   1.5410   1.5471   1.5584   1.5632   1.5736
     1.5829   1.5928   1.5945   1.5956   1.5972   1.5995   1.6048   1.6187
     1.6210   1.6279   1.6285   1.6313   1.6319   1.6465   1.6487   1.6617
     1.6666   1.6674   1.6741   1.6907   1.6991   1.7061   1.7068   1.7135
     1.7346   1.7381   1.7429   1.7453   1.7475   1.7624   1.7779   1.7924
     1.8158   1.8371   1.8427   1.8445   1.8543   1.8666   1.8691   1.8749
     1.8763   1.8835   1.8870   1.8899   1.8974   1.9003   1.9097   1.9209
     1.9257   1.9286   1.9418   1.9444   1.9466   1.9500   1.9571   1.9708
     1.9755   1.9807   1.9852   1.9887   2.0006   2.0059   2.0076   2.0102
     2.0313   2.0320   2.0341   2.0512   2.0556   2.0592   2.0622   2.0678
     2.0693   2.0715   2.0726   2.0790   2.0824   2.1048   2.1377   2.1491
     2.1531   2.1557   2.1563   2.1602   2.1678   2.1695   2.1736   2.1814
     2.1835   2.1948   2.1993   2.2047   2.2135   2.2179   2.2266   2.2469
     2.2476   2.2478   2.2498   2.2630   2.2661   2.2834   2.2881   2.2946
     2.3046   2.3154   2.3335   2.3408   2.3413   2.3497   2.3505   2.3544
     2.3596   2.3704   2.3760   2.3815   2.4040   2.4085   2.4329   2.4513
     2.4697   2.4801   2.5066   2.5092   2.5145   2.5245   2.5273   2.5319
     2.5455   2.5757   2.5954   2.6062   2.6090   2.6203   2.6246   2.6433
     2.6600   2.6675   2.6754   2.6892   2.6939   2.6998   2.7032   2.7523
     2.7641   2.7686   2.7778   2.8064   2.8388   2.9340   2.9728   2.9755
     3.0487   3.0683   3.0714   3.0734   3.0808   3.0892   3.1498   3.1763
     3.2056   3.3360   3.3450   3.3524   3.3567   3.3593   3.3991   3.4024
     3.4239   3.4277   3.4520   3.4597   3.4810   3.4912   3.4916   3.4976
     3.5024   3.5092   3.5502   3.6541   3.6635   3.6808   3.6900   3.6992
     3.7172   3.8004   3.8246   3.8423   3.9033   3.9265   3.9279   3.9560
     3.9574   3.9618   4.3813   4.5341   4.5358   4.6030   4.6645   4.6853
     4.7541   4.9096   4.9358   4.9553   4.9658   4.9805   4.9847   5.0115
     5.0551   5.1633   5.1711   5.1765   5.2520   5.2800   5.2844   5.3257
     5.3404   5.3506   5.3797   5.3980   5.4267   5.5261   5.5411   5.5651
     5.6689   5.8198   5.9572   6.1076   6.1553   6.3022   6.3504   6.5062
     6.6039   6.6503   6.6605   6.6895   6.7042   6.7225   6.7523   6.7656
     6.7914   6.8027   6.8114   6.8135   6.8145   6.8152   6.8262   6.8347
     6.8509   6.8756   6.9101   6.9165   6.9167   6.9187   6.9200   6.9401
     7.0347   7.0834   7.2251   7.2440   7.2488   7.2592   7.2622   7.3248
     7.3474   7.3615   7.4594   7.5010   7.5410   7.5901   7.5932   7.6427
     7.6516   7.6572   7.7537   7.7549   7.7711   7.8247   7.8563   7.8869
     8.0165   8.0465   8.0483   8.0591   8.1399   8.1819   8.2449   8.2624
     8.3235   8.3271   8.4106   8.4566   8.4592   8.4622   8.4787   8.4936
     8.4938   8.5940   8.5952   8.6089   8.6192   8.6195   8.6269   8.6385
     8.6392   8.7562   8.7576   8.7579   8.7844   8.7889   8.7972   8.8535
     8.8611   8.8743   8.8940   8.9143   8.9146   8.9301   8.9384   8.9704
     8.9779   8.9934   9.0154   9.0275   9.0389   9.0513   9.0697   9.1127
     9.1309   9.1406   9.1569   9.1898   9.2186   9.2299   9.2339   9.2410
     9.2466   9.2611

          k = 0.2326 0.2390 0.0000 (283505 PWs)   bands (ev):

   -41.1615 -41.1597 -41.1502 -41.1481 -41.1463 -41.1432 -41.1399 -38.7285
   -37.9927 -37.9648 -37.9633 -37.9576 -37.9569 -37.9431 -37.9405 -35.5300
   -22.9740 -22.9049 -22.8743 -22.8353 -22.8224 -22.7076 -22.6891 -22.6225
   -22.5848 -22.5743 -22.5195 -22.5156 -22.4905 -22.4817 -22.4651 -22.4462
   -22.4180 -22.4059 -22.3706 -22.3498 -22.3339 -22.3327 -22.2833 -22.2267
   -22.2225 -22.2107 -22.2001 -22.1910 -22.1902 -22.1543 -22.1134 -22.1065
   -21.3368 -21.2995 -21.2964 -21.2930 -21.2731 -21.2522 -21.2489 -21.2121
   -21.1999 -21.1836 -21.1602 -21.1490 -21.1272 -21.1097 -21.0998 -21.0869
   -21.0833 -21.0761 -21.0757 -21.0587 -21.0530 -19.7913 -19.7724 -19.7538
   -18.5405 -18.5053 -18.4891 -18.4643 -18.4572 -18.4371 -18.4042 -18.3730
   -18.2926 -18.2849 -18.2682 -18.2660 -18.2523 -18.1750 -18.1411 -18.1237
   -18.0895 -18.0861 -18.0779 -18.0134 -18.0070 -16.7894 -16.7624 -16.7541
   -16.1448 -16.0181 -15.8300 -15.8195 -15.7474 -15.7173 -15.6414 -15.5147
   -15.5082 -15.4519 -15.4145 -15.4116 -15.3575 -15.2924 -15.2470 -15.2213
   -15.1154 -14.9524 -14.7196 -14.6582 -14.6512 -14.6372 -14.6234 -14.5707
   -14.5480 -14.5218 -14.5212 -14.4922 -14.4822 -14.4645 -14.4511 -14.4361
   -14.4269 -14.4177 -14.4094 -14.3889 -14.3858 -14.3757 -14.3471 -14.3397
   -14.3249 -14.3217 -14.3208 -14.3110 -14.2806 -14.2722 -14.2570 -14.2411
   -14.2332 -14.2274 -14.2110 -14.1892 -14.1881 -14.1730 -14.1508 -14.1341
   -14.1307 -14.0938 -14.0859 -14.0813 -14.0784 -14.0692 -14.0260 -14.0153
   -13.9957 -13.9855 -13.9636 -13.9609 -13.9466 -13.9251 -13.9209 -13.9189
   -13.9084 -13.8767 -13.8545 -13.8540 -13.8502 -13.8464 -13.8335 -13.8170
   -13.7830 -13.7614 -13.7430 -13.7419 -13.7108 -13.7069 -13.6789 -13.6750
   -13.6670 -13.6517 -13.6351 -13.6273 -13.6246 -13.6163 -13.6099 -13.5976
   -13.5885 -13.5848 -13.5831 -13.5808 -13.5803 -13.5786 -13.5628 -13.5616
   -13.5609 -13.5440 -13.5310 -13.5215 -13.4854 -13.4595 -13.4470 -13.4388
   -13.4086 -13.3938 -13.3754 -13.3626 -13.3220 -13.3054 -13.1827 -13.1083
    -8.7336  -8.5401  -8.4923  -8.4520  -8.4084  -8.3571  -8.3444  -8.2961
    -8.2794  -8.2634  -8.2516  -8.2310  -8.2277  -8.1928  -8.1746  -8.1393
    -8.1289  -8.1046  -8.0868  -8.0552  -8.0325  -8.0210  -7.9922  -7.9845
    -7.9365  -7.9285  -7.9266  -7.9221  -7.8813  -7.8783  -7.8554  -7.8356
    -7.8325  -7.8291  -7.8272  -7.8140  -7.8126  -7.8054  -7.7972  -7.7861
    -7.7808  -7.7710  -7.7682  -7.7578  -7.7540  -7.7517  -7.7433  -7.7252
    -7.7217  -7.7052  -7.6783  -7.6724  -7.6538  -7.6468  -7.6335  -7.6229
    -7.6066  -7.5983  -7.5962  -7.5835  -7.5721  -7.5667  -7.5276  -7.5262
    -7.5244  -7.5079  -7.5029  -7.4837  -7.4781  -7.4680  -7.4666  -7.4572
    -7.4425  -7.4408  -7.4386  -7.4337  -7.4166  -7.4097  -7.4071  -7.3989
    -7.3878  -7.3760  -7.3511  -7.3036  -7.3027  -7.2656  -7.2622  -7.2318
    -7.2132  -7.1819  -7.1784  -7.1589  -7.1481  -7.1331  -7.1236  -7.1023
    -4.6064  -4.1982  -3.9097  -3.7081  -3.6793  -3.6090  -3.5172  -3.4755
    -3.3773  -3.3020  -3.0492  -3.0307  -3.0118  -2.9978  -2.9856  -2.9732
    -2.8878  -2.8583  -2.8536  -2.8420  -2.8314  -2.7765  -2.7593  -2.7545
    -2.7332  -2.7233  -2.7154  -2.6662  -2.6396  -2.6393  -2.6334  -2.6256
    -2.5954  -2.5694  -2.5610  -2.5588  -2.5119  -2.5019  -2.5003  -2.4335
    -2.4085  -2.3800  -2.3738  -2.3532  -2.3042  -2.2812  -2.2673  -2.2615
    -2.2514  -2.2465  -2.2118  -2.2032  -2.2006  -2.1832  -2.1819  -2.1725
    -2.1213  -2.1167  -2.0916  -2.0580  -2.0392  -2.0273  -2.0172  -1.9977
    -1.9941  -1.9859  -1.9774  -1.9673  -1.9337  -1.9323  -1.9171  -1.9111
    -1.9059  -1.8988  -1.8936  -1.8888  -1.8846  -1.8819  -1.8772  -1.8757
    -1.8625  -1.8542  -1.8528  -1.8393  -1.8278  -1.8228  -1.7991  -1.7878
    -1.7801  -1.7787  -1.7690  -1.7648  -1.7606  -1.7568  -1.7533  -1.7484
    -1.7439  -1.7246  -1.7051  -1.6984  -1.6950  -1.6814  -1.6773  -1.6624
    -1.6609  -1.6292  -1.6140  -1.6089  -1.5885  -1.5685  -1.5633  -1.5614
    -1.5521  -1.5236  -1.5192  -1.5031  -1.4789  -1.4725  -1.4612  -1.4389
    -1.4353  -1.4177  -1.3891  -1.3689  -1.3632  -1.3418  -1.3134  -1.2996
    -1.2903  -1.2685  -1.2492  -1.2421  -1.2402  -1.2280  -1.2127  -1.1888
    -1.1875  -1.1761  -1.1675  -1.1595  -1.1538  -1.1511  -1.1474  -1.1407
    -1.1296  -1.1139  -1.1016  -1.0724  -1.0569  -1.0389  -1.0327  -1.0284
    -1.0009  -0.9847  -0.9828  -0.9636  -0.9578  -0.9496  -0.9350  -0.9188
    -0.8974  -0.8879  -0.8797  -0.8332  -0.8283  -0.8255  -0.8120  -0.8019
    -0.7716  -0.7690  -0.7456  -0.7356  -0.7317  -0.7244  -0.7094  -0.6987
    -0.6934  -0.6837  -0.6746  -0.6715  -0.6678  -0.6665  -0.6643  -0.6566
    -0.6558  -0.6504  -0.6491  -0.6460  -0.6429  -0.6330  -0.6308  -0.6200
    -0.6147  -0.6144  -0.5976  -0.5837  -0.5825  -0.5775  -0.5713  -0.5642
    -0.5572  -0.5381  -0.5296  -0.5234  -0.5170  -0.5070  -0.5018  -0.4965
    -0.4950  -0.4856  -0.4767  -0.4609  -0.4553  -0.4459  -0.4439  -0.4352
    -0.4290  -0.4176  -0.4140  -0.4085  -0.4081  -0.3984  -0.3867  -0.3835
    -0.3733  -0.3629  -0.3446  -0.3347  -0.3314  -0.3256  -0.3251  -0.3132
    -0.3051  -0.2898  -0.2814  -0.2752  -0.2746  -0.2683  -0.2629  -0.2423
    -0.2419  -0.2321  -0.2314  -0.2277  -0.2261  -0.2117  -0.2072  -0.1858
    -0.1743  -0.1613  -0.1532  -0.1339  -0.1170  -0.0964  -0.0878  -0.0771
    -0.0518  -0.0458  -0.0105  -0.0058   0.0026   0.0159   0.0321   0.0485
     0.0696   0.0807   0.0848   0.0947   0.1052   0.1074   0.1105   0.1260
     0.1358   0.1476   0.1629   0.1675   0.1696   0.1725   0.1834   0.1946
     0.2043   0.2082   0.2113   0.2203   0.2271   0.2482   0.2587   0.2658
     0.2734   0.2830   0.2861   0.2891   0.3056   0.3243   0.3272   0.3419
     0.3564   0.3637   0.3663   0.3755   0.3800   0.3973   0.4020   0.4151
     0.4333   0.4644   0.4750   0.4867   0.4906   0.4939   0.4982   0.4990
     0.5080   0.5123   0.5160   0.5206   0.5284   0.5429   0.5455   0.5635
     0.5691   0.5732   0.5828   0.5874   0.5897   0.5915   0.5966   0.6132
     0.6246   0.6300   0.6318   0.6369   0.6417   0.6445   0.6478   0.6529
     0.6535   0.6731   0.6748   0.6801   0.6831   0.6886   0.6958   0.7031
     0.7107   0.7130   0.7295   0.7373   0.7458   0.7510   0.7574   0.7595
     0.7624   0.7730   0.7827   0.7949   0.7971   0.8114   0.8130   0.8131
     0.8339   0.8397   0.8428   0.8472   0.8509   0.8645   0.8908   0.8984
     0.9112   0.9263   0.9282   0.9387   0.9482   0.9546   0.9616   0.9687
     0.9863   1.0075   1.0201   1.0428   1.0686   1.0700   1.0766   1.0802
     1.0905   1.1154   1.1179   1.1262   1.1314   1.1342   1.1454   1.1463
     1.1508   1.1605   1.1631   1.1692   1.1783   1.1891   1.1948   1.2090
     1.2114   1.2219   1.2343   1.2398   1.2468   1.2576   1.2716   1.2779
     1.3013   1.3106   1.3217   1.3287   1.3330   1.3451   1.3497   1.3687
     1.3726   1.3779   1.3974   1.4019   1.4087   1.4113   1.4165   1.4238
     1.4276   1.4306   1.4351   1.4385   1.4407   1.4509   1.4549   1.4592
     1.4675   1.4765   1.4904   1.5019   1.5065   1.5117   1.5155   1.5284
     1.5364   1.5377   1.5397   1.5474   1.5557   1.5641   1.5653   1.5734
     1.5780   1.5900   1.5925   1.6040   1.6098   1.6140   1.6165   1.6239
     1.6257   1.6315   1.6412   1.6486   1.6674   1.6861   1.6871   1.7038
     1.7146   1.7159   1.7249   1.7257   1.7324   1.7379   1.7387   1.7521
     1.7652   1.7676   1.7718   1.7798   1.7839   1.7930   1.8052   1.8110
     1.8131   1.8156   1.8243   1.8361   1.8365   1.8421   1.8458   1.8507
     1.8661   1.8702   1.8750   1.8804   1.8825   1.8900   1.8954   1.9026
     1.9079   1.9200   1.9251   1.9341   1.9427   1.9444   1.9452   1.9530
     1.9587   1.9682   1.9714   1.9834   1.9846   1.9982   1.9986   2.0039
     2.0059   2.0134   2.0194   2.0242   2.0301   2.0364   2.0458   2.0465
     2.0496   2.0615   2.0671   2.0697   2.0741   2.0852   2.0926   2.0975
     2.1026   2.1106   2.1213   2.1233   2.1370   2.1450   2.1542   2.1613
     2.1657   2.1705   2.1875   2.1985   2.2055   2.2128   2.2336   2.2358
     2.2420   2.2445   2.2526   2.2554   2.2597   2.2648   2.2675   2.2855
     2.2928   2.2981   2.3204   2.3401   2.3592   2.3765   2.3861   2.3975
     2.3988   2.4168   2.4379   2.4451   2.4476   2.4594   2.4654   2.4710
     2.4880   2.4945   2.5201   2.5345   2.5402   2.5500   2.5564   2.5819
     2.5892   2.6000   2.6044   2.6114   2.6149   2.6281   2.6546   2.6826
     2.6951   2.7055   2.7118   2.7288   2.7750   2.8389   2.8484   2.8520
     2.8588   2.8723   2.8885   2.8930   2.9217   2.9301   2.9354   2.9432
     2.9553   2.9634   3.0154   3.0697   3.1223   3.1330   3.1787   3.1941
     3.2022   3.2081   3.2240   3.2619   3.2800   3.2872   3.2904   3.2982
     3.3056   3.3077   3.3342   3.3404   3.3541   3.3773   3.4023   3.4198
     3.4228   3.4325   3.4749   3.5010   3.5261   3.5399   3.6142   3.6688
     3.7006   3.7431   3.7803   3.8001   3.8169   4.1438   4.1544   4.1779
     4.1948   4.2810   4.4197   4.4432   4.5344   4.6670   4.6902   4.7069
     4.7644   4.7765   4.8257   4.8361   4.8632   4.9783   5.0087   5.0380
     5.0572   5.0857   5.0940   5.1212   5.1866   5.2165   5.2725   5.3104
     5.3532   5.3933   5.4158   5.4957   5.5499   5.6471   5.6724   5.7191
     5.7715   5.9559   6.1416   6.1917   6.2417   6.2657   6.3123   6.3212
     6.3391   6.3630   6.4625   6.5888   6.6305   6.6513   6.6958   6.7124
     6.7276   6.7485   6.7968   6.8029   6.8200   6.8238   6.8397   6.8502
     6.8555   6.9133   6.9287   6.9473   6.9895   7.0396   7.0612   7.0754
     7.0948   7.1194   7.1444   7.2013   7.2478   7.2805   7.3175   7.3265
     7.3290   7.3741   7.3843   7.4168   7.5074   7.5373   7.6125   7.6734
     7.7297   7.7514   7.8121   7.8486   7.8739   7.8822   7.8931   7.9117
     7.9485   7.9612   7.9738   8.0206   8.0835   8.0878   8.1032   8.1470
     8.1636   8.1899   8.2294   8.2727   8.3443   8.3701   8.4053   8.4356
     8.4883   8.4907   8.5731   8.5956   8.6133   8.6210   8.6345   8.6773
     8.7111   8.7794   8.7934   8.8070   8.8106   8.8210   8.8504   8.8715
     8.8915   8.9094   8.9322   8.9496   8.9593   8.9632   8.9703   8.9821
     8.9928   9.0080   9.0213   9.0310   9.0348   9.0604   9.0776   9.0893
     9.1008   9.1207   9.1359   9.1741   9.1828   9.1948   9.2049   9.2302
     9.2369   9.2509

          k = 0.0000 0.4779 0.0000 (283453 PWs)   bands (ev):

   -41.1608 -41.1603 -41.1504 -41.1492 -41.1444 -41.1432 -41.1405 -38.7285
   -37.9926 -37.9650 -37.9631 -37.9586 -37.9559 -37.9422 -37.9413 -35.5300
   -22.9679 -22.9123 -22.8669 -22.8553 -22.8097 -22.7062 -22.6888 -22.6032
   -22.5852 -22.5734 -22.5629 -22.5266 -22.4769 -22.4554 -22.4494 -22.4429
   -22.4242 -22.4209 -22.3805 -22.3545 -22.3244 -22.3131 -22.2811 -22.2730
   -22.2346 -22.2082 -22.1904 -22.1853 -22.1565 -22.1520 -22.1285 -22.1072
   -21.3357 -21.3073 -21.3026 -21.2878 -21.2765 -21.2496 -21.2272 -21.2169
   -21.1962 -21.1834 -21.1632 -21.1539 -21.1307 -21.1101 -21.1016 -21.0952
   -21.0877 -21.0750 -21.0735 -21.0599 -21.0412 -19.7913 -19.7724 -19.7538
   -18.5358 -18.5307 -18.4953 -18.4647 -18.4385 -18.4359 -18.3846 -18.3477
   -18.2911 -18.2844 -18.2753 -18.2689 -18.2503 -18.1985 -18.1537 -18.1362
   -18.1121 -18.0905 -18.0781 -18.0086 -17.9681 -16.7894 -16.7625 -16.7531
   -16.1052 -16.0108 -15.9660 -15.8445 -15.6808 -15.6506 -15.6073 -15.5303
   -15.5009 -15.4665 -15.4447 -15.3989 -15.3581 -15.2827 -15.2630 -15.1430
   -15.1229 -14.9321 -14.8773 -14.7611 -14.6796 -14.5948 -14.5758 -14.5523
   -14.5400 -14.5313 -14.5056 -14.5037 -14.4874 -14.4752 -14.4694 -14.4164
   -14.4015 -14.3870 -14.3802 -14.3764 -14.3523 -14.3207 -14.3205 -14.3123
   -14.3116 -14.3020 -14.2898 -14.2836 -14.2821 -14.2800 -14.2780 -14.2530
   -14.2460 -14.2266 -14.2195 -14.2135 -14.1992 -14.1822 -14.1560 -14.1325
   -14.1060 -14.1034 -14.1021 -14.0827 -14.0708 -14.0701 -14.0628 -14.0381
   -14.0165 -14.0016 -13.9707 -13.9663 -13.9402 -13.9333 -13.9316 -13.9239
   -13.9109 -13.9058 -13.8947 -13.8734 -13.8603 -13.8579 -13.8436 -13.8117
   -13.7468 -13.7278 -13.7103 -13.7031 -13.6785 -13.6692 -13.6644 -13.6630
   -13.6610 -13.6559 -13.6424 -13.6379 -13.6304 -13.6293 -13.6235 -13.6204
   -13.6185 -13.6131 -13.6095 -13.5783 -13.5728 -13.5700 -13.5672 -13.5670
   -13.5487 -13.5344 -13.5301 -13.5255 -13.4743 -13.4496 -13.4411 -13.4290
   -13.4267 -13.4168 -13.4133 -13.4101 -13.3075 -13.2242 -13.2020 -13.1360
    -8.5879  -8.4470  -8.4312  -8.4104  -8.3587  -8.3553  -8.3340  -8.3302
    -8.3014  -8.2522  -8.1922  -8.1823  -8.1488  -8.1436  -8.1091  -8.1023
    -8.1014  -8.0673  -8.0524  -8.0286  -7.9832  -7.9741  -7.9684  -7.9530
    -7.9413  -7.9307  -7.9211  -7.9112  -7.8884  -7.8871  -7.8781  -7.8670
    -7.8550  -7.8488  -7.8462  -7.8393  -7.8209  -7.8108  -7.8089  -7.7965
    -7.7942  -7.7895  -7.7824  -7.7700  -7.7639  -7.7605  -7.7495  -7.7163
    -7.7070  -7.6900  -7.6842  -7.6838  -7.6784  -7.6768  -7.6389  -7.6324
    -7.6200  -7.5975  -7.5743  -7.5663  -7.5433  -7.5427  -7.5398  -7.5320
    -7.5242  -7.5214  -7.5159  -7.5102  -7.4809  -7.4707  -7.4697  -7.4641
    -7.4451  -7.4329  -7.4265  -7.4165  -7.4164  -7.4156  -7.4125  -7.4063
    -7.4011  -7.3941  -7.3924  -7.3922  -7.3877  -7.3851  -7.3679  -7.3496
    -7.3411  -7.3038  -7.1902  -7.1535  -7.1458  -7.1268  -7.1203  -7.1116
    -4.4509  -4.1592  -4.0904  -3.7773  -3.7434  -3.4827  -3.4599  -3.4020
    -3.3059  -3.2586  -3.2304  -3.1118  -3.0845  -3.0352  -3.0199  -2.9523
    -2.8815  -2.8763  -2.8649  -2.8094  -2.7852  -2.7757  -2.7421  -2.7379
    -2.7129  -2.7093  -2.6985  -2.6586  -2.6491  -2.6439  -2.6190  -2.6094
    -2.5937  -2.5935  -2.5930  -2.5524  -2.5401  -2.4853  -2.4781  -2.4750
    -2.4372  -2.4287  -2.4227  -2.3572  -2.3500  -2.3350  -2.3223  -2.3013
    -2.2857  -2.2531  -2.2460  -2.2348  -2.2192  -2.2133  -2.2023  -2.1573
    -2.1562  -2.1404  -2.0952  -2.0816  -2.0754  -2.0680  -1.9757  -1.9597
    -1.9543  -1.9249  -1.9161  -1.9103  -1.9047  -1.8956  -1.8944  -1.8894
    -1.8879  -1.8845  -1.8768  -1.8703  -1.8579  -1.8537  -1.8528  -1.8328
    -1.8244  -1.8176  -1.8131  -1.8024  -1.8011  -1.7984  -1.7943  -1.7897
    -1.7868  -1.7812  -1.7768  -1.7711  -1.7589  -1.7534  -1.7408  -1.7317
    -1.7299  -1.7200  -1.7089  -1.7067  -1.6690  -1.6628  -1.6285  -1.6157
    -1.6126  -1.5964  -1.5877  -1.5775  -1.5664  -1.5579  -1.5522  -1.5349
    -1.5335  -1.5282  -1.5260  -1.5185  -1.5043  -1.4964  -1.4900  -1.4662
    -1.4623  -1.4467  -1.4452  -1.4286  -1.4142  -1.4074  -1.3908  -1.3903
    -1.3854  -1.3355  -1.3238  -1.2863  -1.2620  -1.2485  -1.2482  -1.2341
    -1.1987  -1.1926  -1.1800  -1.1733  -1.1682  -1.1622  -1.1572  -1.1555
    -1.1484  -1.1293  -1.1272  -1.0819  -1.0598  -0.9788  -0.9760  -0.9741
    -0.9465  -0.9433  -0.9348  -0.9011  -0.8777  -0.8749  -0.8325  -0.8194
    -0.8134  -0.8070  -0.7780  -0.7704  -0.7692  -0.7634  -0.7590  -0.7348
    -0.7300  -0.7186  -0.7065  -0.7001  -0.6948  -0.6940  -0.6899  -0.6768
    -0.6693  -0.6677  -0.6594  -0.6588  -0.6548  -0.6456  -0.6424  -0.6375
    -0.6240  -0.6231  -0.6202  -0.6201  -0.6155  -0.6045  -0.6026  -0.5990
    -0.5883  -0.5867  -0.5772  -0.5771  -0.5727  -0.5717  -0.5629  -0.5568
    -0.5558  -0.5532  -0.5420  -0.5232  -0.5225  -0.5156  -0.5112  -0.4947
    -0.4904  -0.4895  -0.4863  -0.4832  -0.4759  -0.4619  -0.4589  -0.4478
    -0.4460  -0.4401  -0.4367  -0.4282  -0.3942  -0.3915  -0.3812  -0.3630
    -0.3502  -0.3445  -0.3441  -0.3375  -0.3343  -0.3146  -0.3035  -0.2933
    -0.2862  -0.2818  -0.2779  -0.2709  -0.2473  -0.2466  -0.2419  -0.2406
    -0.2399  -0.2347  -0.2278  -0.2171  -0.2070  -0.1892  -0.1822  -0.1758
    -0.1744  -0.1659  -0.1625  -0.1585  -0.1515  -0.1499  -0.1135  -0.1047
    -0.0991  -0.0943  -0.0712  -0.0401  -0.0332  -0.0325  -0.0155  -0.0012
     0.0016   0.0223   0.0229   0.0678   0.0738   0.1002   0.1007   0.1055
     0.1202   0.1329   0.1385   0.1657   0.1709   0.1723   0.1845   0.1889
     0.1894   0.1951   0.2116   0.2276   0.2297   0.2313   0.2492   0.2592
     0.2788   0.2886   0.2975   0.3200   0.3484   0.3581   0.3608   0.3801
     0.3810   0.3863   0.3940   0.4034   0.4114   0.4146   0.4212   0.4359
     0.4359   0.4414   0.4482   0.4514   0.4560   0.4570   0.4611   0.4638
     0.4675   0.4691   0.4731   0.4937   0.4953   0.5110   0.5526   0.5570
     0.5701   0.5766   0.5780   0.5802   0.5999   0.6029   0.6113   0.6297
     0.6397   0.6477   0.6540   0.6563   0.6630   0.6648   0.6665   0.6723
     0.6723   0.6733   0.6765   0.6915   0.6929   0.7056   0.7319   0.7327
     0.7351   0.7384   0.7530   0.7572   0.7628   0.7679   0.7787   0.7793
     0.7895   0.7953   0.7964   0.7974   0.8053   0.8095   0.8198   0.8250
     0.8307   0.8316   0.8426   0.8490   0.8735   0.8970   0.9059   0.9244
     0.9416   0.9472   0.9483   0.9810   0.9945   1.0048   1.0082   1.0083
     1.0271   1.0349   1.0460   1.0464   1.0564   1.0592   1.0611   1.0657
     1.0753   1.0836   1.0869   1.0896   1.1029   1.1152   1.1298   1.1351
     1.1563   1.1740   1.1944   1.1997   1.2150   1.2196   1.2278   1.2395
     1.2416   1.2504   1.2686   1.2804   1.2937   1.2958   1.3060   1.3061
     1.3116   1.3165   1.3283   1.3340   1.3399   1.3432   1.3497   1.3540
     1.3567   1.3616   1.3651   1.3691   1.3701   1.3849   1.3920   1.4153
     1.4167   1.4320   1.4358   1.4389   1.4413   1.4445   1.4523   1.4632
     1.4666   1.4713   1.4820   1.4881   1.5005   1.5019   1.5107   1.5223
     1.5334   1.5411   1.5483   1.5556   1.5621   1.5628   1.5649   1.5782
     1.5903   1.5996   1.6044   1.6063   1.6229   1.6233   1.6285   1.6398
     1.6594   1.6595   1.6670   1.6764   1.6822   1.6919   1.6953   1.6993
     1.7116   1.7192   1.7229   1.7306   1.7327   1.7363   1.7416   1.7466
     1.7490   1.7576   1.7578   1.7687   1.7786   1.7823   1.7877   1.7890
     1.7909   1.7988   1.8077   1.8187   1.8219   1.8245   1.8287   1.8405
     1.8433   1.8485   1.8566   1.8718   1.8734   1.8746   1.8799   1.8898
     1.8933   1.9014   1.9064   1.9072   1.9108   1.9122   1.9256   1.9282
     1.9409   1.9416   1.9474   1.9526   1.9551   1.9627   1.9706   1.9771
     1.9814   1.9912   1.9967   1.9986   2.0014   2.0029   2.0142   2.0188
     2.0310   2.0337   2.0471   2.0584   2.0589   2.0645   2.0804   2.0840
     2.0902   2.0917   2.1008   2.1042   2.1097   2.1170   2.1213   2.1331
     2.1343   2.1408   2.1447   2.1541   2.1556   2.1686   2.1792   2.1814
     2.1915   2.2033   2.2126   2.2408   2.2415   2.2492   2.2553   2.2618
     2.2740   2.2773   2.2860   2.3167   2.3169   2.3276   2.3363   2.3501
     2.3656   2.3775   2.3914   2.4182   2.4423   2.4454   2.4608   2.4662
     2.4665   2.4710   2.4729   2.4791   2.5183   2.5243   2.5270   2.5314
     2.5373   2.5431   2.6202   2.6440   2.6558   2.6602   2.6681   2.6787
     2.6901   2.7109   2.7539   2.7621   2.7710   2.7713   2.8113   2.8154
     2.8248   2.8887   2.9112   2.9219   2.9493   2.9667   2.9768   2.9853
     2.9900   2.9998   3.0713   3.0883   3.0999   3.1610   3.2042   3.2086
     3.2143   3.2170   3.2472   3.2613   3.3027   3.3220   3.3226   3.3265
     3.3373   3.3467   3.3495   3.3704   3.3805   3.3873   3.3878   3.3977
     3.4117   3.4121   3.5059   3.5582   3.5865   3.6231   3.6367   3.6745
     3.6977   3.8064   3.8215   3.9858   3.9963   3.9973   4.0209   4.2256
     4.2309   4.2610   4.2696   4.3942   4.3981   4.5030   4.5922   4.5992
     4.6370   4.7945   4.8311   4.8904   4.9170   4.9288   4.9450   4.9750
     5.0385   5.0550   5.0650   5.0850   5.1681   5.1973   5.2679   5.3111
     5.3629   5.3900   5.4594   5.5224   5.6206   5.6783   5.7947   6.0315
     6.1097   6.1330   6.1564   6.1601   6.2335   6.2382   6.2836   6.3440
     6.3757   6.4224   6.4573   6.5008   6.5084   6.5331   6.5381   6.6074
     6.6772   6.6827   6.7553   6.7894   6.8220   6.8288   6.8362   6.8625
     6.8667   6.9292   6.9384   6.9644   6.9686   7.0030   7.0786   7.1132
     7.1265   7.1375   7.1879   7.1969   7.2107   7.2545   7.2744   7.2788
     7.3132   7.3663   7.4212   7.5156   7.5328   7.5414   7.5917   7.6174
     7.6642   7.7290   7.7602   7.7894   7.8109   7.9011   7.9334   7.9924
     8.0015   8.0208   8.0271   8.0591   8.0798   8.1108   8.1171   8.1179
     8.1238   8.1639   8.1740   8.1967   8.2522   8.2666   8.3235   8.3490
     8.3988   8.4313   8.4506   8.4897   8.5562   8.5852   8.5853   8.6356
     8.6602   8.6710   8.7315   8.7391   8.7724   8.7744   8.7921   8.8406
     8.8568   8.8818   8.8954   8.9465   8.9554   8.9663   8.9877   9.0411
     9.0440   9.0655   9.0710   9.0778   9.0943   9.1039   9.1360   9.1695
     9.1778   9.2017   9.2120   9.2340   9.2415   9.2419   9.2675   9.2698
     9.2767   9.2894

          k =-0.4652-0.0000 0.0000 (283520 PWs)   bands (ev):

   -41.1616 -41.1593 -41.1501 -41.1499 -41.1448 -41.1423 -41.1408 -38.7285
   -37.9926 -37.9656 -37.9622 -37.9586 -37.9562 -37.9426 -37.9409 -35.5300
   -22.9688 -22.9073 -22.8810 -22.8415 -22.8119 -22.7142 -22.6823 -22.6093
   -22.5854 -22.5634 -22.5519 -22.5439 -22.4609 -22.4588 -22.4558 -22.4537
   -22.4246 -22.4143 -22.3816 -22.3482 -22.3276 -22.3190 -22.2719 -22.2612
   -22.2522 -22.2156 -22.1837 -22.1693 -22.1670 -22.1614 -22.1220 -22.1076
   -21.3520 -21.2998 -21.2921 -21.2807 -21.2576 -21.2526 -21.2443 -21.2235
   -21.1988 -21.1836 -21.1642 -21.1528 -21.1306 -21.1144 -21.1057 -21.0912
   -21.0849 -21.0761 -21.0713 -21.0549 -21.0439 -19.7913 -19.7724 -19.7538
   -18.5716 -18.4987 -18.4931 -18.4675 -18.4437 -18.4050 -18.3673 -18.3564
   -18.3020 -18.2947 -18.2744 -18.2727 -18.2658 -18.1918 -18.1664 -18.1308
   -18.1056 -18.0868 -18.0821 -18.0128 -17.9599 -16.7893 -16.7609 -16.7544
   -16.1073 -16.0097 -15.9587 -15.8540 -15.6888 -15.6331 -15.6099 -15.5125
   -15.5055 -15.4991 -15.4295 -15.3959 -15.3623 -15.2778 -15.2660 -15.1366
   -15.1231 -14.9486 -14.8786 -14.7534 -14.6548 -14.6113 -14.5986 -14.5780
   -14.5500 -14.5340 -14.4747 -14.4638 -14.4553 -14.4526 -14.4292 -14.4231
   -14.4120 -14.3939 -14.3738 -14.3708 -14.3637 -14.3621 -14.3548 -14.3412
   -14.3391 -14.3213 -14.3179 -14.3041 -14.3038 -14.2879 -14.2503 -14.2460
   -14.2214 -14.2195 -14.2191 -14.2032 -14.2009 -14.1709 -14.1549 -14.1357
   -14.1005 -14.0782 -14.0615 -14.0530 -14.0355 -14.0340 -14.0328 -14.0190
   -14.0146 -13.9879 -13.9854 -13.9823 -13.9769 -13.9726 -13.9684 -13.9487
   -13.9451 -13.9124 -13.9036 -13.9021 -13.8597 -13.8495 -13.7937 -13.7603
   -13.7562 -13.7497 -13.7263 -13.7260 -13.7208 -13.6950 -13.6739 -13.6688
   -13.6526 -13.6519 -13.6259 -13.6223 -13.6162 -13.6040 -13.6037 -13.6022
   -13.6000 -13.5991 -13.5916 -13.5670 -13.5661 -13.5627 -13.5595 -13.5524
   -13.5503 -13.5411 -13.5291 -13.5290 -13.5167 -13.5154 -13.4778 -13.4476
   -13.4401 -13.3935 -13.3911 -13.3830 -13.2968 -13.2225 -13.2071 -13.1359
    -8.6334  -8.4459  -8.3892  -8.3849  -8.3658  -8.3523  -8.3293  -8.2938
    -8.2860  -8.2521  -8.2181  -8.1538  -8.1461  -8.1348  -8.1268  -8.1091
    -8.1035  -8.0999  -8.0677  -8.0631  -8.0335  -8.0059  -8.0053  -7.9490
    -7.9201  -7.9017  -7.8864  -7.8621  -7.8519  -7.8492  -7.8441  -7.8408
    -7.8403  -7.8374  -7.8292  -7.8102  -7.8067  -7.8065  -7.7976  -7.7945
    -7.7917  -7.7878  -7.7847  -7.7759  -7.7707  -7.7636  -7.7593  -7.7522
    -7.7410  -7.7345  -7.7308  -7.7177  -7.6905  -7.6900  -7.6520  -7.6449
    -7.6151  -7.5898  -7.5822  -7.5787  -7.5552  -7.5418  -7.5387  -7.5334
    -7.5324  -7.5177  -7.5177  -7.5152  -7.5121  -7.5120  -7.4924  -7.4867
    -7.4725  -7.4693  -7.4584  -7.4324  -7.4303  -7.4266  -7.4233  -7.4165
    -7.4139  -7.4065  -7.3845  -7.3492  -7.3125  -7.3076  -7.3046  -7.2708
    -7.2520  -7.2273  -7.2245  -7.1773  -7.1678  -7.1592  -7.1421  -7.1250
    -4.4818  -4.1015  -4.0323  -3.8894  -3.7891  -3.3977  -3.3708  -3.3419
    -3.3220  -3.3200  -3.2886  -3.2426  -3.0834  -3.0638  -2.9634  -2.9550
    -2.9222  -2.9008  -2.8922  -2.8382  -2.8203  -2.7715  -2.7388  -2.7374
    -2.7270  -2.7209  -2.7075  -2.6820  -2.6714  -2.6646  -2.6338  -2.6267
    -2.6160  -2.5679  -2.5532  -2.5446  -2.5247  -2.4697  -2.4568  -2.4514
    -2.4146  -2.4083  -2.4063  -2.3834  -2.3521  -2.2704  -2.2700  -2.2177
    -2.1751  -2.1673  -2.1640  -2.1445  -2.1394  -2.1222  -2.1187  -2.1162
    -2.0780  -2.0681  -2.0644  -2.0406  -2.0128  -1.9990  -1.9874  -1.9799
    -1.9332  -1.9295  -1.9271  -1.9248  -1.9110  -1.8959  -1.8903  -1.8870
    -1.8826  -1.8749  -1.8711  -1.8638  -1.8606  -1.8501  -1.8451  -1.8349
    -1.8247  -1.8243  -1.8149  -1.8136  -1.8125  -1.7999  -1.7884  -1.7869
    -1.7716  -1.7681  -1.7598  -1.7567  -1.7442  -1.7353  -1.7279  -1.7257
    -1.7120  -1.7019  -1.6877  -1.6834  -1.6817  -1.6794  -1.6730  -1.6705
    -1.6565  -1.6475  -1.6422  -1.6234  -1.6205  -1.6181  -1.6130  -1.6094
    -1.6009  -1.5981  -1.5884  -1.5826  -1.5608  -1.5564  -1.5449  -1.5387
    -1.5282  -1.5280  -1.5066  -1.5043  -1.4939  -1.4923  -1.4782  -1.4496
    -1.4446  -1.4425  -1.4178  -1.3662  -1.3579  -1.3554  -1.2845  -1.2579
    -1.2187  -1.2060  -1.1786  -1.1624  -1.1384  -1.1110  -1.1097  -1.0919
    -1.0764  -1.0648  -1.0487  -1.0476  -1.0150  -1.0147  -0.9976  -0.9619
    -0.9471  -0.9073  -0.9013  -0.8994  -0.8513  -0.8330  -0.8279  -0.8258
    -0.8187  -0.8080  -0.7936  -0.7829  -0.7804  -0.7656  -0.7516  -0.7462
    -0.7434  -0.7374  -0.7364  -0.7290  -0.7221  -0.7210  -0.7168  -0.7095
    -0.6993  -0.6945  -0.6846  -0.6809  -0.6795  -0.6655  -0.6509  -0.6387
    -0.6311  -0.6229  -0.6215  -0.5980  -0.5923  -0.5853  -0.5716  -0.5711
    -0.5544  -0.5521  -0.5416  -0.5358  -0.5306  -0.5298  -0.5263  -0.5216
    -0.5158  -0.4985  -0.4975  -0.4875  -0.4861  -0.4806  -0.4793  -0.4711
    -0.4570  -0.4532  -0.4506  -0.4436  -0.4234  -0.4157  -0.4112  -0.3963
    -0.3875  -0.3857  -0.3820  -0.3818  -0.3802  -0.3749  -0.3732  -0.3670
    -0.3622  -0.3541  -0.3364  -0.3280  -0.3189  -0.3149  -0.3075  -0.3044
    -0.3020  -0.2976  -0.2618  -0.2590  -0.2583  -0.2379  -0.2269  -0.2262
    -0.2229  -0.2108  -0.1984  -0.1780  -0.1645  -0.1631  -0.1549  -0.1446
    -0.1424  -0.1304  -0.1217  -0.1183  -0.1094  -0.1090  -0.1045  -0.1006
    -0.0987  -0.0969  -0.0772  -0.0634  -0.0584  -0.0564  -0.0432  -0.0390
    -0.0385   0.0205   0.0256   0.0294   0.0600   0.0619   0.0640   0.0701
     0.0719   0.0741   0.0897   0.0918   0.1036   0.1037   0.1400   0.1511
     0.1627   0.1739   0.1761   0.1844   0.1987   0.2099   0.2482   0.2616
     0.2639   0.2641   0.2882   0.2919   0.3143   0.3221   0.3320   0.3403
     0.3601   0.3708   0.3879   0.4023   0.4263   0.4433   0.4483   0.4504
     0.4520   0.4628   0.4639   0.4699   0.4803   0.4967   0.5019   0.5076
     0.5186   0.5198   0.5212   0.5238   0.5294   0.5294   0.5416   0.5645
     0.5650   0.5657   0.5713   0.5756   0.5881   0.5898   0.5967   0.5999
     0.6060   0.6064   0.6178   0.6260   0.6352   0.6372   0.6396   0.6415
     0.6523   0.6640   0.6808   0.6901   0.6939   0.7009   0.7021   0.7034
     0.7086   0.7205   0.7283   0.7317   0.7373   0.7507   0.7559   0.7611
     0.7968   0.7995   0.8077   0.8112   0.8161   0.8254   0.8444   0.8465
[...]
     atom   60 type  5   force =     0.00000000    0.00000000   -0.00022718
     atom   61 type  5   force =     0.00000000    0.00000000   -0.00082953
     atom   62 type  5   force =     0.00000000    0.00000000   -0.00082953
     atom   63 type  5   force =     0.00000000    0.00007736   -0.00093106
     atom   64 type  5   force =     0.00000000   -0.00007736   -0.00093106
     atom   65 type  4   force =    -0.00030347    0.00008607    0.00102455
     atom   66 type  4   force =    -0.00030347   -0.00008607    0.00102455
     atom   67 type  4   force =     0.00030347    0.00008607    0.00102455
     atom   68 type  4   force =     0.00030347   -0.00008607    0.00102455
     atom   69 type  4   force =     0.00000000   -0.00023337    0.00061887
     atom   70 type  4   force =     0.00000000    0.00023337    0.00061887
     atom   71 type  4   force =    -0.00009760   -0.00002972    0.00121619
     atom   72 type  4   force =    -0.00009760    0.00002972    0.00121619
     atom   73 type  4   force =     0.00009760    0.00002972    0.00121619
     atom   74 type  4   force =     0.00009760   -0.00002972    0.00121619
     atom   75 type  4   force =     0.00018750    0.00000000    0.00106998
     atom   76 type  4   force =    -0.00018750    0.00000000    0.00106998
     atom   77 type  4   force =     0.00000000   -0.00042207    0.00174282
     atom   78 type  4   force =     0.00000000    0.00042207    0.00174282
     atom   79 type  4   force =     0.00021318    0.00000000    0.00082183
     atom   80 type  4   force =    -0.00021318    0.00000000    0.00082183
     atom   81 type  3   force =     0.00008540   -0.00007544   -0.00180314
     atom   82 type  3   force =     0.00008540    0.00007544   -0.00180314
     atom   83 type  3   force =    -0.00008540   -0.00007544   -0.00180314
     atom   84 type  3   force =    -0.00008540    0.00007544   -0.00180314
     atom   85 type  3   force =     0.00002685   -0.00004657   -0.00198993
     atom   86 type  3   force =    -0.00002685   -0.00004657   -0.00198993
     atom   87 type  3   force =    -0.00002685    0.00004657   -0.00198993
     atom   88 type  3   force =     0.00002685    0.00004657   -0.00198993
     atom   89 type  1   force =     0.00000000    0.00000000   -0.00187294
     atom   90 type  1   force =     0.00000000   -0.00024127   -0.00253436
     atom   91 type  1   force =     0.00000000    0.00024127   -0.00253436
     atom   92 type  1   force =    -0.00019384    0.00000000   -0.00165819
     atom   93 type  1   force =     0.00019384    0.00000000   -0.00165819
     atom   94 type  1   force =     0.00000000    0.00000000   -0.00244371
     atom   95 type  1   force =     0.00000000    0.00000000   -0.00244371
     atom   96 type  1   force =     0.00000000    0.00000000   -0.00175732
     atom   97 type  4   force =    -0.00024668   -0.00017114    0.00347386
     atom   98 type  4   force =    -0.00024668    0.00017114    0.00347386
     atom   99 type  4   force =     0.00024668   -0.00017114    0.00347386
     atom  100 type  4   force =     0.00024668    0.00017114    0.00347386
     atom  101 type  4   force =     0.00012432   -0.00035764    0.00349641
     atom  102 type  4   force =    -0.00012432   -0.00035764    0.00349641
     atom  103 type  4   force =    -0.00012432    0.00035764    0.00349641
     atom  104 type  4   force =     0.00012432    0.00035764    0.00349641
     atom  105 type  4   force =     0.00208542    0.00000000    0.00581966
     atom  106 type  4   force =    -0.00208542    0.00000000    0.00581966
     atom  107 type  3   force =    -0.00300375   -0.00112577   -0.01128239
     atom  108 type  3   force =    -0.00300375    0.00112577   -0.01128239
     atom  109 type  3   force =     0.00300375    0.00112577   -0.01128239
     atom  110 type  3   force =     0.00300375   -0.00112577   -0.01128239
     atom  111 type  3   force =    -0.00234689   -0.00028913   -0.01177291
     atom  112 type  3   force =     0.00234689    0.00028913   -0.01177291
     atom  113 type  3   force =    -0.00234689    0.00028913   -0.01177291
     atom  114 type  3   force =     0.00234689   -0.00028913   -0.01177291
     atom  115 type  4   force =     0.00060088   -0.00088549    0.00631846
     atom  116 type  4   force =    -0.00060088   -0.00088549    0.00631846
     atom  117 type  4   force =     0.00060088    0.00088549    0.00631846
     atom  118 type  4   force =    -0.00060088    0.00088549    0.00631846
     atom  119 type  4   force =    -0.00088366    0.00000000    0.00575809
     atom  120 type  4   force =     0.00088366    0.00000000    0.00575809
     atom  121 type  4   force =    -0.00191182   -0.00042210    0.01989143
     atom  122 type  4   force =     0.00191182   -0.00042210    0.01989143
     atom  123 type  4   force =     0.00191182    0.00042210    0.01989143
     atom  124 type  4   force =    -0.00191182    0.00042210    0.01989143
     atom  125 type  4   force =     0.00099222   -0.00073332    0.02103088
     atom  126 type  4   force =     0.00099222    0.00073332    0.02103088
     atom  127 type  4   force =    -0.00099222   -0.00073332    0.02103088
     atom  128 type  4   force =    -0.00099222    0.00073332    0.02103088
     atom  129 type  1   force =     0.00000000    0.00000000   -0.02666237
     atom  130 type  1   force =     0.00000000    0.00000000   -0.02565558
     atom  131 type  1   force =     0.00000000    0.00000000   -0.02565558
     atom  132 type  1   force =    -0.00120017    0.00000000   -0.02644432
     atom  133 type  1   force =     0.00120017    0.00000000   -0.02644432
     atom  134 type  1   force =     0.00000000   -0.00046628   -0.02435144
     atom  135 type  1   force =     0.00000000    0.00046628   -0.02435144
     atom  136 type  1   force =     0.00000000    0.00000000   -0.02304763
     atom  137 type  3   force =     0.00046313    0.00007690    0.00094093
     atom  138 type  3   force =     0.00046313   -0.00007690    0.00094093
     atom  139 type  3   force =    -0.00046313   -0.00007690    0.00094093
     atom  140 type  3   force =    -0.00046313    0.00007690    0.00094093
     atom  141 type  3   force =    -0.00102270    0.00094360    0.00475336
     atom  142 type  3   force =    -0.00102270   -0.00094360    0.00475336
     atom  143 type  3   force =     0.00102270    0.00094360    0.00475336
     atom  144 type  3   force =     0.00102270   -0.00094360    0.00475336
     atom  145 type  4   force =    -0.01678338    0.00000000    0.06991016
     atom  146 type  4   force =     0.01678338    0.00000000    0.06991016
     atom  147 type  4   force =     0.00000000   -0.01654747    0.06862412
     atom  148 type  4   force =     0.00000000    0.01654747    0.06862412
     atom  149 type  4   force =     0.00105092    0.00000000    0.07939804
     atom  150 type  4   force =    -0.00105092    0.00000000    0.07939804
     atom  151 type  4   force =    -0.00181191   -0.00050710    0.07812801
     atom  152 type  4   force =     0.00181191   -0.00050710    0.07812801
     atom  153 type  4   force =     0.00181191    0.00050710    0.07812801
     atom  154 type  4   force =    -0.00181191    0.00050710    0.07812801
     atom  155 type  4   force =     0.00000000    0.00151902    0.07631871
     atom  156 type  4   force =     0.00000000   -0.00151902    0.07631871
     atom  157 type  4   force =     0.00111186   -0.00243334    0.07660285
     atom  158 type  4   force =    -0.00111186    0.00243334    0.07660285
     atom  159 type  4   force =     0.00111186    0.00243334    0.07660285
     atom  160 type  4   force =    -0.00111186   -0.00243334    0.07660285
     atom  161 type  2   force =     0.00000000    0.00000000   -0.04164002
     atom  162 type  5   force =    -0.00202864    0.00000000   -0.09442875
     atom  163 type  5   force =     0.00202864    0.00000000   -0.09442875
     atom  164 type  5   force =     0.00000000    0.00000000   -0.08631065
     atom  165 type  5   force =     0.00000000    0.00000000   -0.08726909
     atom  166 type  5   force =     0.00000000    0.00000000   -0.08726909
     atom  167 type  5   force =     0.00000000   -0.00179172   -0.09661613
     atom  168 type  5   force =     0.00000000    0.00179172   -0.09661613
     atom  169 type  4   force =    -0.00110024    0.00050838   -0.00095890
     atom  170 type  4   force =    -0.00110024   -0.00050838   -0.00095890
     atom  171 type  4   force =     0.00110024    0.00050838   -0.00095890
     atom  172 type  4   force =     0.00110024   -0.00050838   -0.00095890
     atom  173 type  4   force =     0.00000000   -0.00033275    0.00070621
     atom  174 type  4   force =     0.00000000    0.00033275    0.00070621
     atom  175 type  4   force =    -0.00084063   -0.00071210   -0.00651676
     atom  176 type  4   force =    -0.00084063    0.00071210   -0.00651676
     atom  177 type  4   force =     0.00084063    0.00071210   -0.00651676
     atom  178 type  4   force =     0.00084063   -0.00071210   -0.00651676
     atom  179 type  4   force =     0.00084483    0.00000000   -0.00446937
     atom  180 type  4   force =    -0.00084483    0.00000000   -0.00446937
     atom  181 type  4   force =     0.00000000   -0.00377447    0.00338366
     atom  182 type  4   force =     0.00000000    0.00377447    0.00338366
     atom  183 type  4   force =     0.00256113    0.00000000   -0.00272670
     atom  184 type  4   force =    -0.00256113    0.00000000   -0.00272670
     atom  185 type  3   force =     0.00092059   -0.00096412   -0.02141907
     atom  186 type  3   force =     0.00092059    0.00096412   -0.02141907
     atom  187 type  3   force =    -0.00092059   -0.00096412   -0.02141907
     atom  188 type  3   force =    -0.00092059    0.00096412   -0.02141907
     atom  189 type  3   force =     0.00104564   -0.00009864   -0.02425254
     atom  190 type  3   force =    -0.00104564   -0.00009864   -0.02425254
     atom  191 type  3   force =    -0.00104564    0.00009864   -0.02425254
     atom  192 type  3   force =     0.00104564    0.00009864   -0.02425254
     atom  193 type  1   force =     0.00000000    0.00000000   -0.02568638
     atom  194 type  1   force =     0.00000000   -0.00009829   -0.02966026
     atom  195 type  1   force =     0.00000000    0.00009829   -0.02966026
     atom  196 type  1   force =    -0.00000356    0.00000000   -0.03028946
     atom  197 type  1   force =     0.00000356    0.00000000   -0.03028946
     atom  198 type  1   force =     0.00000000    0.00000000   -0.02956637
     atom  199 type  1   force =     0.00000000    0.00000000   -0.02956637
     atom  200 type  1   force =     0.00000000    0.00000000   -0.02992678
     atom  201 type  4   force =    -0.00009756    0.00012753   -0.00377146
     atom  202 type  4   force =    -0.00009756   -0.00012753   -0.00377146
     atom  203 type  4   force =     0.00009756    0.00012753   -0.00377146
     atom  204 type  4   force =     0.00009756   -0.00012753   -0.00377146
     atom  205 type  4   force =    -0.00020881   -0.00013084   -0.00377990
     atom  206 type  4   force =     0.00020881   -0.00013084   -0.00377990
     atom  207 type  4   force =     0.00020881    0.00013084   -0.00377990
     atom  208 type  4   force =    -0.00020881    0.00013084   -0.00377990
     atom  209 type  4   force =     0.00022323    0.00000000    0.00372808
     atom  210 type  4   force =    -0.00022323    0.00000000    0.00372808
     atom  211 type  3   force =     0.00016070   -0.00004344   -0.00199790
     atom  212 type  3   force =     0.00016070    0.00004344   -0.00199790
     atom  213 type  3   force =    -0.00016070    0.00004344   -0.00199790
     atom  214 type  3   force =    -0.00016070   -0.00004344   -0.00199790
     atom  215 type  3   force =     0.00004648   -0.00013261   -0.00198675
     atom  216 type  3   force =    -0.00004648    0.00013261   -0.00198675
     atom  217 type  3   force =     0.00004648    0.00013261   -0.00198675
     atom  218 type  3   force =    -0.00004648   -0.00013261   -0.00198675
     atom  219 type  4   force =    -0.00008199    0.00076104    0.00352821
     atom  220 type  4   force =     0.00008199    0.00076104    0.00352821
     atom  221 type  4   force =    -0.00008199   -0.00076104    0.00352821
     atom  222 type  4   force =     0.00008199   -0.00076104    0.00352821
     atom  223 type  4   force =    -0.00030893    0.00000000    0.00290863
     atom  224 type  4   force =     0.00030893    0.00000000    0.00290863

     Total force =     0.418725     Total SCF correction =     0.000164


     Computing stress (Cartesian axis) and pressure


     negative rho (up, down):  6.293E-01 0.000E+00
          total   stress  (Ry/bohr**3)                   (kbar)     P=      -10.57
  -0.00001712   0.00000000   0.00000000           -2.52        0.00        0.00
   0.00000000  -0.00000377   0.00000000            0.00       -0.55        0.00
   0.00000000   0.00000000  -0.00019476            0.00        0.00      -28.65

 
     init_run     :     60.08s CPU     63.66s WALL (       1 calls)
     electrons    :   4472.37s CPU   4669.09s WALL (       1 calls)
     forces       :     35.55s CPU     37.76s WALL (       1 calls)
     stress       :    491.95s CPU    496.79s WALL (       1 calls)

     Called by init_run:
     wfcinit      :     48.10s CPU     50.11s WALL (       1 calls)
     potinit      :      1.63s CPU      1.70s WALL (       1 calls)
     hinit0       :      2.98s CPU      3.03s WALL (       1 calls)

     Called by electrons:
     c_bands      :   3729.83s CPU   3814.52s WALL (      41 calls)
     sum_band     :    504.91s CPU    565.97s WALL (      41 calls)
     v_of_rho     :     11.81s CPU     12.03s WALL (      42 calls)
     newd         :     80.06s CPU    131.01s WALL (      42 calls)
     mix_rho      :    146.18s CPU    147.21s WALL (      41 calls)

     Called by c_bands:
     init_us_2    :     12.63s CPU     13.03s WALL (     340 calls)
     cegterg      :   3640.35s CPU   3720.70s WALL (     164 calls)

     Called by sum_band:
     sum_band:bec :      3.68s CPU      3.69s WALL (     164 calls)
     addusdens    :     74.36s CPU    131.29s WALL (      41 calls)

     Called by *egterg:
     h_psi        :   1519.86s CPU   1550.98s WALL (     973 calls)
     s_psi        :    430.29s CPU    441.04s WALL (     973 calls)
     g_psi        :      2.00s CPU      2.02s WALL (     805 calls)
     cdiaghg      :    687.58s CPU    690.70s WALL (     969 calls)

     Called by h_psi:
     h_psi:calbec :    479.27s CPU    482.75s WALL (     973 calls)
     vloc_psi     :    606.75s CPU    614.59s WALL (     973 calls)
     add_vuspsi   :    430.49s CPU    442.35s WALL (     973 calls)

     General routines
     calbec       :    799.49s CPU    804.33s WALL (    1157 calls)
     fft          :     12.67s CPU     12.75s WALL (     569 calls)
     ffts         :     91.83s CPU     92.48s WALL (   34665 calls)
     fftw         :    682.10s CPU    690.59s WALL (  926054 calls)
     interpolate  :      1.12s CPU      1.13s WALL (      42 calls)
 
     Parallel routines
     fft_scatt_xy :     92.02s CPU     93.18s WALL (  961288 calls)
     fft_scatt_yz :    464.61s CPU    470.39s WALL (  961288 calls)
 
     PWSCF        :      1h24m CPU      1h27m WALL

 
   This run was terminated on:  23:57:30  17May2021            

=------------------------------------------------------------------------------=
   JOB DONE.
=------------------------------------------------------------------------------=
[1621310251.089559] [holy7c06609:146212:0]          mpool.c:43   UCX  WARN  object 0x2db6a00 was not returned to mpool ucp_requests
[1621310251.096247] [holy7c06203:215141:0]          mpool.c:43   UCX  WARN  object 0x3b49680 was not returned to mpool ucp_requests
[1621310251.107301] [holy7c06607:266304:0]          mpool.c:43   UCX  WARN  object 0x4024f40 was not returned to mpool ucp_requests
[1621310251.101089] [holy7c06203:215133:0]          mpool.c:43   UCX  WARN  object 0x2907c40 was not returned to mpool ucp_requests
[1621310251.097548] [holy7c06203:215135:0]          mpool.c:43   UCX  WARN  object 0x2e60b80 was not returned to mpool ucp_requests
[1621310251.090147] [holy7c06203:215140:0]          mpool.c:43   UCX  WARN  object 0x6770480 was not returned to mpool ucp_requests
[1621310251.099086] [holy7c06203:215142:0]          mpool.c:43   UCX  WARN  object 0x3e43080 was not returned to mpool ucp_requests
[1621310251.103360] [holy7c06203:215143:0]          mpool.c:43   UCX  WARN  object 0x480d680 was not returned to mpool ucp_requests
[1621310251.104284] [holy7c06203:215134:0]          mpool.c:43   UCX  WARN  object 0x64eca40 was not returned to mpool ucp_requests
[1621310251.095698] [holy7c06609:146214:0]          mpool.c:43   UCX  WARN  object 0x29ada40 was not returned to mpool ucp_requests
[1621310251.102134] [holy7c06609:146220:0]          mpool.c:43   UCX  WARN  object 0x6760940 was not returned to mpool ucp_requests
[1621310251.107947] [holy7c06609:146222:0]          mpool.c:43   UCX  WARN  object 0x3e95ac0 was not returned to mpool ucp_requests
[1621310251.109179] [holy7c06609:146213:0]          mpool.c:43   UCX  WARN  object 0x5702ec0 was not returned to mpool ucp_requests
[1621310251.110624] [holy7c08101:74559:0]          mpool.c:43   UCX  WARN  object 0x46a48c0 was not returned to mpool ucp_requests
[1621310251.108608] [holy7c08101:74557:0]          mpool.c:43   UCX  WARN  object 0x32fd440 was not returned to mpool ucp_requests
[1621310251.114313] [holy7c06609:146223:0]          mpool.c:43   UCX  WARN  object 0x2c87b40 was not returned to mpool ucp_requests
[1621310251.114070] [holy7c06609:146221:0]          mpool.c:43   UCX  WARN  object 0x3a8eb80 was not returned to mpool ucp_requests
[1621310251.114090] [holy7c06609:146221:0]          mpool.c:43   UCX  WARN  object 0x3a8f980 was not returned to mpool ucp_requests
[1621310251.115138] [holy7c06609:146215:0]          mpool.c:43   UCX  WARN  object 0x2c052c0 was not returned to mpool ucp_requests
[1621310251.109609] [holy7c06607:266305:0]          mpool.c:43   UCX  WARN  object 0x60d9b00 was not returned to mpool ucp_requests
[1621310251.110531] [holy7c08101:74558:0]          mpool.c:43   UCX  WARN  object 0x32d8100 was not returned to mpool ucp_requests
[1621310251.118147] [holy7c06607:266307:0]          mpool.c:43   UCX  WARN  object 0x4411840 was not returned to mpool ucp_requests
[1621310251.122702] [holy7c06607:266315:0]          mpool.c:43   UCX  WARN  object 0x36f1c80 was not returned to mpool ucp_requests
[1621310251.119379] [holy7c08101:74560:0]          mpool.c:43   UCX  WARN  object 0x35b21c0 was not returned to mpool ucp_requests
[1621310251.119529] [holy7c06607:266306:0]          mpool.c:43   UCX  WARN  object 0x306c580 was not returned to mpool ucp_requests
[1621310251.122320] [holy7c06607:266312:0]          mpool.c:43   UCX  WARN  object 0x30bf4c0 was not returned to mpool ucp_requests
[1621310251.118528] [holy7c06607:266298:0]          mpool.c:43   UCX  WARN  object 0x45c6a40 was not returned to mpool ucp_requests
[1621310251.122624] [holy7c06607:266297:0]          mpool.c:43   UCX  WARN  object 0x63b9500 was not returned to mpool ucp_requests
[1621310251.122652] [holy7c06607:266297:0]          mpool.c:43   UCX  WARN  object 0x4267f40 was not returned to mpool ucp_requests
[1621310251.128733] [holy7c06607:266313:0]          mpool.c:43   UCX  WARN  object 0x3250540 was not returned to mpool ucp_requests
[1621310251.130817] [holy7c06607:266314:0]          mpool.c:43   UCX  WARN  object 0x432ea40 was not returned to mpool ucp_requests
[1621310251.128627] [holy7c06607:266296:0]          mpool.c:43   UCX  WARN  object 0x3198680 was not returned to mpool ucp_requests
[1621310251.147286] [holy7c06607:266299:0]          mpool.c:43   UCX  WARN  object 0x55368c0 was not returned to mpool ucp_requests
