
     Program PWSCF v.6.5 starts on 18May2021 at 21:15:42 

     This program is part of the open-source Quantum ESPRESSO suite
     for quantum simulation of materials; please cite
         "P. Giannozzi et al., J. Phys.:Condens. Matter 21 395502 (2009);
         "P. Giannozzi et al., J. Phys.:Condens. Matter 29 465901 (2017);
          URL http://www.quantum-espresso.org", 
     in publications or presentations arising from this work. More details at
     http://www.quantum-espresso.org/quote

     Parallel version (MPI), running on    80 processors

     MPI processes distributed on     5 nodes
     R & G space division:  proc/nbgrp/npool/nimage =      80
     Reading input from YBCO_CuO_cleave_5.0_sep.pwi
Warning: card &IONS ignored
Warning: card     ION_DYNAMICS = 'BFGS' ignored
Warning: card / ignored
Warning: card &CELL ignored
Warning: card     CELL_DYNAMICS = 'BFGS' ignored
Warning: card     PRESS_CONV_THR = 5 ignored
Warning: card / ignored

     Current dimensions of program PWSCF are:
     Max number of different atomic species (ntypx) = 10
     Max number of k-points (npk) =  40000
     Max angular momentum in pseudopotentials (lmaxx) =  3
     Message from routine volume:
     axis vectors are left-handed

     Subspace diagonalization in iterative solution of the eigenvalue problem:
     one sub-group per band group will be used
     scalapack distributed-memory algorithm (size of sub-group:  8*  8 procs)

     Message from routine setup:
     using ibrav=0 with symmetry is DISCOURAGED, use correct ibrav instead
 
     Parallelization info
     --------------------
     sticks:   dense  smooth     PW     G-vecs:    dense   smooth      PW
     Min         300     100     25               157004    30216    3967
     Max         301     101     26               157041    30239    4006
     Sum       24079    8031   2067             12562461  2418073  319497
 


     bravais-lattice index     =            0
     lattice parameter (alat)  =      20.5021  a.u.
     unit-cell volume          =   38505.5562 (a.u.)^3
     number of atoms/cell      =          224
     number of atomic types    =            5
     number of electrons       =      1830.00
     number of Kohn-Sham states=         1098
     kinetic-energy cutoff     =      60.0000  Ry
     charge density cutoff     =     720.0000  Ry
     convergence threshold     =      1.0E-08
     mixing beta               =       0.5000
     number of iterations used =           10  local-TF  mixing
     Exchange-correlation= SLA PW PBE PBE
                           (   1   4   3   4   0   0   0)

     celldm(1)=  20.502120  celldm(2)=   0.000000  celldm(3)=   0.000000
     celldm(4)=   0.000000  celldm(5)=   0.000000  celldm(6)=   0.000000

     crystal axes: (cart. coord. in units of alat)
               a(1) = (  -0.716599   0.697485   0.000000 )  
               a(2) = (   0.716599   0.697485   0.000000 )  
               a(3) = (   0.000000   0.000000   4.469776 )  

     reciprocal axes: (cart. coord. in units 2 pi/alat)
               b(1) = ( -0.697740  0.716861  0.000000 )  
               b(2) = (  0.697740  0.716861  0.000000 )  
               b(3) = (  0.000000  0.000000  0.223725 )  


     PseudoPot. # 1 for Ba read from file:
     ./pseudo/Ba.pbe-nsp-van.UPF
     MD5 check sum: 2b9c31dd849566dd297d80989662b7a0
     Pseudo is Ultrasoft + core correction, Zval = 10.0
     Generated by new atomic code, or converted to UPF format
     Using radial grid of  907 points,  6 beta functions with: 
                l(1) =   0
                l(2) =   0
                l(3) =   1
                l(4) =   1
                l(5) =   2
                l(6) =   2
     Q(r) pseudized with  6 coefficients,  rinner =    1.200   1.200   1.200
                                                       1.200   1.200

     PseudoPot. # 2 for Ca read from file:
     ./pseudo/Ca.pbe-nsp-van.UPF
     MD5 check sum: 6471098428ff4fa451746d08035ff179
     Pseudo is Ultrasoft + core correction, Zval = 10.0
     Generated by new atomic code, or converted to UPF format
     Using radial grid of  845 points,  6 beta functions with: 
                l(1) =   0
                l(2) =   0
                l(3) =   1
                l(4) =   1
                l(5) =   2
                l(6) =   2
     Q(r) pseudized with  6 coefficients,  rinner =    1.200   1.200   1.200
                                                       1.200   1.200

     PseudoPot. # 3 for Cu read from file:
     ./pseudo/Cu.pbe-n-van_ak.UPF
     MD5 check sum: 34e3282627ffb533726feb647e090d62
     Pseudo is Ultrasoft + core correction, Zval = 11.0
     Generated by new atomic code, or converted to UPF format
     Using radial grid of  867 points,  6 beta functions with: 
                l(1) =   0
                l(2) =   0
                l(3) =   1
                l(4) =   1
                l(5) =   2
                l(6) =   2
     Q(r) pseudized with  8 coefficients,  rinner =    1.400   1.400   1.400
                                                       1.400   1.400

     PseudoPot. # 4 for O  read from file:
     ./pseudo/O.pbe-van_ak.UPF
     MD5 check sum: 783ce7fe4c79b6a4916957118fed0856
     Pseudo is Ultrasoft, Zval =  6.0
     Generated by new atomic code, or converted to UPF format
     Using radial grid of  737 points,  4 beta functions with: 
                l(1) =   0
                l(2) =   0
                l(3) =   1
                l(4) =   1
     Q(r) pseudized with  8 coefficients,  rinner =    0.800   0.800   0.800


     PseudoPot. # 5 for Y  read from file:
     ./pseudo/Y.pbe-nsp-van.UPF
     MD5 check sum: 4412fed3ab108fed87a1b7d6a69a4a38
     Pseudo is Ultrasoft + core correction, Zval = 11.0
     Generated by new atomic code, or converted to UPF format
     Using radial grid of  885 points,  6 beta functions with: 
                l(1) =   0
                l(2) =   0
                l(3) =   1
                l(4) =   1
                l(5) =   2
                l(6) =   2
     Q(r) pseudized with  6 coefficients,  rinner =    1.200   1.200   1.200
                                                       1.200   1.200

     atomic species   valence    mass     pseudopotential
        Ba            10.00   137.32700     Ba( 1.00)
        Ca            10.00    40.07800     Ca( 1.00)
        Cu            11.00    63.54600     Cu( 1.00)
        O              6.00    15.99900     O ( 1.00)
        Y             11.00    88.90584     Y ( 1.00)

      4 Sym. Ops. (no inversion) found ( 3 have fractional translation)



   Cartesian axes

     site n.     atom                  positions (alat units)
         1           O   tau(   1) = (   0.3545921   0.8718562  -0.0077406  )
         2           O   tau(   2) = (   0.0037072   0.8718562  -0.0077406  )
         3           Cu  tau(   3) = (  -0.0002581   0.0006065   0.0080789  )
         4           Cu  tau(   4) = (  -0.0002581   0.3481364   0.0080789  )
         5           Cu  tau(   5) = (   0.3585574   0.3481364   0.0080789  )
         6           Cu  tau(   6) = (  -0.3580421   0.6980913   0.0080789  )
         7           Cu  tau(   7) = (   0.3577988   0.6971373   0.0086255  )
         8           Cu  tau(   8) = (   0.0005005   1.0465760   0.0086255  )
         9           Cu  tau(   9) = (  -0.3588016   0.3490903   0.0086255  )
        10           Cu  tau(  10) = (   0.0005005   0.6971373   0.0086255  )
        11           O   tau(  11) = (  -0.0001733   0.5225410  -0.0089757  )
        12           O   tau(  12) = (   0.3584726   0.5225410  -0.0089757  )
        13           O   tau(  13) = (  -0.0001733   1.2211724  -0.0089757  )
        14           O   tau(  14) = (  -0.3581278   0.5236867  -0.0089757  )
        15           O   tau(  15) = (  -0.3544557   0.8718562  -0.0105593  )
        16           O   tau(  16) = (  -0.0038445   0.1743714  -0.0105593  )
        17           O   tau(  17) = (   0.3588818   0.3486599   0.1817056  )
        18           O   tau(  18) = (  -0.0005825   0.3486599   0.1817056  )
        19           O   tau(  19) = (  -0.0005825   0.0000830   0.1817056  )
        20           O   tau(  20) = (  -0.3577167   0.6975677   0.1817056  )
        21           O   tau(  21) = (   0.3584283   0.6967843   0.1825784  )
        22           O   tau(  22) = (  -0.3581712   0.3494443   0.1825784  )
        23           O   tau(  23) = (  -0.0001290   0.6967843   0.1825784  )
        24           O   tau(  24) = (  -0.0001290   1.0469291   0.1825784  )
        25           Ba  tau(  25) = (   0.1791506   0.8718562   0.1908537  )
        26           Ba  tau(  26) = (   0.5374498   0.5231143   0.1919901  )
        27           Ba  tau(  27) = (  -0.1791506   0.5231143   0.1919901  )
        28           Ba  tau(  28) = (  -0.1793773   0.8718562   0.1931958  )
        29           Ba  tau(  29) = (  -0.1789238   0.1743714   0.1931958  )
        30           Ba  tau(  30) = (   0.1791506   0.5222101   0.1929368  )
        31           Ba  tau(  31) = (  -0.5374498   0.5240176   0.1929368  )
        32           Ba  tau(  32) = (   0.1791506   0.1743714   0.1992469  )
        33           Cu  tau(  33) = (  -0.3583426   0.3488452   0.3777458  )
        34           Cu  tau(  34) = (   0.3582559   0.6973834   0.3777458  )
        35           Cu  tau(  35) = (   0.0000433   0.6973834   0.3777458  )
        36           Cu  tau(  36) = (   0.0000433   1.0463299   0.3777458  )
        37           Cu  tau(  37) = (  -0.3586541   0.6975060   0.3775126  )
        38           Cu  tau(  38) = (   0.3579444   0.3487217   0.3775126  )
        39           Cu  tau(  39) = (   0.0003549   0.0000212   0.3775126  )
        40           Cu  tau(  40) = (   0.0003549   0.3487217   0.3775126  )
        41           O   tau(  41) = (  -0.0047976   0.1743714   0.3996864  )
        42           O   tau(  42) = (  -0.3535026   0.8718562   0.3996864  )
        43           O   tau(  43) = (  -0.5374498   0.6924605   0.3956991  )
        44           O   tau(  44) = (   0.1791506   0.3537672   0.3956991  )
        45           O   tau(  45) = (   0.3586385   0.8718562   0.4046840  )
        46           O   tau(  46) = (  -0.0003392   0.8718562   0.4046840  )
        47           O   tau(  47) = (  -0.0004857   0.5230571   0.4066611  )
        48           O   tau(  48) = (   0.3587850   0.5230571   0.4066611  )
        49           O   tau(  49) = (  -0.3578135   0.5231714   0.4066611  )
        50           O   tau(  50) = (  -0.0004857   1.2206562   0.4066611  )
        51           O   tau(  51) = (   0.1791506   1.0461604   0.4028931  )
        52           O   tau(  52) = (   0.1791506   0.6975521   0.4028931  )
        53           O   tau(  53) = (  -0.1792261   0.6967170   0.4025963  )
        54           O   tau(  54) = (  -0.1790731   0.3495106   0.4025963  )
        55           O   tau(  55) = (  -0.1792261   1.0469964   0.4025963  )
        56           O   tau(  56) = (   0.5375263   0.6967170   0.4025963  )
        57           Ca  tau(  57) = (   0.1791506   0.1743714   0.5358617  )
        58           Y   tau(  58) = (  -0.1811525   0.8718562   0.5373908  )
        59           Y   tau(  59) = (  -0.1771467   0.1743714   0.5373908  )
        60           Y   tau(  60) = (   0.1791506   0.8718562   0.5379568  )
        61           Y   tau(  61) = (   0.5374498   0.5231143   0.5384490  )
        62           Y   tau(  62) = (  -0.1791506   0.5231143   0.5384490  )
        63           Y   tau(  63) = (   0.1791506   0.5216598   0.5383310  )
        64           Y   tau(  64) = (  -0.5374498   0.5245688   0.5383310  )
        65           O   tau(  65) = (  -0.1787754   0.3493171   0.6712314  )
        66           O   tau(  66) = (   0.5378231   0.6969115   0.6712314  )
        67           O   tau(  67) = (  -0.1795239   1.0468019   0.6712314  )
        68           O   tau(  68) = (  -0.1795239   0.6969115   0.6712314  )
        69           O   tau(  69) = (   0.1791506   0.6972691   0.6718637  )
        70           O   tau(  70) = (   0.1791506   1.0464433   0.6718637  )
        71           O   tau(  71) = (  -0.0003880   1.2203935   0.6667490  )
        72           O   tau(  72) = (  -0.0003880   0.5233198   0.6667490  )
        73           O   tau(  73) = (   0.3586882   0.5233198   0.6667490  )
        74           O   tau(  74) = (  -0.3579112   0.5229087   0.6667490  )
        75           O   tau(  75) = (   0.3585850   0.8718562   0.6641940  )
        76           O   tau(  76) = (  -0.0002857   0.8718562   0.6641940  )
        77           O   tau(  77) = (   0.1791506   0.3535118   0.6756778  )
        78           O   tau(  78) = (  -0.5374498   0.6927158   0.6756778  )
        79           O   tau(  79) = (  -0.0043044   0.1743714   0.6710848  )
        80           O   tau(  80) = (  -0.3539948   0.8718562   0.6710848  )
        81           Cu  tau(  81) = (  -0.3586514   0.6973604   0.6974442  )
        82           Cu  tau(  82) = (   0.3579472   0.3488682   0.6974442  )
        83           Cu  tau(  83) = (   0.0003521  -0.0001254   0.6974442  )
        84           Cu  tau(  84) = (   0.0003521   0.3488682   0.6974442  )
        85           Cu  tau(  85) = (   0.0000083   1.0459401   0.6989015  )
        86           Cu  tau(  86) = (  -0.3583076   0.3484544   0.6989015  )
        87           Cu  tau(  87) = (   0.3582910   0.6977733   0.6989015  )
        88           Cu  tau(  88) = (   0.0000083   0.6977733   0.6989015  )
        89           Ba  tau(  89) = (   0.1791506   0.1743714   0.8671591  )
        90           Ba  tau(  90) = (  -0.5374498   0.5239908   0.8827639  )
        91           Ba  tau(  91) = (   0.1791506   0.5222377   0.8827639  )
        92           Ba  tau(  92) = (  -0.1785616   0.1743714   0.8784262  )
        93           Ba  tau(  93) = (  -0.1797386   0.8718562   0.8784262  )
        94           Ba  tau(  94) = (  -0.1791506   0.5231143   0.8841483  )
        95           Ba  tau(  95) = (   0.5374498   0.5231143   0.8841483  )
        96           Ba  tau(  96) = (   0.1791506   0.8718562   0.8844635  )
        97           O   tau(  97) = (   0.3607888   0.6975991   0.9037874  )
        98           O   tau(  98) = (  -0.3558097   0.3486286   0.9037874  )
        99           O   tau(  99) = (  -0.0024896   0.6975991   0.9037874  )
       100           O   tau( 100) = (  -0.0024896   1.0461143   0.9037874  )
       101           O   tau( 101) = (   0.3544087   0.3463252   0.9043663  )
       102           O   tau( 102) = (   0.0038906   0.3463252   0.9043663  )
       103           O   tau( 103) = (   0.0038906   0.0024177   0.9043663  )
       104           O   tau( 104) = (  -0.3621908   0.6999025   0.9043663  )
       105           O   tau( 105) = (   0.3314246   0.8718562   1.0783672  )
       106           O   tau( 106) = (   0.0268747   0.8718562   1.0783672  )
       107           Cu  tau( 107) = (  -0.0027882   0.0031818   1.0782086  )
       108           Cu  tau( 108) = (  -0.0027882   0.3455601   1.0782086  )
       109           Cu  tau( 109) = (   0.3610875   0.3455601   1.0782086  )
       110           Cu  tau( 110) = (  -0.3555111   0.7006675   1.0782086  )
       111           Cu  tau( 111) = (   0.3579684   0.6983604   1.0781976  )
       112           Cu  tau( 112) = (   0.0003318   1.0453529   1.0781976  )
       113           Cu  tau( 113) = (  -0.3586320   0.3478672   1.0781976  )
       114           Cu  tau( 114) = (   0.0003318   0.6983604   1.0781976  )
       115           O   tau( 115) = (  -0.0055718   0.5218801   1.0778989  )
       116           O   tau( 116) = (   0.3638720   0.5218801   1.0778989  )
       117           O   tau( 117) = (  -0.0055718   1.2218333   1.0778989  )
       118           O   tau( 118) = (  -0.3527284   0.5243475   1.0778989  )
       119           O   tau( 119) = (  -0.3170374   0.8718562   1.0783192  )
       120           O   tau( 120) = (  -0.0412618   0.1743714   1.0783192  )
       121           O   tau( 121) = (   0.3544105   0.3465040   1.7128974  )
       122           O   tau( 122) = (   0.0038887   0.3465040   1.7128974  )
       123           O   tau( 123) = (   0.0038887   0.0022389   1.7128974  )
       124           O   tau( 124) = (  -0.3621880   0.6997236   1.7128974  )
       125           O   tau( 125) = (   0.3607981   0.6973991   1.7134587  )
       126           O   tau( 126) = (  -0.3558014   0.3488295   1.7134587  )
       127           O   tau( 127) = (  -0.0024988   0.6973991   1.7134587  )
       128           O   tau( 128) = (  -0.0024988   1.0463143   1.7134587  )
       129           Ba  tau( 129) = (   0.1791506   0.8718562   1.7328140  )
       130           Ba  tau( 130) = (   0.5374498   0.5231143   1.7331375  )
       131           Ba  tau( 131) = (  -0.1791506   0.5231143   1.7331375  )
       132           Ba  tau( 132) = (  -0.1796732   0.8718562   1.7388374  )
       133           Ba  tau( 133) = (  -0.1786270   0.1743714   1.7388374  )
       134           Ba  tau( 134) = (   0.1791506   0.5222571   1.7345652  )
       135           Ba  tau( 135) = (  -0.5374498   0.5239706   1.7345652  )
       136           Ba  tau( 136) = (   0.1791506   0.1743714   1.7500880  )
       137           Cu  tau( 137) = (  -0.3583094   0.3484682   1.9183843  )
       138           Cu  tau( 138) = (   0.3582901   0.6977604   1.9183843  )
       139           Cu  tau( 139) = (   0.0000101   0.6977604   1.9183843  )
       140           Cu  tau( 140) = (   0.0000101   1.0459530   1.9183843  )
       141           Cu  tau( 141) = (  -0.3586477   0.6973567   1.9198047  )
       142           Cu  tau( 142) = (   0.3579518   0.3488710   1.9198047  )
       143           Cu  tau( 143) = (   0.0003484  -0.0001281   1.9198047  )
       144           Cu  tau( 144) = (   0.0003484   0.3488710   1.9198047  )
       145           O   tau( 145) = (  -0.0043173   0.1743714   1.9461097  )
       146           O   tau( 146) = (  -0.3539819   0.8718562   1.9461097  )
       147           O   tau( 147) = (  -0.5374498   0.6927305   1.9415786  )
       148           O   tau( 148) = (   0.1791506   0.3534971   1.9415786  )
       149           O   tau( 149) = (   0.3585795   0.8718562   1.9530199  )
       150           O   tau( 150) = (  -0.0002802   0.8718562   1.9530199  )
       151           O   tau( 151) = (  -0.0003853   0.5233134   1.9505239  )
       152           O   tau( 152) = (   0.3586855   0.5233134   1.9505239  )
       153           O   tau( 153) = (  -0.3579140   0.5229152   1.9505239  )
       154           O   tau( 154) = (  -0.0003853   1.2204000   1.9505239  )
       155           O   tau( 155) = (   0.1791506   1.0464553   1.9453972  )
       156           O   tau( 156) = (   0.1791506   0.6972571   1.9453972  )
       157           O   tau( 157) = (  -0.1795146   0.6969069   1.9460259  )
       158           O   tau( 158) = (  -0.1787846   0.3493208   1.9460259  )
       159           O   tau( 159) = (  -0.1795146   1.0468065   1.9460259  )
       160           O   tau( 160) = (   0.5378139   0.6969069   1.9460259  )
       161           Ca  tau( 161) = (   0.1791506   0.1743714   2.0813882  )
       162           Y   tau( 162) = (  -0.1811544   0.8718562   2.0798572  )
       163           Y   tau( 163) = (  -0.1771449   0.1743714   2.0798572  )
       164           Y   tau( 164) = (   0.1791506   0.8718562   2.0792940  )
       165           Y   tau( 165) = (   0.5374498   0.5231143   2.0788248  )
       166           Y   tau( 166) = (  -0.1791506   0.5231143   2.0788248  )
       167           Y   tau( 167) = (   0.1791506   0.5216524   2.0789456  )
       168           Y   tau( 168) = (  -0.5374498   0.5245761   2.0789456  )
       169           O   tau( 169) = (  -0.1790685   0.3495088   2.2146600  )
       170           O   tau( 170) = (   0.5375300   0.6967198   2.2146600  )
       171           O   tau( 171) = (  -0.1792307   1.0469936   2.2146600  )
       172           O   tau( 172) = (  -0.1792307   0.6967198   2.2146600  )
       173           O   tau( 173) = (   0.1791506   0.6975604   2.2143632  )
       174           O   tau( 174) = (   0.1791506   1.0461521   2.2143632  )
       175           O   tau( 175) = (  -0.0004848   1.2206534   2.2105989  )
       176           O   tau( 176) = (  -0.0004848   0.5230599   2.2105989  )
       177           O   tau( 177) = (   0.3587841   0.5230599   2.2105989  )
       178           O   tau( 178) = (  -0.3578144   0.5231687   2.2105989  )
       179           O   tau( 179) = (   0.3586468   0.8718562   2.2125373  )
       180           O   tau( 180) = (  -0.0003466   0.8718562   2.2125373  )
       181           O   tau( 181) = (   0.1791506   0.3537690   2.2215600  )
       182           O   tau( 182) = (  -0.5374498   0.6924586   2.2215600  )
       183           O   tau( 183) = (  -0.0047874   0.1743714   2.2175247  )
       184           O   tau( 184) = (  -0.3535118   0.8718562   2.2175247  )
       185           Cu  tau( 185) = (  -0.3586560   0.6975087   2.2397308  )
       186           Cu  tau( 186) = (   0.3579435   0.3487198   2.2397308  )
       187           Cu  tau( 187) = (   0.0003567   0.0000230   2.2397308  )
       188           Cu  tau( 188) = (   0.0003567   0.3487198   2.2397308  )
       189           Cu  tau( 189) = (   0.0000415   1.0463263   2.2394986  )
       190           Cu  tau( 190) = (  -0.3583407   0.3488406   2.2394986  )
       191           Cu  tau( 191) = (   0.3582587   0.6973871   2.2394986  )
       192           Cu  tau( 192) = (   0.0000415   0.6973871   2.2394986  )
       193           Ba  tau( 193) = (   0.1791506   0.1743714   2.4180039  )
       194           Ba  tau( 194) = (  -0.5374498   0.5240166   2.4243131  )
       195           Ba  tau( 195) = (   0.1791506   0.5222119   2.4243131  )
       196           Ba  tau( 196) = (  -0.1789220   0.1743714   2.4240569  )
       197           Ba  tau( 197) = (  -0.1793773   0.8718562   2.4240569  )
       198           Ba  tau( 198) = (  -0.1791506   0.5231143   2.4252671  )
       199           Ba  tau( 199) = (   0.5374498   0.5231143   2.4252671  )
       200           Ba  tau( 200) = (   0.1791506   0.8718562   2.4263953  )
       201           O   tau( 201) = (   0.3584302   0.6967870   2.4346650  )
       202           O   tau( 202) = (  -0.3581684   0.3494406   2.4346650  )
       203           O   tau( 203) = (  -0.0001309   0.6967870   2.4346650  )
       204           O   tau( 204) = (  -0.0001309   1.0469263   2.4346650  )
       205           O   tau( 205) = (   0.3588800   0.3486562   2.4355378  )
       206           O   tau( 206) = (  -0.0005807   0.3486562   2.4355378  )
       207           O   tau( 207) = (  -0.0005807   0.0000866   2.4355378  )
       208           O   tau( 208) = (  -0.3577186   0.6975714   2.4355378  )
       209           O   tau( 209) = (   0.3545921   0.8718562   2.6249684  )
       210           O   tau( 210) = (   0.0037081   0.8718562   2.6249684  )
       211           Cu  tau( 211) = (  -0.0002516   0.0006074   2.6091645  )
       212           Cu  tau( 212) = (  -0.0002516   0.3481345   2.6091645  )
       213           Cu  tau( 213) = (   0.3585509   0.3481345   2.6091645  )
       214           Cu  tau( 214) = (  -0.3580476   0.6980931   2.6091645  )
       215           Cu  tau( 215) = (   0.3577960   0.6971373   2.6086179  )
       216           Cu  tau( 216) = (   0.0005033   1.0465760   2.6086179  )
       217           Cu  tau( 217) = (  -0.3588035   0.3490903   2.6086179  )
       218           Cu  tau( 218) = (   0.0005033   0.6971373   2.6086179  )
       219           O   tau( 219) = (  -0.0001724   0.5225410   2.6262072  )
       220           O   tau( 220) = (   0.3584716   0.5225410   2.6262072  )
       221           O   tau( 221) = (  -0.0001724   1.2211724   2.6262072  )
       222           O   tau( 222) = (  -0.3581288   0.5236867   2.6262072  )
       223           O   tau( 223) = (  -0.3544640   0.8718562   2.6277971  )
       224           O   tau( 224) = (  -0.0038353   0.1743714   2.6277971  )

     number of k points=     4  Gaussian smearing, width (Ry)=  0.0100
                       cart. coord. in units 2pi/alat
        k(    1) = (   0.0000000   0.0000000   0.0000000), wk =   0.2222222
        k(    2) = (   0.2325801   0.2389537   0.0000000), wk =   0.8888889
        k(    3) = (   0.0000000   0.4779073   0.0000000), wk =   0.4444444
        k(    4) = (  -0.4651601  -0.0000000   0.0000000), wk =   0.4444444

     Dense  grid: 12562461 G-vectors     FFT dimensions: ( 180, 180, 800)

     Smooth grid:  2418073 G-vectors     FFT dimensions: ( 108, 108, 480)

     Estimated max dynamical RAM per process >       2.62 GB

     Estimated total dynamical RAM >     209.63 GB

     Initial potential from superposition of free atoms

     starting charge 1828.78422, renormalised to 1830.00000

     negative rho (up, down):  6.297E-01 0.000E+00
     Starting wfcs are 1602 randomized atomic wfcs

     total cpu time spent up to now is       68.4 secs

     Self-consistent Calculation

     iteration #  1     ecut=    60.00 Ry     beta= 0.50
     Davidson diagonalization with overlap
     ethr =  1.00E-02,  avg # of iterations =  2.0

     negative rho (up, down):  5.990E-01 0.000E+00

     total cpu time spent up to now is      179.1 secs

     total energy              =  -14912.76901091 Ry
     Harris-Foulkes estimate   =  -14943.08272310 Ry
     estimated scf accuracy    <     111.46060363 Ry

     iteration #  2     ecut=    60.00 Ry     beta= 0.50
     Davidson diagonalization with overlap
     ethr =  6.09E-03,  avg # of iterations =  2.0

     negative rho (up, down):  5.991E-01 0.000E+00

     total cpu time spent up to now is      289.1 secs

     total energy              =  -14922.38414712 Ry
     Harris-Foulkes estimate   =  -14926.52966393 Ry
     estimated scf accuracy    <      24.84023533 Ry

     iteration #  3     ecut=    60.00 Ry     beta= 0.50
     Davidson diagonalization with overlap
     ethr =  1.36E-03,  avg # of iterations =  2.0

     negative rho (up, down):  6.018E-01 0.000E+00

     total cpu time spent up to now is      398.7 secs

     total energy              =  -14924.12737152 Ry
     Harris-Foulkes estimate   =  -14925.61125484 Ry
     estimated scf accuracy    <      43.62804898 Ry

     iteration #  4     ecut=    60.00 Ry     beta= 0.50
     Davidson diagonalization with overlap
     ethr =  1.36E-03,  avg # of iterations =  1.0

     negative rho (up, down):  6.053E-01 0.000E+00

     total cpu time spent up to now is      501.9 secs

     total energy              =  -14924.40274532 Ry
     Harris-Foulkes estimate   =  -14924.79215898 Ry
     estimated scf accuracy    <      13.55051583 Ry

     iteration #  5     ecut=    60.00 Ry     beta= 0.50
     Davidson diagonalization with overlap
     ethr =  7.40E-04,  avg # of iterations =  1.0

     negative rho (up, down):  6.149E-01 0.000E+00

     total cpu time spent up to now is      611.6 secs

     total energy              =  -14924.09186423 Ry
     Harris-Foulkes estimate   =  -14924.62116506 Ry
     estimated scf accuracy    <       9.23692469 Ry

     iteration #  6     ecut=    60.00 Ry     beta= 0.50
     Davidson diagonalization with overlap
     ethr =  5.05E-04,  avg # of iterations =  1.0

     negative rho (up, down):  6.172E-01 0.000E+00

     total cpu time spent up to now is      714.3 secs

     total energy              =  -14924.17560547 Ry
     Harris-Foulkes estimate   =  -14924.27348255 Ry
     estimated scf accuracy    <       5.07717918 Ry

     iteration #  7     ecut=    60.00 Ry     beta= 0.50
     Davidson diagonalization with overlap
     ethr =  2.77E-04,  avg # of iterations =  9.5

     negative rho (up, down):  6.259E-01 0.000E+00

     total cpu time spent up to now is      856.2 secs

     total energy              =  -14924.04408145 Ry
     Harris-Foulkes estimate   =  -14924.22407292 Ry
     estimated scf accuracy    <       2.95060339 Ry

     iteration #  8     ecut=    60.00 Ry     beta= 0.50
     Davidson diagonalization with overlap
     ethr =  1.61E-04,  avg # of iterations = 10.2

     negative rho (up, down):  6.290E-01 0.000E+00

     total cpu time spent up to now is     1012.1 secs

     total energy              =  -14923.99563035 Ry
     Harris-Foulkes estimate   =  -14924.12752340 Ry
     estimated scf accuracy    <       5.32476996 Ry

     iteration #  9     ecut=    60.00 Ry     beta= 0.50
     Davidson diagonalization with overlap
     ethr =  1.61E-04,  avg # of iterations =  1.5

     negative rho (up, down):  6.327E-01 0.000E+00

     total cpu time spent up to now is     1114.6 secs

     total energy              =  -14923.95255701 Ry
     Harris-Foulkes estimate   =  -14924.06074252 Ry
     estimated scf accuracy    <       2.49524904 Ry

     iteration # 10     ecut=    60.00 Ry     beta= 0.50
     Davidson diagonalization with overlap
     ethr =  1.36E-04,  avg # of iterations =  1.0

     negative rho (up, down):  6.337E-01 0.000E+00

     total cpu time spent up to now is     1213.9 secs

     total energy              =  -14923.92289236 Ry
     Harris-Foulkes estimate   =  -14923.97894043 Ry
     estimated scf accuracy    <       0.99184489 Ry

     iteration # 11     ecut=    60.00 Ry     beta= 0.50
     Davidson diagonalization with overlap
     ethr =  5.42E-05,  avg # of iterations =  9.0

     negative rho (up, down):  6.322E-01 0.000E+00

     total cpu time spent up to now is     1352.0 secs

     total energy              =  -14923.90163982 Ry
     Harris-Foulkes estimate   =  -14923.93586121 Ry
     estimated scf accuracy    <       0.63861584 Ry

     iteration # 12     ecut=    60.00 Ry     beta= 0.50
     Davidson diagonalization with overlap
     ethr =  3.49E-05,  avg # of iterations =  9.2

     negative rho (up, down):  6.296E-01 0.000E+00

     total cpu time spent up to now is     1491.4 secs

     total energy              =  -14923.89322223 Ry
     Harris-Foulkes estimate   =  -14923.91142248 Ry
     estimated scf accuracy    <       0.56455657 Ry

     iteration # 13     ecut=    60.00 Ry     beta= 0.50
     Davidson diagonalization with overlap
     ethr =  3.09E-05,  avg # of iterations =  3.8

     negative rho (up, down):  6.284E-01 0.000E+00

     total cpu time spent up to now is     1603.5 secs

     total energy              =  -14923.89608961 Ry
     Harris-Foulkes estimate   =  -14923.89954887 Ry
     estimated scf accuracy    <       0.15819718 Ry

     iteration # 14     ecut=    60.00 Ry     beta= 0.50
     Davidson diagonalization with overlap
     c_bands:  1 eigenvalues not converged
     ethr =  8.64E-06,  avg # of iterations = 12.0

     negative rho (up, down):  6.322E-01 0.000E+00

     total cpu time spent up to now is     1756.6 secs

     total energy              =  -14923.89188780 Ry
     Harris-Foulkes estimate   =  -14923.89799954 Ry
     estimated scf accuracy    <       0.14721351 Ry

     iteration # 15     ecut=    60.00 Ry     beta= 0.50
     Davidson diagonalization with overlap
     ethr =  8.04E-06,  avg # of iterations =  8.2

     negative rho (up, down):  6.262E-01 0.000E+00

     total cpu time spent up to now is     1891.4 secs

     total energy              =  -14923.89194940 Ry
     Harris-Foulkes estimate   =  -14923.89351458 Ry
     estimated scf accuracy    <       0.19050877 Ry

     iteration # 16     ecut=    60.00 Ry     beta= 0.50
     Davidson diagonalization with overlap
     ethr =  8.04E-06,  avg # of iterations =  2.0

     negative rho (up, down):  6.261E-01 0.000E+00

     total cpu time spent up to now is     1996.9 secs

     total energy              =  -14923.89104087 Ry
     Harris-Foulkes estimate   =  -14923.89281643 Ry
     estimated scf accuracy    <       0.20701416 Ry

     iteration # 17     ecut=    60.00 Ry     beta= 0.50
     Davidson diagonalization with overlap
     ethr =  8.04E-06,  avg # of iterations =  1.0

     negative rho (up, down):  6.276E-01 0.000E+00

     total cpu time spent up to now is     2097.9 secs

     total energy              =  -14923.87917731 Ry
     Harris-Foulkes estimate   =  -14923.89195994 Ry
     estimated scf accuracy    <       0.23272214 Ry

     iteration # 18     ecut=    60.00 Ry     beta= 0.50
     Davidson diagonalization with overlap
     c_bands:  1 eigenvalues not converged
     ethr =  8.04E-06,  avg # of iterations = 12.5

     negative rho (up, down):  6.717E-01 0.000E+00

     total cpu time spent up to now is     2249.4 secs

     total energy              =  -14923.86828678 Ry
     Harris-Foulkes estimate   =  -14923.88003126 Ry
     estimated scf accuracy    <       0.19686161 Ry

     iteration # 19     ecut=    60.00 Ry     beta= 0.50
     Davidson diagonalization with overlap
     ethr =  8.04E-06,  avg # of iterations = 13.2

     negative rho (up, down):  6.943E-01 0.000E+00

     total cpu time spent up to now is     2415.8 secs

     total energy              =  -14923.86611704 Ry
     Harris-Foulkes estimate   =  -14923.86999802 Ry
     estimated scf accuracy    <       0.19402227 Ry

     iteration # 20     ecut=    60.00 Ry     beta= 0.50
     Davidson diagonalization with overlap
     ethr =  8.04E-06,  avg # of iterations =  8.2

     negative rho (up, down):  6.606E-01 0.000E+00

     total cpu time spent up to now is     2547.0 secs

     total energy              =  -14923.86314063 Ry
     Harris-Foulkes estimate   =  -14923.86689287 Ry
     estimated scf accuracy    <       0.16794284 Ry

     iteration # 21     ecut=    60.00 Ry     beta= 0.50
     Davidson diagonalization with overlap
     ethr =  8.04E-06,  avg # of iterations =  3.8

     negative rho (up, down):  6.669E-01 0.000E+00

     total cpu time spent up to now is     2660.5 secs

     total energy              =  -14923.86232798 Ry
     Harris-Foulkes estimate   =  -14923.86397573 Ry
     estimated scf accuracy    <       0.07380031 Ry

     iteration # 22     ecut=    60.00 Ry     beta= 0.50
     Davidson diagonalization with overlap
     ethr =  4.03E-06,  avg # of iterations = 15.2

     negative rho (up, down):  6.563E-01 0.000E+00

     total cpu time spent up to now is     2827.4 secs

     total energy              =  -14923.86222715 Ry
     Harris-Foulkes estimate   =  -14923.86295926 Ry
     estimated scf accuracy    <       0.03095854 Ry

     iteration # 23     ecut=    60.00 Ry     beta= 0.50
     Davidson diagonalization with overlap
     c_bands:  1 eigenvalues not converged
     ethr =  1.69E-06,  avg # of iterations =  7.5

     negative rho (up, down):  6.601E-01 0.000E+00

     total cpu time spent up to now is     2956.2 secs

     total energy              =  -14923.86280232 Ry
     Harris-Foulkes estimate   =  -14923.86260877 Ry
     estimated scf accuracy    <       0.00848324 Ry

     iteration # 24     ecut=    60.00 Ry     beta= 0.50
     Davidson diagonalization with overlap
     ethr =  4.64E-07,  avg # of iterations = 12.0

     negative rho (up, down):  6.347E-01 0.000E+00

     total cpu time spent up to now is     3105.9 secs

     total energy              =  -14923.86269347 Ry
     Harris-Foulkes estimate   =  -14923.86316638 Ry
     estimated scf accuracy    <       0.00910598 Ry

     iteration # 25     ecut=    60.00 Ry     beta= 0.50
     Davidson diagonalization with overlap
     c_bands:  3 eigenvalues not converged
     c_bands:  1 eigenvalues not converged
     c_bands:  3 eigenvalues not converged
     ethr =  4.64E-07,  avg # of iterations = 17.0

     negative rho (up, down):  6.340E-01 0.000E+00

     total cpu time spent up to now is     3283.4 secs

     total energy              =  -14923.86286238 Ry
     Harris-Foulkes estimate   =  -14923.86298213 Ry
     estimated scf accuracy    <       0.00447166 Ry

     iteration # 26     ecut=    60.00 Ry     beta= 0.50
     Davidson diagonalization with overlap
     c_bands:  1 eigenvalues not converged
     ethr =  2.44E-07,  avg # of iterations = 14.2

     negative rho (up, down):  6.439E-01 0.000E+00

     total cpu time spent up to now is     3437.4 secs

     total energy              =  -14923.86302174 Ry
     Harris-Foulkes estimate   =  -14923.86297349 Ry
     estimated scf accuracy    <       0.00115429 Ry

     iteration # 27     ecut=    60.00 Ry     beta= 0.50
     Davidson diagonalization with overlap
     c_bands:  1 eigenvalues not converged
     ethr =  6.31E-08,  avg # of iterations =  9.2

     negative rho (up, down):  6.379E-01 0.000E+00

     total cpu time spent up to now is     3573.7 secs

     total energy              =  -14923.86297609 Ry
     Harris-Foulkes estimate   =  -14923.86307886 Ry
     estimated scf accuracy    <       0.00050483 Ry

     iteration # 28     ecut=    60.00 Ry     beta= 0.50
     Davidson diagonalization with overlap
     ethr =  2.76E-08,  avg # of iterations =  6.8

     negative rho (up, down):  6.339E-01 0.000E+00

     total cpu time spent up to now is     3698.5 secs

     total energy              =  -14923.86298348 Ry
     Harris-Foulkes estimate   =  -14923.86300969 Ry
     estimated scf accuracy    <       0.00030393 Ry

     iteration # 29     ecut=    60.00 Ry     beta= 0.50
     Davidson diagonalization with overlap
     ethr =  1.66E-08,  avg # of iterations =  1.0

     negative rho (up, down):  6.353E-01 0.000E+00

     total cpu time spent up to now is     3800.1 secs

     total energy              =  -14923.86298389 Ry
     Harris-Foulkes estimate   =  -14923.86299656 Ry
     estimated scf accuracy    <       0.00017273 Ry

     iteration # 30     ecut=    60.00 Ry     beta= 0.50
     Davidson diagonalization with overlap
     ethr =  9.44E-09,  avg # of iterations =  1.5

     negative rho (up, down):  6.346E-01 0.000E+00

     total cpu time spent up to now is     3905.9 secs

     total energy              =  -14923.86298777 Ry
     Harris-Foulkes estimate   =  -14923.86299219 Ry
     estimated scf accuracy    <       0.00008443 Ry

     iteration # 31     ecut=    60.00 Ry     beta= 0.50
     Davidson diagonalization with overlap
     ethr =  4.61E-09,  avg # of iterations =  1.0

     negative rho (up, down):  6.350E-01 0.000E+00

     total cpu time spent up to now is     4006.6 secs

     total energy              =  -14923.86298683 Ry
     Harris-Foulkes estimate   =  -14923.86299011 Ry
     estimated scf accuracy    <       0.00002975 Ry

     iteration # 32     ecut=    60.00 Ry     beta= 0.50
     Davidson diagonalization with overlap
     ethr =  1.63E-09,  avg # of iterations =  3.0

     negative rho (up, down):  6.350E-01 0.000E+00

     total cpu time spent up to now is     4114.8 secs

     total energy              =  -14923.86298740 Ry
     Harris-Foulkes estimate   =  -14923.86298862 Ry
     estimated scf accuracy    <       0.00002285 Ry

     iteration # 33     ecut=    60.00 Ry     beta= 0.50
     Davidson diagonalization with overlap
     ethr =  1.25E-09,  avg # of iterations =  1.0

     negative rho (up, down):  6.354E-01 0.000E+00

     total cpu time spent up to now is     4216.7 secs

     total energy              =  -14923.86298728 Ry
     Harris-Foulkes estimate   =  -14923.86298841 Ry
     estimated scf accuracy    <       0.00001463 Ry

     iteration # 34     ecut=    60.00 Ry     beta= 0.50
     Davidson diagonalization with overlap
     ethr =  8.00E-10,  avg # of iterations =  1.0

     negative rho (up, down):  6.355E-01 0.000E+00

     total cpu time spent up to now is     4317.2 secs

     total energy              =  -14923.86298727 Ry
     Harris-Foulkes estimate   =  -14923.86298767 Ry
     estimated scf accuracy    <       0.00000658 Ry

     iteration # 35     ecut=    60.00 Ry     beta= 0.50
     Davidson diagonalization with overlap
     ethr =  3.60E-10,  avg # of iterations =  1.2

     negative rho (up, down):  6.355E-01 0.000E+00

     total cpu time spent up to now is     4419.9 secs

     total energy              =  -14923.86298725 Ry
     Harris-Foulkes estimate   =  -14923.86298745 Ry
     estimated scf accuracy    <       0.00000280 Ry

     iteration # 36     ecut=    60.00 Ry     beta= 0.50
     Davidson diagonalization with overlap
     ethr =  1.53E-10,  avg # of iterations =  1.0

     negative rho (up, down):  6.354E-01 0.000E+00

     total cpu time spent up to now is     4525.2 secs

     total energy              =  -14923.86298733 Ry
     Harris-Foulkes estimate   =  -14923.86298734 Ry
     estimated scf accuracy    <       0.00000130 Ry

     iteration # 37     ecut=    60.00 Ry     beta= 0.50
     Davidson diagonalization with overlap
     ethr =  7.12E-11,  avg # of iterations =  1.0

     negative rho (up, down):  6.351E-01 0.000E+00

     total cpu time spent up to now is     4628.8 secs

     total energy              =  -14923.86298762 Ry
     Harris-Foulkes estimate   =  -14923.86298737 Ry
     estimated scf accuracy    <       0.00000084 Ry

     iteration # 38     ecut=    60.00 Ry     beta= 0.50
     Davidson diagonalization with overlap
     ethr =  4.57E-11,  avg # of iterations =  2.0

     negative rho (up, down):  6.348E-01 0.000E+00

     total cpu time spent up to now is     4735.8 secs

     total energy              =  -14923.86298795 Ry
     Harris-Foulkes estimate   =  -14923.86298766 Ry
     estimated scf accuracy    <       0.00000060 Ry

     iteration # 39     ecut=    60.00 Ry     beta= 0.50
     Davidson diagonalization with overlap
     ethr =  3.30E-11,  avg # of iterations =  1.0

     negative rho (up, down):  6.348E-01 0.000E+00

     total cpu time spent up to now is     4837.5 secs

     total energy              =  -14923.86298794 Ry
     Harris-Foulkes estimate   =  -14923.86298797 Ry
     estimated scf accuracy    <       0.00000034 Ry

     iteration # 40     ecut=    60.00 Ry     beta= 0.50
     Davidson diagonalization with overlap
     ethr =  1.84E-11,  avg # of iterations =  1.0

     negative rho (up, down):  6.347E-01 0.000E+00

     total cpu time spent up to now is     4939.4 secs

     total energy              =  -14923.86298806 Ry
     Harris-Foulkes estimate   =  -14923.86298795 Ry
     estimated scf accuracy    <       0.00000010 Ry

     iteration # 41     ecut=    60.00 Ry     beta= 0.50
     Davidson diagonalization with overlap
     ethr =  5.23E-12,  avg # of iterations =  2.0

     negative rho (up, down):  6.347E-01 0.000E+00

     total cpu time spent up to now is     5046.3 secs

     total energy              =  -14923.86298810 Ry
     Harris-Foulkes estimate   =  -14923.86298806 Ry
     estimated scf accuracy    <       0.00000008 Ry

     iteration # 42     ecut=    60.00 Ry     beta= 0.50
     Davidson diagonalization with overlap
     ethr =  4.21E-12,  avg # of iterations =  1.0

     negative rho (up, down):  6.347E-01 0.000E+00

     total cpu time spent up to now is     5150.0 secs

     total energy              =  -14923.86298814 Ry
     Harris-Foulkes estimate   =  -14923.86298810 Ry
     estimated scf accuracy    <       0.00000003 Ry

     iteration # 43     ecut=    60.00 Ry     beta= 0.50
     Davidson diagonalization with overlap
     ethr =  1.86E-12,  avg # of iterations =  1.0

     negative rho (up, down):  6.347E-01 0.000E+00

     total cpu time spent up to now is     5254.9 secs

     total energy              =  -14923.86298815 Ry
     Harris-Foulkes estimate   =  -14923.86298814 Ry
     estimated scf accuracy    <       0.00000002 Ry

     iteration # 44     ecut=    60.00 Ry     beta= 0.50
     Davidson diagonalization with overlap
     ethr =  1.18E-12,  avg # of iterations =  1.0

     negative rho (up, down):  6.347E-01 0.000E+00

     total cpu time spent up to now is     5354.5 secs

     End of self-consistent calculation

          k = 0.0000 0.0000 0.0000 (302239 PWs)   bands (ev):

   -38.6963 -38.6697 -38.6671 -38.6615 -38.6606 -38.6475 -38.6425 -38.6185
   -38.5819 -38.5792 -38.5688 -38.5668 -38.5596 -38.5538 -36.2373 -36.1436
   -23.2939 -23.2797 -23.2718 -23.2038 -23.1888 -23.1831 -23.1813 -23.1686
   -23.1685 -23.1641 -23.1536 -23.1507 -23.1487 -23.1478 -23.1342 -23.1340
   -23.1308 -23.1165 -23.0913 -23.0848 -23.0669 -23.0528 -23.0508 -23.0449
   -23.0306 -23.0293 -23.0195 -22.9967 -22.9421 -22.9177 -22.8230 -22.6387
   -19.2792 -19.2417 -19.1959 -19.1913 -19.1904 -19.1648 -19.1560 -19.1128
   -19.1097 -19.0850 -19.0104 -18.9968 -18.9968 -18.9856 -18.9828 -18.9771
   -18.9753 -18.9668 -18.9653 -18.9607 -18.9486 -18.9205 -18.9151 -18.9072
   -18.9016 -18.8978 -18.8944 -18.8940 -18.8814 -18.8789 -18.8710 -18.8669
   -18.7968 -18.7916 -18.7678 -18.7142 -18.7022 -18.6861 -18.6722 -18.6641
   -18.5815 -18.5737 -17.4949 -17.4680 -17.4608 -17.4039 -17.3726 -17.3698
   -16.0179 -15.9574 -15.4392 -15.3990 -15.3645 -15.3339 -15.3228 -15.3151
   -15.3129 -15.3096 -15.2823 -15.2707 -15.2673 -15.2666 -15.2420 -15.2093
   -15.1850 -15.1466 -15.1388 -15.1382 -15.1319 -15.1315 -15.1093 -15.1029
   -15.0770 -15.0768 -15.0683 -15.0636 -15.0579 -15.0573 -15.0420 -15.0222
   -15.0188 -15.0113 -14.9920 -14.9768 -14.9627 -14.9066 -14.9058 -14.8925
   -14.8894 -14.8887 -14.8857 -14.8707 -14.8689 -14.8365 -14.8201 -14.8154
   -14.8129 -14.8093 -14.8067 -14.7951 -14.7941 -14.7933 -14.7888 -14.7758
   -14.7756 -14.7591 -14.7580 -14.7578 -14.7399 -14.7390 -14.7382 -14.7326
   -14.7241 -14.7239 -14.6890 -14.6720 -14.6556 -14.6504 -14.6459 -14.6024
   -14.5995 -14.5964 -14.5851 -14.5803 -14.5799 -14.5762 -14.5730 -14.5607
   -14.5284 -14.5225 -14.5166 -14.5094 -14.5068 -14.5052 -14.4401 -14.4246
   -14.3201 -14.3130 -14.3066 -14.3042 -14.2943 -14.2795 -14.2781 -14.2767
   -14.2755 -14.2630 -14.2610 -14.2591 -14.2586 -14.2565 -14.2202 -14.2072
   -14.2006 -14.1997 -14.1868 -14.1606 -14.0836 -14.0710 -14.0693 -14.0630
   -13.2496 -13.2259 -13.0312 -13.0309 -13.0262 -13.0229 -12.8688 -12.7589
    -9.2523  -9.2388  -9.0833  -8.9653  -8.9513  -8.9094  -8.7982  -8.7841
    -8.7424  -8.7386  -8.7287  -8.7265  -8.7249  -8.7149  -8.7129  -8.7013
    -8.6653  -8.5981  -8.5884  -8.5802  -8.5769  -8.5567  -8.5564  -8.5349
    -8.5180  -8.5141  -8.4979  -8.4962  -8.4913  -8.4898  -8.4840  -8.4837
    -8.4827  -8.4807  -8.4714  -8.4661  -8.4624  -8.4616  -8.4580  -8.4500
    -8.4474  -8.4422  -8.4301  -8.4299  -8.4281  -8.4260  -8.4103  -8.4031
    -8.3970  -8.3804  -8.3678  -8.3591  -8.3563  -8.3546  -8.2916  -8.2778
    -8.2718  -8.2601  -8.2507  -8.2498  -8.2371  -8.1457  -8.1374  -8.1368
    -8.1324  -8.1238  -8.1229  -8.1155  -8.1100  -8.1017  -8.1012  -8.0984
    -8.0965  -8.0938  -8.0878  -8.0644  -8.0613  -8.0184  -8.0070  -8.0063
    -8.0017  -7.9879  -7.9838  -7.9828  -7.9688  -7.9594  -7.9475  -7.9444
    -7.8559  -7.8425  -7.8288  -7.8265  -7.7995  -7.7956  -7.6270  -7.6210
    -4.7688  -4.6965  -4.2276  -4.1317  -3.7339  -3.7070  -3.6291  -3.6218
    -3.6210  -3.5609  -3.5577  -3.5553  -3.5537  -3.5536  -3.5166  -3.4903
    -3.4850  -3.4517  -3.3877  -3.3816  -3.3696  -3.3101  -3.3024  -3.2920
    -3.2713  -3.2634  -3.2524  -3.2466  -3.2456  -3.2001  -3.1661  -3.1576
    -3.1516  -3.1422  -3.0623  -3.0074  -2.9649  -2.9628  -2.8840  -2.7959
    -2.7364  -2.7312  -2.7184  -2.7124  -2.7113  -2.7098  -2.7047  -2.7017
    -2.6989  -2.6974  -2.6856  -2.6835  -2.6042  -2.6037  -2.6012  -2.6011
    -2.5946  -2.5921  -2.5358  -2.5351  -2.5302  -2.5268  -2.5254  -2.5222
    -2.5187  -2.5162  -2.5147  -2.5120  -2.5083  -2.5069  -2.4960  -2.4953
    -2.4609  -2.4325  -2.4251  -2.4208  -2.4145  -2.4121  -2.4039  -2.4018
    -2.3982  -2.3804  -2.3754  -2.3591  -2.3368  -2.3243  -2.3210  -2.3207
    -2.3159  -2.3115  -2.3079  -2.3068  -2.3027  -2.3010  -2.3001  -2.2884
    -2.2538  -2.2368  -2.2361  -2.2236  -2.2185  -2.1793  -2.1764  -2.1490
    -2.1425  -2.1359  -2.1278  -2.1168  -2.1165  -2.1152  -2.0879  -2.0687
    -2.0663  -2.0566  -2.0301  -2.0283  -2.0081  -2.0006  -2.0000  -1.9742
    -1.9685  -1.9538  -1.9473  -1.9436  -1.9390  -1.9383  -1.9211  -1.9161
    -1.9093  -1.9033  -1.8991  -1.8912  -1.8890  -1.8670  -1.8549  -1.8544
    -1.8091  -1.7929  -1.7847  -1.7781  -1.7598  -1.7310  -1.7293  -1.6612
    -1.6442  -1.6109  -1.6103  -1.5895  -1.5847  -1.5364  -1.5231  -1.5186
    -1.5158  -1.4727  -1.4530  -1.4477  -1.4348  -1.4196  -1.4191  -1.4161
    -1.4023  -1.4000  -1.3971  -1.3931  -1.3873  -1.3801  -1.3735  -1.3677
    -1.3654  -1.3556  -1.3326  -1.3236  -1.3173  -1.3162  -1.2951  -1.2874
    -1.2821  -1.2773  -1.2601  -1.2531  -1.2455  -1.2308  -1.2241  -1.2181
    -1.2173  -1.2084  -1.1886  -1.1826  -1.1815  -1.1667  -1.1663  -1.1650
    -1.1618  -1.1489  -1.1400  -1.1194  -1.0876  -1.0856  -1.0709  -1.0701
    -1.0535  -1.0338  -1.0158  -1.0026  -0.9958  -0.9698  -0.9565  -0.9524
    -0.9389  -0.9229  -0.9208  -0.9136  -0.9020  -0.8942  -0.8940  -0.8928
    -0.8855  -0.8310  -0.8191  -0.8034  -0.7940  -0.7845  -0.7805  -0.7763
    -0.7718  -0.7503  -0.7379  -0.7262  -0.7216  -0.7215  -0.7194  -0.7139
    -0.7078  -0.7007  -0.6987  -0.6952  -0.6876  -0.6830  -0.6805  -0.6728
    -0.6725  -0.6701  -0.6602  -0.6539  -0.6428  -0.6418  -0.6411  -0.6343
    -0.6305  -0.6185  -0.6177  -0.6135  -0.6127  -0.5956  -0.5953  -0.5915
    -0.5902  -0.5878  -0.5712  -0.5678  -0.5658  -0.5420  -0.5051  -0.5033
    -0.5019  -0.4956  -0.4912  -0.4910  -0.4479  -0.4377  -0.4345  -0.4207
    -0.3960  -0.3731  -0.3724  -0.3472  -0.3457  -0.3420  -0.3409  -0.3366
    -0.3102  -0.2892  -0.2848  -0.2731  -0.2666  -0.2648  -0.2549  -0.2112
    -0.2104  -0.2035  -0.1977  -0.1929  -0.1835  -0.1813  -0.1696  -0.1640
    -0.1190  -0.1098  -0.1045  -0.0994  -0.0982  -0.0821  -0.0762  -0.0675
    -0.0661  -0.0532  -0.0462  -0.0448  -0.0424  -0.0365  -0.0337  -0.0285
    -0.0283  -0.0247  -0.0236  -0.0172  -0.0160  -0.0129  -0.0078  -0.0043
     0.0066   0.0140   0.0195   0.0274   0.0302   0.0360   0.0433   0.0496
     0.0642   0.0671   0.0691   0.0740   0.0914   0.0919   0.1064   0.1077
     0.1109   0.1174   0.1328   0.1387   0.1416   0.1524   0.1710   0.1745
     0.1791   0.1836   0.1944   0.1957   0.1971   0.1984   0.1994   0.2101
     0.2102   0.2115   0.2117   0.2184   0.2198   0.2382   0.2418   0.2472
     0.2624   0.2666   0.2726   0.2743   0.2812   0.2820   0.3006   0.3059
     0.3161   0.3258   0.3470   0.3649   0.3673   0.3738   0.3791   0.3862
     0.4328   0.5266   0.5620   0.5686   0.5755   0.5828   0.5895   0.6131
     0.6177   0.6424   0.6450   0.6521   0.6722   0.6733   0.6804   0.6809
     0.6844   0.6901   0.6924   0.6983   0.7001   0.7010   0.7049   0.7062
     0.7227   0.7227   0.7247   0.7342   0.7473   0.7510   0.7514   0.7609
     0.7619   0.7652   0.7793   0.7841   0.7860   0.7860   0.7916   0.7981
     0.8022   0.8129   0.8143   0.8145   0.8146   0.8175   0.8179   0.8214
     0.8266   0.8292   0.8293   0.8323   0.8374   0.8384   0.8386   0.8490
     0.8526   0.8574   0.8643   0.8699   0.8762   0.8844   0.8874   0.8892
     0.8923   0.8924   0.9010   0.9050   0.9080   0.9115   0.9169   0.9190
     0.9190   0.9209   0.9393   0.9400   0.9445   0.9447   0.9465   0.9501
     0.9517   0.9542   0.9564   0.9566   0.9620   0.9665   0.9676   0.9749
     0.9774   0.9781   0.9894   0.9904   0.9973   1.0036   1.0116   1.0128
     1.0218   1.0270   1.0331   1.0344   1.0416   1.0488   1.0532   1.0621
     1.0933   1.0961   1.0967   1.1164   1.1290   1.1579   1.2326   1.2359
     1.2368   1.2380   1.2459   1.2490   1.2543   1.2548   1.2563   1.2577
     1.2594   1.2730   1.2880   1.2951   1.3093   1.3163   1.3173   1.3201
     1.3256   1.3323   1.3363   1.3373   1.3379   1.3547   1.3690   1.3736
     1.3785   1.3800   1.3820   1.4021   1.4021   1.4059   1.4089   1.4109
     1.4138   1.4237   1.4272   1.4348   1.4365   1.4442   1.4561   1.4583
     1.4599   1.4626   1.4676   1.4871   1.4874   1.4888   1.4966   1.4984
     1.5008   1.5101   1.5112   1.5144   1.5187   1.5198   1.5201   1.5208
     1.5739   1.5769   1.5791   1.5996   1.6007   1.6008   1.6058   1.6102
     1.6140   1.6152   1.6153   1.6239   1.6346   1.6362   1.6430   1.6780
     1.7024   1.7175   1.7184   1.7649   1.7765   1.8232   1.8295   1.9563
     1.9570   1.9706   1.9796   1.9928   1.9937   2.0151   2.0297   2.0764
     2.0857   2.1149   2.1188   2.1229   2.1292   2.1325   2.1431   2.1520
     2.1590   2.1597   2.1723   2.2059   2.2083   2.2099   2.2137   2.2519
     2.2646   2.2708   2.2713   2.2780   2.2846   2.3025   2.3956   2.3986
     2.4054   2.4099   2.4863   2.4948   2.4980   2.5649   2.5814   2.6094
     2.6479   2.6575   2.6629   2.6789   2.7172   2.7246   2.7249   2.7317
     2.7337   2.7391   2.7428   2.7612   2.7736   2.7990   2.8101   2.8153
     2.8199   2.8416   2.8530   2.8597   2.9438   2.9845   2.9889   2.9937
     3.0050   3.0385   3.0473   3.0488   4.1997   4.2504   4.3012   4.3233
     4.5782   4.7693   4.7827   5.3071   5.3216   5.3419   5.4022   5.4421
     5.8016   5.9570   5.9916   6.0513   6.0581   6.0816   6.1349   6.1436
     6.1572   6.1606   6.1630   6.1642   6.1648   6.1770   6.1773   6.1797
     6.1824   6.3616   6.3892   6.5370   6.5381   6.5859   6.5889   6.5944
     6.5995   6.6340   6.6482   6.6556   6.7678   6.8144   6.8284   6.8934
     6.8937   6.9102   6.9200   6.9426   6.9737   6.9871   7.0377   7.0452
     7.0605   7.0682   7.1010   7.1470   7.1645   7.1773   7.1942   7.2042
     7.2420   7.2534   7.3378   7.4071   7.4197   7.4238   7.4294   7.4756
     7.5368   7.5569   7.6006   7.6123   7.6228   7.6265   7.7504   7.7812
     7.7870   7.8075   7.8150   7.8176   7.8234   7.8271   7.8282   7.8318
     7.8417   7.8555   7.8581   7.8891   7.9480   7.9525   8.0466   8.0569
     8.0845   8.0864   8.1027   8.1321   8.1341   8.1429   8.1637   8.1743
     8.1823   8.2247   8.2399   8.2478   8.2518   8.2593   8.2636   8.2656
     8.2890   8.3178   8.3203   8.3322   8.3324   8.3436   8.3437   8.3541
     8.3663   8.4076   8.4111   8.4176   8.4472   8.4625   8.4684   8.4848
     8.4986   8.5125   8.5212   8.5560   8.5647   8.5745   8.5847   8.6151
     8.6282   8.6444   8.6488   8.6499   8.6567   8.6619   8.6724   8.6745
     8.6819   8.6943   8.6973   8.7129   8.7161   8.7224   8.7286   8.7441
     8.7507   8.7778

          k = 0.2326 0.2390 0.0000 (302207 PWs)   bands (ev):

   -38.6963 -38.6692 -38.6678 -38.6615 -38.6608 -38.6460 -38.6436 -38.6184
   -38.5813 -38.5799 -38.5686 -38.5676 -38.5577 -38.5550 -36.2373 -36.1436
   -23.2757 -23.2686 -23.2614 -23.2275 -23.2132 -23.2017 -23.1896 -23.1793
   -23.1729 -23.1687 -23.1581 -23.1548 -23.1437 -23.1350 -23.1295 -23.1208
   -23.1155 -23.0994 -23.0852 -23.0793 -23.0636 -23.0591 -23.0526 -23.0448
   -23.0439 -23.0328 -23.0142 -23.0006 -22.9377 -22.9164 -22.8251 -22.6387
   -19.2445 -19.2103 -19.1933 -19.1664 -19.1629 -19.1566 -19.1413 -19.1251
   -19.1090 -19.1072 -19.0891 -19.0821 -19.0750 -19.0531 -19.0217 -18.9985
   -18.9950 -18.9871 -18.9735 -18.9686 -18.9547 -18.9119 -18.9045 -18.8857
   -18.8850 -18.8770 -18.8730 -18.8453 -18.8282 -18.7953 -18.7929 -18.7903
   -18.7828 -18.7564 -18.7388 -18.7179 -18.7115 -18.7103 -18.7080 -18.6938
   -18.6278 -18.6213 -17.4952 -17.4699 -17.4623 -17.4042 -17.3746 -17.3712
   -15.9173 -15.8569 -15.6475 -15.5866 -15.3882 -15.3527 -15.3307 -15.3162
   -15.3073 -15.2920 -15.2759 -15.2706 -15.2601 -15.2416 -15.2016 -15.1927
   -15.1848 -15.1580 -15.1343 -15.1229 -15.1175 -15.1158 -15.0982 -15.0876
   -15.0872 -15.0661 -15.0645 -15.0522 -15.0359 -15.0158 -15.0132 -15.0090
   -15.0003 -14.9835 -14.9823 -14.9809 -14.9620 -14.9462 -14.9259 -14.9066
   -14.8954 -14.8890 -14.8848 -14.8793 -14.8651 -14.8488 -14.8400 -14.8366
   -14.8265 -14.8229 -14.8212 -14.8037 -14.7894 -14.7821 -14.7787 -14.7643
   -14.7538 -14.7396 -14.7268 -14.7245 -14.7136 -14.7125 -14.7066 -14.7023
   -14.6895 -14.6817 -14.6664 -14.6624 -14.6590 -14.6472 -14.6448 -14.6265
   -14.6173 -14.6168 -14.6016 -14.5895 -14.5862 -14.5769 -14.5730 -14.5655
   -14.5560 -14.5554 -14.5467 -14.5413 -14.5304 -14.5108 -14.4638 -14.4556
   -14.3256 -14.3179 -14.3087 -14.3027 -14.2998 -14.2970 -14.2854 -14.2843
   -14.2723 -14.2677 -14.2612 -14.2412 -14.2395 -14.2309 -14.2196 -14.2119
   -14.2109 -14.2089 -14.1918 -14.1509 -14.0903 -14.0765 -14.0626 -14.0602
   -13.2023 -13.1815 -13.0883 -13.0715 -13.0090 -12.9496 -12.9168 -12.8203
    -9.1450  -9.1315  -8.9798  -8.9489  -8.9353  -8.8456  -8.8317  -8.8286
    -8.7852  -8.6845  -8.6667  -8.6517  -8.6372  -8.6327  -8.6237  -8.5968
    -8.5918  -8.5817  -8.5675  -8.5351  -8.5320  -8.5231  -8.5197  -8.5166
    -8.5064  -8.4928  -8.4864  -8.4859  -8.4820  -8.4807  -8.4778  -8.4743
    -8.4699  -8.4665  -8.4663  -8.4614  -8.4529  -8.4518  -8.4512  -8.4393
    -8.4372  -8.4337  -8.4324  -8.4293  -8.4281  -8.4244  -8.4189  -8.4081
    -8.4010  -8.3922  -8.3754  -8.3732  -8.3528  -8.3448  -8.3310  -8.3224
    -8.3174  -8.3134  -8.2735  -8.2546  -8.2526  -8.2431  -8.2356  -8.2195
    -8.2058  -8.1793  -8.1739  -8.1657  -8.1334  -8.1310  -8.1171  -8.1039
    -8.0945  -8.0935  -8.0799  -8.0695  -8.0661  -8.0557  -8.0518  -8.0451
    -8.0406  -8.0380  -8.0291  -8.0270  -8.0003  -7.9707  -7.9696  -7.9405
    -7.9201  -7.8887  -7.8884  -7.8431  -7.8363  -7.8162  -7.6455  -7.6278
    -4.6079  -4.5361  -4.1729  -4.1018  -4.0821  -3.9857  -3.7166  -3.7018
    -3.6811  -3.6704  -3.6183  -3.6041  -3.5468  -3.5151  -3.5099  -3.4886
    -3.4680  -3.4117  -3.3889  -3.3481  -3.2965  -3.2751  -3.2655  -3.2578
    -3.2404  -3.2074  -3.1923  -3.1894  -3.1656  -3.1034  -3.0642  -3.0097
    -2.9533  -2.9502  -2.9367  -2.9332  -2.9312  -2.9150  -2.9129  -2.8998
    -2.8939  -2.8773  -2.8597  -2.8388  -2.8323  -2.8213  -2.8157  -2.7743
    -2.7703  -2.7110  -2.6874  -2.6686  -2.6668  -2.6613  -2.6407  -2.6234
    -2.6156  -2.6014  -2.5872  -2.5718  -2.5679  -2.5586  -2.5586  -2.5487
    -2.5401  -2.5323  -2.5319  -2.5182  -2.5097  -2.4988  -2.4986  -2.4907
    -2.4746  -2.4415  -2.4242  -2.4188  -2.4129  -2.4107  -2.4098  -2.4094
    -2.4067  -2.4026  -2.3996  -2.3911  -2.3904  -2.3853  -2.3702  -2.3646
    -2.3544  -2.3228  -2.3040  -2.2947  -2.2770  -2.2662  -2.2483  -2.2381
    -2.2274  -2.2100  -2.1929  -2.1923  -2.1867  -2.1753  -2.1695  -2.1610
    -2.1564  -2.1528  -2.1439  -2.1412  -2.1381  -2.1295  -2.1285  -2.1107
    -2.1029  -2.0771  -2.0753  -2.0584  -2.0500  -2.0044  -1.9963  -1.9265
    -1.9089  -1.8995  -1.8874  -1.8808  -1.8768  -1.8743  -1.8419  -1.8369
    -1.8323  -1.8233  -1.8163  -1.8056  -1.8003  -1.7855  -1.7819  -1.7543
    -1.7412  -1.7304  -1.7243  -1.7118  -1.6770  -1.6673  -1.6601  -1.6429
    -1.6247  -1.5984  -1.5930  -1.5549  -1.5523  -1.5204  -1.5119  -1.4684
    -1.4630  -1.4624  -1.4614  -1.4501  -1.4420  -1.4118  -1.4063  -1.3978
    -1.3807  -1.3702  -1.3669  -1.3584  -1.3502  -1.3470  -1.3311  -1.3310
    -1.3189  -1.3094  -1.3061  -1.3023  -1.3007  -1.2974  -1.2877  -1.2828
    -1.2784  -1.2730  -1.2524  -1.2477  -1.2400  -1.2307  -1.2250  -1.2178
    -1.2168  -1.2040  -1.1850  -1.1729  -1.1688  -1.1575  -1.1496  -1.1461
    -1.1419  -1.1374  -1.1209  -1.1185  -1.1083  -1.0981  -1.0851  -1.0839
    -1.0712  -1.0593  -1.0551  -1.0343  -1.0327  -1.0267  -1.0180  -1.0165
    -0.9925  -0.9843  -0.9555  -0.9547  -0.9332  -0.9264  -0.9239  -0.9106
    -0.9086  -0.9048  -0.8910  -0.8761  -0.8754  -0.8686  -0.8290  -0.8214
    -0.8069  -0.7925  -0.7903  -0.7773  -0.7650  -0.7471  -0.7372  -0.7322
    -0.7248  -0.7000  -0.6694  -0.6661  -0.6603  -0.6548  -0.6418  -0.6259
    -0.6130  -0.6069  -0.6039  -0.5960  -0.5777  -0.5723  -0.5689  -0.5616
    -0.5515  -0.5477  -0.5416  -0.5395  -0.5372  -0.5213  -0.5147  -0.5099
    -0.5081  -0.4964  -0.4963  -0.4939  -0.4820  -0.4776  -0.4772  -0.4687
    -0.4624  -0.4582  -0.4517  -0.4365  -0.4320  -0.4190  -0.4161  -0.4096
    -0.4046  -0.3945  -0.3920  -0.3857  -0.3786  -0.3732  -0.3628  -0.3596
    -0.3349  -0.3140  -0.2857  -0.2741  -0.2650  -0.2600  -0.2241  -0.2216
    -0.1984  -0.1909  -0.1816  -0.1722  -0.1686  -0.1682  -0.1561  -0.1501
    -0.1471  -0.1464  -0.1389  -0.1387  -0.1294  -0.1289  -0.1222  -0.1135
    -0.1073  -0.1053  -0.0930  -0.0874  -0.0834  -0.0814  -0.0759  -0.0751
    -0.0686  -0.0617  -0.0604  -0.0492  -0.0402  -0.0402  -0.0321  -0.0178
    -0.0178  -0.0138  -0.0099  -0.0066  -0.0021   0.0071   0.0175   0.0194
     0.0319   0.0355   0.0486   0.0625   0.0666   0.0800   0.0863   0.0892
     0.0932   0.0949   0.1018   0.1029   0.1068   0.1078   0.1170   0.1284
     0.1287   0.1418   0.1630   0.1704   0.1763   0.1786   0.1827   0.1949
     0.2065   0.2123   0.2124   0.2276   0.2484   0.2603   0.2652   0.2664
     0.2822   0.2921   0.2973   0.3056   0.3168   0.3438   0.3519   0.3893
     0.3951   0.4152   0.4305   0.4489   0.4593   0.4656   0.4724   0.4835
     0.4886   0.4915   0.4990   0.5015   0.5158   0.5259   0.5336   0.5428
     0.5578   0.5618   0.5625   0.5729   0.5788   0.5901   0.6161   0.6203
     0.6238   0.6298   0.6373   0.6442   0.6516   0.6562   0.6673   0.6738
     0.6812   0.6925   0.6926   0.6974   0.7087   0.7110   0.7147   0.7261
     0.7261   0.7327   0.7350   0.7368   0.7371   0.7415   0.7511   0.7609
     0.7758   0.7787   0.7868   0.7877   0.7921   0.7922   0.8129   0.8150
     0.8193   0.8197   0.8285   0.8287   0.8414   0.8457   0.8509   0.8519
     0.8544   0.8612   0.8615   0.8785   0.8786   0.8903   0.8969   0.8973
     0.9009   0.9009   0.9079   0.9121   0.9167   0.9183   0.9273   0.9330
     0.9355   0.9406   0.9528   0.9545   0.9576   0.9664   0.9673   0.9688
     0.9690   0.9773   0.9815   0.9850   0.9893   1.0157   1.0160   1.0309
     1.0351   1.0495   1.0575   1.0634   1.0669   1.0828   1.0851   1.0880
     1.0954   1.0999   1.1054   1.1161   1.1191   1.1238   1.1333   1.1415
     1.1470   1.1582   1.1628   1.1700   1.1876   1.1893   1.1911   1.2032
     1.2035   1.2103   1.2175   1.2222   1.2272   1.2352   1.2383   1.2414
     1.2435   1.2497   1.2509   1.2516   1.2656   1.2657   1.2718   1.2811
     1.2940   1.2980   1.3178   1.3199   1.3261   1.3263   1.3380   1.3382
     1.3396   1.3479   1.3532   1.3631   1.3683   1.3724   1.3754   1.3811
     1.3811   1.3859   1.3898   1.3967   1.3979   1.4102   1.4131   1.4150
     1.4197   1.4365   1.4432   1.4461   1.4578   1.4609   1.4625   1.4730
     1.4735   1.4847   1.4945   1.5273   1.5323   1.5398   1.5429   1.5513
     1.5785   1.5930   1.5995   1.6260   1.6427   1.6788   1.6964   1.7023
     1.7645   1.7737   1.7951   1.7961   1.8120   1.8180   1.8249   1.8366
     1.8399   1.8473   1.8564   1.8590   1.8840   1.8966   1.9028   1.9342
     1.9536   1.9707   1.9788   1.9947   2.0004   2.0032   2.0223   2.0334
     2.0402   2.0502   2.0507   2.0554   2.1212   2.1471   2.1525   2.1690
     2.1869   2.1988   2.2055   2.2067   2.2139   2.2164   2.2239   2.2254
     2.2318   2.2622   2.2668   2.2746   2.3087   2.3205   2.3242   2.3345
     2.3436   2.3441   2.3661   2.4401   2.4620   2.4694   2.4907   2.4956
     2.5027   2.5314   2.5624   2.5741   2.5745   2.5774   2.5810   2.5939
     2.5969   2.6049   2.6162   2.6341   2.6498   2.6579   2.6665   2.6941
     2.6944   2.7186   2.7400   2.7559   2.8204   2.8533   2.8541   2.8738
     3.4588   3.4984   3.5816   3.6225   3.9887   4.0358   4.0869   4.1146
     4.7972   5.0065   5.0197   5.2895   5.5361   5.5408   5.5561   5.5944
     5.6002   5.6152   5.7170   5.8971   6.0293   6.0463   6.0591   6.0728
     6.0793   6.0939   6.1058   6.1185   6.1301   6.2301   6.2722   6.3397
     6.3547   6.3701   6.3975   6.4086   6.4151   6.4248   6.4903   6.5402
     6.5616   6.5851   6.6378   6.6644   6.7032   6.7873   6.8031   6.8281
     6.9293   6.9638   7.0308   7.0393   7.0645   7.0862   7.0922   7.1082
     7.1116   7.1462   7.1665   7.1902   7.1996   7.2114   7.2194   7.2500
     7.2681   7.2789   7.2927   7.3032   7.3193   7.3676   7.3779   7.3962
     7.4240   7.4293   7.4641   7.4801   7.5168   7.5298   7.5628   7.5825
     7.6718   7.6868   7.7058   7.7219   7.7285   7.7506   7.7575   7.7988
     7.8894   7.9346   7.9512   7.9659   7.9793   7.9904   8.0166   8.0373
     8.0726   8.0987   8.1223   8.1385   8.1551   8.1748   8.1874   8.1924
     8.2104   8.2201   8.2223   8.2433   8.2541   8.2610   8.2740   8.2834
     8.2907   8.3218   8.3495   8.3582   8.3719   8.3805   8.3880   8.4095
     8.4153   8.4348   8.4448   8.4517   8.4639   8.4809   8.4927   8.5050
     8.5194   8.5265   8.5387   8.5539   8.5735   8.5777   8.5902   8.6227
     8.6331   8.6646   8.6715   8.6970   8.7072   8.7093   8.7155   8.7397
     8.7620   8.7928   8.8000   8.8055   8.8149   8.8237   8.8359   8.8821
     8.8957   8.9072

          k = 0.0000 0.4779 0.0000 (302101 PWs)   bands (ev):

   -38.6962 -38.6694 -38.6676 -38.6625 -38.6599 -38.6452 -38.6444 -38.6184
   -38.5815 -38.5797 -38.5698 -38.5664 -38.5573 -38.5555 -36.2373 -36.1436
   -23.2659 -23.2564 -23.2421 -23.2266 -23.2161 -23.2123 -23.2018 -23.1993
   -23.1959 -23.1798 -23.1715 -23.1656 -23.1301 -23.1225 -23.1158 -23.1026
   -23.0961 -23.0885 -23.0818 -23.0769 -23.0742 -23.0657 -23.0633 -23.0599
   -23.0500 -23.0185 -23.0104 -23.0037 -22.9351 -22.9163 -22.8258 -22.6387
   -19.2399 -19.2354 -19.1994 -19.1707 -19.1519 -19.1491 -19.1405 -19.1400
   -19.1135 -19.0915 -19.0867 -19.0634 -19.0516 -19.0499 -19.0071 -18.9959
   -18.9899 -18.9803 -18.9714 -18.9708 -18.9558 -18.9086 -18.9004 -18.8961
   -18.8900 -18.8889 -18.8694 -18.8561 -18.8403 -18.8200 -18.8142 -18.7961
   -18.7827 -18.7755 -18.7510 -18.7323 -18.7136 -18.7130 -18.6932 -18.6727
   -18.6230 -18.5820 -17.4951 -17.4700 -17.4612 -17.4041 -17.3746 -17.3702
   -15.8392 -15.7800 -15.6257 -15.5702 -15.5647 -15.5127 -15.4549 -15.3982
   -15.3561 -15.3135 -15.2463 -15.2163 -15.2054 -15.2004 -15.1795 -15.1697
   -15.1621 -15.1573 -15.1476 -15.1414 -15.1160 -15.1132 -15.1077 -15.0905
   -15.0462 -15.0235 -15.0188 -15.0170 -14.9864 -14.9728 -14.9646 -14.9593
   -14.9519 -14.9500 -14.9473 -14.9468 -14.9385 -14.9206 -14.9174 -14.9173
   -14.9041 -14.8951 -14.8933 -14.8892 -14.8747 -14.8743 -14.8625 -14.8567
   -14.8419 -14.8361 -14.8331 -14.8315 -14.8192 -14.7974 -14.7706 -14.7641
   -14.7611 -14.7412 -14.7349 -14.7275 -14.7089 -14.7057 -14.7013 -14.6969
   -14.6913 -14.6862 -14.6682 -14.6656 -14.6606 -14.6535 -14.6471 -14.6324
   -14.6285 -14.6139 -14.6021 -14.5928 -14.5908 -14.5889 -14.5795 -14.5696
   -14.5619 -14.5614 -14.5467 -14.5453 -14.5280 -14.5185 -14.5024 -14.4742
   -14.3294 -14.3199 -14.3134 -14.3113 -14.3021 -14.2961 -14.2907 -14.2845
   -14.2738 -14.2718 -14.2560 -14.2516 -14.2294 -14.2240 -14.2176 -14.2168
   -14.2094 -14.2036 -14.1981 -14.1429 -14.1014 -14.0790 -14.0672 -14.0456
   -13.1687 -13.1206 -13.0555 -13.0514 -13.0147 -13.0098 -12.9670 -12.8762
    -8.9868  -8.9733  -8.8449  -8.8350  -8.8315  -8.8283  -8.8215  -8.7618
    -8.7480  -8.6989  -8.6885  -8.6861  -8.6615  -8.6042  -8.5969  -8.5967
    -8.5665  -8.5423  -8.5322  -8.5265  -8.5242  -8.5214  -8.5175  -8.5166
    -8.5058  -8.5016  -8.4933  -8.4861  -8.4750  -8.4729  -8.4715  -8.4570
    -8.4502  -8.4478  -8.4433  -8.4388  -8.4357  -8.4327  -8.4325  -8.4311
    -8.4304  -8.4260  -8.4253  -8.4192  -8.4179  -8.4103  -8.4025  -8.3600
    -8.3555  -8.3462  -8.3430  -8.3369  -8.3366  -8.3310  -8.3297  -8.3290
    -8.3235  -8.3175  -8.3158  -8.2904  -8.2851  -8.2717  -8.2706  -8.2666
    -8.2437  -8.2423  -8.2267  -8.2192  -8.2053  -8.2039  -8.2006  -8.1688
    -8.1627  -8.1504  -8.1484  -8.1326  -8.0856  -8.0656  -8.0617  -8.0602
    -8.0515  -8.0497  -8.0450  -8.0379  -8.0376  -8.0315  -8.0242  -7.9987
    -7.9481  -7.9241  -7.8925  -7.8877  -7.8731  -7.8512  -7.6525  -7.6449
    -4.4415  -4.3694  -4.1537  -4.0945  -4.0904  -4.0312  -3.9347  -3.8378
    -3.7736  -3.7308  -3.7147  -3.7068  -3.6377  -3.6079  -3.4903  -3.4784
    -3.4462  -3.3892  -3.3183  -3.2422  -3.2417  -3.2246  -3.2241  -3.2192
    -3.1524  -3.1422  -3.1160  -3.0999  -3.0733  -3.0592  -3.0089  -2.9914
    -2.9709  -2.9549  -2.9086  -2.9064  -2.9033  -2.9025  -2.8946  -2.8917
    -2.8780  -2.8773  -2.8608  -2.8515  -2.8443  -2.8334  -2.7953  -2.7918
    -2.7519  -2.7483  -2.7482  -2.7366  -2.7299  -2.7150  -2.6562  -2.6472
    -2.6444  -2.6230  -2.5731  -2.5570  -2.5533  -2.5362  -2.5233  -2.5153
    -2.5125  -2.4986  -2.4773  -2.4770  -2.4751  -2.4671  -2.4657  -2.4599
    -2.4543  -2.4476  -2.4409  -2.4353  -2.4284  -2.4203  -2.4202  -2.4185
    -2.4131  -2.4124  -2.4090  -2.4030  -2.4009  -2.3972  -2.3850  -2.3783
    -2.3723  -2.3645  -2.3544  -2.3192  -2.3129  -2.3106  -2.2666  -2.2568
    -2.2555  -2.2486  -2.2453  -2.2338  -2.2000  -2.1997  -2.1960  -2.1911
    -2.1905  -2.1839  -2.1792  -2.1778  -2.1759  -2.1637  -2.1589  -2.1429
    -2.1376  -2.1369  -2.1298  -2.1287  -2.1198  -2.1167  -2.0986  -2.0903
    -2.0898  -2.0541  -2.0344  -2.0009  -1.9409  -1.9065  -1.8549  -1.8473
    -1.8460  -1.8393  -1.8356  -1.8284  -1.8226  -1.8099  -1.8091  -1.7650
    -1.7040  -1.6364  -1.5819  -1.5408  -1.5228  -1.4780  -1.4670  -1.4659
    -1.4592  -1.4587  -1.4486  -1.4469  -1.4394  -1.4286  -1.4113  -1.4074
    -1.4055  -1.3998  -1.3916  -1.3827  -1.3729  -1.3644  -1.3555  -1.3383
    -1.3263  -1.3141  -1.3093  -1.3088  -1.3064  -1.2994  -1.2894  -1.2858
    -1.2826  -1.2811  -1.2778  -1.2676  -1.2644  -1.2543  -1.2429  -1.2354
    -1.2300  -1.2269  -1.2221  -1.2150  -1.2121  -1.2118  -1.2046  -1.1964
    -1.1942  -1.1915  -1.1889  -1.1654  -1.1627  -1.1532  -1.1513  -1.1489
    -1.1441  -1.1364  -1.1352  -1.1332  -1.1185  -1.1017  -1.0954  -1.0764
    -1.0687  -1.0592  -1.0501  -0.9972  -0.9945  -0.9735  -0.9711  -0.9602
    -0.9592  -0.9547  -0.9469  -0.9452  -0.9406  -0.9373  -0.9346  -0.9255
    -0.9236  -0.9174  -0.8701  -0.8673  -0.8490  -0.8395  -0.8393  -0.8368
    -0.8179  -0.8166  -0.8124  -0.8060  -0.7997  -0.7931  -0.7831  -0.7686
    -0.7487  -0.7465  -0.7385  -0.7382  -0.7114  -0.7035  -0.6844  -0.6762
    -0.6698  -0.6638  -0.6581  -0.6422  -0.6373  -0.6251  -0.6062  -0.5961
    -0.5849  -0.5690  -0.5646  -0.5615  -0.5531  -0.5489  -0.5405  -0.5386
    -0.5376  -0.5319  -0.5311  -0.5191  -0.5098  -0.4965  -0.4945  -0.4774
    -0.4710  -0.4647  -0.4365  -0.4112  -0.4043  -0.3996  -0.3983  -0.3963
    -0.3818  -0.3726  -0.3650  -0.3607  -0.3525  -0.3433  -0.3243  -0.3149
    -0.3080  -0.2896  -0.2600  -0.2520  -0.2390  -0.2325  -0.2294  -0.2238
    -0.2233  -0.2174  -0.2153  -0.2151  -0.2141  -0.2046  -0.2004  -0.1866
    -0.1857  -0.1817  -0.1756  -0.1697  -0.1638  -0.1334  -0.1274  -0.1189
    -0.1155  -0.1037  -0.0789  -0.0738  -0.0709  -0.0688  -0.0525  -0.0514
    -0.0500  -0.0386  -0.0368  -0.0304  -0.0057   0.0028   0.0063   0.0068
     0.0112   0.0114   0.0235   0.0274   0.0382   0.0399   0.0501   0.0513
     0.0536   0.0806   0.0851   0.0860   0.0899   0.0907   0.0907   0.0970
     0.0997   0.1034   0.1095   0.1131   0.1317   0.1497   0.1503   0.1536
     0.1538   0.1542   0.1573   0.1655   0.1731   0.1778   0.1868   0.1893
     0.2084   0.2096   0.2243   0.2340   0.2460   0.2724   0.2739   0.2754
     0.2929   0.2998   0.3101   0.3174   0.3346   0.3405   0.3412   0.3671
     0.3728   0.3819   0.3836   0.3850   0.3976   0.4142   0.4191   0.4275
     0.4359   0.4412   0.4477   0.4770   0.4872   0.4905   0.5036   0.5100
     0.5496   0.5501   0.5703   0.5817   0.5971   0.6083   0.6378   0.6385
     0.6391   0.6501   0.6529   0.6539   0.6586   0.6641   0.6752   0.6767
     0.6776   0.6799   0.6976   0.7022   0.7042   0.7060   0.7144   0.7150
     0.7237   0.7241   0.7423   0.7541   0.7582   0.7764   0.7807   0.7824
     0.7871   0.7925   0.8021   0.8042   0.8045   0.8057   0.8070   0.8111
     0.8204   0.8228   0.8366   0.8415   0.8434   0.8476   0.8534   0.8658
     0.8661   0.8678   0.8753   0.8786   0.8814   0.8949   0.8963   0.9114
     0.9147   0.9311   0.9420   0.9447   0.9476   0.9491   0.9574   0.9591
     0.9607   0.9623   0.9697   0.9704   0.9734   0.9943   0.9952   1.0116
     1.0168   1.0201   1.0295   1.0298   1.0331   1.0342   1.0439   1.0487
     1.0503   1.0569   1.0613   1.0757   1.0769   1.0799   1.0806   1.0911
     1.1005   1.1014   1.1049   1.1104   1.1110   1.1121   1.1235   1.1245
     1.1281   1.1315   1.1411   1.1490   1.1554   1.1600   1.1675   1.1778
     1.1843   1.1925   1.1932   1.1935   1.2004   1.2042   1.2182   1.2240
     1.2275   1.2315   1.2363   1.2397   1.2619   1.2662   1.2693   1.2740
     1.2766   1.2828   1.2907   1.3019   1.3097   1.3133   1.3270   1.3290
     1.3339   1.3490   1.3613   1.3691   1.3708   1.3886   1.3997   1.4010
     1.4131   1.4172   1.4185   1.4187   1.4258   1.4279   1.4286   1.4352
     1.4378   1.4464   1.4533   1.4559   1.4577   1.4609   1.4626   1.4681
     1.4696   1.4697   1.4863   1.4901   1.4961   1.4993   1.5010   1.5430
     1.5485   1.5782   1.5845   1.5953   1.6004   1.6196   1.6255   1.6257
     1.6906   1.7155   1.7346   1.7619   1.7689   1.7858   1.7870   1.8071
     1.8088   1.8128   1.8142   1.8190   1.8221   1.8225   1.8604   1.8998
     1.9133   1.9178   1.9270   1.9330   1.9449   1.9611   1.9815   1.9832
     2.0039   2.0128   2.0183   2.0318   2.0424   2.0494   2.0682   2.1140
     2.1215   2.1217   2.1337   2.1388   2.1392   2.1582   2.1587   2.1642
     2.2012   2.2179   2.2203   2.2389   2.2733   2.2926   2.3156   2.3200
     2.3216   2.3719   2.4097   2.4276   2.4492   2.4545   2.4669   2.5018
     2.5234   2.5282   2.5806   2.5832   2.5867   2.5892   2.5958   2.6011
     2.6177   2.6608   2.6778   2.6812   2.6849   2.7102   2.7319   2.7619
     2.7703   2.7905   2.9061   2.9512   3.1110   3.1253   3.1556   3.1699
     3.2898   3.3092   3.3335   3.3507   3.8063   3.8467   3.8928   3.9275
     5.0696   5.2603   5.3540   5.3860   5.4031   5.5086   5.5125   5.5242
     5.5279   5.7217   5.7392   5.7689   5.8420   5.8679   6.1258   6.1939
     6.2022   6.2183   6.2228   6.2380   6.3032   6.3081   6.3165   6.3226
     6.3336   6.3353   6.3698   6.4853   6.4918   6.4926   6.5021   6.5352
     6.5402   6.5721   6.5751   6.6412   6.6499   6.6536   6.6768   6.7050
     6.7233   6.7938   6.8179   6.8701   6.8749   6.9020   6.9266   7.0302
     7.0516   7.1311   7.1544   7.1548   7.1740   7.1900   7.2476   7.2958
     7.3132   7.3148   7.3547   7.3741   7.4135   7.4301   7.4325   7.4330
     7.4494   7.4657   7.4757   7.4761   7.5068   7.5150   7.5411   7.5558
     7.5905   7.6038   7.6532   7.6765   7.7057   7.7157   7.7436   7.8077
     7.8472   7.8612   7.9020   7.9240   7.9674   7.9748   7.9771   7.9986
     8.0112   8.0318   8.0528   8.0806   8.0932   8.1026   8.1390   8.1633
     8.1944   8.2163   8.2575   8.2734   8.2833   8.2835   8.3267   8.3283
     8.3555   8.3730   8.3759   8.3873   8.3892   8.3960   8.4080   8.4218
     8.4320   8.4396   8.4460   8.4544   8.4876   8.5103   8.5200   8.5794
     8.5804   8.5910   8.5947   8.6281   8.6792   8.6867   8.6940   8.7001
     8.7101   8.7190   8.7229   8.7363   8.7401   8.7426   8.7809   8.8030
     8.8290   8.8420   8.8485   8.8500   8.9352   8.9516   8.9569   8.9740
     8.9916   9.0164

          k =-0.4652-0.0000 0.0000 (302204 PWs)   bands (ev):

   -38.6962 -38.6700 -38.6667 -38.6625 -38.6602 -38.6456 -38.6440 -38.6184
   -38.5821 -38.5789 -38.5696 -38.5670 -38.5568 -38.5558 -36.2373 -36.1436
   -23.2661 -23.2625 -23.2482 -23.2166 -23.2052 -23.2020 -23.2014 -23.1970
   -23.1936 -23.1910 -23.1830 -23.1727 -23.1177 -23.1141 -23.1120 -23.1070
   -23.0995 -23.0979 -23.0930 -23.0889 -23.0675 -23.0609 -23.0538 -23.0532
   -23.0521 -23.0188 -23.0174 -22.9977 -22.9448 -22.9090 -22.8260 -22.6387
   -19.2756 -19.2033 -19.1975 -19.1877 -19.1735 -19.1457 -19.1168 -19.1111
   -19.1099 -19.0943 -19.0691 -19.0685 -19.0587 -19.0229 -19.0064 -18.9992
   -18.9867 -18.9826 -18.9804 -18.9752 -18.9707 -18.9154 -18.9106 -18.8945
   -18.8942 -18.8926 -18.8772 -18.8682 -18.8353 -18.8160 -18.8080 -18.7914
   -18.7875 -18.7839 -18.7467 -18.7272 -18.7173 -18.7045 -18.7021 -18.6644
   -18.6271 -18.5740 -17.4951 -17.4684 -17.4626 -17.4041 -17.3730 -17.3716
   -15.8318 -15.7712 -15.6441 -15.5840 -15.5732 -15.5186 -15.4383 -15.3860
   -15.3144 -15.2964 -15.2608 -15.2448 -15.2396 -15.2192 -15.2157 -15.1792
   -15.1554 -15.1486 -15.1247 -15.1122 -15.0929 -15.0829 -15.0808 -15.0737
   -15.0611 -15.0481 -15.0446 -15.0343 -15.0244 -15.0181 -15.0025 -14.9896
   -14.9740 -14.9670 -14.9439 -14.9391 -14.9066 -14.9048 -14.8926 -14.8848
   -14.8822 -14.8806 -14.8689 -14.8660 -14.8554 -14.8550 -14.8514 -14.8365
   -14.8364 -14.8329 -14.8127 -14.8084 -14.8029 -14.7986 -14.7662 -14.7556
   -14.7510 -14.7503 -14.7479 -14.7380 -14.7354 -14.7313 -14.7187 -14.7171
   -14.6950 -14.6919 -14.6774 -14.6709 -14.6684 -14.6633 -14.6503 -14.6451
   -14.6307 -14.6212 -14.6159 -14.6134 -14.5984 -14.5961 -14.5924 -14.5737
   -14.5586 -14.5440 -14.5435 -14.5424 -14.5288 -14.4930 -14.4680 -14.4637
   -14.3244 -14.3198 -14.3074 -14.3033 -14.3032 -14.3014 -14.3002 -14.2844
   -14.2840 -14.2787 -14.2530 -14.2494 -14.2346 -14.2306 -14.2181 -14.2171
   -14.2104 -14.1967 -14.1901 -14.1426 -14.1102 -14.0756 -14.0654 -14.0436
   -13.1520 -13.1392 -13.0633 -13.0631 -13.0012 -13.0002 -12.9607 -12.8843
    -9.0418  -9.0284  -8.8866  -8.7620  -8.7563  -8.7527  -8.7481  -8.7427
    -8.7389  -8.6929  -8.6649  -8.6461  -8.6016  -8.5996  -8.5948  -8.5884
    -8.5868  -8.5844  -8.5808  -8.5409  -8.5242  -8.5176  -8.5051  -8.5025
    -8.5012  -8.4937  -8.4914  -8.4895  -8.4849  -8.4825  -8.4790  -8.4725
    -8.4641  -8.4615  -8.4602  -8.4491  -8.4489  -8.4432  -8.4405  -8.4378
    -8.4357  -8.4289  -8.4279  -8.4267  -8.4261  -8.4238  -8.4238  -8.4223
    -8.4148  -8.4143  -8.4116  -8.4093  -8.3991  -8.3947  -8.3511  -8.3206
    -8.3182  -8.2937  -8.2681  -8.2544  -8.2541  -8.2540  -8.2501  -8.2440
    -8.2316  -8.2179  -8.2033  -8.1915  -8.1909  -8.1779  -8.1667  -8.1454
    -8.1395  -8.1258  -8.1238  -8.0966  -8.0896  -8.0852  -8.0762  -8.0713
    -8.0668  -8.0628  -8.0532  -8.0531  -8.0478  -8.0350  -8.0005  -7.9505
    -7.9473  -7.9186  -7.9013  -7.8843  -7.8700  -7.8680  -7.6545  -7.6518
    -4.4859  -4.4170  -4.0674  -4.0135  -3.9957  -3.9920  -3.9497  -3.9266
    -3.8966  -3.8718  -3.6521  -3.6251  -3.5981  -3.5551  -3.5279  -3.4957
    -3.3702  -3.3525  -3.3306  -3.3126  -3.3015  -3.2775  -3.2665  -3.2486
    -3.2308  -3.2255  -3.2046  -3.1915  -3.1837  -3.1006  -3.0780  -3.0741
    -3.0072  -2.9829  -2.8767  -2.8674  -2.8462  -2.8147  -2.8051  -2.8016
    -2.7952  -2.7929  -2.7893  -2.7863  -2.7773  -2.7671  -2.7157  -2.7108
    -2.7076  -2.6625  -2.6386  -2.6306  -2.5891  -2.5787  -2.5766  -2.5734
    -2.5686  -2.5571  -2.5427  -2.5268  -2.5262  -2.5205  -2.5165  -2.5126
    -2.5121  -2.4934  -2.4876  -2.4855  -2.4848  -2.4723  -2.4697  -2.4559
    -2.4558  -2.4473  -2.4325  -2.4159  -2.4097  -2.4083  -2.4061  -2.4021
    -2.3767  -2.3740  -2.3734  -2.3716  -2.3542  -2.3377  -2.3323  -2.3300
    -2.3273  -2.3250  -2.3238  -2.3160  -2.3114  -2.3067  -2.3063  -2.3052
    -2.2955  -2.2946  -2.2778  -2.2764  -2.2574  -2.2544  -2.2522  -2.2463
    -2.2361  -2.2279  -2.2256  -2.2074  -2.2062  -2.2004  -2.1990  -2.1928
    -2.1738  -2.1689  -2.1681  -2.1658  -2.1633  -2.1496  -2.1404  -2.1328
    -2.1289  -2.1193  -2.1188  -2.1084  -2.0935  -2.0893  -2.0724  -2.0605
    -2.0499  -2.0236  -2.0199  -1.9375  -1.8025  -1.7651  -1.7394  -1.7294
    -1.7035  -1.6703  -1.6311  -1.5325  -1.5243  -1.5084  -1.5056  -1.4758
    -1.4569  -1.4408  -1.4287  -1.4176  -1.4171  -1.4047  -1.4029  -1.3968
    -1.3930  -1.3762  -1.3737  -1.3722  -1.3622  -1.3593  -1.3523  -1.3426
    -1.3344  -1.3186  -1.3044  -1.2906  -1.2880  -1.2862  -1.2816  -1.2720
    -1.2645  -1.2616  -1.2478  -1.2294  -1.2244  -1.2212  -1.2114  -1.2086
    -1.1996  -1.1989  -1.1978  -1.1950  -1.1869  -1.1847  -1.1764  -1.1744
    -1.1694  -1.1641  -1.1560  -1.1557  -1.1418  -1.1247  -1.1223  -1.1183
    -1.1035  -1.0952  -1.0796  -1.0755  -1.0595  -1.0491  -1.0442  -1.0399
    -1.0371  -1.0245  -1.0212  -1.0179  -1.0059  -1.0054  -1.0012  -0.9907
    -0.9754  -0.9554  -0.9320  -0.9082  -0.8945  -0.8888  -0.8782  -0.8757
[...]
     atom   84 type  3   force =     0.00021703   -0.00012524   -0.00163975
     atom   85 type  3   force =    -0.00012314    0.00007399   -0.00258240
     atom   86 type  3   force =     0.00012314    0.00007399   -0.00258240
     atom   87 type  3   force =     0.00012314   -0.00007399   -0.00258240
     atom   88 type  3   force =    -0.00012314   -0.00007399   -0.00258240
     atom   89 type  1   force =     0.00000000    0.00000000    0.00738957
     atom   90 type  1   force =     0.00000000   -0.00052855    0.01492930
     atom   91 type  1   force =     0.00000000    0.00052855    0.01492930
     atom   92 type  1   force =     0.00084244    0.00000000    0.01315926
     atom   93 type  1   force =    -0.00084244    0.00000000    0.01315926
     atom   94 type  1   force =     0.00000000    0.00000000    0.01652218
     atom   95 type  1   force =     0.00000000    0.00000000    0.01652218
     atom   96 type  1   force =     0.00000000    0.00000000    0.01667124
     atom   97 type  4   force =     0.00080379    0.00023916   -0.01761473
     atom   98 type  4   force =     0.00080379   -0.00023916   -0.01761473
     atom   99 type  4   force =    -0.00080379    0.00023916   -0.01761473
     atom  100 type  4   force =    -0.00080379   -0.00023916   -0.01761473
     atom  101 type  4   force =    -0.00264980   -0.00047168   -0.01835045
     atom  102 type  4   force =     0.00264980   -0.00047168   -0.01835045
     atom  103 type  4   force =     0.00264980    0.00047168   -0.01835045
     atom  104 type  4   force =    -0.00264980    0.00047168   -0.01835045
     atom  105 type  4   force =     0.00925790    0.00000000    0.02393463
     atom  106 type  4   force =    -0.00925790    0.00000000    0.02393463
     atom  107 type  3   force =    -0.01247397   -0.00468665   -0.02389434
     atom  108 type  3   force =    -0.01247397    0.00468665   -0.02389434
     atom  109 type  3   force =     0.01247397    0.00468665   -0.02389434
     atom  110 type  3   force =     0.01247397   -0.00468665   -0.02389434
     atom  111 type  3   force =    -0.00529207   -0.00040415   -0.02497261
     atom  112 type  3   force =     0.00529207    0.00040415   -0.02497261
     atom  113 type  3   force =    -0.00529207    0.00040415   -0.02497261
     atom  114 type  3   force =     0.00529207   -0.00040415   -0.02497261
     atom  115 type  4   force =     0.00198906   -0.00064259    0.02030772
     atom  116 type  4   force =    -0.00198906   -0.00064259    0.02030772
     atom  117 type  4   force =     0.00198906    0.00064259    0.02030772
     atom  118 type  4   force =    -0.00198906    0.00064259    0.02030772
     atom  119 type  4   force =    -0.01766673    0.00000000    0.02735793
     atom  120 type  4   force =     0.01766673    0.00000000    0.02735793
     atom  121 type  4   force =     0.00759496    0.00800267    0.02273965
     atom  122 type  4   force =    -0.00759496    0.00800267    0.02273965
     atom  123 type  4   force =    -0.00759496   -0.00800267    0.02273965
     atom  124 type  4   force =     0.00759496   -0.00800267    0.02273965
     atom  125 type  4   force =    -0.00212360    0.00075340    0.01966056
     atom  126 type  4   force =    -0.00212360   -0.00075340    0.01966056
     atom  127 type  4   force =     0.00212360    0.00075340    0.01966056
     atom  128 type  4   force =     0.00212360   -0.00075340    0.01966056
     atom  129 type  1   force =     0.00000000    0.00000000   -0.00051315
     atom  130 type  1   force =     0.00000000    0.00000000   -0.00038546
     atom  131 type  1   force =     0.00000000    0.00000000   -0.00038546
     atom  132 type  1   force =    -0.00481829    0.00000000   -0.00709990
     atom  133 type  1   force =     0.00481829    0.00000000   -0.00709990
     atom  134 type  1   force =     0.00000000   -0.00549075   -0.00193147
     atom  135 type  1   force =     0.00000000    0.00549075   -0.00193147
     atom  136 type  1   force =     0.00000000    0.00000000   -0.01802735
     atom  137 type  3   force =     0.00032503    0.00100070   -0.02083713
     atom  138 type  3   force =     0.00032503   -0.00100070   -0.02083713
     atom  139 type  3   force =    -0.00032503   -0.00100070   -0.02083713
     atom  140 type  3   force =    -0.00032503    0.00100070   -0.02083713
     atom  141 type  3   force =    -0.00168721    0.00088485   -0.02172679
     atom  142 type  3   force =    -0.00168721   -0.00088485   -0.02172679
     atom  143 type  3   force =     0.00168721    0.00088485   -0.02172679
     atom  144 type  3   force =     0.00168721   -0.00088485   -0.02172679
     atom  145 type  4   force =    -0.00260607    0.00000000    0.00314761
     atom  146 type  4   force =     0.00260607    0.00000000    0.00314761
     atom  147 type  4   force =     0.00000000   -0.00220128    0.00531537
     atom  148 type  4   force =     0.00000000    0.00220128    0.00531537
     atom  149 type  4   force =    -0.00043728    0.00000000    0.00011899
     atom  150 type  4   force =     0.00043728    0.00000000    0.00011899
     atom  151 type  4   force =    -0.00076675   -0.00006010    0.00201922
     atom  152 type  4   force =     0.00076675   -0.00006010    0.00201922
     atom  153 type  4   force =     0.00076675    0.00006010    0.00201922
     atom  154 type  4   force =    -0.00076675    0.00006010    0.00201922
     atom  155 type  4   force =     0.00000000   -0.00210133    0.00322251
     atom  156 type  4   force =     0.00000000    0.00210133    0.00322251
     atom  157 type  4   force =    -0.00004635    0.00027784    0.00384719
     atom  158 type  4   force =     0.00004635   -0.00027784    0.00384719
     atom  159 type  4   force =    -0.00004635   -0.00027784    0.00384719
     atom  160 type  4   force =     0.00004635    0.00027784    0.00384719
     atom  161 type  2   force =     0.00000000    0.00000000   -0.00129040
     atom  162 type  5   force =    -0.00009112    0.00000000    0.00002382
     atom  163 type  5   force =     0.00009112    0.00000000    0.00002382
     atom  164 type  5   force =     0.00000000    0.00000000    0.00074119
     atom  165 type  5   force =     0.00000000    0.00000000   -0.00025918
     atom  166 type  5   force =     0.00000000    0.00000000   -0.00025918
     atom  167 type  5   force =     0.00000000   -0.00056199   -0.00066837
     atom  168 type  5   force =     0.00000000    0.00056199   -0.00066837
     atom  169 type  4   force =    -0.00028188   -0.00002315    0.00036577
     atom  170 type  4   force =    -0.00028188    0.00002315    0.00036577
     atom  171 type  4   force =     0.00028188   -0.00002315    0.00036577
     atom  172 type  4   force =     0.00028188    0.00002315    0.00036577
     atom  173 type  4   force =     0.00000000    0.00018716    0.00047573
     atom  174 type  4   force =     0.00000000   -0.00018716    0.00047573
     atom  175 type  4   force =    -0.00002567   -0.00003282   -0.00034116
     atom  176 type  4   force =    -0.00002567    0.00003282   -0.00034116
     atom  177 type  4   force =     0.00002567    0.00003282   -0.00034116
     atom  178 type  4   force =     0.00002567   -0.00003282   -0.00034116
     atom  179 type  4   force =    -0.00005029    0.00000000   -0.00075929
     atom  180 type  4   force =     0.00005029    0.00000000   -0.00075929
     atom  181 type  4   force =     0.00000000   -0.00014541    0.00022591
     atom  182 type  4   force =     0.00000000    0.00014541    0.00022591
     atom  183 type  4   force =    -0.00008717    0.00000000   -0.00040728
     atom  184 type  4   force =     0.00008717    0.00000000   -0.00040728
     atom  185 type  3   force =     0.00006861   -0.00007759    0.00033314
     atom  186 type  3   force =     0.00006861    0.00007759    0.00033314
     atom  187 type  3   force =    -0.00006861   -0.00007759    0.00033314
     atom  188 type  3   force =    -0.00006861    0.00007759    0.00033314
     atom  189 type  3   force =     0.00001577    0.00006670    0.00035734
     atom  190 type  3   force =    -0.00001577    0.00006670    0.00035734
     atom  191 type  3   force =    -0.00001577   -0.00006670    0.00035734
     atom  192 type  3   force =     0.00001577   -0.00006670    0.00035734
     atom  193 type  1   force =     0.00000000    0.00000000    0.00023262
     atom  194 type  1   force =     0.00000000   -0.00003602    0.00040381
     atom  195 type  1   force =     0.00000000    0.00003602    0.00040381
     atom  196 type  1   force =     0.00026042    0.00000000    0.00016868
     atom  197 type  1   force =    -0.00026042    0.00000000    0.00016868
     atom  198 type  1   force =     0.00000000    0.00000000    0.00027198
     atom  199 type  1   force =     0.00000000    0.00000000    0.00027198
     atom  200 type  1   force =     0.00000000    0.00000000    0.00023427
     atom  201 type  4   force =     0.00006069    0.00007094   -0.00237756
     atom  202 type  4   force =     0.00006069   -0.00007094   -0.00237756
     atom  203 type  4   force =    -0.00006069    0.00007094   -0.00237756
     atom  204 type  4   force =    -0.00006069   -0.00007094   -0.00237756
     atom  205 type  4   force =     0.00002610    0.00005301   -0.00211311
     atom  206 type  4   force =    -0.00002610    0.00005301   -0.00211311
     atom  207 type  4   force =    -0.00002610   -0.00005301   -0.00211311
     atom  208 type  4   force =     0.00002610   -0.00005301   -0.00211311
     atom  209 type  4   force =     0.00006182    0.00000000   -0.00007805
     atom  210 type  4   force =    -0.00006182    0.00000000   -0.00007805
     atom  211 type  3   force =     0.00008796   -0.00004696    0.00060807
     atom  212 type  3   force =     0.00008796    0.00004696    0.00060807
     atom  213 type  3   force =    -0.00008796    0.00004696    0.00060807
     atom  214 type  3   force =    -0.00008796   -0.00004696    0.00060807
     atom  215 type  3   force =     0.00000355   -0.00003211    0.00083701
     atom  216 type  3   force =    -0.00000355    0.00003211    0.00083701
     atom  217 type  3   force =     0.00000355    0.00003211    0.00083701
     atom  218 type  3   force =    -0.00000355   -0.00003211    0.00083701
     atom  219 type  4   force =    -0.00010392    0.00021467   -0.00000014
     atom  220 type  4   force =     0.00010392    0.00021467   -0.00000014
     atom  221 type  4   force =    -0.00010392   -0.00021467   -0.00000014
     atom  222 type  4   force =     0.00010392   -0.00021467   -0.00000014
     atom  223 type  4   force =    -0.00011156    0.00000000    0.00005489
     atom  224 type  4   force =     0.00011156    0.00000000    0.00005489

     Total force =     0.155866     Total SCF correction =     0.000293


     Computing stress (Cartesian axis) and pressure


     negative rho (up, down):  6.347E-01 0.000E+00
          total   stress  (Ry/bohr**3)                   (kbar)     P=       -6.36
  -0.00000346   0.00000000   0.00000000           -0.51        0.00        0.00
   0.00000000  -0.00010046   0.00000000            0.00      -14.78        0.00
   0.00000000   0.00000000  -0.00002583            0.00        0.00       -3.80

 
     init_run     :     63.83s CPU     67.30s WALL (       1 calls)
     electrons    :   5048.79s CPU   5286.11s WALL (       1 calls)
     forces       :     37.57s CPU     40.13s WALL (       1 calls)
     stress       :    533.19s CPU    538.75s WALL (       1 calls)

     Called by init_run:
     wfcinit      :     49.64s CPU     51.40s WALL (       1 calls)
     potinit      :      1.84s CPU      1.90s WALL (       1 calls)
     hinit0       :      3.20s CPU      3.27s WALL (       1 calls)

     Called by electrons:
     c_bands      :   4197.83s CPU   4296.75s WALL (      44 calls)
     sum_band     :    585.74s CPU    663.30s WALL (      44 calls)
     v_of_rho     :     13.42s CPU     14.06s WALL (      45 calls)
     newd         :     97.69s CPU    158.14s WALL (      45 calls)
     mix_rho      :    154.87s CPU    155.98s WALL (      44 calls)

     Called by c_bands:
     init_us_2    :     16.82s CPU     17.52s WALL (     364 calls)
     cegterg      :   4094.51s CPU   4184.96s WALL (     176 calls)

     Called by sum_band:
     sum_band:bec :      4.31s CPU      4.32s WALL (     176 calls)
     addusdens    :     94.66s CPU    166.84s WALL (      44 calls)

     Called by *egterg:
     h_psi        :   1738.61s CPU   1772.27s WALL (    1048 calls)
     s_psi        :    500.21s CPU    512.02s WALL (    1048 calls)
     g_psi        :      2.60s CPU      2.62s WALL (     868 calls)
     cdiaghg      :    728.26s CPU    731.98s WALL (    1044 calls)

     Called by h_psi:
     h_psi:calbec :    543.42s CPU    546.57s WALL (    1048 calls)
     vloc_psi     :    691.03s CPU    699.48s WALL (    1048 calls)
     add_vuspsi   :    500.20s CPU    512.61s WALL (    1048 calls)

     General routines
     calbec       :    887.90s CPU    892.51s WALL (    1244 calls)
     fft          :     14.05s CPU     14.22s WALL (     608 calls)
     ffts         :     93.13s CPU     93.74s WALL (   34690 calls)
     fftw         :    769.33s CPU    778.48s WALL (  993666 calls)
     interpolate  :      1.21s CPU      1.21s WALL (      45 calls)
 
     Parallel routines
     fft_scatt_xy :    110.17s CPU    111.49s WALL ( 1028964 calls)
     fft_scatt_yz :    497.13s CPU    503.29s WALL ( 1028964 calls)
 
     PWSCF        :      1h34m CPU      1h38m WALL

 
   This run was terminated on:  22:54:36  18May2021            

=------------------------------------------------------------------------------=
   JOB DONE.
=------------------------------------------------------------------------------=
[1621392876.594758] [holy7c08307:276750:0]          mpool.c:43   UCX  WARN  object 0x3cbdc80 was not returned to mpool ucp_requests
[1621392876.612296] [holy7c08212:113248:0]          mpool.c:43   UCX  WARN  object 0x43b1a40 was not returned to mpool ucp_requests
[1621392876.596609] [holy7c08307:276752:0]          mpool.c:43   UCX  WARN  object 0x3f4b640 was not returned to mpool ucp_requests
[1621392876.601513] [holy7c08307:276759:0]          mpool.c:43   UCX  WARN  object 0x3b4bfc0 was not returned to mpool ucp_requests
[1621392876.602141] [holy7c08307:276758:0]          mpool.c:43   UCX  WARN  object 0x44461c0 was not returned to mpool ucp_requests
[1621392876.607897] [holy7c08307:276757:0]          mpool.c:43   UCX  WARN  object 0x4734380 was not returned to mpool ucp_requests
[1621392876.609194] [holy7c08307:276751:0]          mpool.c:43   UCX  WARN  object 0x5cdb3c0 was not returned to mpool ucp_requests
[1621392876.608736] [holy7c08307:276749:0]          mpool.c:43   UCX  WARN  object 0x454c100 was not returned to mpool ucp_requests
[1621392876.632169] [holy7c08209:261928:0]          mpool.c:43   UCX  WARN  object 0x5550b80 was not returned to mpool ucp_requests
[1621392876.632193] [holy7c08209:261928:0]          mpool.c:43   UCX  WARN  object 0x3d06780 was not returned to mpool ucp_requests
[1621392876.632196] [holy7c08209:261928:0]          mpool.c:43   UCX  WARN  object 0x3d07900 was not returned to mpool ucp_requests
[1621392876.617073] [holy7c08212:113247:0]          mpool.c:43   UCX  WARN  object 0x35268c0 was not returned to mpool ucp_requests
[1621392876.620571] [holy7c08212:113257:0]          mpool.c:43   UCX  WARN  object 0x38bf240 was not returned to mpool ucp_requests
[1621392876.620458] [holy7c08212:113255:0]          mpool.c:43   UCX  WARN  object 0x38e5840 was not returned to mpool ucp_requests
[1621392876.624335] [holy7c08212:113249:0]          mpool.c:43   UCX  WARN  object 0x4622f00 was not returned to mpool ucp_requests
[1621392876.625966] [holy7c08212:113250:0]          mpool.c:43   UCX  WARN  object 0x39b10c0 was not returned to mpool ucp_requests
[1621392876.630276] [holy7c08212:113256:0]          mpool.c:43   UCX  WARN  object 0x28c1a80 was not returned to mpool ucp_requests
[1621392876.632122] [holy7c08212:113258:0]          mpool.c:43   UCX  WARN  object 0x4791100 was not returned to mpool ucp_requests
[1621392876.630026] [holy7c08411:75606:0]          mpool.c:43   UCX  WARN  object 0x31b33c0 was not returned to mpool ucp_requests
[1621392876.645067] [holy7c08111:39608:0]          mpool.c:43   UCX  WARN  object 0x2cc6d40 was not returned to mpool ucp_requests
[1621392876.649765] [holy7c08111:39613:0]          mpool.c:43   UCX  WARN  object 0x44513c0 was not returned to mpool ucp_requests
[1621392876.649789] [holy7c08111:39613:0]          mpool.c:43   UCX  WARN  object 0x4456ec0 was not returned to mpool ucp_requests
[1621392876.640969] [holy7c08209:261921:0]          mpool.c:43   UCX  WARN  object 0x2e74c40 was not returned to mpool ucp_requests
[1621392876.640995] [holy7c08209:261921:0]          mpool.c:43   UCX  WARN  object 0x2e76680 was not returned to mpool ucp_requests
[1621392876.640999] [holy7c08209:261921:0]          mpool.c:43   UCX  WARN  object 0x2e80cc0 was not returned to mpool ucp_requests
[1621392876.641016] [holy7c08209:261919:0]          mpool.c:43   UCX  WARN  object 0x4bc2dc0 was not returned to mpool ucp_requests
[1621392876.641044] [holy7c08209:261919:0]          mpool.c:43   UCX  WARN  object 0x29199c0 was not returned to mpool ucp_requests
[1621392876.641048] [holy7c08209:261919:0]          mpool.c:43   UCX  WARN  object 0x291d000 was not returned to mpool ucp_requests
[1621392876.636659] [holy7c08209:261927:0]          mpool.c:43   UCX  WARN  object 0x3f2a780 was not returned to mpool ucp_requests
[1621392876.636686] [holy7c08209:261927:0]          mpool.c:43   UCX  WARN  object 0x3f31b00 was not returned to mpool ucp_requests
[1621392876.636690] [holy7c08209:261927:0]          mpool.c:43   UCX  WARN  object 0x3f369c0 was not returned to mpool ucp_requests
[1621392876.636539] [holy7c08209:261930:0]          mpool.c:43   UCX  WARN  object 0x2e06140 was not returned to mpool ucp_requests
[1621392876.640794] [holy7c08209:261920:0]          mpool.c:43   UCX  WARN  object 0x44985c0 was not returned to mpool ucp_requests
[1621392876.640817] [holy7c08209:261920:0]          mpool.c:43   UCX  WARN  object 0x449bdc0 was not returned to mpool ucp_requests
[1621392876.640820] [holy7c08209:261920:0]          mpool.c:43   UCX  WARN  object 0x449dd40 was not returned to mpool ucp_requests
[1621392876.641145] [holy7c08209:261922:0]          mpool.c:43   UCX  WARN  object 0x3f1f040 was not returned to mpool ucp_requests
[1621392876.653380] [holy7c08111:39607:0]          mpool.c:43   UCX  WARN  object 0x6b3a640 was not returned to mpool ucp_requests
[1621392876.660115] [holy7c08111:39615:0]          mpool.c:43   UCX  WARN  object 0x2be5fc0 was not returned to mpool ucp_requests
[1621392876.660137] [holy7c08111:39615:0]          mpool.c:43   UCX  WARN  object 0x2bea400 was not returned to mpool ucp_requests
[1621392876.656860] [holy7c08111:39616:0]          mpool.c:43   UCX  WARN  object 0x4599b00 was not returned to mpool ucp_requests
[1621392876.656883] [holy7c08111:39616:0]          mpool.c:43   UCX  WARN  object 0x459df40 was not returned to mpool ucp_requests
[1621392876.659343] [holy7c08111:39614:0]          mpool.c:43   UCX  WARN  object 0x5d94c80 was not returned to mpool ucp_requests
[1621392876.659369] [holy7c08111:39614:0]          mpool.c:43   UCX  WARN  object 0x4576940 was not returned to mpool ucp_requests
[1621392876.658177] [holy7c08111:39606:0]          mpool.c:43   UCX  WARN  object 0x4075500 was not returned to mpool ucp_requests
[1621392876.647105] [holy7c08209:261929:0]          mpool.c:43   UCX  WARN  object 0x4b61040 was not returned to mpool ucp_requests
[1621392876.647130] [holy7c08209:261929:0]          mpool.c:43   UCX  WARN  object 0x4b61e40 was not returned to mpool ucp_requests
[1621392876.647134] [holy7c08209:261929:0]          mpool.c:43   UCX  WARN  object 0x32d2640 was not returned to mpool ucp_requests
