
     Program PWSCF v.6.5 starts on 18May2021 at 12:21:23 

     This program is part of the open-source Quantum ESPRESSO suite
     for quantum simulation of materials; please cite
         "P. Giannozzi et al., J. Phys.:Condens. Matter 21 395502 (2009);
         "P. Giannozzi et al., J. Phys.:Condens. Matter 29 465901 (2017);
          URL http://www.quantum-espresso.org", 
     in publications or presentations arising from this work. More details at
     http://www.quantum-espresso.org/quote

     Parallel version (MPI), running on    80 processors

     MPI processes distributed on     5 nodes
     R & G space division:  proc/nbgrp/npool/nimage =      80
     Reading input from YBCO_BaO_cleave_2.5_sep.pwi
Warning: card &IONS ignored
Warning: card     ION_DYNAMICS = 'BFGS' ignored
Warning: card / ignored
Warning: card &CELL ignored
Warning: card     CELL_DYNAMICS = 'BFGS' ignored
Warning: card     PRESS_CONV_THR = 5 ignored
Warning: card / ignored

     Current dimensions of program PWSCF are:
     Max number of different atomic species (ntypx) = 10
     Max number of k-points (npk) =  40000
     Max angular momentum in pseudopotentials (lmaxx) =  3
     Message from routine volume:
     axis vectors are left-handed

     Subspace diagonalization in iterative solution of the eigenvalue problem:
     one sub-group per band group will be used
     scalapack distributed-memory algorithm (size of sub-group:  8*  8 procs)

     Message from routine setup:
     using ibrav=0 with symmetry is DISCOURAGED, use correct ibrav instead
 
     Parallelization info
     --------------------
     sticks:   dense  smooth     PW     G-vecs:    dense   smooth      PW
     Min         300     100     25               148918    28658    3763
     Max         301     101     26               148955    28681    3800
     Sum       24079    8031   2067             11915489  2293371  303101
 


     bravais-lattice index     =            0
     lattice parameter (alat)  =      20.5021  a.u.
     unit-cell volume          =   36520.4775 (a.u.)^3
     number of atoms/cell      =          224
     number of atomic types    =            5
     number of electrons       =      1830.00
     number of Kohn-Sham states=         1098
     kinetic-energy cutoff     =      60.0000  Ry
     charge density cutoff     =     720.0000  Ry
     convergence threshold     =      1.0E-08
     mixing beta               =       0.5000
     number of iterations used =           10  local-TF  mixing
     Exchange-correlation= SLA PW PBE PBE
                           (   1   4   3   4   0   0   0)

     celldm(1)=  20.502120  celldm(2)=   0.000000  celldm(3)=   0.000000
     celldm(4)=   0.000000  celldm(5)=   0.000000  celldm(6)=   0.000000

     crystal axes: (cart. coord. in units of alat)
               a(1) = (  -0.716599   0.697485   0.000000 )  
               a(2) = (   0.716599   0.697485   0.000000 )  
               a(3) = (   0.000000   0.000000   4.239346 )  

     reciprocal axes: (cart. coord. in units 2 pi/alat)
               b(1) = ( -0.697740  0.716861  0.000000 )  
               b(2) = (  0.697740  0.716861  0.000000 )  
               b(3) = (  0.000000  0.000000  0.235885 )  


     PseudoPot. # 1 for Ba read from file:
     ./pseudo/Ba.pbe-nsp-van.UPF
     MD5 check sum: 2b9c31dd849566dd297d80989662b7a0
     Pseudo is Ultrasoft + core correction, Zval = 10.0
     Generated by new atomic code, or converted to UPF format
     Using radial grid of  907 points,  6 beta functions with: 
                l(1) =   0
                l(2) =   0
                l(3) =   1
                l(4) =   1
                l(5) =   2
                l(6) =   2
     Q(r) pseudized with  6 coefficients,  rinner =    1.200   1.200   1.200
                                                       1.200   1.200

     PseudoPot. # 2 for Ca read from file:
     ./pseudo/Ca.pbe-nsp-van.UPF
     MD5 check sum: 6471098428ff4fa451746d08035ff179
     Pseudo is Ultrasoft + core correction, Zval = 10.0
     Generated by new atomic code, or converted to UPF format
     Using radial grid of  845 points,  6 beta functions with: 
                l(1) =   0
                l(2) =   0
                l(3) =   1
                l(4) =   1
                l(5) =   2
                l(6) =   2
     Q(r) pseudized with  6 coefficients,  rinner =    1.200   1.200   1.200
                                                       1.200   1.200

     PseudoPot. # 3 for Cu read from file:
     ./pseudo/Cu.pbe-n-van_ak.UPF
     MD5 check sum: 34e3282627ffb533726feb647e090d62
     Pseudo is Ultrasoft + core correction, Zval = 11.0
     Generated by new atomic code, or converted to UPF format
     Using radial grid of  867 points,  6 beta functions with: 
                l(1) =   0
                l(2) =   0
                l(3) =   1
                l(4) =   1
                l(5) =   2
                l(6) =   2
     Q(r) pseudized with  8 coefficients,  rinner =    1.400   1.400   1.400
                                                       1.400   1.400

     PseudoPot. # 4 for O  read from file:
     ./pseudo/O.pbe-van_ak.UPF
     MD5 check sum: 783ce7fe4c79b6a4916957118fed0856
     Pseudo is Ultrasoft, Zval =  6.0
     Generated by new atomic code, or converted to UPF format
     Using radial grid of  737 points,  4 beta functions with: 
                l(1) =   0
                l(2) =   0
                l(3) =   1
                l(4) =   1
     Q(r) pseudized with  8 coefficients,  rinner =    0.800   0.800   0.800


     PseudoPot. # 5 for Y  read from file:
     ./pseudo/Y.pbe-nsp-van.UPF
     MD5 check sum: 4412fed3ab108fed87a1b7d6a69a4a38
     Pseudo is Ultrasoft + core correction, Zval = 11.0
     Generated by new atomic code, or converted to UPF format
     Using radial grid of  885 points,  6 beta functions with: 
                l(1) =   0
                l(2) =   0
                l(3) =   1
                l(4) =   1
                l(5) =   2
                l(6) =   2
     Q(r) pseudized with  6 coefficients,  rinner =    1.200   1.200   1.200
                                                       1.200   1.200

     atomic species   valence    mass     pseudopotential
        Ba            10.00   137.32700     Ba( 1.00)
        Ca            10.00    40.07800     Ca( 1.00)
        Cu            11.00    63.54600     Cu( 1.00)
        O              6.00    15.99900     O ( 1.00)
        Y             11.00    88.90584     Y ( 1.00)

      4 Sym. Ops. (no inversion) found ( 3 have fractional translation)



   Cartesian axes

     site n.     atom                  positions (alat units)
         1           O   tau(   1) = (   0.3545921   0.8718562  -0.0077406  )
         2           O   tau(   2) = (   0.0037072   0.8718562  -0.0077406  )
         3           Cu  tau(   3) = (  -0.0002581   0.0006065   0.0080789  )
         4           Cu  tau(   4) = (  -0.0002581   0.3481364   0.0080789  )
         5           Cu  tau(   5) = (   0.3585574   0.3481364   0.0080789  )
         6           Cu  tau(   6) = (  -0.3580421   0.6980913   0.0080789  )
         7           Cu  tau(   7) = (   0.3577988   0.6971373   0.0086255  )
         8           Cu  tau(   8) = (   0.0005005   1.0465760   0.0086255  )
         9           Cu  tau(   9) = (  -0.3588016   0.3490903   0.0086255  )
        10           Cu  tau(  10) = (   0.0005005   0.6971373   0.0086255  )
        11           O   tau(  11) = (  -0.0001733   0.5225410  -0.0089757  )
        12           O   tau(  12) = (   0.3584726   0.5225410  -0.0089757  )
        13           O   tau(  13) = (  -0.0001733   1.2211724  -0.0089757  )
        14           O   tau(  14) = (  -0.3581278   0.5236867  -0.0089757  )
        15           O   tau(  15) = (  -0.3544557   0.8718562  -0.0105593  )
        16           O   tau(  16) = (  -0.0038445   0.1743714  -0.0105593  )
        17           O   tau(  17) = (   0.3588818   0.3486599   0.1817056  )
        18           O   tau(  18) = (  -0.0005825   0.3486599   0.1817056  )
        19           O   tau(  19) = (  -0.0005825   0.0000830   0.1817056  )
        20           O   tau(  20) = (  -0.3577167   0.6975677   0.1817056  )
        21           O   tau(  21) = (   0.3584283   0.6967843   0.1825784  )
        22           O   tau(  22) = (  -0.3581712   0.3494443   0.1825784  )
        23           O   tau(  23) = (  -0.0001290   0.6967843   0.1825784  )
        24           O   tau(  24) = (  -0.0001290   1.0469291   0.1825784  )
        25           Ba  tau(  25) = (   0.1791506   0.8718562   0.1908537  )
        26           Ba  tau(  26) = (   0.5374498   0.5231143   0.1919901  )
        27           Ba  tau(  27) = (  -0.1791506   0.5231143   0.1919901  )
        28           Ba  tau(  28) = (  -0.1793773   0.8718562   0.1931958  )
        29           Ba  tau(  29) = (  -0.1789238   0.1743714   0.1931958  )
        30           Ba  tau(  30) = (   0.1791506   0.5222101   0.1929368  )
        31           Ba  tau(  31) = (  -0.5374498   0.5240176   0.1929368  )
        32           Ba  tau(  32) = (   0.1791506   0.1743714   0.1992469  )
        33           Cu  tau(  33) = (  -0.3583426   0.3488452   0.3777458  )
        34           Cu  tau(  34) = (   0.3582559   0.6973834   0.3777458  )
        35           Cu  tau(  35) = (   0.0000433   0.6973834   0.3777458  )
        36           Cu  tau(  36) = (   0.0000433   1.0463299   0.3777458  )
        37           Cu  tau(  37) = (  -0.3586541   0.6975060   0.3775126  )
        38           Cu  tau(  38) = (   0.3579444   0.3487217   0.3775126  )
        39           Cu  tau(  39) = (   0.0003549   0.0000212   0.3775126  )
        40           Cu  tau(  40) = (   0.0003549   0.3487217   0.3775126  )
        41           O   tau(  41) = (  -0.0047976   0.1743714   0.3996864  )
        42           O   tau(  42) = (  -0.3535026   0.8718562   0.3996864  )
        43           O   tau(  43) = (  -0.5374498   0.6924605   0.3956991  )
        44           O   tau(  44) = (   0.1791506   0.3537672   0.3956991  )
        45           O   tau(  45) = (   0.3586385   0.8718562   0.4046840  )
        46           O   tau(  46) = (  -0.0003392   0.8718562   0.4046840  )
        47           O   tau(  47) = (  -0.0004857   0.5230571   0.4066611  )
        48           O   tau(  48) = (   0.3587850   0.5230571   0.4066611  )
        49           O   tau(  49) = (  -0.3578135   0.5231714   0.4066611  )
        50           O   tau(  50) = (  -0.0004857   1.2206562   0.4066611  )
        51           O   tau(  51) = (   0.1791506   1.0461604   0.4028931  )
        52           O   tau(  52) = (   0.1791506   0.6975521   0.4028931  )
        53           O   tau(  53) = (  -0.1792261   0.6967170   0.4025963  )
        54           O   tau(  54) = (  -0.1790731   0.3495106   0.4025963  )
        55           O   tau(  55) = (  -0.1792261   1.0469964   0.4025963  )
        56           O   tau(  56) = (   0.5375263   0.6967170   0.4025963  )
        57           Ca  tau(  57) = (   0.1791506   0.1743714   0.5358617  )
        58           Y   tau(  58) = (  -0.1811525   0.8718562   0.5373908  )
        59           Y   tau(  59) = (  -0.1771467   0.1743714   0.5373908  )
        60           Y   tau(  60) = (   0.1791506   0.8718562   0.5379568  )
        61           Y   tau(  61) = (   0.5374498   0.5231143   0.5384490  )
        62           Y   tau(  62) = (  -0.1791506   0.5231143   0.5384490  )
        63           Y   tau(  63) = (   0.1791506   0.5216598   0.5383310  )
        64           Y   tau(  64) = (  -0.5374498   0.5245688   0.5383310  )
        65           O   tau(  65) = (  -0.1787754   0.3493171   0.6712314  )
        66           O   tau(  66) = (   0.5378231   0.6969115   0.6712314  )
        67           O   tau(  67) = (  -0.1795239   1.0468019   0.6712314  )
        68           O   tau(  68) = (  -0.1795239   0.6969115   0.6712314  )
        69           O   tau(  69) = (   0.1791506   0.6972691   0.6718637  )
        70           O   tau(  70) = (   0.1791506   1.0464433   0.6718637  )
        71           O   tau(  71) = (  -0.0003880   1.2203935   0.6667490  )
        72           O   tau(  72) = (  -0.0003880   0.5233198   0.6667490  )
        73           O   tau(  73) = (   0.3586882   0.5233198   0.6667490  )
        74           O   tau(  74) = (  -0.3579112   0.5229087   0.6667490  )
        75           O   tau(  75) = (   0.3585850   0.8718562   0.6641940  )
        76           O   tau(  76) = (  -0.0002857   0.8718562   0.6641940  )
        77           O   tau(  77) = (   0.1791506   0.3535118   0.6756778  )
        78           O   tau(  78) = (  -0.5374498   0.6927158   0.6756778  )
        79           O   tau(  79) = (  -0.0043044   0.1743714   0.6710848  )
        80           O   tau(  80) = (  -0.3539948   0.8718562   0.6710848  )
        81           Cu  tau(  81) = (  -0.3586514   0.6973604   0.6974442  )
        82           Cu  tau(  82) = (   0.3579472   0.3488682   0.6974442  )
        83           Cu  tau(  83) = (   0.0003521  -0.0001254   0.6974442  )
        84           Cu  tau(  84) = (   0.0003521   0.3488682   0.6974442  )
        85           Cu  tau(  85) = (   0.0000083   1.0459401   0.6989015  )
        86           Cu  tau(  86) = (  -0.3583076   0.3484544   0.6989015  )
        87           Cu  tau(  87) = (   0.3582910   0.6977733   0.6989015  )
        88           Cu  tau(  88) = (   0.0000083   0.6977733   0.6989015  )
        89           Ba  tau(  89) = (   0.1791506   0.1743714   0.8671591  )
        90           Ba  tau(  90) = (  -0.5374498   0.5239908   0.8827639  )
        91           Ba  tau(  91) = (   0.1791506   0.5222377   0.8827639  )
        92           Ba  tau(  92) = (  -0.1785616   0.1743714   0.8784262  )
        93           Ba  tau(  93) = (  -0.1797386   0.8718562   0.8784262  )
        94           Ba  tau(  94) = (  -0.1791506   0.5231143   0.8841483  )
        95           Ba  tau(  95) = (   0.5374498   0.5231143   0.8841483  )
        96           Ba  tau(  96) = (   0.1791506   0.8718562   0.8844635  )
        97           O   tau(  97) = (   0.3607888   0.6975991   0.9037874  )
        98           O   tau(  98) = (  -0.3558097   0.3486286   0.9037874  )
        99           O   tau(  99) = (  -0.0024896   0.6975991   0.9037874  )
       100           O   tau( 100) = (  -0.0024896   1.0461143   0.9037874  )
       101           O   tau( 101) = (   0.3544087   0.3463252   0.9043663  )
       102           O   tau( 102) = (   0.0038906   0.3463252   0.9043663  )
       103           O   tau( 103) = (   0.0038906   0.0024177   0.9043663  )
       104           O   tau( 104) = (  -0.3621908   0.6999025   0.9043663  )
       105           O   tau( 105) = (   0.3314246   0.8718562   1.0783672  )
       106           O   tau( 106) = (   0.0268747   0.8718562   1.0783672  )
       107           Cu  tau( 107) = (  -0.0027882   0.0031818   1.0782086  )
       108           Cu  tau( 108) = (  -0.0027882   0.3455601   1.0782086  )
       109           Cu  tau( 109) = (   0.3610875   0.3455601   1.0782086  )
       110           Cu  tau( 110) = (  -0.3555111   0.7006675   1.0782086  )
       111           Cu  tau( 111) = (   0.3579684   0.6983604   1.0781976  )
       112           Cu  tau( 112) = (   0.0003318   1.0453529   1.0781976  )
       113           Cu  tau( 113) = (  -0.3586320   0.3478672   1.0781976  )
       114           Cu  tau( 114) = (   0.0003318   0.6983604   1.0781976  )
       115           O   tau( 115) = (  -0.0055718   0.5218801   1.0778989  )
       116           O   tau( 116) = (   0.3638720   0.5218801   1.0778989  )
       117           O   tau( 117) = (  -0.0055718   1.2218333   1.0778989  )
       118           O   tau( 118) = (  -0.3527284   0.5243475   1.0778989  )
       119           O   tau( 119) = (  -0.3170374   0.8718562   1.0783192  )
       120           O   tau( 120) = (  -0.0412618   0.1743714   1.0783192  )
       121           O   tau( 121) = (   0.3544105   0.3465040   1.2520362  )
       122           O   tau( 122) = (   0.0038887   0.3465040   1.2520362  )
       123           O   tau( 123) = (   0.0038887   0.0022389   1.2520362  )
       124           O   tau( 124) = (  -0.3621880   0.6997236   1.2520362  )
       125           O   tau( 125) = (   0.3607981   0.6973991   1.2525976  )
       126           O   tau( 126) = (  -0.3558014   0.3488295   1.2525976  )
       127           O   tau( 127) = (  -0.0024988   0.6973991   1.2525976  )
       128           O   tau( 128) = (  -0.0024988   1.0463143   1.2525976  )
       129           Ba  tau( 129) = (   0.1791506   0.8718562   1.2719528  )
       130           Ba  tau( 130) = (   0.5374498   0.5231143   1.2722763  )
       131           Ba  tau( 131) = (  -0.1791506   0.5231143   1.2722763  )
       132           Ba  tau( 132) = (  -0.1796732   0.8718562   1.2779763  )
       133           Ba  tau( 133) = (  -0.1786270   0.1743714   1.2779763  )
       134           Ba  tau( 134) = (   0.1791506   0.5222571   1.2737041  )
       135           Ba  tau( 135) = (  -0.5374498   0.5239706   1.2737041  )
       136           Ba  tau( 136) = (   0.1791506   0.1743714   1.2892268  )
       137           Cu  tau( 137) = (  -0.3583094   0.3484682   1.6879538  )
       138           Cu  tau( 138) = (   0.3582901   0.6977604   1.6879538  )
       139           Cu  tau( 139) = (   0.0000101   0.6977604   1.6879538  )
       140           Cu  tau( 140) = (   0.0000101   1.0459530   1.6879538  )
       141           Cu  tau( 141) = (  -0.3586477   0.6973567   1.6893741  )
       142           Cu  tau( 142) = (   0.3579518   0.3488710   1.6893741  )
       143           Cu  tau( 143) = (   0.0003484  -0.0001281   1.6893741  )
       144           Cu  tau( 144) = (   0.0003484   0.3488710   1.6893741  )
       145           O   tau( 145) = (  -0.0043173   0.1743714   1.7156792  )
       146           O   tau( 146) = (  -0.3539819   0.8718562   1.7156792  )
       147           O   tau( 147) = (  -0.5374498   0.6927305   1.7111480  )
       148           O   tau( 148) = (   0.1791506   0.3534971   1.7111480  )
       149           O   tau( 149) = (   0.3585795   0.8718562   1.7225893  )
       150           O   tau( 150) = (  -0.0002802   0.8718562   1.7225893  )
       151           O   tau( 151) = (  -0.0003853   0.5233134   1.7200933  )
       152           O   tau( 152) = (   0.3586855   0.5233134   1.7200933  )
       153           O   tau( 153) = (  -0.3579140   0.5229152   1.7200933  )
       154           O   tau( 154) = (  -0.0003853   1.2204000   1.7200933  )
       155           O   tau( 155) = (   0.1791506   1.0464553   1.7149667  )
       156           O   tau( 156) = (   0.1791506   0.6972571   1.7149667  )
       157           O   tau( 157) = (  -0.1795146   0.6969069   1.7155953  )
       158           O   tau( 158) = (  -0.1787846   0.3493208   1.7155953  )
       159           O   tau( 159) = (  -0.1795146   1.0468065   1.7155953  )
       160           O   tau( 160) = (   0.5378139   0.6969069   1.7155953  )
       161           Ca  tau( 161) = (   0.1791506   0.1743714   1.8509576  )
       162           Y   tau( 162) = (  -0.1811544   0.8718562   1.8494266  )
       163           Y   tau( 163) = (  -0.1771449   0.1743714   1.8494266  )
       164           Y   tau( 164) = (   0.1791506   0.8718562   1.8488634  )
       165           Y   tau( 165) = (   0.5374498   0.5231143   1.8483943  )
       166           Y   tau( 166) = (  -0.1791506   0.5231143   1.8483943  )
       167           Y   tau( 167) = (   0.1791506   0.5216524   1.8485150  )
       168           Y   tau( 168) = (  -0.5374498   0.5245761   1.8485150  )
       169           O   tau( 169) = (  -0.1790685   0.3495088   1.9842294  )
       170           O   tau( 170) = (   0.5375300   0.6967198   1.9842294  )
       171           O   tau( 171) = (  -0.1792307   1.0469936   1.9842294  )
       172           O   tau( 172) = (  -0.1792307   0.6967198   1.9842294  )
       173           O   tau( 173) = (   0.1791506   0.6975604   1.9839326  )
       174           O   tau( 174) = (   0.1791506   1.0461521   1.9839326  )
       175           O   tau( 175) = (  -0.0004848   1.2206534   1.9801683  )
       176           O   tau( 176) = (  -0.0004848   0.5230599   1.9801683  )
       177           O   tau( 177) = (   0.3587841   0.5230599   1.9801683  )
       178           O   tau( 178) = (  -0.3578144   0.5231687   1.9801683  )
       179           O   tau( 179) = (   0.3586468   0.8718562   1.9821067  )
       180           O   tau( 180) = (  -0.0003466   0.8718562   1.9821067  )
       181           O   tau( 181) = (   0.1791506   0.3537690   1.9911294  )
       182           O   tau( 182) = (  -0.5374498   0.6924586   1.9911294  )
       183           O   tau( 183) = (  -0.0047874   0.1743714   1.9870941  )
       184           O   tau( 184) = (  -0.3535118   0.8718562   1.9870941  )
       185           Cu  tau( 185) = (  -0.3586560   0.6975087   2.0093003  )
       186           Cu  tau( 186) = (   0.3579435   0.3487198   2.0093003  )
       187           Cu  tau( 187) = (   0.0003567   0.0000230   2.0093003  )
       188           Cu  tau( 188) = (   0.0003567   0.3487198   2.0093003  )
       189           Cu  tau( 189) = (   0.0000415   1.0463263   2.0090680  )
       190           Cu  tau( 190) = (  -0.3583407   0.3488406   2.0090680  )
       191           Cu  tau( 191) = (   0.3582587   0.6973871   2.0090680  )
       192           Cu  tau( 192) = (   0.0000415   0.6973871   2.0090680  )
       193           Ba  tau( 193) = (   0.1791506   0.1743714   2.1875733  )
       194           Ba  tau( 194) = (  -0.5374498   0.5240166   2.1938825  )
       195           Ba  tau( 195) = (   0.1791506   0.5222119   2.1938825  )
       196           Ba  tau( 196) = (  -0.1789220   0.1743714   2.1936263  )
       197           Ba  tau( 197) = (  -0.1793773   0.8718562   2.1936263  )
       198           Ba  tau( 198) = (  -0.1791506   0.5231143   2.1948365  )
       199           Ba  tau( 199) = (   0.5374498   0.5231143   2.1948365  )
       200           Ba  tau( 200) = (   0.1791506   0.8718562   2.1959647  )
       201           O   tau( 201) = (   0.3584302   0.6967870   2.2042344  )
       202           O   tau( 202) = (  -0.3581684   0.3494406   2.2042344  )
       203           O   tau( 203) = (  -0.0001309   0.6967870   2.2042344  )
       204           O   tau( 204) = (  -0.0001309   1.0469263   2.2042344  )
       205           O   tau( 205) = (   0.3588800   0.3486562   2.2051073  )
       206           O   tau( 206) = (  -0.0005807   0.3486562   2.2051073  )
       207           O   tau( 207) = (  -0.0005807   0.0000866   2.2051073  )
       208           O   tau( 208) = (  -0.3577186   0.6975714   2.2051073  )
       209           O   tau( 209) = (   0.3545921   0.8718562   2.3945378  )
       210           O   tau( 210) = (   0.0037081   0.8718562   2.3945378  )
       211           Cu  tau( 211) = (  -0.0002516   0.0006074   2.3787339  )
       212           Cu  tau( 212) = (  -0.0002516   0.3481345   2.3787339  )
       213           Cu  tau( 213) = (   0.3585509   0.3481345   2.3787339  )
       214           Cu  tau( 214) = (  -0.3580476   0.6980931   2.3787339  )
       215           Cu  tau( 215) = (   0.3577960   0.6971373   2.3781873  )
       216           Cu  tau( 216) = (   0.0005033   1.0465760   2.3781873  )
       217           Cu  tau( 217) = (  -0.3588035   0.3490903   2.3781873  )
       218           Cu  tau( 218) = (   0.0005033   0.6971373   2.3781873  )
       219           O   tau( 219) = (  -0.0001724   0.5225410   2.3957766  )
       220           O   tau( 220) = (   0.3584716   0.5225410   2.3957766  )
       221           O   tau( 221) = (  -0.0001724   1.2211724   2.3957766  )
       222           O   tau( 222) = (  -0.3581288   0.5236867   2.3957766  )
       223           O   tau( 223) = (  -0.3544640   0.8718562   2.3973665  )
       224           O   tau( 224) = (  -0.0038353   0.1743714   2.3973665  )

     number of k points=     4  Gaussian smearing, width (Ry)=  0.0100
                       cart. coord. in units 2pi/alat
        k(    1) = (   0.0000000   0.0000000   0.0000000), wk =   0.2222222
        k(    2) = (   0.2325801   0.2389537   0.0000000), wk =   0.8888889
        k(    3) = (   0.0000000   0.4779073   0.0000000), wk =   0.4444444
        k(    4) = (  -0.4651601  -0.0000000   0.0000000), wk =   0.4444444

     Dense  grid: 11915489 G-vectors     FFT dimensions: ( 180, 180, 750)

     Smooth grid:  2293371 G-vectors     FFT dimensions: ( 108, 108, 432)

     Estimated max dynamical RAM per process >       2.49 GB

     Estimated total dynamical RAM >     199.06 GB

     Initial potential from superposition of free atoms

     starting charge 1828.78422, renormalised to 1830.00000

     negative rho (up, down):  6.303E-01 0.000E+00
     Starting wfcs are 1602 randomized atomic wfcs

     total cpu time spent up to now is       60.6 secs

     Self-consistent Calculation

     iteration #  1     ecut=    60.00 Ry     beta= 0.50
     Davidson diagonalization with overlap
     ethr =  1.00E-02,  avg # of iterations =  2.0

     negative rho (up, down):  6.001E-01 0.000E+00

     total cpu time spent up to now is      160.5 secs

     total energy              =  -14912.94711770 Ry
     Harris-Foulkes estimate   =  -14943.71515808 Ry
     estimated scf accuracy    <     120.74942120 Ry

     iteration #  2     ecut=    60.00 Ry     beta= 0.50
     Davidson diagonalization with overlap
     ethr =  6.60E-03,  avg # of iterations =  2.0

     negative rho (up, down):  6.005E-01 0.000E+00

     total cpu time spent up to now is      256.9 secs

     total energy              =  -14923.02570867 Ry
     Harris-Foulkes estimate   =  -14927.10890719 Ry
     estimated scf accuracy    <      29.96077465 Ry

     iteration #  3     ecut=    60.00 Ry     beta= 0.50
     Davidson diagonalization with overlap
     ethr =  1.64E-03,  avg # of iterations =  2.0

     negative rho (up, down):  6.038E-01 0.000E+00

     total cpu time spent up to now is      354.1 secs

     total energy              =  -14924.64251292 Ry
     Harris-Foulkes estimate   =  -14925.69492210 Ry
     estimated scf accuracy    <      35.26565926 Ry

     iteration #  4     ecut=    60.00 Ry     beta= 0.50
     Davidson diagonalization with overlap
     ethr =  1.64E-03,  avg # of iterations =  1.0

     negative rho (up, down):  6.094E-01 0.000E+00

     total cpu time spent up to now is      447.2 secs

     total energy              =  -14924.65551235 Ry
     Harris-Foulkes estimate   =  -14925.15467642 Ry
     estimated scf accuracy    <      11.54381653 Ry

     iteration #  5     ecut=    60.00 Ry     beta= 0.50
     Davidson diagonalization with overlap
     ethr =  6.31E-04,  avg # of iterations =  1.0

     negative rho (up, down):  6.193E-01 0.000E+00

     total cpu time spent up to now is      537.7 secs

     total energy              =  -14924.45452737 Ry
     Harris-Foulkes estimate   =  -14924.94192389 Ry
     estimated scf accuracy    <      15.69819182 Ry

     iteration #  6     ecut=    60.00 Ry     beta= 0.50
     Davidson diagonalization with overlap
     ethr =  6.31E-04,  avg # of iterations =  1.0

     negative rho (up, down):  6.242E-01 0.000E+00

     total cpu time spent up to now is      629.2 secs

     total energy              =  -14924.50794111 Ry
     Harris-Foulkes estimate   =  -14924.66238295 Ry
     estimated scf accuracy    <       4.96865094 Ry

     iteration #  7     ecut=    60.00 Ry     beta= 0.50
     Davidson diagonalization with overlap
     ethr =  2.72E-04,  avg # of iterations =  9.2

     negative rho (up, down):  6.314E-01 0.000E+00

     total cpu time spent up to now is      755.6 secs

     total energy              =  -14924.48687643 Ry
     Harris-Foulkes estimate   =  -14924.58340565 Ry
     estimated scf accuracy    <       3.47193987 Ry

     iteration #  8     ecut=    60.00 Ry     beta= 0.50
     Davidson diagonalization with overlap
     ethr =  1.90E-04,  avg # of iterations =  5.2

     negative rho (up, down):  6.349E-01 0.000E+00

     total cpu time spent up to now is      867.1 secs

     total energy              =  -14924.44966288 Ry
     Harris-Foulkes estimate   =  -14924.53531239 Ry
     estimated scf accuracy    <       2.70325059 Ry

     iteration #  9     ecut=    60.00 Ry     beta= 0.50
     Davidson diagonalization with overlap
     c_bands:  2 eigenvalues not converged
     ethr =  1.48E-04,  avg # of iterations = 10.2

     negative rho (up, down):  6.340E-01 0.000E+00

     total cpu time spent up to now is      995.6 secs

     total energy              =  -14924.42452798 Ry
     Harris-Foulkes estimate   =  -14924.47741442 Ry
     estimated scf accuracy    <       1.42379108 Ry

     iteration # 10     ecut=    60.00 Ry     beta= 0.50
     Davidson diagonalization with overlap
     ethr =  7.78E-05,  avg # of iterations = 10.2

     negative rho (up, down):  6.317E-01 0.000E+00

     total cpu time spent up to now is     1125.5 secs

     total energy              =  -14924.40705361 Ry
     Harris-Foulkes estimate   =  -14924.44222250 Ry
     estimated scf accuracy    <       0.59766841 Ry

     iteration # 11     ecut=    60.00 Ry     beta= 0.50
     Davidson diagonalization with overlap
     ethr =  3.27E-05,  avg # of iterations = 13.8

     negative rho (up, down):  6.291E-01 0.000E+00

     total cpu time spent up to now is     1275.7 secs

     total energy              =  -14924.40636029 Ry
     Harris-Foulkes estimate   =  -14924.41890781 Ry
     estimated scf accuracy    <       0.26145901 Ry

     iteration # 12     ecut=    60.00 Ry     beta= 0.50
     Davidson diagonalization with overlap
     ethr =  1.43E-05,  avg # of iterations =  6.5

     negative rho (up, down):  6.270E-01 0.000E+00

     total cpu time spent up to now is     1387.9 secs

     total energy              =  -14924.40368933 Ry
     Harris-Foulkes estimate   =  -14924.41062621 Ry
     estimated scf accuracy    <       0.22343025 Ry

     iteration # 13     ecut=    60.00 Ry     beta= 0.50
     Davidson diagonalization with overlap
     ethr =  1.22E-05,  avg # of iterations =  3.8

     negative rho (up, down):  6.243E-01 0.000E+00

     total cpu time spent up to now is     1488.2 secs

     total energy              =  -14924.39675727 Ry
     Harris-Foulkes estimate   =  -14924.40562113 Ry
     estimated scf accuracy    <       0.23061954 Ry

     iteration # 14     ecut=    60.00 Ry     beta= 0.50
     Davidson diagonalization with overlap
     ethr =  1.22E-05,  avg # of iterations =  9.2

     negative rho (up, down):  6.245E-01 0.000E+00

     total cpu time spent up to now is     1609.7 secs

     total energy              =  -14924.39165918 Ry
     Harris-Foulkes estimate   =  -14924.39814148 Ry
     estimated scf accuracy    <       0.20134419 Ry

     iteration # 15     ecut=    60.00 Ry     beta= 0.50
     Davidson diagonalization with overlap
     ethr =  1.10E-05,  avg # of iterations = 13.2

     negative rho (up, down):  6.247E-01 0.000E+00

     total cpu time spent up to now is     1748.1 secs

     total energy              =  -14924.38998915 Ry
     Harris-Foulkes estimate   =  -14924.39262159 Ry
     estimated scf accuracy    <       0.18442215 Ry

     iteration # 16     ecut=    60.00 Ry     beta= 0.50
     Davidson diagonalization with overlap
     ethr =  1.01E-05,  avg # of iterations =  1.8

     negative rho (up, down):  6.536E-01 0.000E+00

     total cpu time spent up to now is     1842.5 secs

     total energy              =  -14924.37837960 Ry
     Harris-Foulkes estimate   =  -14924.39123873 Ry
     estimated scf accuracy    <       0.18633390 Ry

     iteration # 17     ecut=    60.00 Ry     beta= 0.50
     Davidson diagonalization with overlap
     ethr =  1.01E-05,  avg # of iterations = 12.8

     negative rho (up, down):  6.363E-01 0.000E+00

     total cpu time spent up to now is     1985.6 secs

     total energy              =  -14924.37577301 Ry
     Harris-Foulkes estimate   =  -14924.38066630 Ry
     estimated scf accuracy    <       0.18006745 Ry

     iteration # 18     ecut=    60.00 Ry     beta= 0.50
     Davidson diagonalization with overlap
     ethr =  9.84E-06,  avg # of iterations =  6.2

     negative rho (up, down):  6.593E-01 0.000E+00

     total cpu time spent up to now is     2094.9 secs

     total energy              =  -14924.36739816 Ry
     Harris-Foulkes estimate   =  -14924.37686052 Ry
     estimated scf accuracy    <       0.14152478 Ry

     iteration # 19     ecut=    60.00 Ry     beta= 0.50
     Davidson diagonalization with overlap
     c_bands:  1 eigenvalues not converged
     ethr =  7.73E-06,  avg # of iterations = 12.8

     negative rho (up, down):  6.594E-01 0.000E+00

     total cpu time spent up to now is     2244.9 secs

     total energy              =  -14924.36719631 Ry
     Harris-Foulkes estimate   =  -14924.37023502 Ry
     estimated scf accuracy    <       0.04422607 Ry

     iteration # 20     ecut=    60.00 Ry     beta= 0.50
     Davidson diagonalization with overlap
     c_bands:  1 eigenvalues not converged
     ethr =  2.42E-06,  avg # of iterations = 14.8

     negative rho (up, down):  6.295E-01 0.000E+00

     total cpu time spent up to now is     2391.0 secs

     total energy              =  -14924.36758328 Ry
     Harris-Foulkes estimate   =  -14924.36845999 Ry
     estimated scf accuracy    <       0.02553497 Ry

     iteration # 21     ecut=    60.00 Ry     beta= 0.50
     Davidson diagonalization with overlap
     ethr =  1.40E-06,  avg # of iterations = 12.0

     negative rho (up, down):  6.300E-01 0.000E+00

     total cpu time spent up to now is     2528.9 secs

     total energy              =  -14924.36742158 Ry
     Harris-Foulkes estimate   =  -14924.36832183 Ry
     estimated scf accuracy    <       0.02622864 Ry

     iteration # 22     ecut=    60.00 Ry     beta= 0.50
     Davidson diagonalization with overlap
     ethr =  1.40E-06,  avg # of iterations =  9.2

     negative rho (up, down):  6.306E-01 0.000E+00

     total cpu time spent up to now is     2655.0 secs

     total energy              =  -14924.36744269 Ry
     Harris-Foulkes estimate   =  -14924.36765358 Ry
     estimated scf accuracy    <       0.01040636 Ry

     iteration # 23     ecut=    60.00 Ry     beta= 0.50
     Davidson diagonalization with overlap
     c_bands:  2 eigenvalues not converged
     ethr =  5.69E-07,  avg # of iterations = 15.2

     negative rho (up, down):  6.379E-01 0.000E+00

     total cpu time spent up to now is     2804.5 secs

     total energy              =  -14924.36684541 Ry
     Harris-Foulkes estimate   =  -14924.36766983 Ry
     estimated scf accuracy    <       0.00806971 Ry

     iteration # 24     ecut=    60.00 Ry     beta= 0.50
     Davidson diagonalization with overlap
     ethr =  4.41E-07,  avg # of iterations = 14.0

     negative rho (up, down):  6.354E-01 0.000E+00

     total cpu time spent up to now is     2949.3 secs

     total energy              =  -14924.36706860 Ry
     Harris-Foulkes estimate   =  -14924.36712519 Ry
     estimated scf accuracy    <       0.00521301 Ry

     iteration # 25     ecut=    60.00 Ry     beta= 0.50
     Davidson diagonalization with overlap
     ethr =  2.85E-07,  avg # of iterations =  7.2

     negative rho (up, down):  6.453E-01 0.000E+00

     total cpu time spent up to now is     3066.9 secs

     total energy              =  -14924.36730666 Ry
     Harris-Foulkes estimate   =  -14924.36721701 Ry
     estimated scf accuracy    <       0.00377690 Ry

     iteration # 26     ecut=    60.00 Ry     beta= 0.50
     Davidson diagonalization with overlap
     ethr =  2.06E-07,  avg # of iterations =  4.8

     negative rho (up, down):  6.532E-01 0.000E+00

     total cpu time spent up to now is     3174.9 secs

     total energy              =  -14924.36744940 Ry
     Harris-Foulkes estimate   =  -14924.36736511 Ry
     estimated scf accuracy    <       0.00177471 Ry

     iteration # 27     ecut=    60.00 Ry     beta= 0.50
     Davidson diagonalization with overlap
     ethr =  9.70E-08,  avg # of iterations =  3.2

     negative rho (up, down):  6.520E-01 0.000E+00

     total cpu time spent up to now is     3276.1 secs

     total energy              =  -14924.36741030 Ry
     Harris-Foulkes estimate   =  -14924.36746992 Ry
     estimated scf accuracy    <       0.00114424 Ry

     iteration # 28     ecut=    60.00 Ry     beta= 0.50
     Davidson diagonalization with overlap
     ethr =  6.25E-08,  avg # of iterations =  3.0

     negative rho (up, down):  6.425E-01 0.000E+00

     total cpu time spent up to now is     3375.0 secs

     total energy              =  -14924.36723768 Ry
     Harris-Foulkes estimate   =  -14924.36742189 Ry
     estimated scf accuracy    <       0.00065036 Ry

     iteration # 29     ecut=    60.00 Ry     beta= 0.50
     Davidson diagonalization with overlap
     ethr =  3.55E-08,  avg # of iterations =  7.8

     negative rho (up, down):  6.380E-01 0.000E+00

     total cpu time spent up to now is     3491.5 secs

     total energy              =  -14924.36718728 Ry
     Harris-Foulkes estimate   =  -14924.36726816 Ry
     estimated scf accuracy    <       0.00064817 Ry

     iteration # 30     ecut=    60.00 Ry     beta= 0.50
     Davidson diagonalization with overlap
     ethr =  3.54E-08,  avg # of iterations =  2.8

     negative rho (up, down):  6.380E-01 0.000E+00

     total cpu time spent up to now is     3589.7 secs

     total energy              =  -14924.36719440 Ry
     Harris-Foulkes estimate   =  -14924.36720289 Ry
     estimated scf accuracy    <       0.00022686 Ry

     iteration # 31     ecut=    60.00 Ry     beta= 0.50
     Davidson diagonalization with overlap
     ethr =  1.24E-08,  avg # of iterations =  1.0

     negative rho (up, down):  6.386E-01 0.000E+00

     total cpu time spent up to now is     3681.7 secs

     total energy              =  -14924.36720277 Ry
     Harris-Foulkes estimate   =  -14924.36720012 Ry
     estimated scf accuracy    <       0.00006189 Ry

     iteration # 32     ecut=    60.00 Ry     beta= 0.50
     Davidson diagonalization with overlap
     ethr =  3.38E-09,  avg # of iterations =  1.8

     negative rho (up, down):  6.367E-01 0.000E+00

     total cpu time spent up to now is     3776.9 secs

     total energy              =  -14924.36719314 Ry
     Harris-Foulkes estimate   =  -14924.36720637 Ry
     estimated scf accuracy    <       0.00006437 Ry

     iteration # 33     ecut=    60.00 Ry     beta= 0.50
     Davidson diagonalization with overlap
     ethr =  3.38E-09,  avg # of iterations =  1.0

     negative rho (up, down):  6.363E-01 0.000E+00

     total cpu time spent up to now is     3871.1 secs

     total energy              =  -14924.36719128 Ry
     Harris-Foulkes estimate   =  -14924.36719536 Ry
     estimated scf accuracy    <       0.00001830 Ry

     iteration # 34     ecut=    60.00 Ry     beta= 0.50
     Davidson diagonalization with overlap
     ethr =  1.00E-09,  avg # of iterations =  2.0

     negative rho (up, down):  6.360E-01 0.000E+00

     total cpu time spent up to now is     3967.3 secs

     total energy              =  -14924.36719050 Ry
     Harris-Foulkes estimate   =  -14924.36719196 Ry
     estimated scf accuracy    <       0.00000739 Ry

     iteration # 35     ecut=    60.00 Ry     beta= 0.50
     Davidson diagonalization with overlap
     ethr =  4.04E-10,  avg # of iterations =  1.8

     negative rho (up, down):  6.355E-01 0.000E+00

     total cpu time spent up to now is     4061.7 secs

     total energy              =  -14924.36719055 Ry
     Harris-Foulkes estimate   =  -14924.36719088 Ry
     estimated scf accuracy    <       0.00000614 Ry

     iteration # 36     ecut=    60.00 Ry     beta= 0.50
     Davidson diagonalization with overlap
     ethr =  3.36E-10,  avg # of iterations =  1.5

     negative rho (up, down):  6.352E-01 0.000E+00

     total cpu time spent up to now is     4156.2 secs

     total energy              =  -14924.36719105 Ry
     Harris-Foulkes estimate   =  -14924.36719071 Ry
     estimated scf accuracy    <       0.00000161 Ry

     iteration # 37     ecut=    60.00 Ry     beta= 0.50
     Davidson diagonalization with overlap
     ethr =  8.82E-11,  avg # of iterations =  2.2

     negative rho (up, down):  6.351E-01 0.000E+00

     total cpu time spent up to now is     4252.7 secs

     total energy              =  -14924.36719112 Ry
     Harris-Foulkes estimate   =  -14924.36719113 Ry
     estimated scf accuracy    <       0.00000087 Ry

     iteration # 38     ecut=    60.00 Ry     beta= 0.50
     Davidson diagonalization with overlap
     ethr =  4.76E-11,  avg # of iterations =  1.0

     negative rho (up, down):  6.352E-01 0.000E+00

     total cpu time spent up to now is     4346.6 secs

     total energy              =  -14924.36719106 Ry
     Harris-Foulkes estimate   =  -14924.36719118 Ry
     estimated scf accuracy    <       0.00000039 Ry

     iteration # 39     ecut=    60.00 Ry     beta= 0.50
     Davidson diagonalization with overlap
     ethr =  2.14E-11,  avg # of iterations =  1.8

     negative rho (up, down):  6.351E-01 0.000E+00

     total cpu time spent up to now is     4441.4 secs

     total energy              =  -14924.36719120 Ry
     Harris-Foulkes estimate   =  -14924.36719108 Ry
     estimated scf accuracy    <       0.00000032 Ry

     iteration # 40     ecut=    60.00 Ry     beta= 0.50
     Davidson diagonalization with overlap
     ethr =  1.77E-11,  avg # of iterations =  1.0

     negative rho (up, down):  6.351E-01 0.000E+00

     total cpu time spent up to now is     4533.6 secs

     total energy              =  -14924.36719121 Ry
     Harris-Foulkes estimate   =  -14924.36719121 Ry
     estimated scf accuracy    <       0.00000012 Ry

     iteration # 41     ecut=    60.00 Ry     beta= 0.50
     Davidson diagonalization with overlap
     ethr =  6.40E-12,  avg # of iterations =  1.0

     negative rho (up, down):  6.351E-01 0.000E+00

     total cpu time spent up to now is     4627.8 secs

     total energy              =  -14924.36719119 Ry
     Harris-Foulkes estimate   =  -14924.36719121 Ry
     estimated scf accuracy    <       0.00000008 Ry

     iteration # 42     ecut=    60.00 Ry     beta= 0.50
     Davidson diagonalization with overlap
     ethr =  4.44E-12,  avg # of iterations =  1.0

     negative rho (up, down):  6.351E-01 0.000E+00

     total cpu time spent up to now is     4718.7 secs

     total energy              =  -14924.36719120 Ry
     Harris-Foulkes estimate   =  -14924.36719120 Ry
     estimated scf accuracy    <       0.00000006 Ry

     iteration # 43     ecut=    60.00 Ry     beta= 0.50
     Davidson diagonalization with overlap
     ethr =  3.53E-12,  avg # of iterations =  1.0

     negative rho (up, down):  6.351E-01 0.000E+00

     total cpu time spent up to now is     4809.0 secs

     total energy              =  -14924.36719114 Ry
     Harris-Foulkes estimate   =  -14924.36719120 Ry
     estimated scf accuracy    <       0.00000002 Ry

     iteration # 44     ecut=    60.00 Ry     beta= 0.50
     Davidson diagonalization with overlap
     ethr =  1.15E-12,  avg # of iterations =  2.0

     negative rho (up, down):  6.351E-01 0.000E+00

     total cpu time spent up to now is     4906.5 secs

     total energy              =  -14924.36719112 Ry
     Harris-Foulkes estimate   =  -14924.36719114 Ry
     estimated scf accuracy    <       0.00000002 Ry

     iteration # 45     ecut=    60.00 Ry     beta= 0.50
     Davidson diagonalization with overlap
     ethr =  1.14E-12,  avg # of iterations =  1.0

     negative rho (up, down):  6.352E-01 0.000E+00

     total cpu time spent up to now is     5000.5 secs

     End of self-consistent calculation

          k = 0.0000 0.0000 0.0000 (286677 PWs)   bands (ev):

   -38.1530 -38.1268 -38.1239 -38.1193 -38.1185 -38.1063 -38.1010 -37.8748
   -37.8247 -37.8207 -37.8154 -37.8140 -37.8065 -37.8003 -35.6925 -35.3147
   -24.1766 -23.8472 -23.8294 -23.7388 -23.7212 -23.6692 -23.6296 -23.3787
   -22.7995 -22.7757 -22.6888 -22.6838 -22.6739 -22.6699 -22.6647 -22.6544
   -22.6533 -22.6490 -22.6466 -22.6363 -22.6305 -22.6298 -22.6125 -22.6005
   -22.5803 -22.5729 -22.5504 -22.5383 -22.5265 -22.4121 -22.3966 -22.3033
   -18.7364 -18.6982 -18.6525 -18.6500 -18.6195 -18.4661 -18.4534 -18.4519
   -18.4494 -18.4453 -18.4388 -18.4367 -18.4349 -18.4262 -18.4252 -18.4221
   -18.4163 -18.4077 -18.3751 -18.3516 -18.3248 -18.2518 -18.2479 -18.2273
   -18.1805 -18.1664 -18.1627 -18.1560 -18.1417 -18.1323 -18.1292 -18.1243
   -18.1210 -18.1003 -18.0988 -18.0927 -18.0731 -17.9774 -17.9647 -17.8911
   -17.8442 -17.8302 -16.9518 -16.9230 -16.9148 -16.5641 -16.5634 -16.5414
   -15.4831 -15.2434 -14.9854 -14.9066 -14.8444 -14.8418 -14.8113 -14.8073
   -14.7970 -14.7888 -14.7815 -14.7287 -14.7096 -14.6914 -14.6837 -14.6782
   -14.6732 -14.6645 -14.6526 -14.6451 -14.6261 -14.6205 -14.6140 -14.5875
   -14.5871 -14.5841 -14.5512 -14.5469 -14.5286 -14.5271 -14.5173 -14.5050
   -14.5020 -14.4431 -14.4094 -14.4085 -14.4053 -14.4022 -14.3979 -14.3926
   -14.3895 -14.3580 -14.3573 -14.3408 -14.3343 -14.3282 -14.3058 -14.3025
   -14.3009 -14.2961 -14.2946 -14.2894 -14.2816 -14.2788 -14.2634 -14.2543
   -14.2451 -14.2241 -14.1888 -14.1857 -14.1618 -14.1592 -14.1566 -14.1425
   -14.1361 -14.1125 -14.1111 -14.1085 -14.0932 -14.0825 -14.0514 -14.0458
   -14.0450 -14.0410 -14.0405 -14.0269 -13.9991 -13.9849 -13.9741 -13.9415
   -13.9181 -13.8999 -13.8994 -13.8751 -13.8568 -13.8515 -13.8287 -13.8207
   -13.8204 -13.8118 -13.7873 -13.7864 -13.7851 -13.7850 -13.7840 -13.7838
   -13.7818 -13.7808 -13.7672 -13.7647 -13.7594 -13.7278 -13.7272 -13.7269
   -13.7233 -13.7180 -13.7160 -13.7149 -13.7003 -13.6932 -13.6672 -13.6558
   -13.6540 -13.6301 -13.6160 -13.6140 -13.5724 -13.5306 -13.4684 -13.4451
    -9.7040  -9.5561  -9.4348  -9.2071  -9.2029  -9.1861  -9.1571  -9.1379
    -9.1181  -9.0932  -9.0511  -8.9887  -8.9473  -8.8181  -8.7858  -8.7584
    -8.7347  -8.7030  -8.6927  -8.6073  -8.5719  -8.5560  -8.5376  -8.5138
    -8.4718  -8.4712  -8.4491  -8.3796  -8.2712  -8.2495  -8.2480  -8.2446
    -8.2324  -8.2254  -8.2215  -8.2209  -8.2097  -8.1981  -8.0604  -8.0512
    -8.0436  -8.0405  -8.0368  -8.0175  -8.0128  -8.0062  -8.0012  -8.0006
    -7.9859  -7.9855  -7.9748  -7.9698  -7.9669  -7.9664  -7.9637  -7.9550
    -7.9440  -7.9406  -7.9388  -7.9368  -7.9251  -7.9014  -7.8758  -7.8741
    -7.8509  -7.7975  -7.7787  -7.7751  -7.7748  -7.7567  -7.7412  -7.7335
    -7.6736  -7.6437  -7.6428  -7.6215  -7.6203  -7.6197  -7.6196  -7.6160
    -7.6074  -7.5988  -7.5933  -7.5856  -7.5660  -7.5285  -7.5076  -7.4886
    -7.4839  -7.4754  -7.4660  -7.4556  -7.4159  -7.4008  -7.3216  -7.2658
    -4.2304  -4.0771  -3.6837  -3.3247  -3.3182  -3.2155  -3.1758  -3.1754
    -3.0943  -3.0864  -3.0862  -3.0211  -3.0031  -2.9688  -2.9637  -2.9616
    -2.9568  -2.9487  -2.9090  -2.8972  -2.8951  -2.8251  -2.8205  -2.8204
    -2.7223  -2.7106  -2.7049  -2.7012  -2.6839  -2.5412  -2.4785  -2.4705
    -2.4472  -2.4006  -2.3979  -2.3942  -2.3900  -2.3667  -2.3565  -2.3459
    -2.3325  -2.3051  -2.2999  -2.2412  -2.2228  -2.2146  -2.2093  -2.2086
    -2.1890  -2.1797  -2.1709  -2.1216  -2.1176  -2.1171  -2.1068  -2.0902
    -2.0579  -2.0482  -2.0439  -2.0374  -2.0363  -2.0311  -2.0283  -2.0252
    -2.0229  -2.0201  -2.0186  -2.0186  -2.0152  -2.0115  -1.9379  -1.9240
    -1.9233  -1.9192  -1.9182  -1.9157  -1.9078  -1.8987  -1.8980  -1.8794
    -1.8754  -1.8711  -1.8697  -1.8482  -1.8475  -1.8341  -1.8326  -1.8317
    -1.8303  -1.8278  -1.8275  -1.8268  -1.8256  -1.8245  -1.8225  -1.8163
    -1.8149  -1.8147  -1.8117  -1.8007  -1.7540  -1.7519  -1.7088  -1.6904
    -1.6849  -1.6831  -1.6078  -1.5582  -1.5532  -1.5432  -1.5339  -1.5301
    -1.5226  -1.5061  -1.4855  -1.4740  -1.4715  -1.4531  -1.4342  -1.4333
    -1.4332  -1.4253  -1.4232  -1.4172  -1.4051  -1.4046  -1.3962  -1.3694
    -1.3656  -1.3607  -1.3594  -1.3535  -1.3510  -1.3277  -1.3256  -1.3197
    -1.2656  -1.2588  -1.2527  -1.2455  -1.2340  -1.2307  -1.2221  -1.2077
    -1.1903  -1.1575  -1.1152  -1.1052  -1.0788  -1.0607  -1.0602  -1.0555
    -1.0522  -1.0257  -0.9932  -0.9843  -0.9836  -0.9692  -0.9606  -0.9357
    -0.9310  -0.9176  -0.9156  -0.9147  -0.9130  -0.9055  -0.8987  -0.8974
    -0.8956  -0.8818  -0.8443  -0.8359  -0.8324  -0.8255  -0.8188  -0.8052
    -0.8028  -0.7971  -0.7970  -0.7740  -0.7681  -0.7640  -0.7633  -0.7585
    -0.7558  -0.7452  -0.7444  -0.7286  -0.7207  -0.7205  -0.6910  -0.6765
    -0.6751  -0.6698  -0.6616  -0.6483  -0.6457  -0.6444  -0.6430  -0.6383
    -0.6381  -0.6304  -0.6135  -0.6123  -0.6056  -0.5974  -0.5970  -0.5926
    -0.5847  -0.5658  -0.5656  -0.5639  -0.5264  -0.5255  -0.5177  -0.5029
    -0.4873  -0.4767  -0.4665  -0.4665  -0.4557  -0.4462  -0.4350  -0.4142
    -0.4099  -0.3964  -0.3949  -0.3804  -0.3776  -0.3464  -0.3323  -0.3264
    -0.3175  -0.3099  -0.3051  -0.2981  -0.2921  -0.2920  -0.2897  -0.2575
    -0.2520  -0.2455  -0.2451  -0.2431  -0.2296  -0.2250  -0.2238  -0.2195
    -0.2193  -0.1734  -0.1725  -0.1637  -0.1617  -0.1615  -0.1535  -0.1393
    -0.1390  -0.1260  -0.1222  -0.1097  -0.1086  -0.1014  -0.1009  -0.0949
    -0.0837  -0.0808  -0.0643  -0.0181  -0.0096  -0.0075  -0.0071  -0.0067
    -0.0021   0.0049   0.0144   0.0152   0.0315   0.0325   0.0415   0.0421
     0.0443   0.0536   0.0556   0.0791   0.0904   0.0917   0.1020   0.1158
     0.1520   0.1704   0.2009   0.2099   0.2254   0.2272   0.2495   0.2617
     0.2733   0.2796   0.2825   0.2851   0.2985   0.3026   0.3089   0.3112
     0.3211   0.3321   0.3336   0.3338   0.3397   0.3442   0.3458   0.3867
     0.3887   0.3994   0.4018   0.4184   0.4201   0.4382   0.4610   0.4628
     0.4640   0.4667   0.4671   0.4693   0.4767   0.4908   0.4984   0.4991
     0.5102   0.5132   0.5211   0.5253   0.5308   0.5554   0.5594   0.5715
     0.5763   0.5787   0.5977   0.6027   0.6067   0.6093   0.6139   0.6233
     0.6271   0.6320   0.6322   0.6357   0.6408   0.6439   0.6558   0.6754
     0.6830   0.6946   0.6954   0.6985   0.7181   0.7185   0.7264   0.7273
     0.7282   0.7329   0.7356   0.7523   0.7527   0.7559   0.7609   0.7654
     0.7894   0.7930   0.8075   0.8165   0.8174   0.8335   0.8543   0.8658
     0.8703   0.8854   0.9210   0.9357   0.9732   1.0124   1.0222   1.0422
     1.0481   1.0567   1.0631   1.0714   1.0741   1.0768   1.1026   1.1312
     1.1514   1.1553   1.1573   1.1609   1.1614   1.1629   1.1678   1.1725
     1.1736   1.1761   1.1779   1.1838   1.1945   1.2110   1.2153   1.2225
     1.2365   1.2398   1.2481   1.2530   1.2594   1.2600   1.2619   1.2773
     1.2780   1.2821   1.2885   1.2978   1.2995   1.3024   1.3034   1.3052
     1.3069   1.3080   1.3109   1.3109   1.3177   1.3193   1.3245   1.3256
     1.3278   1.3288   1.3331   1.3396   1.3450   1.3546   1.3703   1.3713
     1.3766   1.3896   1.3959   1.4193   1.4219   1.4223   1.4274   1.4276
     1.4359   1.4382   1.4465   1.4470   1.4474   1.4478   1.4493   1.4547
     1.4612   1.4651   1.4715   1.4776   1.4786   1.4787   1.4794   1.4863
     1.4902   1.4945   1.4963   1.4967   1.5068   1.5080   1.5106   1.5135
     1.5237   1.5265   1.5310   1.5320   1.5370   1.5421   1.5502   1.5626
     1.5708   1.5793   1.5868   1.5924   1.5931   1.6057   1.6165   1.6178
     1.6306   1.6386   1.6424   1.6598   1.6729   1.6765   1.6816   1.6843
     1.6867   1.7036   1.7116   1.7259   1.7472   1.7481   1.7495   1.7537
     1.7675   1.7702   1.7777   1.7955   1.7966   1.7979   1.8004   1.8064
     1.8070   1.8072   1.8416   1.8521   1.8687   1.8711   1.8771   1.8828
     1.8842   1.8896   1.8920   1.8937   1.8950   1.9032   1.9052   1.9200
     1.9344   1.9345   1.9356   1.9380   1.9417   1.9474   1.9631   1.9638
     1.9795   1.9798   1.9887   1.9933   1.9939   1.9944   2.0002   2.0028
     2.0092   2.0138   2.0262   2.0479   2.0486   2.0570   2.0800   2.0851
     2.0879   2.0893   2.0913   2.0948   2.0956   2.0972   2.1019   2.1153
     2.1166   2.1233   2.1243   2.1344   2.1352   2.1454   2.1614   2.1943
     2.2064   2.2167   2.2227   2.2310   2.2423   2.2680   2.2714   2.2731
     2.2977   2.3124   2.3172   2.3278   2.3452   2.3900   2.4149   2.4159
     2.4619   2.4622   2.4688   2.4722   2.4848   2.4859   2.4967   2.5177
     2.6028   2.6051   2.6062   2.6066   2.6220   2.6291   2.7753   2.7753
     2.8912   2.9065   2.9291   2.9339   3.0462   3.0539   3.1854   3.1929
     3.1930   3.1977   3.1994   3.2003   3.2033   3.2059   3.3009   3.3327
     3.3435   3.3465   3.3503   3.3848   3.3924   3.4020   3.4773   3.4944
     3.5305   3.5398   3.5426   3.5957   3.6706   3.7010   3.7089   3.7167
     3.7223   3.7366   4.2044   4.3113   4.7028   4.7506   4.7957   4.8258
     4.9877   5.0047   5.2366   5.2663   5.5097   5.6604   5.7981   5.8103
     5.8302   5.8352   5.9042   5.9327   6.1325   6.2142   6.3044   6.3102
     6.3519   6.3523   6.3951   6.4073   6.4823   6.5363   6.5974   6.6453
     6.6520   6.6541   6.6562   6.6574   6.6631   6.6650   6.6655   6.6671
     6.7020   6.8466   7.0598   7.0886   7.1108   7.1456   7.1559   7.1829
     7.1979   7.2181   7.2402   7.2680   7.2762   7.2785   7.3112   7.3191
     7.3211   7.3310   7.3814   7.3834   7.3988   7.4091   7.5931   7.5955
     7.6034   7.6083   7.6381   7.6951   7.7382   7.8333   7.8695   7.8782
     7.8854   7.8988   7.9034   7.9102   7.9192   7.9276   7.9850   7.9943
     8.0840   8.0942   8.1119   8.1255   8.1601   8.1682   8.1957   8.2423
     8.2480   8.3005   8.3020   8.3081   8.3103   8.3192   8.3204   8.3271
     8.3279   8.3343   8.3480   8.3570   8.4059   8.4747   8.4963   8.5064
     8.5431   8.5780   8.6087   8.6135   8.6174   8.6257   8.6398   8.6683
     8.7067   8.7400   8.7456   8.7573   8.7664   8.8009   8.8100   8.8389
     8.8514   8.8535   8.8784   8.8805   8.8847   8.9096   8.9109   8.9210
     8.9230   8.9509   8.9573   8.9621   8.9621   8.9671   8.9699   8.9728
     9.0190   9.0204   9.0421   9.0503   9.0623   9.0656   9.0706   9.1042
     9.1129   9.1231   9.1360   9.1533   9.1562   9.1655   9.1694   9.1877
     9.1935   9.2053

          k = 0.2326 0.2390 0.0000 (286675 PWs)   bands (ev):

   -38.1530 -38.1262 -38.1246 -38.1193 -38.1187 -38.1047 -38.1021 -37.8748
   -37.8238 -37.8218 -37.8153 -37.8147 -37.8045 -37.8015 -35.6925 -35.3147
   -24.1764 -23.8444 -23.8322 -23.7370 -23.7293 -23.6560 -23.6368 -23.3788
   -22.7813 -22.7574 -22.7331 -22.7092 -22.6783 -22.6744 -22.6719 -22.6538
   -22.6508 -22.6493 -22.6405 -22.6269 -22.6256 -22.6168 -22.6050 -22.5811
   -22.5777 -22.5647 -22.5595 -22.5418 -22.5407 -22.4124 -22.3923 -22.3052
   -18.7017 -18.6666 -18.6500 -18.6258 -18.6179 -18.5985 -18.5657 -18.5346
   -18.4541 -18.4462 -18.4294 -18.4277 -18.4153 -18.4139 -18.3913 -18.3725
   -18.3487 -18.3367 -18.3115 -18.3025 -18.3011 -18.2866 -18.2852 -18.2510
   -18.2469 -18.2389 -18.2042 -18.1749 -18.1685 -18.1644 -18.1443 -18.1218
   -18.0908 -18.0790 -18.0158 -18.0017 -17.9989 -17.9716 -17.9567 -17.9155
   -17.8901 -17.8785 -16.9520 -16.9248 -16.9163 -16.5663 -16.5645 -16.5416
   -15.3826 -15.1504 -15.1137 -14.9392 -14.9106 -14.8646 -14.8329 -14.8111
   -14.8001 -14.7972 -14.7844 -14.7560 -14.7201 -14.7199 -14.7048 -14.6996
   -14.6877 -14.6767 -14.6520 -14.6294 -14.6128 -14.5911 -14.5801 -14.5492
   -14.5481 -14.5365 -14.5209 -14.5075 -14.5072 -14.4992 -14.4960 -14.4849
   -14.4815 -14.4578 -14.4315 -14.4256 -14.4175 -14.4132 -14.4093 -14.3881
   -14.3835 -14.3734 -14.3705 -14.3651 -14.3602 -14.3478 -14.3462 -14.3336
   -14.3171 -14.3107 -14.2972 -14.2847 -14.2636 -14.2464 -14.2412 -14.2372
   -14.2301 -14.1921 -14.1873 -14.1804 -14.1608 -14.1587 -14.1473 -14.1374
   -14.1300 -14.1257 -14.1164 -14.1097 -14.1091 -14.0846 -14.0830 -14.0781
   -14.0376 -14.0179 -14.0152 -14.0017 -13.9733 -13.9594 -13.9552 -13.9182
   -13.9143 -13.8961 -13.8916 -13.8869 -13.8664 -13.8338 -13.8284 -13.8259
   -13.8211 -13.8194 -13.8121 -13.8104 -13.8065 -13.7957 -13.7939 -13.7923
   -13.7759 -13.7696 -13.7688 -13.7474 -13.7472 -13.7404 -13.7388 -13.7319
   -13.7317 -13.7197 -13.7197 -13.7016 -13.6962 -13.6810 -13.6694 -13.6625
   -13.6514 -13.6393 -13.6319 -13.6140 -13.5820 -13.5722 -13.4856 -13.4500
    -9.6127  -9.5590  -9.3817  -9.3102  -9.2093  -9.1932  -9.1085  -9.0953
    -9.0612  -9.0115  -8.9761  -8.9650  -8.9408  -8.9115  -8.8363  -8.7429
    -8.6957  -8.6511  -8.6321  -8.6276  -8.6216  -8.5668  -8.5344  -8.4986
    -8.4549  -8.4510  -8.4318  -8.3914  -8.3516  -8.3294  -8.2896  -8.2520
    -8.1458  -8.1433  -8.1203  -8.0874  -8.0636  -8.0405  -8.0376  -8.0313
    -8.0150  -8.0135  -8.0115  -8.0024  -7.9958  -7.9895  -7.9871  -7.9866
    -7.9823  -7.9711  -7.9660  -7.9634  -7.9613  -7.9594  -7.9561  -7.9533
    -7.9453  -7.9449  -7.9428  -7.9390  -7.9311  -7.9205  -7.9141  -7.9129
    -7.8873  -7.8719  -7.8371  -7.8170  -7.8143  -7.8103  -7.7957  -7.7699
    -7.7426  -7.7255  -7.7029  -7.6854  -7.6767  -7.6625  -7.6463  -7.6369
    -7.6140  -7.5996  -7.5767  -7.5754  -7.5578  -7.5567  -7.5525  -7.5466
    -7.5350  -7.5238  -7.5096  -7.4684  -7.4362  -7.3856  -7.3607  -7.3065
    -4.0697  -3.9189  -3.6357  -3.5384  -3.4926  -3.2270  -3.1796  -3.1740
    -3.1593  -3.1439  -3.1402  -3.0792  -3.0502  -3.0176  -2.9918  -2.9348
    -2.9248  -2.9047  -2.9017  -2.8060  -2.8018  -2.7946  -2.7889  -2.7846
    -2.7841  -2.7217  -2.7176  -2.7176  -2.6398  -2.5367  -2.5172  -2.4630
    -2.4607  -2.4541  -2.4400  -2.4361  -2.4266  -2.4238  -2.4218  -2.4140
    -2.3686  -2.3509  -2.3418  -2.3148  -2.2807  -2.2529  -2.1978  -2.1862
    -2.1368  -2.1315  -2.1214  -2.1137  -2.0869  -2.0749  -2.0640  -2.0611
    -2.0574  -2.0526  -2.0394  -2.0357  -2.0245  -2.0190  -2.0109  -2.0033
    -1.9940  -1.9714  -1.9686  -1.9653  -1.9508  -1.9447  -1.9419  -1.9279
    -1.9277  -1.9208  -1.9199  -1.9178  -1.9154  -1.9142  -1.9085  -1.9064
    -1.9028  -1.8948  -1.8901  -1.8820  -1.8786  -1.8727  -1.8677  -1.8421
    -1.8413  -1.8315  -1.8298  -1.8207  -1.8116  -1.8096  -1.7956  -1.7803
    -1.7716  -1.7441  -1.7357  -1.7211  -1.7083  -1.6852  -1.6812  -1.6701
    -1.6597  -1.6288  -1.6150  -1.6103  -1.6051  -1.5760  -1.5687  -1.5502
    -1.5432  -1.5275  -1.5091  -1.4826  -1.4737  -1.4602  -1.4517  -1.4420
    -1.4202  -1.4156  -1.4134  -1.4066  -1.4006  -1.3883  -1.3857  -1.3698
    -1.3546  -1.3463  -1.3438  -1.3411  -1.3349  -1.3218  -1.3200  -1.3040
    -1.2841  -1.2750  -1.2320  -1.2267  -1.2047  -1.1710  -1.1676  -1.1459
    -1.1258  -1.1205  -1.1128  -1.0848  -1.0695  -1.0685  -1.0660  -1.0327
    -1.0028  -0.9936  -0.9894  -0.9800  -0.9594  -0.9433  -0.9322  -0.9293
    -0.9145  -0.9098  -0.9092  -0.9070  -0.8792  -0.8691  -0.8583  -0.8418
    -0.8322  -0.8285  -0.8251  -0.8251  -0.8224  -0.8199  -0.8177  -0.8165
    -0.8147  -0.8103  -0.8043  -0.8032  -0.7926  -0.7742  -0.7627  -0.7503
    -0.7450  -0.7412  -0.7250  -0.7232  -0.7192  -0.7085  -0.6942  -0.6914
    -0.6782  -0.6687  -0.6655  -0.6578  -0.6541  -0.6493  -0.6389  -0.6359
    -0.6208  -0.6142  -0.6137  -0.6112  -0.5957  -0.5724  -0.5709  -0.5629
    -0.5532  -0.5506  -0.5478  -0.5469  -0.5422  -0.5203  -0.5171  -0.4991
    -0.4861  -0.4758  -0.4515  -0.4503  -0.4474  -0.4440  -0.4400  -0.4342
    -0.4287  -0.4264  -0.4222  -0.4101  -0.4000  -0.3974  -0.3923  -0.3831
    -0.3745  -0.3612  -0.3523  -0.3450  -0.3341  -0.3322  -0.3249  -0.3195
    -0.3102  -0.3011  -0.2991  -0.2932  -0.2831  -0.2575  -0.2464  -0.2396
    -0.2053  -0.1975  -0.1858  -0.1806  -0.1719  -0.1659  -0.1427  -0.1414
    -0.1278  -0.1241  -0.0888  -0.0865  -0.0716  -0.0666  -0.0588  -0.0450
    -0.0336  -0.0206  -0.0056  -0.0012   0.0042   0.0095   0.0139   0.0180
     0.0192   0.0347   0.0390   0.0488   0.0668   0.0766   0.0937   0.0966
     0.1012   0.1237   0.1420   0.1450   0.1553   0.1628   0.1835   0.1843
     0.1950   0.2092   0.2168   0.2334   0.2526   0.2645   0.2725   0.2741
     0.2849   0.2950   0.3024   0.3099   0.3136   0.3165   0.3185   0.3345
     0.3467   0.3544   0.3603   0.3642   0.3761   0.3803   0.3983   0.3987
     0.4042   0.4047   0.4121   0.4166   0.4198   0.4283   0.4342   0.4370
     0.4439   0.4456   0.4521   0.4542   0.4639   0.4660   0.4872   0.4885
     0.4925   0.4981   0.5126   0.5133   0.5246   0.5272   0.5402   0.5507
     0.5533   0.5671   0.5720   0.5804   0.5817   0.5834   0.5879   0.5965
     0.5983   0.6003   0.6018   0.6165   0.6237   0.6312   0.6345   0.6373
     0.6416   0.6620   0.6722   0.6958   0.6994   0.7030   0.7209   0.7242
     0.7315   0.7398   0.7450   0.7574   0.7717   0.7767   0.7781   0.7910
     0.8025   0.8104   0.8513   0.8540   0.8856   0.9117   0.9122   0.9153
     0.9285   0.9384   0.9439   0.9529   0.9574   0.9650   0.9660   0.9753
     0.9921   0.9950   1.0140   1.0164   1.0251   1.0535   1.0589   1.0689
     1.0736   1.0811   1.0923   1.1040   1.1165   1.1231   1.1349   1.1405
     1.1448   1.1473   1.1558   1.1585   1.1607   1.1712   1.1716   1.1776
     1.1820   1.1824   1.1883   1.1907   1.2038   1.2151   1.2271   1.2353
     1.2377   1.2557   1.2656   1.2668   1.2731   1.2753   1.2817   1.2881
     1.2918   1.2928   1.2975   1.3089   1.3167   1.3193   1.3277   1.3311
     1.3364   1.3389   1.3402   1.3538   1.3549   1.3616   1.3653   1.3716
     1.3766   1.3806   1.3853   1.3910   1.3963   1.3985   1.3995   1.4018
     1.4101   1.4146   1.4229   1.4333   1.4369   1.4394   1.4420   1.4478
     1.4501   1.4586   1.4679   1.4699   1.4771   1.4800   1.4812   1.4943
     1.4980   1.5012   1.5224   1.5228   1.5278   1.5286   1.5351   1.5483
     1.5489   1.5601   1.5649   1.5683   1.5714   1.5774   1.5815   1.5870
     1.5892   1.5969   1.6101   1.6111   1.6204   1.6272   1.6306   1.6312
     1.6366   1.6400   1.6470   1.6508   1.6647   1.6740   1.6876   1.6891
     1.6994   1.7082   1.7134   1.7231   1.7298   1.7365   1.7423   1.7460
     1.7537   1.7674   1.7712   1.7754   1.7825   1.7913   1.7970   1.8031
     1.8165   1.8175   1.8225   1.8264   1.8272   1.8363   1.8470   1.8476
     1.8528   1.8546   1.8592   1.8654   1.8698   1.8731   1.8790   1.8825
     1.8843   1.8860   1.8992   1.9013   1.9083   1.9227   1.9335   1.9432
     1.9459   1.9467   1.9607   1.9637   1.9697   1.9738   2.0004   2.0100
     2.0114   2.0160   2.0259   2.0379   2.0384   2.0536   2.0625   2.0652
     2.0676   2.0826   2.0900   2.1140   2.1153   2.1285   2.1481   2.1521
     2.1637   2.1893   2.1926   2.1999   2.2106   2.2185   2.2221   2.2413
     2.2452   2.2729   2.2878   2.2929   2.3010   2.3289   2.3317   2.3336
     2.3350   2.3438   2.3832   2.3872   2.4108   2.4174   2.4412   2.4446
     2.4457   2.5238   2.5250   2.5465   2.5652   2.5827   2.6733   2.6784
     2.6895   2.6897   2.6974   2.7238   2.7438   2.7888   2.7936   2.7939
     2.8111   2.8627   2.9080   2.9739   3.0120   3.0345   3.0366   3.0410
     3.0429   3.0511   3.0585   3.0595   3.0725   3.1178   3.1280   3.1382
     3.1482   3.1525   3.1690   3.1704   3.1774   3.1951   3.2059   3.2074
     3.3158   3.3698   3.4232   3.5107   3.9411   3.9843   4.0080   4.0416
     4.1215   4.1720   4.2430   4.2899   4.5345   4.5777   4.6172   4.7850
     4.8812   5.1746   5.3255   5.4881   5.5058   5.6360   5.7332   5.8673
     5.9599   6.0325   6.0437   6.0468   6.0852   6.0887   6.1502   6.1982
     6.2529   6.2808   6.3966   6.4128   6.4446   6.4840   6.5360   6.5528
     6.5677   6.5759   6.5896   6.6092   6.6664   6.6904   6.7266   6.8293
     6.8372   6.8851   6.9061   6.9416   6.9437   6.9957   7.0365   7.0551
     7.0621   7.1057   7.1884   7.2097   7.2192   7.2599   7.3282   7.3664
     7.4009   7.4351   7.4559   7.4985   7.5414   7.5586   7.5892   7.5974
     7.6188   7.6214   7.6519   7.6921   7.7302   7.7632   7.7951   7.8302
     7.8322   7.8936   7.9015   7.9103   7.9319   7.9360   7.9431   7.9778
     7.9977   8.0111   8.0228   8.0790   8.0923   8.1131   8.1308   8.1342
     8.1533   8.2079   8.2130   8.2190   8.2322   8.2460   8.2900   8.3028
     8.3699   8.4314   8.4448   8.4603   8.4856   8.4919   8.5120   8.5227
     8.5539   8.5987   8.6185   8.6503   8.6610   8.6672   8.6819   8.6928
     8.7041   8.7210   8.7319   8.7622   8.7648   8.7836   8.7882   8.8165
     8.8281   8.8354   8.8584   8.8835   8.8926   8.8992   8.9116   8.9247
     8.9423   8.9584   8.9749   8.9870   9.0019   9.0124   9.0360   9.0398
     9.0481   9.0589   9.0739   9.1063   9.1128   9.1166   9.1429   9.1650
     9.1777   9.1849   9.2003   9.2075   9.2293   9.2388   9.2496   9.2780
     9.2954   9.2993

          k = 0.0000 0.4779 0.0000 (286577 PWs)   bands (ev):

   -38.1530 -38.1263 -38.1245 -38.1204 -38.1177 -38.1038 -38.1030 -37.8748
   -37.8236 -37.8219 -37.8166 -37.8136 -37.8036 -37.8023 -35.6925 -35.3147
   -24.1762 -23.8471 -23.8270 -23.7516 -23.7173 -23.6551 -23.6376 -23.3787
   -22.7620 -22.7381 -22.7322 -22.7217 -22.7083 -22.6976 -22.6854 -22.6623
   -22.6615 -22.6357 -22.6323 -22.6118 -22.6082 -22.6017 -22.5905 -22.5844
   -22.5797 -22.5778 -22.5604 -22.5557 -22.5339 -22.4097 -22.3928 -22.3057
   -18.6972 -18.6921 -18.6560 -18.6251 -18.5999 -18.5972 -18.5463 -18.5091
   -18.4525 -18.4460 -18.4368 -18.4305 -18.4154 -18.4115 -18.4092 -18.3796
   -18.3600 -18.3581 -18.3154 -18.3096 -18.2975 -18.2763 -18.2737 -18.2511
   -18.2392 -18.2144 -18.1851 -18.1701 -18.1700 -18.1538 -18.1533 -18.1306
   -18.1297 -18.0932 -18.0302 -18.0067 -17.9817 -17.9747 -17.9563 -17.9382
   -17.8794 -17.8447 -16.9519 -16.9250 -16.9152 -16.5660 -16.5638 -16.5415
   -15.3043 -15.0933 -15.0819 -15.0381 -14.9224 -14.8942 -14.8890 -14.8603
   -14.8541 -14.8307 -14.7843 -14.7661 -14.7483 -14.7140 -14.6921 -14.6845
   -14.6683 -14.6666 -14.6470 -14.6315 -14.5759 -14.5642 -14.5628 -14.5548
   -14.5307 -14.5242 -14.5119 -14.5050 -14.4958 -14.4943 -14.4817 -14.4814
   -14.4718 -14.4618 -14.4471 -14.4439 -14.4409 -14.4122 -14.3807 -14.3807
   -14.3674 -14.3652 -14.3649 -14.3583 -14.3436 -14.3413 -14.3248 -14.3184
   -14.3159 -14.2937 -14.2906 -14.2862 -14.2782 -14.2736 -14.2440 -14.2307
   -14.2234 -14.2227 -14.2002 -14.1990 -14.1780 -14.1638 -14.1460 -14.1319
   -14.1291 -14.1027 -14.0973 -14.0945 -14.0857 -14.0739 -14.0668 -14.0637
   -14.0510 -14.0366 -14.0310 -14.0233 -13.9913 -13.9876 -13.9627 -13.9189
   -13.9043 -13.8821 -13.8512 -13.8498 -13.8402 -13.8372 -13.8351 -13.8308
   -13.8280 -13.8247 -13.8218 -13.8199 -13.8198 -13.8141 -13.7921 -13.7823
   -13.7809 -13.7793 -13.7751 -13.7518 -13.7389 -13.7378 -13.7371 -13.7328
   -13.7316 -13.7260 -13.7258 -13.7137 -13.7007 -13.6882 -13.6699 -13.6621
   -13.6429 -13.6397 -13.6307 -13.6284 -13.6148 -13.5859 -13.5041 -13.4538
    -9.5640  -9.4891  -9.3189  -9.2753  -9.2046  -9.1908  -9.1704  -9.1084
    -9.0807  -8.9943  -8.9750  -8.9432  -8.9248  -8.8268  -8.8018  -8.7838
    -8.7303  -8.6933  -8.6504  -8.5972  -8.5883  -8.5288  -8.4928  -8.4692
    -8.4036  -8.3511  -8.3411  -8.3280  -8.3179  -8.3102  -8.3044  -8.2679
    -8.2458  -8.1659  -8.1523  -8.0674  -8.0474  -8.0377  -8.0329  -8.0236
    -8.0210  -8.0107  -8.0079  -7.9998  -7.9995  -7.9871  -7.9801  -7.9786
    -7.9719  -7.9553  -7.9532  -7.9528  -7.9479  -7.9413  -7.9347  -7.9307
    -7.9286  -7.9227  -7.9222  -7.9171  -7.8979  -7.8659  -7.8489  -7.8430
    -7.8419  -7.8372  -7.8356  -7.8257  -7.8199  -7.8153  -7.8123  -7.8099
    -7.7965  -7.7911  -7.7902  -7.7680  -7.7600  -7.7272  -7.7251  -7.7027
    -7.6880  -7.6812  -7.6696  -7.6211  -7.6029  -7.5713  -7.5516  -7.5510
    -7.5503  -7.5486  -7.5439  -7.5284  -7.5210  -7.3938  -7.3563  -7.3152
    -3.9034  -3.7536  -3.6199  -3.5622  -3.4948  -3.4435  -3.3912  -3.2444
    -3.2060  -3.2003  -3.1437  -3.0963  -3.0904  -3.0304  -2.9735  -2.9458
    -2.9104  -2.9098  -2.8533  -2.8190  -2.7816  -2.7523  -2.7518  -2.7489
    -2.7471  -2.7227  -2.5961  -2.5850  -2.5818  -2.5321  -2.5201  -2.4811
    -2.4794  -2.4592  -2.4429  -2.4396  -2.4115  -2.4048  -2.4048  -2.3849
    -2.3774  -2.3273  -2.3202  -2.2905  -2.2547  -2.2404  -2.2271  -2.2050
    -2.1983  -2.1431  -2.1344  -2.0961  -2.0933  -2.0901  -2.0638  -2.0423
    -2.0403  -2.0387  -2.0189  -1.9961  -1.9880  -1.9838  -1.9698  -1.9639
    -1.9637  -1.9595  -1.9496  -1.9460  -1.9402  -1.9387  -1.9378  -1.9376
    -1.9303  -1.9286  -1.9240  -1.9198  -1.9190  -1.9135  -1.9131  -1.9060
    -1.9048  -1.8983  -1.8939  -1.8883  -1.8807  -1.8704  -1.8696  -1.8612
    -1.8586  -1.8362  -1.8344  -1.8344  -1.8244  -1.8195  -1.8181  -1.7880
    -1.7879  -1.7866  -1.7802  -1.7772  -1.7697  -1.7570  -1.7272  -1.7180
    -1.7032  -1.6610  -1.6549  -1.6513  -1.6337  -1.6102  -1.6076  -1.5916
    -1.5908  -1.5779  -1.5756  -1.5637  -1.5622  -1.5272  -1.5108  -1.4749
    -1.4615  -1.4502  -1.4483  -1.4473  -1.4367  -1.4133  -1.4014  -1.3952
    -1.3846  -1.3674  -1.3607  -1.3535  -1.3532  -1.3527  -1.3397  -1.3388
    -1.3071  -1.2903  -1.2434  -1.2202  -1.2089  -1.1921  -1.1099  -1.1018
    -1.0612  -1.0500  -1.0008  -1.0003  -0.9969  -0.9802  -0.9565  -0.9549
    -0.9528  -0.9363  -0.9322  -0.9258  -0.9255  -0.9245  -0.9228  -0.8936
    -0.8755  -0.8582  -0.8431  -0.8400  -0.8359  -0.8243  -0.8176  -0.8155
    -0.8139  -0.8121  -0.7975  -0.7905  -0.7883  -0.7786  -0.7772  -0.7619
    -0.7448  -0.7429  -0.7394  -0.7369  -0.7308  -0.7249  -0.7211  -0.7192
    -0.7160  -0.7107  -0.6825  -0.6809  -0.6787  -0.6702  -0.6682  -0.6642
    -0.6635  -0.6556  -0.6476  -0.6421  -0.6351  -0.6265  -0.6171  -0.6160
    -0.6053  -0.5868  -0.5855  -0.5783  -0.5717  -0.5675  -0.5644  -0.5430
    -0.5399  -0.5378  -0.5205  -0.5122  -0.5087  -0.5038  -0.4947  -0.4891
    -0.4783  -0.4642  -0.4621  -0.4575  -0.4569  -0.4518  -0.4474  -0.4427
    -0.4309  -0.4274  -0.4169  -0.4100  -0.4039  -0.4000  -0.3952  -0.3889
    -0.3875  -0.3852  -0.3555  -0.3550  -0.3331  -0.3241  -0.3105  -0.3102
    -0.3077  -0.3021  -0.3009  -0.2868  -0.2618  -0.2582  -0.2546  -0.2493
    -0.2486  -0.2468  -0.2434  -0.2290  -0.2199  -0.2137  -0.2062  -0.1895
    -0.1841  -0.1597  -0.1464  -0.1441  -0.1265  -0.0882  -0.0647  -0.0600
    -0.0552  -0.0498  -0.0488  -0.0278  -0.0204  -0.0169  -0.0096   0.0121
     0.0222   0.0313   0.0399   0.0494   0.0663   0.0898   0.0905   0.0929
     0.0988   0.1196   0.1197   0.1382   0.1839   0.1940   0.2063   0.2315
     0.2355   0.2366   0.2390   0.2536   0.2655   0.2659   0.2705   0.2833
     0.2838   0.2907   0.2926   0.2954   0.3019   0.3022   0.3057   0.3126
     0.3287   0.3394   0.3407   0.3468   0.3580   0.3809   0.3848   0.3885
     0.3933   0.4188   0.4221   0.4234   0.4294   0.4403   0.4443   0.4496
     0.4506   0.4566   0.4579   0.4612   0.4852   0.4868   0.4966   0.4967
     0.5018   0.5027   0.5159   0.5214   0.5318   0.5565   0.5612   0.5711
     0.5727   0.5738   0.5759   0.5796   0.5813   0.5852   0.6085   0.6212
     0.6273   0.6412   0.6461   0.6465   0.6488   0.6536   0.6555   0.6558
     0.6589   0.6591   0.6721   0.7218   0.7248   0.7384   0.7658   0.7678
     0.7773   0.7789   0.7827   0.7844   0.7934   0.8123   0.8267   0.8342
     0.8370   0.8393   0.8467   0.8551   0.8660   0.8817   0.8896   0.8940
     0.8941   0.9096   0.9129   0.9270   0.9389   0.9419   0.9503   0.9714
     0.9771   0.9816   0.9836   0.9945   1.0148   1.0381   1.0385   1.0397
     1.0782   1.0789   1.0922   1.0981   1.1006   1.1275   1.1341   1.1373
     1.1498   1.1520   1.1567   1.1640   1.1672   1.1718   1.1751   1.1770
     1.1798   1.1853   1.1916   1.1929   1.1974   1.2019   1.2090   1.2227
     1.2425   1.2531   1.2577   1.2634   1.2711   1.2734   1.2784   1.2835
     1.2891   1.2957   1.2983   1.2986   1.3030   1.3043   1.3085   1.3180
     1.3270   1.3321   1.3400   1.3468   1.3663   1.3702   1.3706   1.3748
     1.3790   1.3882   1.3971   1.4018   1.4021   1.4202   1.4233   1.4284
     1.4289   1.4325   1.4385   1.4466   1.4499   1.4519   1.4577   1.4602
     1.4767   1.4774   1.4858   1.4874   1.5072   1.5123   1.5167   1.5170
     1.5207   1.5222   1.5283   1.5339   1.5449   1.5492   1.5594   1.5657
     1.5676   1.5695   1.5709   1.5819   1.5895   1.5955   1.5964   1.5976
     1.6018   1.6019   1.6071   1.6221   1.6245   1.6258   1.6345   1.6364
     1.6366   1.6367   1.6396   1.6524   1.6552   1.6575   1.6639   1.6670
     1.6756   1.6831   1.6906   1.6920   1.6971   1.7029   1.7133   1.7150
     1.7269   1.7301   1.7334   1.7336   1.7383   1.7455   1.7546   1.7562
     1.7678   1.7712   1.7746   1.7786   1.7895   1.7960   1.8064   1.8089
     1.8139   1.8427   1.8503   1.8515   1.8667   1.8723   1.8954   1.8961
     1.9058   1.9064   1.9082   1.9134   1.9152   1.9190   1.9224   1.9274
     1.9309   1.9412   1.9452   1.9486   1.9508   1.9615   1.9691   1.9733
     1.9736   1.9973   1.9998   2.0027   2.0213   2.0240   2.0334   2.0416
     2.0666   2.0809   2.0897   2.1014   2.1017   2.1239   2.1280   2.1372
     2.1380   2.1542   2.1582   2.1646   2.1771   2.1822   2.1849   2.1930
     2.1987   2.2433   2.2469   2.2486   2.2600   2.2742   2.2757   2.2826
     2.2895   2.3080   2.3110   2.3138   2.3181   2.3213   2.4590   2.4685
     2.4827   2.4944   2.4966   2.5061   2.5350   2.5692   2.5763   2.6122
     2.6124   2.6131   2.6132   2.6460   2.7033   2.7203   2.7678   2.7875
     2.8580   2.8647   2.9036   2.9198   2.9652   2.9933   3.0416   3.0502
     3.0506   3.0514   3.0546   3.0576   3.0655   3.0669   3.1605   3.1653
     3.1681   3.2097   3.2224   3.2289   3.2372   3.2689   3.4552   3.5674
     3.6470   3.6625   3.7061   3.7237   3.8267   3.8346   3.9675   3.9847
     3.9922   3.9996   4.1825   4.2336   4.3444   4.3827   4.4334   4.6005
     5.0515   5.2830   5.4051   5.4692   5.8023   5.8456   5.8733   5.8765
     5.8821   5.9949   5.9976   6.0008   6.0023   6.0063   6.1033   6.2159
     6.2283   6.2747   6.3174   6.3188   6.4713   6.4763   6.5582   6.6175
     6.6417   6.6779   6.7052   6.7630   6.7751   6.8049   6.8074   6.8234
     6.8318   6.8538   6.9423   6.9554   6.9771   6.9786   6.9988   7.0383
     7.0880   7.1069   7.1229   7.1379   7.1499   7.1601   7.1726   7.1733
     7.2073   7.2427   7.2772   7.3206   7.3545   7.3728   7.4338   7.4667
     7.5394   7.6072   7.6345   7.6538   7.6618   7.6795   7.6965   7.7867
     7.8425   7.8903   7.9006   7.9067   7.9199   7.9276   7.9299   7.9829
     8.0143   8.0348   8.0831   8.1143   8.1432   8.1457   8.1595   8.1658
     8.2112   8.2517   8.2591   8.2860   8.3085   8.3127   8.3472   8.3610
     8.3841   8.3906   8.4097   8.4276   8.4916   8.5026   8.5197   8.5291
     8.5308   8.5413   8.5533   8.5791   8.6221   8.6502   8.6865   8.7231
     8.7243   8.7702   8.7811   8.7894   8.7936   8.7983   8.8168   8.8326
     8.8373   8.8698   8.8713   8.9017   8.9064   8.9149   8.9170   8.9597
     8.9655   8.9840   8.9979   9.0047   9.0259   9.0460   9.0624   9.0924
     9.1278   9.1371   9.1538   9.1601   9.1717   9.1993   9.2062   9.2362
     9.2502   9.2596   9.2686   9.2736   9.3209   9.3326   9.3382   9.3490
     9.3530   9.3607

          k =-0.4652-0.0000 0.0000 (286584 PWs)   bands (ev):

   -38.1530 -38.1270 -38.1235 -38.1204 -38.1180 -38.1043 -38.1025 -37.8748
   -37.8245 -37.8205 -37.8168 -37.8141 -37.8038 -37.8020 -35.6925 -35.3147
   -24.1762 -23.8422 -23.8333 -23.7525 -23.7076 -23.6700 -23.6301 -23.3787
   -22.7681 -22.7442 -22.7222 -22.7107 -22.7027 -22.6983 -22.6865 -22.6790
   -22.6621 -22.6344 -22.6197 -22.6176 -22.6125 -22.5958 -22.5939 -22.5896
   -22.5886 -22.5731 -22.5545 -22.5491 -22.5379 -22.4169 -22.3862 -22.3061
   -18.7329 -18.6600 -18.6541 -18.6279 -18.6051 -18.5664 -18.5292 -18.5176
   -18.4636 -18.4559 -18.4454 -18.4357 -18.4343 -18.4273 -18.3827 -18.3768
   -18.3611 -18.3531 -18.3283 -18.2923 -18.2884 -18.2804 -18.2672 -18.2478
   -18.2427 -18.2002 -18.1949 -18.1744 -18.1719 -18.1629 -18.1531 -18.1368
   -18.1213 -18.0959 -18.0240 -18.0100 -17.9909 -17.9682 -17.9643 -17.9320
   -17.8901 -17.8305 -16.9519 -16.9234 -16.9166 -16.5652 -16.5645 -16.5415
   -15.2978 -15.1100 -15.0719 -15.0395 -14.9199 -14.9133 -14.9103 -14.8605
   -14.8372 -14.7908 -14.7719 -14.7691 -14.7423 -14.7114 -14.6832 -14.6628
   -14.6507 -14.6416 -14.6397 -14.6285 -14.6247 -14.6115 -14.5906 -14.5845
   -14.5654 -14.5638 -14.5542 -14.5353 -14.5098 -14.4838 -14.4792 -14.4654
   -14.4340 -14.4277 -14.4244 -14.4110 -14.4057 -14.3936 -14.3892 -14.3848
   -14.3815 -14.3801 -14.3791 -14.3630 -14.3351 -14.3319 -14.3208 -14.3031
   -14.2937 -14.2830 -14.2758 -14.2713 -14.2628 -14.2389 -14.2369 -14.2350
   -14.2220 -14.2067 -14.2034 -14.1948 -14.1907 -14.1849 -14.1736 -14.1527
   -14.1482 -14.1331 -14.1306 -14.1117 -14.1032 -14.0738 -14.0652 -14.0605
   -14.0452 -14.0314 -14.0223 -13.9945 -13.9825 -13.9719 -13.9512 -13.9097
   -13.8875 -13.8720 -13.8704 -13.8694 -13.8645 -13.8454 -13.8326 -13.8280
   -13.8275 -13.8273 -13.8114 -13.8107 -13.8093 -13.8085 -13.7916 -13.7630
   -13.7624 -13.7618 -13.7599 -13.7579 -13.7565 -13.7561 -13.7536 -13.7330
   -13.7249 -13.7245 -13.7215 -13.7182 -13.7182 -13.6984 -13.6904 -13.6808
   -13.6698 -13.6350 -13.6299 -13.6223 -13.5858 -13.5769 -13.4996 -13.4526
    -9.5627  -9.5163  -9.3048  -9.2112  -9.2045  -9.1947  -9.1459  -9.1243
    -9.0641  -9.0258  -8.9971  -8.9558  -8.9086  -8.8956  -8.8284  -8.8071
    -8.7066  -8.6792  -8.6112  -8.6084  -8.5480  -8.5407  -8.5246  -8.5193
    -8.4238  -8.3552  -8.3182  -8.2680  -8.2623  -8.2586  -8.2446  -8.2392
    -8.2366  -8.1286  -8.1079  -8.0847  -8.0679  -8.0510  -8.0460  -8.0240
    -8.0190  -8.0102  -8.0076  -7.9999  -7.9948  -7.9883  -7.9838  -7.9734
    -7.9726  -7.9661  -7.9626  -7.9617  -7.9538  -7.9468  -7.9455  -7.9434
    -7.9417  -7.9393  -7.9351  -7.9305  -7.9295  -7.9284  -7.9239  -7.9205
    -7.9198  -7.9110  -7.9055  -7.8944  -7.8030  -7.7884  -7.7879  -7.7739
    -7.7677  -7.7514  -7.7375  -7.7334  -7.7219  -7.7152  -7.6975  -7.6818
    -7.6741  -7.6455  -7.6233  -7.6186  -7.5913  -7.5821  -7.5727  -7.5686
    -7.5596  -7.5491  -7.5102  -7.5096  -7.4592  -7.4290  -7.3783  -7.3286
    -3.9491  -3.8074  -3.5311  -3.4799  -3.4511  -3.4046  -3.3895  -3.3601
    -3.3040  -3.2794  -3.1963  -3.0959  -3.0833  -3.0695  -3.0539  -2.8838
    -2.8797  -2.8408  -2.8400  -2.7859  -2.7801  -2.7363  -2.7269  -2.7225
    -2.7114  -2.6697  -2.6590  -2.6477  -2.6292  -2.5623  -2.5424  -2.4220
    -2.4130  -2.3764  -2.3692  -2.3544  -2.3471  -2.3201  -2.3033  -2.2978
    -2.2801  -2.2639  -2.2637  -2.2589  -2.2399  -2.2259  -2.2254  -2.2179
    -2.1786  -2.1517  -2.1465  -2.1364  -2.0919  -2.0882  -2.0778  -2.0759
    -2.0748  -2.0496  -2.0358  -2.0309  -2.0306  -2.0259  -2.0088  -2.0039
    -1.9943  -1.9919  -1.9835  -1.9782  -1.9507  -1.9334  -1.9298  -1.9269
    -1.9235  -1.9215  -1.9134  -1.9101  -1.9053  -1.8961  -1.8868  -1.8853
    -1.8782  -1.8688  -1.8614  -1.8541  -1.8422  -1.8391  -1.8387  -1.8372
    -1.8371  -1.8363  -1.8294  -1.8283  -1.8278  -1.8219  -1.8193  -1.8182
    -1.8097  -1.8061  -1.8044  -1.8034  -1.7905  -1.7737  -1.7659  -1.7654
    -1.7543  -1.7491  -1.7218  -1.7172  -1.6973  -1.6710  -1.6708  -1.6584
    -1.6577  -1.6446  -1.6441  -1.6096  -1.5784  -1.5706  -1.5419  -1.5355
    -1.5282  -1.4962  -1.4820  -1.4609  -1.4607  -1.4328  -1.4302  -1.4154
    -1.3961  -1.3952  -1.3562  -1.3400  -1.3329  -1.3249  -1.3189  -1.3053
    -1.3049  -1.2613  -1.2599  -1.2384  -1.2178  -1.2112  -1.1829  -1.1235
    -1.1171  -1.0860  -1.0825  -1.0151  -1.0062  -0.9785  -0.9631  -0.9422
    -0.9403  -0.9245  -0.9070  -0.9035  -0.8968  -0.8803  -0.8748  -0.8701
    -0.8673  -0.8659  -0.8597  -0.8350  -0.8120  -0.8035  -0.7992  -0.7986
    -0.7984  -0.7867  -0.7859  -0.7802  -0.7579  -0.7562  -0.7458  -0.7457
    -0.7334  -0.7173  -0.7092  -0.7072  -0.6998  -0.6919  -0.6903  -0.6883
    -0.6818  -0.6739  -0.6680  -0.6670  -0.6644  -0.6565  -0.6560  -0.6455
[...]
     atom   63 type  5   force =     0.00000000    0.00021238   -0.00121170
     atom   64 type  5   force =     0.00000000   -0.00021238   -0.00121170
     atom   65 type  4   force =    -0.00027810    0.00011934    0.00134844
     atom   66 type  4   force =    -0.00027810   -0.00011934    0.00134844
     atom   67 type  4   force =     0.00027810    0.00011934    0.00134844
     atom   68 type  4   force =     0.00027810   -0.00011934    0.00134844
     atom   69 type  4   force =     0.00000000   -0.00030466    0.00078933
     atom   70 type  4   force =     0.00000000    0.00030466    0.00078933
     atom   71 type  4   force =    -0.00010907    0.00005086    0.00170847
     atom   72 type  4   force =    -0.00010907   -0.00005086    0.00170847
     atom   73 type  4   force =     0.00010907   -0.00005086    0.00170847
     atom   74 type  4   force =     0.00010907    0.00005086    0.00170847
     atom   75 type  4   force =     0.00024876    0.00000000    0.00140340
     atom   76 type  4   force =    -0.00024876    0.00000000    0.00140340
     atom   77 type  4   force =     0.00000000   -0.00047493    0.00225852
     atom   78 type  4   force =     0.00000000    0.00047493    0.00225852
     atom   79 type  4   force =     0.00025306    0.00000000    0.00138387
     atom   80 type  4   force =    -0.00025306    0.00000000    0.00138387
     atom   81 type  3   force =     0.00014302   -0.00023007   -0.00238507
     atom   82 type  3   force =     0.00014302    0.00023007   -0.00238507
     atom   83 type  3   force =    -0.00014302   -0.00023007   -0.00238507
     atom   84 type  3   force =    -0.00014302    0.00023007   -0.00238507
     atom   85 type  3   force =     0.00006576   -0.00012139   -0.00244738
     atom   86 type  3   force =    -0.00006576   -0.00012139   -0.00244738
     atom   87 type  3   force =    -0.00006576    0.00012139   -0.00244738
     atom   88 type  3   force =     0.00006576    0.00012139   -0.00244738
     atom   89 type  1   force =     0.00000000    0.00000000   -0.00455715
     atom   90 type  1   force =     0.00000000   -0.00064303   -0.00566914
     atom   91 type  1   force =     0.00000000    0.00064303   -0.00566914
     atom   92 type  1   force =    -0.00089623    0.00000000   -0.00455500
     atom   93 type  1   force =     0.00089623    0.00000000   -0.00455500
     atom   94 type  1   force =     0.00000000    0.00000000   -0.00567853
     atom   95 type  1   force =     0.00000000    0.00000000   -0.00567853
     atom   96 type  1   force =     0.00000000    0.00000000   -0.00442840
     atom   97 type  4   force =    -0.00034232   -0.00036283    0.00443677
     atom   98 type  4   force =    -0.00034232    0.00036283    0.00443677
     atom   99 type  4   force =     0.00034232   -0.00036283    0.00443677
     atom  100 type  4   force =     0.00034232    0.00036283    0.00443677
     atom  101 type  4   force =     0.00054131   -0.00025421    0.00528952
     atom  102 type  4   force =    -0.00054131   -0.00025421    0.00528952
     atom  103 type  4   force =    -0.00054131    0.00025421    0.00528952
     atom  104 type  4   force =     0.00054131    0.00025421    0.00528952
     atom  105 type  4   force =     0.00134814    0.00000000    0.01375210
     atom  106 type  4   force =    -0.00134814    0.00000000    0.01375210
     atom  107 type  3   force =    -0.00309924   -0.00154578   -0.01268216
     atom  108 type  3   force =    -0.00309924    0.00154578   -0.01268216
     atom  109 type  3   force =     0.00309924    0.00154578   -0.01268216
     atom  110 type  3   force =     0.00309924   -0.00154578   -0.01268216
     atom  111 type  3   force =    -0.00268090   -0.00071659   -0.01000426
     atom  112 type  3   force =     0.00268090    0.00071659   -0.01000426
     atom  113 type  3   force =    -0.00268090    0.00071659   -0.01000426
     atom  114 type  3   force =     0.00268090   -0.00071659   -0.01000426
     atom  115 type  4   force =     0.00090751   -0.00056252    0.01449587
     atom  116 type  4   force =    -0.00090751   -0.00056252    0.01449587
     atom  117 type  4   force =     0.00090751    0.00056252    0.01449587
     atom  118 type  4   force =    -0.00090751    0.00056252    0.01449587
     atom  119 type  4   force =     0.00205897    0.00000000    0.01510990
     atom  120 type  4   force =    -0.00205897    0.00000000    0.01510990
     atom  121 type  4   force =    -0.00739617   -0.00478847    0.02967061
     atom  122 type  4   force =     0.00739617   -0.00478847    0.02967061
     atom  123 type  4   force =     0.00739617    0.00478847    0.02967061
     atom  124 type  4   force =    -0.00739617    0.00478847    0.02967061
     atom  125 type  4   force =     0.00252237   -0.00193854    0.02223697
     atom  126 type  4   force =     0.00252237    0.00193854    0.02223697
     atom  127 type  4   force =    -0.00252237   -0.00193854    0.02223697
     atom  128 type  4   force =    -0.00252237    0.00193854    0.02223697
     atom  129 type  1   force =     0.00000000    0.00000000   -0.02483179
     atom  130 type  1   force =     0.00000000    0.00000000   -0.02435288
     atom  131 type  1   force =     0.00000000    0.00000000   -0.02435288
     atom  132 type  1   force =     0.00189548    0.00000000   -0.02232519
     atom  133 type  1   force =    -0.00189548    0.00000000   -0.02232519
     atom  134 type  1   force =     0.00000000    0.00296597   -0.02325060
     atom  135 type  1   force =     0.00000000   -0.00296597   -0.02325060
     atom  136 type  1   force =     0.00000000    0.00000000   -0.01371240
     atom  137 type  3   force =     0.00063418    0.00067002    0.00603540
     atom  138 type  3   force =     0.00063418   -0.00067002    0.00603540
     atom  139 type  3   force =    -0.00063418   -0.00067002    0.00603540
     atom  140 type  3   force =    -0.00063418    0.00067002    0.00603540
     atom  141 type  3   force =    -0.00533509    0.00637777   -0.00231792
     atom  142 type  3   force =    -0.00533509   -0.00637777   -0.00231792
     atom  143 type  3   force =     0.00533509    0.00637777   -0.00231792
     atom  144 type  3   force =     0.00533509   -0.00637777   -0.00231792
     atom  145 type  4   force =    -0.00235113    0.00000000    0.01104117
     atom  146 type  4   force =     0.00235113    0.00000000    0.01104117
     atom  147 type  4   force =     0.00000000   -0.00215212    0.01100431
     atom  148 type  4   force =     0.00000000    0.00215212    0.01100431
     atom  149 type  4   force =    -0.00071851    0.00000000    0.00605429
     atom  150 type  4   force =     0.00071851    0.00000000    0.00605429
     atom  151 type  4   force =    -0.00073799    0.00108366    0.01002612
     atom  152 type  4   force =     0.00073799    0.00108366    0.01002612
     atom  153 type  4   force =     0.00073799   -0.00108366    0.01002612
     atom  154 type  4   force =    -0.00073799   -0.00108366    0.01002612
     atom  155 type  4   force =     0.00000000   -0.00191636    0.01000627
     atom  156 type  4   force =     0.00000000    0.00191636    0.01000627
     atom  157 type  4   force =     0.00142742    0.00007397    0.01102528
     atom  158 type  4   force =    -0.00142742   -0.00007397    0.01102528
     atom  159 type  4   force =     0.00142742   -0.00007397    0.01102528
     atom  160 type  4   force =    -0.00142742    0.00007397    0.01102528
     atom  161 type  2   force =     0.00000000    0.00000000   -0.03309689
     atom  162 type  5   force =    -0.00063167    0.00000000   -0.03959737
     atom  163 type  5   force =     0.00063167    0.00000000   -0.03959737
     atom  164 type  5   force =     0.00000000    0.00000000   -0.03551319
     atom  165 type  5   force =     0.00000000    0.00000000   -0.03713141
     atom  166 type  5   force =     0.00000000    0.00000000   -0.03713141
     atom  167 type  5   force =     0.00000000   -0.00117548   -0.03837399
     atom  168 type  5   force =     0.00000000    0.00117548   -0.03837399
     atom  169 type  4   force =    -0.00022768    0.00005290    0.00459207
     atom  170 type  4   force =    -0.00022768   -0.00005290    0.00459207
     atom  171 type  4   force =     0.00022768    0.00005290    0.00459207
     atom  172 type  4   force =     0.00022768   -0.00005290    0.00459207
     atom  173 type  4   force =     0.00000000    0.00017217    0.00427825
     atom  174 type  4   force =     0.00000000   -0.00017217    0.00427825
     atom  175 type  4   force =    -0.00002192    0.00005846    0.00350462
     atom  176 type  4   force =    -0.00002192   -0.00005846    0.00350462
     atom  177 type  4   force =     0.00002192   -0.00005846    0.00350462
     atom  178 type  4   force =     0.00002192    0.00005846    0.00350462
     atom  179 type  4   force =    -0.00018670    0.00000000    0.00296714
     atom  180 type  4   force =     0.00018670    0.00000000    0.00296714
     atom  181 type  4   force =     0.00000000   -0.00054630    0.00469066
     atom  182 type  4   force =     0.00000000    0.00054630    0.00469066
     atom  183 type  4   force =     0.00055550    0.00000000    0.00395562
     atom  184 type  4   force =    -0.00055550    0.00000000    0.00395562
     atom  185 type  3   force =     0.00000225    0.00022555    0.00147341
     atom  186 type  3   force =     0.00000225   -0.00022555    0.00147341
     atom  187 type  3   force =    -0.00000225    0.00022555    0.00147341
     atom  188 type  3   force =    -0.00000225   -0.00022555    0.00147341
     atom  189 type  3   force =     0.00001169   -0.00000250    0.00149910
     atom  190 type  3   force =    -0.00001169   -0.00000250    0.00149910
     atom  191 type  3   force =    -0.00001169    0.00000250    0.00149910
     atom  192 type  3   force =     0.00001169    0.00000250    0.00149910
     atom  193 type  1   force =     0.00000000    0.00000000   -0.00123126
     atom  194 type  1   force =     0.00000000   -0.00004295   -0.00095199
     atom  195 type  1   force =     0.00000000    0.00004295   -0.00095199
     atom  196 type  1   force =     0.00020501    0.00000000   -0.00119398
     atom  197 type  1   force =    -0.00020501    0.00000000   -0.00119398
     atom  198 type  1   force =     0.00000000    0.00000000   -0.00111427
     atom  199 type  1   force =     0.00000000    0.00000000   -0.00111427
     atom  200 type  1   force =     0.00000000    0.00000000   -0.00106781
     atom  201 type  4   force =     0.00002391    0.00009437    0.00070271
     atom  202 type  4   force =     0.00002391   -0.00009437    0.00070271
     atom  203 type  4   force =    -0.00002391    0.00009437    0.00070271
     atom  204 type  4   force =    -0.00002391   -0.00009437    0.00070271
     atom  205 type  4   force =     0.00002497    0.00004463    0.00067361
     atom  206 type  4   force =    -0.00002497    0.00004463    0.00067361
     atom  207 type  4   force =    -0.00002497   -0.00004463    0.00067361
     atom  208 type  4   force =     0.00002497   -0.00004463    0.00067361
     atom  209 type  4   force =     0.00010470    0.00000000    0.00019132
     atom  210 type  4   force =    -0.00010470    0.00000000    0.00019132
     atom  211 type  3   force =     0.00009800   -0.00006135   -0.00040880
     atom  212 type  3   force =     0.00009800    0.00006135   -0.00040880
     atom  213 type  3   force =    -0.00009800    0.00006135   -0.00040880
     atom  214 type  3   force =    -0.00009800   -0.00006135   -0.00040880
     atom  215 type  3   force =    -0.00000048   -0.00003432   -0.00030637
     atom  216 type  3   force =     0.00000048    0.00003432   -0.00030637
     atom  217 type  3   force =    -0.00000048    0.00003432   -0.00030637
     atom  218 type  3   force =     0.00000048   -0.00003432   -0.00030637
     atom  219 type  4   force =    -0.00009954    0.00003790    0.00026358
     atom  220 type  4   force =     0.00009954    0.00003790    0.00026358
     atom  221 type  4   force =    -0.00009954   -0.00003790    0.00026358
     atom  222 type  4   force =     0.00009954   -0.00003790    0.00026358
     atom  223 type  4   force =    -0.00015972    0.00000000    0.00023659
     atom  224 type  4   force =     0.00015972    0.00000000    0.00023659

     Total force =     0.164006     Total SCF correction =     0.000429


     Computing stress (Cartesian axis) and pressure


     negative rho (up, down):  6.352E-01 0.000E+00
          total   stress  (Ry/bohr**3)                   (kbar)     P=       -6.93
  -0.00007247   0.00000000   0.00000000          -10.66        0.00        0.00
   0.00000000  -0.00003882   0.00000000            0.00       -5.71        0.00
   0.00000000   0.00000000  -0.00003004            0.00        0.00       -4.42

 
     init_run     :     55.72s CPU     58.96s WALL (       1 calls)
     electrons    :   4718.67s CPU   4939.91s WALL (       1 calls)
     forces       :     33.81s CPU     36.19s WALL (       1 calls)
     stress       :    395.67s CPU    400.03s WALL (       1 calls)

     Called by init_run:
     wfcinit      :     44.37s CPU     46.01s WALL (       1 calls)
     potinit      :      1.65s CPU      1.69s WALL (       1 calls)
     hinit0       :      3.08s CPU      3.13s WALL (       1 calls)

     Called by electrons:
     c_bands      :   3974.99s CPU   4066.99s WALL (      45 calls)
     sum_band     :    519.83s CPU    591.56s WALL (      45 calls)
     v_of_rho     :     12.18s CPU     12.31s WALL (      46 calls)
     newd         :     76.90s CPU    134.68s WALL (      46 calls)
     mix_rho      :    135.28s CPU    136.19s WALL (      45 calls)

     Called by c_bands:
     init_us_2    :     14.98s CPU     15.41s WALL (     372 calls)
     cegterg      :   3885.56s CPU   3973.12s WALL (     180 calls)

     Called by sum_band:
     sum_band:bec :      4.13s CPU      4.14s WALL (     180 calls)
     addusdens    :     86.90s CPU    154.49s WALL (      45 calls)

     Called by *egterg:
     h_psi        :   1618.75s CPU   1650.61s WALL (    1140 calls)
     s_psi        :    478.47s CPU    490.33s WALL (    1140 calls)
     g_psi        :      2.37s CPU      2.40s WALL (     956 calls)
     cdiaghg      :    731.07s CPU    734.10s WALL (    1136 calls)

     Called by h_psi:
     h_psi:calbec :    522.78s CPU    525.46s WALL (    1140 calls)
     vloc_psi     :    613.29s CPU    621.36s WALL (    1140 calls)
     add_vuspsi   :    478.83s CPU    491.09s WALL (    1140 calls)

     General routines
     calbec       :    804.64s CPU    808.39s WALL (    1340 calls)
     fft          :     12.17s CPU     12.24s WALL (     621 calls)
     ffts         :     83.34s CPU     83.91s WALL (   35899 calls)
     fftw         :    681.16s CPU    689.68s WALL ( 1015686 calls)
     interpolate  :      1.02s CPU      1.03s WALL (      46 calls)
 
     Parallel routines
     fft_scatt_xy :    105.06s CPU    106.28s WALL ( 1052206 calls)
     fft_scatt_yz :    415.84s CPU    421.18s WALL ( 1052206 calls)
 
     PWSCF        :      1h26m CPU      1h30m WALL

 
   This run was terminated on:  13:52: 0  18May2021            

=------------------------------------------------------------------------------=
   JOB DONE.
=------------------------------------------------------------------------------=
[1621360320.507952] [holy7c08204:197322:0]          mpool.c:43   UCX  WARN  object 0x3531140 was not returned to mpool ucp_requests
[1621360320.507828] [holy7c08105:191703:0]          mpool.c:43   UCX  WARN  object 0x3353bc0 was not returned to mpool ucp_requests
[1621360320.508733] [holy7c06212:89829:0]          mpool.c:43   UCX  WARN  object 0x2e14c00 was not returned to mpool ucp_requests
[1621360320.510242] [holy7c06212:89837:0]          mpool.c:43   UCX  WARN  object 0x37ba480 was not returned to mpool ucp_requests
[1621360320.510291] [holy7c06212:89837:0]          mpool.c:43   UCX  WARN  object 0x37c2280 was not returned to mpool ucp_requests
[1621360320.510530] [holy7c06212:89835:0]          mpool.c:43   UCX  WARN  object 0x466c2c0 was not returned to mpool ucp_requests
[1621360320.531527] [holy7c08102:59704:0]          mpool.c:43   UCX  WARN  object 0x3e55680 was not returned to mpool ucp_requests
[1621360320.531551] [holy7c08102:59704:0]          mpool.c:43   UCX  WARN  object 0x3e5b340 was not returned to mpool ucp_requests
[1621360320.510874] [holy7c08105:191711:0]          mpool.c:43   UCX  WARN  object 0x3287f40 was not returned to mpool ucp_requests
[1621360320.508107] [holy7c08105:191701:0]          mpool.c:43   UCX  WARN  object 0x3b21240 was not returned to mpool ucp_requests
[1621360320.508044] [holy7c08204:197323:0]          mpool.c:43   UCX  WARN  object 0x3a9f500 was not returned to mpool ucp_requests
[1621360320.525204] [holy7c08105:191709:0]          mpool.c:43   UCX  WARN  object 0x4113580 was not returned to mpool ucp_requests
[1621360320.509067] [holy7c08204:197321:0]          mpool.c:43   UCX  WARN  object 0x2b2f540 was not returned to mpool ucp_requests
[1621360320.507613] [holy7c08204:197324:0]          mpool.c:43   UCX  WARN  object 0x325f7c0 was not returned to mpool ucp_requests
[1621360320.509982] [holy7c08204:197331:0]          mpool.c:43   UCX  WARN  object 0x416f300 was not returned to mpool ucp_requests
[1621360320.511051] [holy7c08204:197329:0]          mpool.c:43   UCX  WARN  object 0x3da6180 was not returned to mpool ucp_requests
[1621360320.509014] [holy7c08204:197330:0]          mpool.c:43   UCX  WARN  object 0x3c44b80 was not returned to mpool ucp_requests
[1621360320.509637] [holy7c08204:197332:0]          mpool.c:43   UCX  WARN  object 0x3198500 was not returned to mpool ucp_requests
[1621360320.518568] [holy7c08105:191710:0]          mpool.c:43   UCX  WARN  object 0x411eac0 was not returned to mpool ucp_requests
[1621360320.519688] [holy7c08105:191712:0]          mpool.c:43   UCX  WARN  object 0x4331ac0 was not returned to mpool ucp_requests
[1621360320.516319] [holy7c08105:191702:0]          mpool.c:43   UCX  WARN  object 0x38f4100 was not returned to mpool ucp_requests
[1621360320.516426] [holy7c08105:191704:0]          mpool.c:43   UCX  WARN  object 0x6a83780 was not returned to mpool ucp_requests
[1621360320.517008] [holy7c06212:89830:0]          mpool.c:43   UCX  WARN  object 0x4029a40 was not returned to mpool ucp_requests
[1621360320.517563] [holy7c06212:89828:0]          mpool.c:43   UCX  WARN  object 0x2d46700 was not returned to mpool ucp_requests
[1621360320.522798] [holy7c06212:89838:0]          mpool.c:43   UCX  WARN  object 0x43b5880 was not returned to mpool ucp_requests
[1621360320.543741] [holy7c06212:89836:0]          mpool.c:43   UCX  WARN  object 0x3df4840 was not returned to mpool ucp_requests
[1621360320.534835] [holy7c08102:59707:0]          mpool.c:43   UCX  WARN  object 0x428f480 was not returned to mpool ucp_requests
[1621360320.541526] [holy7c08102:59696:0]          mpool.c:43   UCX  WARN  object 0x2b88600 was not returned to mpool ucp_requests
[1621360320.534886] [holy7c08102:59706:0]          mpool.c:43   UCX  WARN  object 0x2e35880 was not returned to mpool ucp_requests
[1621360320.534908] [holy7c08102:59706:0]          mpool.c:43   UCX  WARN  object 0x2e3b000 was not returned to mpool ucp_requests
[1621360320.539563] [holy7c08102:59698:0]          mpool.c:43   UCX  WARN  object 0x398c8c0 was not returned to mpool ucp_requests
[1621360320.538957] [holy7c08102:59699:0]          mpool.c:43   UCX  WARN  object 0x3b9c500 was not returned to mpool ucp_requests
[1621360320.540703] [holy7c08102:59697:0]          mpool.c:43   UCX  WARN  object 0x4054a80 was not returned to mpool ucp_requests
[1621360320.543378] [holy7c08102:59705:0]          mpool.c:43   UCX  WARN  object 0x32feb80 was not returned to mpool ucp_requests
[1621360320.543399] [holy7c08102:59705:0]          mpool.c:43   UCX  WARN  object 0x3301900 was not returned to mpool ucp_requests
