
     Program PWSCF v.6.5 starts on 17May2021 at 12:37:14 

     This program is part of the open-source Quantum ESPRESSO suite
     for quantum simulation of materials; please cite
         "P. Giannozzi et al., J. Phys.:Condens. Matter 21 395502 (2009);
         "P. Giannozzi et al., J. Phys.:Condens. Matter 29 465901 (2017);
          URL http://www.quantum-espresso.org", 
     in publications or presentations arising from this work. More details at
     http://www.quantum-espresso.org/quote

     Parallel version (MPI), running on    80 processors

     MPI processes distributed on     5 nodes
     R & G space division:  proc/nbgrp/npool/nimage =      80
     Reading input from YBCO_CuO_cleave_0.5_sep.pwi
Warning: card &IONS ignored
Warning: card     ION_DYNAMICS = 'BFGS' ignored
Warning: card / ignored
Warning: card &CELL ignored
Warning: card     CELL_DYNAMICS = 'BFGS' ignored
Warning: card     PRESS_CONV_THR = 5 ignored
Warning: card / ignored

     Current dimensions of program PWSCF are:
     Max number of different atomic species (ntypx) = 10
     Max number of k-points (npk) =  40000
     Max angular momentum in pseudopotentials (lmaxx) =  3
     Message from routine volume:
     axis vectors are left-handed

     Subspace diagonalization in iterative solution of the eigenvalue problem:
     one sub-group per band group will be used
     scalapack distributed-memory algorithm (size of sub-group:  8*  8 procs)

     Message from routine setup:
     using ibrav=0 with symmetry is DISCOURAGED, use correct ibrav instead
 
     Parallelization info
     --------------------
     sticks:   dense  smooth     PW     G-vecs:    dense   smooth      PW
     Min         300     100     25               142438    27410    3599
     Max         301     101     26               142473    27431    3636
     Sum       24079    8031   2067             11396989  2193539  289955
 


     bravais-lattice index     =            0
     lattice parameter (alat)  =      20.5021  a.u.
     unit-cell volume          =   34932.4146 (a.u.)^3
     number of atoms/cell      =          224
     number of atomic types    =            5
     number of electrons       =      1830.00
     number of Kohn-Sham states=         1098
     kinetic-energy cutoff     =      60.0000  Ry
     charge density cutoff     =     720.0000  Ry
     convergence threshold     =      1.0E-08
     mixing beta               =       0.5000
     number of iterations used =           10  local-TF  mixing
     Exchange-correlation= SLA PW PBE PBE
                           (   1   4   3   4   0   0   0)

     celldm(1)=  20.502120  celldm(2)=   0.000000  celldm(3)=   0.000000
     celldm(4)=   0.000000  celldm(5)=   0.000000  celldm(6)=   0.000000

     crystal axes: (cart. coord. in units of alat)
               a(1) = (  -0.716599   0.697485   0.000000 )  
               a(2) = (   0.716599   0.697485   0.000000 )  
               a(3) = (   0.000000   0.000000   4.055001 )  

     reciprocal axes: (cart. coord. in units 2 pi/alat)
               b(1) = ( -0.697740  0.716861  0.000000 )  
               b(2) = (  0.697740  0.716861  0.000000 )  
               b(3) = (  0.000000  0.000000  0.246609 )  


     PseudoPot. # 1 for Ba read from file:
     ./pseudo/Ba.pbe-nsp-van.UPF
     MD5 check sum: 2b9c31dd849566dd297d80989662b7a0
     Pseudo is Ultrasoft + core correction, Zval = 10.0
     Generated by new atomic code, or converted to UPF format
     Using radial grid of  907 points,  6 beta functions with: 
                l(1) =   0
                l(2) =   0
                l(3) =   1
                l(4) =   1
                l(5) =   2
                l(6) =   2
     Q(r) pseudized with  6 coefficients,  rinner =    1.200   1.200   1.200
                                                       1.200   1.200

     PseudoPot. # 2 for Ca read from file:
     ./pseudo/Ca.pbe-nsp-van.UPF
     MD5 check sum: 6471098428ff4fa451746d08035ff179
     Pseudo is Ultrasoft + core correction, Zval = 10.0
     Generated by new atomic code, or converted to UPF format
     Using radial grid of  845 points,  6 beta functions with: 
                l(1) =   0
                l(2) =   0
                l(3) =   1
                l(4) =   1
                l(5) =   2
                l(6) =   2
     Q(r) pseudized with  6 coefficients,  rinner =    1.200   1.200   1.200
                                                       1.200   1.200

     PseudoPot. # 3 for Cu read from file:
     ./pseudo/Cu.pbe-n-van_ak.UPF
     MD5 check sum: 34e3282627ffb533726feb647e090d62
     Pseudo is Ultrasoft + core correction, Zval = 11.0
     Generated by new atomic code, or converted to UPF format
     Using radial grid of  867 points,  6 beta functions with: 
                l(1) =   0
                l(2) =   0
                l(3) =   1
                l(4) =   1
                l(5) =   2
                l(6) =   2
     Q(r) pseudized with  8 coefficients,  rinner =    1.400   1.400   1.400
                                                       1.400   1.400

     PseudoPot. # 4 for O  read from file:
     ./pseudo/O.pbe-van_ak.UPF
     MD5 check sum: 783ce7fe4c79b6a4916957118fed0856
     Pseudo is Ultrasoft, Zval =  6.0
     Generated by new atomic code, or converted to UPF format
     Using radial grid of  737 points,  4 beta functions with: 
                l(1) =   0
                l(2) =   0
                l(3) =   1
                l(4) =   1
     Q(r) pseudized with  8 coefficients,  rinner =    0.800   0.800   0.800


     PseudoPot. # 5 for Y  read from file:
     ./pseudo/Y.pbe-nsp-van.UPF
     MD5 check sum: 4412fed3ab108fed87a1b7d6a69a4a38
     Pseudo is Ultrasoft + core correction, Zval = 11.0
     Generated by new atomic code, or converted to UPF format
     Using radial grid of  885 points,  6 beta functions with: 
                l(1) =   0
                l(2) =   0
                l(3) =   1
                l(4) =   1
                l(5) =   2
                l(6) =   2
     Q(r) pseudized with  6 coefficients,  rinner =    1.200   1.200   1.200
                                                       1.200   1.200

     atomic species   valence    mass     pseudopotential
        Ba            10.00   137.32700     Ba( 1.00)
        Ca            10.00    40.07800     Ca( 1.00)
        Cu            11.00    63.54600     Cu( 1.00)
        O              6.00    15.99900     O ( 1.00)
        Y             11.00    88.90584     Y ( 1.00)

      4 Sym. Ops. (no inversion) found ( 3 have fractional translation)



   Cartesian axes

     site n.     atom                  positions (alat units)
         1           O   tau(   1) = (   0.3545921   0.8718562  -0.0077406  )
         2           O   tau(   2) = (   0.0037072   0.8718562  -0.0077406  )
         3           Cu  tau(   3) = (  -0.0002581   0.0006065   0.0080789  )
         4           Cu  tau(   4) = (  -0.0002581   0.3481364   0.0080789  )
         5           Cu  tau(   5) = (   0.3585574   0.3481364   0.0080789  )
         6           Cu  tau(   6) = (  -0.3580421   0.6980913   0.0080789  )
         7           Cu  tau(   7) = (   0.3577988   0.6971373   0.0086255  )
         8           Cu  tau(   8) = (   0.0005005   1.0465760   0.0086255  )
         9           Cu  tau(   9) = (  -0.3588016   0.3490903   0.0086255  )
        10           Cu  tau(  10) = (   0.0005005   0.6971373   0.0086255  )
        11           O   tau(  11) = (  -0.0001733   0.5225410  -0.0089757  )
        12           O   tau(  12) = (   0.3584726   0.5225410  -0.0089757  )
        13           O   tau(  13) = (  -0.0001733   1.2211724  -0.0089757  )
        14           O   tau(  14) = (  -0.3581278   0.5236867  -0.0089757  )
        15           O   tau(  15) = (  -0.3544557   0.8718562  -0.0105593  )
        16           O   tau(  16) = (  -0.0038445   0.1743714  -0.0105593  )
        17           O   tau(  17) = (   0.3588818   0.3486599   0.1817056  )
        18           O   tau(  18) = (  -0.0005825   0.3486599   0.1817056  )
        19           O   tau(  19) = (  -0.0005825   0.0000830   0.1817056  )
        20           O   tau(  20) = (  -0.3577167   0.6975677   0.1817056  )
        21           O   tau(  21) = (   0.3584283   0.6967843   0.1825784  )
        22           O   tau(  22) = (  -0.3581712   0.3494443   0.1825784  )
        23           O   tau(  23) = (  -0.0001290   0.6967843   0.1825784  )
        24           O   tau(  24) = (  -0.0001290   1.0469291   0.1825784  )
        25           Ba  tau(  25) = (   0.1791506   0.8718562   0.1908537  )
        26           Ba  tau(  26) = (   0.5374498   0.5231143   0.1919901  )
        27           Ba  tau(  27) = (  -0.1791506   0.5231143   0.1919901  )
        28           Ba  tau(  28) = (  -0.1793773   0.8718562   0.1931958  )
        29           Ba  tau(  29) = (  -0.1789238   0.1743714   0.1931958  )
        30           Ba  tau(  30) = (   0.1791506   0.5222101   0.1929368  )
        31           Ba  tau(  31) = (  -0.5374498   0.5240176   0.1929368  )
        32           Ba  tau(  32) = (   0.1791506   0.1743714   0.1992469  )
        33           Cu  tau(  33) = (  -0.3583426   0.3488452   0.3777458  )
        34           Cu  tau(  34) = (   0.3582559   0.6973834   0.3777458  )
        35           Cu  tau(  35) = (   0.0000433   0.6973834   0.3777458  )
        36           Cu  tau(  36) = (   0.0000433   1.0463299   0.3777458  )
        37           Cu  tau(  37) = (  -0.3586541   0.6975060   0.3775126  )
        38           Cu  tau(  38) = (   0.3579444   0.3487217   0.3775126  )
        39           Cu  tau(  39) = (   0.0003549   0.0000212   0.3775126  )
        40           Cu  tau(  40) = (   0.0003549   0.3487217   0.3775126  )
        41           O   tau(  41) = (  -0.0047976   0.1743714   0.3996864  )
        42           O   tau(  42) = (  -0.3535026   0.8718562   0.3996864  )
        43           O   tau(  43) = (  -0.5374498   0.6924605   0.3956991  )
        44           O   tau(  44) = (   0.1791506   0.3537672   0.3956991  )
        45           O   tau(  45) = (   0.3586385   0.8718562   0.4046840  )
        46           O   tau(  46) = (  -0.0003392   0.8718562   0.4046840  )
        47           O   tau(  47) = (  -0.0004857   0.5230571   0.4066611  )
        48           O   tau(  48) = (   0.3587850   0.5230571   0.4066611  )
        49           O   tau(  49) = (  -0.3578135   0.5231714   0.4066611  )
        50           O   tau(  50) = (  -0.0004857   1.2206562   0.4066611  )
        51           O   tau(  51) = (   0.1791506   1.0461604   0.4028931  )
        52           O   tau(  52) = (   0.1791506   0.6975521   0.4028931  )
        53           O   tau(  53) = (  -0.1792261   0.6967170   0.4025963  )
        54           O   tau(  54) = (  -0.1790731   0.3495106   0.4025963  )
        55           O   tau(  55) = (  -0.1792261   1.0469964   0.4025963  )
        56           O   tau(  56) = (   0.5375263   0.6967170   0.4025963  )
        57           Ca  tau(  57) = (   0.1791506   0.1743714   0.5358617  )
        58           Y   tau(  58) = (  -0.1811525   0.8718562   0.5373908  )
        59           Y   tau(  59) = (  -0.1771467   0.1743714   0.5373908  )
        60           Y   tau(  60) = (   0.1791506   0.8718562   0.5379568  )
        61           Y   tau(  61) = (   0.5374498   0.5231143   0.5384490  )
        62           Y   tau(  62) = (  -0.1791506   0.5231143   0.5384490  )
        63           Y   tau(  63) = (   0.1791506   0.5216598   0.5383310  )
        64           Y   tau(  64) = (  -0.5374498   0.5245688   0.5383310  )
        65           O   tau(  65) = (  -0.1787754   0.3493171   0.6712314  )
        66           O   tau(  66) = (   0.5378231   0.6969115   0.6712314  )
        67           O   tau(  67) = (  -0.1795239   1.0468019   0.6712314  )
        68           O   tau(  68) = (  -0.1795239   0.6969115   0.6712314  )
        69           O   tau(  69) = (   0.1791506   0.6972691   0.6718637  )
        70           O   tau(  70) = (   0.1791506   1.0464433   0.6718637  )
        71           O   tau(  71) = (  -0.0003880   1.2203935   0.6667490  )
        72           O   tau(  72) = (  -0.0003880   0.5233198   0.6667490  )
        73           O   tau(  73) = (   0.3586882   0.5233198   0.6667490  )
        74           O   tau(  74) = (  -0.3579112   0.5229087   0.6667490  )
        75           O   tau(  75) = (   0.3585850   0.8718562   0.6641940  )
        76           O   tau(  76) = (  -0.0002857   0.8718562   0.6641940  )
        77           O   tau(  77) = (   0.1791506   0.3535118   0.6756778  )
        78           O   tau(  78) = (  -0.5374498   0.6927158   0.6756778  )
        79           O   tau(  79) = (  -0.0043044   0.1743714   0.6710848  )
        80           O   tau(  80) = (  -0.3539948   0.8718562   0.6710848  )
        81           Cu  tau(  81) = (  -0.3586514   0.6973604   0.6974442  )
        82           Cu  tau(  82) = (   0.3579472   0.3488682   0.6974442  )
        83           Cu  tau(  83) = (   0.0003521  -0.0001254   0.6974442  )
        84           Cu  tau(  84) = (   0.0003521   0.3488682   0.6974442  )
        85           Cu  tau(  85) = (   0.0000083   1.0459401   0.6989015  )
        86           Cu  tau(  86) = (  -0.3583076   0.3484544   0.6989015  )
        87           Cu  tau(  87) = (   0.3582910   0.6977733   0.6989015  )
        88           Cu  tau(  88) = (   0.0000083   0.6977733   0.6989015  )
        89           Ba  tau(  89) = (   0.1791506   0.1743714   0.8671591  )
        90           Ba  tau(  90) = (  -0.5374498   0.5239908   0.8827639  )
        91           Ba  tau(  91) = (   0.1791506   0.5222377   0.8827639  )
        92           Ba  tau(  92) = (  -0.1785616   0.1743714   0.8784262  )
        93           Ba  tau(  93) = (  -0.1797386   0.8718562   0.8784262  )
        94           Ba  tau(  94) = (  -0.1791506   0.5231143   0.8841483  )
        95           Ba  tau(  95) = (   0.5374498   0.5231143   0.8841483  )
        96           Ba  tau(  96) = (   0.1791506   0.8718562   0.8844635  )
        97           O   tau(  97) = (   0.3607888   0.6975991   0.9037874  )
        98           O   tau(  98) = (  -0.3558097   0.3486286   0.9037874  )
        99           O   tau(  99) = (  -0.0024896   0.6975991   0.9037874  )
       100           O   tau( 100) = (  -0.0024896   1.0461143   0.9037874  )
       101           O   tau( 101) = (   0.3544087   0.3463252   0.9043663  )
       102           O   tau( 102) = (   0.0038906   0.3463252   0.9043663  )
       103           O   tau( 103) = (   0.0038906   0.0024177   0.9043663  )
       104           O   tau( 104) = (  -0.3621908   0.6999025   0.9043663  )
       105           O   tau( 105) = (   0.3314246   0.8718562   1.0783672  )
       106           O   tau( 106) = (   0.0268747   0.8718562   1.0783672  )
       107           Cu  tau( 107) = (  -0.0027882   0.0031818   1.0782086  )
       108           Cu  tau( 108) = (  -0.0027882   0.3455601   1.0782086  )
       109           Cu  tau( 109) = (   0.3610875   0.3455601   1.0782086  )
       110           Cu  tau( 110) = (  -0.3555111   0.7006675   1.0782086  )
       111           Cu  tau( 111) = (   0.3579684   0.6983604   1.0781976  )
       112           Cu  tau( 112) = (   0.0003318   1.0453529   1.0781976  )
       113           Cu  tau( 113) = (  -0.3586320   0.3478672   1.0781976  )
       114           Cu  tau( 114) = (   0.0003318   0.6983604   1.0781976  )
       115           O   tau( 115) = (  -0.0055718   0.5218801   1.0778989  )
       116           O   tau( 116) = (   0.3638720   0.5218801   1.0778989  )
       117           O   tau( 117) = (  -0.0055718   1.2218333   1.0778989  )
       118           O   tau( 118) = (  -0.3527284   0.5243475   1.0778989  )
       119           O   tau( 119) = (  -0.3170374   0.8718562   1.0783192  )
       120           O   tau( 120) = (  -0.0412618   0.1743714   1.0783192  )
       121           O   tau( 121) = (   0.3544105   0.3465040   1.2981224  )
       122           O   tau( 122) = (   0.0038887   0.3465040   1.2981224  )
       123           O   tau( 123) = (   0.0038887   0.0022389   1.2981224  )
       124           O   tau( 124) = (  -0.3621880   0.6997236   1.2981224  )
       125           O   tau( 125) = (   0.3607981   0.6973991   1.2986837  )
       126           O   tau( 126) = (  -0.3558014   0.3488295   1.2986837  )
       127           O   tau( 127) = (  -0.0024988   0.6973991   1.2986837  )
       128           O   tau( 128) = (  -0.0024988   1.0463143   1.2986837  )
       129           Ba  tau( 129) = (   0.1791506   0.8718562   1.3180389  )
       130           Ba  tau( 130) = (   0.5374498   0.5231143   1.3183625  )
       131           Ba  tau( 131) = (  -0.1791506   0.5231143   1.3183625  )
       132           Ba  tau( 132) = (  -0.1796732   0.8718562   1.3240624  )
       133           Ba  tau( 133) = (  -0.1786270   0.1743714   1.3240624  )
       134           Ba  tau( 134) = (   0.1791506   0.5222571   1.3197902  )
       135           Ba  tau( 135) = (  -0.5374498   0.5239706   1.3197902  )
       136           Ba  tau( 136) = (   0.1791506   0.1743714   1.3353129  )
       137           Cu  tau( 137) = (  -0.3583094   0.3484682   1.5036093  )
       138           Cu  tau( 138) = (   0.3582901   0.6977604   1.5036093  )
       139           Cu  tau( 139) = (   0.0000101   0.6977604   1.5036093  )
       140           Cu  tau( 140) = (   0.0000101   1.0459530   1.5036093  )
       141           Cu  tau( 141) = (  -0.3586477   0.6973567   1.5050297  )
       142           Cu  tau( 142) = (   0.3579518   0.3488710   1.5050297  )
       143           Cu  tau( 143) = (   0.0003484  -0.0001281   1.5050297  )
       144           Cu  tau( 144) = (   0.0003484   0.3488710   1.5050297  )
       145           O   tau( 145) = (  -0.0043173   0.1743714   1.5313347  )
       146           O   tau( 146) = (  -0.3539819   0.8718562   1.5313347  )
       147           O   tau( 147) = (  -0.5374498   0.6927305   1.5268035  )
       148           O   tau( 148) = (   0.1791506   0.3534971   1.5268035  )
       149           O   tau( 149) = (   0.3585795   0.8718562   1.5382448  )
       150           O   tau( 150) = (  -0.0002802   0.8718562   1.5382448  )
       151           O   tau( 151) = (  -0.0003853   0.5233134   1.5357488  )
       152           O   tau( 152) = (   0.3586855   0.5233134   1.5357488  )
       153           O   tau( 153) = (  -0.3579140   0.5229152   1.5357488  )
       154           O   tau( 154) = (  -0.0003853   1.2204000   1.5357488  )
       155           O   tau( 155) = (   0.1791506   1.0464553   1.5306222  )
       156           O   tau( 156) = (   0.1791506   0.6972571   1.5306222  )
       157           O   tau( 157) = (  -0.1795146   0.6969069   1.5312508  )
       158           O   tau( 158) = (  -0.1787846   0.3493208   1.5312508  )
       159           O   tau( 159) = (  -0.1795146   1.0468065   1.5312508  )
       160           O   tau( 160) = (   0.5378139   0.6969069   1.5312508  )
       161           Ca  tau( 161) = (   0.1791506   0.1743714   1.6666131  )
       162           Y   tau( 162) = (  -0.1811544   0.8718562   1.6650821  )
       163           Y   tau( 163) = (  -0.1771449   0.1743714   1.6650821  )
       164           Y   tau( 164) = (   0.1791506   0.8718562   1.6645190  )
       165           Y   tau( 165) = (   0.5374498   0.5231143   1.6640498  )
       166           Y   tau( 166) = (  -0.1791506   0.5231143   1.6640498  )
       167           Y   tau( 167) = (   0.1791506   0.5216524   1.6641706  )
       168           Y   tau( 168) = (  -0.5374498   0.5245761   1.6641706  )
       169           O   tau( 169) = (  -0.1790685   0.3495088   1.7998849  )
       170           O   tau( 170) = (   0.5375300   0.6967198   1.7998849  )
       171           O   tau( 171) = (  -0.1792307   1.0469936   1.7998849  )
       172           O   tau( 172) = (  -0.1792307   0.6967198   1.7998849  )
       173           O   tau( 173) = (   0.1791506   0.6975604   1.7995882  )
       174           O   tau( 174) = (   0.1791506   1.0461521   1.7995882  )
       175           O   tau( 175) = (  -0.0004848   1.2206534   1.7958238  )
       176           O   tau( 176) = (  -0.0004848   0.5230599   1.7958238  )
       177           O   tau( 177) = (   0.3587841   0.5230599   1.7958238  )
       178           O   tau( 178) = (  -0.3578144   0.5231687   1.7958238  )
       179           O   tau( 179) = (   0.3586468   0.8718562   1.7977622  )
       180           O   tau( 180) = (  -0.0003466   0.8718562   1.7977622  )
       181           O   tau( 181) = (   0.1791506   0.3537690   1.8067850  )
       182           O   tau( 182) = (  -0.5374498   0.6924586   1.8067850  )
       183           O   tau( 183) = (  -0.0047874   0.1743714   1.8027497  )
       184           O   tau( 184) = (  -0.3535118   0.8718562   1.8027497  )
       185           Cu  tau( 185) = (  -0.3586560   0.6975087   1.8249558  )
       186           Cu  tau( 186) = (   0.3579435   0.3487198   1.8249558  )
       187           Cu  tau( 187) = (   0.0003567   0.0000230   1.8249558  )
       188           Cu  tau( 188) = (   0.0003567   0.3487198   1.8249558  )
       189           Cu  tau( 189) = (   0.0000415   1.0463263   1.8247235  )
       190           Cu  tau( 190) = (  -0.3583407   0.3488406   1.8247235  )
       191           Cu  tau( 191) = (   0.3582587   0.6973871   1.8247235  )
       192           Cu  tau( 192) = (   0.0000415   0.6973871   1.8247235  )
       193           Ba  tau( 193) = (   0.1791506   0.1743714   2.0032289  )
       194           Ba  tau( 194) = (  -0.5374498   0.5240166   2.0095381  )
       195           Ba  tau( 195) = (   0.1791506   0.5222119   2.0095381  )
       196           Ba  tau( 196) = (  -0.1789220   0.1743714   2.0092818  )
       197           Ba  tau( 197) = (  -0.1793773   0.8718562   2.0092818  )
       198           Ba  tau( 198) = (  -0.1791506   0.5231143   2.0104920  )
       199           Ba  tau( 199) = (   0.5374498   0.5231143   2.0104920  )
       200           Ba  tau( 200) = (   0.1791506   0.8718562   2.0116202  )
       201           O   tau( 201) = (   0.3584302   0.6967870   2.0198899  )
       202           O   tau( 202) = (  -0.3581684   0.3494406   2.0198899  )
       203           O   tau( 203) = (  -0.0001309   0.6967870   2.0198899  )
       204           O   tau( 204) = (  -0.0001309   1.0469263   2.0198899  )
       205           O   tau( 205) = (   0.3588800   0.3486562   2.0207628  )
       206           O   tau( 206) = (  -0.0005807   0.3486562   2.0207628  )
       207           O   tau( 207) = (  -0.0005807   0.0000866   2.0207628  )
       208           O   tau( 208) = (  -0.3577186   0.6975714   2.0207628  )
       209           O   tau( 209) = (   0.3545921   0.8718562   2.2101933  )
       210           O   tau( 210) = (   0.0037081   0.8718562   2.2101933  )
       211           Cu  tau( 211) = (  -0.0002516   0.0006074   2.1943895  )
       212           Cu  tau( 212) = (  -0.0002516   0.3481345   2.1943895  )
       213           Cu  tau( 213) = (   0.3585509   0.3481345   2.1943895  )
       214           Cu  tau( 214) = (  -0.3580476   0.6980931   2.1943895  )
       215           Cu  tau( 215) = (   0.3577960   0.6971373   2.1938429  )
       216           Cu  tau( 216) = (   0.0005033   1.0465760   2.1938429  )
       217           Cu  tau( 217) = (  -0.3588035   0.3490903   2.1938429  )
       218           Cu  tau( 218) = (   0.0005033   0.6971373   2.1938429  )
       219           O   tau( 219) = (  -0.0001724   0.5225410   2.2114321  )
       220           O   tau( 220) = (   0.3584716   0.5225410   2.2114321  )
       221           O   tau( 221) = (  -0.0001724   1.2211724   2.2114321  )
       222           O   tau( 222) = (  -0.3581288   0.5236867   2.2114321  )
       223           O   tau( 223) = (  -0.3544640   0.8718562   2.2130221  )
       224           O   tau( 224) = (  -0.0038353   0.1743714   2.2130221  )

     number of k points=     4  Gaussian smearing, width (Ry)=  0.0100
                       cart. coord. in units 2pi/alat
        k(    1) = (   0.0000000   0.0000000   0.0000000), wk =   0.2222222
        k(    2) = (   0.2325801   0.2389537   0.0000000), wk =   0.8888889
        k(    3) = (   0.0000000   0.4779073   0.0000000), wk =   0.4444444
        k(    4) = (  -0.4651601  -0.0000000   0.0000000), wk =   0.4444444

     Dense  grid: 11396989 G-vectors     FFT dimensions: ( 180, 180, 720)

     Smooth grid:  2193539 G-vectors     FFT dimensions: ( 108, 108, 432)

     Estimated max dynamical RAM per process >       2.38 GB

     Estimated total dynamical RAM >     190.42 GB

     Initial potential from superposition of free atoms

     starting charge 1828.78422, renormalised to 1830.00000

     negative rho (up, down):  6.307E-01 0.000E+00
     Starting wfcs are 1602 randomized atomic wfcs

     total cpu time spent up to now is       59.5 secs

     Self-consistent Calculation

     iteration #  1     ecut=    60.00 Ry     beta= 0.50
     Davidson diagonalization with overlap
     ethr =  1.00E-02,  avg # of iterations =  2.0

     negative rho (up, down):  5.993E-01 0.000E+00

     total cpu time spent up to now is      158.9 secs

     total energy              =  -14913.30841655 Ry
     Harris-Foulkes estimate   =  -14942.80662359 Ry
     estimated scf accuracy    <     106.32554123 Ry

     iteration #  2     ecut=    60.00 Ry     beta= 0.50
     Davidson diagonalization with overlap
     ethr =  5.81E-03,  avg # of iterations =  2.0

     negative rho (up, down):  5.995E-01 0.000E+00

     total cpu time spent up to now is      256.6 secs

     total energy              =  -14923.20183690 Ry
     Harris-Foulkes estimate   =  -14926.53561636 Ry
     estimated scf accuracy    <      14.64080776 Ry

     iteration #  3     ecut=    60.00 Ry     beta= 0.50
     Davidson diagonalization with overlap
     ethr =  8.00E-04,  avg # of iterations =  2.0

     negative rho (up, down):  6.021E-01 0.000E+00

     total cpu time spent up to now is      361.8 secs

     total energy              =  -14924.92363830 Ry
     Harris-Foulkes estimate   =  -14925.68368666 Ry
     estimated scf accuracy    <      24.41587842 Ry

     iteration #  4     ecut=    60.00 Ry     beta= 0.50
     Davidson diagonalization with overlap
     ethr =  8.00E-04,  avg # of iterations =  1.0

     negative rho (up, down):  6.104E-01 0.000E+00

     total cpu time spent up to now is      451.0 secs

     total energy              =  -14924.72608428 Ry
     Harris-Foulkes estimate   =  -14925.23442509 Ry
     estimated scf accuracy    <       4.05886152 Ry

     iteration #  5     ecut=    60.00 Ry     beta= 0.50
     Davidson diagonalization with overlap
     ethr =  2.22E-04,  avg # of iterations =  6.0

     negative rho (up, down):  6.175E-01 0.000E+00

     total cpu time spent up to now is      561.2 secs

     total energy              =  -14924.72727577 Ry
     Harris-Foulkes estimate   =  -14924.93361722 Ry
     estimated scf accuracy    <      11.95842786 Ry

     iteration #  6     ecut=    60.00 Ry     beta= 0.50
     Davidson diagonalization with overlap
     ethr =  2.22E-04,  avg # of iterations =  2.0

     negative rho (up, down):  6.225E-01 0.000E+00

     total cpu time spent up to now is      658.3 secs

     total energy              =  -14924.72372722 Ry
     Harris-Foulkes estimate   =  -14924.79147858 Ry
     estimated scf accuracy    <       7.54376389 Ry

     iteration #  7     ecut=    60.00 Ry     beta= 0.50
     Davidson diagonalization with overlap
     ethr =  2.22E-04,  avg # of iterations =  1.0

     negative rho (up, down):  6.271E-01 0.000E+00

     total cpu time spent up to now is      750.4 secs

     total energy              =  -14924.68539468 Ry
     Harris-Foulkes estimate   =  -14924.75714081 Ry
     estimated scf accuracy    <       6.62679305 Ry

     iteration #  8     ecut=    60.00 Ry     beta= 0.50
     Davidson diagonalization with overlap
     ethr =  2.22E-04,  avg # of iterations =  1.8

     negative rho (up, down):  6.306E-01 0.000E+00

     total cpu time spent up to now is      843.6 secs

     total energy              =  -14924.65328024 Ry
     Harris-Foulkes estimate   =  -14924.71487441 Ry
     estimated scf accuracy    <       3.94698040 Ry

     iteration #  9     ecut=    60.00 Ry     beta= 0.50
     Davidson diagonalization with overlap
     ethr =  2.16E-04,  avg # of iterations =  1.5

     negative rho (up, down):  6.315E-01 0.000E+00

     total cpu time spent up to now is      934.4 secs

     total energy              =  -14924.64731323 Ry
     Harris-Foulkes estimate   =  -14924.67247426 Ry
     estimated scf accuracy    <       1.65357253 Ry

     iteration # 10     ecut=    60.00 Ry     beta= 0.50
     Davidson diagonalization with overlap
     ethr =  9.04E-05,  avg # of iterations = 14.2

     negative rho (up, down):  6.312E-01 0.000E+00

     total cpu time spent up to now is     1082.7 secs

     total energy              =  -14924.61578245 Ry
     Harris-Foulkes estimate   =  -14924.65421728 Ry
     estimated scf accuracy    <       1.04938995 Ry

     iteration # 11     ecut=    60.00 Ry     beta= 0.50
     Davidson diagonalization with overlap
     ethr =  5.73E-05,  avg # of iterations =  3.2

     negative rho (up, down):  6.307E-01 0.000E+00

     total cpu time spent up to now is     1181.0 secs

     total energy              =  -14924.60214411 Ry
     Harris-Foulkes estimate   =  -14924.62348321 Ry
     estimated scf accuracy    <       0.51220171 Ry

     iteration # 12     ecut=    60.00 Ry     beta= 0.50
     Davidson diagonalization with overlap
     ethr =  2.80E-05,  avg # of iterations = 12.5

     negative rho (up, down):  6.312E-01 0.000E+00

     total cpu time spent up to now is     1315.9 secs

     total energy              =  -14924.59848656 Ry
     Harris-Foulkes estimate   =  -14924.60656498 Ry
     estimated scf accuracy    <       0.23375762 Ry

     iteration # 13     ecut=    60.00 Ry     beta= 0.50
     Davidson diagonalization with overlap
     c_bands:  1 eigenvalues not converged
     ethr =  1.28E-05,  avg # of iterations = 14.0

     negative rho (up, down):  6.409E-01 0.000E+00

     total cpu time spent up to now is     1456.5 secs

     total energy              =  -14924.59149289 Ry
     Harris-Foulkes estimate   =  -14924.59991301 Ry
     estimated scf accuracy    <       0.13469605 Ry

     iteration # 14     ecut=    60.00 Ry     beta= 0.50
     Davidson diagonalization with overlap
     ethr =  7.36E-06,  avg # of iterations = 14.2

     negative rho (up, down):  6.932E-01 0.000E+00

     total cpu time spent up to now is     1600.3 secs

     total energy              =  -14924.58444477 Ry
     Harris-Foulkes estimate   =  -14924.59260948 Ry
     estimated scf accuracy    <       0.08099270 Ry

     iteration # 15     ecut=    60.00 Ry     beta= 0.50
     Davidson diagonalization with overlap
     ethr =  4.43E-06,  avg # of iterations = 13.2

     negative rho (up, down):  7.313E-01 0.000E+00

     total cpu time spent up to now is     1750.4 secs

     total energy              =  -14924.57829843 Ry
     Harris-Foulkes estimate   =  -14924.58572874 Ry
     estimated scf accuracy    <       0.04995009 Ry

     iteration # 16     ecut=    60.00 Ry     beta= 0.50
     Davidson diagonalization with overlap
     ethr =  2.73E-06,  avg # of iterations = 17.0

     negative rho (up, down):  7.634E-01 0.000E+00

     total cpu time spent up to now is     1908.0 secs

     total energy              =  -14924.57365971 Ry
     Harris-Foulkes estimate   =  -14924.57930266 Ry
     estimated scf accuracy    <       0.04871089 Ry

     iteration # 17     ecut=    60.00 Ry     beta= 0.50
     Davidson diagonalization with overlap
     ethr =  2.66E-06,  avg # of iterations = 15.5

     negative rho (up, down):  8.177E-01 0.000E+00

     total cpu time spent up to now is     2061.7 secs

     total energy              =  -14924.56772948 Ry
     Harris-Foulkes estimate   =  -14924.57444852 Ry
     estimated scf accuracy    <       0.02966458 Ry

     iteration # 18     ecut=    60.00 Ry     beta= 0.50
     Davidson diagonalization with overlap
     ethr =  1.62E-06,  avg # of iterations = 11.8

     negative rho (up, down):  7.998E-01 0.000E+00

     total cpu time spent up to now is     2212.0 secs

     total energy              =  -14924.56530193 Ry
     Harris-Foulkes estimate   =  -14924.56834903 Ry
     estimated scf accuracy    <       0.01241422 Ry

     iteration # 19     ecut=    60.00 Ry     beta= 0.50
     Davidson diagonalization with overlap
     c_bands:  1 eigenvalues not converged
     ethr =  6.78E-07,  avg # of iterations = 14.8

     negative rho (up, down):  7.277E-01 0.000E+00

     total cpu time spent up to now is     2363.4 secs

     total energy              =  -14924.56248355 Ry
     Harris-Foulkes estimate   =  -14924.56576408 Ry
     estimated scf accuracy    <       0.01106886 Ry

     iteration # 20     ecut=    60.00 Ry     beta= 0.50
     Davidson diagonalization with overlap
     ethr =  6.05E-07,  avg # of iterations =  8.0

     negative rho (up, down):  6.978E-01 0.000E+00

     total cpu time spent up to now is     2486.4 secs

     total energy              =  -14924.56187319 Ry
     Harris-Foulkes estimate   =  -14924.56286538 Ry
     estimated scf accuracy    <       0.00355258 Ry

     iteration # 21     ecut=    60.00 Ry     beta= 0.50
     Davidson diagonalization with overlap
     c_bands:  1 eigenvalues not converged
     ethr =  1.94E-07,  avg # of iterations =  9.0

     negative rho (up, down):  6.673E-01 0.000E+00

     total cpu time spent up to now is     2607.1 secs

     total energy              =  -14924.56169891 Ry
     Harris-Foulkes estimate   =  -14924.56206614 Ry
     estimated scf accuracy    <       0.00286248 Ry

     iteration # 22     ecut=    60.00 Ry     beta= 0.50
     Davidson diagonalization with overlap
     c_bands:  3 eigenvalues not converged
     c_bands:  3 eigenvalues not converged
     ethr =  1.56E-07,  avg # of iterations = 14.0

     negative rho (up, down):  6.397E-01 0.000E+00

     total cpu time spent up to now is     2751.8 secs

     total energy              =  -14924.56168619 Ry
     Harris-Foulkes estimate   =  -14924.56179766 Ry
     estimated scf accuracy    <       0.00103631 Ry

     iteration # 23     ecut=    60.00 Ry     beta= 0.50
     Davidson diagonalization with overlap
     c_bands:  2 eigenvalues not converged
     c_bands:  1 eigenvalues not converged
     ethr =  5.66E-08,  avg # of iterations = 17.5

     negative rho (up, down):  6.355E-01 0.000E+00

     total cpu time spent up to now is     2913.8 secs

     total energy              =  -14924.56180861 Ry
     Harris-Foulkes estimate   =  -14924.56172805 Ry
     estimated scf accuracy    <       0.00074169 Ry

     iteration # 24     ecut=    60.00 Ry     beta= 0.50
     Davidson diagonalization with overlap
     c_bands:  2 eigenvalues not converged
     c_bands:  1 eigenvalues not converged
     ethr =  4.05E-08,  avg # of iterations = 14.0

     negative rho (up, down):  6.345E-01 0.000E+00

     total cpu time spent up to now is     3054.5 secs

     total energy              =  -14924.56183181 Ry
     Harris-Foulkes estimate   =  -14924.56183716 Ry
     estimated scf accuracy    <       0.00017337 Ry

     iteration # 25     ecut=    60.00 Ry     beta= 0.50
     Davidson diagonalization with overlap
     c_bands:  1 eigenvalues not converged
     ethr =  9.47E-09,  avg # of iterations =  7.2

     negative rho (up, down):  6.343E-01 0.000E+00

     total cpu time spent up to now is     3166.9 secs

     total energy              =  -14924.56183373 Ry
     Harris-Foulkes estimate   =  -14924.56184252 Ry
     estimated scf accuracy    <       0.00005918 Ry

     iteration # 26     ecut=    60.00 Ry     beta= 0.50
     Davidson diagonalization with overlap
     ethr =  3.23E-09,  avg # of iterations =  2.2

     negative rho (up, down):  6.340E-01 0.000E+00

     total cpu time spent up to now is     3261.6 secs

     total energy              =  -14924.56184308 Ry
     Harris-Foulkes estimate   =  -14924.56183809 Ry
     estimated scf accuracy    <       0.00002810 Ry

     iteration # 27     ecut=    60.00 Ry     beta= 0.50
     Davidson diagonalization with overlap
     ethr =  1.54E-09,  avg # of iterations =  2.0

     negative rho (up, down):  6.342E-01 0.000E+00

     total cpu time spent up to now is     3355.8 secs

     total energy              =  -14924.56184730 Ry
     Harris-Foulkes estimate   =  -14924.56184545 Ry
     estimated scf accuracy    <       0.00002167 Ry

     iteration # 28     ecut=    60.00 Ry     beta= 0.50
     Davidson diagonalization with overlap
     ethr =  1.18E-09,  avg # of iterations =  1.5

     negative rho (up, down):  6.341E-01 0.000E+00

     total cpu time spent up to now is     3446.3 secs

     total energy              =  -14924.56184777 Ry
     Harris-Foulkes estimate   =  -14924.56184820 Ry
     estimated scf accuracy    <       0.00001137 Ry

     iteration # 29     ecut=    60.00 Ry     beta= 0.50
     Davidson diagonalization with overlap
     ethr =  6.21E-10,  avg # of iterations =  1.0

     negative rho (up, down):  6.341E-01 0.000E+00

     total cpu time spent up to now is     3536.7 secs

     total energy              =  -14924.56184832 Ry
     Harris-Foulkes estimate   =  -14924.56184811 Ry
     estimated scf accuracy    <       0.00000378 Ry

     iteration # 30     ecut=    60.00 Ry     beta= 0.50
     Davidson diagonalization with overlap
     ethr =  2.07E-10,  avg # of iterations =  1.5

     negative rho (up, down):  6.343E-01 0.000E+00

     total cpu time spent up to now is     3627.9 secs

     total energy              =  -14924.56184855 Ry
     Harris-Foulkes estimate   =  -14924.56184848 Ry
     estimated scf accuracy    <       0.00000267 Ry

     iteration # 31     ecut=    60.00 Ry     beta= 0.50
     Davidson diagonalization with overlap
     ethr =  1.46E-10,  avg # of iterations =  1.0

     negative rho (up, down):  6.344E-01 0.000E+00

     total cpu time spent up to now is     3717.4 secs

     total energy              =  -14924.56184852 Ry
     Harris-Foulkes estimate   =  -14924.56184865 Ry
     estimated scf accuracy    <       0.00000185 Ry

     iteration # 32     ecut=    60.00 Ry     beta= 0.50
     Davidson diagonalization with overlap
     ethr =  1.01E-10,  avg # of iterations =  1.0

     negative rho (up, down):  6.346E-01 0.000E+00

     total cpu time spent up to now is     3807.5 secs

     total energy              =  -14924.56184813 Ry
     Harris-Foulkes estimate   =  -14924.56184855 Ry
     estimated scf accuracy    <       0.00000097 Ry

     iteration # 33     ecut=    60.00 Ry     beta= 0.50
     Davidson diagonalization with overlap
     ethr =  5.33E-11,  avg # of iterations =  1.2

     negative rho (up, down):  6.348E-01 0.000E+00

     total cpu time spent up to now is     3897.8 secs

     total energy              =  -14924.56184781 Ry
     Harris-Foulkes estimate   =  -14924.56184816 Ry
     estimated scf accuracy    <       0.00000072 Ry

     iteration # 34     ecut=    60.00 Ry     beta= 0.50
     Davidson diagonalization with overlap
     ethr =  3.93E-11,  avg # of iterations =  1.0

     negative rho (up, down):  6.349E-01 0.000E+00

     total cpu time spent up to now is     3987.0 secs

     total energy              =  -14924.56184761 Ry
     Harris-Foulkes estimate   =  -14924.56184781 Ry
     estimated scf accuracy    <       0.00000029 Ry

     iteration # 35     ecut=    60.00 Ry     beta= 0.50
     Davidson diagonalization with overlap
     ethr =  1.60E-11,  avg # of iterations =  1.0

     negative rho (up, down):  6.350E-01 0.000E+00

     total cpu time spent up to now is     4076.2 secs

     total energy              =  -14924.56184748 Ry
     Harris-Foulkes estimate   =  -14924.56184762 Ry
     estimated scf accuracy    <       0.00000020 Ry

     iteration # 36     ecut=    60.00 Ry     beta= 0.50
     Davidson diagonalization with overlap
     ethr =  1.07E-11,  avg # of iterations =  1.0

     negative rho (up, down):  6.350E-01 0.000E+00

     total cpu time spent up to now is     4168.5 secs

     total energy              =  -14924.56184742 Ry
     Harris-Foulkes estimate   =  -14924.56184747 Ry
     estimated scf accuracy    <       0.00000010 Ry

     iteration # 37     ecut=    60.00 Ry     beta= 0.50
     Davidson diagonalization with overlap
     ethr =  5.47E-12,  avg # of iterations =  1.0

     negative rho (up, down):  6.351E-01 0.000E+00

     total cpu time spent up to now is     4258.4 secs

     total energy              =  -14924.56184730 Ry
     Harris-Foulkes estimate   =  -14924.56184741 Ry
     estimated scf accuracy    <       0.00000006 Ry

     iteration # 38     ecut=    60.00 Ry     beta= 0.50
     Davidson diagonalization with overlap
     ethr =  3.33E-12,  avg # of iterations =  1.5

     negative rho (up, down):  6.351E-01 0.000E+00

     total cpu time spent up to now is     4349.5 secs

     total energy              =  -14924.56184719 Ry
     Harris-Foulkes estimate   =  -14924.56184730 Ry
     estimated scf accuracy    <       0.00000004 Ry

     iteration # 39     ecut=    60.00 Ry     beta= 0.50
     Davidson diagonalization with overlap
     ethr =  2.22E-12,  avg # of iterations =  1.8

     negative rho (up, down):  6.352E-01 0.000E+00

     total cpu time spent up to now is     4443.1 secs

     total energy              =  -14924.56184712 Ry
     Harris-Foulkes estimate   =  -14924.56184718 Ry
     estimated scf accuracy    <       0.00000001 Ry

     iteration # 40     ecut=    60.00 Ry     beta= 0.50
     Davidson diagonalization with overlap
     ethr =  6.72E-13,  avg # of iterations =  2.0

     negative rho (up, down):  6.352E-01 0.000E+00

     total cpu time spent up to now is     4534.5 secs

     End of self-consistent calculation

          k = 0.0000 0.0000 0.0000 (274311 PWs)   bands (ev):

   -37.9356 -37.9134 -37.9081 -37.9054 -37.8998 -37.8988 -37.8868 -37.8816
   -37.8790 -37.8762 -37.8679 -37.8663 -37.8575 -37.8519 -35.4725 -35.4361
   -22.5726 -22.5690 -22.4619 -22.4581 -22.4471 -22.4431 -22.4430 -22.4397
   -22.4275 -22.4264 -22.4237 -22.4231 -22.4094 -22.4059 -22.3496 -22.3235
   -22.3200 -22.2608 -22.2524 -22.2500 -22.2198 -22.1949 -22.1931 -22.1591
   -22.1518 -22.1119 -22.0934 -22.0731 -22.0648 -22.0434 -21.9822 -21.9460
   -18.5178 -18.4885 -18.4801 -18.4519 -18.4344 -18.4303 -18.4068 -18.4048
   -18.4029 -18.3789 -18.2478 -18.2345 -18.2337 -18.2259 -18.2200 -18.2178
   -18.2172 -18.2149 -18.2070 -18.2062 -18.2061 -18.2045 -18.1986 -18.1984
   -18.1910 -18.1903 -18.1880 -18.1878 -18.1772 -18.1765 -18.1684 -18.1605
   -18.0349 -18.0297 -18.0095 -18.0074 -18.0005 -17.9802 -17.9105 -17.9023
   -17.8801 -17.8723 -16.7311 -16.7031 -16.6959 -16.6950 -16.6662 -16.6610
   -15.2620 -15.2409 -14.6965 -14.6840 -14.6176 -14.5984 -14.5847 -14.5739
   -14.5685 -14.5665 -14.5618 -14.5572 -14.5517 -14.5494 -14.4885 -14.4693
   -14.4473 -14.4172 -14.4035 -14.3886 -14.3755 -14.3744 -14.3687 -14.3448
   -14.3436 -14.3426 -14.3331 -14.3269 -14.3122 -14.3062 -14.3014 -14.3006
   -14.2825 -14.2755 -14.2633 -14.2521 -14.2155 -14.1832 -14.1826 -14.1777
   -14.1765 -14.1659 -14.1629 -14.1586 -14.1572 -14.1007 -14.0976 -14.0808
   -14.0776 -14.0770 -14.0619 -14.0592 -14.0437 -14.0372 -14.0291 -14.0251
   -14.0164 -14.0146 -14.0083 -14.0005 -13.9999 -13.9786 -13.9559 -13.9402
   -13.9290 -13.9164 -13.8979 -13.8926 -13.8896 -13.8895 -13.8878 -13.8771
   -13.8748 -13.8727 -13.8646 -13.8520 -13.8289 -13.8206 -13.8162 -13.8034
   -13.7943 -13.7911 -13.7653 -13.7534 -13.7285 -13.7251 -13.7173 -13.6012
   -13.5974 -13.5933 -13.5888 -13.5753 -13.5601 -13.5591 -13.5577 -13.5565
   -13.5556 -13.5544 -13.5532 -13.5518 -13.5172 -13.5008 -13.4956 -13.4936
   -13.4878 -13.4826 -13.4166 -13.3922 -13.3274 -13.3230 -13.3099 -13.2363
   -12.8690 -12.8462 -12.6886 -12.6856 -12.6845 -12.6773 -12.5663 -12.4391
    -8.5313  -8.5280  -8.2443  -8.2408  -8.2389  -8.0526  -8.0214  -8.0180
    -8.0176  -8.0142  -8.0055  -8.0021  -7.9939  -7.9906  -7.9709  -7.8432
    -7.8127  -7.8088  -7.7861  -7.7818  -7.7744  -7.7703  -7.7681  -7.7638
    -7.7439  -7.7400  -7.7396  -7.7387  -7.7362  -7.7361  -7.7321  -7.7310
    -7.7206  -7.7172  -7.6827  -7.6748  -7.6714  -7.6510  -7.6471  -7.6438
    -7.6098  -7.5966  -7.5958  -7.5788  -7.5705  -7.5671  -7.5616  -7.5558
    -7.5556  -7.5400  -7.5297  -7.5269  -7.5264  -7.5231  -7.5075  -7.4882
    -7.4524  -7.4371  -7.4279  -7.4233  -7.4228  -7.4164  -7.4157  -7.4130
    -7.4122  -7.3945  -7.3911  -7.3890  -7.3858  -7.3804  -7.3795  -7.3771
    -7.3053  -7.2958  -7.2806  -7.2772  -7.2617  -7.2582  -7.2516  -7.2085
    -7.1869  -7.1638  -7.1541  -7.1351  -7.1017  -7.0920  -7.0840  -7.0016
    -7.0003  -6.9993  -6.9929  -6.9665  -6.9519  -6.9419  -6.8787  -6.8774
    -4.0120  -3.9848  -3.4656  -3.4222  -2.9983  -2.9905  -2.8733  -2.8659
    -2.8657  -2.8480  -2.8418  -2.8407  -2.7999  -2.7884  -2.7783  -2.7766
    -2.7698  -2.7329  -2.6699  -2.6640  -2.6156  -2.6112  -2.5929  -2.5884
    -2.5620  -2.5228  -2.4995  -2.4886  -2.4826  -2.4762  -2.4545  -2.4451
    -2.4398  -2.4293  -2.3116  -2.2844  -2.2440  -2.2428  -2.1013  -2.0717
    -2.0141  -2.0136  -1.9956  -1.9950  -1.9877  -1.9870  -1.9820  -1.9802
    -1.9148  -1.9129  -1.9099  -1.9015  -1.8851  -1.8826  -1.8806  -1.8739
    -1.8413  -1.8306  -1.8222  -1.8169  -1.8126  -1.8120  -1.8087  -1.8065
    -1.8039  -1.8010  -1.8006  -1.7986  -1.7927  -1.7885  -1.7846  -1.7832
    -1.7326  -1.7241  -1.7202  -1.7085  -1.7063  -1.7011  -1.6879  -1.6875
    -1.6869  -1.6649  -1.6343  -1.6108  -1.6057  -1.6038  -1.6012  -1.6009
    -1.6007  -1.5996  -1.5979  -1.5969  -1.5943  -1.5801  -1.5719  -1.5407
    -1.5340  -1.5088  -1.4718  -1.4583  -1.4554  -1.4191  -1.3803  -1.3576
    -1.3365  -1.3250  -1.3173  -1.3149  -1.3148  -1.3112  -1.3082  -1.3055
    -1.3040  -1.2984  -1.2918  -1.2879  -1.2855  -1.2829  -1.2462  -1.2364
    -1.2296  -1.2256  -1.2214  -1.2208  -1.1985  -1.1906  -1.1875  -1.1803
    -1.1780  -1.1747  -1.1586  -1.1531  -1.1386  -1.1244  -1.1108  -1.0896
    -1.0891  -1.0624  -1.0433  -1.0350  -1.0259  -1.0118  -1.0069  -0.9398
    -0.9189  -0.8944  -0.8344  -0.8317  -0.8289  -0.8109  -0.8094  -0.7864
    -0.7703  -0.7570  -0.7111  -0.7101  -0.6945  -0.6942  -0.6840  -0.6828
    -0.6810  -0.6749  -0.6691  -0.6678  -0.6620  -0.6579  -0.6570  -0.6475
    -0.6382  -0.6247  -0.6128  -0.6087  -0.5968  -0.5882  -0.5728  -0.5668
    -0.5484  -0.5369  -0.5358  -0.5343  -0.5223  -0.5127  -0.5025  -0.5008
    -0.4989  -0.4833  -0.4825  -0.4746  -0.4679  -0.4511  -0.4502  -0.4450
    -0.4342  -0.4111  -0.3991  -0.3862  -0.3701  -0.3658  -0.3592  -0.3369
    -0.3316  -0.3263  -0.3204  -0.2992  -0.2937  -0.2462  -0.2390  -0.2357
    -0.2349  -0.2316  -0.2182  -0.2098  -0.1993  -0.1913  -0.1857  -0.1827
    -0.1796  -0.1731  -0.1510  -0.1135  -0.0949  -0.0901  -0.0752  -0.0672
    -0.0663  -0.0474  -0.0345  -0.0321  -0.0316  -0.0213  -0.0126  -0.0115
    -0.0094  -0.0091  -0.0047   0.0030   0.0072   0.0106   0.0119   0.0153
     0.0245   0.0324   0.0391   0.0444   0.0509   0.0551   0.0584   0.0690
     0.0732   0.0791   0.0804   0.0806   0.0873   0.0906   0.1002   0.1010
     0.1049   0.1065   0.1120   0.1138   0.1213   0.1235   0.1236   0.1399
     0.1463   0.1548   0.1690   0.1710   0.1843   0.1894   0.2174   0.2190
     0.2365   0.2391   0.2408   0.2444   0.2819   0.2847   0.2928   0.3070
     0.3394   0.3467   0.3510   0.3632   0.4008   0.4317   0.4459   0.4538
     0.4962   0.5234   0.5239   0.5272   0.5354   0.5362   0.5393   0.5398
     0.5433   0.5968   0.5978   0.6002   0.6097   0.6151   0.6201   0.6217
     0.6308   0.6437   0.6463   0.6480   0.6523   0.6673   0.6746   0.6774
     0.6823   0.6907   0.6950   0.6965   0.6973   0.6988   0.7085   0.7101
     0.7126   0.7204   0.7235   0.7272   0.7386   0.7405   0.7467   0.7479
     0.7561   0.7618   0.7636   0.7659   0.8026   0.8094   0.8199   0.8260
     0.8343   0.8402   0.8453   0.8593   0.8609   0.8699   0.8733   0.8836
     0.8848   0.8905   0.8982   0.9030   0.9088   0.9105   0.9137   0.9168
     0.9323   0.9331   0.9384   0.9460   0.9522   0.9587   0.9607   0.9677
     0.9801   0.9805   0.9817   0.9849   0.9969   0.9993   1.0078   1.0251
     1.0293   1.0311   1.0425   1.0494   1.0499   1.0756   1.0920   1.1808
     1.2222   1.2522   1.2663   1.2745   1.2789   1.3076   1.3236   1.3237
     1.3455   1.3576   1.3696   1.3745   1.3814   1.3935   1.3941   1.3942
     1.3983   1.4023   1.4034   1.4150   1.4220   1.4256   1.4279   1.4331
     1.4344   1.4434   1.4652   1.4689   1.4697   1.4741   1.4742   1.4861
     1.4862   1.4927   1.4941   1.4952   1.5132   1.5238   1.5278   1.5282
     1.5313   1.5314   1.5323   1.5346   1.5360   1.5377   1.5464   1.5496
     1.5520   1.5579   1.5591   1.5602   1.5686   1.5719   1.5799   1.5858
     1.5939   1.5976   1.5981   1.5992   1.6070   1.6097   1.6193   1.6201
     1.6218   1.6304   1.6376   1.6398   1.6484   1.6539   1.6560   1.6604
     1.6636   1.6670   1.6675   1.6691   1.6744   1.6767   1.6805   1.6810
     1.6818   1.6849   1.6887   1.6915   1.6929   1.7000   1.7028   1.7070
     1.7109   1.7118   1.7148   1.7151   1.7280   1.7303   1.7365   1.7489
     1.7563   1.7621   1.7728   1.7814   1.7851   1.8024   1.8041   1.8175
     1.8184   1.8226   1.8245   1.8549   1.8747   1.8894   1.9031   1.9147
     1.9161   1.9198   1.9457   1.9621   1.9628   1.9634   1.9662   1.9684
     1.9714   1.9723   1.9789   2.0068   2.0119   2.0123   2.0255   2.0257
     2.0270   2.0313   2.0471   2.0534   2.0575   2.0647   2.0680   2.0709
     2.0721   2.0789   2.0879   2.0939   2.1055   2.1087   2.1299   2.1378
     2.1445   2.1475   2.1495   2.1499   2.1587   2.1618   2.1715   2.1806
     2.1828   2.2056   2.2088   2.2122   2.2173   2.2225   2.2249   2.2258
     2.2281   2.2315   2.2333   2.2388   2.2680   2.2744   2.2928   2.2946
     2.3039   2.3070   2.3167   2.3194   2.3198   2.3202   2.3226   2.3229
     2.3244   2.3287   2.3313   2.3436   2.3458   2.3525   2.3543   2.3594
     2.3690   2.4098   2.4246   2.4265   2.5628   2.5715   2.5785   2.5961
     2.6541   2.6747   2.6776   2.6848   2.6890   2.6929   2.6947   2.6971
     2.7113   2.7165   2.7203   2.7206   2.7219   2.7238   2.7598   2.7683
     2.7873   2.8325   2.8363   2.8388   2.8537   2.8539   2.8746   2.8879
     2.8913   2.8928   2.9074   2.9205   2.9571   3.0026   3.0072   3.0429
     3.1473   3.1498   3.1713   3.1780   3.2625   3.2876   3.4057   3.4136
     3.4206   3.4223   3.4245   3.4312   3.4341   3.4381   3.5208   3.5293
     3.5505   3.5611   3.5632   3.5680   3.5721   3.5789   3.6616   3.7011
     3.7107   3.7263   3.7436   3.7487   3.7512   3.7624   3.7699   3.7715
     3.8231   3.8319   3.9833   4.1660   4.9658   4.9754   5.0394   5.0501
     5.4515   5.4785   5.7956   5.9977   6.0260   6.0292   6.1165   6.3261
     6.6598   6.7640   6.8205   6.8592   6.8714   6.8728   6.8757   6.8817
     6.8825   6.8829   6.8833   6.8877   6.8885   6.9021   6.9814   7.0289
     7.2323   7.2931   7.3087   7.3092   7.3455   7.3571   7.3661   7.3776
     7.4090   7.4152   7.4609   7.5262   7.5401   7.6090   7.6131   7.7278
     7.8081   7.8132   7.8292   7.8425   7.8542   7.8550   7.8723   7.9136
     7.9491   7.9619   8.0058   8.1022   8.1062   8.1264   8.1320   8.1327
     8.2315   8.2828   8.3003   8.3185   8.3282   8.5166   8.5268   8.5286
     8.5320   8.5323   8.5342   8.5384   8.5611   8.5662   8.6379   8.7174
     8.7483   8.8046   8.8074   8.8140   8.8313   8.8472   8.8507   8.8588
     8.8617   8.8777   8.8869   8.9012   8.9131   8.9346   8.9779   8.9839
     8.9961   9.0135   9.0206   9.0298   9.0351   9.0588   9.0635   9.0758
     9.0840   9.0865   9.1004   9.1362   9.1733   9.1810   9.1911   9.2051
     9.2125   9.2163   9.2320   9.2496   9.2555   9.2584   9.2694   9.2870
     9.3287   9.3324   9.3512   9.3702   9.3732   9.3906   9.4000   9.4068
     9.4074   9.4143   9.4213   9.4230   9.4278   9.4309   9.4342   9.4583
     9.4598   9.4691   9.4856   9.5381   9.5532   9.5609   9.5624   9.5969
     9.6094   9.6107   9.6207   9.6292   9.6355   9.6373   9.6384   9.6402
     9.6664   9.6859

          k = 0.2326 0.2390 0.0000 (274145 PWs)   bands (ev):

   -37.9356 -37.9134 -37.9076 -37.9061 -37.8998 -37.8991 -37.8852 -37.8827
   -37.8784 -37.8769 -37.8677 -37.8670 -37.8558 -37.8531 -35.4725 -35.4361
   -22.5544 -22.5508 -22.5062 -22.5026 -22.4514 -22.4476 -22.4475 -22.4440
   -22.4224 -22.4189 -22.4137 -22.4101 -22.3781 -22.3746 -22.3397 -22.3378
   -22.3342 -22.2799 -22.2473 -22.2423 -22.2148 -22.2089 -22.1968 -22.1654
   -22.1440 -22.1121 -22.0908 -22.0709 -22.0619 -22.0388 -21.9844 -21.9485
   -18.4831 -18.4539 -18.4486 -18.4319 -18.4208 -18.4062 -18.4043 -18.4011
   -18.3810 -18.3798 -18.3764 -18.3505 -18.3473 -18.3183 -18.3147 -18.2878
   -18.2356 -18.2268 -18.2115 -18.2078 -18.2052 -18.2011 -18.1942 -18.1822
   -18.1794 -18.1666 -18.1167 -18.0892 -18.0838 -18.0666 -18.0543 -18.0368
   -18.0316 -18.0293 -18.0209 -18.0047 -18.0033 -17.9921 -17.9562 -17.9498
   -17.9262 -17.9198 -16.7313 -16.7049 -16.6973 -16.6953 -16.6681 -16.6624
   -15.1615 -15.1407 -14.8923 -14.8713 -14.6484 -14.6378 -14.5877 -14.5768
   -14.5733 -14.5619 -14.5616 -14.5465 -14.5046 -14.4765 -14.4740 -14.4427
   -14.4392 -14.4147 -14.4082 -14.3905 -14.3843 -14.3736 -14.3705 -14.3607
   -14.3510 -14.3370 -14.3299 -14.3153 -14.3019 -14.2985 -14.2851 -14.2685
   -14.2616 -14.2584 -14.2488 -14.2350 -14.2123 -14.1914 -14.1792 -14.1779
   -14.1717 -14.1609 -14.1541 -14.1470 -14.1246 -14.1222 -14.1202 -14.1167
   -14.1121 -14.0884 -14.0753 -14.0546 -14.0260 -14.0149 -14.0092 -13.9964
   -13.9951 -13.9914 -13.9765 -13.9622 -13.9544 -13.9492 -13.9477 -13.9362
   -13.9332 -13.9305 -13.9136 -13.9099 -13.9024 -13.9003 -13.8909 -13.8748
   -13.8735 -13.8697 -13.8626 -13.8471 -13.8351 -13.8283 -13.8199 -13.8075
   -13.8024 -13.7964 -13.7840 -13.7761 -13.7540 -13.7467 -13.7314 -13.6724
   -13.6065 -13.6023 -13.5986 -13.5942 -13.5831 -13.5787 -13.5666 -13.5622
   -13.5417 -13.5367 -13.5201 -13.5151 -13.5116 -13.5066 -13.4925 -13.4914
   -13.4875 -13.4808 -13.4390 -13.3846 -13.3175 -13.3120 -13.3005 -13.2646
   -12.8282 -12.8106 -12.7329 -12.7218 -12.6763 -12.6115 -12.6011 -12.4932
    -8.4241  -8.4207  -8.2279  -8.2246  -8.1352  -8.1246  -8.1211  -7.9577
    -7.9413  -7.9163  -7.9130  -7.8604  -7.8569  -7.8488  -7.8132  -7.8102
    -7.8095  -7.8065  -7.7867  -7.7827  -7.7800  -7.7642  -7.7607  -7.7604
    -7.7589  -7.7571  -7.7550  -7.7444  -7.7407  -7.7297  -7.7258  -7.7231
    -7.7180  -7.7145  -7.7125  -7.7088  -7.6999  -7.6864  -7.6827  -7.6517
    -7.6452  -7.6373  -7.6102  -7.6068  -7.5906  -7.5861  -7.5713  -7.5527
    -7.5299  -7.5265  -7.5123  -7.5043  -7.4986  -7.4966  -7.4949  -7.4852
    -7.4745  -7.4658  -7.4583  -7.4550  -7.4491  -7.4376  -7.4256  -7.4121
    -7.4099  -7.4067  -7.4055  -7.3727  -7.3722  -7.3691  -7.3522  -7.3484
    -7.3450  -7.3308  -7.3276  -7.3273  -7.3245  -7.3196  -7.3162  -7.3040
    -7.2433  -7.2393  -7.1888  -7.1810  -7.1517  -7.1168  -7.0882  -7.0636
    -7.0414  -7.0261  -7.0098  -6.9846  -6.9715  -6.9378  -6.9210  -6.8925
    -3.8512  -3.8243  -3.4163  -3.3896  -3.3199  -3.2761  -2.9756  -2.9646
    -2.9391  -2.9206  -2.9031  -2.8937  -2.7957  -2.7754  -2.7689  -2.7541
    -2.7415  -2.6924  -2.6220  -2.5813  -2.5791  -2.5574  -2.5529  -2.5313
    -2.5102  -2.5027  -2.4902  -2.4857  -2.4565  -2.4222  -2.3128  -2.2951
    -2.2355  -2.2315  -2.2129  -2.2126  -2.2023  -2.1974  -2.1939  -2.1895
    -2.1731  -2.1453  -2.1382  -2.1148  -2.1146  -2.1000  -2.0766  -2.0464
    -1.9940  -1.9653  -1.9618  -1.9520  -1.9145  -1.9086  -1.9063  -1.8983
    -1.8896  -1.8533  -1.8510  -1.8433  -1.8366  -1.8299  -1.8245  -1.8148
    -1.8093  -1.8033  -1.8018  -1.7852  -1.7838  -1.7798  -1.7745  -1.7556
    -1.7331  -1.7157  -1.7093  -1.7002  -1.6987  -1.6941  -1.6917  -1.6907
    -1.6898  -1.6864  -1.6819  -1.6767  -1.6569  -1.6503  -1.6258  -1.6125
    -1.6054  -1.6033  -1.5867  -1.5722  -1.5221  -1.5030  -1.4959  -1.4842
    -1.4754  -1.4741  -1.4613  -1.4523  -1.4415  -1.4137  -1.4029  -1.3920
    -1.3768  -1.3660  -1.3518  -1.3448  -1.3397  -1.3386  -1.3357  -1.3273
    -1.3185  -1.3147  -1.3030  -1.2980  -1.2919  -1.2902  -1.2397  -1.2136
    -1.1762  -1.1712  -1.1684  -1.1595  -1.1569  -1.1404  -1.1188  -1.1137
    -1.1090  -1.1057  -1.1017  -1.0843  -1.0662  -1.0606  -1.0306  -1.0282
    -1.0072  -0.9974  -0.9932  -0.9786  -0.9500  -0.9207  -0.9066  -0.9035
    -0.8916  -0.8838  -0.8742  -0.8423  -0.8123  -0.7833  -0.7639  -0.7581
    -0.7475  -0.7242  -0.7200  -0.7143  -0.7014  -0.6938  -0.6867  -0.6844
    -0.6598  -0.6498  -0.6391  -0.6326  -0.6265  -0.6151  -0.6100  -0.6066
    -0.5998  -0.5955  -0.5916  -0.5901  -0.5893  -0.5817  -0.5754  -0.5668
    -0.5540  -0.5466  -0.5385  -0.5255  -0.5127  -0.5066  -0.4998  -0.4937
    -0.4792  -0.4650  -0.4567  -0.4414  -0.4319  -0.4274  -0.4233  -0.4145
    -0.4131  -0.4072  -0.4016  -0.3916  -0.3873  -0.3842  -0.3759  -0.3609
    -0.3510  -0.3417  -0.3280  -0.3161  -0.3111  -0.3097  -0.3054  -0.2765
    -0.2701  -0.2657  -0.2517  -0.2494  -0.2381  -0.2236  -0.2205  -0.2111
    -0.2078  -0.2024  -0.1830  -0.1762  -0.1669  -0.1629  -0.1433  -0.1348
    -0.1258  -0.1070  -0.0908  -0.0813  -0.0688  -0.0635  -0.0437  -0.0320
    -0.0276  -0.0176  -0.0009   0.0082   0.0105   0.0218   0.0268   0.0363
     0.0400   0.0501   0.0525   0.0667   0.0709   0.0814   0.0865   0.0932
     0.1013   0.1174   0.1282   0.1307   0.1438   0.1507   0.1601   0.1745
     0.1782   0.1811   0.1920   0.1960   0.2034   0.2110   0.2139   0.2218
     0.2312   0.2344   0.2355   0.2383   0.2423   0.2441   0.2479   0.2540
     0.2617   0.2722   0.2732   0.2820   0.2916   0.2981   0.3059   0.3116
     0.3180   0.3209   0.3355   0.3428   0.3596   0.3670   0.4001   0.4508
     0.4558   0.5234   0.5385   0.5442   0.5477   0.5491   0.5553   0.5629
     0.5701   0.5738   0.5781   0.5805   0.5843   0.5929   0.5943   0.6125
     0.6151   0.6176   0.6248   0.6327   0.6363   0.6376   0.6421   0.6452
     0.6492   0.6579   0.6682   0.6709   0.6763   0.6815   0.6861   0.6972
     0.7007   0.7101   0.7157   0.7246   0.7258   0.7288   0.7381   0.7391
     0.7520   0.7581   0.7625   0.7709   0.7775   0.7810   0.7866   0.7915
     0.7988   0.8011   0.8043   0.8078   0.8156   0.8195   0.8197   0.8230
     0.8255   0.8287   0.8359   0.8471   0.8554   0.8624   0.8753   0.8860
     0.9042   0.9240   0.9359   0.9530   0.9595   0.9675   0.9711   0.9727
     0.9791   1.0075   1.0110   1.0159   1.0318   1.0365   1.0868   1.1000
     1.1134   1.1367   1.1465   1.1771   1.1837   1.1892   1.1903   1.1943
     1.1969   1.2074   1.2134   1.2149   1.2289   1.2680   1.2706   1.2738
     1.2878   1.2885   1.2954   1.3008   1.3028   1.3140   1.3142   1.3291
     1.3351   1.3629   1.3713   1.3810   1.3895   1.3983   1.4013   1.4034
     1.4066   1.4138   1.4200   1.4252   1.4319   1.4342   1.4396   1.4454
     1.4512   1.4545   1.4665   1.4734   1.4761   1.4859   1.4902   1.4930
     1.5000   1.5062   1.5122   1.5179   1.5224   1.5308   1.5338   1.5388
     1.5479   1.5498   1.5532   1.5572   1.5649   1.5715   1.5751   1.5813
     1.5855   1.5900   1.5966   1.6020   1.6088   1.6128   1.6214   1.6225
     1.6258   1.6273   1.6380   1.6435   1.6519   1.6574   1.6584   1.6615
     1.6663   1.6698   1.6742   1.6776   1.6818   1.6875   1.6896   1.6933
     1.6979   1.7014   1.7079   1.7217   1.7251   1.7303   1.7439   1.7516
     1.7613   1.7724   1.7843   1.7916   1.7958   1.8085   1.8144   1.8190
     1.8284   1.8399   1.8411   1.8439   1.8457   1.8543   1.8616   1.8689
     1.8780   1.8849   1.8897   1.8938   1.8990   1.8992   1.9122   1.9252
     1.9275   1.9322   1.9386   1.9472   1.9511   1.9536   1.9558   1.9612
     1.9638   1.9700   1.9763   1.9796   1.9889   1.9910   2.0065   2.0137
     2.0202   2.0322   2.0361   2.0435   2.0479   2.0498   2.0531   2.0581
     2.0642   2.0688   2.0743   2.0751   2.0910   2.0919   2.0927   2.0957
     2.0987   2.1015   2.1137   2.1190   2.1270   2.1297   2.1351   2.1392
     2.1494   2.1581   2.1650   2.1740   2.1783   2.1860   2.1918   2.1944
     2.1986   2.2131   2.2298   2.2405   2.2430   2.2596   2.2636   2.2677
     2.2769   2.2830   2.2925   2.2981   2.3075   2.3576   2.3664   2.3780
     2.4019   2.4271   2.4350   2.4438   2.4790   2.4864   2.4934   2.5153
     2.5169   2.5206   2.5249   2.5564   2.5607   2.5631   2.5730   2.5860
     2.5925   2.5990   2.6128   2.6388   2.6717   2.6738   2.6764   2.7188
     2.7328   2.7512   2.7530   2.7563   2.7666   2.7725   2.8186   2.8381
     2.8477   2.8591   2.8628   2.8711   2.8865   2.8966   2.9043   2.9170
     2.9214   2.9320   2.9676   2.9835   2.9864   2.9914   3.0209   3.0283
     3.0868   3.1025   3.1166   3.1644   3.1941   3.2056   3.2548   3.2606
     3.2647   3.2794   3.2824   3.2828   3.3029   3.3058   3.3432   3.3536
     3.3623   3.3667   3.3791   3.3819   3.3950   3.4144   3.4380   3.4582
     3.5191   3.5586   3.5804   3.6044   3.9207   3.9824   4.0029   4.1168
     4.2146   4.2218   4.3335   4.3493   4.7514   4.7597   4.8291   4.8419
     5.7110   5.7234   6.0075   6.1753   6.2606   6.2644   6.3053   6.3131
     6.3212   6.4173   6.5798   6.6515   6.7635   6.7728   6.7938   6.7983
     6.8088   6.8426   6.8727   6.9002   6.9594   7.0534   7.0590   7.0987
     7.1284   7.1329   7.1658   7.2111   7.2366   7.2666   7.3111   7.4369
     7.4719   7.4806   7.5618   7.5818   7.6168   7.6872   7.7183   7.7797
     7.7939   7.8132   7.8211   7.8329   7.8722   7.9022   7.9101   7.9356
     7.9466   7.9614   7.9845   8.0280   8.0483   8.0652   8.1258   8.1449
     8.1529   8.1652   8.1771   8.2246   8.2424   8.2771   8.3256   8.3512
     8.4369   8.4411   8.4476   8.4593   8.5494   8.6530   8.6711   8.6832
     8.6934   8.7067   8.7446   8.7861   8.8240   8.8439   8.8699   8.8774
     8.8989   8.9102   8.9281   8.9332   8.9515   8.9788   8.9863   9.0024
     9.0120   9.0223   9.0269   9.0558   9.0637   9.0724   9.1021   9.1064
     9.1199   9.1300   9.1326   9.1545   9.1561   9.1722   9.1912   9.2139
     9.2216   9.2448   9.2516   9.2731   9.2803   9.2907   9.3052   9.3280
     9.3367   9.3465   9.3757   9.3770   9.3981   9.4056   9.4232   9.4263
     9.4517   9.4661   9.4773   9.5081   9.5155   9.5277   9.5366   9.5419
     9.5659   9.5816   9.5875   9.6047   9.6237   9.6329   9.6453   9.6605
     9.6776   9.6814   9.7004   9.7064   9.7268   9.7429   9.7561   9.7722
     9.7982   9.8030

          k = 0.0000 0.4779 0.0000 (274115 PWs)   bands (ev):

   -37.9355 -37.9134 -37.9077 -37.9059 -37.9008 -37.8982 -37.8844 -37.8835
   -37.8786 -37.8768 -37.8689 -37.8658 -37.8551 -37.8537 -35.4725 -35.4361
   -22.5351 -22.5315 -22.5053 -22.5017 -22.4948 -22.4911 -22.4585 -22.4550
   -22.4088 -22.4052 -22.3813 -22.3778 -22.3749 -22.3712 -22.3528 -22.3492
   -22.3315 -22.2872 -22.2416 -22.2368 -22.2264 -22.2140 -22.1881 -22.1837
   -22.1336 -22.1156 -22.0887 -22.0700 -22.0502 -22.0444 -21.9852 -21.9495
   -18.4785 -18.4739 -18.4491 -18.4453 -18.4380 -18.4105 -18.4088 -18.3852
   -18.3803 -18.3785 -18.3553 -18.3491 -18.3264 -18.2997 -18.2894 -18.2635
   -18.2341 -18.2273 -18.2183 -18.2108 -18.2050 -18.1947 -18.1938 -18.1877
   -18.1830 -18.1653 -18.1402 -18.1137 -18.0956 -18.0788 -18.0687 -18.0538
   -18.0491 -18.0343 -18.0264 -18.0209 -18.0090 -17.9917 -17.9513 -17.9214
   -17.9110 -17.8806 -16.7312 -16.7050 -16.6962 -16.6952 -16.6682 -16.6613
   -15.0834 -15.0633 -14.8714 -14.8504 -14.8166 -14.7975 -14.7008 -14.6818
   -14.6109 -14.5977 -14.4918 -14.4683 -14.4670 -14.4503 -14.4485 -14.4467
   -14.4299 -14.4255 -14.4234 -14.4101 -14.4045 -14.3930 -14.3549 -14.3351
   -14.3312 -14.3103 -14.2611 -14.2605 -14.2482 -14.2399 -14.2386 -14.2368
   -14.2347 -14.2262 -14.2240 -14.2162 -14.2065 -14.1936 -14.1898 -14.1820
   -14.1570 -14.1565 -14.1482 -14.1335 -14.1272 -14.1245 -14.1223 -14.1144
   -14.1089 -14.1039 -14.0776 -14.0726 -14.0695 -14.0611 -14.0498 -14.0059
   -13.9937 -13.9861 -13.9790 -13.9597 -13.9524 -13.9441 -13.9418 -13.9340
   -13.9339 -13.9154 -13.9144 -13.9086 -13.8956 -13.8880 -13.8792 -13.8782
   -13.8773 -13.8651 -13.8587 -13.8551 -13.8480 -13.8470 -13.8422 -13.8327
   -13.8217 -13.8083 -13.7959 -13.7852 -13.7726 -13.7644 -13.7024 -13.6935
   -13.6100 -13.6055 -13.6007 -13.5963 -13.5944 -13.5901 -13.5549 -13.5522
   -13.5505 -13.5472 -13.5100 -13.5050 -13.5046 -13.4994 -13.4985 -13.4937
   -13.4887 -13.4841 -13.4576 -13.3782 -13.3120 -13.3008 -13.2931 -13.2924
   -12.7893 -12.7701 -12.7192 -12.7183 -12.6603 -12.6539 -12.6370 -12.5459
    -8.2658  -8.2625  -8.1240  -8.1208  -8.1141  -8.1108  -8.0409  -8.0374
    -7.9850  -7.8524  -7.8408  -7.8203  -7.8164  -7.8101  -7.8099  -7.8062
    -7.7987  -7.7948  -7.7804  -7.7761  -7.7661  -7.7527  -7.7487  -7.7285
    -7.7260  -7.7250  -7.7223  -7.7212  -7.7173  -7.7143  -7.7107  -7.7009
    -7.6963  -7.6928  -7.6732  -7.6509  -7.6413  -7.6388  -7.6379  -7.6355
    -7.6221  -7.6213  -7.6186  -7.6159  -7.6127  -7.6103  -7.6096  -7.6085
    -7.6068  -7.6052  -7.5918  -7.5646  -7.5643  -7.5609  -7.5419  -7.5340
    -7.5070  -7.4993  -7.4981  -7.4947  -7.4943  -7.4587  -7.4542  -7.4507
    -7.4239  -7.4178  -7.3984  -7.3962  -7.3590  -7.3572  -7.3444  -7.3409
    -7.3265  -7.3241  -7.3232  -7.3207  -7.3174  -7.3162  -7.3135  -7.3001
    -7.2976  -7.2447  -7.2310  -7.2233  -7.2147  -7.1771  -7.1710  -7.1631
    -7.0911  -7.0740  -7.0710  -7.0370  -6.9980  -6.9542  -6.8989  -6.8953
    -3.6848  -3.6578  -3.3997  -3.3766  -3.3409  -3.3175  -3.1731  -3.1291
    -3.0230  -3.0020  -2.9665  -2.9416  -2.9237  -2.8944  -2.7389  -2.7294
    -2.7280  -2.6812  -2.5438  -2.5248  -2.5244  -2.5205  -2.5200  -2.4984
    -2.4728  -2.4633  -2.3714  -2.3592  -2.3569  -2.3451  -2.2537  -2.2496
    -2.2408  -2.2209  -2.2203  -2.1918  -2.1848  -2.1845  -2.1772  -2.1732
    -2.1672  -2.1515  -2.1451  -2.1133  -2.0940  -2.0723  -2.0712  -2.0508
    -2.0296  -2.0231  -2.0159  -2.0127  -2.0020  -1.9976  -1.9117  -1.9055
    -1.8770  -1.8727  -1.8395  -1.8366  -1.8169  -1.7994  -1.7932  -1.7820
    -1.7737  -1.7612  -1.7583  -1.7563  -1.7544  -1.7417  -1.7320  -1.7304
    -1.7185  -1.7182  -1.7164  -1.7151  -1.7040  -1.7023  -1.7010  -1.7005
    -1.6904  -1.6885  -1.6879  -1.6833  -1.6740  -1.6659  -1.6591  -1.6533
    -1.6475  -1.6315  -1.6248  -1.5987  -1.5585  -1.5567  -1.5358  -1.5240
    -1.5086  -1.5010  -1.4905  -1.4796  -1.4754  -1.4740  -1.4591  -1.4452
    -1.4360  -1.4284  -1.4133  -1.4049  -1.4023  -1.3794  -1.3761  -1.3741
    -1.3543  -1.3433  -1.3377  -1.3301  -1.3278  -1.3237  -1.3176  -1.3166
    -1.3100  -1.3058  -1.3021  -1.2867  -1.1833  -1.1773  -1.1423  -1.1345
    -1.1288  -1.1239  -1.1200  -1.1177  -1.1113  -1.1063  -1.0780  -1.0522
    -0.9668  -0.8886  -0.8663  -0.8343  -0.7787  -0.7513  -0.7499  -0.7469
    -0.7380  -0.7365  -0.7338  -0.7232  -0.7020  -0.6961  -0.6922  -0.6851
    -0.6834  -0.6805  -0.6698  -0.6399  -0.6282  -0.6225  -0.6121  -0.6094
    -0.5953  -0.5932  -0.5884  -0.5852  -0.5826  -0.5781  -0.5779  -0.5724
    -0.5653  -0.5532  -0.5380  -0.5295  -0.5246  -0.5178  -0.5134  -0.5124
    -0.5092  -0.5011  -0.4976  -0.4969  -0.4877  -0.4812  -0.4758  -0.4729
    -0.4713  -0.4537  -0.4511  -0.4459  -0.4411  -0.4302  -0.4262  -0.4205
    -0.4179  -0.4167  -0.4106  -0.4018  -0.3946  -0.3943  -0.3829  -0.3713
    -0.3591  -0.3578  -0.3448  -0.2939  -0.2907  -0.2594  -0.2551  -0.2512
    -0.2487  -0.2435  -0.2387  -0.2340  -0.2182  -0.2125  -0.2102  -0.1940
    -0.1864  -0.1834  -0.1778  -0.1688  -0.1568  -0.1479  -0.1442  -0.1382
    -0.1274  -0.1252  -0.1076  -0.0974  -0.0964  -0.0829  -0.0787  -0.0569
    -0.0467  -0.0422  -0.0360  -0.0301  -0.0286  -0.0237  -0.0118  -0.0106
    -0.0053   0.0159   0.0252   0.0397   0.0445   0.0463   0.0501   0.0524
     0.0573   0.0685   0.0722   0.0937   0.1012   0.1144   0.1276   0.1467
     0.1475   0.1533   0.1624   0.1689   0.1725   0.1739   0.1817   0.1852
     0.1872   0.1888   0.1980   0.2070   0.2079   0.2111   0.2458   0.2536
     0.2662   0.2825   0.2841   0.3153   0.3181   0.3223   0.3300   0.3427
     0.3533   0.3726   0.4086   0.4224   0.4266   0.4755   0.4813   0.4878
     0.4962   0.4999   0.5007   0.5041   0.5132   0.5208   0.5254   0.5314
     0.5332   0.5391   0.5545   0.5587   0.5647   0.5718   0.5729   0.5779
     0.5937   0.5947   0.6296   0.6332   0.6472   0.6497   0.6562   0.6584
     0.6681   0.6712   0.6750   0.6792   0.6808   0.6854   0.6953   0.7028
     0.7132   0.7216   0.7229   0.7240   0.7259   0.7302   0.7449   0.7489
     0.7519   0.7632   0.7736   0.8007   0.8012   0.8037   0.8063   0.8067
     0.8113   0.8120   0.8190   0.8327   0.8422   0.8475   0.8542   0.8630
     0.8650   0.8707   0.8739   0.8772   0.8779   0.8794   0.8818   0.8898
     0.8945   0.9099   0.9197   0.9334   0.9723   0.9877   0.9922   0.9971
     1.0091   1.0374   1.0537   1.0680   1.0681   1.0826   1.0892   1.0964
     1.0981   1.1127   1.1135   1.1171   1.1244   1.1250   1.1351   1.1396
     1.1467   1.1539   1.1618   1.1740   1.1921   1.2155   1.2190   1.2297
     1.2670   1.2726   1.2867   1.3346   1.3521   1.3525   1.3548   1.3633
     1.3695   1.3753   1.3804   1.3833   1.3901   1.3966   1.4047   1.4076
     1.4086   1.4173   1.4174   1.4197   1.4222   1.4279   1.4289   1.4343
     1.4583   1.4743   1.4792   1.4874   1.4882   1.4897   1.4973   1.4989
     1.5026   1.5101   1.5132   1.5258   1.5322   1.5385   1.5462   1.5483
     1.5577   1.5611   1.5623   1.5666   1.5747   1.5749   1.5852   1.5902
     1.5930   1.5964   1.6058   1.6074   1.6097   1.6207   1.6221   1.6297
     1.6442   1.6512   1.6581   1.6658   1.6674   1.6772   1.6800   1.6843
     1.6926   1.7092   1.7107   1.7156   1.7238   1.7262   1.7287   1.7441
     1.7473   1.7524   1.7533   1.7592   1.7625   1.7649   1.7681   1.7819
     1.7919   1.7929   1.7940   1.8005   1.8083   1.8110   1.8154   1.8186
     1.8247   1.8280   1.8313   1.8326   1.8340   1.8511   1.8554   1.8564
     1.8612   1.8646   1.8674   1.8685   1.8703   1.8889   1.8999   1.9018
     1.9023   1.9167   1.9173   1.9223   1.9266   1.9371   1.9389   1.9392
     1.9524   1.9575   1.9590   1.9729   1.9761   1.9766   1.9820   1.9907
     2.0195   2.0261   2.0331   2.0342   2.0479   2.0534   2.0630   2.0670
     2.0696   2.0767   2.0771   2.0842   2.1009   2.1012   2.1141   2.1145
     2.1180   2.1260   2.1276   2.1342   2.1378   2.1386   2.1458   2.1466
     2.1499   2.1649   2.1669   2.1688   2.1691   2.1731   2.1823   2.1840
     2.1884   2.1973   2.2047   2.2104   2.2133   2.2204   2.2277   2.2288
     2.2406   2.2415   2.2896   2.2909   2.3025   2.3065   2.3490   2.3522
     2.3551   2.3597   2.3674   2.3750   2.4074   2.4077   2.4142   2.4352
     2.4716   2.4723   2.4854   2.4872   2.4914   2.5024   2.5132   2.5300
     2.5329   2.5585   2.5588   2.5715   2.6036   2.6088   2.6393   2.6462
     2.6607   2.6797   2.7034   2.7059   2.7156   2.7198   2.7233   2.7306
     2.7813   2.8363   2.8394   2.8400   2.8437   2.8449   2.8461   2.8538
     2.8819   2.8941   2.9394   2.9593   2.9680   2.9930   3.0059   3.0098
     3.0642   3.0825   3.1330   3.1498   3.1802   3.2057   3.2647   3.2718
     3.2756   3.2816   3.2847   3.2877   3.2957   3.2960   3.3820   3.4069
     3.4360   3.4381   3.4397   3.4504   3.4541   3.4685   3.6601   3.6843
     3.8588   3.8741   3.8771   3.8900   3.9131   3.9814   4.0128   4.0252
     4.0512   4.0665   4.0894   4.1158   4.5640   4.5697   4.6412   4.6562
     6.0996   6.1065   6.2161   6.2253   6.2283   6.2290   6.2323   6.3219
     6.4437   6.4471   6.5151   6.5530   6.6698   6.6877   6.8703   6.9007
     6.9359   6.9529   6.9888   6.9908   7.0251   7.0311   7.0342   7.0387
     7.0454   7.0539   7.0840   7.2061   7.2106   7.2511   7.3096   7.3231
     7.3620   7.3722   7.3804   7.4331   7.4386   7.4392   7.5671   7.5980
     7.6028   7.6321   7.7860   7.8472   7.8596   7.8650   7.8801   7.8850
     8.0367   8.0887   8.1133   8.1407   8.1469   8.1525   8.1594   8.1746
     8.1987   8.2109   8.2395   8.2549   8.2562   8.2613   8.2807   8.2823
     8.3438   8.3700   8.3793   8.4273   8.4743   8.4958   8.5972   8.6026
     8.6055   8.6763   8.7096   8.7532   8.7562   8.7912   8.8054   8.8673
     8.8839   8.9186   8.9330   8.9701   8.9763   8.9781   8.9934   9.0253
     9.0432   9.0515   9.0584   9.0723   9.0795   9.0848   9.0926   9.1007
     9.1266   9.1331   9.1368   9.1439   9.1601   9.1705   9.1838   9.2141
     9.2335   9.2368   9.2580   9.2999   9.3181   9.3805   9.3884   9.4198
     9.4204   9.4305   9.4502   9.4563   9.4664   9.4918   9.4971   9.5125
     9.5145   9.5199   9.5336   9.5546   9.5576   9.5681   9.5759   9.5773
     9.6341   9.6391   9.6464   9.6764   9.7134   9.7355   9.7394   9.7421
     9.7662   9.7682   9.7894   9.7899   9.7950   9.8114   9.8175   9.8250
     9.8396   9.8491

          k =-0.4652-0.0000 0.0000 (274136 PWs)   bands (ev):

   -37.9355 -37.9134 -37.9084 -37.9050 -37.9008 -37.8985 -37.8848 -37.8831
   -37.8792 -37.8759 -37.8688 -37.8663 -37.8550 -37.8537 -35.4725 -35.4361
   -22.5412 -22.5376 -22.4953 -22.4916 -22.4838 -22.4803 -22.4758 -22.4723
   -22.3928 -22.3907 -22.3891 -22.3872 -22.3856 -22.3822 -22.3462 -22.3426
   -22.3328 -22.2832 -22.2519 -22.2354 -22.2202 -22.2156 -22.1853 -22.1811
   -22.1260 -22.1243 -22.0971 -22.0641 -22.0595 -22.0352 -21.9855 -21.9495
   -18.5142 -18.4849 -18.4417 -18.4360 -18.4134 -18.4115 -18.4079 -18.3880
   -18.3856 -18.3604 -18.3482 -18.3193 -18.3087 -18.2984 -18.2805 -18.2743
   -18.2445 -18.2375 -18.2178 -18.2148 -18.2136 -18.2084 -18.2080 -18.1898
   -18.1864 -18.1764 -18.1338 -18.1086 -18.1078 -18.0788 -18.0738 -18.0475
   -18.0443 -18.0296 -18.0257 -18.0207 -18.0005 -18.0001 -17.9557 -17.9255
   -17.9026 -17.8726 -16.7312 -16.7034 -16.6976 -16.6952 -16.6666 -16.6627
   -15.0765 -15.0556 -14.8889 -14.8682 -14.8186 -14.8011 -14.6905 -14.6730
   -14.5536 -14.5481 -14.5283 -14.5281 -14.5142 -14.5000 -14.4752 -14.4633
   -14.4025 -14.3929 -14.3806 -14.3701 -14.3690 -14.3609 -14.3469 -14.3373
   -14.3365 -14.3212 -14.3175 -14.2992 -14.2956 -14.2763 -14.2698 -14.2543
   -14.2507 -14.2292 -14.1959 -14.1797 -14.1767 -14.1697 -14.1587 -14.1551
   -14.1536 -14.1450 -14.1446 -14.1436 -14.1400 -14.1373 -14.1249 -14.1090
   -14.0949 -14.0776 -14.0425 -14.0403 -14.0387 -14.0162 -14.0083 -14.0016
   -13.9962 -13.9870 -13.9834 -13.9786 -13.9716 -13.9679 -13.9673 -13.9581
   -13.9542 -13.9376 -13.9370 -13.9235 -13.9075 -13.9058 -13.8992 -13.8978
   -13.8798 -13.8708 -13.8646 -13.8570 -13.8423 -13.8382 -13.8380 -13.8277
   -13.8223 -13.8164 -13.8045 -13.7985 -13.7584 -13.7572 -13.6904 -13.6127
   -13.6053 -13.6011 -13.6003 -13.5958 -13.5841 -13.5834 -13.5793 -13.5788
   -13.5337 -13.5306 -13.5292 -13.5259 -13.5113 -13.4977 -13.4973 -13.4926
   -13.4910 -13.4860 -13.4398 -13.3754 -13.3470 -13.3110 -13.2861 -13.2682
   -12.8041 -12.7583 -12.7136 -12.7107 -12.6615 -12.6607 -12.6395 -12.5456
    -8.3209  -8.3177  -8.0410  -8.0402  -8.0375  -8.0353  -8.0320  -8.0317
    -8.0283  -7.8808  -7.8776  -7.8395  -7.8188  -7.8149  -7.8079  -7.7937
    -7.7901  -7.7833  -7.7793  -7.7727  -7.7688  -7.7517  -7.7483  -7.7415
    -7.7381  -7.7375  -7.7342  -7.7271  -7.7235  -7.7196  -7.7165  -7.7162
    -7.7132  -7.7077  -7.7042  -7.7026  -7.6990  -7.6932  -7.6895  -7.6811
    -7.6558  -7.6397  -7.6297  -7.6202  -7.6171  -7.5892  -7.5865  -7.5786
    -7.5767  -7.5470  -7.5435  -7.5383  -7.5312  -7.5106  -7.5072  -7.5041
    -7.5038  -7.4709  -7.4705  -7.4671  -7.4631  -7.4547  -7.4471  -7.4350
    -7.4255  -7.4186  -7.4151  -7.4112  -7.4047  -7.3972  -7.3752  -7.3642
    -7.3608  -7.3552  -7.3519  -7.3458  -7.3423  -7.3177  -7.3147  -7.2875
    -7.2788  -7.2719  -7.2417  -7.1982  -7.1903  -7.1793  -7.1459  -7.1037
    -7.0699  -7.0581  -7.0389  -7.0199  -6.9983  -6.9707  -6.9198  -6.9166
    -3.7302  -3.7045  -3.3114  -3.2844  -3.2595  -3.2368  -3.2288  -3.1850
    -3.1780  -3.1576  -2.8855  -2.8643  -2.8386  -2.8356  -2.8198  -2.7873
    -2.6527  -2.6480  -2.6133  -2.6089  -2.5976  -2.5611  -2.5516  -2.5469
    -2.5019  -2.4886  -2.4862  -2.4750  -2.4134  -2.3637  -2.3302  -2.3028
    -2.2888  -2.2608  -2.1497  -2.1493  -2.0969  -2.0826  -2.0777  -2.0722
    -2.0707  -2.0703  -2.0550  -2.0484  -2.0186  -2.0034  -1.9852  -1.9502
    -1.9409  -1.9320  -1.9148  -1.9064  -1.8649  -1.8620  -1.8606  -1.8585
    -1.8484  -1.8443  -1.8082  -1.8058  -1.8036  -1.8011  -1.7930  -1.7769
    -1.7759  -1.7754  -1.7708  -1.7675  -1.7605  -1.7577  -1.7535  -1.7365
    -1.7067  -1.6996  -1.6983  -1.6955  -1.6907  -1.6888  -1.6874  -1.6780
    -1.6766  -1.6614  -1.6594  -1.6527  -1.6292  -1.6145  -1.6123  -1.6108
    -1.6107  -1.6068  -1.6064  -1.5976  -1.5932  -1.5827  -1.5780  -1.5607
    -1.5571  -1.5556  -1.5388  -1.5332  -1.5306  -1.5242  -1.5085  -1.5032
    -1.4945  -1.4927  -1.4801  -1.4730  -1.4580  -1.4508  -1.4499  -1.4430
    -1.4317  -1.4308  -1.4093  -1.4053  -1.3967  -1.3712  -1.3704  -1.3634
    -1.3524  -1.3350  -1.3324  -1.3299  -1.3135  -1.3064  -1.3024  -1.2872
    -1.2692  -1.2664  -1.2619  -1.2249  -1.0484  -1.0162  -1.0123  -0.9871
    -0.9866  -0.9581  -0.8891  -0.8215  -0.7853  -0.7707  -0.7642  -0.7586
    -0.7304  -0.7213  -0.7084  -0.6851  -0.6789  -0.6736  -0.6719  -0.6667
    -0.6601  -0.6534  -0.6455  -0.6411  -0.6350  -0.6276  -0.6259  -0.6137
    -0.5954  -0.5782  -0.5742  -0.5637  -0.5576  -0.5528  -0.5512  -0.5418
    -0.5383  -0.5286  -0.5178  -0.5161  -0.5033  -0.5030  -0.4950  -0.4925
    -0.4841  -0.4808  -0.4725  -0.4641  -0.4636  -0.4599  -0.4545  -0.4524
    -0.4373  -0.4253  -0.4235  -0.4164  -0.4159  -0.4093  -0.4076  -0.3946
    -0.3936  -0.3835  -0.3715  -0.3637  -0.3430  -0.3400  -0.3400  -0.3275
    -0.3223  -0.3205  -0.3122  -0.3044  -0.2998  -0.2967  -0.2693  -0.2608
    -0.2523  -0.2487  -0.2453  -0.2228  -0.2081  -0.2066  -0.1775  -0.1607
    -0.1577  -0.1559  -0.1538  -0.1462  -0.1364  -0.1323  -0.1158  -0.0930
    -0.0838  -0.0832  -0.0827  -0.0663  -0.0592  -0.0531  -0.0497  -0.0473
    -0.0457  -0.0436  -0.0388  -0.0324  -0.0320  -0.0282  -0.0247  -0.0170
    -0.0121   0.0017   0.0096   0.0105   0.0161   0.0219   0.0402   0.0417
     0.0564   0.0653   0.0655   0.0744   0.0870   0.0895   0.0981   0.1030
     0.1037   0.1079   0.1198   0.1227   0.1268   0.1308   0.1387   0.1429
     0.1523   0.1707   0.1772   0.1783   0.1819   0.2037   0.2111   0.2171
     0.2302   0.2452   0.2575   0.2744   0.3021   0.3317   0.3445   0.3489
     0.3653   0.3655   0.3819   0.3937   0.4882   0.5048   0.5164   0.5206
     0.5249   0.5292   0.5294   0.5334   0.5358   0.5418   0.5488   0.5492
     0.5611   0.5658   0.5698   0.5830   0.5945   0.6013   0.6040   0.6105
     0.6120   0.6134   0.6257   0.6263   0.6358   0.6427   0.6430   0.6431
     0.6541   0.6547   0.6573   0.6616   0.6654   0.6695   0.6725   0.6805
     0.6838   0.6941   0.7035   0.7062   0.7114   0.7188   0.7326   0.7552
     0.7579   0.7587   0.7636   0.7673   0.7703   0.7709   0.7754   0.7906
     0.7957   0.7989   0.8049   0.8063   0.8094   0.8124   0.8293   0.8304
     0.8560   0.8752   0.8799   0.8842   0.8950   0.9244   0.9261   0.9307
     0.9376   0.9437   0.9589   0.9734   0.9803   0.9935   1.0028   1.0318
     1.0337   1.0498   1.0530   1.0644   1.0730   1.0756   1.0795   1.0853
     1.0887   1.0944   1.0981   1.1007   1.1072   1.1156   1.1348   1.1456
     1.1476   1.1541   1.1653   1.1738   1.1953   1.2063   1.2506   1.2596
     1.2794   1.3022   1.3135   1.3198   1.3233   1.3300   1.3343   1.3346
[...]
     atom   58 type  5   force =     0.00035652    0.00000000   -0.00180310
     atom   59 type  5   force =    -0.00035652    0.00000000   -0.00180310
     atom   60 type  5   force =     0.00000000    0.00000000   -0.00130169
     atom   61 type  5   force =     0.00000000    0.00000000   -0.00179564
     atom   62 type  5   force =     0.00000000    0.00000000   -0.00179564
     atom   63 type  5   force =     0.00000000    0.00008676   -0.00190512
     atom   64 type  5   force =     0.00000000   -0.00008676   -0.00190512
     atom   65 type  4   force =    -0.00036079   -0.00003795    0.00124527
     atom   66 type  4   force =    -0.00036079    0.00003795    0.00124527
     atom   67 type  4   force =     0.00036079   -0.00003795    0.00124527
     atom   68 type  4   force =     0.00036079    0.00003795    0.00124527
     atom   69 type  4   force =     0.00000000   -0.00010427    0.00093255
     atom   70 type  4   force =     0.00000000    0.00010427    0.00093255
     atom   71 type  4   force =    -0.00005728   -0.00010452    0.00192827
     atom   72 type  4   force =    -0.00005728    0.00010452    0.00192827
     atom   73 type  4   force =     0.00005728    0.00010452    0.00192827
     atom   74 type  4   force =     0.00005728   -0.00010452    0.00192827
     atom   75 type  4   force =     0.00020356    0.00000000    0.00217321
     atom   76 type  4   force =    -0.00020356    0.00000000    0.00217321
     atom   77 type  4   force =     0.00000000   -0.00063138    0.00183608
     atom   78 type  4   force =     0.00000000    0.00063138    0.00183608
     atom   79 type  4   force =     0.00050238    0.00000000    0.00163939
     atom   80 type  4   force =    -0.00050238    0.00000000    0.00163939
     atom   81 type  3   force =    -0.00004560   -0.00002084   -0.00078249
     atom   82 type  3   force =    -0.00004560    0.00002084   -0.00078249
     atom   83 type  3   force =     0.00004560   -0.00002084   -0.00078249
     atom   84 type  3   force =     0.00004560    0.00002084   -0.00078249
     atom   85 type  3   force =    -0.00006900    0.00007126   -0.00127337
     atom   86 type  3   force =     0.00006900    0.00007126   -0.00127337
     atom   87 type  3   force =     0.00006900   -0.00007126   -0.00127337
     atom   88 type  3   force =    -0.00006900   -0.00007126   -0.00127337
     atom   89 type  1   force =     0.00000000    0.00000000    0.00576970
     atom   90 type  1   force =     0.00000000   -0.00022890    0.00997988
     atom   91 type  1   force =     0.00000000    0.00022890    0.00997988
     atom   92 type  1   force =     0.00075232    0.00000000    0.00986737
     atom   93 type  1   force =    -0.00075232    0.00000000    0.00986737
     atom   94 type  1   force =     0.00000000    0.00000000    0.01125449
     atom   95 type  1   force =     0.00000000    0.00000000    0.01125449
     atom   96 type  1   force =     0.00000000    0.00000000    0.01189034
     atom   97 type  4   force =     0.00027963    0.00028017   -0.00586935
     atom   98 type  4   force =     0.00027963   -0.00028017   -0.00586935
     atom   99 type  4   force =    -0.00027963    0.00028017   -0.00586935
     atom  100 type  4   force =    -0.00027963   -0.00028017   -0.00586935
     atom  101 type  4   force =    -0.00136033   -0.00056216   -0.00614149
     atom  102 type  4   force =     0.00136033   -0.00056216   -0.00614149
     atom  103 type  4   force =     0.00136033    0.00056216   -0.00614149
     atom  104 type  4   force =    -0.00136033    0.00056216   -0.00614149
     atom  105 type  4   force =    -0.00112756    0.00000000    0.01515755
     atom  106 type  4   force =     0.00112756    0.00000000    0.01515755
     atom  107 type  3   force =    -0.00321530   -0.00068729    0.04106522
     atom  108 type  3   force =    -0.00321530    0.00068729    0.04106522
     atom  109 type  3   force =     0.00321530    0.00068729    0.04106522
     atom  110 type  3   force =     0.00321530   -0.00068729    0.04106522
     atom  111 type  3   force =    -0.00122622   -0.00006904    0.03821867
     atom  112 type  3   force =     0.00122622    0.00006904    0.03821867
     atom  113 type  3   force =    -0.00122622    0.00006904    0.03821867
     atom  114 type  3   force =     0.00122622   -0.00006904    0.03821867
     atom  115 type  4   force =    -0.00018849   -0.00029907    0.01220188
     atom  116 type  4   force =     0.00018849   -0.00029907    0.01220188
     atom  117 type  4   force =    -0.00018849    0.00029907    0.01220188
     atom  118 type  4   force =     0.00018849    0.00029907    0.01220188
     atom  119 type  4   force =    -0.00108568    0.00000000    0.01625100
     atom  120 type  4   force =     0.00108568    0.00000000    0.01625100
     atom  121 type  4   force =     0.00406944    0.00343341   -0.03222701
     atom  122 type  4   force =    -0.00406944    0.00343341   -0.03222701
     atom  123 type  4   force =    -0.00406944   -0.00343341   -0.03222701
     atom  124 type  4   force =     0.00406944   -0.00343341   -0.03222701
     atom  125 type  4   force =    -0.00134883    0.00046943   -0.02994273
     atom  126 type  4   force =    -0.00134883   -0.00046943   -0.02994273
     atom  127 type  4   force =     0.00134883    0.00046943   -0.02994273
     atom  128 type  4   force =     0.00134883   -0.00046943   -0.02994273
     atom  129 type  1   force =     0.00000000    0.00000000   -0.02717552
     atom  130 type  1   force =     0.00000000    0.00000000   -0.02052997
     atom  131 type  1   force =     0.00000000    0.00000000   -0.02052997
     atom  132 type  1   force =    -0.00621362    0.00000000   -0.02413384
     atom  133 type  1   force =     0.00621362    0.00000000   -0.02413384
     atom  134 type  1   force =     0.00000000   -0.00240664   -0.01792194
     atom  135 type  1   force =     0.00000000    0.00240664   -0.01792194
     atom  136 type  1   force =     0.00000000    0.00000000   -0.01707638
     atom  137 type  3   force =     0.00009012    0.00084508   -0.01010613
     atom  138 type  3   force =     0.00009012   -0.00084508   -0.01010613
     atom  139 type  3   force =    -0.00009012   -0.00084508   -0.01010613
     atom  140 type  3   force =    -0.00009012    0.00084508   -0.01010613
     atom  141 type  3   force =    -0.00089446    0.00063689   -0.01072057
     atom  142 type  3   force =    -0.00089446   -0.00063689   -0.01072057
     atom  143 type  3   force =     0.00089446    0.00063689   -0.01072057
     atom  144 type  3   force =     0.00089446   -0.00063689   -0.01072057
     atom  145 type  4   force =    -0.00140574    0.00000000    0.00268093
     atom  146 type  4   force =     0.00140574    0.00000000    0.00268093
     atom  147 type  4   force =     0.00000000   -0.00109653    0.00406191
     atom  148 type  4   force =     0.00000000    0.00109653    0.00406191
     atom  149 type  4   force =    -0.00012372    0.00000000   -0.00074970
     atom  150 type  4   force =     0.00012372    0.00000000   -0.00074970
     atom  151 type  4   force =    -0.00048746    0.00005865    0.00113466
     atom  152 type  4   force =     0.00048746    0.00005865    0.00113466
     atom  153 type  4   force =     0.00048746   -0.00005865    0.00113466
     atom  154 type  4   force =    -0.00048746   -0.00005865    0.00113466
     atom  155 type  4   force =     0.00000000   -0.00123854    0.00272802
     atom  156 type  4   force =     0.00000000    0.00123854    0.00272802
     atom  157 type  4   force =     0.00001568    0.00018505    0.00279293
     atom  158 type  4   force =    -0.00001568   -0.00018505    0.00279293
     atom  159 type  4   force =     0.00001568   -0.00018505    0.00279293
     atom  160 type  4   force =    -0.00001568    0.00018505    0.00279293
     atom  161 type  2   force =     0.00000000    0.00000000   -0.00111105
     atom  162 type  5   force =    -0.00022126    0.00000000   -0.00004163
     atom  163 type  5   force =     0.00022126    0.00000000   -0.00004163
     atom  164 type  5   force =     0.00000000    0.00000000    0.00033936
     atom  165 type  5   force =     0.00000000    0.00000000   -0.00015626
     atom  166 type  5   force =     0.00000000    0.00000000   -0.00015626
     atom  167 type  5   force =     0.00000000   -0.00044795   -0.00046162
     atom  168 type  5   force =     0.00000000    0.00044795   -0.00046162
     atom  169 type  4   force =    -0.00015204   -0.00001917    0.00017443
     atom  170 type  4   force =    -0.00015204    0.00001917    0.00017443
     atom  171 type  4   force =     0.00015204   -0.00001917    0.00017443
     atom  172 type  4   force =     0.00015204    0.00001917    0.00017443
     atom  173 type  4   force =     0.00000000    0.00013289    0.00034135
     atom  174 type  4   force =     0.00000000   -0.00013289    0.00034135
     atom  175 type  4   force =    -0.00003397   -0.00001304    0.00005323
     atom  176 type  4   force =    -0.00003397    0.00001304    0.00005323
     atom  177 type  4   force =     0.00003397    0.00001304    0.00005323
     atom  178 type  4   force =     0.00003397   -0.00001304    0.00005323
     atom  179 type  4   force =    -0.00004102    0.00000000   -0.00011726
     atom  180 type  4   force =     0.00004102    0.00000000   -0.00011726
     atom  181 type  4   force =     0.00000000   -0.00005170    0.00025166
     atom  182 type  4   force =     0.00000000    0.00005170    0.00025166
     atom  183 type  4   force =    -0.00017777    0.00000000    0.00021465
     atom  184 type  4   force =     0.00017777    0.00000000    0.00021465
     atom  185 type  3   force =     0.00002251    0.00001518    0.00025051
     atom  186 type  3   force =     0.00002251   -0.00001518    0.00025051
     atom  187 type  3   force =    -0.00002251    0.00001518    0.00025051
     atom  188 type  3   force =    -0.00002251   -0.00001518    0.00025051
     atom  189 type  3   force =     0.00003948    0.00004638    0.00017202
     atom  190 type  3   force =    -0.00003948    0.00004638    0.00017202
     atom  191 type  3   force =    -0.00003948   -0.00004638    0.00017202
     atom  192 type  3   force =     0.00003948   -0.00004638    0.00017202
     atom  193 type  1   force =     0.00000000    0.00000000    0.00009589
     atom  194 type  1   force =     0.00000000   -0.00007819    0.00023800
     atom  195 type  1   force =     0.00000000    0.00007819    0.00023800
     atom  196 type  1   force =     0.00020771    0.00000000   -0.00000389
     atom  197 type  1   force =    -0.00020771    0.00000000   -0.00000389
     atom  198 type  1   force =     0.00000000    0.00000000    0.00010470
     atom  199 type  1   force =     0.00000000    0.00000000    0.00010470
     atom  200 type  1   force =     0.00000000    0.00000000    0.00004073
     atom  201 type  4   force =     0.00003240    0.00008230   -0.00107145
     atom  202 type  4   force =     0.00003240   -0.00008230   -0.00107145
     atom  203 type  4   force =    -0.00003240    0.00008230   -0.00107145
     atom  204 type  4   force =    -0.00003240   -0.00008230   -0.00107145
     atom  205 type  4   force =     0.00003767    0.00004263   -0.00086398
     atom  206 type  4   force =    -0.00003767    0.00004263   -0.00086398
     atom  207 type  4   force =    -0.00003767   -0.00004263   -0.00086398
     atom  208 type  4   force =     0.00003767   -0.00004263   -0.00086398
     atom  209 type  4   force =     0.00010802    0.00000000   -0.00022453
     atom  210 type  4   force =    -0.00010802    0.00000000   -0.00022453
     atom  211 type  3   force =     0.00008802   -0.00006340    0.00037588
     atom  212 type  3   force =     0.00008802    0.00006340    0.00037588
     atom  213 type  3   force =    -0.00008802    0.00006340    0.00037588
     atom  214 type  3   force =    -0.00008802   -0.00006340    0.00037588
     atom  215 type  3   force =    -0.00000461   -0.00002292    0.00056646
     atom  216 type  3   force =     0.00000461    0.00002292    0.00056646
     atom  217 type  3   force =    -0.00000461    0.00002292    0.00056646
     atom  218 type  3   force =     0.00000461   -0.00002292    0.00056646
     atom  219 type  4   force =    -0.00010387    0.00010864   -0.00019442
     atom  220 type  4   force =     0.00010387    0.00010864   -0.00019442
     atom  221 type  4   force =    -0.00010387   -0.00010864   -0.00019442
     atom  222 type  4   force =     0.00010387   -0.00010864   -0.00019442
     atom  223 type  4   force =    -0.00015778    0.00000000   -0.00018877
     atom  224 type  4   force =     0.00015778    0.00000000   -0.00018877

     Total force =     0.167524     Total SCF correction =     0.000290


     Computing stress (Cartesian axis) and pressure


     negative rho (up, down):  6.352E-01 0.000E+00
          total   stress  (Ry/bohr**3)                   (kbar)     P=       -6.35
  -0.00000394   0.00000000   0.00000000           -0.58        0.00        0.00
   0.00000000  -0.00004786   0.00000000            0.00       -7.04        0.00
   0.00000000   0.00000000  -0.00007768            0.00        0.00      -11.43

 
     init_run     :     55.49s CPU     58.12s WALL (       1 calls)
     electrons    :   4305.46s CPU   4474.98s WALL (       1 calls)
     forces       :     33.03s CPU     34.88s WALL (       1 calls)
     stress       :    403.64s CPU    407.78s WALL (       1 calls)

     Called by init_run:
     wfcinit      :     43.83s CPU     45.20s WALL (       1 calls)
     potinit      :      1.62s CPU      1.66s WALL (       1 calls)
     hinit0       :      2.93s CPU      2.96s WALL (       1 calls)

     Called by electrons:
     c_bands      :   3646.00s CPU   3719.81s WALL (      40 calls)
     sum_band     :    459.87s CPU    513.02s WALL (      40 calls)
     v_of_rho     :     10.26s CPU     10.39s WALL (      41 calls)
     newd         :     76.31s CPU    119.01s WALL (      41 calls)
     mix_rho      :    113.61s CPU    114.30s WALL (      40 calls)

     Called by c_bands:
     init_us_2    :      9.83s CPU     10.31s WALL (     332 calls)
     cegterg      :   3564.34s CPU   3633.77s WALL (     160 calls)

     Called by sum_band:
     sum_band:bec :      3.61s CPU      3.63s WALL (     160 calls)
     addusdens    :     68.12s CPU    117.52s WALL (      40 calls)

     Called by *egterg:
     h_psi        :   1438.15s CPU   1464.58s WALL (    1125 calls)
     s_psi        :    405.68s CPU    415.80s WALL (    1125 calls)
     g_psi        :      1.61s CPU      1.65s WALL (     961 calls)
     cdiaghg      :    779.66s CPU    782.69s WALL (    1121 calls)

     Called by h_psi:
     h_psi:calbec :    449.66s CPU    452.38s WALL (    1125 calls)
     vloc_psi     :    579.12s CPU    585.79s WALL (    1125 calls)
     add_vuspsi   :    406.18s CPU    416.14s WALL (    1125 calls)

     General routines
     calbec       :    724.41s CPU    728.02s WALL (    1305 calls)
     fft          :     10.94s CPU     11.01s WALL (     556 calls)
     ffts         :     71.82s CPU     72.26s WALL (   28000 calls)
     fftw         :    650.76s CPU    658.01s WALL (  912928 calls)
     interpolate  :      0.95s CPU      0.95s WALL (      41 calls)
 
     Parallel routines
     fft_scatt_xy :     86.25s CPU     87.19s WALL (  941484 calls)
     fft_scatt_yz :    434.40s CPU    439.40s WALL (  941484 calls)
 
     PWSCF        :      1h19m CPU      1h22m WALL

 
   This run was terminated on:  14: 0:11  17May2021            

=------------------------------------------------------------------------------=
   JOB DONE.
=------------------------------------------------------------------------------=
[1621274412.182786] [holy7c04209:241539:0]          mpool.c:43   UCX  WARN  object 0x5d66d80 was not returned to mpool ucp_requests
[1621274412.185167] [holy7c04209:241540:0]          mpool.c:43   UCX  WARN  object 0x2ce3080 was not returned to mpool ucp_requests
[1621274412.189063] [holy7c08209:93510:0]          mpool.c:43   UCX  WARN  object 0x2dc7b00 was not returned to mpool ucp_requests
[1621274412.188843] [holy7c04209:241541:0]          mpool.c:43   UCX  WARN  object 0x554e400 was not returned to mpool ucp_requests
[1621274412.196300] [holy7c08607:4443 :0]          mpool.c:43   UCX  WARN  object 0x2d787c0 was not returned to mpool ucp_requests
[1621274412.199918] [holy7c08604:148784:0]          mpool.c:43   UCX  WARN  object 0x33ad140 was not returned to mpool ucp_requests
[1621274412.205689] [holy7c08609:80514:0]          mpool.c:43   UCX  WARN  object 0x3129140 was not returned to mpool ucp_requests
[1621274412.194393] [holy7c08209:93502:0]          mpool.c:43   UCX  WARN  object 0x2a60c00 was not returned to mpool ucp_requests
[1621274412.192793] [holy7c08209:93509:0]          mpool.c:43   UCX  WARN  object 0x4573600 was not returned to mpool ucp_requests
[1621274412.192821] [holy7c08209:93509:0]          mpool.c:43   UCX  WARN  object 0x4580480 was not returned to mpool ucp_requests
[1621274412.193109] [holy7c08209:93511:0]          mpool.c:43   UCX  WARN  object 0x30f3940 was not returned to mpool ucp_requests
[1621274412.198759] [holy7c08209:93501:0]          mpool.c:43   UCX  WARN  object 0x3f63280 was not returned to mpool ucp_requests
[1621274412.205282] [holy7c08209:93503:0]          mpool.c:43   UCX  WARN  object 0x46e01c0 was not returned to mpool ucp_requests
[1621274412.208877] [holy7c08209:93512:0]          mpool.c:43   UCX  WARN  object 0x3b63280 was not returned to mpool ucp_requests
[1621274412.214328] [holy7c08209:93504:0]          mpool.c:43   UCX  WARN  object 0x387f2c0 was not returned to mpool ucp_requests
[1621274412.198212] [holy7c08607:4445 :0]          mpool.c:43   UCX  WARN  object 0x3691440 was not returned to mpool ucp_requests
[1621274412.203446] [holy7c08607:4444 :0]          mpool.c:43   UCX  WARN  object 0x463eec0 was not returned to mpool ucp_requests
[1621274412.203152] [holy7c08607:4436 :0]          mpool.c:43   UCX  WARN  object 0x3cc9500 was not returned to mpool ucp_requests
[1621274412.201659] [holy7c08607:4438 :0]          mpool.c:43   UCX  WARN  object 0x385b480 was not returned to mpool ucp_requests
[1621274412.204962] [holy7c08607:4435 :0]          mpool.c:43   UCX  WARN  object 0x2a8f000 was not returned to mpool ucp_requests
[1621274412.212914] [holy7c08607:4446 :0]          mpool.c:43   UCX  WARN  object 0x63968c0 was not returned to mpool ucp_requests
[1621274412.209679] [holy7c08607:4451 :0]          mpool.c:43   UCX  WARN  object 0x5426dc0 was not returned to mpool ucp_requests
[1621274412.215477] [holy7c08607:4437 :0]          mpool.c:43   UCX  WARN  object 0x3431d80 was not returned to mpool ucp_requests
[1621274412.215811] [holy7c08607:4452 :0]          mpool.c:43   UCX  WARN  object 0x37a6980 was not returned to mpool ucp_requests
[1621274412.199890] [holy7c08604:148776:0]          mpool.c:43   UCX  WARN  object 0x5514b00 was not returned to mpool ucp_requests
[1621274412.201988] [holy7c08604:148775:0]          mpool.c:43   UCX  WARN  object 0x3ce3800 was not returned to mpool ucp_requests
[1621274412.206800] [holy7c08604:148783:0]          mpool.c:43   UCX  WARN  object 0x3c30f80 was not returned to mpool ucp_requests
[1621274412.208087] [holy7c08604:148782:0]          mpool.c:43   UCX  WARN  object 0x34cc640 was not returned to mpool ucp_requests
[1621274412.201111] [holy7c08604:148781:0]          mpool.c:43   UCX  WARN  object 0x30ffe40 was not returned to mpool ucp_requests
[1621274412.207023] [holy7c08604:148774:0]          mpool.c:43   UCX  WARN  object 0x3691300 was not returned to mpool ucp_requests
[1621274412.208140] [holy7c08604:148773:0]          mpool.c:43   UCX  WARN  object 0x2ed6540 was not returned to mpool ucp_requests
[1621274412.209839] [holy7c08609:80513:0]          mpool.c:43   UCX  WARN  object 0x442ed40 was not returned to mpool ucp_requests
