
     Program PWSCF v.6.5 starts on 18May2021 at 21:13:52 

     This program is part of the open-source Quantum ESPRESSO suite
     for quantum simulation of materials; please cite
         "P. Giannozzi et al., J. Phys.:Condens. Matter 21 395502 (2009);
         "P. Giannozzi et al., J. Phys.:Condens. Matter 29 465901 (2017);
          URL http://www.quantum-espresso.org", 
     in publications or presentations arising from this work. More details at
     http://www.quantum-espresso.org/quote

     Parallel version (MPI), running on    80 processors

     MPI processes distributed on     5 nodes
     R & G space division:  proc/nbgrp/npool/nimage =      80
     Reading input from YBCO_BaO_cleave_7.0_sep.pwi
Warning: card &IONS ignored
Warning: card     ION_DYNAMICS = 'BFGS' ignored
Warning: card / ignored
Warning: card &CELL ignored
Warning: card     CELL_DYNAMICS = 'BFGS' ignored
Warning: card     PRESS_CONV_THR = 5 ignored
Warning: card / ignored

     Current dimensions of program PWSCF are:
     Max number of different atomic species (ntypx) = 10
     Max number of k-points (npk) =  40000
     Max angular momentum in pseudopotentials (lmaxx) =  3
     Message from routine volume:
     axis vectors are left-handed

     Subspace diagonalization in iterative solution of the eigenvalue problem:
     one sub-group per band group will be used
     scalapack distributed-memory algorithm (size of sub-group:  8*  8 procs)

     Message from routine setup:
     using ibrav=0 with symmetry is DISCOURAGED, use correct ibrav instead
 
     Parallelization info
     --------------------
     sticks:   dense  smooth     PW     G-vecs:    dense   smooth      PW
     Min         300     100     25               163480    31462    4133
     Max         301     101     26               163519    31485    4174
     Sum       24079    8031   2067             13080645  2517777  332833
 


     bravais-lattice index     =            0
     lattice parameter (alat)  =      20.5021  a.u.
     unit-cell volume          =   40093.6191 (a.u.)^3
     number of atoms/cell      =          224
     number of atomic types    =            5
     number of electrons       =      1830.00
     number of Kohn-Sham states=         1098
     kinetic-energy cutoff     =      60.0000  Ry
     charge density cutoff     =     720.0000  Ry
     convergence threshold     =      1.0E-08
     mixing beta               =       0.5000
     number of iterations used =           10  local-TF  mixing
     Exchange-correlation= SLA PW PBE PBE
                           (   1   4   3   4   0   0   0)

     celldm(1)=  20.502120  celldm(2)=   0.000000  celldm(3)=   0.000000
     celldm(4)=   0.000000  celldm(5)=   0.000000  celldm(6)=   0.000000

     crystal axes: (cart. coord. in units of alat)
               a(1) = (  -0.716599   0.697485   0.000000 )  
               a(2) = (   0.716599   0.697485   0.000000 )  
               a(3) = (   0.000000   0.000000   4.654121 )  

     reciprocal axes: (cart. coord. in units 2 pi/alat)
               b(1) = ( -0.697740  0.716861  0.000000 )  
               b(2) = (  0.697740  0.716861  0.000000 )  
               b(3) = (  0.000000  0.000000  0.214863 )  


     PseudoPot. # 1 for Ba read from file:
     ./pseudo/Ba.pbe-nsp-van.UPF
     MD5 check sum: 2b9c31dd849566dd297d80989662b7a0
     Pseudo is Ultrasoft + core correction, Zval = 10.0
     Generated by new atomic code, or converted to UPF format
     Using radial grid of  907 points,  6 beta functions with: 
                l(1) =   0
                l(2) =   0
                l(3) =   1
                l(4) =   1
                l(5) =   2
                l(6) =   2
     Q(r) pseudized with  6 coefficients,  rinner =    1.200   1.200   1.200
                                                       1.200   1.200

     PseudoPot. # 2 for Ca read from file:
     ./pseudo/Ca.pbe-nsp-van.UPF
     MD5 check sum: 6471098428ff4fa451746d08035ff179
     Pseudo is Ultrasoft + core correction, Zval = 10.0
     Generated by new atomic code, or converted to UPF format
     Using radial grid of  845 points,  6 beta functions with: 
                l(1) =   0
                l(2) =   0
                l(3) =   1
                l(4) =   1
                l(5) =   2
                l(6) =   2
     Q(r) pseudized with  6 coefficients,  rinner =    1.200   1.200   1.200
                                                       1.200   1.200

     PseudoPot. # 3 for Cu read from file:
     ./pseudo/Cu.pbe-n-van_ak.UPF
     MD5 check sum: 34e3282627ffb533726feb647e090d62
     Pseudo is Ultrasoft + core correction, Zval = 11.0
     Generated by new atomic code, or converted to UPF format
     Using radial grid of  867 points,  6 beta functions with: 
                l(1) =   0
                l(2) =   0
                l(3) =   1
                l(4) =   1
                l(5) =   2
                l(6) =   2
     Q(r) pseudized with  8 coefficients,  rinner =    1.400   1.400   1.400
                                                       1.400   1.400

     PseudoPot. # 4 for O  read from file:
     ./pseudo/O.pbe-van_ak.UPF
     MD5 check sum: 783ce7fe4c79b6a4916957118fed0856
     Pseudo is Ultrasoft, Zval =  6.0
     Generated by new atomic code, or converted to UPF format
     Using radial grid of  737 points,  4 beta functions with: 
                l(1) =   0
                l(2) =   0
                l(3) =   1
                l(4) =   1
     Q(r) pseudized with  8 coefficients,  rinner =    0.800   0.800   0.800


     PseudoPot. # 5 for Y  read from file:
     ./pseudo/Y.pbe-nsp-van.UPF
     MD5 check sum: 4412fed3ab108fed87a1b7d6a69a4a38
     Pseudo is Ultrasoft + core correction, Zval = 11.0
     Generated by new atomic code, or converted to UPF format
     Using radial grid of  885 points,  6 beta functions with: 
                l(1) =   0
                l(2) =   0
                l(3) =   1
                l(4) =   1
                l(5) =   2
                l(6) =   2
     Q(r) pseudized with  6 coefficients,  rinner =    1.200   1.200   1.200
                                                       1.200   1.200

     atomic species   valence    mass     pseudopotential
        Ba            10.00   137.32700     Ba( 1.00)
        Ca            10.00    40.07800     Ca( 1.00)
        Cu            11.00    63.54600     Cu( 1.00)
        O              6.00    15.99900     O ( 1.00)
        Y             11.00    88.90584     Y ( 1.00)

      4 Sym. Ops. (no inversion) found ( 3 have fractional translation)



   Cartesian axes

     site n.     atom                  positions (alat units)
         1           O   tau(   1) = (   0.3545921   0.8718562  -0.0077406  )
         2           O   tau(   2) = (   0.0037072   0.8718562  -0.0077406  )
         3           Cu  tau(   3) = (  -0.0002581   0.0006065   0.0080789  )
         4           Cu  tau(   4) = (  -0.0002581   0.3481364   0.0080789  )
         5           Cu  tau(   5) = (   0.3585574   0.3481364   0.0080789  )
         6           Cu  tau(   6) = (  -0.3580421   0.6980913   0.0080789  )
         7           Cu  tau(   7) = (   0.3577988   0.6971373   0.0086255  )
         8           Cu  tau(   8) = (   0.0005005   1.0465760   0.0086255  )
         9           Cu  tau(   9) = (  -0.3588016   0.3490903   0.0086255  )
        10           Cu  tau(  10) = (   0.0005005   0.6971373   0.0086255  )
        11           O   tau(  11) = (  -0.0001733   0.5225410  -0.0089757  )
        12           O   tau(  12) = (   0.3584726   0.5225410  -0.0089757  )
        13           O   tau(  13) = (  -0.0001733   1.2211724  -0.0089757  )
        14           O   tau(  14) = (  -0.3581278   0.5236867  -0.0089757  )
        15           O   tau(  15) = (  -0.3544557   0.8718562  -0.0105593  )
        16           O   tau(  16) = (  -0.0038445   0.1743714  -0.0105593  )
        17           O   tau(  17) = (   0.3588818   0.3486599   0.1817056  )
        18           O   tau(  18) = (  -0.0005825   0.3486599   0.1817056  )
        19           O   tau(  19) = (  -0.0005825   0.0000830   0.1817056  )
        20           O   tau(  20) = (  -0.3577167   0.6975677   0.1817056  )
        21           O   tau(  21) = (   0.3584283   0.6967843   0.1825784  )
        22           O   tau(  22) = (  -0.3581712   0.3494443   0.1825784  )
        23           O   tau(  23) = (  -0.0001290   0.6967843   0.1825784  )
        24           O   tau(  24) = (  -0.0001290   1.0469291   0.1825784  )
        25           Ba  tau(  25) = (   0.1791506   0.8718562   0.1908537  )
        26           Ba  tau(  26) = (   0.5374498   0.5231143   0.1919901  )
        27           Ba  tau(  27) = (  -0.1791506   0.5231143   0.1919901  )
        28           Ba  tau(  28) = (  -0.1793773   0.8718562   0.1931958  )
        29           Ba  tau(  29) = (  -0.1789238   0.1743714   0.1931958  )
        30           Ba  tau(  30) = (   0.1791506   0.5222101   0.1929368  )
        31           Ba  tau(  31) = (  -0.5374498   0.5240176   0.1929368  )
        32           Ba  tau(  32) = (   0.1791506   0.1743714   0.1992469  )
        33           Cu  tau(  33) = (  -0.3583426   0.3488452   0.3777458  )
        34           Cu  tau(  34) = (   0.3582559   0.6973834   0.3777458  )
        35           Cu  tau(  35) = (   0.0000433   0.6973834   0.3777458  )
        36           Cu  tau(  36) = (   0.0000433   1.0463299   0.3777458  )
        37           Cu  tau(  37) = (  -0.3586541   0.6975060   0.3775126  )
        38           Cu  tau(  38) = (   0.3579444   0.3487217   0.3775126  )
        39           Cu  tau(  39) = (   0.0003549   0.0000212   0.3775126  )
        40           Cu  tau(  40) = (   0.0003549   0.3487217   0.3775126  )
        41           O   tau(  41) = (  -0.0047976   0.1743714   0.3996864  )
        42           O   tau(  42) = (  -0.3535026   0.8718562   0.3996864  )
        43           O   tau(  43) = (  -0.5374498   0.6924605   0.3956991  )
        44           O   tau(  44) = (   0.1791506   0.3537672   0.3956991  )
        45           O   tau(  45) = (   0.3586385   0.8718562   0.4046840  )
        46           O   tau(  46) = (  -0.0003392   0.8718562   0.4046840  )
        47           O   tau(  47) = (  -0.0004857   0.5230571   0.4066611  )
        48           O   tau(  48) = (   0.3587850   0.5230571   0.4066611  )
        49           O   tau(  49) = (  -0.3578135   0.5231714   0.4066611  )
        50           O   tau(  50) = (  -0.0004857   1.2206562   0.4066611  )
        51           O   tau(  51) = (   0.1791506   1.0461604   0.4028931  )
        52           O   tau(  52) = (   0.1791506   0.6975521   0.4028931  )
        53           O   tau(  53) = (  -0.1792261   0.6967170   0.4025963  )
        54           O   tau(  54) = (  -0.1790731   0.3495106   0.4025963  )
        55           O   tau(  55) = (  -0.1792261   1.0469964   0.4025963  )
        56           O   tau(  56) = (   0.5375263   0.6967170   0.4025963  )
        57           Ca  tau(  57) = (   0.1791506   0.1743714   0.5358617  )
        58           Y   tau(  58) = (  -0.1811525   0.8718562   0.5373908  )
        59           Y   tau(  59) = (  -0.1771467   0.1743714   0.5373908  )
        60           Y   tau(  60) = (   0.1791506   0.8718562   0.5379568  )
        61           Y   tau(  61) = (   0.5374498   0.5231143   0.5384490  )
        62           Y   tau(  62) = (  -0.1791506   0.5231143   0.5384490  )
        63           Y   tau(  63) = (   0.1791506   0.5216598   0.5383310  )
        64           Y   tau(  64) = (  -0.5374498   0.5245688   0.5383310  )
        65           O   tau(  65) = (  -0.1787754   0.3493171   0.6712314  )
        66           O   tau(  66) = (   0.5378231   0.6969115   0.6712314  )
        67           O   tau(  67) = (  -0.1795239   1.0468019   0.6712314  )
        68           O   tau(  68) = (  -0.1795239   0.6969115   0.6712314  )
        69           O   tau(  69) = (   0.1791506   0.6972691   0.6718637  )
        70           O   tau(  70) = (   0.1791506   1.0464433   0.6718637  )
        71           O   tau(  71) = (  -0.0003880   1.2203935   0.6667490  )
        72           O   tau(  72) = (  -0.0003880   0.5233198   0.6667490  )
        73           O   tau(  73) = (   0.3586882   0.5233198   0.6667490  )
        74           O   tau(  74) = (  -0.3579112   0.5229087   0.6667490  )
        75           O   tau(  75) = (   0.3585850   0.8718562   0.6641940  )
        76           O   tau(  76) = (  -0.0002857   0.8718562   0.6641940  )
        77           O   tau(  77) = (   0.1791506   0.3535118   0.6756778  )
        78           O   tau(  78) = (  -0.5374498   0.6927158   0.6756778  )
        79           O   tau(  79) = (  -0.0043044   0.1743714   0.6710848  )
        80           O   tau(  80) = (  -0.3539948   0.8718562   0.6710848  )
        81           Cu  tau(  81) = (  -0.3586514   0.6973604   0.6974442  )
        82           Cu  tau(  82) = (   0.3579472   0.3488682   0.6974442  )
        83           Cu  tau(  83) = (   0.0003521  -0.0001254   0.6974442  )
        84           Cu  tau(  84) = (   0.0003521   0.3488682   0.6974442  )
        85           Cu  tau(  85) = (   0.0000083   1.0459401   0.6989015  )
        86           Cu  tau(  86) = (  -0.3583076   0.3484544   0.6989015  )
        87           Cu  tau(  87) = (   0.3582910   0.6977733   0.6989015  )
        88           Cu  tau(  88) = (   0.0000083   0.6977733   0.6989015  )
        89           Ba  tau(  89) = (   0.1791506   0.1743714   0.8671591  )
        90           Ba  tau(  90) = (  -0.5374498   0.5239908   0.8827639  )
        91           Ba  tau(  91) = (   0.1791506   0.5222377   0.8827639  )
        92           Ba  tau(  92) = (  -0.1785616   0.1743714   0.8784262  )
        93           Ba  tau(  93) = (  -0.1797386   0.8718562   0.8784262  )
        94           Ba  tau(  94) = (  -0.1791506   0.5231143   0.8841483  )
        95           Ba  tau(  95) = (   0.5374498   0.5231143   0.8841483  )
        96           Ba  tau(  96) = (   0.1791506   0.8718562   0.8844635  )
        97           O   tau(  97) = (   0.3607888   0.6975991   0.9037874  )
        98           O   tau(  98) = (  -0.3558097   0.3486286   0.9037874  )
        99           O   tau(  99) = (  -0.0024896   0.6975991   0.9037874  )
       100           O   tau( 100) = (  -0.0024896   1.0461143   0.9037874  )
       101           O   tau( 101) = (   0.3544087   0.3463252   0.9043663  )
       102           O   tau( 102) = (   0.0038906   0.3463252   0.9043663  )
       103           O   tau( 103) = (   0.0038906   0.0024177   0.9043663  )
       104           O   tau( 104) = (  -0.3621908   0.6999025   0.9043663  )
       105           O   tau( 105) = (   0.3314246   0.8718562   1.0783672  )
       106           O   tau( 106) = (   0.0268747   0.8718562   1.0783672  )
       107           Cu  tau( 107) = (  -0.0027882   0.0031818   1.0782086  )
       108           Cu  tau( 108) = (  -0.0027882   0.3455601   1.0782086  )
       109           Cu  tau( 109) = (   0.3610875   0.3455601   1.0782086  )
       110           Cu  tau( 110) = (  -0.3555111   0.7006675   1.0782086  )
       111           Cu  tau( 111) = (   0.3579684   0.6983604   1.0781976  )
       112           Cu  tau( 112) = (   0.0003318   1.0453529   1.0781976  )
       113           Cu  tau( 113) = (  -0.3586320   0.3478672   1.0781976  )
       114           Cu  tau( 114) = (   0.0003318   0.6983604   1.0781976  )
       115           O   tau( 115) = (  -0.0055718   0.5218801   1.0778989  )
       116           O   tau( 116) = (   0.3638720   0.5218801   1.0778989  )
       117           O   tau( 117) = (  -0.0055718   1.2218333   1.0778989  )
       118           O   tau( 118) = (  -0.3527284   0.5243475   1.0778989  )
       119           O   tau( 119) = (  -0.3170374   0.8718562   1.0783192  )
       120           O   tau( 120) = (  -0.0412618   0.1743714   1.0783192  )
       121           O   tau( 121) = (   0.3544105   0.3465040   1.2520362  )
       122           O   tau( 122) = (   0.0038887   0.3465040   1.2520362  )
       123           O   tau( 123) = (   0.0038887   0.0022389   1.2520362  )
       124           O   tau( 124) = (  -0.3621880   0.6997236   1.2520362  )
       125           O   tau( 125) = (   0.3607981   0.6973991   1.2525976  )
       126           O   tau( 126) = (  -0.3558014   0.3488295   1.2525976  )
       127           O   tau( 127) = (  -0.0024988   0.6973991   1.2525976  )
       128           O   tau( 128) = (  -0.0024988   1.0463143   1.2525976  )
       129           Ba  tau( 129) = (   0.1791506   0.8718562   1.2719528  )
       130           Ba  tau( 130) = (   0.5374498   0.5231143   1.2722763  )
       131           Ba  tau( 131) = (  -0.1791506   0.5231143   1.2722763  )
       132           Ba  tau( 132) = (  -0.1796732   0.8718562   1.2779763  )
       133           Ba  tau( 133) = (  -0.1786270   0.1743714   1.2779763  )
       134           Ba  tau( 134) = (   0.1791506   0.5222571   1.2737041  )
       135           Ba  tau( 135) = (  -0.5374498   0.5239706   1.2737041  )
       136           Ba  tau( 136) = (   0.1791506   0.1743714   1.2892268  )
       137           Cu  tau( 137) = (  -0.3583094   0.3484682   2.1027288  )
       138           Cu  tau( 138) = (   0.3582901   0.6977604   2.1027288  )
       139           Cu  tau( 139) = (   0.0000101   0.6977604   2.1027288  )
       140           Cu  tau( 140) = (   0.0000101   1.0459530   2.1027288  )
       141           Cu  tau( 141) = (  -0.3586477   0.6973567   2.1041492  )
       142           Cu  tau( 142) = (   0.3579518   0.3488710   2.1041492  )
       143           Cu  tau( 143) = (   0.0003484  -0.0001281   2.1041492  )
       144           Cu  tau( 144) = (   0.0003484   0.3488710   2.1041492  )
       145           O   tau( 145) = (  -0.0043173   0.1743714   2.1304542  )
       146           O   tau( 146) = (  -0.3539819   0.8718562   2.1304542  )
       147           O   tau( 147) = (  -0.5374498   0.6927305   2.1259230  )
       148           O   tau( 148) = (   0.1791506   0.3534971   2.1259230  )
       149           O   tau( 149) = (   0.3585795   0.8718562   2.1373644  )
       150           O   tau( 150) = (  -0.0002802   0.8718562   2.1373644  )
       151           O   tau( 151) = (  -0.0003853   0.5233134   2.1348683  )
       152           O   tau( 152) = (   0.3586855   0.5233134   2.1348683  )
       153           O   tau( 153) = (  -0.3579140   0.5229152   2.1348683  )
       154           O   tau( 154) = (  -0.0003853   1.2204000   2.1348683  )
       155           O   tau( 155) = (   0.1791506   1.0464553   2.1297417  )
       156           O   tau( 156) = (   0.1791506   0.6972571   2.1297417  )
       157           O   tau( 157) = (  -0.1795146   0.6969069   2.1303703  )
       158           O   tau( 158) = (  -0.1787846   0.3493208   2.1303703  )
       159           O   tau( 159) = (  -0.1795146   1.0468065   2.1303703  )
       160           O   tau( 160) = (   0.5378139   0.6969069   2.1303703  )
       161           Ca  tau( 161) = (   0.1791506   0.1743714   2.2657326  )
       162           Y   tau( 162) = (  -0.1811544   0.8718562   2.2642016  )
       163           Y   tau( 163) = (  -0.1771449   0.1743714   2.2642016  )
       164           Y   tau( 164) = (   0.1791506   0.8718562   2.2636385  )
       165           Y   tau( 165) = (   0.5374498   0.5231143   2.2631693  )
       166           Y   tau( 166) = (  -0.1791506   0.5231143   2.2631693  )
       167           Y   tau( 167) = (   0.1791506   0.5216524   2.2632901  )
       168           Y   tau( 168) = (  -0.5374498   0.5245761   2.2632901  )
       169           O   tau( 169) = (  -0.1790685   0.3495088   2.3990044  )
       170           O   tau( 170) = (   0.5375300   0.6967198   2.3990044  )
       171           O   tau( 171) = (  -0.1792307   1.0469936   2.3990044  )
       172           O   tau( 172) = (  -0.1792307   0.6967198   2.3990044  )
       173           O   tau( 173) = (   0.1791506   0.6975604   2.3987077  )
       174           O   tau( 174) = (   0.1791506   1.0461521   2.3987077  )
       175           O   tau( 175) = (  -0.0004848   1.2206534   2.3949433  )
       176           O   tau( 176) = (  -0.0004848   0.5230599   2.3949433  )
       177           O   tau( 177) = (   0.3587841   0.5230599   2.3949433  )
       178           O   tau( 178) = (  -0.3578144   0.5231687   2.3949433  )
       179           O   tau( 179) = (   0.3586468   0.8718562   2.3968817  )
       180           O   tau( 180) = (  -0.0003466   0.8718562   2.3968817  )
       181           O   tau( 181) = (   0.1791506   0.3537690   2.4059045  )
       182           O   tau( 182) = (  -0.5374498   0.6924586   2.4059045  )
       183           O   tau( 183) = (  -0.0047874   0.1743714   2.4018692  )
       184           O   tau( 184) = (  -0.3535118   0.8718562   2.4018692  )
       185           Cu  tau( 185) = (  -0.3586560   0.6975087   2.4240753  )
       186           Cu  tau( 186) = (   0.3579435   0.3487198   2.4240753  )
       187           Cu  tau( 187) = (   0.0003567   0.0000230   2.4240753  )
       188           Cu  tau( 188) = (   0.0003567   0.3487198   2.4240753  )
       189           Cu  tau( 189) = (   0.0000415   1.0463263   2.4238430  )
       190           Cu  tau( 190) = (  -0.3583407   0.3488406   2.4238430  )
       191           Cu  tau( 191) = (   0.3582587   0.6973871   2.4238430  )
       192           Cu  tau( 192) = (   0.0000415   0.6973871   2.4238430  )
       193           Ba  tau( 193) = (   0.1791506   0.1743714   2.6023484  )
       194           Ba  tau( 194) = (  -0.5374498   0.5240166   2.6086576  )
       195           Ba  tau( 195) = (   0.1791506   0.5222119   2.6086576  )
       196           Ba  tau( 196) = (  -0.1789220   0.1743714   2.6084013  )
       197           Ba  tau( 197) = (  -0.1793773   0.8718562   2.6084013  )
       198           Ba  tau( 198) = (  -0.1791506   0.5231143   2.6096115  )
       199           Ba  tau( 199) = (   0.5374498   0.5231143   2.6096115  )
       200           Ba  tau( 200) = (   0.1791506   0.8718562   2.6107397  )
       201           O   tau( 201) = (   0.3584302   0.6967870   2.6190094  )
       202           O   tau( 202) = (  -0.3581684   0.3494406   2.6190094  )
       203           O   tau( 203) = (  -0.0001309   0.6967870   2.6190094  )
       204           O   tau( 204) = (  -0.0001309   1.0469263   2.6190094  )
       205           O   tau( 205) = (   0.3588800   0.3486562   2.6198823  )
       206           O   tau( 206) = (  -0.0005807   0.3486562   2.6198823  )
       207           O   tau( 207) = (  -0.0005807   0.0000866   2.6198823  )
       208           O   tau( 208) = (  -0.3577186   0.6975714   2.6198823  )
       209           O   tau( 209) = (   0.3545921   0.8718562   2.8093128  )
       210           O   tau( 210) = (   0.0037081   0.8718562   2.8093128  )
       211           Cu  tau( 211) = (  -0.0002516   0.0006074   2.7935090  )
       212           Cu  tau( 212) = (  -0.0002516   0.3481345   2.7935090  )
       213           Cu  tau( 213) = (   0.3585509   0.3481345   2.7935090  )
       214           Cu  tau( 214) = (  -0.3580476   0.6980931   2.7935090  )
       215           Cu  tau( 215) = (   0.3577960   0.6971373   2.7929624  )
       216           Cu  tau( 216) = (   0.0005033   1.0465760   2.7929624  )
       217           Cu  tau( 217) = (  -0.3588035   0.3490903   2.7929624  )
       218           Cu  tau( 218) = (   0.0005033   0.6971373   2.7929624  )
       219           O   tau( 219) = (  -0.0001724   0.5225410   2.8105516  )
       220           O   tau( 220) = (   0.3584716   0.5225410   2.8105516  )
       221           O   tau( 221) = (  -0.0001724   1.2211724   2.8105516  )
       222           O   tau( 222) = (  -0.3581288   0.5236867   2.8105516  )
       223           O   tau( 223) = (  -0.3544640   0.8718562   2.8121416  )
       224           O   tau( 224) = (  -0.0038353   0.1743714   2.8121416  )

     number of k points=     4  Gaussian smearing, width (Ry)=  0.0100
                       cart. coord. in units 2pi/alat
        k(    1) = (   0.0000000   0.0000000   0.0000000), wk =   0.2222222
        k(    2) = (   0.2325801   0.2389537   0.0000000), wk =   0.8888889
        k(    3) = (   0.0000000   0.4779073   0.0000000), wk =   0.4444444
        k(    4) = (  -0.4651601  -0.0000000   0.0000000), wk =   0.4444444

     Dense  grid: 13080645 G-vectors     FFT dimensions: ( 180, 180, 864)

     Smooth grid:  2517777 G-vectors     FFT dimensions: ( 108, 108, 480)

     Estimated max dynamical RAM per process >       2.73 GB

     Estimated total dynamical RAM >     218.26 GB

     Initial potential from superposition of free atoms

     starting charge 1828.78422, renormalised to 1830.00000

     negative rho (up, down):  6.292E-01 0.000E+00
     Starting wfcs are 1602 randomized atomic wfcs

     total cpu time spent up to now is       66.9 secs

     Self-consistent Calculation

     iteration #  1     ecut=    60.00 Ry     beta= 0.50
     Davidson diagonalization with overlap
     ethr =  1.00E-02,  avg # of iterations =  2.0

     negative rho (up, down):  6.001E-01 0.000E+00

     total cpu time spent up to now is      179.3 secs

     total energy              =  -14912.33546548 Ry
     Harris-Foulkes estimate   =  -14943.92013538 Ry
     estimated scf accuracy    <     149.51934137 Ry

     iteration #  2     ecut=    60.00 Ry     beta= 0.50
     Davidson diagonalization with overlap
     ethr =  8.17E-03,  avg # of iterations =  2.0

     negative rho (up, down):  6.005E-01 0.000E+00

     total cpu time spent up to now is      284.5 secs

     total energy              =  -14923.30323869 Ry
     Harris-Foulkes estimate   =  -14927.69836339 Ry
     estimated scf accuracy    <      67.03348700 Ry

     iteration #  3     ecut=    60.00 Ry     beta= 0.50
     Davidson diagonalization with overlap
     ethr =  3.66E-03,  avg # of iterations =  1.0

     negative rho (up, down):  6.036E-01 0.000E+00

     total cpu time spent up to now is      386.0 secs

     total energy              =  -14924.77515582 Ry
     Harris-Foulkes estimate   =  -14926.02401075 Ry
     estimated scf accuracy    <      47.63995703 Ry

     iteration #  4     ecut=    60.00 Ry     beta= 0.50
     Davidson diagonalization with overlap
     ethr =  2.60E-03,  avg # of iterations =  1.0

     negative rho (up, down):  6.081E-01 0.000E+00

     total cpu time spent up to now is      487.0 secs

     total energy              =  -14924.88992451 Ry
     Harris-Foulkes estimate   =  -14925.45747967 Ry
     estimated scf accuracy    <      17.69546535 Ry

     iteration #  5     ecut=    60.00 Ry     beta= 0.50
     Davidson diagonalization with overlap
     ethr =  9.67E-04,  avg # of iterations =  1.0

     negative rho (up, down):  6.183E-01 0.000E+00

     total cpu time spent up to now is      588.0 secs

     total energy              =  -14924.64697465 Ry
     Harris-Foulkes estimate   =  -14925.18104678 Ry
     estimated scf accuracy    <      20.11448216 Ry

     iteration #  6     ecut=    60.00 Ry     beta= 0.50
     Davidson diagonalization with overlap
     ethr =  9.67E-04,  avg # of iterations =  1.0

     negative rho (up, down):  6.246E-01 0.000E+00

     total cpu time spent up to now is      688.7 secs

     total energy              =  -14924.60319124 Ry
     Harris-Foulkes estimate   =  -14924.87072056 Ry
     estimated scf accuracy    <       7.61507170 Ry

     iteration #  7     ecut=    60.00 Ry     beta= 0.50
     Davidson diagonalization with overlap
     ethr =  4.16E-04,  avg # of iterations =  3.8

     negative rho (up, down):  6.318E-01 0.000E+00

     total cpu time spent up to now is      801.1 secs

     total energy              =  -14924.54339724 Ry
     Harris-Foulkes estimate   =  -14924.70626211 Ry
     estimated scf accuracy    <       5.71898490 Ry

     iteration #  8     ecut=    60.00 Ry     beta= 0.50
     Davidson diagonalization with overlap
     ethr =  3.13E-04,  avg # of iterations =  7.8

     negative rho (up, down):  6.367E-01 0.000E+00

     total cpu time spent up to now is      934.0 secs

     total energy              =  -14924.42225332 Ry
     Harris-Foulkes estimate   =  -14924.59764547 Ry
     estimated scf accuracy    <       4.42737194 Ry

     iteration #  9     ecut=    60.00 Ry     beta= 0.50
     Davidson diagonalization with overlap
     ethr =  2.42E-04,  avg # of iterations =  4.0

     negative rho (up, down):  6.365E-01 0.000E+00

     total cpu time spent up to now is     1048.9 secs

     total energy              =  -14924.31523136 Ry
     Harris-Foulkes estimate   =  -14924.46085535 Ry
     estimated scf accuracy    <       2.66152691 Ry

     iteration # 10     ecut=    60.00 Ry     beta= 0.50
     Davidson diagonalization with overlap
     ethr =  1.45E-04,  avg # of iterations =  9.2

     negative rho (up, down):  6.376E-01 0.000E+00

     total cpu time spent up to now is     1191.7 secs

     total energy              =  -14924.22718326 Ry
     Harris-Foulkes estimate   =  -14924.34762383 Ry
     estimated scf accuracy    <       1.53425544 Ry

     iteration # 11     ecut=    60.00 Ry     beta= 0.50
     Davidson diagonalization with overlap
     ethr =  8.38E-05,  avg # of iterations =  9.5

     negative rho (up, down):  6.780E-01 0.000E+00

     total cpu time spent up to now is     1329.9 secs

     total energy              =  -14924.21930716 Ry
     Harris-Foulkes estimate   =  -14924.26411439 Ry
     estimated scf accuracy    <       0.71103830 Ry

     iteration # 12     ecut=    60.00 Ry     beta= 0.50
     Davidson diagonalization with overlap
     ethr =  3.89E-05,  avg # of iterations = 13.2

     negative rho (up, down):  6.675E-01 0.000E+00

     total cpu time spent up to now is     1486.5 secs

     total energy              =  -14924.22228266 Ry
     Harris-Foulkes estimate   =  -14924.23549019 Ry
     estimated scf accuracy    <       0.33050953 Ry

     iteration # 13     ecut=    60.00 Ry     beta= 0.50
     Davidson diagonalization with overlap
     c_bands:  2 eigenvalues not converged
     ethr =  1.81E-05,  avg # of iterations = 13.2

     negative rho (up, down):  6.626E-01 0.000E+00

     total cpu time spent up to now is     1648.5 secs

     total energy              =  -14924.21866170 Ry
     Harris-Foulkes estimate   =  -14924.23015649 Ry
     estimated scf accuracy    <       0.20030594 Ry

     iteration # 14     ecut=    60.00 Ry     beta= 0.50
     Davidson diagonalization with overlap
     c_bands:  2 eigenvalues not converged
     ethr =  1.09E-05,  avg # of iterations =  8.0

     negative rho (up, down):  7.335E-01 0.000E+00

     total cpu time spent up to now is     1782.6 secs

     total energy              =  -14924.21861662 Ry
     Harris-Foulkes estimate   =  -14924.22497077 Ry
     estimated scf accuracy    <       0.10241366 Ry

     iteration # 15     ecut=    60.00 Ry     beta= 0.50
     Davidson diagonalization with overlap
     ethr =  5.60E-06,  avg # of iterations = 12.2

     negative rho (up, down):  7.634E-01 0.000E+00

     total cpu time spent up to now is     1956.3 secs

     total energy              =  -14924.21907710 Ry
     Harris-Foulkes estimate   =  -14924.22253453 Ry
     estimated scf accuracy    <       0.10792934 Ry

     iteration # 16     ecut=    60.00 Ry     beta= 0.50
     Davidson diagonalization with overlap
     c_bands:  1 eigenvalues not converged
     ethr =  5.60E-06,  avg # of iterations = 14.2

     negative rho (up, down):  7.243E-01 0.000E+00

     total cpu time spent up to now is     2114.7 secs

     total energy              =  -14924.21808827 Ry
     Harris-Foulkes estimate   =  -14924.22041961 Ry
     estimated scf accuracy    <       0.06298376 Ry

     iteration # 17     ecut=    60.00 Ry     beta= 0.50
     Davidson diagonalization with overlap
     ethr =  3.44E-06,  avg # of iterations =  7.5

     negative rho (up, down):  6.687E-01 0.000E+00

     total cpu time spent up to now is     2243.6 secs

     total energy              =  -14924.21285687 Ry
     Harris-Foulkes estimate   =  -14924.21870381 Ry
     estimated scf accuracy    <       0.04629864 Ry

     iteration # 18     ecut=    60.00 Ry     beta= 0.50
     Davidson diagonalization with overlap
     c_bands:  1 eigenvalues not converged
     c_bands:  1 eigenvalues not converged
     ethr =  2.53E-06,  avg # of iterations = 17.0

     negative rho (up, down):  6.293E-01 0.000E+00

     total cpu time spent up to now is     2416.8 secs

     total energy              =  -14924.21042807 Ry
     Harris-Foulkes estimate   =  -14924.21358855 Ry
     estimated scf accuracy    <       0.06646482 Ry

     iteration # 19     ecut=    60.00 Ry     beta= 0.50
     Davidson diagonalization with overlap
     c_bands:  1 eigenvalues not converged
     c_bands:  1 eigenvalues not converged
     ethr =  2.53E-06,  avg # of iterations = 18.8

     negative rho (up, down):  6.313E-01 0.000E+00

     total cpu time spent up to now is     2617.0 secs

     total energy              =  -14924.20721594 Ry
     Harris-Foulkes estimate   =  -14924.21094873 Ry
     estimated scf accuracy    <       0.05116377 Ry

     iteration # 20     ecut=    60.00 Ry     beta= 0.50
     Davidson diagonalization with overlap
     ethr =  2.53E-06,  avg # of iterations = 13.2

     negative rho (up, down):  6.272E-01 0.000E+00

     total cpu time spent up to now is     2770.5 secs

     total energy              =  -14924.20562527 Ry
     Harris-Foulkes estimate   =  -14924.20775117 Ry
     estimated scf accuracy    <       0.04131296 Ry

     iteration # 21     ecut=    60.00 Ry     beta= 0.50
     Davidson diagonalization with overlap
     ethr =  2.26E-06,  avg # of iterations = 13.2

     negative rho (up, down):  6.263E-01 0.000E+00

     total cpu time spent up to now is     2940.3 secs

     total energy              =  -14924.20421953 Ry
     Harris-Foulkes estimate   =  -14924.20593312 Ry
     estimated scf accuracy    <       0.03206233 Ry

     iteration # 22     ecut=    60.00 Ry     beta= 0.50
     Davidson diagonalization with overlap
     ethr =  1.75E-06,  avg # of iterations =  5.2

     negative rho (up, down):  6.254E-01 0.000E+00

     total cpu time spent up to now is     3059.8 secs

     total energy              =  -14924.20294439 Ry
     Harris-Foulkes estimate   =  -14924.20443112 Ry
     estimated scf accuracy    <       0.01660565 Ry

     iteration # 23     ecut=    60.00 Ry     beta= 0.50
     Davidson diagonalization with overlap
     c_bands:  1 eigenvalues not converged
     ethr =  9.07E-07,  avg # of iterations = 10.5

     negative rho (up, down):  6.262E-01 0.000E+00

     total cpu time spent up to now is     3206.4 secs

     total energy              =  -14924.20210790 Ry
     Harris-Foulkes estimate   =  -14924.20323239 Ry
     estimated scf accuracy    <       0.01183485 Ry

     iteration # 24     ecut=    60.00 Ry     beta= 0.50
     Davidson diagonalization with overlap
     ethr =  6.47E-07,  avg # of iterations = 10.5

     negative rho (up, down):  6.274E-01 0.000E+00

     total cpu time spent up to now is     3347.5 secs

     total energy              =  -14924.20283018 Ry
     Harris-Foulkes estimate   =  -14924.20242381 Ry
     estimated scf accuracy    <       0.00758684 Ry

     iteration # 25     ecut=    60.00 Ry     beta= 0.50
     Davidson diagonalization with overlap
     c_bands:  1 eigenvalues not converged
     ethr =  4.15E-07,  avg # of iterations = 14.0

     negative rho (up, down):  6.353E-01 0.000E+00

     total cpu time spent up to now is     3520.2 secs

     total energy              =  -14924.20332267 Ry
     Harris-Foulkes estimate   =  -14924.20302227 Ry
     estimated scf accuracy    <       0.00327982 Ry

     iteration # 26     ecut=    60.00 Ry     beta= 0.50
     Davidson diagonalization with overlap
     ethr =  1.79E-07,  avg # of iterations = 11.0

     negative rho (up, down):  6.439E-01 0.000E+00

     total cpu time spent up to now is     3667.5 secs

     total energy              =  -14924.20365251 Ry
     Harris-Foulkes estimate   =  -14924.20342833 Ry
     estimated scf accuracy    <       0.00303314 Ry

     iteration # 27     ecut=    60.00 Ry     beta= 0.50
     Davidson diagonalization with overlap
     ethr =  1.66E-07,  avg # of iterations =  5.0

     negative rho (up, down):  6.429E-01 0.000E+00

     total cpu time spent up to now is     3787.4 secs

     total energy              =  -14924.20360092 Ry
     Harris-Foulkes estimate   =  -14924.20371073 Ry
     estimated scf accuracy    <       0.00186084 Ry

     iteration # 28     ecut=    60.00 Ry     beta= 0.50
     Davidson diagonalization with overlap
     ethr =  1.02E-07,  avg # of iterations =  7.5

     negative rho (up, down):  6.363E-01 0.000E+00

     total cpu time spent up to now is     3916.1 secs

     total energy              =  -14924.20342237 Ry
     Harris-Foulkes estimate   =  -14924.20365384 Ry
     estimated scf accuracy    <       0.00138735 Ry

     iteration # 29     ecut=    60.00 Ry     beta= 0.50
     Davidson diagonalization with overlap
     ethr =  7.58E-08,  avg # of iterations =  9.8

     negative rho (up, down):  6.358E-01 0.000E+00

     total cpu time spent up to now is     4059.8 secs

     total energy              =  -14924.20356588 Ry
     Harris-Foulkes estimate   =  -14924.20348342 Ry
     estimated scf accuracy    <       0.00037573 Ry

     iteration # 30     ecut=    60.00 Ry     beta= 0.50
     Davidson diagonalization with overlap
     ethr =  2.05E-08,  avg # of iterations =  2.2

     negative rho (up, down):  6.339E-01 0.000E+00

     total cpu time spent up to now is     4166.8 secs

     total energy              =  -14924.20359583 Ry
     Harris-Foulkes estimate   =  -14924.20358489 Ry
     estimated scf accuracy    <       0.00020632 Ry

     iteration # 31     ecut=    60.00 Ry     beta= 0.50
     Davidson diagonalization with overlap
     ethr =  1.13E-08,  avg # of iterations =  2.0

     negative rho (up, down):  6.347E-01 0.000E+00

     total cpu time spent up to now is     4272.2 secs

     total energy              =  -14924.20365049 Ry
     Harris-Foulkes estimate   =  -14924.20360774 Ry
     estimated scf accuracy    <       0.00012676 Ry

     iteration # 32     ecut=    60.00 Ry     beta= 0.50
     Davidson diagonalization with overlap
     ethr =  6.93E-09,  avg # of iterations =  4.5

     negative rho (up, down):  6.337E-01 0.000E+00

     total cpu time spent up to now is     4389.2 secs

     total energy              =  -14924.20365626 Ry
     Harris-Foulkes estimate   =  -14924.20365538 Ry
     estimated scf accuracy    <       0.00009189 Ry

     iteration # 33     ecut=    60.00 Ry     beta= 0.50
     Davidson diagonalization with overlap
     ethr =  5.02E-09,  avg # of iterations =  1.0

     negative rho (up, down):  6.345E-01 0.000E+00

     total cpu time spent up to now is     4490.0 secs

     total energy              =  -14924.20365674 Ry
     Harris-Foulkes estimate   =  -14924.20365790 Ry
     estimated scf accuracy    <       0.00003377 Ry

     iteration # 34     ecut=    60.00 Ry     beta= 0.50
     Davidson diagonalization with overlap
     ethr =  1.85E-09,  avg # of iterations =  1.0

     negative rho (up, down):  6.347E-01 0.000E+00

     total cpu time spent up to now is     4595.6 secs

     total energy              =  -14924.20365642 Ry
     Harris-Foulkes estimate   =  -14924.20365745 Ry
     estimated scf accuracy    <       0.00001638 Ry

     iteration # 35     ecut=    60.00 Ry     beta= 0.50
     Davidson diagonalization with overlap
     ethr =  8.95E-10,  avg # of iterations =  1.0

     negative rho (up, down):  6.346E-01 0.000E+00

     total cpu time spent up to now is     4698.1 secs

     total energy              =  -14924.20365665 Ry
     Harris-Foulkes estimate   =  -14924.20365705 Ry
     estimated scf accuracy    <       0.00001129 Ry

     iteration # 36     ecut=    60.00 Ry     beta= 0.50
     Davidson diagonalization with overlap
     ethr =  6.17E-10,  avg # of iterations =  1.0

     negative rho (up, down):  6.349E-01 0.000E+00

     total cpu time spent up to now is     4799.6 secs

     total energy              =  -14924.20365625 Ry
     Harris-Foulkes estimate   =  -14924.20365724 Ry
     estimated scf accuracy    <       0.00000962 Ry

     iteration # 37     ecut=    60.00 Ry     beta= 0.50
     Davidson diagonalization with overlap
     ethr =  5.26E-10,  avg # of iterations =  1.0

     negative rho (up, down):  6.354E-01 0.000E+00

     total cpu time spent up to now is     4902.3 secs

     total energy              =  -14924.20365514 Ry
     Harris-Foulkes estimate   =  -14924.20365646 Ry
     estimated scf accuracy    <       0.00000732 Ry

     iteration # 38     ecut=    60.00 Ry     beta= 0.50
     Davidson diagonalization with overlap
     ethr =  4.00E-10,  avg # of iterations =  1.0

     negative rho (up, down):  6.354E-01 0.000E+00

     total cpu time spent up to now is     5004.9 secs

     total energy              =  -14924.20365522 Ry
     Harris-Foulkes estimate   =  -14924.20365537 Ry
     estimated scf accuracy    <       0.00000199 Ry

     iteration # 39     ecut=    60.00 Ry     beta= 0.50
     Davidson diagonalization with overlap
     ethr =  1.09E-10,  avg # of iterations =  1.0

     negative rho (up, down):  6.353E-01 0.000E+00

     total cpu time spent up to now is     5106.5 secs

     total energy              =  -14924.20365534 Ry
     Harris-Foulkes estimate   =  -14924.20365531 Ry
     estimated scf accuracy    <       0.00000124 Ry

     iteration # 40     ecut=    60.00 Ry     beta= 0.50
     Davidson diagonalization with overlap
     ethr =  6.76E-11,  avg # of iterations =  1.0

     negative rho (up, down):  6.352E-01 0.000E+00

     total cpu time spent up to now is     5208.7 secs

     total energy              =  -14924.20365549 Ry
     Harris-Foulkes estimate   =  -14924.20365540 Ry
     estimated scf accuracy    <       0.00000061 Ry

     iteration # 41     ecut=    60.00 Ry     beta= 0.50
     Davidson diagonalization with overlap
     ethr =  3.32E-11,  avg # of iterations =  1.8

     negative rho (up, down):  6.352E-01 0.000E+00

     total cpu time spent up to now is     5314.3 secs

     total energy              =  -14924.20365550 Ry
     Harris-Foulkes estimate   =  -14924.20365551 Ry
     estimated scf accuracy    <       0.00000034 Ry

     iteration # 42     ecut=    60.00 Ry     beta= 0.50
     Davidson diagonalization with overlap
     ethr =  1.85E-11,  avg # of iterations =  1.2

     negative rho (up, down):  6.352E-01 0.000E+00

     total cpu time spent up to now is     5416.0 secs

     total energy              =  -14924.20365550 Ry
     Harris-Foulkes estimate   =  -14924.20365551 Ry
     estimated scf accuracy    <       0.00000020 Ry

     iteration # 43     ecut=    60.00 Ry     beta= 0.50
     Davidson diagonalization with overlap
     ethr =  1.12E-11,  avg # of iterations =  1.0

     negative rho (up, down):  6.352E-01 0.000E+00

     total cpu time spent up to now is     5519.0 secs

     total energy              =  -14924.20365553 Ry
     Harris-Foulkes estimate   =  -14924.20365551 Ry
     estimated scf accuracy    <       0.00000013 Ry

     iteration # 44     ecut=    60.00 Ry     beta= 0.50
     Davidson diagonalization with overlap
     ethr =  6.91E-12,  avg # of iterations =  1.0

     negative rho (up, down):  6.352E-01 0.000E+00

     total cpu time spent up to now is     5622.8 secs

     total energy              =  -14924.20365560 Ry
     Harris-Foulkes estimate   =  -14924.20365554 Ry
     estimated scf accuracy    <       0.00000005 Ry

     iteration # 45     ecut=    60.00 Ry     beta= 0.50
     Davidson diagonalization with overlap
     ethr =  2.69E-12,  avg # of iterations =  1.2

     negative rho (up, down):  6.351E-01 0.000E+00

     total cpu time spent up to now is     5727.0 secs

     total energy              =  -14924.20365568 Ry
     Harris-Foulkes estimate   =  -14924.20365560 Ry
     estimated scf accuracy    <       0.00000002 Ry

     iteration # 46     ecut=    60.00 Ry     beta= 0.50
     Davidson diagonalization with overlap
     ethr =  1.32E-12,  avg # of iterations =  2.0

     negative rho (up, down):  6.351E-01 0.000E+00

     total cpu time spent up to now is     5832.6 secs

     total energy              =  -14924.20365574 Ry
     Harris-Foulkes estimate   =  -14924.20365568 Ry
     estimated scf accuracy    <       0.00000002 Ry

     iteration # 47     ecut=    60.00 Ry     beta= 0.50
     Davidson diagonalization with overlap
     ethr =  8.48E-13,  avg # of iterations =  2.0

     negative rho (up, down):  6.351E-01 0.000E+00

     total cpu time spent up to now is     5934.7 secs

     End of self-consistent calculation

          k = 0.0000 0.0000 0.0000 (314657 PWs)   bands (ev):

   -38.6712 -38.6455 -38.6426 -38.6382 -38.6374 -38.6250 -38.6198 -38.3079
   -38.2543 -38.2503 -38.2436 -38.2416 -38.2367 -38.2299 -36.2117 -35.7401
   -25.2980 -24.8918 -24.8750 -24.7805 -24.7559 -24.7191 -24.6740 -24.3895
   -23.3024 -23.2932 -23.2703 -23.2125 -23.1917 -23.1876 -23.1858 -23.1769
   -23.1727 -23.1592 -23.1572 -23.1561 -23.1482 -23.1435 -23.1412 -23.1392
   -23.1251 -23.1245 -23.1072 -23.0533 -23.0210 -23.0184 -23.0043 -22.9127
   -19.2544 -19.2170 -19.1703 -19.1683 -19.1379 -18.9848 -18.9720 -18.9708
   -18.9632 -18.9583 -18.9548 -18.9533 -18.9442 -18.9437 -18.9349 -18.9262
   -18.8813 -18.8553 -18.8075 -18.7862 -18.7703 -18.7662 -18.7567 -18.7459
   -18.6481 -18.6395 -18.6132 -18.5988 -18.5943 -18.5897 -18.5726 -18.5633
   -18.5550 -18.5295 -18.5282 -18.5207 -18.5024 -18.4103 -18.3948 -18.3202
   -18.2749 -18.2604 -17.4708 -17.4419 -17.4339 -16.9919 -16.9909 -16.9681
   -15.9996 -15.7221 -15.7004 -15.5296 -15.4259 -15.3911 -15.3719 -15.3697
   -15.3596 -15.3536 -15.3354 -15.3200 -15.3088 -15.3010 -15.2966 -15.2243
   -15.2163 -15.1713 -15.1690 -15.1644 -15.1597 -15.1519 -15.1457 -15.1378
   -15.1148 -15.1121 -15.1096 -15.0700 -15.0616 -15.0526 -15.0345 -15.0202
   -14.9967 -14.9961 -14.9954 -14.9781 -14.9158 -14.9136 -14.9131 -14.9019
   -14.8981 -14.8949 -14.8929 -14.8919 -14.8894 -14.8324 -14.8313 -14.8304
   -14.8273 -14.8230 -14.8220 -14.8168 -14.8072 -14.7949 -14.7935 -14.7765
   -14.7724 -14.7699 -14.7686 -14.7622 -14.7603 -14.7149 -14.7020 -14.6998
   -14.6924 -14.6605 -14.6568 -14.6537 -14.6326 -14.6311 -14.6249 -14.6186
   -14.6185 -14.5955 -14.5667 -14.5579 -14.5574 -14.5540 -14.5117 -14.5063
   -14.5006 -14.4990 -14.4851 -14.4638 -14.4586 -14.4059 -14.4033 -14.3915
   -14.3842 -14.3614 -14.3579 -14.3350 -14.3340 -14.3305 -14.3204 -14.3175
   -14.2942 -14.2891 -14.2882 -14.2866 -14.2856 -14.2851 -14.2841 -14.2807
   -14.2748 -14.2312 -14.2297 -14.2168 -14.2162 -14.1688 -14.1683 -14.1327
   -14.1043 -14.0631 -14.0589 -14.0167 -14.0132 -13.9688 -13.8570 -13.8316
   -10.7611 -10.7234 -10.5003 -10.2817 -10.2767 -10.2504 -10.1989 -10.1811
   -10.1582 -10.1450 -10.1060 -10.0633 -10.0176  -9.8456  -9.8363  -9.7348
    -9.7242  -9.6306  -9.6031  -9.5726  -9.5408  -9.5000  -9.3916  -9.2611
    -9.2556  -9.2296  -9.1641  -8.9740  -8.9443  -8.8770  -8.7512  -8.7474
    -8.7352  -8.7237  -8.7203  -8.7164  -8.7047  -8.6931  -8.6693  -8.6672
    -8.6561  -8.6498  -8.6202  -8.6050  -8.5694  -8.5602  -8.5412  -8.5378
    -8.5127  -8.5066  -8.5041  -8.4962  -8.4794  -8.4735  -8.4695  -8.4686
    -8.4658  -8.4605  -8.4378  -8.4345  -8.4306  -8.4063  -8.3879  -8.3820
    -8.3769  -8.3697  -8.3521  -8.3459  -8.3003  -8.2845  -8.2702  -8.2595
    -8.2304  -8.2284  -8.1727  -8.1472  -8.1455  -8.1372  -8.1246  -8.1188
    -8.1152  -8.1147  -8.1101  -8.0939  -8.0884  -8.0853  -8.0809  -8.0665
    -8.0260  -8.0126  -8.0104  -7.9914  -7.9786  -7.9609  -7.9303  -7.8778
    -4.7451  -4.5505  -4.2042  -3.9835  -3.8339  -3.7455  -3.7242  -3.6646
    -3.6101  -3.6022  -3.6013  -3.5364  -3.5098  -3.4891  -3.4485  -3.4406
    -3.4349  -3.4344  -3.3978  -3.3967  -3.3899  -3.3455  -3.3220  -3.3214
    -3.2507  -3.2373  -3.2329  -3.2324  -3.1170  -3.0888  -3.0724  -3.0539
    -3.0480  -3.0367  -2.9731  -2.9390  -2.9046  -2.8307  -2.8242  -2.7764
    -2.7697  -2.7519  -2.7445  -2.7262  -2.7182  -2.7181  -2.7129  -2.6988
    -2.6782  -2.6687  -2.6602  -2.6400  -2.6396  -2.6393  -2.6276  -2.5861
    -2.5840  -2.5780  -2.5691  -2.5658  -2.5614  -2.5494  -2.5452  -2.5382
    -2.5366  -2.5357  -2.5333  -2.5301  -2.5233  -2.5222  -2.5215  -2.5185
    -2.5176  -2.5171  -2.5111  -2.5058  -2.4994  -2.4900  -2.4844  -2.4342
    -2.4193  -2.4168  -2.4159  -2.4080  -2.3971  -2.3969  -2.3959  -2.3356
    -2.3333  -2.3301  -2.3293  -2.3290  -2.3283  -2.3273  -2.3251  -2.3213
    -2.2836  -2.2835  -2.2710  -2.2669  -2.2515  -2.2402  -2.2098  -2.2071
    -2.2000  -2.1557  -2.1464  -2.0862  -2.0698  -2.0640  -2.0547  -2.0447
    -2.0393  -2.0377  -2.0342  -2.0309  -2.0270  -2.0160  -2.0040  -1.9828
    -1.9637  -1.9627  -1.9302  -1.9236  -1.9224  -1.9097  -1.9093  -1.9029
    -1.8959  -1.8867  -1.8799  -1.8703  -1.8572  -1.8481  -1.8321  -1.8129
    -1.8102  -1.7992  -1.7978  -1.7835  -1.7732  -1.7548  -1.7350  -1.7242
    -1.7194  -1.7066  -1.7047  -1.6790  -1.6572  -1.6427  -1.6239  -1.6214
    -1.5867  -1.5582  -1.5500  -1.5467  -1.5305  -1.5192  -1.5181  -1.5038
    -1.4827  -1.4638  -1.4312  -1.4309  -1.4255  -1.4161  -1.4053  -1.4028
    -1.4022  -1.4015  -1.3883  -1.3829  -1.3819  -1.3805  -1.3614  -1.3538
    -1.3411  -1.3228  -1.3176  -1.3086  -1.3015  -1.2979  -1.2922  -1.2910
    -1.2880  -1.2758  -1.2660  -1.2656  -1.2612  -1.2600  -1.2596  -1.2524
    -1.2444  -1.2301  -1.2205  -1.2156  -1.2120  -1.2050  -1.1932  -1.1899
    -1.1787  -1.1781  -1.1561  -1.1441  -1.1373  -1.1266  -1.1099  -1.0991
    -1.0990  -1.0979  -1.0876  -1.0824  -1.0805  -1.0794  -1.0670  -1.0660
    -1.0645  -1.0609  -1.0414  -1.0282  -1.0275  -1.0223  -1.0044  -0.9833
    -0.9820  -0.9681  -0.9673  -0.9403  -0.9247  -0.9206  -0.9168  -0.9122
    -0.8758  -0.8374  -0.8129  -0.7867  -0.7837  -0.7802  -0.7761  -0.7673
    -0.7651  -0.7572  -0.7549  -0.7535  -0.7398  -0.7366  -0.7234  -0.7232
    -0.7188  -0.7187  -0.7124  -0.6983  -0.6913  -0.6861  -0.6811  -0.6768
    -0.6735  -0.6665  -0.6573  -0.6375  -0.6308  -0.6259  -0.6255  -0.6252
    -0.6155  -0.6107  -0.6021  -0.6013  -0.5848  -0.5719  -0.5653  -0.5548
    -0.5497  -0.5079  -0.5041  -0.4728  -0.4675  -0.4665  -0.4642  -0.4517
    -0.4489  -0.4482  -0.4416  -0.4008  -0.3985  -0.3955  -0.3775  -0.3720
    -0.3655  -0.3627  -0.3490  -0.3358  -0.3329  -0.3209  -0.3149  -0.3116
    -0.3033  -0.2882  -0.2827  -0.2589  -0.2552  -0.2466  -0.2064  -0.1993
    -0.1969  -0.1957  -0.1861  -0.1810  -0.1687  -0.1241  -0.1229  -0.1228
    -0.1219  -0.1153  -0.1121  -0.1091  -0.1028  -0.1011  -0.0889  -0.0831
    -0.0807  -0.0782  -0.0769  -0.0589  -0.0460  -0.0409  -0.0406  -0.0384
    -0.0345  -0.0301  -0.0296  -0.0220  -0.0183   0.0095   0.0160   0.0212
     0.0218   0.0220   0.0749   0.0810   0.0990   0.1237   0.1282   0.1301
     0.1325   0.1356   0.1394   0.1424   0.1458   0.1508   0.1509   0.1565
     0.1612   0.1630   0.1691   0.1697   0.1770   0.2165   0.2198   0.2200
     0.2278   0.2390   0.2462   0.2490   0.2495   0.2505   0.2516   0.2575
     0.2663   0.2857   0.2879   0.2905   0.2928   0.3339   0.3341   0.3368
     0.3388   0.3882   0.4262   0.4305   0.4474   0.4911   0.4913   0.4929
     0.5087   0.5246   0.5428   0.5551   0.5748   0.5852   0.5884   0.5887
     0.6031   0.6159   0.6317   0.6412   0.6582   0.6585   0.6587   0.6607
     0.6635   0.6642   0.6676   0.6709   0.6798   0.6858   0.6905   0.6924
     0.6962   0.6968   0.7095   0.7263   0.7295   0.7306   0.7350   0.7437
     0.7534   0.7564   0.7572   0.7717   0.7763   0.7777   0.7834   0.7884
     0.7943   0.7950   0.7972   0.7987   0.7994   0.7996   0.8012   0.8018
     0.8095   0.8102   0.8137   0.8150   0.8198   0.8221   0.8279   0.8319
     0.8327   0.8353   0.8547   0.8571   0.8626   0.8631   0.8650   0.8699
     0.8751   0.8775   0.8778   0.8979   0.9063   0.9176   0.9200   0.9277
     0.9278   0.9346   0.9373   0.9386   0.9402   0.9418   0.9418   0.9475
     0.9504   0.9532   0.9645   0.9691   0.9722   0.9770   0.9804   0.9826
     0.9904   0.9954   1.0065   1.0212   1.0281   1.0294   1.0350   1.0359
     1.0370   1.0383   1.0435   1.0463   1.0526   1.0559   1.0598   1.0675
     1.0716   1.0725   1.0886   1.1085   1.1091   1.1147   1.1173   1.1364
     1.1598   1.1701   1.1703   1.1797   1.2015   1.2133   1.2243   1.2273
     1.2274   1.2277   1.2346   1.2376   1.2407   1.2695   1.2732   1.2968
     1.3003   1.3030   1.3054   1.3161   1.3331   1.3355   1.3407   1.3423
     1.3526   1.3556   1.3559   1.3582   1.3641   1.3751   1.3766   1.3840
     1.4098   1.4168   1.4621   1.4630   1.4682   1.4694   1.4742   1.4763
     1.4863   1.4866   1.4868   1.4885   1.4888   1.4896   1.4953   1.4999
     1.5009   1.5058   1.5072   1.5133   1.5358   1.5420   1.5426   1.5429
     1.5672   1.5739   1.5760   1.5762   1.5783   1.5885   1.5904   1.5918
     1.5953   1.5967   1.6041   1.6056   1.6060   1.6130   1.6221   1.6288
     1.6363   1.6569   1.6616   1.6777   1.6994   1.7019   1.7075   1.7268
     1.7485   1.7931   1.8048   1.8129   1.8527   1.8578   1.8770   1.8963
     1.8974   1.9262   1.9600   1.9635   1.9828   1.9859   2.0083   2.0760
     2.1001   2.1038   2.1050   2.1071   2.1155   2.1515   2.2736   2.2745
     2.3927   2.4064   2.4297   2.4318   2.5417   2.5591   2.6752   2.6873
     2.6937   2.6945   2.6960   2.7009   2.7046   2.7074   2.7937   2.8020
     2.8238   2.8358   2.8420   2.8590   2.8982   2.9053   2.9150   2.9228
     2.9759   3.0171   3.0237   3.0243   3.0387   3.0552   3.1754   3.2283
     3.2566   3.2656   3.2739   3.5202   3.5973   4.0961   4.2411   4.2416
     4.2894   4.3062   4.3145   4.3439   4.3449   4.4123   4.5406   4.7362
     4.7518   5.0173   5.0490   5.0786   5.1347   5.2025   5.2959   5.3015
     5.3123   5.3759   5.4338   5.4624   5.5663   5.6930   5.7805   5.8910
     5.9868   6.0007   6.0171   6.0543   6.0557   6.0826   6.1092   6.1241
     6.1436   6.1491   6.1512   6.1534   6.1581   6.1653   6.1667   6.1670
     6.1683   6.2156   6.5584   6.5691   6.5693   6.6003   6.6333   6.6346
     6.6364   6.6596   6.6675   6.6781   6.7841   6.8004   6.8232   6.8618
     6.8771   6.8792   6.8796   6.8865   6.9064   6.9713   6.9718   7.0235
     7.0506   7.0627   7.0680   7.0712   7.0779   7.0971   7.1082   7.1779
     7.2466   7.2693   7.3080   7.3672   7.3699   7.3774   7.3831   7.3966
     7.4117   7.4205   7.4257   7.4623   7.5150   7.5599   7.5660   7.5909
     7.6042   7.6202   7.6248   7.6261   7.6900   7.7072   7.7261   7.7963
     7.7982   7.8016   7.8216   7.8234   7.8297   7.8299   7.8371   7.8461
     7.8700   7.8943   7.8962   7.9465   7.9731   8.0292   8.0358   8.0408
     8.0563   8.0615   8.0891   8.0985   8.1113   8.1308   8.1443   8.1844
     8.1876   8.2182   8.2255   8.2423   8.2573   8.2897   8.2904   8.3133
     8.3150   8.3215   8.3424   8.3510   8.3533   8.3842   8.4065   8.4144
     8.4246   8.4309   8.4419   8.4521   8.4543   8.4594   8.4693   8.4931
     8.4955   8.5193

          k = 0.2326 0.2390 0.0000 (314683 PWs)   bands (ev):

   -38.6711 -38.6450 -38.6433 -38.6383 -38.6377 -38.6235 -38.6209 -38.3079
   -38.2534 -38.2514 -38.2434 -38.2427 -38.2343 -38.2312 -36.2117 -35.7401
   -25.2978 -24.8888 -24.8777 -24.7779 -24.7677 -24.7026 -24.6818 -24.3895
   -23.2842 -23.2807 -23.2520 -23.2389 -23.2359 -23.2038 -23.1862 -23.1812
   -23.1772 -23.1722 -23.1521 -23.1511 -23.1483 -23.1453 -23.1434 -23.1202
   -23.1114 -23.1079 -23.0757 -23.0675 -23.0353 -23.0195 -22.9991 -22.9147
   -19.2198 -19.1854 -19.1678 -19.1441 -19.1364 -19.1166 -19.0845 -19.0531
   -18.9729 -18.9645 -18.9479 -18.9463 -18.9325 -18.8553 -18.8472 -18.8247
   -18.8210 -18.8048 -18.8039 -18.7830 -18.7697 -18.7653 -18.7572 -18.7434
   -18.7331 -18.7191 -18.6937 -18.6870 -18.6356 -18.5953 -18.5748 -18.5532
   -18.5203 -18.5083 -18.4465 -18.4316 -18.4295 -18.4041 -18.3869 -18.3448
   -18.3210 -18.3088 -17.4710 -17.4437 -17.4354 -16.9941 -16.9923 -16.9683
   -15.8991 -15.6771 -15.6291 -15.6093 -15.5613 -15.4835 -15.4238 -15.3774
   -15.3768 -15.3217 -15.3070 -15.2964 -15.2901 -15.2621 -15.2487 -15.2393
   -15.2087 -15.2054 -15.1905 -15.1741 -15.1677 -15.1586 -15.1523 -15.1246
   -15.1059 -15.1003 -15.0880 -15.0673 -15.0472 -15.0361 -15.0190 -14.9934
   -14.9916 -14.9832 -14.9762 -14.9576 -14.9490 -14.9431 -14.9218 -14.9138
   -14.9100 -14.8931 -14.8911 -14.8909 -14.8737 -14.8584 -14.8534 -14.8502
   -14.8451 -14.8377 -14.8205 -14.8113 -14.7914 -14.7851 -14.7703 -14.7630
   -14.7605 -14.7552 -14.7475 -14.7343 -14.7216 -14.7117 -14.7025 -14.7003
   -14.6919 -14.6781 -14.6691 -14.6642 -14.6544 -14.6440 -14.6357 -14.6301
   -14.6035 -14.6035 -14.5997 -14.5774 -14.5612 -14.5549 -14.5486 -14.5379
   -14.5318 -14.5236 -14.4870 -14.4409 -14.4075 -14.3888 -14.3875 -14.3802
   -14.3564 -14.3358 -14.3340 -14.3281 -14.3245 -14.3238 -14.3182 -14.3116
   -14.3103 -14.2985 -14.2964 -14.2956 -14.2861 -14.2707 -14.2691 -14.2490
   -14.2468 -14.2407 -14.2407 -14.2216 -14.2207 -14.2203 -14.2117 -14.1391
   -14.1016 -14.0706 -14.0518 -14.0312 -14.0137 -13.9778 -13.8724 -13.8359
   -10.7262 -10.6749 -10.4411 -10.3628 -10.2843 -10.2695 -10.1736 -10.1573
   -10.1080 -10.0654 -10.0421 -10.0240  -9.9926  -9.9387  -9.8673  -9.7707
    -9.7270  -9.6581  -9.6544  -9.5965  -9.5637  -9.5283  -9.4055  -9.2809
    -9.1538  -9.1225  -9.0602  -8.9577  -8.9267  -8.8676  -8.8543  -8.8245
    -8.7640  -8.6461  -8.6358  -8.6182  -8.6153  -8.6033  -8.5903  -8.5754
    -8.5681  -8.5612  -8.5582  -8.5418  -8.5383  -8.5144  -8.5094  -8.5054
    -8.4937  -8.4919  -8.4895  -8.4838  -8.4811  -8.4743  -8.4607  -8.4592
    -8.4576  -8.4532  -8.4478  -8.4423  -8.4392  -8.4268  -8.4253  -8.4204
    -8.4155  -8.4151  -8.4082  -8.4050  -8.3812  -8.3790  -8.3524  -8.3398
    -8.3092  -8.2877  -8.2567  -8.2283  -8.1980  -8.1881  -8.1674  -8.1574
    -8.1398  -8.1196  -8.1089  -8.1024  -8.0782  -8.0768  -8.0718  -8.0605
    -8.0494  -8.0474  -8.0462  -8.0300  -8.0188  -7.9948  -7.9714  -7.9190
    -4.5845  -4.3927  -4.1508  -4.0595  -3.9682  -3.8763  -3.7395  -3.6992
    -3.6823  -3.6641  -3.6273  -3.6011  -3.5449  -3.5325  -3.5296  -3.5012
    -3.4661  -3.4504  -3.4208  -3.3864  -3.3373  -3.3158  -3.2862  -3.2848
    -3.2424  -3.2192  -3.2188  -3.2146  -3.0715  -3.0524  -2.9670  -2.9647
    -2.9461  -2.9414  -2.9386  -2.9350  -2.9265  -2.9240  -2.9057  -2.9005
    -2.8608  -2.8449  -2.8055  -2.8004  -2.7744  -2.7217  -2.7178  -2.6995
    -2.6690  -2.6456  -2.6344  -2.6234  -2.6065  -2.6063  -2.5925  -2.5837
    -2.5778  -2.5741  -2.5740  -2.5607  -2.5572  -2.5440  -2.5434  -2.5388
    -2.5350  -2.5318  -2.5202  -2.5188  -2.5129  -2.5114  -2.5043  -2.5038
    -2.5023  -2.4798  -2.4646  -2.4496  -2.4419  -2.4416  -2.4303  -2.4290
    -2.4226  -2.4211  -2.4186  -2.4179  -2.4141  -2.4115  -2.4106  -2.3994
    -2.3924  -2.3878  -2.3858  -2.3662  -2.3530  -2.3482  -2.3327  -2.3297
    -2.2659  -2.2533  -2.2309  -2.2164  -2.2011  -2.2007  -2.1919  -2.1692
    -2.1576  -2.1496  -2.1417  -2.1252  -2.1207  -2.1156  -2.0922  -2.0850
    -2.0681  -2.0653  -2.0494  -2.0443  -2.0327  -1.9785  -1.9739  -1.9582
    -1.9390  -1.9201  -1.9084  -1.9026  -1.8926  -1.8877  -1.8730  -1.8661
    -1.8559  -1.8488  -1.8482  -1.8388  -1.8318  -1.8243  -1.8128  -1.8078
    -1.7968  -1.7956  -1.7714  -1.7661  -1.7571  -1.7438  -1.7430  -1.7249
    -1.6775  -1.6668  -1.6591  -1.6362  -1.6284  -1.6202  -1.5868  -1.5615
    -1.5509  -1.5478  -1.5436  -1.5229  -1.5153  -1.5119  -1.4930  -1.4881
    -1.4572  -1.4561  -1.4506  -1.4475  -1.4380  -1.4261  -1.3978  -1.3940
    -1.3889  -1.3877  -1.3689  -1.3601  -1.3558  -1.3502  -1.3465  -1.3446
    -1.3357  -1.3248  -1.3246  -1.3237  -1.3162  -1.3157  -1.3063  -1.3003
    -1.2886  -1.2882  -1.2672  -1.2640  -1.2574  -1.2486  -1.2357  -1.2261
    -1.2207  -1.2081  -1.2030  -1.1995  -1.1915  -1.1876  -1.1836  -1.1805
    -1.1721  -1.1699  -1.1611  -1.1560  -1.1532  -1.1459  -1.1411  -1.1289
    -1.1131  -1.1047  -1.0984  -1.0871  -1.0790  -1.0766  -1.0615  -1.0600
    -1.0489  -1.0453  -1.0402  -1.0308  -1.0141  -1.0115  -0.9844  -0.9777
    -0.9691  -0.9681  -0.9677  -0.9568  -0.9440  -0.9374  -0.9190  -0.9159
    -0.9077  -0.9026  -0.8956  -0.8929  -0.8805  -0.8635  -0.8529  -0.8458
    -0.8211  -0.8027  -0.7982  -0.7980  -0.7631  -0.7584  -0.7549  -0.7386
    -0.7293  -0.7106  -0.6921  -0.6835  -0.6619  -0.6489  -0.6403  -0.6401
    -0.6260  -0.6215  -0.6139  -0.5970  -0.5943  -0.5920  -0.5892  -0.5762
    -0.5743  -0.5447  -0.5426  -0.5417  -0.5352  -0.5259  -0.5061  -0.4937
    -0.4931  -0.4895  -0.4884  -0.4880  -0.4777  -0.4750  -0.4734  -0.4599
    -0.4566  -0.4402  -0.4162  -0.4032  -0.3908  -0.3809  -0.3634  -0.3464
    -0.3213  -0.3146  -0.3052  -0.2911  -0.2844  -0.2750  -0.2748  -0.2648
    -0.2419  -0.2284  -0.2135  -0.2081  -0.1858  -0.1841  -0.1744  -0.1707
    -0.1636  -0.1540  -0.1511  -0.1501  -0.1457  -0.1423  -0.1343  -0.1274
    -0.1238  -0.1174  -0.1090  -0.1083  -0.1052  -0.0967  -0.0858  -0.0851
    -0.0837  -0.0748  -0.0731  -0.0686  -0.0584  -0.0483  -0.0466  -0.0350
    -0.0161  -0.0160  -0.0157  -0.0061   0.0044   0.0046   0.0111   0.0201
     0.0333   0.0440   0.0559   0.0578   0.0643   0.0739   0.0754   0.0809
     0.0829   0.0836   0.0952   0.0992   0.0999   0.1185   0.1314   0.1323
     0.1341   0.1381   0.1402   0.1482   0.1561   0.1694   0.1747   0.1817
     0.2223   0.2301   0.2377   0.2384   0.2475   0.2544   0.2713   0.2734
     0.2772   0.2782   0.2976   0.3111   0.3411   0.3604   0.3634   0.3902
     0.4010   0.4089   0.4187   0.4199   0.4438   0.4509   0.4557   0.4601
     0.4608   0.4686   0.4703   0.4922   0.5064   0.5130   0.5370   0.5402
     0.5452   0.5488   0.5588   0.5641   0.5714   0.5725   0.5771   0.5885
     0.6098   0.6216   0.6447   0.6513   0.6525   0.6560   0.6633   0.6681
     0.6691   0.6731   0.6871   0.6879   0.6882   0.6930   0.6985   0.7040
     0.7043   0.7063   0.7140   0.7231   0.7272   0.7358   0.7521   0.7550
     0.7555   0.7620   0.7710   0.7843   0.7853   0.7999   0.8056   0.8094
     0.8128   0.8129   0.8192   0.8218   0.8261   0.8390   0.8444   0.8550
     0.8574   0.8603   0.8619   0.8699   0.8751   0.8818   0.8837   0.8857
     0.8935   0.8954   0.8996   0.9089   0.9192   0.9201   0.9245   0.9277
     0.9296   0.9373   0.9387   0.9426   0.9456   0.9524   0.9537   0.9602
     0.9628   0.9653   0.9667   0.9728   0.9734   0.9780   0.9811   0.9840
     0.9850   0.9946   1.0003   1.0027   1.0199   1.0226   1.0264   1.0293
     1.0455   1.0482   1.0654   1.0767   1.0785   1.0885   1.0920   1.1003
     1.1083   1.1099   1.1156   1.1226   1.1330   1.1331   1.1482   1.1581
     1.1648   1.1708   1.1761   1.1790   1.1882   1.1983   1.2175   1.2228
     1.2250   1.2294   1.2330   1.2394   1.2470   1.2480   1.2564   1.2748
     1.2855   1.2866   1.2938   1.3141   1.3151   1.3217   1.3277   1.3317
     1.3391   1.3426   1.3505   1.3522   1.3549   1.3611   1.3619   1.3674
     1.3690   1.3761   1.3790   1.3809   1.3900   1.3924   1.4058   1.4094
     1.4128   1.4176   1.4300   1.4322   1.4397   1.4473   1.4480   1.4648
     1.4740   1.4808   1.4922   1.4943   1.5014   1.5109   1.5190   1.5350
     1.5583   1.5736   1.5752   1.5761   1.5955   1.5965   1.6131   1.6208
     1.6226   1.6368   1.6590   1.6689   1.6810   1.6813   1.6926   1.7292
     1.7522   1.7758   1.7807   1.7861   1.7942   1.8238   1.8269   1.8316
     1.8335   1.8378   1.8470   1.8615   1.8738   1.9427   1.9455   1.9582
     1.9886   2.0221   2.0247   2.0383   2.0473   2.0954   2.1315   2.1376
     2.1678   2.1818   2.1883   2.1890   2.2391   2.2844   2.2866   2.2945
     2.3335   2.3808   2.3866   2.4661   2.4872   2.5088   2.5210   2.5217
     2.5372   2.5390   2.5600   2.5640   2.5737   2.5853   2.6041   2.6179
     2.6336   2.6415   2.6586   2.6724   2.6728   2.6789   2.7073   2.7201
     2.8025   2.8488   2.9720   3.0651   3.2395   3.2979   3.3185   3.4803
     3.4867   3.5324   3.5530   3.6113   3.7313   3.8437   4.0257   4.0882
     4.1040   4.2814   4.3386   4.3723   4.4067   4.6225   4.7060   4.7235
     4.7478   4.9850   4.9979   5.0177   5.2331   5.3329   5.4244   5.4801
     5.5156   5.5301   5.5359   5.5460   5.5822   5.5892   5.6027   5.6853
     5.7516   5.8693   5.9340   5.9381   6.0114   6.0354   6.0492   6.0542
     6.0656   6.0766   6.0912   6.1274   6.1320   6.1625   6.2315   6.2638
     6.3272   6.3375   6.3991   6.4405   6.4497   6.4600   6.5342   6.5642
     6.6008   6.6151   6.6609   6.6966   6.7419   6.7531   6.7930   6.8266
     6.8304   6.8954   6.9353   6.9706   6.9855   7.0279   7.0378   7.0559
     7.0723   7.0885   7.0975   7.1196   7.1225   7.1277   7.1431   7.1513
     7.1701   7.2106   7.2296   7.2369   7.2861   7.2940   7.3582   7.3869
     7.3940   7.4218   7.4258   7.4297   7.4691   7.4817   7.4895   7.5316
     7.5513   7.5722   7.5977   7.6321   7.6672   7.6779   7.7054   7.7113
     7.7209   7.7453   7.7556   7.7927   7.8295   7.8475   7.8870   7.9173
     7.9361   7.9591   7.9733   7.9959   7.9986   8.0157   8.0584   8.0748
     8.1008   8.1146   8.1316   8.1595   8.1757   8.1877   8.1894   8.2060
     8.2276   8.2331   8.2406   8.2619   8.2707   8.2805   8.3000   8.3068
     8.3190   8.3464   8.3548   8.3626   8.3784   8.4022   8.4080   8.4171
     8.4370   8.4598   8.4725   8.4953   8.5031   8.5088   8.5158   8.5449
     8.5670   8.5870

          k = 0.0000 0.4779 0.0000 (314615 PWs)   bands (ev):

   -38.6711 -38.6451 -38.6433 -38.6393 -38.6367 -38.6225 -38.6218 -38.3079
   -38.2533 -38.2514 -38.2449 -38.2412 -38.2337 -38.2318 -36.2117 -35.7401
   -25.2977 -24.8911 -24.8732 -24.7907 -24.7574 -24.7010 -24.6832 -24.3895
   -23.2713 -23.2649 -23.2425 -23.2351 -23.2327 -23.2245 -23.2045 -23.2029
   -23.1922 -23.1883 -23.1663 -23.1561 -23.1463 -23.1385 -23.1111 -23.1064
   -23.1046 -23.0826 -23.0791 -23.0723 -23.0503 -23.0165 -22.9999 -22.9153
   -19.2153 -19.2109 -19.1738 -19.1436 -19.1182 -19.1153 -19.0647 -19.0276
   -18.9711 -18.9649 -18.9558 -18.9490 -18.9304 -18.8784 -18.8483 -18.8410
   -18.8340 -18.8158 -18.8121 -18.7929 -18.7923 -18.7696 -18.7574 -18.7413
   -18.7085 -18.6884 -18.6486 -18.6461 -18.6177 -18.6015 -18.5843 -18.5821
   -18.5631 -18.5224 -18.4602 -18.4368 -18.4142 -18.4049 -18.3866 -18.3671
   -18.3097 -18.2753 -17.4709 -17.4439 -17.4343 -16.9930 -16.9924 -16.9683
   -15.8209 -15.6267 -15.6046 -15.5847 -15.5529 -15.5426 -15.5268 -15.4376
   -15.4039 -15.3623 -15.3395 -15.3311 -15.2729 -15.2479 -15.2417 -15.2384
   -15.2284 -15.2043 -15.1841 -15.1779 -15.1608 -15.1426 -15.1205 -15.1129
   -15.0806 -15.0725 -15.0624 -15.0508 -15.0097 -14.9979 -14.9976 -14.9976
   -14.9964 -14.9839 -14.9792 -14.9694 -14.9577 -14.9509 -14.9226 -14.9195
   -14.9007 -14.8962 -14.8950 -14.8874 -14.8682 -14.8643 -14.8593 -14.8454
   -14.8403 -14.8277 -14.8274 -14.8056 -14.8041 -14.7934 -14.7638 -14.7575
   -14.7560 -14.7494 -14.7465 -14.7389 -14.7245 -14.7054 -14.7005 -14.6882
   -14.6844 -14.6836 -14.6802 -14.6666 -14.6513 -14.6458 -14.6314 -14.6209
   -14.6209 -14.6127 -14.6091 -14.6031 -14.6014 -14.5971 -14.5787 -14.5613
   -14.5127 -14.4707 -14.4579 -14.4436 -14.4333 -14.4314 -14.3839 -14.3498
   -14.3463 -14.3392 -14.3299 -14.3293 -14.3287 -14.3238 -14.3186 -14.3165
   -14.2938 -14.2842 -14.2822 -14.2817 -14.2813 -14.2800 -14.2713 -14.2528
   -14.2389 -14.2387 -14.2335 -14.2332 -14.2321 -14.2276 -14.2259 -14.1227
   -14.1019 -14.0733 -14.0611 -14.0416 -14.0261 -13.9823 -13.8890 -13.8393
   -10.7289 -10.5646 -10.3912 -10.3175 -10.2808 -10.2610 -10.2154 -10.1627
   -10.1464 -10.0660 -10.0246 -10.0011  -9.9812  -9.8551  -9.8353  -9.8137
    -9.7608  -9.7226  -9.6746  -9.6210  -9.6082  -9.5650  -9.4205  -9.3074
    -8.9957  -8.9641  -8.9128  -8.8538  -8.8439  -8.8230  -8.8128  -8.7780
    -8.7706  -8.7621  -8.7410  -8.6840  -8.6355  -8.6169  -8.5977  -8.5903
    -8.5524  -8.5490  -8.5389  -8.5280  -8.5149  -8.5092  -8.5046  -8.4938
    -8.4816  -8.4738  -8.4585  -8.4556  -8.4507  -8.4471  -8.4449  -8.4267
    -8.4251  -8.4232  -8.4224  -8.4162  -8.4116  -8.4040  -8.3988  -8.3919
    -8.3764  -8.3688  -8.3516  -8.3458  -8.3399  -8.3384  -8.3378  -8.3367
    -8.3206  -8.3149  -8.3106  -8.3072  -8.2965  -8.2941  -8.2906  -8.2788
    -8.2629  -8.2290  -8.2279  -8.2146  -8.1977  -8.1659  -8.1587  -8.0741
    -8.0538  -8.0467  -8.0436  -8.0234  -8.0160  -8.0020  -7.9665  -7.9271
    -4.4180  -4.2277  -4.1351  -4.0786  -3.9728  -3.9230  -3.9106  -3.8251
    -3.8117  -3.7561  -3.6742  -3.6496  -3.6260  -3.5969  -3.4647  -3.4608
    -3.4509  -3.4430  -3.3973  -3.2868  -3.2651  -3.2547  -3.2535  -3.2532
    -3.2424  -3.2269  -3.1063  -3.0917  -3.0177  -3.0087  -3.0045  -2.9854
    -2.9816  -2.9788  -2.9661  -2.9145  -2.9064  -2.9057  -2.8879  -2.8761
    -2.8746  -2.8374  -2.8354  -2.8130  -2.7738  -2.7456  -2.7326  -2.6947
    -2.6858  -2.6477  -2.6452  -2.6418  -2.6314  -2.6164  -2.5853  -2.5781
    -2.5742  -2.5684  -2.5637  -2.5466  -2.5392  -2.5256  -2.5075  -2.5032
    -2.5007  -2.4941  -2.4873  -2.4860  -2.4851  -2.4837  -2.4802  -2.4653
    -2.4582  -2.4577  -2.4477  -2.4476  -2.4429  -2.4399  -2.4315  -2.4294
    -2.4274  -2.4250  -2.4196  -2.4185  -2.4165  -2.4106  -2.4089  -2.3989
    -2.3911  -2.3859  -2.3757  -2.3718  -2.3637  -2.3444  -2.3365  -2.3136
    -2.3125  -2.3119  -2.3063  -2.3018  -2.2738  -2.2355  -2.2339  -2.2298
    -2.2253  -2.1989  -2.1849  -2.1672  -2.1455  -2.1256  -2.1130  -2.1088
    -2.1046  -2.1031  -2.0872  -2.0814  -2.0798  -2.0756  -2.0639  -2.0531
    -2.0464  -2.0247  -2.0100  -1.9478  -1.9379  -1.9350  -1.8930  -1.8870
    -1.8809  -1.8551  -1.8549  -1.8513  -1.8444  -1.8407  -1.8403  -1.8397
    -1.8308  -1.7869  -1.7500  -1.7325  -1.7009  -1.6586  -1.6527  -1.6347
    -1.6337  -1.6276  -1.6210  -1.6162  -1.5681  -1.5401  -1.5332  -1.5239
    -1.5043  -1.4880  -1.4798  -1.4788  -1.4736  -1.4651  -1.4532  -1.4363
    -1.4304  -1.4297  -1.4212  -1.4152  -1.4102  -1.3940  -1.3772  -1.3757
    -1.3735  -1.3696  -1.3541  -1.3414  -1.3200  -1.3183  -1.3174  -1.3162
    -1.3086  -1.2922  -1.2718  -1.2702  -1.2633  -1.2606  -1.2536  -1.2506
    -1.2454  -1.2386  -1.2347  -1.2168  -1.2048  -1.2015  -1.2002  -1.1992
    -1.1990  -1.1929  -1.1914  -1.1837  -1.1695  -1.1593  -1.1549  -1.1535
    -1.1462  -1.1458  -1.1413  -1.1348  -1.1268  -1.1224  -1.1175  -1.1071
    -1.1007  -1.0948  -1.0900  -1.0885  -1.0767  -1.0499  -1.0394  -1.0384
    -1.0342  -1.0111  -1.0091  -1.0042  -0.9980  -0.9971  -0.9955  -0.9801
    -0.9786  -0.9655  -0.9608  -0.9530  -0.9453  -0.9411  -0.9283  -0.9126
    -0.9062  -0.9006  -0.8902  -0.8603  -0.8477  -0.8471  -0.8395  -0.8299
    -0.8258  -0.8243  -0.8118  -0.8099  -0.7933  -0.7902  -0.7861  -0.7594
    -0.7512  -0.7302  -0.7217  -0.7113  -0.6959  -0.6948  -0.6916  -0.6819
    -0.6697  -0.6617  -0.6604  -0.6558  -0.6436  -0.6252  -0.6108  -0.5770
    -0.5757  -0.5666  -0.5595  -0.5521  -0.5436  -0.5222  -0.5153  -0.5054
    -0.4855  -0.4750  -0.4709  -0.4564  -0.4306  -0.4266  -0.4233  -0.4200
    -0.4153  -0.4114  -0.4110  -0.4043  -0.4007  -0.3794  -0.3702  -0.3589
    -0.3470  -0.3353  -0.3224  -0.2865  -0.2755  -0.2554  -0.2533  -0.2480
    -0.2335  -0.2271  -0.2143  -0.2080  -0.2078  -0.2051  -0.2049  -0.1932
    -0.1894  -0.1867  -0.1800  -0.1607  -0.1527  -0.1451  -0.1289  -0.1286
    -0.1216  -0.1181  -0.1126  -0.1092  -0.1061  -0.1019  -0.0805  -0.0635
    -0.0614  -0.0607  -0.0501  -0.0482  -0.0464  -0.0439  -0.0411  -0.0199
    -0.0189  -0.0180   0.0016   0.0020   0.0048   0.0108   0.0161   0.0360
     0.0366   0.0528   0.0659   0.0724   0.0727   0.0778   0.0782   0.0984
     0.1079   0.1109   0.1228   0.1304   0.1398   0.1431   0.1488   0.1508
     0.1582   0.1604   0.1624   0.1644   0.1653   0.1712   0.1887   0.1936
     0.1963   0.1969   0.2396   0.2408   0.2632   0.2639   0.2687   0.3028
     0.3282   0.3291   0.3424   0.3477   0.3492   0.3574   0.3640   0.3715
     0.3803   0.3873   0.3896   0.3928   0.3930   0.4016   0.4092   0.4138
     0.4154   0.4268   0.4472   0.4538   0.4597   0.4905   0.5125   0.5333
     0.5387   0.5396   0.5397   0.5573   0.5680   0.5734   0.6036   0.6070
     0.6116   0.6208   0.6231   0.6296   0.6363   0.6398   0.6493   0.6618
     0.6655   0.6713   0.6724   0.6747   0.6762   0.6833   0.6866   0.6894
     0.6978   0.6993   0.7007   0.7105   0.7187   0.7474   0.7577   0.7669
     0.7703   0.7783   0.7789   0.7855   0.7959   0.7970   0.7991   0.7994
     0.8069   0.8154   0.8202   0.8240   0.8245   0.8291   0.8302   0.8331
     0.8447   0.8452   0.8499   0.8522   0.8587   0.8720   0.8902   0.8928
     0.9057   0.9111   0.9151   0.9176   0.9260   0.9280   0.9303   0.9361
     0.9399   0.9427   0.9611   0.9615   0.9721   0.9744   0.9783   0.9830
     0.9891   0.9997   1.0074   1.0081   1.0102   1.0114   1.0162   1.0254
     1.0390   1.0437   1.0534   1.0602   1.0652   1.0686   1.0726   1.0729
     1.0836   1.0875   1.0908   1.0981   1.0981   1.0997   1.1008   1.1050
     1.1137   1.1165   1.1168   1.1178   1.1313   1.1379   1.1423   1.1498
     1.1551   1.1554   1.1623   1.1646   1.1748   1.1756   1.1799   1.1812
     1.1876   1.1966   1.1975   1.2230   1.2246   1.2265   1.2365   1.2433
     1.2449   1.2488   1.2491   1.2532   1.2606   1.2789   1.2803   1.2835
     1.2924   1.2956   1.3077   1.3225   1.3230   1.3272   1.3342   1.3469
     1.3493   1.3545   1.3749   1.3785   1.3909   1.3923   1.3986   1.4096
     1.4099   1.4188   1.4210   1.4282   1.4291   1.4312   1.4320   1.4492
     1.4540   1.4573   1.4594   1.4631   1.4729   1.4965   1.5004   1.5021
     1.5086   1.5236   1.5378   1.5439   1.5679   1.5718   1.5724   1.5914
     1.5929   1.6115   1.6119   1.6421   1.6536   1.6614   1.6625   1.6703
     1.6914   1.7215   1.7353   1.7461   1.7580   1.7719   1.8036   1.8069
     1.8120   1.8244   1.8361   1.8572   1.8836   1.9034   1.9127   1.9469
     1.9695   1.9938   1.9940   2.0252   2.0340   2.0519   2.1016   2.1103
     2.1106   2.1124   2.1126   2.1144   2.1451   2.1984   2.2323   2.2585
     2.3679   2.3737   2.3929   2.4073   2.4762   2.5202   2.5215   2.5455
     2.5460   2.5488   2.5525   2.5565   2.5692   2.5697   2.5740   2.5813
     2.6632   2.6697   2.7132   2.7241   2.7418   2.7829   2.9354   3.1158
     3.1373   3.1521   3.2200   3.2378   3.2676   3.2838   3.3125   3.3401
     3.4408   3.4844   3.5373   3.5419   3.5459   3.8031   3.8376   3.8696
     3.8928   3.9186   4.1547   4.2610   4.4477   4.7438   4.7910   4.9187
     5.0713   5.1857   5.2282   5.3205   5.3249   5.3729   5.3804   5.3974
     5.4446   5.4954   5.4991   5.5019   5.5057   5.6133   5.6858   5.6864
     5.7118   5.7303   5.7561   5.7701   5.8709   6.0208   6.0345   6.1551
     6.1676   6.2029   6.2034   6.2246   6.2404   6.2571   6.2657   6.2756
     6.3077   6.3096   6.3219   6.3245   6.4229   6.4756   6.4941   6.5314
     6.5522   6.5967   6.6249   6.6357   6.6472   6.6815   6.6990   6.7169
     6.7199   6.7473   6.7624   6.7738   6.8357   6.8426   6.8724   6.8801
     6.9140   6.9277   7.0380   7.0856   7.1217   7.1289   7.1506   7.1669
     7.1834   7.1917   7.2997   7.3181   7.3583   7.3681   7.3927   7.3957
     7.4166   7.4182   7.4593   7.4657   7.4976   7.5028   7.5197   7.5693
     7.6027   7.6164   7.6260   7.6735   7.6892   7.7128   7.7333   7.7382
     7.7924   7.7955   7.8291   7.8465   7.8586   7.9037   7.9389   7.9448
     7.9662   7.9897   7.9997   8.0227   8.0336   8.0562   8.0564   8.0927
     8.0929   8.1203   8.1269   8.1521   8.1722   8.1752   8.1887   8.2312
     8.2482   8.2486   8.2933   8.2940   8.3091   8.3143   8.3254   8.3559
     8.3667   8.3778   8.3850   8.3855   8.3990   8.4176   8.4250   8.4299
     8.4499   8.4518   8.4859   8.4948   8.5027   8.5255   8.5260   8.5387
     8.5652   8.5828

          k =-0.4652-0.0000 0.0000 (314644 PWs)   bands (ev):

   -38.6711 -38.6457 -38.6422 -38.6394 -38.6370 -38.6231 -38.6213 -38.3079
   -38.2542 -38.2500 -38.2450 -38.2419 -38.2333 -38.2320 -36.2117 -35.7401
   -25.2977 -24.8866 -24.8789 -24.7928 -24.7435 -24.7197 -24.6751 -24.3895
   -23.2711 -23.2698 -23.2474 -23.2388 -23.2251 -23.2135 -23.2056 -23.2000
   -23.1928 -23.1812 -23.1736 -23.1611 -23.1516 -23.1226 -23.1205 -23.1153
   -23.0903 -23.0885 -23.0832 -23.0759 -23.0437 -23.0236 -22.9932 -22.9157
   -19.2509 -19.1785 -19.1722 -19.1464 -19.1234 -19.0853 -19.0478 -19.0359
   -18.9820 -18.9741 -18.9541 -18.9529 -18.9458 -18.8772 -18.8715 -18.8470
   -18.8154 -18.8111 -18.8093 -18.7960 -18.7858 -18.7661 -18.7612 -18.7211
   -18.7125 -18.6933 -18.6398 -18.6320 -18.6277 -18.6020 -18.5926 -18.5857
   -18.5661 -18.5249 -18.4548 -18.4409 -18.4200 -18.4010 -18.3940 -18.3615
   -18.3210 -18.2607 -17.4709 -17.4423 -17.4357 -16.9938 -16.9914 -16.9682
   -15.8140 -15.6571 -15.6265 -15.5658 -15.5506 -15.5329 -15.4311 -15.4241
   -15.4229 -15.3759 -15.3539 -15.3320 -15.3169 -15.2857 -15.2842 -15.2716
   -15.2448 -15.2053 -15.1388 -15.1381 -15.1306 -15.1294 -15.1187 -15.1073
   -15.0986 -15.0746 -15.0649 -15.0562 -15.0461 -15.0270 -15.0040 -14.9924
   -14.9900 -14.9882 -14.9515 -14.9279 -14.9269 -14.9182 -14.9143 -14.9103
   -14.9071 -14.8919 -14.8871 -14.8845 -14.8753 -14.8689 -14.8687 -14.8517
   -14.8433 -14.8325 -14.8145 -14.8056 -14.7981 -14.7842 -14.7791 -14.7550
   -14.7500 -14.7480 -14.7393 -14.7282 -14.7249 -14.7160 -14.7147 -14.7066
   -14.7060 -14.6914 -14.6848 -14.6788 -14.6643 -14.6501 -14.6473 -14.6406
   -14.6402 -14.6308 -14.6188 -14.5895 -14.5813 -14.5738 -14.5545 -14.5397
   -14.5098 -14.4723 -14.4662 -14.4227 -14.4035 -14.3893 -14.3841 -14.3802
   -14.3641 -14.3510 -14.3345 -14.3294 -14.3264 -14.3257 -14.3132 -14.3127
   -14.3087 -14.3083 -14.3081 -14.2885 -14.2840 -14.2627 -14.2596 -14.2582
   -14.2546 -14.2294 -14.2267 -14.2255 -14.2200 -14.2188 -14.1957 -14.1585
   -14.1031 -14.0775 -14.0727 -14.0320 -14.0187 -13.9820 -13.8859 -13.8383
   -10.7286 -10.5831 -10.3827 -10.2825 -10.2801 -10.2484 -10.1946 -10.1774
   -10.1275 -10.0723 -10.0575 -10.0230  -9.9511  -9.9319  -9.8574  -9.8351
    -9.7382  -9.7040  -9.6388  -9.6378  -9.5771  -9.5435  -9.4389  -9.3139
    -9.0507  -9.0195  -8.9637  -8.7709  -8.7651  -8.7614  -8.7394  -8.7390
    -8.7341  -8.7317  -8.6818  -8.6688  -8.6195  -8.6106  -8.5959  -8.5848
    -8.5801  -8.5797  -8.5565  -8.5474  -8.5459  -8.5226  -8.5128  -8.5125
    -8.5024  -8.4887  -8.4775  -8.4712  -8.4673  -8.4665  -8.4571  -8.4494
    -8.4463  -8.4374  -8.4356  -8.4334  -8.4326  -8.4236  -8.4225  -8.4189
    -8.4154  -8.4139  -8.4057  -8.4001  -8.3980  -8.3964  -8.3884  -8.3764
    -8.3439  -8.3318  -8.2930  -8.2768  -8.2464  -8.2403  -8.2336  -8.2103
    -8.2002  -8.1690  -8.1483  -8.1191  -8.1185  -8.1174  -8.0940  -8.0849
    -8.0755  -8.0707  -8.0636  -8.0547  -8.0439  -8.0394  -7.9874  -7.9402
    -4.4639  -4.2826  -4.0455  -3.9996  -3.9846  -3.9607  -3.8895  -3.8654
    -3.8448  -3.8400  -3.7861  -3.6023  -3.5966  -3.5740  -3.5196  -3.3828
    -3.3815  -3.3424  -3.3403  -3.2944  -3.2483  -3.2309  -3.2181  -3.2119
    -3.1616  -3.1499  -3.1427  -3.1419  -3.1412  -3.1355  -3.0863  -3.0404
    -3.0295  -3.0124  -2.9997  -2.8798  -2.8387  -2.8377  -2.8102  -2.8018
    -2.7863  -2.7647  -2.7529  -2.7483  -2.7476  -2.7267  -2.6861  -2.6672
    -2.6610  -2.6469  -2.6234  -2.6098  -2.6070  -2.5950  -2.5902  -2.5765
    -2.5756  -2.5749  -2.5741  -2.5680  -2.5555  -2.5458  -2.5372  -2.5346
    -2.5293  -2.5245  -2.5231  -2.5134  -2.5056  -2.5046  -2.4965  -2.4917
    -2.4907  -2.4898  -2.4851  -2.4497  -2.4316  -2.4296  -2.4283  -2.4144
[...]
     atom   61 type  5   force =     0.00000000    0.00000000   -0.00244151
     atom   62 type  5   force =     0.00000000    0.00000000   -0.00244151
     atom   63 type  5   force =     0.00000000    0.00032514   -0.00254553
     atom   64 type  5   force =     0.00000000   -0.00032514   -0.00254553
     atom   65 type  4   force =    -0.00032139    0.00012523    0.00267853
     atom   66 type  4   force =    -0.00032139   -0.00012523    0.00267853
     atom   67 type  4   force =     0.00032139    0.00012523    0.00267853
     atom   68 type  4   force =     0.00032139   -0.00012523    0.00267853
     atom   69 type  4   force =     0.00000000   -0.00032364    0.00202857
     atom   70 type  4   force =     0.00000000    0.00032364    0.00202857
     atom   71 type  4   force =    -0.00009985    0.00004689    0.00333420
     atom   72 type  4   force =    -0.00009985   -0.00004689    0.00333420
     atom   73 type  4   force =     0.00009985   -0.00004689    0.00333420
     atom   74 type  4   force =     0.00009985    0.00004689    0.00333420
     atom   75 type  4   force =     0.00030158    0.00000000    0.00305611
     atom   76 type  4   force =    -0.00030158    0.00000000    0.00305611
     atom   77 type  4   force =     0.00000000   -0.00058036    0.00380261
     atom   78 type  4   force =     0.00000000    0.00058036    0.00380261
     atom   79 type  4   force =     0.00044967    0.00000000    0.00308218
     atom   80 type  4   force =    -0.00044967    0.00000000    0.00308218
     atom   81 type  3   force =     0.00015983   -0.00029624   -0.00368760
     atom   82 type  3   force =     0.00015983    0.00029624   -0.00368760
     atom   83 type  3   force =    -0.00015983   -0.00029624   -0.00368760
     atom   84 type  3   force =    -0.00015983    0.00029624   -0.00368760
     atom   85 type  3   force =     0.00000624   -0.00012672   -0.00399685
     atom   86 type  3   force =    -0.00000624   -0.00012672   -0.00399685
     atom   87 type  3   force =    -0.00000624    0.00012672   -0.00399685
     atom   88 type  3   force =     0.00000624    0.00012672   -0.00399685
     atom   89 type  1   force =     0.00000000    0.00000000   -0.00792580
     atom   90 type  1   force =     0.00000000   -0.00066792   -0.00940716
     atom   91 type  1   force =     0.00000000    0.00066792   -0.00940716
     atom   92 type  1   force =    -0.00094384    0.00000000   -0.00801837
     atom   93 type  1   force =     0.00094384    0.00000000   -0.00801837
     atom   94 type  1   force =     0.00000000    0.00000000   -0.00948372
     atom   95 type  1   force =     0.00000000    0.00000000   -0.00948372
     atom   96 type  1   force =     0.00000000    0.00000000   -0.00789178
     atom   97 type  4   force =    -0.00048037   -0.00055776    0.00644774
     atom   98 type  4   force =    -0.00048037    0.00055776    0.00644774
     atom   99 type  4   force =     0.00048037   -0.00055776    0.00644774
     atom  100 type  4   force =     0.00048037    0.00055776    0.00644774
     atom  101 type  4   force =     0.00075732    0.00001195    0.00696947
     atom  102 type  4   force =    -0.00075732    0.00001195    0.00696947
     atom  103 type  4   force =    -0.00075732   -0.00001195    0.00696947
     atom  104 type  4   force =     0.00075732   -0.00001195    0.00696947
     atom  105 type  4   force =     0.00106948    0.00000000    0.01901085
     atom  106 type  4   force =    -0.00106948    0.00000000    0.01901085
     atom  107 type  3   force =    -0.00426191   -0.00211711   -0.02095304
     atom  108 type  3   force =    -0.00426191    0.00211711   -0.02095304
     atom  109 type  3   force =     0.00426191    0.00211711   -0.02095304
     atom  110 type  3   force =     0.00426191   -0.00211711   -0.02095304
     atom  111 type  3   force =    -0.00334864   -0.00108701   -0.01780822
     atom  112 type  3   force =     0.00334864    0.00108701   -0.01780822
     atom  113 type  3   force =    -0.00334864    0.00108701   -0.01780822
     atom  114 type  3   force =     0.00334864   -0.00108701   -0.01780822
     atom  115 type  4   force =     0.00111176   -0.00025553    0.01959173
     atom  116 type  4   force =    -0.00111176   -0.00025553    0.01959173
     atom  117 type  4   force =     0.00111176    0.00025553    0.01959173
     atom  118 type  4   force =    -0.00111176    0.00025553    0.01959173
     atom  119 type  4   force =     0.00341057    0.00000000    0.02088811
     atom  120 type  4   force =    -0.00341057    0.00000000    0.02088811
     atom  121 type  4   force =    -0.00913547   -0.00539791    0.05234358
     atom  122 type  4   force =     0.00913547   -0.00539791    0.05234358
     atom  123 type  4   force =     0.00913547    0.00539791    0.05234358
     atom  124 type  4   force =    -0.00913547    0.00539791    0.05234358
     atom  125 type  4   force =     0.00319881   -0.00250689    0.04300348
     atom  126 type  4   force =     0.00319881    0.00250689    0.04300348
     atom  127 type  4   force =    -0.00319881   -0.00250689    0.04300348
     atom  128 type  4   force =    -0.00319881    0.00250689    0.04300348
     atom  129 type  1   force =     0.00000000    0.00000000   -0.04756420
     atom  130 type  1   force =     0.00000000    0.00000000   -0.04705297
     atom  131 type  1   force =     0.00000000    0.00000000   -0.04705297
     atom  132 type  1   force =     0.00157257    0.00000000   -0.04679880
     atom  133 type  1   force =    -0.00157257    0.00000000   -0.04679880
     atom  134 type  1   force =     0.00000000    0.00374814   -0.04632478
     atom  135 type  1   force =     0.00000000   -0.00374814   -0.04632478
     atom  136 type  1   force =     0.00000000    0.00000000   -0.04032345
     atom  137 type  3   force =     0.00076179    0.00083465   -0.00011271
     atom  138 type  3   force =     0.00076179   -0.00083465   -0.00011271
     atom  139 type  3   force =    -0.00076179   -0.00083465   -0.00011271
     atom  140 type  3   force =    -0.00076179    0.00083465   -0.00011271
     atom  141 type  3   force =    -0.00606749    0.00717700   -0.00959647
     atom  142 type  3   force =    -0.00606749   -0.00717700   -0.00959647
     atom  143 type  3   force =     0.00606749    0.00717700   -0.00959647
     atom  144 type  3   force =     0.00606749   -0.00717700   -0.00959647
     atom  145 type  4   force =    -0.00301136    0.00000000    0.01963792
     atom  146 type  4   force =     0.00301136    0.00000000    0.01963792
     atom  147 type  4   force =     0.00000000   -0.00297496    0.02060427
     atom  148 type  4   force =     0.00000000    0.00297496    0.02060427
     atom  149 type  4   force =    -0.00085063    0.00000000    0.01230020
     atom  150 type  4   force =     0.00085063    0.00000000    0.01230020
     atom  151 type  4   force =    -0.00070481    0.00120617    0.01692366
     atom  152 type  4   force =     0.00070481    0.00120617    0.01692366
     atom  153 type  4   force =     0.00070481   -0.00120617    0.01692366
     atom  154 type  4   force =    -0.00070481   -0.00120617    0.01692366
     atom  155 type  4   force =     0.00000000   -0.00202070    0.01747369
     atom  156 type  4   force =     0.00000000    0.00202070    0.01747369
     atom  157 type  4   force =     0.00160037    0.00007184    0.01880668
     atom  158 type  4   force =    -0.00160037   -0.00007184    0.01880668
     atom  159 type  4   force =     0.00160037   -0.00007184    0.01880668
     atom  160 type  4   force =    -0.00160037    0.00007184    0.01880668
     atom  161 type  2   force =     0.00000000    0.00000000   -0.03647765
     atom  162 type  5   force =    -0.00086977    0.00000000   -0.04515381
     atom  163 type  5   force =     0.00086977    0.00000000   -0.04515381
     atom  164 type  5   force =     0.00000000    0.00000000   -0.04074841
     atom  165 type  5   force =     0.00000000    0.00000000   -0.04267628
     atom  166 type  5   force =     0.00000000    0.00000000   -0.04267628
     atom  167 type  5   force =     0.00000000   -0.00148450   -0.04399361
     atom  168 type  5   force =     0.00000000    0.00148450   -0.04399361
     atom  169 type  4   force =    -0.00024376    0.00005742    0.00591107
     atom  170 type  4   force =    -0.00024376   -0.00005742    0.00591107
     atom  171 type  4   force =     0.00024376    0.00005742    0.00591107
     atom  172 type  4   force =     0.00024376   -0.00005742    0.00591107
     atom  173 type  4   force =     0.00000000    0.00022409    0.00551895
     atom  174 type  4   force =     0.00000000   -0.00022409    0.00551895
     atom  175 type  4   force =    -0.00002155    0.00008965    0.00470070
     atom  176 type  4   force =    -0.00002155   -0.00008965    0.00470070
     atom  177 type  4   force =     0.00002155   -0.00008965    0.00470070
     atom  178 type  4   force =     0.00002155    0.00008965    0.00470070
     atom  179 type  4   force =    -0.00023127    0.00000000    0.00404593
     atom  180 type  4   force =     0.00023127    0.00000000    0.00404593
     atom  181 type  4   force =     0.00000000   -0.00078766    0.00593300
     atom  182 type  4   force =     0.00000000    0.00078766    0.00593300
     atom  183 type  4   force =     0.00082053    0.00000000    0.00508512
     atom  184 type  4   force =    -0.00082053    0.00000000    0.00508512
     atom  185 type  3   force =     0.00004183    0.00020449    0.00156934
     atom  186 type  3   force =     0.00004183   -0.00020449    0.00156934
     atom  187 type  3   force =    -0.00004183    0.00020449    0.00156934
     atom  188 type  3   force =    -0.00004183   -0.00020449    0.00156934
     atom  189 type  3   force =     0.00000698   -0.00002308    0.00166228
     atom  190 type  3   force =    -0.00000698   -0.00002308    0.00166228
     atom  191 type  3   force =    -0.00000698    0.00002308    0.00166228
     atom  192 type  3   force =     0.00000698    0.00002308    0.00166228
     atom  193 type  1   force =     0.00000000    0.00000000   -0.00162932
     atom  194 type  1   force =     0.00000000   -0.00002784   -0.00133815
     atom  195 type  1   force =     0.00000000    0.00002784   -0.00133815
     atom  196 type  1   force =     0.00020263    0.00000000   -0.00157191
     atom  197 type  1   force =    -0.00020263    0.00000000   -0.00157191
     atom  198 type  1   force =     0.00000000    0.00000000   -0.00150786
     atom  199 type  1   force =     0.00000000    0.00000000   -0.00150786
     atom  200 type  1   force =     0.00000000    0.00000000   -0.00144540
     atom  201 type  4   force =     0.00002482    0.00009844    0.00085978
     atom  202 type  4   force =     0.00002482   -0.00009844    0.00085978
     atom  203 type  4   force =    -0.00002482    0.00009844    0.00085978
     atom  204 type  4   force =    -0.00002482   -0.00009844    0.00085978
     atom  205 type  4   force =     0.00002066    0.00004004    0.00080188
     atom  206 type  4   force =    -0.00002066    0.00004004    0.00080188
     atom  207 type  4   force =    -0.00002066   -0.00004004    0.00080188
     atom  208 type  4   force =     0.00002066   -0.00004004    0.00080188
     atom  209 type  4   force =     0.00010189    0.00000000    0.00031371
     atom  210 type  4   force =    -0.00010189    0.00000000    0.00031371
     atom  211 type  3   force =     0.00009604   -0.00006882   -0.00056520
     atom  212 type  3   force =     0.00009604    0.00006882   -0.00056520
     atom  213 type  3   force =    -0.00009604    0.00006882   -0.00056520
     atom  214 type  3   force =    -0.00009604   -0.00006882   -0.00056520
     atom  215 type  3   force =     0.00000054   -0.00003050   -0.00047361
     atom  216 type  3   force =    -0.00000054    0.00003050   -0.00047361
     atom  217 type  3   force =     0.00000054    0.00003050   -0.00047361
     atom  218 type  3   force =    -0.00000054   -0.00003050   -0.00047361
     atom  219 type  4   force =    -0.00009770    0.00005918    0.00037731
     atom  220 type  4   force =     0.00009770    0.00005918    0.00037731
     atom  221 type  4   force =    -0.00009770   -0.00005918    0.00037731
     atom  222 type  4   force =     0.00009770   -0.00005918    0.00037731
     atom  223 type  4   force =    -0.00015678    0.00000000    0.00034646
     atom  224 type  4   force =     0.00015678    0.00000000    0.00034646

     Total force =     0.253934     Total SCF correction =     0.000241


     Computing stress (Cartesian axis) and pressure


     negative rho (up, down):  6.351E-01 0.000E+00
          total   stress  (Ry/bohr**3)                   (kbar)     P=       -6.46
  -0.00007599   0.00000000   0.00000000          -11.18        0.00        0.00
   0.00000000  -0.00003752   0.00000000            0.00       -5.52        0.00
   0.00000000   0.00000000  -0.00001814            0.00        0.00       -2.67

 
     init_run     :     61.91s CPU     65.28s WALL (       1 calls)
     electrons    :   5626.09s CPU   5867.81s WALL (       1 calls)
     forces       :     37.33s CPU     39.65s WALL (       1 calls)
     stress       :    481.01s CPU    486.44s WALL (       1 calls)

     Called by init_run:
     wfcinit      :     48.88s CPU     50.44s WALL (       1 calls)
     potinit      :      1.80s CPU      1.87s WALL (       1 calls)
     hinit0       :      3.06s CPU      3.31s WALL (       1 calls)

     Called by electrons:
     c_bands      :   4720.55s CPU   4820.76s WALL (      47 calls)
     sum_band     :    619.84s CPU    699.82s WALL (      47 calls)
     v_of_rho     :     14.27s CPU     15.13s WALL (      48 calls)
     newd         :    106.76s CPU    167.54s WALL (      48 calls)
     mix_rho      :    165.28s CPU    166.45s WALL (      47 calls)

     Called by c_bands:
     init_us_2    :     16.88s CPU     17.51s WALL (     388 calls)
     cegterg      :   4608.20s CPU   4700.71s WALL (     188 calls)

     Called by sum_band:
     sum_band:bec :      4.35s CPU      4.37s WALL (     188 calls)
     addusdens    :     98.73s CPU    173.51s WALL (      47 calls)

     Called by *egterg:
     h_psi        :   1882.78s CPU   1916.73s WALL (    1286 calls)
     s_psi        :    546.29s CPU    558.42s WALL (    1286 calls)
     g_psi        :      2.70s CPU      2.72s WALL (    1094 calls)
     cdiaghg      :    917.34s CPU    920.74s WALL (    1282 calls)

     Called by h_psi:
     h_psi:calbec :    604.64s CPU    608.07s WALL (    1286 calls)
     vloc_psi     :    727.23s CPU    735.50s WALL (    1286 calls)
     add_vuspsi   :    546.68s CPU    558.83s WALL (    1286 calls)

     General routines
     calbec       :    952.21s CPU    956.93s WALL (    1494 calls)
     fft          :     15.21s CPU     15.57s WALL (     647 calls)
     ffts         :    101.43s CPU    102.07s WALL (   38083 calls)
     fftw         :    813.15s CPU    822.13s WALL ( 1070410 calls)
     interpolate  :      1.35s CPU      1.35s WALL (      48 calls)
 
     Parallel routines
     fft_scatt_xy :    110.75s CPU    111.94s WALL ( 1109140 calls)
     fft_scatt_yz :    549.22s CPU    555.29s WALL ( 1109140 calls)
 
     PWSCF        :      1h43m CPU      1h47m WALL

 
   This run was terminated on:  23: 1:33  18May2021            

=------------------------------------------------------------------------------=
   JOB DONE.
=------------------------------------------------------------------------------=
[1621393293.890679] [holy7c06401:109728:0]          mpool.c:43   UCX  WARN  object 0x400c300 was not returned to mpool ucp_requests
[1621393293.887024] [holy7c06408:197854:0]          mpool.c:43   UCX  WARN  object 0x33bf280 was not returned to mpool ucp_requests
[1621393293.895914] [holy7c06606:26012:0]          mpool.c:43   UCX  WARN  object 0x29f6bc0 was not returned to mpool ucp_requests
[1621393293.896927] [holy7c06401:109734:0]          mpool.c:43   UCX  WARN  object 0x3e87b40 was not returned to mpool ucp_requests
[1621393293.894684] [holy7c06601:263282:0]          mpool.c:43   UCX  WARN  object 0x3074d40 was not returned to mpool ucp_requests
[1621393293.901343] [holy7c06606:26020:0]          mpool.c:43   UCX  WARN  object 0x37e2a80 was not returned to mpool ucp_requests
[1621393293.891066] [holy7c06408:197862:0]          mpool.c:43   UCX  WARN  object 0x5a3bd40 was not returned to mpool ucp_requests
[1621393293.902730] [holy7c06606:26010:0]          mpool.c:43   UCX  WARN  object 0x348d940 was not returned to mpool ucp_requests
[1621393293.891976] [holy7c06408:197860:0]          mpool.c:43   UCX  WARN  object 0x4bd10c0 was not returned to mpool ucp_requests
[1621393293.891997] [holy7c06408:197860:0]          mpool.c:43   UCX  WARN  object 0x2867d40 was not returned to mpool ucp_requests
[1621393293.908459] [holy7c06606:26018:0]          mpool.c:43   UCX  WARN  object 0x46085c0 was not returned to mpool ucp_requests
[1621393293.888861] [holy7c06408:197861:0]          mpool.c:43   UCX  WARN  object 0x3bd63c0 was not returned to mpool ucp_requests
[1621393293.891170] [holy7c06408:197859:0]          mpool.c:43   UCX  WARN  object 0x58b2dc0 was not returned to mpool ucp_requests
[1621393293.903885] [holy7c06606:26009:0]          mpool.c:43   UCX  WARN  object 0x3a89980 was not returned to mpool ucp_requests
[1621393293.897204] [holy7c06408:197853:0]          mpool.c:43   UCX  WARN  object 0x4fa0c40 was not returned to mpool ucp_requests
[1621393293.897229] [holy7c06408:197853:0]          mpool.c:43   UCX  WARN  object 0x2c36e80 was not returned to mpool ucp_requests
[1621393293.908142] [holy7c06606:26011:0]          mpool.c:43   UCX  WARN  object 0x2b020c0 was not returned to mpool ucp_requests
[1621393293.897304] [holy7c06601:263274:0]          mpool.c:43   UCX  WARN  object 0x3d20340 was not returned to mpool ucp_requests
[1621393293.900527] [holy7c06601:263285:0]          mpool.c:43   UCX  WARN  object 0x3e731c0 was not returned to mpool ucp_requests
[1621393293.906481] [holy7c06601:263284:0]          mpool.c:43   UCX  WARN  object 0x51e74c0 was not returned to mpool ucp_requests
[1621393293.900322] [holy7c06601:263276:0]          mpool.c:43   UCX  WARN  object 0x32f8900 was not returned to mpool ucp_requests
[1621393293.900352] [holy7c06601:263276:0]          mpool.c:43   UCX  WARN  object 0x32f9e00 was not returned to mpool ucp_requests
[1621393293.901956] [holy7c06601:263277:0]          mpool.c:43   UCX  WARN  object 0x47fccc0 was not returned to mpool ucp_requests
[1621393293.903140] [holy7c06601:263283:0]          mpool.c:43   UCX  WARN  object 0x398f840 was not returned to mpool ucp_requests
[1621393293.904945] [holy7c06601:263275:0]          mpool.c:43   UCX  WARN  object 0x407b040 was not returned to mpool ucp_requests
[1621393293.910957] [holy7c06401:109727:0]          mpool.c:43   UCX  WARN  object 0x44a2ac0 was not returned to mpool ucp_requests
[1621393293.913211] [holy7c06401:109729:0]          mpool.c:43   UCX  WARN  object 0x4222a80 was not returned to mpool ucp_requests
[1621393293.912489] [holy7c06401:109735:0]          mpool.c:43   UCX  WARN  object 0x43e4000 was not returned to mpool ucp_requests
[1621393293.919123] [holy7c06606:26017:0]          mpool.c:43   UCX  WARN  object 0x5ed1400 was not returned to mpool ucp_requests
[1621393293.922894] [holy7c06606:26019:0]          mpool.c:43   UCX  WARN  object 0x6067280 was not returned to mpool ucp_requests
[1621393293.960398] [holy7c08102:103943:0]          mpool.c:43   UCX  WARN  object 0x47ca100 was not returned to mpool ucp_requests
[1621393293.978323] [holy7c08102:103944:0]          mpool.c:43   UCX  WARN  object 0x2ddb940 was not returned to mpool ucp_requests
[1621393293.981539] [holy7c08102:103942:0]          mpool.c:43   UCX  WARN  object 0x43b0fc0 was not returned to mpool ucp_requests
[1621393293.980606] [holy7c08102:103945:0]          mpool.c:43   UCX  WARN  object 0x2b48040 was not returned to mpool ucp_requests
