
     Program PWSCF v.6.5 starts on 17May2021 at 21: 0: 8 

     This program is part of the open-source Quantum ESPRESSO suite
     for quantum simulation of materials; please cite
         "P. Giannozzi et al., J. Phys.:Condens. Matter 21 395502 (2009);
         "P. Giannozzi et al., J. Phys.:Condens. Matter 29 465901 (2017);
          URL http://www.quantum-espresso.org", 
     in publications or presentations arising from this work. More details at
     http://www.quantum-espresso.org/quote

     Parallel version (MPI), running on    80 processors

     MPI processes distributed on     5 nodes
     R & G space division:  proc/nbgrp/npool/nimage =      80
     Reading input from YBCO_BaO_cleave_2.0_sep.pwi
Warning: card &IONS ignored
Warning: card     ION_DYNAMICS = 'BFGS' ignored
Warning: card / ignored
Warning: card &CELL ignored
Warning: card     CELL_DYNAMICS = 'BFGS' ignored
Warning: card     PRESS_CONV_THR = 5 ignored
Warning: card / ignored

     Current dimensions of program PWSCF are:
     Max number of different atomic species (ntypx) = 10
     Max number of k-points (npk) =  40000
     Max angular momentum in pseudopotentials (lmaxx) =  3
     Message from routine volume:
     axis vectors are left-handed

     Subspace diagonalization in iterative solution of the eigenvalue problem:
     one sub-group per band group will be used
     scalapack distributed-memory algorithm (size of sub-group:  8*  8 procs)

     Message from routine setup:
     using ibrav=0 with symmetry is DISCOURAGED, use correct ibrav instead
 
     Parallelization info
     --------------------
     sticks:   dense  smooth     PW     G-vecs:    dense   smooth      PW
     Min         300     100     25               147294    28346    3721
     Max         301     101     26               147329    28365    3760
     Sum       24079    8031   2067             11785545  2268261  299801
 


     bravais-lattice index     =            0
     lattice parameter (alat)  =      20.5021  a.u.
     unit-cell volume          =   36123.4618 (a.u.)^3
     number of atoms/cell      =          224
     number of atomic types    =            5
     number of electrons       =      1830.00
     number of Kohn-Sham states=         1098
     kinetic-energy cutoff     =      60.0000  Ry
     charge density cutoff     =     720.0000  Ry
     convergence threshold     =      1.0E-08
     mixing beta               =       0.5000
     number of iterations used =           10  local-TF  mixing
     Exchange-correlation= SLA PW PBE PBE
                           (   1   4   3   4   0   0   0)

     celldm(1)=  20.502120  celldm(2)=   0.000000  celldm(3)=   0.000000
     celldm(4)=   0.000000  celldm(5)=   0.000000  celldm(6)=   0.000000

     crystal axes: (cart. coord. in units of alat)
               a(1) = (  -0.716599   0.697485   0.000000 )  
               a(2) = (   0.716599   0.697485   0.000000 )  
               a(3) = (   0.000000   0.000000   4.193260 )  

     reciprocal axes: (cart. coord. in units 2 pi/alat)
               b(1) = ( -0.697740  0.716861  0.000000 )  
               b(2) = (  0.697740  0.716861  0.000000 )  
               b(3) = (  0.000000  0.000000  0.238478 )  


     PseudoPot. # 1 for Ba read from file:
     ./pseudo/Ba.pbe-nsp-van.UPF
     MD5 check sum: 2b9c31dd849566dd297d80989662b7a0
     Pseudo is Ultrasoft + core correction, Zval = 10.0
     Generated by new atomic code, or converted to UPF format
     Using radial grid of  907 points,  6 beta functions with: 
                l(1) =   0
                l(2) =   0
                l(3) =   1
                l(4) =   1
                l(5) =   2
                l(6) =   2
     Q(r) pseudized with  6 coefficients,  rinner =    1.200   1.200   1.200
                                                       1.200   1.200

     PseudoPot. # 2 for Ca read from file:
     ./pseudo/Ca.pbe-nsp-van.UPF
     MD5 check sum: 6471098428ff4fa451746d08035ff179
     Pseudo is Ultrasoft + core correction, Zval = 10.0
     Generated by new atomic code, or converted to UPF format
     Using radial grid of  845 points,  6 beta functions with: 
                l(1) =   0
                l(2) =   0
                l(3) =   1
                l(4) =   1
                l(5) =   2
                l(6) =   2
     Q(r) pseudized with  6 coefficients,  rinner =    1.200   1.200   1.200
                                                       1.200   1.200

     PseudoPot. # 3 for Cu read from file:
     ./pseudo/Cu.pbe-n-van_ak.UPF
     MD5 check sum: 34e3282627ffb533726feb647e090d62
     Pseudo is Ultrasoft + core correction, Zval = 11.0
     Generated by new atomic code, or converted to UPF format
     Using radial grid of  867 points,  6 beta functions with: 
                l(1) =   0
                l(2) =   0
                l(3) =   1
                l(4) =   1
                l(5) =   2
                l(6) =   2
     Q(r) pseudized with  8 coefficients,  rinner =    1.400   1.400   1.400
                                                       1.400   1.400

     PseudoPot. # 4 for O  read from file:
     ./pseudo/O.pbe-van_ak.UPF
     MD5 check sum: 783ce7fe4c79b6a4916957118fed0856
     Pseudo is Ultrasoft, Zval =  6.0
     Generated by new atomic code, or converted to UPF format
     Using radial grid of  737 points,  4 beta functions with: 
                l(1) =   0
                l(2) =   0
                l(3) =   1
                l(4) =   1
     Q(r) pseudized with  8 coefficients,  rinner =    0.800   0.800   0.800


     PseudoPot. # 5 for Y  read from file:
     ./pseudo/Y.pbe-nsp-van.UPF
     MD5 check sum: 4412fed3ab108fed87a1b7d6a69a4a38
     Pseudo is Ultrasoft + core correction, Zval = 11.0
     Generated by new atomic code, or converted to UPF format
     Using radial grid of  885 points,  6 beta functions with: 
                l(1) =   0
                l(2) =   0
                l(3) =   1
                l(4) =   1
                l(5) =   2
                l(6) =   2
     Q(r) pseudized with  6 coefficients,  rinner =    1.200   1.200   1.200
                                                       1.200   1.200

     atomic species   valence    mass     pseudopotential
        Ba            10.00   137.32700     Ba( 1.00)
        Ca            10.00    40.07800     Ca( 1.00)
        Cu            11.00    63.54600     Cu( 1.00)
        O              6.00    15.99900     O ( 1.00)
        Y             11.00    88.90584     Y ( 1.00)

      4 Sym. Ops. (no inversion) found ( 3 have fractional translation)



   Cartesian axes

     site n.     atom                  positions (alat units)
         1           O   tau(   1) = (   0.3545921   0.8718562  -0.0077406  )
         2           O   tau(   2) = (   0.0037072   0.8718562  -0.0077406  )
         3           Cu  tau(   3) = (  -0.0002581   0.0006065   0.0080789  )
         4           Cu  tau(   4) = (  -0.0002581   0.3481364   0.0080789  )
         5           Cu  tau(   5) = (   0.3585574   0.3481364   0.0080789  )
         6           Cu  tau(   6) = (  -0.3580421   0.6980913   0.0080789  )
         7           Cu  tau(   7) = (   0.3577988   0.6971373   0.0086255  )
         8           Cu  tau(   8) = (   0.0005005   1.0465760   0.0086255  )
         9           Cu  tau(   9) = (  -0.3588016   0.3490903   0.0086255  )
        10           Cu  tau(  10) = (   0.0005005   0.6971373   0.0086255  )
        11           O   tau(  11) = (  -0.0001733   0.5225410  -0.0089757  )
        12           O   tau(  12) = (   0.3584726   0.5225410  -0.0089757  )
        13           O   tau(  13) = (  -0.0001733   1.2211724  -0.0089757  )
        14           O   tau(  14) = (  -0.3581278   0.5236867  -0.0089757  )
        15           O   tau(  15) = (  -0.3544557   0.8718562  -0.0105593  )
        16           O   tau(  16) = (  -0.0038445   0.1743714  -0.0105593  )
        17           O   tau(  17) = (   0.3588818   0.3486599   0.1817056  )
        18           O   tau(  18) = (  -0.0005825   0.3486599   0.1817056  )
        19           O   tau(  19) = (  -0.0005825   0.0000830   0.1817056  )
        20           O   tau(  20) = (  -0.3577167   0.6975677   0.1817056  )
        21           O   tau(  21) = (   0.3584283   0.6967843   0.1825784  )
        22           O   tau(  22) = (  -0.3581712   0.3494443   0.1825784  )
        23           O   tau(  23) = (  -0.0001290   0.6967843   0.1825784  )
        24           O   tau(  24) = (  -0.0001290   1.0469291   0.1825784  )
        25           Ba  tau(  25) = (   0.1791506   0.8718562   0.1908537  )
        26           Ba  tau(  26) = (   0.5374498   0.5231143   0.1919901  )
        27           Ba  tau(  27) = (  -0.1791506   0.5231143   0.1919901  )
        28           Ba  tau(  28) = (  -0.1793773   0.8718562   0.1931958  )
        29           Ba  tau(  29) = (  -0.1789238   0.1743714   0.1931958  )
        30           Ba  tau(  30) = (   0.1791506   0.5222101   0.1929368  )
        31           Ba  tau(  31) = (  -0.5374498   0.5240176   0.1929368  )
        32           Ba  tau(  32) = (   0.1791506   0.1743714   0.1992469  )
        33           Cu  tau(  33) = (  -0.3583426   0.3488452   0.3777458  )
        34           Cu  tau(  34) = (   0.3582559   0.6973834   0.3777458  )
        35           Cu  tau(  35) = (   0.0000433   0.6973834   0.3777458  )
        36           Cu  tau(  36) = (   0.0000433   1.0463299   0.3777458  )
        37           Cu  tau(  37) = (  -0.3586541   0.6975060   0.3775126  )
        38           Cu  tau(  38) = (   0.3579444   0.3487217   0.3775126  )
        39           Cu  tau(  39) = (   0.0003549   0.0000212   0.3775126  )
        40           Cu  tau(  40) = (   0.0003549   0.3487217   0.3775126  )
        41           O   tau(  41) = (  -0.0047976   0.1743714   0.3996864  )
        42           O   tau(  42) = (  -0.3535026   0.8718562   0.3996864  )
        43           O   tau(  43) = (  -0.5374498   0.6924605   0.3956991  )
        44           O   tau(  44) = (   0.1791506   0.3537672   0.3956991  )
        45           O   tau(  45) = (   0.3586385   0.8718562   0.4046840  )
        46           O   tau(  46) = (  -0.0003392   0.8718562   0.4046840  )
        47           O   tau(  47) = (  -0.0004857   0.5230571   0.4066611  )
        48           O   tau(  48) = (   0.3587850   0.5230571   0.4066611  )
        49           O   tau(  49) = (  -0.3578135   0.5231714   0.4066611  )
        50           O   tau(  50) = (  -0.0004857   1.2206562   0.4066611  )
        51           O   tau(  51) = (   0.1791506   1.0461604   0.4028931  )
        52           O   tau(  52) = (   0.1791506   0.6975521   0.4028931  )
        53           O   tau(  53) = (  -0.1792261   0.6967170   0.4025963  )
        54           O   tau(  54) = (  -0.1790731   0.3495106   0.4025963  )
        55           O   tau(  55) = (  -0.1792261   1.0469964   0.4025963  )
        56           O   tau(  56) = (   0.5375263   0.6967170   0.4025963  )
        57           Ca  tau(  57) = (   0.1791506   0.1743714   0.5358617  )
        58           Y   tau(  58) = (  -0.1811525   0.8718562   0.5373908  )
        59           Y   tau(  59) = (  -0.1771467   0.1743714   0.5373908  )
        60           Y   tau(  60) = (   0.1791506   0.8718562   0.5379568  )
        61           Y   tau(  61) = (   0.5374498   0.5231143   0.5384490  )
        62           Y   tau(  62) = (  -0.1791506   0.5231143   0.5384490  )
        63           Y   tau(  63) = (   0.1791506   0.5216598   0.5383310  )
        64           Y   tau(  64) = (  -0.5374498   0.5245688   0.5383310  )
        65           O   tau(  65) = (  -0.1787754   0.3493171   0.6712314  )
        66           O   tau(  66) = (   0.5378231   0.6969115   0.6712314  )
        67           O   tau(  67) = (  -0.1795239   1.0468019   0.6712314  )
        68           O   tau(  68) = (  -0.1795239   0.6969115   0.6712314  )
        69           O   tau(  69) = (   0.1791506   0.6972691   0.6718637  )
        70           O   tau(  70) = (   0.1791506   1.0464433   0.6718637  )
        71           O   tau(  71) = (  -0.0003880   1.2203935   0.6667490  )
        72           O   tau(  72) = (  -0.0003880   0.5233198   0.6667490  )
        73           O   tau(  73) = (   0.3586882   0.5233198   0.6667490  )
        74           O   tau(  74) = (  -0.3579112   0.5229087   0.6667490  )
        75           O   tau(  75) = (   0.3585850   0.8718562   0.6641940  )
        76           O   tau(  76) = (  -0.0002857   0.8718562   0.6641940  )
        77           O   tau(  77) = (   0.1791506   0.3535118   0.6756778  )
        78           O   tau(  78) = (  -0.5374498   0.6927158   0.6756778  )
        79           O   tau(  79) = (  -0.0043044   0.1743714   0.6710848  )
        80           O   tau(  80) = (  -0.3539948   0.8718562   0.6710848  )
        81           Cu  tau(  81) = (  -0.3586514   0.6973604   0.6974442  )
        82           Cu  tau(  82) = (   0.3579472   0.3488682   0.6974442  )
        83           Cu  tau(  83) = (   0.0003521  -0.0001254   0.6974442  )
        84           Cu  tau(  84) = (   0.0003521   0.3488682   0.6974442  )
        85           Cu  tau(  85) = (   0.0000083   1.0459401   0.6989015  )
        86           Cu  tau(  86) = (  -0.3583076   0.3484544   0.6989015  )
        87           Cu  tau(  87) = (   0.3582910   0.6977733   0.6989015  )
        88           Cu  tau(  88) = (   0.0000083   0.6977733   0.6989015  )
        89           Ba  tau(  89) = (   0.1791506   0.1743714   0.8671591  )
        90           Ba  tau(  90) = (  -0.5374498   0.5239908   0.8827639  )
        91           Ba  tau(  91) = (   0.1791506   0.5222377   0.8827639  )
        92           Ba  tau(  92) = (  -0.1785616   0.1743714   0.8784262  )
        93           Ba  tau(  93) = (  -0.1797386   0.8718562   0.8784262  )
        94           Ba  tau(  94) = (  -0.1791506   0.5231143   0.8841483  )
        95           Ba  tau(  95) = (   0.5374498   0.5231143   0.8841483  )
        96           Ba  tau(  96) = (   0.1791506   0.8718562   0.8844635  )
        97           O   tau(  97) = (   0.3607888   0.6975991   0.9037874  )
        98           O   tau(  98) = (  -0.3558097   0.3486286   0.9037874  )
        99           O   tau(  99) = (  -0.0024896   0.6975991   0.9037874  )
       100           O   tau( 100) = (  -0.0024896   1.0461143   0.9037874  )
       101           O   tau( 101) = (   0.3544087   0.3463252   0.9043663  )
       102           O   tau( 102) = (   0.0038906   0.3463252   0.9043663  )
       103           O   tau( 103) = (   0.0038906   0.0024177   0.9043663  )
       104           O   tau( 104) = (  -0.3621908   0.6999025   0.9043663  )
       105           O   tau( 105) = (   0.3314246   0.8718562   1.0783672  )
       106           O   tau( 106) = (   0.0268747   0.8718562   1.0783672  )
       107           Cu  tau( 107) = (  -0.0027882   0.0031818   1.0782086  )
       108           Cu  tau( 108) = (  -0.0027882   0.3455601   1.0782086  )
       109           Cu  tau( 109) = (   0.3610875   0.3455601   1.0782086  )
       110           Cu  tau( 110) = (  -0.3555111   0.7006675   1.0782086  )
       111           Cu  tau( 111) = (   0.3579684   0.6983604   1.0781976  )
       112           Cu  tau( 112) = (   0.0003318   1.0453529   1.0781976  )
       113           Cu  tau( 113) = (  -0.3586320   0.3478672   1.0781976  )
       114           Cu  tau( 114) = (   0.0003318   0.6983604   1.0781976  )
       115           O   tau( 115) = (  -0.0055718   0.5218801   1.0778989  )
       116           O   tau( 116) = (   0.3638720   0.5218801   1.0778989  )
       117           O   tau( 117) = (  -0.0055718   1.2218333   1.0778989  )
       118           O   tau( 118) = (  -0.3527284   0.5243475   1.0778989  )
       119           O   tau( 119) = (  -0.3170374   0.8718562   1.0783192  )
       120           O   tau( 120) = (  -0.0412618   0.1743714   1.0783192  )
       121           O   tau( 121) = (   0.3544105   0.3465040   1.2520362  )
       122           O   tau( 122) = (   0.0038887   0.3465040   1.2520362  )
       123           O   tau( 123) = (   0.0038887   0.0022389   1.2520362  )
       124           O   tau( 124) = (  -0.3621880   0.6997236   1.2520362  )
       125           O   tau( 125) = (   0.3607981   0.6973991   1.2525976  )
       126           O   tau( 126) = (  -0.3558014   0.3488295   1.2525976  )
       127           O   tau( 127) = (  -0.0024988   0.6973991   1.2525976  )
       128           O   tau( 128) = (  -0.0024988   1.0463143   1.2525976  )
       129           Ba  tau( 129) = (   0.1791506   0.8718562   1.2719528  )
       130           Ba  tau( 130) = (   0.5374498   0.5231143   1.2722763  )
       131           Ba  tau( 131) = (  -0.1791506   0.5231143   1.2722763  )
       132           Ba  tau( 132) = (  -0.1796732   0.8718562   1.2779763  )
       133           Ba  tau( 133) = (  -0.1786270   0.1743714   1.2779763  )
       134           Ba  tau( 134) = (   0.1791506   0.5222571   1.2737041  )
       135           Ba  tau( 135) = (  -0.5374498   0.5239706   1.2737041  )
       136           Ba  tau( 136) = (   0.1791506   0.1743714   1.2892268  )
       137           Cu  tau( 137) = (  -0.3583094   0.3484682   1.6418676  )
       138           Cu  tau( 138) = (   0.3582901   0.6977604   1.6418676  )
       139           Cu  tau( 139) = (   0.0000101   0.6977604   1.6418676  )
       140           Cu  tau( 140) = (   0.0000101   1.0459530   1.6418676  )
       141           Cu  tau( 141) = (  -0.3586477   0.6973567   1.6432880  )
       142           Cu  tau( 142) = (   0.3579518   0.3488710   1.6432880  )
       143           Cu  tau( 143) = (   0.0003484  -0.0001281   1.6432880  )
       144           Cu  tau( 144) = (   0.0003484   0.3488710   1.6432880  )
       145           O   tau( 145) = (  -0.0043173   0.1743714   1.6695930  )
       146           O   tau( 146) = (  -0.3539819   0.8718562   1.6695930  )
       147           O   tau( 147) = (  -0.5374498   0.6927305   1.6650619  )
       148           O   tau( 148) = (   0.1791506   0.3534971   1.6650619  )
       149           O   tau( 149) = (   0.3585795   0.8718562   1.6765032  )
       150           O   tau( 150) = (  -0.0002802   0.8718562   1.6765032  )
       151           O   tau( 151) = (  -0.0003853   0.5233134   1.6740072  )
       152           O   tau( 152) = (   0.3586855   0.5233134   1.6740072  )
       153           O   tau( 153) = (  -0.3579140   0.5229152   1.6740072  )
       154           O   tau( 154) = (  -0.0003853   1.2204000   1.6740072  )
       155           O   tau( 155) = (   0.1791506   1.0464553   1.6688806  )
       156           O   tau( 156) = (   0.1791506   0.6972571   1.6688806  )
       157           O   tau( 157) = (  -0.1795146   0.6969069   1.6695092  )
       158           O   tau( 158) = (  -0.1787846   0.3493208   1.6695092  )
       159           O   tau( 159) = (  -0.1795146   1.0468065   1.6695092  )
       160           O   tau( 160) = (   0.5378139   0.6969069   1.6695092  )
       161           Ca  tau( 161) = (   0.1791506   0.1743714   1.8048715  )
       162           Y   tau( 162) = (  -0.1811544   0.8718562   1.8033405  )
       163           Y   tau( 163) = (  -0.1771449   0.1743714   1.8033405  )
       164           Y   tau( 164) = (   0.1791506   0.8718562   1.8027773  )
       165           Y   tau( 165) = (   0.5374498   0.5231143   1.8023082  )
       166           Y   tau( 166) = (  -0.1791506   0.5231143   1.8023082  )
       167           Y   tau( 167) = (   0.1791506   0.5216524   1.8024289  )
       168           Y   tau( 168) = (  -0.5374498   0.5245761   1.8024289  )
       169           O   tau( 169) = (  -0.1790685   0.3495088   1.9381433  )
       170           O   tau( 170) = (   0.5375300   0.6967198   1.9381433  )
       171           O   tau( 171) = (  -0.1792307   1.0469936   1.9381433  )
       172           O   tau( 172) = (  -0.1792307   0.6967198   1.9381433  )
       173           O   tau( 173) = (   0.1791506   0.6975604   1.9378465  )
       174           O   tau( 174) = (   0.1791506   1.0461521   1.9378465  )
       175           O   tau( 175) = (  -0.0004848   1.2206534   1.9340822  )
       176           O   tau( 176) = (  -0.0004848   0.5230599   1.9340822  )
       177           O   tau( 177) = (   0.3587841   0.5230599   1.9340822  )
       178           O   tau( 178) = (  -0.3578144   0.5231687   1.9340822  )
       179           O   tau( 179) = (   0.3586468   0.8718562   1.9360206  )
       180           O   tau( 180) = (  -0.0003466   0.8718562   1.9360206  )
       181           O   tau( 181) = (   0.1791506   0.3537690   1.9450433  )
       182           O   tau( 182) = (  -0.5374498   0.6924586   1.9450433  )
       183           O   tau( 183) = (  -0.0047874   0.1743714   1.9410080  )
       184           O   tau( 184) = (  -0.3535118   0.8718562   1.9410080  )
       185           Cu  tau( 185) = (  -0.3586560   0.6975087   1.9632141  )
       186           Cu  tau( 186) = (   0.3579435   0.3487198   1.9632141  )
       187           Cu  tau( 187) = (   0.0003567   0.0000230   1.9632141  )
       188           Cu  tau( 188) = (   0.0003567   0.3487198   1.9632141  )
       189           Cu  tau( 189) = (   0.0000415   1.0463263   1.9629819  )
       190           Cu  tau( 190) = (  -0.3583407   0.3488406   1.9629819  )
       191           Cu  tau( 191) = (   0.3582587   0.6973871   1.9629819  )
       192           Cu  tau( 192) = (   0.0000415   0.6973871   1.9629819  )
       193           Ba  tau( 193) = (   0.1791506   0.1743714   2.1414872  )
       194           Ba  tau( 194) = (  -0.5374498   0.5240166   2.1477964  )
       195           Ba  tau( 195) = (   0.1791506   0.5222119   2.1477964  )
       196           Ba  tau( 196) = (  -0.1789220   0.1743714   2.1475402  )
       197           Ba  tau( 197) = (  -0.1793773   0.8718562   2.1475402  )
       198           Ba  tau( 198) = (  -0.1791506   0.5231143   2.1487504  )
       199           Ba  tau( 199) = (   0.5374498   0.5231143   2.1487504  )
       200           Ba  tau( 200) = (   0.1791506   0.8718562   2.1498786  )
       201           O   tau( 201) = (   0.3584302   0.6967870   2.1581483  )
       202           O   tau( 202) = (  -0.3581684   0.3494406   2.1581483  )
       203           O   tau( 203) = (  -0.0001309   0.6967870   2.1581483  )
       204           O   tau( 204) = (  -0.0001309   1.0469263   2.1581483  )
       205           O   tau( 205) = (   0.3588800   0.3486562   2.1590211  )
       206           O   tau( 206) = (  -0.0005807   0.3486562   2.1590211  )
       207           O   tau( 207) = (  -0.0005807   0.0000866   2.1590211  )
       208           O   tau( 208) = (  -0.3577186   0.6975714   2.1590211  )
       209           O   tau( 209) = (   0.3545921   0.8718562   2.3484517  )
       210           O   tau( 210) = (   0.0037081   0.8718562   2.3484517  )
       211           Cu  tau( 211) = (  -0.0002516   0.0006074   2.3326478  )
       212           Cu  tau( 212) = (  -0.0002516   0.3481345   2.3326478  )
       213           Cu  tau( 213) = (   0.3585509   0.3481345   2.3326478  )
       214           Cu  tau( 214) = (  -0.3580476   0.6980931   2.3326478  )
       215           Cu  tau( 215) = (   0.3577960   0.6971373   2.3321012  )
       216           Cu  tau( 216) = (   0.0005033   1.0465760   2.3321012  )
       217           Cu  tau( 217) = (  -0.3588035   0.3490903   2.3321012  )
       218           Cu  tau( 218) = (   0.0005033   0.6971373   2.3321012  )
       219           O   tau( 219) = (  -0.0001724   0.5225410   2.3496905  )
       220           O   tau( 220) = (   0.3584716   0.5225410   2.3496905  )
       221           O   tau( 221) = (  -0.0001724   1.2211724   2.3496905  )
       222           O   tau( 222) = (  -0.3581288   0.5236867   2.3496905  )
       223           O   tau( 223) = (  -0.3544640   0.8718562   2.3512804  )
       224           O   tau( 224) = (  -0.0038353   0.1743714   2.3512804  )

     number of k points=     4  Gaussian smearing, width (Ry)=  0.0100
                       cart. coord. in units 2pi/alat
        k(    1) = (   0.0000000   0.0000000   0.0000000), wk =   0.2222222
        k(    2) = (   0.2325801   0.2389537   0.0000000), wk =   0.8888889
        k(    3) = (   0.0000000   0.4779073   0.0000000), wk =   0.4444444
        k(    4) = (  -0.4651601  -0.0000000   0.0000000), wk =   0.4444444

     Dense  grid: 11785545 G-vectors     FFT dimensions: ( 180, 180, 750)

     Smooth grid:  2268261 G-vectors     FFT dimensions: ( 108, 108, 432)

     Estimated max dynamical RAM per process >       2.46 GB

     Estimated total dynamical RAM >     196.93 GB

     Initial potential from superposition of free atoms

     starting charge 1828.78422, renormalised to 1830.00000

     negative rho (up, down):  6.302E-01 0.000E+00
     Starting wfcs are 1602 randomized atomic wfcs

     total cpu time spent up to now is       60.2 secs

     Self-consistent Calculation

     iteration #  1     ecut=    60.00 Ry     beta= 0.50
     Davidson diagonalization with overlap
     ethr =  1.00E-02,  avg # of iterations =  2.0

     negative rho (up, down):  6.002E-01 0.000E+00

     total cpu time spent up to now is      158.5 secs

     total energy              =  -14912.93450172 Ry
     Harris-Foulkes estimate   =  -14943.60446219 Ry
     estimated scf accuracy    <     118.01800540 Ry

     iteration #  2     ecut=    60.00 Ry     beta= 0.50
     Davidson diagonalization with overlap
     ethr =  6.45E-03,  avg # of iterations =  2.0

     negative rho (up, down):  6.007E-01 0.000E+00

     total cpu time spent up to now is      251.7 secs

     total energy              =  -14922.96997479 Ry
     Harris-Foulkes estimate   =  -14927.00408699 Ry
     estimated scf accuracy    <      27.17084194 Ry

     iteration #  3     ecut=    60.00 Ry     beta= 0.50
     Davidson diagonalization with overlap
     ethr =  1.48E-03,  avg # of iterations =  2.0

     negative rho (up, down):  6.039E-01 0.000E+00

     total cpu time spent up to now is      345.7 secs

     total energy              =  -14924.60589510 Ry
     Harris-Foulkes estimate   =  -14925.64255154 Ry
     estimated scf accuracy    <      32.87287862 Ry

     iteration #  4     ecut=    60.00 Ry     beta= 0.50
     Davidson diagonalization with overlap
     ethr =  1.48E-03,  avg # of iterations =  1.0

     negative rho (up, down):  6.098E-01 0.000E+00

     total cpu time spent up to now is      436.0 secs

     total energy              =  -14924.63573283 Ry
     Harris-Foulkes estimate   =  -14925.11536171 Ry
     estimated scf accuracy    <       9.81868028 Ry

     iteration #  5     ecut=    60.00 Ry     beta= 0.50
     Davidson diagonalization with overlap
     ethr =  5.37E-04,  avg # of iterations =  1.0

     negative rho (up, down):  6.191E-01 0.000E+00

     total cpu time spent up to now is      526.6 secs

     total energy              =  -14924.47986494 Ry
     Harris-Foulkes estimate   =  -14924.92142383 Ry
     estimated scf accuracy    <      14.79372982 Ry

     iteration #  6     ecut=    60.00 Ry     beta= 0.50
     Davidson diagonalization with overlap
     ethr =  5.37E-04,  avg # of iterations =  1.8

     negative rho (up, down):  6.234E-01 0.000E+00

     total cpu time spent up to now is      620.3 secs

     total energy              =  -14924.55182598 Ry
     Harris-Foulkes estimate   =  -14924.67690412 Ry
     estimated scf accuracy    <       4.59454909 Ry

     iteration #  7     ecut=    60.00 Ry     beta= 0.50
     Davidson diagonalization with overlap
     ethr =  2.51E-04,  avg # of iterations =  9.8

     negative rho (up, down):  6.303E-01 0.000E+00

     total cpu time spent up to now is      748.9 secs

     total energy              =  -14924.54209409 Ry
     Harris-Foulkes estimate   =  -14924.61921228 Ry
     estimated scf accuracy    <       3.26707545 Ry

     iteration #  8     ecut=    60.00 Ry     beta= 0.50
     Davidson diagonalization with overlap
     ethr =  1.79E-04,  avg # of iterations =  5.8

     negative rho (up, down):  6.335E-01 0.000E+00

     total cpu time spent up to now is      861.1 secs

     total energy              =  -14924.51401648 Ry
     Harris-Foulkes estimate   =  -14924.58589742 Ry
     estimated scf accuracy    <       2.67908110 Ry

     iteration #  9     ecut=    60.00 Ry     beta= 0.50
     Davidson diagonalization with overlap
     ethr =  1.46E-04,  avg # of iterations =  6.2

     negative rho (up, down):  6.330E-01 0.000E+00

     total cpu time spent up to now is      971.7 secs

     total energy              =  -14924.48384371 Ry
     Harris-Foulkes estimate   =  -14924.53650614 Ry
     estimated scf accuracy    <       1.45854567 Ry

     iteration # 10     ecut=    60.00 Ry     beta= 0.50
     Davidson diagonalization with overlap
     ethr =  7.97E-05,  avg # of iterations = 10.8

     negative rho (up, down):  6.310E-01 0.000E+00

     total cpu time spent up to now is     1104.6 secs

     total energy              =  -14924.46679382 Ry
     Harris-Foulkes estimate   =  -14924.50013161 Ry
     estimated scf accuracy    <       0.60113042 Ry

     iteration # 11     ecut=    60.00 Ry     beta= 0.50
     Davidson diagonalization with overlap
     ethr =  3.28E-05,  avg # of iterations = 12.2

     negative rho (up, down):  6.287E-01 0.000E+00

     total cpu time spent up to now is     1249.2 secs

     total energy              =  -14924.46527874 Ry
     Harris-Foulkes estimate   =  -14924.47704081 Ry
     estimated scf accuracy    <       0.31142844 Ry

     iteration # 12     ecut=    60.00 Ry     beta= 0.50
     Davidson diagonalization with overlap
     ethr =  1.70E-05,  avg # of iterations =  9.0

     negative rho (up, down):  6.268E-01 0.000E+00

     total cpu time spent up to now is     1371.1 secs

     total energy              =  -14924.46313718 Ry
     Harris-Foulkes estimate   =  -14924.46878629 Ry
     estimated scf accuracy    <       0.24743194 Ry

     iteration # 13     ecut=    60.00 Ry     beta= 0.50
     Davidson diagonalization with overlap
     ethr =  1.35E-05,  avg # of iterations =  1.8

     negative rho (up, down):  6.245E-01 0.000E+00

     total cpu time spent up to now is     1463.7 secs

     total energy              =  -14924.45661539 Ry
     Harris-Foulkes estimate   =  -14924.46491597 Ry
     estimated scf accuracy    <       0.27072704 Ry

     iteration # 14     ecut=    60.00 Ry     beta= 0.50
     Davidson diagonalization with overlap
     ethr =  1.35E-05,  avg # of iterations =  7.2

     negative rho (up, down):  6.245E-01 0.000E+00

     total cpu time spent up to now is     1576.9 secs

     total energy              =  -14924.45151471 Ry
     Harris-Foulkes estimate   =  -14924.45781932 Ry
     estimated scf accuracy    <       0.23764331 Ry

     iteration # 15     ecut=    60.00 Ry     beta= 0.50
     Davidson diagonalization with overlap
     ethr =  1.30E-05,  avg # of iterations =  9.5

     negative rho (up, down):  6.249E-01 0.000E+00

     total cpu time spent up to now is     1699.2 secs

     total energy              =  -14924.44800679 Ry
     Harris-Foulkes estimate   =  -14924.45231567 Ry
     estimated scf accuracy    <       0.21524366 Ry

     iteration # 16     ecut=    60.00 Ry     beta= 0.50
     Davidson diagonalization with overlap
     ethr =  1.18E-05,  avg # of iterations =  7.0

     negative rho (up, down):  6.787E-01 0.000E+00

     total cpu time spent up to now is     1811.3 secs

     total energy              =  -14924.43542347 Ry
     Harris-Foulkes estimate   =  -14924.44920285 Ry
     estimated scf accuracy    <       0.22067511 Ry

     iteration # 17     ecut=    60.00 Ry     beta= 0.50
     Davidson diagonalization with overlap
     ethr =  1.18E-05,  avg # of iterations = 11.2

     negative rho (up, down):  6.610E-01 0.000E+00

     total cpu time spent up to now is     1952.7 secs

     total energy              =  -14924.43240023 Ry
     Harris-Foulkes estimate   =  -14924.43816160 Ry
     estimated scf accuracy    <       0.16651362 Ry

     iteration # 18     ecut=    60.00 Ry     beta= 0.50
     Davidson diagonalization with overlap
     ethr =  9.10E-06,  avg # of iterations =  5.0

     negative rho (up, down):  7.016E-01 0.000E+00

     total cpu time spent up to now is     2061.0 secs

     total energy              =  -14924.42463610 Ry
     Harris-Foulkes estimate   =  -14924.43375693 Ry
     estimated scf accuracy    <       0.13254298 Ry

     iteration # 19     ecut=    60.00 Ry     beta= 0.50
     Davidson diagonalization with overlap
     ethr =  7.24E-06,  avg # of iterations = 13.2

     negative rho (up, down):  6.990E-01 0.000E+00

     total cpu time spent up to now is     2213.5 secs

     total energy              =  -14924.42600680 Ry
     Harris-Foulkes estimate   =  -14924.42706070 Ry
     estimated scf accuracy    <       0.02824642 Ry

     iteration # 20     ecut=    60.00 Ry     beta= 0.50
     Davidson diagonalization with overlap
     ethr =  1.54E-06,  avg # of iterations = 15.2

     negative rho (up, down):  6.336E-01 0.000E+00

     total cpu time spent up to now is     2367.1 secs

     total energy              =  -14924.42536096 Ry
     Harris-Foulkes estimate   =  -14924.42678312 Ry
     estimated scf accuracy    <       0.01973273 Ry

     iteration # 21     ecut=    60.00 Ry     beta= 0.50
     Davidson diagonalization with overlap
     c_bands:  5 eigenvalues not converged
     c_bands:  3 eigenvalues not converged
     c_bands:  2 eigenvalues not converged
     c_bands:  3 eigenvalues not converged
     ethr =  1.08E-06,  avg # of iterations = 20.0

     negative rho (up, down):  6.378E-01 0.000E+00

     total cpu time spent up to now is     2549.6 secs

     total energy              =  -14924.42571460 Ry
     Harris-Foulkes estimate   =  -14924.42596461 Ry
     estimated scf accuracy    <       0.01556459 Ry

     iteration # 22     ecut=    60.00 Ry     beta= 0.50
     Davidson diagonalization with overlap
     c_bands:  2 eigenvalues not converged
     c_bands:  1 eigenvalues not converged
     ethr =  8.51E-07,  avg # of iterations = 17.8

     negative rho (up, down):  6.460E-01 0.000E+00

     total cpu time spent up to now is     2711.8 secs

     total energy              =  -14924.42559466 Ry
     Harris-Foulkes estimate   =  -14924.42598164 Ry
     estimated scf accuracy    <       0.00402905 Ry

     iteration # 23     ecut=    60.00 Ry     beta= 0.50
     Davidson diagonalization with overlap
     ethr =  2.20E-07,  avg # of iterations = 16.0

     negative rho (up, down):  6.409E-01 0.000E+00

     total cpu time spent up to now is     2868.3 secs

     total energy              =  -14924.42561107 Ry
     Harris-Foulkes estimate   =  -14924.42575783 Ry
     estimated scf accuracy    <       0.00267083 Ry

     iteration # 24     ecut=    60.00 Ry     beta= 0.50
     Davidson diagonalization with overlap
     c_bands:  1 eigenvalues not converged
     c_bands:  2 eigenvalues not converged
     ethr =  1.46E-07,  avg # of iterations = 14.5

     negative rho (up, down):  6.406E-01 0.000E+00

     total cpu time spent up to now is     3013.1 secs

     total energy              =  -14924.42571652 Ry
     Harris-Foulkes estimate   =  -14924.42571639 Ry
     estimated scf accuracy    <       0.00142021 Ry

     iteration # 25     ecut=    60.00 Ry     beta= 0.50
     Davidson diagonalization with overlap
     c_bands:  3 eigenvalues not converged
     c_bands:  1 eigenvalues not converged
     c_bands:  1 eigenvalues not converged
     ethr =  7.76E-08,  avg # of iterations = 17.0

     negative rho (up, down):  6.430E-01 0.000E+00

     total cpu time spent up to now is     3167.6 secs

     total energy              =  -14924.42571124 Ry
     Harris-Foulkes estimate   =  -14924.42577264 Ry
     estimated scf accuracy    <       0.00099456 Ry

     iteration # 26     ecut=    60.00 Ry     beta= 0.50
     Davidson diagonalization with overlap
     c_bands:  1 eigenvalues not converged
     ethr =  5.43E-08,  avg # of iterations =  8.0

     negative rho (up, down):  6.495E-01 0.000E+00

     total cpu time spent up to now is     3282.6 secs

     total energy              =  -14924.42581177 Ry
     Harris-Foulkes estimate   =  -14924.42573950 Ry
     estimated scf accuracy    <       0.00062384 Ry

     iteration # 27     ecut=    60.00 Ry     beta= 0.50
     Davidson diagonalization with overlap
     c_bands:  1 eigenvalues not converged
     ethr =  3.41E-08,  avg # of iterations = 11.0

     negative rho (up, down):  6.490E-01 0.000E+00

     total cpu time spent up to now is     3410.3 secs

     total energy              =  -14924.42579596 Ry
     Harris-Foulkes estimate   =  -14924.42582509 Ry
     estimated scf accuracy    <       0.00032702 Ry

     iteration # 28     ecut=    60.00 Ry     beta= 0.50
     Davidson diagonalization with overlap
     ethr =  1.79E-08,  avg # of iterations =  1.0

     negative rho (up, down):  6.417E-01 0.000E+00

     total cpu time spent up to now is     3501.5 secs

     total energy              =  -14924.42568815 Ry
     Harris-Foulkes estimate   =  -14924.42580486 Ry
     estimated scf accuracy    <       0.00028949 Ry

     iteration # 29     ecut=    60.00 Ry     beta= 0.50
     Davidson diagonalization with overlap
     c_bands:  1 eigenvalues not converged
     ethr =  1.58E-08,  avg # of iterations = 10.2

     negative rho (up, down):  6.396E-01 0.000E+00

     total cpu time spent up to now is     3625.9 secs

     total energy              =  -14924.42567182 Ry
     Harris-Foulkes estimate   =  -14924.42569860 Ry
     estimated scf accuracy    <       0.00015844 Ry

     iteration # 30     ecut=    60.00 Ry     beta= 0.50
     Davidson diagonalization with overlap
     ethr =  8.66E-09,  avg # of iterations =  1.0

     negative rho (up, down):  6.402E-01 0.000E+00

     total cpu time spent up to now is     3716.0 secs

     total energy              =  -14924.42567651 Ry
     Harris-Foulkes estimate   =  -14924.42567579 Ry
     estimated scf accuracy    <       0.00014102 Ry

     iteration # 31     ecut=    60.00 Ry     beta= 0.50
     Davidson diagonalization with overlap
     ethr =  7.71E-09,  avg # of iterations =  1.5

     negative rho (up, down):  6.387E-01 0.000E+00

     total cpu time spent up to now is     3808.9 secs

     total energy              =  -14924.42567214 Ry
     Harris-Foulkes estimate   =  -14924.42567916 Ry
     estimated scf accuracy    <       0.00004941 Ry

     iteration # 32     ecut=    60.00 Ry     beta= 0.50
     Davidson diagonalization with overlap
     ethr =  2.70E-09,  avg # of iterations =  1.0

     negative rho (up, down):  6.370E-01 0.000E+00

     total cpu time spent up to now is     3900.3 secs

     total energy              =  -14924.42566733 Ry
     Harris-Foulkes estimate   =  -14924.42567315 Ry
     estimated scf accuracy    <       0.00002509 Ry

     iteration # 33     ecut=    60.00 Ry     beta= 0.50
     Davidson diagonalization with overlap
     ethr =  1.37E-09,  avg # of iterations =  2.0

     negative rho (up, down):  6.364E-01 0.000E+00

     total cpu time spent up to now is     3994.2 secs

     total energy              =  -14924.42566418 Ry
     Harris-Foulkes estimate   =  -14924.42566867 Ry
     estimated scf accuracy    <       0.00003217 Ry

     iteration # 34     ecut=    60.00 Ry     beta= 0.50
     Davidson diagonalization with overlap
     ethr =  1.37E-09,  avg # of iterations =  1.0

     negative rho (up, down):  6.357E-01 0.000E+00

     total cpu time spent up to now is     4086.2 secs

     total energy              =  -14924.42566332 Ry
     Harris-Foulkes estimate   =  -14924.42566463 Ry
     estimated scf accuracy    <       0.00000955 Ry

     iteration # 35     ecut=    60.00 Ry     beta= 0.50
     Davidson diagonalization with overlap
     ethr =  5.22E-10,  avg # of iterations =  2.0

     negative rho (up, down):  6.357E-01 0.000E+00

     total cpu time spent up to now is     4181.0 secs

     total energy              =  -14924.42566344 Ry
     Harris-Foulkes estimate   =  -14924.42566369 Ry
     estimated scf accuracy    <       0.00000539 Ry

     iteration # 36     ecut=    60.00 Ry     beta= 0.50
     Davidson diagonalization with overlap
     ethr =  2.94E-10,  avg # of iterations =  1.0

     negative rho (up, down):  6.356E-01 0.000E+00

     total cpu time spent up to now is     4273.0 secs

     total energy              =  -14924.42566353 Ry
     Harris-Foulkes estimate   =  -14924.42566362 Ry
     estimated scf accuracy    <       0.00000266 Ry

     iteration # 37     ecut=    60.00 Ry     beta= 0.50
     Davidson diagonalization with overlap
     ethr =  1.45E-10,  avg # of iterations =  1.8

     negative rho (up, down):  6.356E-01 0.000E+00

     total cpu time spent up to now is     4367.6 secs

     total energy              =  -14924.42566356 Ry
     Harris-Foulkes estimate   =  -14924.42566365 Ry
     estimated scf accuracy    <       0.00000054 Ry

     iteration # 38     ecut=    60.00 Ry     beta= 0.50
     Davidson diagonalization with overlap
     ethr =  2.92E-11,  avg # of iterations =  3.0

     negative rho (up, down):  6.355E-01 0.000E+00

     total cpu time spent up to now is     4467.0 secs

     total energy              =  -14924.42566367 Ry
     Harris-Foulkes estimate   =  -14924.42566362 Ry
     estimated scf accuracy    <       0.00000041 Ry

     iteration # 39     ecut=    60.00 Ry     beta= 0.50
     Davidson diagonalization with overlap
     ethr =  2.26E-11,  avg # of iterations =  1.0

     negative rho (up, down):  6.355E-01 0.000E+00

     total cpu time spent up to now is     4558.0 secs

     total energy              =  -14924.42566376 Ry
     Harris-Foulkes estimate   =  -14924.42566368 Ry
     estimated scf accuracy    <       0.00000015 Ry

     iteration # 40     ecut=    60.00 Ry     beta= 0.50
     Davidson diagonalization with overlap
     ethr =  8.02E-12,  avg # of iterations =  2.0

     negative rho (up, down):  6.354E-01 0.000E+00

     total cpu time spent up to now is     4653.6 secs

     total energy              =  -14924.42566385 Ry
     Harris-Foulkes estimate   =  -14924.42566377 Ry
     estimated scf accuracy    <       0.00000009 Ry

     iteration # 41     ecut=    60.00 Ry     beta= 0.50
     Davidson diagonalization with overlap
     ethr =  4.80E-12,  avg # of iterations =  1.2

     negative rho (up, down):  6.354E-01 0.000E+00

     total cpu time spent up to now is     4747.4 secs

     total energy              =  -14924.42566389 Ry
     Harris-Foulkes estimate   =  -14924.42566386 Ry
     estimated scf accuracy    <       0.00000003 Ry

     iteration # 42     ecut=    60.00 Ry     beta= 0.50
     Davidson diagonalization with overlap
     ethr =  1.76E-12,  avg # of iterations =  2.0

     negative rho (up, down):  6.353E-01 0.000E+00

     total cpu time spent up to now is     4839.9 secs

     End of self-consistent calculation

          k = 0.0000 0.0000 0.0000 (283521 PWs)   bands (ev):

   -38.0913 -38.0648 -38.0619 -38.0572 -38.0563 -38.0443 -38.0390 -37.8393
   -37.7908 -37.7870 -37.7821 -37.7809 -37.7723 -37.7662 -35.6302 -35.2838
   -23.9139 -23.6173 -23.5990 -23.5112 -23.4967 -23.4381 -23.4006 -23.1651
   -22.7411 -22.7199 -22.6304 -22.6155 -22.6115 -22.6090 -22.5982 -22.5960
   -22.5949 -22.5933 -22.5909 -22.5779 -22.5748 -22.5740 -22.5568 -22.5141
   -22.4955 -22.4920 -22.4859 -22.4707 -22.4523 -22.3280 -22.3121 -22.2188
   -18.6746 -18.6362 -18.5907 -18.5881 -18.5577 -18.4147 -18.4041 -18.3914
   -18.3898 -18.3866 -18.3835 -18.3767 -18.3748 -18.3729 -18.3643 -18.3632
   -18.3543 -18.3457 -18.3401 -18.3156 -18.2902 -18.1900 -18.1860 -18.1653
   -18.1456 -18.1313 -18.1283 -18.1204 -18.1073 -18.0979 -18.0898 -18.0671
   -18.0666 -18.0653 -18.0597 -18.0591 -18.0397 -17.9421 -17.9304 -17.8576
   -17.8097 -17.7960 -16.8895 -16.8607 -16.8526 -16.5324 -16.5311 -16.5103
   -15.4217 -15.2004 -14.8841 -14.8300 -14.7901 -14.7814 -14.7468 -14.7364
   -14.7284 -14.7232 -14.6959 -14.6757 -14.6473 -14.6406 -14.6327 -14.6270
   -14.6134 -14.5900 -14.5662 -14.5531 -14.5412 -14.5354 -14.5347 -14.5246
   -14.4901 -14.4856 -14.4840 -14.4829 -14.4799 -14.4640 -14.4561 -14.4525
   -14.4427 -14.3955 -14.3506 -14.3502 -14.3495 -14.3472 -14.3433 -14.3335
   -14.3308 -14.3107 -14.3088 -14.2882 -14.2785 -14.2699 -14.2545 -14.2477
   -14.2415 -14.2371 -14.2213 -14.2139 -14.1930 -14.1859 -14.1841 -14.1770
   -14.1769 -14.1495 -14.1376 -14.1267 -14.1189 -14.1173 -14.0939 -14.0741
   -14.0651 -14.0559 -14.0496 -14.0454 -14.0388 -14.0346 -14.0162 -14.0040
   -13.9897 -13.9793 -13.9732 -13.9727 -13.9227 -13.9116 -13.8985 -13.8692
   -13.8272 -13.7904 -13.7704 -13.7642 -13.7623 -13.7558 -13.7378 -13.7338
   -13.7291 -13.7282 -13.7273 -13.7268 -13.7264 -13.7257 -13.7245 -13.7235
   -13.7233 -13.7168 -13.7108 -13.7011 -13.6738 -13.6723 -13.6696 -13.6676
   -13.6655 -13.6567 -13.6533 -13.6446 -13.6278 -13.6242 -13.6105 -13.5920
   -13.5907 -13.5752 -13.5502 -13.5409 -13.4814 -13.4497 -13.4275 -13.4259
    -9.4714  -9.2800  -9.1993  -8.9700  -8.9658  -8.9482  -8.9298  -8.9120
    -8.8971  -8.8595  -8.8205  -8.7516  -8.7112  -8.7000  -8.6789  -8.5970
    -8.5533  -8.4799  -8.4739  -8.4698  -8.4128  -8.3932  -8.3881  -8.3490
    -8.3137  -8.2937  -8.2514  -8.1900  -8.1862  -8.1741  -8.1695  -8.1683
    -8.1656  -8.1654  -8.1625  -8.1538  -8.1422  -8.0602  -7.9815  -7.9749
    -7.9577  -7.9573  -7.9566  -7.9548  -7.9499  -7.9426  -7.9389  -7.9300
    -7.9193  -7.9189  -7.9138  -7.9114  -7.9079  -7.9045  -7.9028  -7.8885
    -7.8851  -7.8813  -7.8674  -7.8534  -7.8417  -7.8369  -7.8203  -7.8157
    -7.7950  -7.7391  -7.7192  -7.6983  -7.6919  -7.6890  -7.6777  -7.6553
    -7.5883  -7.5852  -7.5844  -7.5644  -7.5638  -7.5631  -7.5576  -7.5490
    -7.5429  -7.5374  -7.5337  -7.5296  -7.4812  -7.4492  -7.4426  -7.4302
    -7.4281  -7.4101  -7.3899  -7.3700  -7.3304  -7.3150  -7.2366  -7.1801
    -4.1694  -4.0282  -3.6214  -3.2919  -3.2201  -3.1537  -3.1217  -3.0763
    -3.0332  -3.0254  -3.0252  -2.9600  -2.9437  -2.9181  -2.9109  -2.9066
    -2.9002  -2.8952  -2.8577  -2.8399  -2.8366  -2.7627  -2.7626  -2.7622
    -2.6588  -2.6473  -2.6463  -2.6416  -2.6372  -2.4785  -2.4443  -2.4120
    -2.3920  -2.3248  -2.3243  -2.3097  -2.3010  -2.2991  -2.2968  -2.2913
    -2.2905  -2.2685  -2.2433  -2.1826  -2.1642  -2.1560  -2.1549  -2.1498
    -2.1346  -2.1254  -2.1165  -2.0602  -2.0555  -2.0548  -2.0484  -2.0448
    -1.9972  -1.9876  -1.9852  -1.9802  -1.9781  -1.9726  -1.9700  -1.9682
    -1.9658  -1.9634  -1.9615  -1.9593  -1.9566  -1.9542  -1.8755  -1.8747
    -1.8684  -1.8618  -1.8575  -1.8570  -1.8502  -1.8142  -1.8102  -1.8091
    -1.8082  -1.7957  -1.7935  -1.7750  -1.7741  -1.7741  -1.7734  -1.7704
    -1.7701  -1.7699  -1.7686  -1.7684  -1.7668  -1.7656  -1.7574  -1.7540
    -1.7305  -1.7190  -1.7187  -1.7160  -1.7097  -1.6903  -1.6420  -1.6311
    -1.6241  -1.6197  -1.5750  -1.5093  -1.4924  -1.4817  -1.4816  -1.4725
    -1.4724  -1.4613  -1.4112  -1.4082  -1.3948  -1.3931  -1.3890  -1.3725
    -1.3670  -1.3632  -1.3629  -1.3543  -1.3537  -1.3482  -1.3439  -1.3106
    -1.3058  -1.3041  -1.2824  -1.2800  -1.2768  -1.2763  -1.2725  -1.2170
    -1.2049  -1.1968  -1.1863  -1.1815  -1.1653  -1.1600  -1.1337  -1.1285
    -1.0918  -1.0896  -1.0539  -1.0390  -1.0280  -1.0113  -1.0077  -0.9940
    -0.9906  -0.9545  -0.9531  -0.9388  -0.9332  -0.9287  -0.9243  -0.8627
    -0.8576  -0.8549  -0.8517  -0.8437  -0.8387  -0.8372  -0.8228  -0.8192
    -0.8127  -0.7795  -0.7790  -0.7701  -0.7698  -0.7674  -0.7531  -0.7518
    -0.7411  -0.7321  -0.7256  -0.7249  -0.7117  -0.7051  -0.6965  -0.6908
    -0.6751  -0.6738  -0.6704  -0.6633  -0.6577  -0.6554  -0.6429  -0.6324
    -0.6134  -0.6078  -0.6032  -0.5950  -0.5905  -0.5625  -0.5543  -0.5477
    -0.5448  -0.5423  -0.5398  -0.5393  -0.5392  -0.5340  -0.5322  -0.5245
    -0.5188  -0.5077  -0.5063  -0.4736  -0.4717  -0.4686  -0.4666  -0.4091
    -0.4085  -0.4083  -0.4077  -0.4045  -0.3841  -0.3835  -0.3740  -0.3507
    -0.3443  -0.3361  -0.3275  -0.3202  -0.3054  -0.2628  -0.2560  -0.2490
    -0.2449  -0.2274  -0.2273  -0.2144  -0.2093  -0.1999  -0.1878  -0.1862
    -0.1849  -0.1849  -0.1783  -0.1700  -0.1683  -0.1665  -0.1623  -0.1621
    -0.1423  -0.1244  -0.1115  -0.1023  -0.1002  -0.0978  -0.0816  -0.0768
    -0.0739  -0.0687  -0.0561  -0.0545  -0.0498  -0.0439  -0.0278  -0.0270
    -0.0175  -0.0151   0.0032   0.0237   0.0383   0.0447   0.0449   0.0482
     0.0512   0.0628   0.0813   0.0858   0.0917   0.1071   0.1118   0.1121
     0.1168   0.1271   0.1293   0.1324   0.1340   0.1375   0.1509   0.1953
     0.2069   0.2126   0.2635   0.2803   0.2849   0.3127   0.3337   0.3412
     0.3451   0.3589   0.3597   0.3605   0.3624   0.3682   0.3706   0.3746
     0.3810   0.3843   0.3856   0.3869   0.3926   0.3944   0.4359   0.4448
     0.4461   0.4464   0.4765   0.4783   0.4783   0.5191   0.5211   0.5252
     0.5268   0.5292   0.5315   0.5412   0.5552   0.5617   0.5646   0.5663
     0.5702   0.5835   0.5869   0.5934   0.6140   0.6229   0.6331   0.6358
     0.6407   0.6590   0.6619   0.6675   0.6794   0.6808   0.6822   0.6877
     0.6888   0.6897   0.6911   0.6969   0.6983   0.7071   0.7207   0.7404
     0.7588   0.7593   0.7610   0.7622   0.7721   0.7802   0.7815   0.7824
     0.7869   0.7989   0.7996   0.8053   0.8099   0.8111   0.8168   0.8350
     0.8574   0.8689   0.8737   0.8785   0.8895   0.9038   0.9091   0.9095
     0.9222   0.9487   0.9657   1.0133   1.0269   1.0601   1.0763   1.0841
     1.0913   1.1093   1.1116   1.1180   1.1314   1.1315   1.1677   1.1751
     1.2125   1.2155   1.2160   1.2186   1.2210   1.2273   1.2282   1.2299
     1.2305   1.2343   1.2384   1.2530   1.2742   1.2797   1.2913   1.2983
     1.3026   1.3093   1.3132   1.3133   1.3177   1.3201   1.3330   1.3337
     1.3419   1.3436   1.3575   1.3577   1.3579   1.3600   1.3620   1.3635
     1.3644   1.3669   1.3729   1.3745   1.3753   1.3773   1.3812   1.3915
     1.3950   1.3972   1.3984   1.4056   1.4123   1.4244   1.4334   1.4384
     1.4537   1.4572   1.4619   1.4725   1.4776   1.4784   1.4810   1.4863
     1.4882   1.4908   1.4966   1.5038   1.5089   1.5134   1.5183   1.5229
     1.5241   1.5268   1.5296   1.5320   1.5410   1.5460   1.5489   1.5505
     1.5651   1.5658   1.5677   1.5681   1.5734   1.5741   1.5755   1.5782
     1.5802   1.5891   1.6060   1.6098   1.6103   1.6277   1.6317   1.6378
     1.6430   1.6637   1.6704   1.6726   1.6853   1.6917   1.6987   1.6990
     1.7106   1.7282   1.7337   1.7457   1.7531   1.7561   1.7605   1.7643
     1.7690   1.7694   1.7767   1.7778   1.8155   1.8189   1.8199   1.8230
     1.8393   1.8419   1.8508   1.8520   1.8539   1.8562   1.8586   1.8607
     1.8630   1.8728   1.8845   1.8859   1.9185   1.9322   1.9326   1.9436
     1.9476   1.9529   1.9544   1.9587   1.9776   1.9794   1.9848   1.9868
     1.9871   1.9889   1.9918   2.0061   2.0102   2.0110   2.0138   2.0369
     2.0448   2.0452   2.0461   2.0547   2.0549   2.0561   2.0566   2.0667
     2.0683   2.1003   2.1030   2.1164   2.1184   2.1256   2.1441   2.1456
     2.1475   2.1512   2.1521   2.1524   2.1528   2.1573   2.1577   2.1759
     2.1826   2.1872   2.1995   2.2046   2.2062   2.2285   2.2504   2.2534
     2.2677   2.2713   2.2984   2.3015   2.3046   2.3324   2.3504   2.3523
     2.3646   2.3767   2.4052   2.4062   2.4570   2.4742   2.5016   2.5021
     2.5194   2.5202   2.5206   2.5426   2.5427   2.5435   2.5589   2.5854
     2.6595   2.6635   2.6639   2.6663   2.6715   2.7056   2.8331   2.8335
     2.9452   2.9687   2.9860   2.9928   3.1049   3.1102   3.2444   3.2501
     3.2517   3.2562   3.2567   3.2589   3.2606   3.2631   3.3602   3.3922
     3.4004   3.4029   3.4098   3.4383   3.4461   3.4556   3.5557   3.5743
     3.5917   3.6009   3.6119   3.6976   3.7117   3.7427   3.7502   3.7578
     3.8262   3.8402   4.3067   4.4194   4.8102   4.8500   4.8861   4.9419
     5.0300   5.1593   5.2984   5.3430   5.7092   5.8514   5.8564   5.8671
     5.9292   6.1011   6.1800   6.2165   6.3717   6.3824   6.4103   6.4626
     6.5023   6.5352   6.5628   6.5988   6.6709   6.6791   6.7029   6.7054
     6.7108   6.7128   6.7148   6.7149   6.7220   6.7224   6.7243   6.7290
     6.7816   7.1405   7.1506   7.1533   7.2207   7.2477   7.3414   7.3440
     7.3441   7.3499   7.3641   7.3771   7.3957   7.4395   7.4396   7.4411
     7.4462   7.4641   7.4904   7.4975   7.5382   7.5706   7.6582   7.6733
     7.6809   7.7310   7.7581   7.7763   7.8195   7.9474   7.9572   7.9671
     7.9805   7.9927   8.0249   8.0302   8.0391   8.0778   8.1191   8.1458
     8.1529   8.1773   8.1994   8.2262   8.3425   8.3509   8.3530   8.3569
     8.3696   8.3705   8.3743   8.3770   8.3803   8.3879   8.3921   8.3942
     8.3952   8.4119   8.4515   8.4699   8.5062   8.6442   8.6557   8.6626
     8.6898   8.6924   8.6999   8.7107   8.7309   8.7389   8.8015   8.8240
     8.8271   8.8321   8.8360   8.8400   8.8547   8.9044   8.9045   8.9127
     8.9142   8.9388   8.9454   8.9495   8.9722   8.9838   9.0175   9.0199
     9.0362   9.0433   9.0644   9.0703   9.0723   9.1116   9.1168   9.1258
     9.1407   9.1542   9.1642   9.1797   9.1876   9.1911   9.1990   9.2144
     9.2204   9.2274   9.2353   9.2412   9.2702   9.2754   9.2825   9.2954
     9.2997   9.3092

          k = 0.2326 0.2390 0.0000 (283505 PWs)   bands (ev):

   -38.0913 -38.0643 -38.0627 -38.0572 -38.0566 -38.0427 -38.0401 -37.8393
   -37.7900 -37.7880 -37.7821 -37.7815 -37.7703 -37.7674 -35.6302 -35.2838
   -23.9136 -23.6146 -23.6018 -23.5098 -23.5035 -23.4260 -23.4074 -23.1651
   -22.7229 -22.7017 -22.6747 -22.6534 -22.6199 -22.6160 -22.5981 -22.5950
   -22.5909 -22.5864 -22.5821 -22.5698 -22.5610 -22.5466 -22.5406 -22.5254
   -22.5063 -22.4923 -22.4850 -22.4730 -22.4559 -22.3280 -22.3080 -22.2207
   -18.6399 -18.6046 -18.5882 -18.5639 -18.5561 -18.5366 -18.5037 -18.4727
   -18.3921 -18.3844 -18.3805 -18.3675 -18.3657 -18.3558 -18.3519 -18.3374
   -18.3129 -18.2768 -18.2747 -18.2665 -18.2514 -18.2406 -18.2232 -18.1891
   -18.1850 -18.1770 -18.1700 -18.1301 -18.1129 -18.1100 -18.1065 -18.0872
   -18.0574 -18.0455 -17.9813 -17.9679 -17.9645 -17.9364 -17.9224 -17.8820
   -17.8555 -17.8443 -16.8897 -16.8626 -16.8541 -16.5345 -16.5324 -16.5105
   -15.3212 -15.1068 -15.0524 -14.8646 -14.8343 -14.7921 -14.7514 -14.7461
   -14.7373 -14.7245 -14.7185 -14.6676 -14.6567 -14.6524 -14.6430 -14.6252
   -14.6243 -14.5913 -14.5822 -14.5658 -14.5517 -14.5300 -14.5182 -14.4950
   -14.4869 -14.4759 -14.4581 -14.4471 -14.4451 -14.4264 -14.4208 -14.4064
   -14.4055 -14.3826 -14.3813 -14.3633 -14.3594 -14.3585 -14.3517 -14.3286
   -14.3236 -14.3130 -14.3052 -14.2899 -14.2888 -14.2841 -14.2683 -14.2620
   -14.2553 -14.2500 -14.2447 -14.2367 -14.2148 -14.1921 -14.1855 -14.1771
   -14.1681 -14.1442 -14.1261 -14.1228 -14.1165 -14.0968 -14.0952 -14.0832
   -14.0658 -14.0622 -14.0603 -14.0467 -14.0300 -14.0228 -14.0197 -13.9764
   -13.9724 -13.9545 -13.9418 -13.9248 -13.9199 -13.8844 -13.8672 -13.8573
   -13.8173 -13.7950 -13.7871 -13.7756 -13.7730 -13.7682 -13.7676 -13.7635
   -13.7521 -13.7504 -13.7484 -13.7357 -13.7356 -13.7278 -13.7248 -13.7136
   -13.7104 -13.7034 -13.6912 -13.6890 -13.6856 -13.6835 -13.6805 -13.6664
   -13.6622 -13.6615 -13.6588 -13.6446 -13.6267 -13.6101 -13.6083 -13.5900
   -13.5882 -13.5625 -13.5603 -13.5300 -13.5245 -13.4678 -13.4665 -13.4328
    -9.3776  -9.2835  -9.1503  -9.0772  -8.9712  -8.9543  -8.8752  -8.8635
    -8.8332  -8.7803  -8.7441  -8.7291  -8.7091  -8.6901  -8.6133  -8.5927
    -8.5718  -8.5209  -8.4766  -8.4121  -8.3989  -8.3965  -8.3759  -8.3647
    -8.3443  -8.3127  -8.2932  -8.2762  -8.2735  -8.1766  -8.1688  -8.0862
    -8.0849  -8.0644  -8.0489  -8.0289  -8.0078  -7.9818  -7.9789  -7.9594
    -7.9572  -7.9559  -7.9435  -7.9333  -7.9315  -7.9299  -7.9280  -7.9143
    -7.9103  -7.9102  -7.9077  -7.9038  -7.9023  -7.8977  -7.8897  -7.8866
    -7.8812  -7.8755  -7.8716  -7.8668  -7.8647  -7.8585  -7.8579  -7.8521
    -7.8318  -7.7845  -7.7787  -7.7584  -7.7313  -7.7247  -7.7099  -7.6833
    -7.6672  -7.6565  -7.6470  -7.6269  -7.6066  -7.5913  -7.5785  -7.5605
    -7.5581  -7.5412  -7.5209  -7.5170  -7.4993  -7.4966  -7.4882  -7.4791
    -7.4711  -7.4680  -7.4237  -7.3834  -7.3507  -7.3004  -7.2754  -7.2207
    -4.0088  -3.8699  -3.5747  -3.4760  -3.4431  -3.1510  -3.1467  -3.0968
    -3.0911  -3.0865  -3.0817  -2.9982  -2.9803  -2.9568  -2.9318  -2.8817
    -2.8601  -2.8531  -2.8157  -2.7616  -2.7366  -2.7275  -2.7262  -2.7142
    -2.7057  -2.6598  -2.6597  -2.6589  -2.6027  -2.4809  -2.4760  -2.4086
    -2.4047  -2.4008  -2.3989  -2.3814  -2.3677  -2.3663  -2.3608  -2.3588
    -2.3182  -2.3042  -2.2833  -2.2599  -2.2188  -2.2063  -2.1360  -2.1263
    -2.0773  -2.0711  -2.0688  -2.0492  -2.0334  -2.0187  -2.0154  -2.0056
    -2.0031  -1.9925  -1.9839  -1.9766  -1.9688  -1.9574  -1.9512  -1.9464
    -1.9336  -1.9318  -1.9275  -1.8987  -1.8975  -1.8821  -1.8755  -1.8702
    -1.8671  -1.8617  -1.8612  -1.8610  -1.8506  -1.8503  -1.8469  -1.8380
    -1.8249  -1.8237  -1.8153  -1.8024  -1.7893  -1.7881  -1.7836  -1.7706
    -1.7616  -1.7528  -1.7451  -1.7361  -1.7332  -1.7242  -1.7207  -1.7082
    -1.6994  -1.6865  -1.6714  -1.6643  -1.6538  -1.6484  -1.6181  -1.6149
    -1.6050  -1.5653  -1.5626  -1.5468  -1.5405  -1.5319  -1.5043  -1.4961
    -1.4918  -1.4809  -1.4301  -1.4288  -1.4266  -1.3971  -1.3965  -1.3823
    -1.3682  -1.3636  -1.3423  -1.3413  -1.3285  -1.3118  -1.3108  -1.3030
    -1.2944  -1.2880  -1.2875  -1.2766  -1.2706  -1.2649  -1.2570  -1.2503
    -1.2269  -1.2191  -1.1702  -1.1585  -1.1381  -1.1189  -1.0824  -1.0699
    -1.0614  -1.0502  -1.0386  -1.0249  -1.0204  -1.0021  -0.9818  -0.9629
    -0.9436  -0.9358  -0.9281  -0.9100  -0.9014  -0.8989  -0.8699  -0.8675
    -0.8579  -0.8554  -0.8433  -0.8163  -0.8123  -0.8045  -0.7909  -0.7823
    -0.7737  -0.7729  -0.7700  -0.7662  -0.7647  -0.7586  -0.7533  -0.7526
    -0.7470  -0.7290  -0.7245  -0.7156  -0.7147  -0.7030  -0.6931  -0.6864
    -0.6826  -0.6746  -0.6736  -0.6620  -0.6572  -0.6322  -0.6272  -0.6115
    -0.6061  -0.6060  -0.6033  -0.5983  -0.5901  -0.5818  -0.5707  -0.5670
    -0.5643  -0.5374  -0.5271  -0.5255  -0.5220  -0.5060  -0.5006  -0.4973
    -0.4900  -0.4858  -0.4823  -0.4785  -0.4607  -0.4469  -0.4321  -0.4277
    -0.4132  -0.4068  -0.3997  -0.3931  -0.3821  -0.3782  -0.3757  -0.3755
    -0.3743  -0.3651  -0.3590  -0.3527  -0.3397  -0.3341  -0.3312  -0.3206
    -0.3146  -0.3037  -0.2972  -0.2849  -0.2648  -0.2575  -0.2528  -0.2371
    -0.2344  -0.2176  -0.2047  -0.1982  -0.1875  -0.1860  -0.1685  -0.1523
    -0.1428  -0.1390  -0.1273  -0.1143  -0.1079  -0.0961  -0.0848  -0.0830
    -0.0730  -0.0669  -0.0351  -0.0258  -0.0126  -0.0082   0.0060   0.0117
     0.0248   0.0443   0.0519   0.0618   0.0683   0.0710   0.0728   0.0744
     0.0868   0.1057   0.1093   0.1276   0.1400   0.1487   0.1523   0.1558
     0.1842   0.1913   0.1940   0.2035   0.2308   0.2372   0.2426   0.2533
     0.2662   0.2767   0.2785   0.2837   0.3134   0.3250   0.3391   0.3446
     0.3500   0.3594   0.3606   0.3677   0.3750   0.3756   0.3829   0.3848
     0.4082   0.4202   0.4287   0.4406   0.4428   0.4455   0.4558   0.4592
     0.4613   0.4638   0.4758   0.4802   0.4826   0.4863   0.4939   0.4964
     0.5024   0.5125   0.5149   0.5153   0.5292   0.5313   0.5408   0.5541
     0.5623   0.5669   0.5685   0.5788   0.5806   0.5951   0.6018   0.6135
     0.6155   0.6322   0.6341   0.6360   0.6375   0.6412   0.6481   0.6507
     0.6544   0.6599   0.6699   0.6847   0.6864   0.6889   0.6958   0.7046
     0.7111   0.7179   0.7421   0.7520   0.7740   0.7773   0.7903   0.7986
     0.8019   0.8121   0.8173   0.8275   0.8296   0.8392   0.8454   0.8502
     0.8900   0.8978   0.9135   0.9402   0.9493   0.9697   0.9709   0.9779
     0.9790   0.9905   0.9923   1.0159   1.0219   1.0229   1.0318   1.0401
     1.0520   1.0644   1.0680   1.0783   1.0904   1.1132   1.1220   1.1267
     1.1349   1.1442   1.1489   1.1645   1.1700   1.1843   1.1890   1.1956
     1.2043   1.2091   1.2210   1.2220   1.2248   1.2306   1.2326   1.2360
     1.2409   1.2442   1.2501   1.2540   1.2702   1.2795   1.2840   1.3031
     1.3106   1.3172   1.3199   1.3208   1.3292   1.3398   1.3455   1.3516
     1.3557   1.3625   1.3675   1.3774   1.3798   1.3839   1.3864   1.3920
     1.3969   1.4019   1.4124   1.4185   1.4201   1.4257   1.4282   1.4384
     1.4400   1.4442   1.4487   1.4502   1.4546   1.4593   1.4604   1.4723
     1.4764   1.4856   1.4895   1.4940   1.4950   1.5032   1.5057   1.5129
     1.5200   1.5233   1.5284   1.5302   1.5360   1.5450   1.5463   1.5536
     1.5700   1.5803   1.5895   1.5975   1.6049   1.6067   1.6163   1.6177
     1.6210   1.6237   1.6309   1.6335   1.6347   1.6389   1.6472   1.6704
     1.6706   1.6738   1.6772   1.6778   1.6892   1.6897   1.7037   1.7054
     1.7156   1.7274   1.7297   1.7331   1.7354   1.7451   1.7596   1.7689
     1.7751   1.7780   1.7850   1.7874   1.7936   1.8021   1.8163   1.8192
     1.8257   1.8296   1.8362   1.8420   1.8506   1.8529   1.8611   1.8624
     1.8764   1.8781   1.8836   1.8973   1.9016   1.9055   1.9138   1.9169
     1.9172   1.9213   1.9228   1.9242   1.9331   1.9348   1.9378   1.9490
     1.9524   1.9581   1.9586   1.9702   1.9875   1.9908   1.9935   2.0032
     2.0087   2.0169   2.0175   2.0322   2.0418   2.0465   2.0478   2.0562
     2.0772   2.0868   2.0881   2.0968   2.1071   2.1116   2.1230   2.1248
     2.1435   2.1549   2.1615   2.1768   2.1780   2.2125   2.2256   2.2361
     2.2368   2.2475   2.2503   2.2653   2.2761   2.2800   2.3014   2.3099
     2.3237   2.3444   2.3470   2.3497   2.3835   2.3875   2.3892   2.3945
     2.4100   2.4164   2.4424   2.4552   2.4908   2.4928   2.5030   2.5034
     2.5243   2.5821   2.5827   2.6006   2.6059   2.6366   2.7387   2.7475
     2.7479   2.7584   2.7643   2.7768   2.8216   2.8386   2.8469   2.8561
     2.8840   2.9148   2.9706   3.0332   3.0666   3.0932   3.0953   3.1012
     3.1029   3.1047   3.1158   3.1201   3.1228   3.1612   3.1879   3.1976
     3.2076   3.2080   3.2259   3.2352   3.2489   3.2609   3.2676   3.3003
     3.3766   3.4347   3.4676   3.5531   4.0449   4.0545   4.0956   4.1056
     4.1829   4.2750   4.3317   4.3496   4.5940   4.6322   4.6778   4.8270
     5.1412   5.3352   5.5474   5.5623   5.6079   5.8057   5.9286   6.0904
     6.0932   6.1006   6.1276   6.1456   6.1477   6.2354   6.3959   6.4399
     6.4624   6.4646   6.4940   6.5748   6.5948   6.5995   6.6202   6.6280
     6.6335   6.6408   6.6599   6.7440   6.7857   6.8522   6.8880   6.8949
     6.9251   6.9659   7.0054   7.0102   7.0607   7.0970   7.1179   7.1593
     7.2485   7.2820   7.3404   7.3984   7.4246   7.4732   7.4930   7.5175
     7.5212   7.5755   7.5939   7.6092   7.6229   7.6487   7.6537   7.6716
     7.6772   7.7135   7.7441   7.7912   7.7994   7.8610   7.8871   7.9005
     7.9401   7.9581   7.9851   7.9965   8.0228   8.0543   8.0641   8.0866
     8.1285   8.1472   8.1487   8.1901   8.1921   8.2323   8.2682   8.2713
     8.2916   8.2960   8.3226   8.3329   8.3554   8.3567   8.4247   8.4321
     8.4995   8.5183   8.5254   8.5457   8.5481   8.5802   8.5899   8.6686
     8.6873   8.7173   8.7304   8.7375   8.7491   8.7647   8.7726   8.8015
     8.8257   8.8402   8.8482   8.8539   8.8894   8.8926   8.9262   8.9364
     8.9457   8.9519   8.9654   8.9756   8.9874   9.0029   9.0206   9.0260
     9.0392   9.0704   9.0780   9.0805   9.1046   9.1342   9.1372   9.1776
     9.1849   9.2019   9.2124   9.2126   9.2297   9.2398   9.2601   9.2699
     9.2874   9.2999   9.3223   9.3386   9.3694   9.3737   9.3935   9.3956
     9.4216   9.4308

          k = 0.0000 0.4779 0.0000 (283453 PWs)   bands (ev):

   -38.0913 -38.0644 -38.0626 -38.0583 -38.0556 -38.0418 -38.0410 -37.8393
   -37.7898 -37.7881 -37.7832 -37.7805 -37.7694 -37.7683 -35.6302 -35.2838
   -23.9134 -23.6175 -23.5962 -23.5255 -23.4906 -23.4253 -23.4081 -23.1651
   -22.7036 -22.6824 -22.6738 -22.6633 -22.6526 -22.6419 -22.6270 -22.6058
   -22.5773 -22.5768 -22.5561 -22.5498 -22.5464 -22.5433 -22.5287 -22.5220
   -22.5213 -22.5038 -22.5000 -22.4754 -22.4474 -22.3254 -22.3085 -22.2213
   -18.6353 -18.6301 -18.5943 -18.5634 -18.5380 -18.5353 -18.4843 -18.4472
   -18.3905 -18.3840 -18.3800 -18.3748 -18.3744 -18.3686 -18.3496 -18.3444
   -18.3220 -18.2981 -18.2749 -18.2534 -18.2417 -18.2356 -18.2118 -18.1894
   -18.1801 -18.1773 -18.1504 -18.1352 -18.1197 -18.1194 -18.1081 -18.0956
   -18.0676 -18.0598 -17.9964 -17.9726 -17.9471 -17.9402 -17.9220 -17.9048
   -17.8452 -17.8101 -16.8897 -16.8627 -16.8530 -16.5344 -16.5315 -16.5104
   -15.2429 -15.0376 -15.0321 -14.9770 -14.8611 -14.8476 -14.8128 -14.7899
   -14.7480 -14.7383 -14.7170 -14.6943 -14.6731 -14.6526 -14.6316 -14.6063
   -14.6049 -14.5888 -14.5700 -14.5697 -14.5232 -14.5097 -14.5023 -14.4921
   -14.4721 -14.4604 -14.4509 -14.4423 -14.4230 -14.4204 -14.4146 -14.4126
   -14.4019 -14.3933 -14.3928 -14.3812 -14.3677 -14.3514 -14.3201 -14.3165
   -14.3108 -14.2993 -14.2911 -14.2827 -14.2747 -14.2666 -14.2572 -14.2523
   -14.2513 -14.2427 -14.2380 -14.2332 -14.2299 -14.2254 -14.1988 -14.1788
   -14.1697 -14.1605 -14.1529 -14.1363 -14.1167 -14.1048 -14.1017 -14.0705
   -14.0656 -14.0401 -14.0343 -14.0311 -14.0239 -14.0236 -14.0069 -13.9959
   -13.9909 -13.9733 -13.9461 -13.8928 -13.8837 -13.8742 -13.8710 -13.8376
   -13.8253 -13.8225 -13.8045 -13.7790 -13.7742 -13.7697 -13.7679 -13.7636
   -13.7629 -13.7529 -13.7378 -13.7244 -13.7239 -13.7217 -13.7208 -13.7200
   -13.7120 -13.6958 -13.6892 -13.6798 -13.6788 -13.6771 -13.6733 -13.6720
   -13.6683 -13.6676 -13.6641 -13.6483 -13.6443 -13.6378 -13.6147 -13.6086
   -13.5841 -13.5761 -13.5637 -13.5481 -13.5152 -13.4995 -13.4872 -13.4368
    -9.2907  -9.2471  -9.0813  -9.0491  -8.9660  -8.9528  -8.9439  -8.8783
    -8.8475  -8.7576  -8.7481  -8.7074  -8.6901  -8.6059  -8.5770  -8.5617
    -8.5075  -8.4745  -8.4344  -8.4312  -8.4134  -8.3772  -8.3715  -8.3035
    -8.2927  -8.2827  -8.2721  -8.2620  -8.2192  -8.2095  -8.1899  -8.1871
    -8.1079  -8.0749  -8.0662  -7.9889  -7.9786  -7.9777  -7.9678  -7.9655
    -7.9552  -7.9505  -7.9442  -7.9436  -7.9246  -7.9226  -7.9087  -7.9007
    -7.8977  -7.8970  -7.8939  -7.8882  -7.8842  -7.8820  -7.8750  -7.8728
    -7.8667  -7.8650  -7.8614  -7.8475  -7.8423  -7.8075  -7.7904  -7.7862
    -7.7846  -7.7788  -7.7772  -7.7699  -7.7640  -7.7594  -7.7565  -7.7329
    -7.7230  -7.7121  -7.7106  -7.7038  -7.6722  -7.6667  -7.6468  -7.6415
    -7.6027  -7.5953  -7.5846  -7.5361  -7.5169  -7.5129  -7.4927  -7.4927
    -7.4856  -7.4725  -7.4656  -7.4651  -7.4647  -7.3087  -7.2709  -7.2296
    -3.8425  -3.7045  -3.5590  -3.5011  -3.4444  -3.3926  -3.3291  -3.1840
    -3.1354  -3.1229  -3.0919  -3.0049  -3.0043  -2.9978  -2.9085  -2.8837
    -2.8565  -2.8177  -2.8172  -2.7834  -2.6941  -2.6935  -2.6918  -2.6905
    -2.6818  -2.6557  -2.5523  -2.5362  -2.5220  -2.4791  -2.4670  -2.4232
    -2.4228  -2.4046  -2.3959  -2.3760  -2.3530  -2.3470  -2.3466  -2.3299
    -2.3180  -2.2743  -2.2587  -2.2246  -2.1931  -2.1813  -2.1681  -2.1506
    -2.1448  -2.0948  -2.0753  -2.0385  -2.0318  -2.0305  -2.0262  -2.0064
    -2.0005  -1.9778  -1.9583  -1.9356  -1.9254  -1.9251  -1.9105  -1.9084
    -1.9039  -1.9018  -1.8901  -1.8880  -1.8846  -1.8840  -1.8771  -1.8741
    -1.8719  -1.8675  -1.8611  -1.8584  -1.8572  -1.8571  -1.8569  -1.8416
    -1.8386  -1.8261  -1.8185  -1.8172  -1.8092  -1.7930  -1.7862  -1.7855
    -1.7756  -1.7706  -1.7682  -1.7665  -1.7496  -1.7459  -1.7434  -1.7323
    -1.7237  -1.7158  -1.7119  -1.6947  -1.6907  -1.6715  -1.6607  -1.6563
    -1.6321  -1.6134  -1.5980  -1.5906  -1.5678  -1.5659  -1.5587  -1.5549
    -1.5312  -1.5279  -1.5187  -1.5099  -1.4967  -1.4727  -1.4429  -1.4136
    -1.4079  -1.3843  -1.3770  -1.3745  -1.3597  -1.3480  -1.3421  -1.3335
    -1.3269  -1.3254  -1.2954  -1.2944  -1.2820  -1.2818  -1.2805  -1.2610
    -1.2460  -1.2413  -1.2000  -1.1752  -1.1471  -1.1076  -1.0714  -1.0470
    -0.9860  -0.9581  -0.9516  -0.9291  -0.9217  -0.9141  -0.9092  -0.8809
    -0.8686  -0.8678  -0.8628  -0.8607  -0.8578  -0.8462  -0.8449  -0.8419
    -0.7953  -0.7826  -0.7730  -0.7695  -0.7695  -0.7610  -0.7608  -0.7563
    -0.7491  -0.7453  -0.7396  -0.7381  -0.7172  -0.6975  -0.6879  -0.6856
    -0.6846  -0.6814  -0.6728  -0.6691  -0.6677  -0.6660  -0.6645  -0.6507
    -0.6286  -0.6188  -0.6177  -0.6149  -0.6094  -0.6078  -0.6016  -0.5995
    -0.5973  -0.5835  -0.5807  -0.5760  -0.5676  -0.5596  -0.5469  -0.5362
    -0.5288  -0.5254  -0.5216  -0.5184  -0.5183  -0.5129  -0.4972  -0.4935
    -0.4765  -0.4620  -0.4581  -0.4509  -0.4428  -0.4300  -0.4191  -0.4099
    -0.4088  -0.4078  -0.4002  -0.3965  -0.3902  -0.3844  -0.3827  -0.3716
    -0.3617  -0.3567  -0.3552  -0.3488  -0.3463  -0.3438  -0.3382  -0.3336
    -0.3220  -0.3161  -0.2789  -0.2670  -0.2635  -0.2526  -0.2521  -0.2472
    -0.2372  -0.2182  -0.2162  -0.2092  -0.2028  -0.2002  -0.1926  -0.1923
    -0.1741  -0.1687  -0.1637  -0.1596  -0.1572  -0.1404  -0.1385  -0.1229
    -0.1228  -0.1071  -0.0858  -0.0744  -0.0740  -0.0210  -0.0008   0.0033
     0.0068   0.0076   0.0176   0.0189   0.0380   0.0390   0.0491   0.0595
     0.0759   0.0826   0.0844   0.1178   0.1390   0.1476   0.1487   0.1580
     0.1619   0.1669   0.1992   0.2124   0.2482   0.2803   0.2869   0.2895
     0.3047   0.3125   0.3135   0.3210   0.3249   0.3356   0.3382   0.3385
     0.3407   0.3505   0.3516   0.3607   0.3630   0.3730   0.3737   0.3768
     0.3818   0.3915   0.3935   0.4089   0.4329   0.4510   0.4520   0.4577
     0.4677   0.4782   0.4788   0.4834   0.4898   0.4997   0.4998   0.5040
     0.5099   0.5174   0.5285   0.5372   0.5521   0.5525   0.5543   0.5557
     0.5587   0.5598   0.5763   0.6015   0.6040   0.6152   0.6217   0.6232
     0.6304   0.6320   0.6332   0.6379   0.6380   0.6456   0.6821   0.6829
     0.6866   0.7051   0.7070   0.7093   0.7103   0.7122   0.7123   0.7148
     0.7184   0.7390   0.7522   0.8047   0.8110   0.8179   0.8211   0.8242
     0.8251   0.8325   0.8437   0.8620   0.8734   0.8740   0.8781   0.8810
     0.8908   0.8971   0.9064   0.9144   0.9365   0.9528   0.9545   0.9696
     0.9718   0.9750   0.9807   0.9909   1.0210   1.0229   1.0274   1.0402
     1.0474   1.0516   1.0624   1.0724   1.0969   1.0976   1.1036   1.1085
     1.1245   1.1390   1.1493   1.1547   1.1666   1.1918   1.1928   1.2010
     1.2077   1.2082   1.2105   1.2218   1.2279   1.2285   1.2356   1.2373
     1.2386   1.2487   1.2533   1.2601   1.2669   1.2843   1.2849   1.2927
     1.3037   1.3038   1.3128   1.3275   1.3335   1.3354   1.3427   1.3430
     1.3451   1.3485   1.3546   1.3626   1.3679   1.3749   1.3817   1.3829
     1.3849   1.3875   1.4011   1.4134   1.4190   1.4342   1.4346   1.4402
     1.4510   1.4512   1.4737   1.4758   1.4795   1.4842   1.4898   1.4917
     1.4963   1.5009   1.5013   1.5114   1.5145   1.5194   1.5210   1.5218
     1.5322   1.5377   1.5503   1.5666   1.5721   1.5730   1.5800   1.5875
     1.5949   1.5975   1.6022   1.6026   1.6119   1.6134   1.6198   1.6251
     1.6361   1.6381   1.6481   1.6514   1.6558   1.6585   1.6611   1.6662
     1.6706   1.6783   1.6817   1.6824   1.6882   1.6926   1.6965   1.6981
     1.7013   1.7091   1.7130   1.7173   1.7202   1.7289   1.7384   1.7390
     1.7469   1.7486   1.7515   1.7632   1.7651   1.7703   1.7735   1.7851
     1.7910   1.7950   1.7982   1.8037   1.8079   1.8177   1.8225   1.8266
     1.8397   1.8439   1.8497   1.8534   1.8654   1.8728   1.8742   1.8908
     1.8957   1.8995   1.9081   1.9109   1.9146   1.9439   1.9559   1.9562
     1.9575   1.9612   1.9793   1.9795   1.9811   1.9849   1.9875   1.9981
     2.0021   2.0027   2.0080   2.0158   2.0235   2.0356   2.0370   2.0375
     2.0439   2.0546   2.0575   2.0822   2.0845   2.1147   2.1210   2.1213
     2.1295   2.1406   2.1474   2.1616   2.1721   2.1807   2.1925   2.2039
     2.2061   2.2174   2.2251   2.2327   2.2337   2.2533   2.2719   2.2785
     2.2846   2.2882   2.2927   2.3165   2.3185   2.3239   2.3384   2.3409
     2.3643   2.3690   2.3700   2.3748   2.3910   2.4003   2.5196   2.5429
     2.5463   2.5520   2.5552   2.5583   2.5878   2.6152   2.6377   2.6704
     2.6706   2.6707   2.6709   2.6901   2.7787   2.7988   2.8431   2.8593
     2.9112   2.9187   2.9662   2.9830   3.0085   3.0366   3.1024   3.1077
     3.1088   3.1111   3.1118   3.1169   3.1222   3.1240   3.2241   3.2259
     3.2549   3.2818   3.2881   3.2938   3.3060   3.3227   3.5190   3.6119
     3.7068   3.7223   3.7594   3.7770   3.8874   3.8969   4.0272   4.0363
     4.0716   4.1043   4.2885   4.3371   4.4036   4.4373   4.4946   4.6426
     5.3265   5.4625   5.6576   5.7534   5.9328   5.9437   5.9825   6.0532
     6.0553   6.0591   6.0592   6.0648   6.1464   6.1910   6.2720   6.2755
     6.2852   6.3859   6.5073   6.5229   6.5366   6.6444   6.7206   6.7420
     6.7548   6.7728   6.8309   6.8385   6.8636   6.8666   6.8844   6.8882
     6.9031   7.0259   7.0368   7.0480   7.0948   7.1045   7.1411   7.1726
     7.2082   7.2298   7.2499   7.2660   7.2804   7.2894   7.3020   7.3194
     7.3466   7.4169   7.4230   7.4363   7.4660   7.5762   7.6137   7.6931
     7.6978   7.7050   7.7132   7.7183   7.7265   7.7382   7.7911   7.8836
     7.9590   7.9782   7.9821   7.9895   8.0076   8.0289   8.0522   8.0607
     8.1062   8.1363   8.1891   8.2012   8.2321   8.2591   8.2973   8.3025
     8.3280   8.3462   8.3503   8.3720   8.4060   8.4123   8.4504   8.5081
     8.5124   8.5444   8.5604   8.5774   8.5838   8.5922   8.6083   8.6242
     8.6421   8.6424   8.6587   8.7173   8.7879   8.7881   8.8037   8.8170
     8.8354   8.8444   8.8461   8.8745   8.8912   8.9021   8.9237   8.9285
     8.9346   8.9506   8.9646   8.9837   8.9903   9.0001   9.0378   9.0583
     9.0819   9.0952   9.1151   9.1377   9.1382   9.1404   9.1863   9.2228
     9.2406   9.2412   9.2728   9.3099   9.3254   9.3261   9.3326   9.3708
     9.3819   9.3861   9.3944   9.4171   9.4577   9.4616   9.4786   9.4946
     9.5010   9.5192

          k =-0.4652-0.0000 0.0000 (283520 PWs)   bands (ev):

   -38.0913 -38.0650 -38.0615 -38.0583 -38.0559 -38.0423 -38.0405 -37.8393
   -37.7907 -37.7867 -37.7834 -37.7809 -37.7697 -37.7679 -35.6302 -35.2838
   -23.9134 -23.6125 -23.6030 -23.5258 -23.4824 -23.4389 -23.4007 -23.1651
   -22.7097 -22.6885 -22.6638 -22.6523 -22.6443 -22.6425 -22.6308 -22.6233
   -22.5769 -22.5613 -22.5592 -22.5541 -22.5478 -22.5400 -22.5381 -22.5328
   -22.5147 -22.5038 -22.4934 -22.4693 -22.4512 -22.3327 -22.3018 -22.2216
   -18.6711 -18.5980 -18.5923 -18.5662 -18.5433 -18.5044 -18.4671 -18.4558
   -18.4107 -18.4016 -18.3940 -18.3738 -18.3723 -18.3653 -18.3475 -18.3416
   -18.3250 -18.2912 -18.2663 -18.2531 -18.2458 -18.2303 -18.2052 -18.1859
   -18.1809 -18.1658 -18.1601 -18.1377 -18.1290 -18.1182 -18.1123 -18.1030
   -18.0626 -18.0593 -17.9900 -17.9753 -17.9574 -17.9330 -17.9302 -17.8984
   -17.8555 -17.7963 -16.8897 -16.8611 -16.8544 -16.5329 -16.5328 -16.5104
   -15.2365 -15.0486 -15.0277 -14.9783 -14.8644 -14.8537 -14.8127 -14.8032
   -14.7399 -14.7242 -14.7114 -14.7022 -14.6789 -14.6394 -14.5978 -14.5885
   -14.5844 -14.5745 -14.5637 -14.5550 -14.5475 -14.5302 -14.5234 -14.5221
   -14.5128 -14.4936 -14.4736 -14.4462 -14.4441 -14.4222 -14.4182 -14.4133
   -14.3802 -14.3741 -14.3708 -14.3503 -14.3464 -14.3424 -14.3420 -14.3346
   -14.3221 -14.3199 -14.3195 -14.3035 -14.2871 -14.2711 -14.2710 -14.2366
   -14.2279 -14.2207 -14.2006 -14.1910 -14.1875 -14.1873 -14.1786 -14.1769
   -14.1597 -14.1582 -14.1417 -14.1405 -14.1323 -14.1174 -14.1083 -14.0917
   -14.0722 -14.0715 -14.0671 -14.0476 -14.0182 -14.0115 -14.0029 -13.9921
   -13.9832 -13.9675 -13.9594 -13.9441 -13.9137 -13.8535 -13.8415 -13.8408
   -13.8228 -13.7816 -13.7744 -13.7729 -13.7712 -13.7692 -13.7632 -13.7531
   -13.7524 -13.7519 -13.7517 -13.7513 -13.7408 -13.7366 -13.7197 -13.7030
   -13.7027 -13.7014 -13.6998 -13.6996 -13.6722 -13.6676 -13.6669 -13.6666
   -13.6606 -13.6600 -13.6574 -13.6541 -13.6442 -13.6432 -13.6392 -13.6054
   -13.5999 -13.5838 -13.5774 -13.5637 -13.5202 -13.4820 -13.4649 -13.4355
    -9.2873  -9.2801  -9.0639  -8.9766  -8.9666  -8.9596  -8.9196  -8.8913
    -8.8318  -8.8030  -8.7594  -8.7223  -8.6795  -8.6699  -8.6063  -8.5857
    -8.4896  -8.4870  -8.4687  -8.4591  -8.3892  -8.3866  -8.3155  -8.3001
    -8.2701  -8.2096  -8.2078  -8.2039  -8.2003  -8.1887  -8.1833  -8.1806
    -8.1130  -8.0495  -8.0418  -8.0288  -7.9874  -7.9805  -7.9635  -7.9634
    -7.9598  -7.9516  -7.9413  -7.9392  -7.9283  -7.9238  -7.9171  -7.9129
    -7.9074  -7.8965  -7.8953  -7.8882  -7.8862  -7.8851  -7.8838  -7.8825
    -7.8758  -7.8740  -7.8728  -7.8711  -7.8680  -7.8647  -7.8610  -7.8599
    -7.8552  -7.8497  -7.8435  -7.8388  -7.7166  -7.7155  -7.7021  -7.7020
    -7.6955  -7.6822  -7.6791  -7.6592  -7.6472  -7.6391  -7.6365  -7.6183
    -7.5964  -7.5871  -7.5674  -7.5329  -7.5314  -7.5237  -7.5143  -7.5127
    -7.5037  -7.4933  -7.4248  -7.4246  -7.3733  -7.3435  -7.2933  -7.2431
    -3.8882  -3.7579  -3.4701  -3.4190  -3.3874  -3.3425  -3.3399  -3.3090
    -3.2522  -3.1834  -3.0979  -3.0619  -3.0212  -3.0042  -2.9913  -2.8270
    -2.8214  -2.7826  -2.7823  -2.7427  -2.7264  -2.6981  -2.6747  -2.6663
    -2.6511  -2.6380  -2.6061  -2.5950  -2.5662  -2.4932  -2.4702  -2.3239
    -2.3217  -2.3173  -2.2922  -2.2734  -2.2559  -2.2521  -2.2432  -2.2391
    -2.2291  -2.2208  -2.2095  -2.2062  -2.1867  -2.1822  -2.1636  -2.1602
    -2.1430  -2.1038  -2.0846  -2.0743  -2.0335  -2.0300  -2.0207  -2.0189
    -2.0159  -1.9933  -1.9774  -1.9737  -1.9725  -1.9691  -1.9479  -1.9457
    -1.9431  -1.9347  -1.9335  -1.9164  -1.8881  -1.8760  -1.8729  -1.8719
    -1.8667  -1.8637  -1.8600  -1.8558  -1.8441  -1.8380  -1.8266  -1.7990
    -1.7935  -1.7849  -1.7820  -1.7820  -1.7818  -1.7804  -1.7795  -1.7786
    -1.7738  -1.7718  -1.7714  -1.7648  -1.7628  -1.7597  -1.7554  -1.7501
    -1.7382  -1.7334  -1.7294  -1.7248  -1.7221  -1.7146  -1.7032  -1.6986
    -1.6865  -1.6796  -1.6548  -1.6485  -1.6337  -1.6055  -1.6050  -1.5939
    -1.5931  -1.5929  -1.5913  -1.5465  -1.5321  -1.5152  -1.5002  -1.4913
    -1.4708  -1.4526  -1.4441  -1.4241  -1.4123  -1.3947  -1.3615  -1.3591
    -1.3433  -1.3290  -1.3224  -1.2933  -1.2390  -1.2381  -1.2261  -1.2192
    -1.2074  -1.1978  -1.1671  -1.1655  -1.1530  -1.1520  -1.1138  -1.0795
    -1.0686  -1.0374  -1.0140  -0.9394  -0.9270  -0.9198  -0.8781  -0.8779
    -0.8684  -0.8561  -0.8499  -0.8438  -0.8295  -0.8259  -0.8197  -0.8191
    -0.8085  -0.7982  -0.7786  -0.7663  -0.7463  -0.7385  -0.7383  -0.7329
    -0.7283  -0.7264  -0.6964  -0.6939  -0.6916  -0.6911  -0.6736  -0.6655
    -0.6608  -0.6577  -0.6507  -0.6367  -0.6342  -0.6325  -0.6278  -0.6211
    -0.6133  -0.5999  -0.5995  -0.5918  -0.5882  -0.5866  -0.5826  -0.5765
    -0.5681  -0.5541  -0.5528  -0.5500  -0.5287  -0.5246  -0.5118  -0.5082
    -0.5076  -0.5052  -0.5013  -0.4978  -0.4971  -0.4967  -0.4946  -0.4842
    -0.4780  -0.4748  -0.4741  -0.4571  -0.4529  -0.4338  -0.4263  -0.4218
    -0.4191  -0.4084  -0.4068  -0.3995  -0.3964  -0.3916  -0.3664  -0.3633
    -0.3455  -0.3388  -0.3317  -0.3274  -0.3247  -0.3175  -0.3125  -0.3002
    -0.2991  -0.2625  -0.2598  -0.2463  -0.2379  -0.2234  -0.2232  -0.2197
    -0.2184  -0.2159  -0.2148  -0.2125  -0.2093  -0.2024  -0.2012  -0.1954
    -0.1926  -0.1898  -0.1642  -0.1620  -0.1517  -0.1206  -0.1133  -0.1079
    -0.0884  -0.0745  -0.0704  -0.0532  -0.0506  -0.0439  -0.0403  -0.0359
    -0.0317  -0.0248  -0.0181  -0.0169  -0.0018   0.0013   0.0062   0.0120
     0.0127   0.0181   0.0307   0.0363   0.0718   0.0813   0.0853   0.1540
[...]
     atom   61 type  5   force =     0.00000000    0.00000000   -0.00080314
     atom   62 type  5   force =     0.00000000    0.00000000   -0.00080314
     atom   63 type  5   force =     0.00000000    0.00017292   -0.00090039
     atom   64 type  5   force =     0.00000000   -0.00017292   -0.00090039
     atom   65 type  4   force =    -0.00026398    0.00011291    0.00101869
     atom   66 type  4   force =    -0.00026398   -0.00011291    0.00101869
     atom   67 type  4   force =     0.00026398    0.00011291    0.00101869
     atom   68 type  4   force =     0.00026398   -0.00011291    0.00101869
     atom   69 type  4   force =     0.00000000   -0.00028934    0.00049801
     atom   70 type  4   force =     0.00000000    0.00028934    0.00049801
     atom   71 type  4   force =    -0.00010853    0.00004036    0.00127428
     atom   72 type  4   force =    -0.00010853   -0.00004036    0.00127428
     atom   73 type  4   force =     0.00010853   -0.00004036    0.00127428
     atom   74 type  4   force =     0.00010853    0.00004036    0.00127428
     atom   75 type  4   force =     0.00023361    0.00000000    0.00099212
     atom   76 type  4   force =    -0.00023361    0.00000000    0.00099212
     atom   77 type  4   force =     0.00000000   -0.00044249    0.00185522
     atom   78 type  4   force =     0.00000000    0.00044249    0.00185522
     atom   79 type  4   force =     0.00021593    0.00000000    0.00093277
     atom   80 type  4   force =    -0.00021593    0.00000000    0.00093277
     atom   81 type  3   force =     0.00013121   -0.00018295   -0.00192203
     atom   82 type  3   force =     0.00013121    0.00018295   -0.00192203
     atom   83 type  3   force =    -0.00013121   -0.00018295   -0.00192203
     atom   84 type  3   force =    -0.00013121    0.00018295   -0.00192203
     atom   85 type  3   force =     0.00006954   -0.00010819   -0.00193131
     atom   86 type  3   force =    -0.00006954   -0.00010819   -0.00193131
     atom   87 type  3   force =    -0.00006954    0.00010819   -0.00193131
     atom   88 type  3   force =     0.00006954    0.00010819   -0.00193131
     atom   89 type  1   force =     0.00000000    0.00000000   -0.00364102
     atom   90 type  1   force =     0.00000000   -0.00056934   -0.00465272
     atom   91 type  1   force =     0.00000000    0.00056934   -0.00465272
     atom   92 type  1   force =    -0.00082097    0.00000000   -0.00362098
     atom   93 type  1   force =     0.00082097    0.00000000   -0.00362098
     atom   94 type  1   force =     0.00000000    0.00000000   -0.00463629
     atom   95 type  1   force =     0.00000000    0.00000000   -0.00463629
     atom   96 type  1   force =     0.00000000    0.00000000   -0.00353283
     atom   97 type  4   force =    -0.00028543   -0.00031423    0.00356517
     atom   98 type  4   force =    -0.00028543    0.00031423    0.00356517
     atom   99 type  4   force =     0.00028543   -0.00031423    0.00356517
     atom  100 type  4   force =     0.00028543    0.00031423    0.00356517
     atom  101 type  4   force =     0.00043272   -0.00030897    0.00443641
     atom  102 type  4   force =    -0.00043272   -0.00030897    0.00443641
     atom  103 type  4   force =    -0.00043272    0.00030897    0.00443641
     atom  104 type  4   force =     0.00043272    0.00030897    0.00443641
     atom  105 type  4   force =     0.00107947    0.00000000    0.01215028
     atom  106 type  4   force =    -0.00107947    0.00000000    0.01215028
     atom  107 type  3   force =    -0.00263605   -0.00134050   -0.01007299
     atom  108 type  3   force =    -0.00263605    0.00134050   -0.01007299
     atom  109 type  3   force =     0.00263605    0.00134050   -0.01007299
     atom  110 type  3   force =     0.00263605   -0.00134050   -0.01007299
     atom  111 type  3   force =    -0.00237624   -0.00060486   -0.00764768
     atom  112 type  3   force =     0.00237624    0.00060486   -0.00764768
     atom  113 type  3   force =    -0.00237624    0.00060486   -0.00764768
     atom  114 type  3   force =     0.00237624   -0.00060486   -0.00764768
     atom  115 type  4   force =     0.00079197   -0.00061263    0.01286603
     atom  116 type  4   force =    -0.00079197   -0.00061263    0.01286603
     atom  117 type  4   force =     0.00079197    0.00061263    0.01286603
     atom  118 type  4   force =    -0.00079197    0.00061263    0.01286603
     atom  119 type  4   force =     0.00203272    0.00000000    0.01330070
     atom  120 type  4   force =    -0.00203272    0.00000000    0.01330070
     atom  121 type  4   force =    -0.00673084   -0.00446036    0.02327861
     atom  122 type  4   force =     0.00673084   -0.00446036    0.02327861
     atom  123 type  4   force =     0.00673084    0.00446036    0.02327861
     atom  124 type  4   force =    -0.00673084    0.00446036    0.02327861
     atom  125 type  4   force =     0.00228205   -0.00174233    0.01669453
     atom  126 type  4   force =     0.00228205    0.00174233    0.01669453
     atom  127 type  4   force =    -0.00228205   -0.00174233    0.01669453
     atom  128 type  4   force =    -0.00228205    0.00174233    0.01669453
     atom  129 type  1   force =     0.00000000    0.00000000   -0.01743482
     atom  130 type  1   force =     0.00000000    0.00000000   -0.01686977
     atom  131 type  1   force =     0.00000000    0.00000000   -0.01686977
     atom  132 type  1   force =     0.00167839    0.00000000   -0.01417821
     atom  133 type  1   force =    -0.00167839    0.00000000   -0.01417821
     atom  134 type  1   force =     0.00000000    0.00248455   -0.01548548
     atom  135 type  1   force =     0.00000000   -0.00248455   -0.01548548
     atom  136 type  1   force =     0.00000000    0.00000000   -0.00458894
     atom  137 type  3   force =     0.00057596    0.00060329    0.00718806
     atom  138 type  3   force =     0.00057596   -0.00060329    0.00718806
     atom  139 type  3   force =    -0.00057596   -0.00060329    0.00718806
     atom  140 type  3   force =    -0.00057596    0.00060329    0.00718806
     atom  141 type  3   force =    -0.00497292    0.00596918   -0.00068662
     atom  142 type  3   force =    -0.00497292   -0.00596918   -0.00068662
     atom  143 type  3   force =     0.00497292    0.00596918   -0.00068662
     atom  144 type  3   force =     0.00497292   -0.00596918   -0.00068662
     atom  145 type  4   force =    -0.00204673    0.00000000    0.00799888
     atom  146 type  4   force =     0.00204673    0.00000000    0.00799888
     atom  147 type  4   force =     0.00000000   -0.00175426    0.00757905
     atom  148 type  4   force =     0.00000000    0.00175426    0.00757905
     atom  149 type  4   force =    -0.00063800    0.00000000    0.00402356
     atom  150 type  4   force =     0.00063800    0.00000000    0.00402356
     atom  151 type  4   force =    -0.00074033    0.00103945    0.00776630
     atom  152 type  4   force =     0.00074033    0.00103945    0.00776630
     atom  153 type  4   force =     0.00074033   -0.00103945    0.00776630
     atom  154 type  4   force =    -0.00074033   -0.00103945    0.00776630
     atom  155 type  4   force =     0.00000000   -0.00184753    0.00751092
     atom  156 type  4   force =     0.00000000    0.00184753    0.00751092
     atom  157 type  4   force =     0.00139034    0.00008862    0.00838821
     atom  158 type  4   force =    -0.00139034   -0.00008862    0.00838821
     atom  159 type  4   force =     0.00139034   -0.00008862    0.00838821
     atom  160 type  4   force =    -0.00139034    0.00008862    0.00838821
     atom  161 type  2   force =     0.00000000    0.00000000   -0.03174561
     atom  162 type  5   force =    -0.00050484    0.00000000   -0.03762629
     atom  163 type  5   force =     0.00050484    0.00000000   -0.03762629
     atom  164 type  5   force =     0.00000000    0.00000000   -0.03372110
     atom  165 type  5   force =     0.00000000    0.00000000   -0.03521514
     atom  166 type  5   force =     0.00000000    0.00000000   -0.03521514
     atom  167 type  5   force =     0.00000000   -0.00102812   -0.03639578
     atom  168 type  5   force =     0.00000000    0.00102812   -0.03639578
     atom  169 type  4   force =    -0.00022374    0.00004701    0.00415336
     atom  170 type  4   force =    -0.00022374   -0.00004701    0.00415336
     atom  171 type  4   force =     0.00022374    0.00004701    0.00415336
     atom  172 type  4   force =     0.00022374   -0.00004701    0.00415336
     atom  173 type  4   force =     0.00000000    0.00015787    0.00386517
     atom  174 type  4   force =     0.00000000   -0.00015787    0.00386517
     atom  175 type  4   force =    -0.00001996    0.00004626    0.00313102
     atom  176 type  4   force =    -0.00001996   -0.00004626    0.00313102
     atom  177 type  4   force =     0.00001996   -0.00004626    0.00313102
     atom  178 type  4   force =     0.00001996    0.00004626    0.00313102
     atom  179 type  4   force =    -0.00016922    0.00000000    0.00263907
     atom  180 type  4   force =     0.00016922    0.00000000    0.00263907
     atom  181 type  4   force =     0.00000000   -0.00047645    0.00425826
     atom  182 type  4   force =     0.00000000    0.00047645    0.00425826
     atom  183 type  4   force =     0.00047091    0.00000000    0.00358154
     atom  184 type  4   force =    -0.00047091    0.00000000    0.00358154
     atom  185 type  3   force =     0.00000210    0.00021192    0.00141969
     atom  186 type  3   force =     0.00000210   -0.00021192    0.00141969
     atom  187 type  3   force =    -0.00000210    0.00021192    0.00141969
     atom  188 type  3   force =    -0.00000210   -0.00021192    0.00141969
     atom  189 type  3   force =     0.00002281   -0.00000406    0.00144869
     atom  190 type  3   force =    -0.00002281   -0.00000406    0.00144869
     atom  191 type  3   force =    -0.00002281    0.00000406    0.00144869
     atom  192 type  3   force =     0.00002281    0.00000406    0.00144869
     atom  193 type  1   force =     0.00000000    0.00000000   -0.00110184
     atom  194 type  1   force =     0.00000000   -0.00004587   -0.00083105
     atom  195 type  1   force =     0.00000000    0.00004587   -0.00083105
     atom  196 type  1   force =     0.00020680    0.00000000   -0.00107467
     atom  197 type  1   force =    -0.00020680    0.00000000   -0.00107467
     atom  198 type  1   force =     0.00000000    0.00000000   -0.00099086
     atom  199 type  1   force =     0.00000000    0.00000000   -0.00099086
     atom  200 type  1   force =     0.00000000    0.00000000   -0.00095478
     atom  201 type  4   force =     0.00002439    0.00009843    0.00066890
     atom  202 type  4   force =     0.00002439   -0.00009843    0.00066890
     atom  203 type  4   force =    -0.00002439    0.00009843    0.00066890
     atom  204 type  4   force =    -0.00002439   -0.00009843    0.00066890
     atom  205 type  4   force =     0.00002944    0.00005215    0.00063932
     atom  206 type  4   force =    -0.00002944    0.00005215    0.00063932
     atom  207 type  4   force =    -0.00002944   -0.00005215    0.00063932
     atom  208 type  4   force =     0.00002944   -0.00005215    0.00063932
     atom  209 type  4   force =     0.00010867    0.00000000    0.00015127
     atom  210 type  4   force =    -0.00010867    0.00000000    0.00015127
     atom  211 type  3   force =     0.00008720   -0.00007630   -0.00038077
     atom  212 type  3   force =     0.00008720    0.00007630   -0.00038077
     atom  213 type  3   force =    -0.00008720    0.00007630   -0.00038077
     atom  214 type  3   force =    -0.00008720   -0.00007630   -0.00038077
     atom  215 type  3   force =    -0.00001076   -0.00001911   -0.00027954
     atom  216 type  3   force =     0.00001076    0.00001911   -0.00027954
     atom  217 type  3   force =    -0.00001076    0.00001911   -0.00027954
     atom  218 type  3   force =     0.00001076   -0.00001911   -0.00027954
     atom  219 type  4   force =    -0.00010451    0.00004436    0.00022743
     atom  220 type  4   force =     0.00010451    0.00004436    0.00022743
     atom  221 type  4   force =    -0.00010451   -0.00004436    0.00022743
     atom  222 type  4   force =     0.00010451   -0.00004436    0.00022743
     atom  223 type  4   force =    -0.00016496    0.00000000    0.00020188
     atom  224 type  4   force =     0.00016496    0.00000000    0.00020188

     Total force =     0.139571     Total SCF correction =     0.000390


     Computing stress (Cartesian axis) and pressure


     negative rho (up, down):  6.353E-01 0.000E+00
          total   stress  (Ry/bohr**3)                   (kbar)     P=       -6.96
  -0.00006936  -0.00000000   0.00000000          -10.20       -0.00        0.00
   0.00000000  -0.00003847   0.00000000            0.00       -5.66        0.00
   0.00000000   0.00000000  -0.00003410            0.00        0.00       -5.02

 
     init_run     :     55.80s CPU     58.86s WALL (       1 calls)
     electrons    :   4575.71s CPU   4779.78s WALL (       1 calls)
     forces       :     33.33s CPU     35.57s WALL (       1 calls)
     stress       :    429.96s CPU    434.92s WALL (       1 calls)

     Called by init_run:
     wfcinit      :     43.77s CPU     45.35s WALL (       1 calls)
     potinit      :      1.63s CPU      1.68s WALL (       1 calls)
     hinit0       :      2.93s CPU      2.98s WALL (       1 calls)

     Called by electrons:
     c_bands      :   3888.88s CPU   3976.52s WALL (      42 calls)
     sum_band     :    479.56s CPU    543.40s WALL (      42 calls)
     v_of_rho     :     10.81s CPU     10.97s WALL (      43 calls)
     newd         :     75.42s CPU    128.25s WALL (      43 calls)
     mix_rho      :    121.60s CPU    122.42s WALL (      42 calls)

     Called by c_bands:
     init_us_2    :     12.81s CPU     13.22s WALL (     348 calls)
     cegterg      :   3804.93s CPU   3886.70s WALL (     168 calls)

     Called by sum_band:
     sum_band:bec :      3.87s CPU      3.89s WALL (     168 calls)
     addusdens    :     76.30s CPU    135.55s WALL (      42 calls)

     Called by *egterg:
     h_psi        :   1505.66s CPU   1535.45s WALL (    1251 calls)
     s_psi        :    450.96s CPU    461.86s WALL (    1251 calls)
     g_psi        :      2.06s CPU      2.08s WALL (    1079 calls)
     cdiaghg      :    849.23s CPU    853.03s WALL (    1247 calls)

     Called by h_psi:
     h_psi:calbec :    484.62s CPU    487.39s WALL (    1251 calls)
     vloc_psi     :    566.59s CPU    574.24s WALL (    1251 calls)
     add_vuspsi   :    450.95s CPU    462.26s WALL (    1251 calls)

     General routines
     calbec       :    762.66s CPU    766.54s WALL (    1439 calls)
     fft          :     10.81s CPU     10.92s WALL (     582 calls)
     ffts         :     74.31s CPU     74.81s WALL (   32078 calls)
     fftw         :    628.60s CPU    636.90s WALL (  952542 calls)
     interpolate  :      0.93s CPU      0.94s WALL (      43 calls)
 
     Parallel routines
     fft_scatt_xy :     93.24s CPU     94.46s WALL (  985202 calls)
     fft_scatt_yz :    387.98s CPU    393.22s WALL (  985202 calls)
 
     PWSCF        :      1h24m CPU      1h28m WALL

 
   This run was terminated on:  22:28:39  17May2021            

=------------------------------------------------------------------------------=
   JOB DONE.
=------------------------------------------------------------------------------=
[1621304919.380597] [holy7c16302:124082:0]          mpool.c:43   UCX  WARN  object 0x2dc9c40 was not returned to mpool ucp_requests
[1621304919.394663] [holy7c06203:208156:0]          mpool.c:43   UCX  WARN  object 0x3c21600 was not returned to mpool ucp_requests
[1621304919.396005] [holy7c16209:95020:0]          mpool.c:43   UCX  WARN  object 0x477ae80 was not returned to mpool ucp_requests
[1621304919.398306] [holy7c06203:208149:0]          mpool.c:43   UCX  WARN  object 0x2eebe00 was not returned to mpool ucp_requests
[1621304919.406946] [holy7c06203:208158:0]          mpool.c:43   UCX  WARN  object 0x2f12140 was not returned to mpool ucp_requests
[1621304919.406203] [holy7c06203:208150:0]          mpool.c:43   UCX  WARN  object 0x30c9cc0 was not returned to mpool ucp_requests
[1621304919.408165] [holy7c08612:177518:0]          mpool.c:43   UCX  WARN  object 0x2b19140 was not returned to mpool ucp_requests
[1621304919.391625] [holy7c16302:124090:0]          mpool.c:43   UCX  WARN  object 0x67e02c0 was not returned to mpool ucp_requests
[1621304919.391655] [holy7c16302:124090:0]          mpool.c:43   UCX  WARN  object 0x45bff80 was not returned to mpool ucp_requests
[1621304919.391815] [holy7c16302:124084:0]          mpool.c:43   UCX  WARN  object 0x2918240 was not returned to mpool ucp_requests
[1621304919.412972] [holy7c16302:124092:0]          mpool.c:43   UCX  WARN  object 0x47bf480 was not returned to mpool ucp_requests
[1621304919.394574] [holy7c16302:124085:0]          mpool.c:43   UCX  WARN  object 0x2f3b1c0 was not returned to mpool ucp_requests
[1621304919.407018] [holy7c06203:208151:0]          mpool.c:43   UCX  WARN  object 0x3be4040 was not returned to mpool ucp_requests
[1621304919.413894] [holy7c06203:208157:0]          mpool.c:43   UCX  WARN  object 0x36aaa00 was not returned to mpool ucp_requests
[1621304919.413913] [holy7c06203:208159:0]          mpool.c:43   UCX  WARN  object 0x3b5d140 was not returned to mpool ucp_requests
[1621304919.406718] [holy7c16302:124091:0]          mpool.c:43   UCX  WARN  object 0x3fa6e40 was not returned to mpool ucp_requests
[1621304919.404001] [holy7c16209:95018:0]          mpool.c:43   UCX  WARN  object 0x3718e40 was not returned to mpool ucp_requests
[1621304919.406171] [holy7c16209:95028:0]          mpool.c:43   UCX  WARN  object 0x59c0880 was not returned to mpool ucp_requests
[1621304919.411842] [holy7c16209:95026:0]          mpool.c:43   UCX  WARN  object 0x5f42340 was not returned to mpool ucp_requests
[1621304919.411866] [holy7c16209:95026:0]          mpool.c:43   UCX  WARN  object 0x3d27940 was not returned to mpool ucp_requests
[1621304919.395422] [holy7c16209:95017:0]          mpool.c:43   UCX  WARN  object 0x3fcb800 was not returned to mpool ucp_requests
[1621304919.398587] [holy7c16209:95019:0]          mpool.c:43   UCX  WARN  object 0x28bd740 was not returned to mpool ucp_requests
[1621304919.405021] [holy7c16209:95027:0]          mpool.c:43   UCX  WARN  object 0x30d6f00 was not returned to mpool ucp_requests
[1621304919.405900] [holy7c16302:124093:0]          mpool.c:43   UCX  WARN  object 0x2c2dc40 was not returned to mpool ucp_requests
[1621304919.406581] [holy7c16302:124083:0]          mpool.c:43   UCX  WARN  object 0x30292c0 was not returned to mpool ucp_requests
[1621304919.406876] [holy7c16209:95025:0]          mpool.c:43   UCX  WARN  object 0x350ce00 was not returned to mpool ucp_requests
[1621304919.407158] [holy7c08612:177512:0]          mpool.c:43   UCX  WARN  object 0x4130d00 was not returned to mpool ucp_requests
[1621304919.409913] [holy7c08612:177520:0]          mpool.c:43   UCX  WARN  object 0x4058e40 was not returned to mpool ucp_requests
[1621304919.411394] [holy7c08612:177513:0]          mpool.c:43   UCX  WARN  object 0x31dcbc0 was not returned to mpool ucp_requests
[1621304919.421730] [holy7c08612:177510:0]          mpool.c:43   UCX  WARN  object 0x3be1e40 was not returned to mpool ucp_requests
[1621304919.423838] [holy7c08612:177519:0]          mpool.c:43   UCX  WARN  object 0x3651240 was not returned to mpool ucp_requests
[1621304919.427529] [holy7c08612:177521:0]          mpool.c:43   UCX  WARN  object 0x3316680 was not returned to mpool ucp_requests
[1621304919.426604] [holy7c08612:177511:0]          mpool.c:43   UCX  WARN  object 0x2f21f80 was not returned to mpool ucp_requests
[1621304919.426631] [holy7c08612:177511:0]          mpool.c:43   UCX  WARN  object 0x2f26580 was not returned to mpool ucp_requests
