
     Program PWSCF v.6.5 starts on 18May2021 at 21:17: 6 

     This program is part of the open-source Quantum ESPRESSO suite
     for quantum simulation of materials; please cite
         "P. Giannozzi et al., J. Phys.:Condens. Matter 21 395502 (2009);
         "P. Giannozzi et al., J. Phys.:Condens. Matter 29 465901 (2017);
          URL http://www.quantum-espresso.org", 
     in publications or presentations arising from this work. More details at
     http://www.quantum-espresso.org/quote

     Parallel version (MPI), running on    80 processors

     MPI processes distributed on     5 nodes
     R & G space division:  proc/nbgrp/npool/nimage =      80
     Reading input from YBCO_Y_cleave_5.0_sep.pwi
Warning: card &IONS ignored
Warning: card     ION_DYNAMICS = 'BFGS' ignored
Warning: card / ignored
Warning: card &CELL ignored
Warning: card     CELL_DYNAMICS = 'BFGS' ignored
Warning: card     PRESS_CONV_THR = 5 ignored
Warning: card / ignored

     Current dimensions of program PWSCF are:
     Max number of different atomic species (ntypx) = 10
     Max number of k-points (npk) =  40000
     Max angular momentum in pseudopotentials (lmaxx) =  3
     Message from routine volume:
     axis vectors are left-handed

     Subspace diagonalization in iterative solution of the eigenvalue problem:
     one sub-group per band group will be used
     scalapack distributed-memory algorithm (size of sub-group:  8*  8 procs)

     Message from routine setup:
     using ibrav=0 with symmetry is DISCOURAGED, use correct ibrav instead
 
     Parallelization info
     --------------------
     sticks:   dense  smooth     PW     G-vecs:    dense   smooth      PW
     Min         300     100     25               157004    30216    3967
     Max         301     101     26               157041    30239    4006
     Sum       24079    8031   2067             12562461  2418073  319497
 


     bravais-lattice index     =            0
     lattice parameter (alat)  =      20.5021  a.u.
     unit-cell volume          =   38505.5562 (a.u.)^3
     number of atoms/cell      =          224
     number of atomic types    =            5
     number of electrons       =      1830.00
     number of Kohn-Sham states=         1098
     kinetic-energy cutoff     =      60.0000  Ry
     charge density cutoff     =     720.0000  Ry
     convergence threshold     =      1.0E-08
     mixing beta               =       0.5000
     number of iterations used =           10  local-TF  mixing
     Exchange-correlation= SLA PW PBE PBE
                           (   1   4   3   4   0   0   0)

     celldm(1)=  20.502120  celldm(2)=   0.000000  celldm(3)=   0.000000
     celldm(4)=   0.000000  celldm(5)=   0.000000  celldm(6)=   0.000000

     crystal axes: (cart. coord. in units of alat)
               a(1) = (  -0.716599   0.697485   0.000000 )  
               a(2) = (   0.716599   0.697485   0.000000 )  
               a(3) = (   0.000000   0.000000   4.469776 )  

     reciprocal axes: (cart. coord. in units 2 pi/alat)
               b(1) = ( -0.697740  0.716861  0.000000 )  
               b(2) = (  0.697740  0.716861  0.000000 )  
               b(3) = (  0.000000  0.000000  0.223725 )  


     PseudoPot. # 1 for Ba read from file:
     ./pseudo/Ba.pbe-nsp-van.UPF
     MD5 check sum: 2b9c31dd849566dd297d80989662b7a0
     Pseudo is Ultrasoft + core correction, Zval = 10.0
     Generated by new atomic code, or converted to UPF format
     Using radial grid of  907 points,  6 beta functions with: 
                l(1) =   0
                l(2) =   0
                l(3) =   1
                l(4) =   1
                l(5) =   2
                l(6) =   2
     Q(r) pseudized with  6 coefficients,  rinner =    1.200   1.200   1.200
                                                       1.200   1.200

     PseudoPot. # 2 for Ca read from file:
     ./pseudo/Ca.pbe-nsp-van.UPF
     MD5 check sum: 6471098428ff4fa451746d08035ff179
     Pseudo is Ultrasoft + core correction, Zval = 10.0
     Generated by new atomic code, or converted to UPF format
     Using radial grid of  845 points,  6 beta functions with: 
                l(1) =   0
                l(2) =   0
                l(3) =   1
                l(4) =   1
                l(5) =   2
                l(6) =   2
     Q(r) pseudized with  6 coefficients,  rinner =    1.200   1.200   1.200
                                                       1.200   1.200

     PseudoPot. # 3 for Cu read from file:
     ./pseudo/Cu.pbe-n-van_ak.UPF
     MD5 check sum: 34e3282627ffb533726feb647e090d62
     Pseudo is Ultrasoft + core correction, Zval = 11.0
     Generated by new atomic code, or converted to UPF format
     Using radial grid of  867 points,  6 beta functions with: 
                l(1) =   0
                l(2) =   0
                l(3) =   1
                l(4) =   1
                l(5) =   2
                l(6) =   2
     Q(r) pseudized with  8 coefficients,  rinner =    1.400   1.400   1.400
                                                       1.400   1.400

     PseudoPot. # 4 for O  read from file:
     ./pseudo/O.pbe-van_ak.UPF
     MD5 check sum: 783ce7fe4c79b6a4916957118fed0856
     Pseudo is Ultrasoft, Zval =  6.0
     Generated by new atomic code, or converted to UPF format
     Using radial grid of  737 points,  4 beta functions with: 
                l(1) =   0
                l(2) =   0
                l(3) =   1
                l(4) =   1
     Q(r) pseudized with  8 coefficients,  rinner =    0.800   0.800   0.800


     PseudoPot. # 5 for Y  read from file:
     ./pseudo/Y.pbe-nsp-van.UPF
     MD5 check sum: 4412fed3ab108fed87a1b7d6a69a4a38
     Pseudo is Ultrasoft + core correction, Zval = 11.0
     Generated by new atomic code, or converted to UPF format
     Using radial grid of  885 points,  6 beta functions with: 
                l(1) =   0
                l(2) =   0
                l(3) =   1
                l(4) =   1
                l(5) =   2
                l(6) =   2
     Q(r) pseudized with  6 coefficients,  rinner =    1.200   1.200   1.200
                                                       1.200   1.200

     atomic species   valence    mass     pseudopotential
        Ba            10.00   137.32700     Ba( 1.00)
        Ca            10.00    40.07800     Ca( 1.00)
        Cu            11.00    63.54600     Cu( 1.00)
        O              6.00    15.99900     O ( 1.00)
        Y             11.00    88.90584     Y ( 1.00)

      4 Sym. Ops. (no inversion) found ( 3 have fractional translation)



   Cartesian axes

     site n.     atom                  positions (alat units)
         1           O   tau(   1) = (   0.3545921   0.8718562  -0.0077406  )
         2           O   tau(   2) = (   0.0037072   0.8718562  -0.0077406  )
         3           Cu  tau(   3) = (  -0.0002581   0.0006065   0.0080789  )
         4           Cu  tau(   4) = (  -0.0002581   0.3481364   0.0080789  )
         5           Cu  tau(   5) = (   0.3585574   0.3481364   0.0080789  )
         6           Cu  tau(   6) = (  -0.3580421   0.6980913   0.0080789  )
         7           Cu  tau(   7) = (   0.3577988   0.6971373   0.0086255  )
         8           Cu  tau(   8) = (   0.0005005   1.0465760   0.0086255  )
         9           Cu  tau(   9) = (  -0.3588016   0.3490903   0.0086255  )
        10           Cu  tau(  10) = (   0.0005005   0.6971373   0.0086255  )
        11           O   tau(  11) = (  -0.0001733   0.5225410  -0.0089757  )
        12           O   tau(  12) = (   0.3584726   0.5225410  -0.0089757  )
        13           O   tau(  13) = (  -0.0001733   1.2211724  -0.0089757  )
        14           O   tau(  14) = (  -0.3581278   0.5236867  -0.0089757  )
        15           O   tau(  15) = (  -0.3544557   0.8718562  -0.0105593  )
        16           O   tau(  16) = (  -0.0038445   0.1743714  -0.0105593  )
        17           O   tau(  17) = (   0.3588818   0.3486599   0.1817056  )
        18           O   tau(  18) = (  -0.0005825   0.3486599   0.1817056  )
        19           O   tau(  19) = (  -0.0005825   0.0000830   0.1817056  )
        20           O   tau(  20) = (  -0.3577167   0.6975677   0.1817056  )
        21           O   tau(  21) = (   0.3584283   0.6967843   0.1825784  )
        22           O   tau(  22) = (  -0.3581712   0.3494443   0.1825784  )
        23           O   tau(  23) = (  -0.0001290   0.6967843   0.1825784  )
        24           O   tau(  24) = (  -0.0001290   1.0469291   0.1825784  )
        25           Ba  tau(  25) = (   0.1791506   0.8718562   0.1908537  )
        26           Ba  tau(  26) = (   0.5374498   0.5231143   0.1919901  )
        27           Ba  tau(  27) = (  -0.1791506   0.5231143   0.1919901  )
        28           Ba  tau(  28) = (  -0.1793773   0.8718562   0.1931958  )
        29           Ba  tau(  29) = (  -0.1789238   0.1743714   0.1931958  )
        30           Ba  tau(  30) = (   0.1791506   0.5222101   0.1929368  )
        31           Ba  tau(  31) = (  -0.5374498   0.5240176   0.1929368  )
        32           Ba  tau(  32) = (   0.1791506   0.1743714   0.1992469  )
        33           Cu  tau(  33) = (  -0.3583426   0.3488452   0.3777458  )
        34           Cu  tau(  34) = (   0.3582559   0.6973834   0.3777458  )
        35           Cu  tau(  35) = (   0.0000433   0.6973834   0.3777458  )
        36           Cu  tau(  36) = (   0.0000433   1.0463299   0.3777458  )
        37           Cu  tau(  37) = (  -0.3586541   0.6975060   0.3775126  )
        38           Cu  tau(  38) = (   0.3579444   0.3487217   0.3775126  )
        39           Cu  tau(  39) = (   0.0003549   0.0000212   0.3775126  )
        40           Cu  tau(  40) = (   0.0003549   0.3487217   0.3775126  )
        41           O   tau(  41) = (  -0.0047976   0.1743714   0.3996864  )
        42           O   tau(  42) = (  -0.3535026   0.8718562   0.3996864  )
        43           O   tau(  43) = (  -0.5374498   0.6924605   0.3956991  )
        44           O   tau(  44) = (   0.1791506   0.3537672   0.3956991  )
        45           O   tau(  45) = (   0.3586385   0.8718562   0.4046840  )
        46           O   tau(  46) = (  -0.0003392   0.8718562   0.4046840  )
        47           O   tau(  47) = (  -0.0004857   0.5230571   0.4066611  )
        48           O   tau(  48) = (   0.3587850   0.5230571   0.4066611  )
        49           O   tau(  49) = (  -0.3578135   0.5231714   0.4066611  )
        50           O   tau(  50) = (  -0.0004857   1.2206562   0.4066611  )
        51           O   tau(  51) = (   0.1791506   1.0461604   0.4028931  )
        52           O   tau(  52) = (   0.1791506   0.6975521   0.4028931  )
        53           O   tau(  53) = (  -0.1792261   0.6967170   0.4025963  )
        54           O   tau(  54) = (  -0.1790731   0.3495106   0.4025963  )
        55           O   tau(  55) = (  -0.1792261   1.0469964   0.4025963  )
        56           O   tau(  56) = (   0.5375263   0.6967170   0.4025963  )
        57           Ca  tau(  57) = (   0.1791506   0.1743714   0.5358617  )
        58           Y   tau(  58) = (  -0.1811525   0.8718562   0.5373908  )
        59           Y   tau(  59) = (  -0.1771467   0.1743714   0.5373908  )
        60           Y   tau(  60) = (   0.1791506   0.8718562   0.5379568  )
        61           Y   tau(  61) = (   0.5374498   0.5231143   0.5384490  )
        62           Y   tau(  62) = (  -0.1791506   0.5231143   0.5384490  )
        63           Y   tau(  63) = (   0.1791506   0.5216598   0.5383310  )
        64           Y   tau(  64) = (  -0.5374498   0.5245688   0.5383310  )
        65           O   tau(  65) = (  -0.1787754   0.3493171   0.6712314  )
        66           O   tau(  66) = (   0.5378231   0.6969115   0.6712314  )
        67           O   tau(  67) = (  -0.1795239   1.0468019   0.6712314  )
        68           O   tau(  68) = (  -0.1795239   0.6969115   0.6712314  )
        69           O   tau(  69) = (   0.1791506   0.6972691   0.6718637  )
        70           O   tau(  70) = (   0.1791506   1.0464433   0.6718637  )
        71           O   tau(  71) = (  -0.0003880   1.2203935   0.6667490  )
        72           O   tau(  72) = (  -0.0003880   0.5233198   0.6667490  )
        73           O   tau(  73) = (   0.3586882   0.5233198   0.6667490  )
        74           O   tau(  74) = (  -0.3579112   0.5229087   0.6667490  )
        75           O   tau(  75) = (   0.3585850   0.8718562   0.6641940  )
        76           O   tau(  76) = (  -0.0002857   0.8718562   0.6641940  )
        77           O   tau(  77) = (   0.1791506   0.3535118   0.6756778  )
        78           O   tau(  78) = (  -0.5374498   0.6927158   0.6756778  )
        79           O   tau(  79) = (  -0.0043044   0.1743714   0.6710848  )
        80           O   tau(  80) = (  -0.3539948   0.8718562   0.6710848  )
        81           Cu  tau(  81) = (  -0.3586514   0.6973604   0.6974442  )
        82           Cu  tau(  82) = (   0.3579472   0.3488682   0.6974442  )
        83           Cu  tau(  83) = (   0.0003521  -0.0001254   0.6974442  )
        84           Cu  tau(  84) = (   0.0003521   0.3488682   0.6974442  )
        85           Cu  tau(  85) = (   0.0000083   1.0459401   0.6989015  )
        86           Cu  tau(  86) = (  -0.3583076   0.3484544   0.6989015  )
        87           Cu  tau(  87) = (   0.3582910   0.6977733   0.6989015  )
        88           Cu  tau(  88) = (   0.0000083   0.6977733   0.6989015  )
        89           Ba  tau(  89) = (   0.1791506   0.1743714   0.8671591  )
        90           Ba  tau(  90) = (  -0.5374498   0.5239908   0.8827639  )
        91           Ba  tau(  91) = (   0.1791506   0.5222377   0.8827639  )
        92           Ba  tau(  92) = (  -0.1785616   0.1743714   0.8784262  )
        93           Ba  tau(  93) = (  -0.1797386   0.8718562   0.8784262  )
        94           Ba  tau(  94) = (  -0.1791506   0.5231143   0.8841483  )
        95           Ba  tau(  95) = (   0.5374498   0.5231143   0.8841483  )
        96           Ba  tau(  96) = (   0.1791506   0.8718562   0.8844635  )
        97           O   tau(  97) = (   0.3607888   0.6975991   0.9037874  )
        98           O   tau(  98) = (  -0.3558097   0.3486286   0.9037874  )
        99           O   tau(  99) = (  -0.0024896   0.6975991   0.9037874  )
       100           O   tau( 100) = (  -0.0024896   1.0461143   0.9037874  )
       101           O   tau( 101) = (   0.3544087   0.3463252   0.9043663  )
       102           O   tau( 102) = (   0.0038906   0.3463252   0.9043663  )
       103           O   tau( 103) = (   0.0038906   0.0024177   0.9043663  )
       104           O   tau( 104) = (  -0.3621908   0.6999025   0.9043663  )
       105           O   tau( 105) = (   0.3314246   0.8718562   1.0783672  )
       106           O   tau( 106) = (   0.0268747   0.8718562   1.0783672  )
       107           Cu  tau( 107) = (  -0.0027882   0.0031818   1.0782086  )
       108           Cu  tau( 108) = (  -0.0027882   0.3455601   1.0782086  )
       109           Cu  tau( 109) = (   0.3610875   0.3455601   1.0782086  )
       110           Cu  tau( 110) = (  -0.3555111   0.7006675   1.0782086  )
       111           Cu  tau( 111) = (   0.3579684   0.6983604   1.0781976  )
       112           Cu  tau( 112) = (   0.0003318   1.0453529   1.0781976  )
       113           Cu  tau( 113) = (  -0.3586320   0.3478672   1.0781976  )
       114           Cu  tau( 114) = (   0.0003318   0.6983604   1.0781976  )
       115           O   tau( 115) = (  -0.0055718   0.5218801   1.0778989  )
       116           O   tau( 116) = (   0.3638720   0.5218801   1.0778989  )
       117           O   tau( 117) = (  -0.0055718   1.2218333   1.0778989  )
       118           O   tau( 118) = (  -0.3527284   0.5243475   1.0778989  )
       119           O   tau( 119) = (  -0.3170374   0.8718562   1.0783192  )
       120           O   tau( 120) = (  -0.0412618   0.1743714   1.0783192  )
       121           O   tau( 121) = (   0.3544105   0.3465040   1.2520362  )
       122           O   tau( 122) = (   0.0038887   0.3465040   1.2520362  )
       123           O   tau( 123) = (   0.0038887   0.0022389   1.2520362  )
       124           O   tau( 124) = (  -0.3621880   0.6997236   1.2520362  )
       125           O   tau( 125) = (   0.3607981   0.6973991   1.2525976  )
       126           O   tau( 126) = (  -0.3558014   0.3488295   1.2525976  )
       127           O   tau( 127) = (  -0.0024988   0.6973991   1.2525976  )
       128           O   tau( 128) = (  -0.0024988   1.0463143   1.2525976  )
       129           Ba  tau( 129) = (   0.1791506   0.8718562   1.2719528  )
       130           Ba  tau( 130) = (   0.5374498   0.5231143   1.2722763  )
       131           Ba  tau( 131) = (  -0.1791506   0.5231143   1.2722763  )
       132           Ba  tau( 132) = (  -0.1796732   0.8718562   1.2779763  )
       133           Ba  tau( 133) = (  -0.1786270   0.1743714   1.2779763  )
       134           Ba  tau( 134) = (   0.1791506   0.5222571   1.2737041  )
       135           Ba  tau( 135) = (  -0.5374498   0.5239706   1.2737041  )
       136           Ba  tau( 136) = (   0.1791506   0.1743714   1.2892268  )
       137           Cu  tau( 137) = (  -0.3583094   0.3484682   1.4575232  )
       138           Cu  tau( 138) = (   0.3582901   0.6977604   1.4575232  )
       139           Cu  tau( 139) = (   0.0000101   0.6977604   1.4575232  )
       140           Cu  tau( 140) = (   0.0000101   1.0459530   1.4575232  )
       141           Cu  tau( 141) = (  -0.3586477   0.6973567   1.4589435  )
       142           Cu  tau( 142) = (   0.3579518   0.3488710   1.4589435  )
       143           Cu  tau( 143) = (   0.0003484  -0.0001281   1.4589435  )
       144           Cu  tau( 144) = (   0.0003484   0.3488710   1.4589435  )
       145           O   tau( 145) = (  -0.0043173   0.1743714   1.4852486  )
       146           O   tau( 146) = (  -0.3539819   0.8718562   1.4852486  )
       147           O   tau( 147) = (  -0.5374498   0.6927305   1.4807174  )
       148           O   tau( 148) = (   0.1791506   0.3534971   1.4807174  )
       149           O   tau( 149) = (   0.3585795   0.8718562   1.4921587  )
       150           O   tau( 150) = (  -0.0002802   0.8718562   1.4921587  )
       151           O   tau( 151) = (  -0.0003853   0.5233134   1.4896627  )
       152           O   tau( 152) = (   0.3586855   0.5233134   1.4896627  )
       153           O   tau( 153) = (  -0.3579140   0.5229152   1.4896627  )
       154           O   tau( 154) = (  -0.0003853   1.2204000   1.4896627  )
       155           O   tau( 155) = (   0.1791506   1.0464553   1.4845361  )
       156           O   tau( 156) = (   0.1791506   0.6972571   1.4845361  )
       157           O   tau( 157) = (  -0.1795146   0.6969069   1.4851647  )
       158           O   tau( 158) = (  -0.1787846   0.3493208   1.4851647  )
       159           O   tau( 159) = (  -0.1795146   1.0468065   1.4851647  )
       160           O   tau( 160) = (   0.5378139   0.6969069   1.4851647  )
       161           Ca  tau( 161) = (   0.1791506   0.1743714   1.6205270  )
       162           Y   tau( 162) = (  -0.1811544   0.8718562   1.6189960  )
       163           Y   tau( 163) = (  -0.1771449   0.1743714   1.6189960  )
       164           Y   tau( 164) = (   0.1791506   0.8718562   1.6184328  )
       165           Y   tau( 165) = (   0.5374498   0.5231143   1.6179637  )
       166           Y   tau( 166) = (  -0.1791506   0.5231143   1.6179637  )
       167           Y   tau( 167) = (   0.1791506   0.5216524   1.6180844  )
       168           Y   tau( 168) = (  -0.5374498   0.5245761   1.6180844  )
       169           O   tau( 169) = (  -0.1790685   0.3495088   2.2146600  )
       170           O   tau( 170) = (   0.5375300   0.6967198   2.2146600  )
       171           O   tau( 171) = (  -0.1792307   1.0469936   2.2146600  )
       172           O   tau( 172) = (  -0.1792307   0.6967198   2.2146600  )
       173           O   tau( 173) = (   0.1791506   0.6975604   2.2143632  )
       174           O   tau( 174) = (   0.1791506   1.0461521   2.2143632  )
       175           O   tau( 175) = (  -0.0004848   1.2206534   2.2105989  )
       176           O   tau( 176) = (  -0.0004848   0.5230599   2.2105989  )
       177           O   tau( 177) = (   0.3587841   0.5230599   2.2105989  )
       178           O   tau( 178) = (  -0.3578144   0.5231687   2.2105989  )
       179           O   tau( 179) = (   0.3586468   0.8718562   2.2125373  )
       180           O   tau( 180) = (  -0.0003466   0.8718562   2.2125373  )
       181           O   tau( 181) = (   0.1791506   0.3537690   2.2215600  )
       182           O   tau( 182) = (  -0.5374498   0.6924586   2.2215600  )
       183           O   tau( 183) = (  -0.0047874   0.1743714   2.2175247  )
       184           O   tau( 184) = (  -0.3535118   0.8718562   2.2175247  )
       185           Cu  tau( 185) = (  -0.3586560   0.6975087   2.2397308  )
       186           Cu  tau( 186) = (   0.3579435   0.3487198   2.2397308  )
       187           Cu  tau( 187) = (   0.0003567   0.0000230   2.2397308  )
       188           Cu  tau( 188) = (   0.0003567   0.3487198   2.2397308  )
       189           Cu  tau( 189) = (   0.0000415   1.0463263   2.2394986  )
       190           Cu  tau( 190) = (  -0.3583407   0.3488406   2.2394986  )
       191           Cu  tau( 191) = (   0.3582587   0.6973871   2.2394986  )
       192           Cu  tau( 192) = (   0.0000415   0.6973871   2.2394986  )
       193           Ba  tau( 193) = (   0.1791506   0.1743714   2.4180039  )
       194           Ba  tau( 194) = (  -0.5374498   0.5240166   2.4243131  )
       195           Ba  tau( 195) = (   0.1791506   0.5222119   2.4243131  )
       196           Ba  tau( 196) = (  -0.1789220   0.1743714   2.4240569  )
       197           Ba  tau( 197) = (  -0.1793773   0.8718562   2.4240569  )
       198           Ba  tau( 198) = (  -0.1791506   0.5231143   2.4252671  )
       199           Ba  tau( 199) = (   0.5374498   0.5231143   2.4252671  )
       200           Ba  tau( 200) = (   0.1791506   0.8718562   2.4263953  )
       201           O   tau( 201) = (   0.3584302   0.6967870   2.4346650  )
       202           O   tau( 202) = (  -0.3581684   0.3494406   2.4346650  )
       203           O   tau( 203) = (  -0.0001309   0.6967870   2.4346650  )
       204           O   tau( 204) = (  -0.0001309   1.0469263   2.4346650  )
       205           O   tau( 205) = (   0.3588800   0.3486562   2.4355378  )
       206           O   tau( 206) = (  -0.0005807   0.3486562   2.4355378  )
       207           O   tau( 207) = (  -0.0005807   0.0000866   2.4355378  )
       208           O   tau( 208) = (  -0.3577186   0.6975714   2.4355378  )
       209           O   tau( 209) = (   0.3545921   0.8718562   2.6249684  )
       210           O   tau( 210) = (   0.0037081   0.8718562   2.6249684  )
       211           Cu  tau( 211) = (  -0.0002516   0.0006074   2.6091645  )
       212           Cu  tau( 212) = (  -0.0002516   0.3481345   2.6091645  )
       213           Cu  tau( 213) = (   0.3585509   0.3481345   2.6091645  )
       214           Cu  tau( 214) = (  -0.3580476   0.6980931   2.6091645  )
       215           Cu  tau( 215) = (   0.3577960   0.6971373   2.6086179  )
       216           Cu  tau( 216) = (   0.0005033   1.0465760   2.6086179  )
       217           Cu  tau( 217) = (  -0.3588035   0.3490903   2.6086179  )
       218           Cu  tau( 218) = (   0.0005033   0.6971373   2.6086179  )
       219           O   tau( 219) = (  -0.0001724   0.5225410   2.6262072  )
       220           O   tau( 220) = (   0.3584716   0.5225410   2.6262072  )
       221           O   tau( 221) = (  -0.0001724   1.2211724   2.6262072  )
       222           O   tau( 222) = (  -0.3581288   0.5236867   2.6262072  )
       223           O   tau( 223) = (  -0.3544640   0.8718562   2.6277971  )
       224           O   tau( 224) = (  -0.0038353   0.1743714   2.6277971  )

     number of k points=     4  Gaussian smearing, width (Ry)=  0.0100
                       cart. coord. in units 2pi/alat
        k(    1) = (   0.0000000   0.0000000   0.0000000), wk =   0.2222222
        k(    2) = (   0.2325801   0.2389537   0.0000000), wk =   0.8888889
        k(    3) = (   0.0000000   0.4779073   0.0000000), wk =   0.4444444
        k(    4) = (  -0.4651601  -0.0000000   0.0000000), wk =   0.4444444

     Dense  grid: 12562461 G-vectors     FFT dimensions: ( 180, 180, 800)

     Smooth grid:  2418073 G-vectors     FFT dimensions: ( 108, 108, 480)

     Estimated max dynamical RAM per process >       2.62 GB

     Estimated total dynamical RAM >     209.63 GB

     Initial potential from superposition of free atoms

     starting charge 1828.78422, renormalised to 1830.00000

     negative rho (up, down):  6.313E-01 0.000E+00
     Starting wfcs are 1602 randomized atomic wfcs

     total cpu time spent up to now is       68.0 secs

     Self-consistent Calculation

     iteration #  1     ecut=    60.00 Ry     beta= 0.50
     Davidson diagonalization with overlap
     ethr =  1.00E-02,  avg # of iterations =  2.0

     negative rho (up, down):  5.972E-01 0.000E+00

     total cpu time spent up to now is      181.4 secs

     total energy              =  -14912.48712842 Ry
     Harris-Foulkes estimate   =  -14942.65641886 Ry
     estimated scf accuracy    <     117.69583676 Ry

     iteration #  2     ecut=    60.00 Ry     beta= 0.50
     Davidson diagonalization with overlap
     ethr =  6.43E-03,  avg # of iterations =  2.0

     negative rho (up, down):  5.950E-01 0.000E+00

     total cpu time spent up to now is      290.8 secs

     total energy              =  -14922.13170579 Ry
     Harris-Foulkes estimate   =  -14926.01029644 Ry
     estimated scf accuracy    <      79.49611889 Ry

     iteration #  3     ecut=    60.00 Ry     beta= 0.50
     Davidson diagonalization with overlap
     ethr =  4.34E-03,  avg # of iterations =  1.0

     negative rho (up, down):  5.957E-01 0.000E+00

     total cpu time spent up to now is      393.8 secs

     total energy              =  -14922.46235338 Ry
     Harris-Foulkes estimate   =  -14924.57519029 Ry
     estimated scf accuracy    <      41.28879431 Ry

     iteration #  4     ecut=    60.00 Ry     beta= 0.50
     Davidson diagonalization with overlap
     ethr =  2.26E-03,  avg # of iterations =  1.0

     negative rho (up, down):  5.995E-01 0.000E+00

     total cpu time spent up to now is      498.3 secs

     total energy              =  -14922.11511308 Ry
     Harris-Foulkes estimate   =  -14923.49873063 Ry
     estimated scf accuracy    <      38.70423982 Ry

     iteration #  5     ecut=    60.00 Ry     beta= 0.50
     Davidson diagonalization with overlap
     ethr =  2.11E-03,  avg # of iterations =  1.0

     negative rho (up, down):  6.093E-01 0.000E+00

     total cpu time spent up to now is      597.2 secs

     total energy              =  -14921.41932089 Ry
     Harris-Foulkes estimate   =  -14922.72123009 Ry
     estimated scf accuracy    <      35.69950044 Ry

     iteration #  6     ecut=    60.00 Ry     beta= 0.50
     Davidson diagonalization with overlap
     ethr =  1.95E-03,  avg # of iterations =  1.2

     negative rho (up, down):  6.186E-01 0.000E+00

     total cpu time spent up to now is      697.2 secs

     total energy              =  -14921.03030927 Ry
     Harris-Foulkes estimate   =  -14922.00124318 Ry
     estimated scf accuracy    <      45.55549892 Ry

     iteration #  7     ecut=    60.00 Ry     beta= 0.50
     Davidson diagonalization with overlap
     ethr =  1.95E-03,  avg # of iterations =  3.0

     negative rho (up, down):  6.190E-01 0.000E+00

     total cpu time spent up to now is      809.1 secs

     total energy              =  -14921.22156315 Ry
     Harris-Foulkes estimate   =  -14921.87798653 Ry
     estimated scf accuracy    <      19.54462388 Ry

     iteration #  8     ecut=    60.00 Ry     beta= 0.50
     Davidson diagonalization with overlap
     ethr =  1.07E-03,  avg # of iterations =  6.0

     negative rho (up, down):  6.237E-01 0.000E+00

     total cpu time spent up to now is      938.1 secs

     total energy              =  -14921.40422617 Ry
     Harris-Foulkes estimate   =  -14921.66552950 Ry
     estimated scf accuracy    <       3.06603769 Ry

     iteration #  9     ecut=    60.00 Ry     beta= 0.50
     Davidson diagonalization with overlap
     ethr =  1.68E-04,  avg # of iterations =  8.8

     negative rho (up, down):  6.278E-01 0.000E+00

     total cpu time spent up to now is     1086.4 secs

     total energy              =  -14921.43056843 Ry
     Harris-Foulkes estimate   =  -14921.52616027 Ry
     estimated scf accuracy    <       1.91985251 Ry

     iteration # 10     ecut=    60.00 Ry     beta= 0.50
     Davidson diagonalization with overlap
     ethr =  1.05E-04,  avg # of iterations =  1.8

     negative rho (up, down):  6.282E-01 0.000E+00

     total cpu time spent up to now is     1190.8 secs

     total energy              =  -14921.49181484 Ry
     Harris-Foulkes estimate   =  -14921.49824060 Ry
     estimated scf accuracy    <       3.39541138 Ry

     iteration # 11     ecut=    60.00 Ry     beta= 0.50
     Davidson diagonalization with overlap
     ethr =  1.05E-04,  avg # of iterations =  1.0

     negative rho (up, down):  6.258E-01 0.000E+00

     total cpu time spent up to now is     1293.2 secs

     total energy              =  -14921.43392509 Ry
     Harris-Foulkes estimate   =  -14921.49827848 Ry
     estimated scf accuracy    <       3.52724350 Ry

     iteration # 12     ecut=    60.00 Ry     beta= 0.50
     Davidson diagonalization with overlap
     ethr =  1.05E-04,  avg # of iterations =  1.0

     negative rho (up, down):  6.251E-01 0.000E+00

     total cpu time spent up to now is     1394.6 secs

     total energy              =  -14921.40844740 Ry
     Harris-Foulkes estimate   =  -14921.45763617 Ry
     estimated scf accuracy    <       2.02118179 Ry

     iteration # 13     ecut=    60.00 Ry     beta= 0.50
     Davidson diagonalization with overlap
     ethr =  1.05E-04,  avg # of iterations =  1.0

     negative rho (up, down):  6.249E-01 0.000E+00

     total cpu time spent up to now is     1496.2 secs

     total energy              =  -14921.42835034 Ry
     Harris-Foulkes estimate   =  -14921.43054295 Ry
     estimated scf accuracy    <       1.10310278 Ry

     iteration # 14     ecut=    60.00 Ry     beta= 0.50
     Davidson diagonalization with overlap
     c_bands:  2 eigenvalues not converged
     ethr =  6.03E-05,  avg # of iterations =  8.8

     negative rho (up, down):  6.229E-01 0.000E+00

     total cpu time spent up to now is     1627.4 secs

     total energy              =  -14921.41475829 Ry
     Harris-Foulkes estimate   =  -14921.42925029 Ry
     estimated scf accuracy    <       0.96567757 Ry

     iteration # 15     ecut=    60.00 Ry     beta= 0.50
     Davidson diagonalization with overlap
     ethr =  5.28E-05,  avg # of iterations =  9.8

     negative rho (up, down):  6.217E-01 0.000E+00

     total cpu time spent up to now is     1761.4 secs

     total energy              =  -14921.41040912 Ry
     Harris-Foulkes estimate   =  -14921.41864523 Ry
     estimated scf accuracy    <       0.53393269 Ry

     iteration # 16     ecut=    60.00 Ry     beta= 0.50
     Davidson diagonalization with overlap
     ethr =  2.92E-05,  avg # of iterations =  3.2

     negative rho (up, down):  6.210E-01 0.000E+00

     total cpu time spent up to now is     1871.3 secs

     total energy              =  -14921.41029882 Ry
     Harris-Foulkes estimate   =  -14921.41380540 Ry
     estimated scf accuracy    <       0.29072905 Ry

     iteration # 17     ecut=    60.00 Ry     beta= 0.50
     Davidson diagonalization with overlap
     ethr =  1.59E-05,  avg # of iterations =  4.5

     negative rho (up, down):  6.232E-01 0.000E+00

     total cpu time spent up to now is     1987.9 secs

     total energy              =  -14921.39954024 Ry
     Harris-Foulkes estimate   =  -14921.41078774 Ry
     estimated scf accuracy    <       0.19844935 Ry

     iteration # 18     ecut=    60.00 Ry     beta= 0.50
     Davidson diagonalization with overlap
     c_bands:  2 eigenvalues not converged
     ethr =  1.08E-05,  avg # of iterations = 17.5

     negative rho (up, down):  6.228E-01 0.000E+00

     total cpu time spent up to now is     2160.4 secs

     total energy              =  -14921.39617863 Ry
     Harris-Foulkes estimate   =  -14921.40238588 Ry
     estimated scf accuracy    <       0.12659118 Ry

     iteration # 19     ecut=    60.00 Ry     beta= 0.50
     Davidson diagonalization with overlap
     ethr =  6.92E-06,  avg # of iterations =  6.0

     negative rho (up, down):  6.343E-01 0.000E+00

     total cpu time spent up to now is     2282.5 secs

     total energy              =  -14921.39248883 Ry
     Harris-Foulkes estimate   =  -14921.39813449 Ry
     estimated scf accuracy    <       0.09833541 Ry

     iteration # 20     ecut=    60.00 Ry     beta= 0.50
     Davidson diagonalization with overlap
     c_bands:  1 eigenvalues not converged
     ethr =  5.37E-06,  avg # of iterations = 11.8

     negative rho (up, down):  6.409E-01 0.000E+00

     total cpu time spent up to now is     2426.2 secs

     total energy              =  -14921.38909850 Ry
     Harris-Foulkes estimate   =  -14921.39321293 Ry
     estimated scf accuracy    <       0.06569023 Ry

     iteration # 21     ecut=    60.00 Ry     beta= 0.50
     Davidson diagonalization with overlap
     ethr =  3.59E-06,  avg # of iterations = 13.5

     negative rho (up, down):  6.584E-01 0.000E+00

     total cpu time spent up to now is     2580.9 secs

     total energy              =  -14921.38562797 Ry
     Harris-Foulkes estimate   =  -14921.38992771 Ry
     estimated scf accuracy    <       0.06036196 Ry

     iteration # 22     ecut=    60.00 Ry     beta= 0.50
     Davidson diagonalization with overlap
     ethr =  3.30E-06,  avg # of iterations = 12.8

     negative rho (up, down):  6.275E-01 0.000E+00

     total cpu time spent up to now is     2734.5 secs

     total energy              =  -14921.38590030 Ry
     Harris-Foulkes estimate   =  -14921.38702035 Ry
     estimated scf accuracy    <       0.01385828 Ry

     iteration # 23     ecut=    60.00 Ry     beta= 0.50
     Davidson diagonalization with overlap
     c_bands:  1 eigenvalues not converged
     c_bands:  2 eigenvalues not converged
     ethr =  7.57E-07,  avg # of iterations = 15.2

     negative rho (up, down):  6.316E-01 0.000E+00

     total cpu time spent up to now is     2897.0 secs

     total energy              =  -14921.38540722 Ry
     Harris-Foulkes estimate   =  -14921.38637583 Ry
     estimated scf accuracy    <       0.01065765 Ry

     iteration # 24     ecut=    60.00 Ry     beta= 0.50
     Davidson diagonalization with overlap
     c_bands:  1 eigenvalues not converged
     ethr =  5.82E-07,  avg # of iterations = 13.0

     negative rho (up, down):  6.281E-01 0.000E+00

     total cpu time spent up to now is     3049.3 secs

     total energy              =  -14921.38534894 Ry
     Harris-Foulkes estimate   =  -14921.38562907 Ry
     estimated scf accuracy    <       0.00486213 Ry

     iteration # 25     ecut=    60.00 Ry     beta= 0.50
     Davidson diagonalization with overlap
     ethr =  2.66E-07,  avg # of iterations = 10.8

     negative rho (up, down):  6.232E-01 0.000E+00

     total cpu time spent up to now is     3196.6 secs

     total energy              =  -14921.38530787 Ry
     Harris-Foulkes estimate   =  -14921.38558536 Ry
     estimated scf accuracy    <       0.00547116 Ry

     iteration # 26     ecut=    60.00 Ry     beta= 0.50
     Davidson diagonalization with overlap
     ethr =  2.66E-07,  avg # of iterations =  5.2

     negative rho (up, down):  6.255E-01 0.000E+00

     total cpu time spent up to now is     3313.5 secs

     total energy              =  -14921.38550678 Ry
     Harris-Foulkes estimate   =  -14921.38549306 Ry
     estimated scf accuracy    <       0.00231709 Ry

     iteration # 27     ecut=    60.00 Ry     beta= 0.50
     Davidson diagonalization with overlap
     ethr =  1.27E-07,  avg # of iterations =  6.5

     negative rho (up, down):  6.263E-01 0.000E+00

     total cpu time spent up to now is     3437.6 secs

     total energy              =  -14921.38554947 Ry
     Harris-Foulkes estimate   =  -14921.38559371 Ry
     estimated scf accuracy    <       0.00065330 Ry

     iteration # 28     ecut=    60.00 Ry     beta= 0.50
     Davidson diagonalization with overlap
     ethr =  3.57E-08,  avg # of iterations =  3.2

     negative rho (up, down):  6.268E-01 0.000E+00

     total cpu time spent up to now is     3550.2 secs

     total energy              =  -14921.38556514 Ry
     Harris-Foulkes estimate   =  -14921.38558558 Ry
     estimated scf accuracy    <       0.00042929 Ry

     iteration # 29     ecut=    60.00 Ry     beta= 0.50
     Davidson diagonalization with overlap
     ethr =  2.35E-08,  avg # of iterations =  2.0

     negative rho (up, down):  6.289E-01 0.000E+00

     total cpu time spent up to now is     3655.2 secs

     total energy              =  -14921.38558278 Ry
     Harris-Foulkes estimate   =  -14921.38559009 Ry
     estimated scf accuracy    <       0.00019394 Ry

     iteration # 30     ecut=    60.00 Ry     beta= 0.50
     Davidson diagonalization with overlap
     ethr =  1.06E-08,  avg # of iterations =  2.0

     negative rho (up, down):  6.300E-01 0.000E+00

     total cpu time spent up to now is     3761.4 secs

     total energy              =  -14921.38558866 Ry
     Harris-Foulkes estimate   =  -14921.38559388 Ry
     estimated scf accuracy    <       0.00010804 Ry

     iteration # 31     ecut=    60.00 Ry     beta= 0.50
     Davidson diagonalization with overlap
     ethr =  5.90E-09,  avg # of iterations =  1.0

     negative rho (up, down):  6.300E-01 0.000E+00

     total cpu time spent up to now is     3862.4 secs

     total energy              =  -14921.38558975 Ry
     Harris-Foulkes estimate   =  -14921.38559359 Ry
     estimated scf accuracy    <       0.00006494 Ry

     iteration # 32     ecut=    60.00 Ry     beta= 0.50
     Davidson diagonalization with overlap
     ethr =  3.55E-09,  avg # of iterations =  1.0

     negative rho (up, down):  6.304E-01 0.000E+00

     total cpu time spent up to now is     3964.3 secs

     total energy              =  -14921.38559079 Ry
     Harris-Foulkes estimate   =  -14921.38559257 Ry
     estimated scf accuracy    <       0.00004499 Ry

     iteration # 33     ecut=    60.00 Ry     beta= 0.50
     Davidson diagonalization with overlap
     ethr =  2.46E-09,  avg # of iterations =  1.0

     negative rho (up, down):  6.306E-01 0.000E+00

     total cpu time spent up to now is     4070.3 secs

     total energy              =  -14921.38558994 Ry
     Harris-Foulkes estimate   =  -14921.38559157 Ry
     estimated scf accuracy    <       0.00002354 Ry

     iteration # 34     ecut=    60.00 Ry     beta= 0.50
     Davidson diagonalization with overlap
     ethr =  1.29E-09,  avg # of iterations =  2.0

     negative rho (up, down):  6.309E-01 0.000E+00

     total cpu time spent up to now is     4178.3 secs

     total energy              =  -14921.38558905 Ry
     Harris-Foulkes estimate   =  -14921.38559053 Ry
     estimated scf accuracy    <       0.00002018 Ry

     iteration # 35     ecut=    60.00 Ry     beta= 0.50
     Davidson diagonalization with overlap
     ethr =  1.10E-09,  avg # of iterations =  2.0

     negative rho (up, down):  6.310E-01 0.000E+00

     total cpu time spent up to now is     4284.1 secs

     total energy              =  -14921.38558923 Ry
     Harris-Foulkes estimate   =  -14921.38558953 Ry
     estimated scf accuracy    <       0.00000455 Ry

     iteration # 36     ecut=    60.00 Ry     beta= 0.50
     Davidson diagonalization with overlap
     ethr =  2.49E-10,  avg # of iterations =  1.0

     negative rho (up, down):  6.312E-01 0.000E+00

     total cpu time spent up to now is     4385.7 secs

     total energy              =  -14921.38558888 Ry
     Harris-Foulkes estimate   =  -14921.38558931 Ry
     estimated scf accuracy    <       0.00000272 Ry

     iteration # 37     ecut=    60.00 Ry     beta= 0.50
     Davidson diagonalization with overlap
     ethr =  1.49E-10,  avg # of iterations =  1.0

     negative rho (up, down):  6.312E-01 0.000E+00

     total cpu time spent up to now is     4485.0 secs

     total energy              =  -14921.38558891 Ry
     Harris-Foulkes estimate   =  -14921.38558897 Ry
     estimated scf accuracy    <       0.00000300 Ry

     iteration # 38     ecut=    60.00 Ry     beta= 0.50
     Davidson diagonalization with overlap
     ethr =  1.49E-10,  avg # of iterations =  1.0

     negative rho (up, down):  6.312E-01 0.000E+00

     total cpu time spent up to now is     4585.3 secs

     total energy              =  -14921.38558894 Ry
     Harris-Foulkes estimate   =  -14921.38558899 Ry
     estimated scf accuracy    <       0.00000186 Ry

     iteration # 39     ecut=    60.00 Ry     beta= 0.50
     Davidson diagonalization with overlap
     ethr =  1.01E-10,  avg # of iterations =  1.0

     negative rho (up, down):  6.311E-01 0.000E+00

     total cpu time spent up to now is     4685.2 secs

     total energy              =  -14921.38558896 Ry
     Harris-Foulkes estimate   =  -14921.38558896 Ry
     estimated scf accuracy    <       0.00000136 Ry

     iteration # 40     ecut=    60.00 Ry     beta= 0.50
     Davidson diagonalization with overlap
     ethr =  7.45E-11,  avg # of iterations =  1.0

     negative rho (up, down):  6.312E-01 0.000E+00

     total cpu time spent up to now is     4785.3 secs

     total energy              =  -14921.38558889 Ry
     Harris-Foulkes estimate   =  -14921.38558897 Ry
     estimated scf accuracy    <       0.00000095 Ry

     iteration # 41     ecut=    60.00 Ry     beta= 0.50
     Davidson diagonalization with overlap
     ethr =  5.16E-11,  avg # of iterations =  1.0

     negative rho (up, down):  6.312E-01 0.000E+00

     total cpu time spent up to now is     4888.7 secs

     total energy              =  -14921.38558888 Ry
     Harris-Foulkes estimate   =  -14921.38558891 Ry
     estimated scf accuracy    <       0.00000033 Ry

     iteration # 42     ecut=    60.00 Ry     beta= 0.50
     Davidson diagonalization with overlap
     ethr =  1.83E-11,  avg # of iterations =  1.2

     negative rho (up, down):  6.312E-01 0.000E+00

     total cpu time spent up to now is     4990.0 secs

     total energy              =  -14921.38558886 Ry
     Harris-Foulkes estimate   =  -14921.38558889 Ry
     estimated scf accuracy    <       0.00000012 Ry

     iteration # 43     ecut=    60.00 Ry     beta= 0.50
     Davidson diagonalization with overlap
     ethr =  6.79E-12,  avg # of iterations =  1.0

     negative rho (up, down):  6.312E-01 0.000E+00

     total cpu time spent up to now is     5090.4 secs

     total energy              =  -14921.38558882 Ry
     Harris-Foulkes estimate   =  -14921.38558886 Ry
     estimated scf accuracy    <       0.00000009 Ry

     iteration # 44     ecut=    60.00 Ry     beta= 0.50
     Davidson diagonalization with overlap
     ethr =  4.78E-12,  avg # of iterations =  1.0

     negative rho (up, down):  6.313E-01 0.000E+00

     total cpu time spent up to now is     5193.8 secs

     total energy              =  -14921.38558876 Ry
     Harris-Foulkes estimate   =  -14921.38558882 Ry
     estimated scf accuracy    <       0.00000006 Ry

     iteration # 45     ecut=    60.00 Ry     beta= 0.50
     Davidson diagonalization with overlap
     ethr =  3.08E-12,  avg # of iterations =  1.0

     negative rho (up, down):  6.313E-01 0.000E+00

     total cpu time spent up to now is     5295.4 secs

     total energy              =  -14921.38558869 Ry
     Harris-Foulkes estimate   =  -14921.38558876 Ry
     estimated scf accuracy    <       0.00000004 Ry

     iteration # 46     ecut=    60.00 Ry     beta= 0.50
     Davidson diagonalization with overlap
     ethr =  2.26E-12,  avg # of iterations =  1.0

     negative rho (up, down):  6.313E-01 0.000E+00

     total cpu time spent up to now is     5396.5 secs

     total energy              =  -14921.38558869 Ry
     Harris-Foulkes estimate   =  -14921.38558869 Ry
     estimated scf accuracy    <       0.00000002 Ry

     iteration # 47     ecut=    60.00 Ry     beta= 0.50
     Davidson diagonalization with overlap
     ethr =  9.75E-13,  avg # of iterations =  1.0

     negative rho (up, down):  6.313E-01 0.000E+00

     total cpu time spent up to now is     5494.9 secs

     End of self-consistent calculation

          k = 0.0000 0.0000 0.0000 (302239 PWs)   bands (ev):

   -41.3965 -41.3902 -41.3894 -41.3798 -41.3792 -41.3488 -41.3472 -39.0279
   -38.5573 -38.5299 -38.5270 -38.5219 -38.5210 -38.5090 -38.5038 -36.0943
   -23.4537 -23.3597 -23.3467 -23.3176 -23.2906 -23.2066 -23.1822 -23.1619
   -23.0958 -23.0810 -23.0770 -23.0614 -23.0604 -23.0602 -23.0434 -23.0311
   -22.9575 -22.9455 -22.9294 -22.9157 -22.8845 -22.8043 -22.7661 -22.7500
   -22.6843 -22.6788 -22.6724 -22.6598 -22.6583 -22.6555 -22.6385 -22.5512
   -21.5595 -21.5344 -21.5335 -21.5310 -21.5136 -21.4916 -21.4678 -21.4600
   -21.4557 -21.4463 -21.4049 -21.4002 -21.3818 -21.3630 -21.3546 -21.3458
   -21.3401 -21.3127 -21.3096 -21.2463 -21.2424 -20.1034 -20.0758 -20.0601
   -19.1396 -19.1013 -19.0562 -19.0530 -19.0236 -18.8692 -18.8563 -18.8550
   -18.8486 -18.8414 -18.8398 -18.8376 -18.8290 -18.8281 -18.8195 -18.8106
   -18.6557 -18.6513 -18.6301 -18.5320 -18.5240 -17.3536 -17.3248 -17.3170
   -16.5387 -16.2347 -16.2051 -16.1961 -16.1359 -16.0574 -15.9907 -15.9313
   -15.8866 -15.8298 -15.8218 -15.7870 -15.7434 -15.6872 -15.6360 -15.6223
   -15.4844 -15.3318 -15.2462 -15.2385 -15.2119 -15.2015 -15.1935 -15.1879
   -15.1151 -15.0824 -15.0564 -15.0496 -15.0307 -14.9976 -14.9969 -14.9899
   -14.9547 -14.9500 -14.9492 -14.9463 -14.9327 -14.9211 -14.9178 -14.9092
   -14.8750 -14.8713 -14.8284 -14.8268 -14.8255 -14.8234 -14.8156 -14.8143
   -14.7986 -14.7962 -14.7661 -14.7352 -14.7131 -14.7065 -14.6866 -14.6790
   -14.6583 -14.6495 -14.6436 -14.6348 -14.6261 -14.6059 -14.5467 -14.5435
   -14.5388 -14.5318 -14.5122 -14.5101 -14.4975 -14.4541 -14.4439 -14.4376
   -14.3928 -14.3868 -14.3757 -14.3341 -14.3216 -14.3191 -14.3082 -14.2983
   -14.2916 -14.2727 -14.2704 -14.2553 -14.2526 -14.2468 -14.2357 -14.2275
   -14.1944 -14.1934 -14.1920 -14.1908 -14.1455 -14.1348 -14.1219 -14.1104
   -14.1079 -14.1068 -14.0984 -14.0962 -14.0952 -14.0943 -14.0811 -14.0754
   -14.0632 -14.0541 -14.0506 -14.0501 -14.0012 -13.9636 -13.9489 -13.9379
   -13.8849 -13.8141 -13.7751 -13.6855 -13.6572 -13.6460 -13.6452 -13.4685
    -9.3104  -9.1654  -9.0510  -8.9097  -8.8792  -8.8783  -8.8354  -8.8279
    -8.8135  -8.8075  -8.7954  -8.7856  -8.7457  -8.7229  -8.7134  -8.6555
    -8.6517  -8.6395  -8.6386  -8.6280  -8.6054  -8.5474  -8.5136  -8.4828
    -8.4797  -8.4466  -8.4207  -8.4099  -8.4082  -8.4034  -8.4003  -8.3813
    -8.3778  -8.3750  -8.3734  -8.3700  -8.3665  -8.3495  -8.3476  -8.3152
    -8.3076  -8.2958  -8.2945  -8.2855  -8.2812  -8.2784  -8.2758  -8.2755
    -8.2637  -8.2541  -8.2046  -8.1979  -8.1883  -8.1839  -8.1638  -8.1532
    -8.1329  -8.0914  -8.0864  -8.0738  -8.0507  -8.0498  -8.0286  -8.0231
    -8.0170  -8.0145  -7.9995  -7.9606  -7.9487  -7.9353  -7.9184  -7.9146
    -7.9145  -7.9123  -7.9110  -7.8957  -7.8938  -7.8820  -7.8820  -7.8724
    -7.8360  -7.8260  -7.8164  -7.8071  -7.7863  -7.7644  -7.7507  -7.6776
    -7.6751  -7.6749  -7.6560  -7.6530  -7.6510  -7.6157  -7.5269  -7.5167
    -5.1461  -4.6352  -4.1168  -4.1164  -4.1134  -4.0870  -4.0710  -4.0441
    -3.9086  -3.6545  -3.6096  -3.4990  -3.4931  -3.4911  -3.4860  -3.4858
    -3.4255  -3.4093  -3.4030  -3.3639  -3.3117  -3.3019  -3.2809  -3.2738
    -3.2284  -3.2275  -3.2064  -3.1834  -3.1632  -3.1416  -3.1283  -3.1262
    -3.1138  -3.1083  -3.1047  -3.0970  -2.9600  -2.9402  -2.8778  -2.8366
    -2.7690  -2.7541  -2.7403  -2.7226  -2.7212  -2.7190  -2.7103  -2.6593
    -2.6485  -2.6466  -2.6460  -2.6299  -2.6218  -2.6207  -2.6155  -2.5705
    -2.5651  -2.5597  -2.5450  -2.5446  -2.5266  -2.5229  -2.5216  -2.5117
    -2.5076  -2.4942  -2.4827  -2.4720  -2.4703  -2.4641  -2.4528  -2.4511
    -2.4435  -2.4393  -2.4380  -2.4354  -2.4328  -2.4251  -2.4224  -2.4171
    -2.4060  -2.3878  -2.3743  -2.3660  -2.3374  -2.3349  -2.3339  -2.3271
    -2.3229  -2.3092  -2.3011  -2.2979  -2.2945  -2.2727  -2.2554  -2.2521
    -2.2473  -2.2405  -2.2395  -2.2388  -2.2358  -2.2354  -2.2327  -2.2288
    -2.2197  -2.2080  -2.1561  -2.1486  -2.1362  -2.1292  -2.1245  -2.1225
    -2.0907  -2.0857  -2.0372  -1.9866  -1.9763  -1.9762  -1.9614  -1.9579
    -1.9471  -1.9469  -1.9404  -1.9375  -1.9279  -1.9121  -1.9045  -1.8775
    -1.8757  -1.8595  -1.8365  -1.8354  -1.8295  -1.8143  -1.8053  -1.7963
    -1.7839  -1.7715  -1.7708  -1.7563  -1.7420  -1.7370  -1.7131  -1.6915
    -1.6732  -1.6484  -1.6471  -1.6174  -1.6063  -1.5964  -1.5772  -1.5680
    -1.5405  -1.5149  -1.5034  -1.4993  -1.4771  -1.4741  -1.4567  -1.4543
    -1.4163  -1.3985  -1.3666  -1.3198  -1.3165  -1.3092  -1.3091  -1.3075
    -1.3040  -1.3021  -1.3010  -1.3009  -1.2928  -1.2813  -1.2796  -1.2628
    -1.2583  -1.2532  -1.2405  -1.2326  -1.2305  -1.2270  -1.2096  -1.1979
    -1.1872  -1.1808  -1.1807  -1.1710  -1.1545  -1.1526  -1.1410  -1.1393
    -1.1359  -1.1324  -1.1101  -1.0877  -1.0718  -1.0678  -1.0663  -1.0607
    -1.0574  -1.0556  -1.0508  -1.0370  -1.0258  -1.0225  -1.0182  -1.0104
    -1.0047  -1.0006  -0.9744  -0.9714  -0.9497  -0.9484  -0.9410  -0.9366
    -0.9290  -0.9258  -0.9233  -0.9072  -0.9040  -0.8761  -0.8737  -0.8702
    -0.8694  -0.8588  -0.8394  -0.8134  -0.8012  -0.7984  -0.7965  -0.7830
    -0.7798  -0.7693  -0.7561  -0.7480  -0.7448  -0.7361  -0.7226  -0.7030
    -0.7024  -0.7000  -0.6990  -0.6902  -0.6893  -0.6512  -0.6507  -0.6485
    -0.6473  -0.6343  -0.6297  -0.6214  -0.5970  -0.5903  -0.5889  -0.5828
    -0.5822  -0.5684  -0.5644  -0.5621  -0.5476  -0.5474  -0.5446  -0.5292
    -0.5241  -0.5161  -0.5034  -0.4996  -0.4909  -0.4731  -0.4681  -0.4617
    -0.4538  -0.4513  -0.4467  -0.4230  -0.4150  -0.4149  -0.4094  -0.3962
    -0.3841  -0.3549  -0.3277  -0.3159  -0.3144  -0.3028  -0.3017  -0.3006
    -0.2770  -0.2731  -0.2562  -0.2306  -0.2298  -0.2296  -0.2279  -0.2114
    -0.2097  -0.2066  -0.1980  -0.1931  -0.1812  -0.1201  -0.0981  -0.0974
    -0.0895  -0.0712  -0.0576  -0.0492  -0.0450  -0.0410  -0.0324  -0.0311
    -0.0214  -0.0193  -0.0007   0.0130   0.0259   0.0556   0.0596   0.0631
     0.0641   0.0668   0.0755   0.0763   0.0864   0.0970   0.1027   0.1030
     0.1041   0.1046   0.1121   0.1220   0.1237   0.1240   0.1274   0.1397
     0.1586   0.1748   0.1779   0.1886   0.2076   0.2077   0.2179   0.2194
     0.2252   0.2295   0.2312   0.2372   0.2460   0.2478   0.2480   0.2518
     0.2523   0.2529   0.2563   0.2610   0.2700   0.2905   0.3086   0.3096
     0.3129   0.3138   0.3191   0.3295   0.3321   0.3446   0.3544   0.3549
     0.3561   0.3573   0.3764   0.3915   0.3993   0.4081   0.4126   0.4180
     0.4349   0.4397   0.4400   0.4723   0.4738   0.5001   0.5133   0.5282
     0.5312   0.5359   0.5364   0.5383   0.5449   0.5917   0.5987   0.6163
     0.6344   0.6521   0.6524   0.6663   0.6739   0.6962   0.6996   0.7350
     0.7375   0.7497   0.7536   0.7549   0.7648   0.7677   0.7899   0.7918
     0.8158   0.8316   0.8317   0.8325   0.8339   0.8369   0.8386   0.8550
     0.8660   0.8706   0.8728   0.8845   0.8912   0.8929   0.8930   0.8971
     0.8994   0.9066   0.9075   0.9183   0.9272   0.9274   0.9336   0.9409
     0.9421   0.9423   0.9430   0.9437   0.9704   0.9766   0.9935   1.0064
     1.0169   1.0229   1.0313   1.0314   1.0342   1.0373   1.0451   1.0470
     1.0496   1.0603   1.0608   1.0646   1.0662   1.0664   1.0677   1.0690
     1.0694   1.0696   1.0861   1.0890   1.1086   1.1109   1.1125   1.1193
     1.1357   1.1385   1.1580   1.1596   1.1644   1.1692   1.1777   1.1955
     1.1957   1.1971   1.2177   1.2194   1.2286   1.2394   1.2762   1.2840
     1.2952   1.3011   1.3109   1.3116   1.3267   1.3277   1.3302   1.3417
     1.3526   1.3554   1.3724   1.3791   1.3849   1.3905   1.3908   1.3958
     1.3960   1.3999   1.4109   1.4349   1.4414   1.4595   1.4603   1.4624
     1.4663   1.4667   1.4731   1.4836   1.4902   1.4967   1.5005   1.5071
     1.5093   1.5098   1.5129   1.5133   1.5717   1.5779   1.5804   1.5811
     1.5861   1.5865   1.5878   1.5921   1.6021   1.6031   1.6112   1.6227
     1.6307   1.6311   1.6408   1.6446   1.6528   1.6531   1.6584   1.6635
     1.6708   1.6820   1.6823   1.6834   1.6899   1.7086   1.7120   1.7190
     1.7193   1.7218   1.7345   1.7372   1.7410   1.7451   1.7492   1.7849
     1.8004   1.8084   1.8179   1.8358   1.8408   1.8603   1.8639   1.8649
     1.8787   1.8795   1.8822   1.9043   1.9117   1.9316   1.9552   1.9697
     1.9848   2.0120   2.0249   2.0547   2.0655   2.0678   2.0736   2.0757
     2.0776   2.0784   2.1157   2.1210   2.1300   2.1344   2.1467   2.1486
     2.1622   2.1691   2.1794   2.1922   2.1982   2.2036   2.2221   2.2558
     2.2688   2.2746   2.2811   2.2956   2.3017   2.3375   2.3682   2.4426
     2.4603   2.5007   2.5018   2.5087   2.5247   2.5439   2.5757   2.5761
     2.5861   2.5876   2.6394   2.6964   2.7105   2.7782   2.7785   2.7810
     2.7870   2.7913   2.7940   2.8849   2.8941   2.9261   2.9368   2.9437
     2.9585   2.9587   2.9608   2.9652   2.9654   3.0892   3.1235   3.1251
     3.1343   3.1702   3.1896   3.2585   3.3837   3.3889   3.4172   3.4680
     3.4690   3.4736   3.7023   3.7289   3.8654   3.8986   3.9263   3.9557
     3.9934   4.0094   4.2482   4.2686   4.2785   4.3442   4.4041   4.4195
     4.4341   4.5093   4.5120   4.5457   4.6737   4.6793   4.7273   4.7616
     4.7740   4.7827   4.8308   4.8713   4.8930   4.9891   5.0037   5.0162
     5.2695   5.2783   5.3915   5.5924   5.6047   5.6209   5.8510   6.0241
     6.0916   6.1253   6.1393   6.2184   6.2359   6.2381   6.2489   6.2491
     6.2503   6.2527   6.3053   6.3360   6.3551   6.3589   6.3934   6.3992
     6.4024   6.4032   6.4248   6.4270   6.4341   6.4387   6.4656   6.4914
     6.5448   6.6005   6.6310   6.6937   6.6949   6.7614   6.7741   6.7901
     6.8062   6.8208   6.8969   6.9184   6.9760   6.9819   7.0685   7.0789
     7.1655   7.1900   7.1908   7.2097   7.2318   7.2691   7.2922   7.3297
     7.4821   7.4835   7.4922   7.5783   7.6553   7.6727   7.6803   7.7053
     7.7752   7.8119   7.8276   7.8893   7.8928   7.8941   7.8977   7.9281
     7.9415   7.9449   7.9628   7.9816   7.9817   8.0076   8.0677   8.1105
     8.1116   8.1125   8.1298   8.1673   8.1835   8.1989   8.2074   8.2250
     8.2255   8.2273   8.2561   8.3184   8.3333   8.3358   8.3672   8.3765
     8.3882   8.3911   8.3926   8.4220   8.4231   8.4432   8.4559   8.4792
     8.4856   8.5135   8.5152   8.5372   8.5829   8.5859   8.5870   8.6043
     8.6263   8.6619

          k = 0.2326 0.2390 0.0000 (302207 PWs)   bands (ev):

   -41.3964 -41.3905 -41.3892 -41.3800 -41.3790 -41.3484 -41.3476 -39.0279
   -38.5573 -38.5293 -38.5277 -38.5219 -38.5213 -38.5075 -38.5049 -36.0943
   -23.4460 -23.3773 -23.3461 -23.3069 -23.2944 -23.1884 -23.1795 -23.1608
   -23.1401 -23.0854 -23.0815 -23.0617 -23.0563 -23.0476 -23.0195 -23.0121
   -22.9721 -22.9717 -22.9251 -22.9038 -22.8882 -22.7855 -22.7661 -22.7456
   -22.7356 -22.6800 -22.6749 -22.6619 -22.6521 -22.6429 -22.6067 -22.5656
   -21.5471 -21.5340 -21.5299 -21.5289 -21.5102 -21.5027 -21.4746 -21.4710
   -21.4570 -21.4429 -21.4245 -21.4048 -21.3834 -21.3687 -21.3632 -21.3149
   -21.3106 -21.3050 -21.2995 -21.2620 -21.2598 -20.1034 -20.0759 -20.0601
   -19.1049 -19.0698 -19.0536 -19.0288 -19.0218 -19.0016 -18.9687 -18.9374
   -18.8570 -18.8495 -18.8327 -18.8304 -18.8168 -18.7395 -18.7056 -18.6882
   -18.6540 -18.6506 -18.6424 -18.5778 -18.5715 -17.3538 -17.3267 -17.3185
   -16.4974 -16.3686 -16.1806 -16.1689 -16.1000 -16.0671 -15.9963 -15.8652
   -15.8526 -15.7965 -15.7861 -15.7736 -15.7582 -15.7129 -15.6622 -15.6120
   -15.5172 -15.4914 -15.2825 -15.2168 -15.2038 -15.1999 -15.1866 -15.1283
   -15.1019 -15.0801 -15.0513 -15.0328 -15.0321 -15.0240 -15.0126 -14.9958
   -14.9838 -14.9720 -14.9485 -14.9407 -14.9187 -14.9121 -14.8953 -14.8900
   -14.8856 -14.8383 -14.8281 -14.8210 -14.7969 -14.7943 -14.7851 -14.7848
   -14.7803 -14.7643 -14.7619 -14.7549 -14.7536 -14.7153 -14.6896 -14.6652
   -14.6509 -14.6446 -14.6334 -14.6299 -14.6078 -14.5902 -14.5794 -14.5594
   -14.5473 -14.5257 -14.5248 -14.5090 -14.4976 -14.4874 -14.4837 -14.4478
   -14.4413 -14.4179 -14.4066 -14.3625 -14.3331 -14.3132 -14.3013 -14.2829
   -14.2703 -14.2612 -14.2587 -14.2504 -14.2409 -14.2329 -14.2174 -14.2009
   -14.1971 -14.1771 -14.1736 -14.1542 -14.1510 -14.1458 -14.1428 -14.1363
   -14.1298 -14.1267 -14.1220 -14.1124 -14.1047 -14.0973 -14.0937 -14.0803
   -14.0559 -14.0494 -14.0436 -14.0306 -14.0069 -13.9913 -13.9672 -13.9249
   -13.8217 -13.7791 -13.7693 -13.7370 -13.6997 -13.6830 -13.5654 -13.4941
    -9.2070  -9.0582  -9.0147  -8.9326  -8.8778  -8.8620  -8.8336  -8.8178
    -8.7996  -8.7587  -8.7470  -8.7302  -8.7077  -8.6797  -8.6672  -8.6149
    -8.6078  -8.5929  -8.5692  -8.5515  -8.5504  -8.5082  -8.4944  -8.4862
    -8.4730  -8.4618  -8.4472  -8.4442  -8.4211  -8.4059  -8.3981  -8.3947
    -8.3932  -8.3929  -8.3784  -8.3682  -8.3629  -8.3520  -8.3466  -8.3345
    -8.3212  -8.3162  -8.3132  -8.3073  -8.2966  -8.2801  -8.2466  -8.2440
    -8.2370  -8.2118  -8.1843  -8.1763  -8.1717  -8.1630  -8.1569  -8.1401
    -8.1326  -8.1209  -8.1101  -8.1019  -8.0924  -8.0689  -8.0518  -8.0440
    -8.0285  -8.0223  -8.0174  -8.0067  -7.9878  -7.9825  -7.9785  -7.9648
    -7.9537  -7.9529  -7.9377  -7.9167  -7.9134  -7.9042  -7.8967  -7.8858
    -7.8646  -7.8596  -7.8564  -7.8290  -7.8202  -7.7860  -7.7601  -7.7364
    -7.7180  -7.7134  -7.6693  -7.6562  -7.6333  -7.6033  -7.5876  -7.5796
    -4.9932  -4.5860  -4.4745  -4.1078  -4.0934  -4.0404  -4.0084  -3.9416
    -3.9307  -3.6871  -3.6117  -3.5623  -3.5496  -3.5222  -3.4236  -3.4198
    -3.4010  -3.3986  -3.3879  -3.3221  -3.2747  -3.2695  -3.2694  -3.2040
    -3.2008  -3.1914  -3.1899  -3.1611  -3.1605  -3.1531  -3.1420  -3.1255
    -3.1245  -3.1144  -3.0912  -3.0486  -3.0333  -2.9430  -2.9332  -2.9031
    -2.8836  -2.8701  -2.8543  -2.8471  -2.8329  -2.8244  -2.8146  -2.7764
    -2.7491  -2.7444  -2.7218  -2.7087  -2.6858  -2.6536  -2.6215  -2.6039
    -2.5972  -2.5920  -2.5844  -2.5779  -2.5434  -2.5415  -2.5287  -2.4948
    -2.4852  -2.4811  -2.4691  -2.4587  -2.4562  -2.4560  -2.4446  -2.4423
    -2.4299  -2.4296  -2.4207  -2.4181  -2.4133  -2.4063  -2.3989  -2.3961
    -2.3906  -2.3854  -2.3619  -2.3511  -2.3487  -2.3351  -2.3329  -2.3269
    -2.3245  -2.3211  -2.3185  -2.3161  -2.3135  -2.3029  -2.2896  -2.2764
    -2.2722  -2.2482  -2.2416  -2.2347  -2.2294  -2.2262  -2.2139  -2.1773
    -2.1563  -2.1520  -2.1448  -2.1347  -2.1118  -2.0841  -2.0752  -2.0655
    -2.0268  -2.0208  -2.0014  -1.9976  -1.9505  -1.9434  -1.9177  -1.8980
    -1.8805  -1.8675  -1.8621  -1.8473  -1.8268  -1.8087  -1.8061  -1.7975
    -1.7933  -1.7660  -1.7563  -1.7532  -1.7417  -1.7376  -1.7074  -1.7046
    -1.6960  -1.6903  -1.6879  -1.6857  -1.6837  -1.6638  -1.6622  -1.6583
    -1.6349  -1.6281  -1.6188  -1.6126  -1.5965  -1.5535  -1.5512  -1.5431
    -1.5249  -1.5183  -1.5114  -1.4717  -1.4624  -1.4568  -1.4465  -1.4401
    -1.3914  -1.3903  -1.3720  -1.3335  -1.3270  -1.3103  -1.2924  -1.2863
    -1.2755  -1.2745  -1.2695  -1.2560  -1.2559  -1.2480  -1.2421  -1.2363
    -1.2354  -1.2279  -1.2207  -1.2177  -1.2158  -1.2064  -1.1994  -1.1844
    -1.1828  -1.1798  -1.1708  -1.1659  -1.1604  -1.1553  -1.1503  -1.1480
    -1.1446  -1.1370  -1.1324  -1.1323  -1.1283  -1.1236  -1.1224  -1.1092
    -1.0966  -1.0888  -1.0795  -1.0702  -1.0641  -1.0577  -1.0405  -1.0310
    -1.0240  -1.0126  -1.0113  -0.9988  -0.9760  -0.9622  -0.9556  -0.9545
    -0.9493  -0.9455  -0.9396  -0.9289  -0.9193  -0.9033  -0.8997  -0.8916
    -0.8882  -0.8818  -0.8782  -0.8714  -0.8603  -0.8476  -0.8417  -0.8360
    -0.8313  -0.8256  -0.8067  -0.8060  -0.7979  -0.7943  -0.7789  -0.7726
    -0.7562  -0.7527  -0.7444  -0.7377  -0.7253  -0.7175  -0.6993  -0.6947
    -0.6845  -0.6643  -0.6624  -0.6509  -0.6493  -0.6302  -0.5977  -0.5754
    -0.5622  -0.5612  -0.5510  -0.5491  -0.5319  -0.5032  -0.4946  -0.4760
    -0.4661  -0.4649  -0.4504  -0.4275  -0.4194  -0.4122  -0.4107  -0.4042
    -0.3983  -0.3928  -0.3816  -0.3735  -0.3729  -0.3577  -0.3498  -0.3376
    -0.3320  -0.3232  -0.3148  -0.3133  -0.2962  -0.2950  -0.2856  -0.2740
    -0.2502  -0.2416  -0.2182  -0.2032  -0.1901  -0.1866  -0.1801  -0.1741
    -0.1542  -0.1351  -0.1337  -0.1236  -0.1066  -0.1038  -0.0910  -0.0787
    -0.0749  -0.0677  -0.0629  -0.0545  -0.0521  -0.0502  -0.0435  -0.0409
    -0.0323  -0.0319  -0.0199  -0.0023  -0.0014   0.0052   0.0145   0.0189
     0.0224   0.0304   0.0421   0.0451   0.0478   0.0693   0.0758   0.0770
     0.0821   0.0872   0.0981   0.1011   0.1125   0.1160   0.1184   0.1196
     0.1255   0.1335   0.1410   0.1484   0.1514   0.1534   0.1694   0.1739
     0.1788   0.1842   0.1917   0.1963   0.2081   0.2275   0.2322   0.2409
     0.2450   0.2474   0.2580   0.2728   0.2767   0.2855   0.2920   0.2928
     0.3045   0.3217   0.3322   0.3331   0.3397   0.3444   0.3653   0.3756
     0.3782   0.3968   0.3981   0.4257   0.4279   0.4553   0.4661   0.4734
     0.4799   0.4974   0.5042   0.5060   0.5212   0.5387   0.5457   0.5458
     0.5514   0.5554   0.5699   0.5775   0.6065   0.6116   0.6147   0.6202
     0.6273   0.6365   0.6369   0.6544   0.6579   0.6632   0.6660   0.6744
     0.6862   0.6882   0.6975   0.7010   0.7162   0.7255   0.7427   0.7590
     0.7622   0.7697   0.7725   0.7843   0.7873   0.7891   0.7981   0.8073
     0.8120   0.8406   0.8508   0.8523   0.8635   0.8655   0.8731   0.8778
     0.8952   0.8983   0.9064   0.9086   0.9149   0.9170   0.9218   0.9417
     0.9464   0.9469   0.9488   0.9548   0.9694   0.9728   0.9816   0.9850
     0.9927   1.0026   1.0093   1.0113   1.0151   1.0264   1.0350   1.0395
     1.0407   1.0528   1.0563   1.0650   1.0722   1.0740   1.0804   1.0852
     1.1047   1.1051   1.1147   1.1179   1.1319   1.1567   1.1641   1.1787
     1.1928   1.2033   1.2092   1.2129   1.2209   1.2212   1.2231   1.2258
     1.2318   1.2492   1.2536   1.2621   1.2695   1.2795   1.2839   1.2873
     1.2949   1.2952   1.3061   1.3062   1.3166   1.3240   1.3312   1.3324
     1.3343   1.3347   1.3356   1.3462   1.3549   1.3578   1.3763   1.3808
     1.3856   1.3894   1.3937   1.4020   1.4020   1.4192   1.4220   1.4332
     1.4341   1.4361   1.4437   1.4504   1.4525   1.4591   1.4615   1.4691
     1.4820   1.4872   1.5046   1.5090   1.5176   1.5193   1.5288   1.5347
     1.5368   1.5379   1.5407   1.5476   1.5563   1.5668   1.5821   1.5841
     1.5855   1.5973   1.6001   1.6161   1.6317   1.6523   1.6640   1.6751
     1.6800   1.6866   1.6961   1.7056   1.7089   1.7419   1.7529   1.7684
     1.7725   1.7794   1.7837   1.8151   1.8179   1.8270   1.8331   1.8559
     1.8595   1.8625   1.8702   1.8704   1.8781   1.8813   1.8993   1.9103
     1.9217   1.9235   1.9309   1.9382   1.9422   1.9447   1.9535   1.9667
     1.9716   2.0124   2.0212   2.0221   2.0245   2.0373   2.0480   2.0524
     2.0565   2.0611   2.0755   2.0882   2.1168   2.1229   2.1383   2.1400
     2.1545   2.2026   2.2048   2.2101   2.2543   2.2601   2.2742   2.2764
     2.2826   2.2952   2.3367   2.3553   2.3651   2.3739   2.3997   2.4331
     2.4541   2.4977   2.5057   2.5195   2.5265   2.5461   2.5671   2.5817
     2.6007   2.6293   2.6378   2.6429   2.6576   2.7060   2.7223   2.7277
     2.7412   2.7428   2.7683   2.7992   2.8130   2.8251   2.8369   2.8478
     2.8736   2.8740   2.8754   2.8997   2.9037   2.9129   2.9419   2.9775
     2.9776   3.1212   3.1930   3.2339   3.2710   3.5684   3.5903   3.6434
     3.6905   3.7163   3.7607   3.8086   3.8280   3.8941   3.9779   4.0119
     4.0574   4.0602   4.0992   4.1266   4.1823   4.2108   4.2219   4.2880
     4.4018   4.4473   4.5655   4.5744   4.6540   4.6899   4.7327   4.7606
     4.7726   4.8548   4.8672   4.9205   4.9956   5.0824   5.1723   5.2359
     5.2375   5.4227   5.5575   5.6259   5.6366   5.6779   5.7420   5.7986
     5.8398   5.8509   5.9517   6.0646   6.1310   6.1599   6.1724   6.1875
     6.2058   6.2328   6.2715   6.3030   6.3312   6.3377   6.3802   6.3966
     6.4120   6.4238   6.4609   6.4969   6.4992   6.5435   6.5569   6.5584
     6.5948   6.6325   6.6795   6.7462   6.7671   6.7889   6.8099   6.8208
     6.8480   6.8654   6.9101   6.9407   6.9657   6.9995   7.0915   7.1400
     7.1675   7.1819   7.1912   7.2485   7.2872   7.3278   7.3511   7.3615
     7.3752   7.4024   7.4389   7.4829   7.4921   7.5095   7.5283   7.5578
     7.5993   7.6020   7.6501   7.6744   7.7133   7.7610   7.8051   7.8592
     7.8863   7.9268   7.9866   7.9999   8.0116   8.0519   8.0743   8.0865
     8.1489   8.1619   8.1993   8.2308   8.2391   8.2531   8.2682   8.2937
     8.3145   8.3232   8.3468   8.3501   8.3765   8.3968   8.4145   8.4383
     8.4505   8.4532   8.4627   8.4769   8.4819   8.4842   8.4889   8.5001
     8.5192   8.5263   8.5353   8.5504   8.5628   8.5673   8.5891   8.6146
     8.6386   8.6472

          k = 0.0000 0.4779 0.0000 (302101 PWs)   bands (ev):

   -41.3963 -41.3909 -41.3890 -41.3803 -41.3787 -41.3482 -41.3478 -39.0279
   -38.5572 -38.5294 -38.5276 -38.5230 -38.5203 -38.5066 -38.5057 -36.0943
   -23.4398 -23.3848 -23.3379 -23.3280 -23.2815 -23.1782 -23.1691 -23.1603
   -23.1392 -23.1287 -23.0925 -23.0622 -23.0428 -23.0153 -23.0099 -23.0088
   -22.9868 -22.9783 -22.9345 -22.9092 -22.8784 -22.7658 -22.7636 -22.7457
   -22.7311 -22.7282 -22.6876 -22.6626 -22.6371 -22.6070 -22.6060 -22.5808
   -21.5429 -21.5388 -21.5300 -21.5279 -21.5161 -21.5042 -21.4764 -21.4747
   -21.4456 -21.4363 -21.4194 -21.4086 -21.3817 -21.3671 -21.3493 -21.3421
   -21.3121 -21.3117 -21.3024 -21.2610 -21.2466 -20.1034 -20.0759 -20.0601
   -19.1003 -19.0952 -19.0597 -19.0293 -19.0030 -19.0003 -18.9491 -18.9121
   -18.8555 -18.8488 -18.8397 -18.8334 -18.8148 -18.7630 -18.7182 -18.7006
   -18.6765 -18.6551 -18.6426 -18.5731 -18.5325 -17.3537 -17.3268 -17.3174
   -16.4571 -16.3583 -16.3204 -16.2005 -16.0285 -15.9948 -15.9614 -15.8811
   -15.8458 -15.8159 -15.7935 -15.7532 -15.7180 -15.7078 -15.6473 -15.6294
   -15.5002 -15.4968 -15.4422 -15.3260 -15.2432 -15.1350 -15.1203 -15.1132
   -15.0963 -15.0817 -15.0681 -15.0670 -15.0524 -15.0334 -14.9874 -14.9684
   -14.9651 -14.9405 -14.8854 -14.8851 -14.8811 -14.8778 -14.8758 -14.8674
   -14.8545 -14.8539 -14.8447 -14.8292 -14.7996 -14.7948 -14.7944 -14.7832
   -14.7819 -14.7686 -14.7655 -14.7575 -14.7551 -14.7480 -14.7200 -14.6969
   -14.6425 -14.6371 -14.6340 -14.6264 -14.6012 -14.5811 -14.5656 -14.5583
   -14.5353 -14.5295 -14.5043 -14.4974 -14.4954 -14.4879 -14.4861 -14.4773
   -14.4685 -14.4585 -14.4358 -14.3780 -14.3754 -14.3618 -14.3377 -14.3091
   -14.2466 -14.2443 -14.2350 -14.2312 -14.2288 -14.2230 -14.2040 -14.1928
   -14.1892 -14.1879 -14.1861 -14.1842 -14.1508 -14.1489 -14.1441 -14.1385
   -14.1365 -14.1339 -14.1328 -14.0997 -14.0921 -14.0831 -14.0811 -14.0671
   -14.0570 -14.0246 -14.0244 -14.0190 -13.9949 -13.9917 -13.9743 -13.9718
   -13.8272 -13.7859 -13.7858 -13.7829 -13.6901 -13.6090 -13.5792 -13.5213
    -9.0610  -8.9209  -8.9067  -8.8999  -8.8794  -8.8342  -8.8325  -8.8014
    -8.7706  -8.7581  -8.7482  -8.7189  -8.6750  -8.6577  -8.6200  -8.6184
    -8.5830  -8.5463  -8.5194  -8.5084  -8.5053  -8.4815  -8.4545  -8.4517
    -8.4455  -8.4440  -8.4437  -8.4327  -8.4144  -8.4045  -8.3907  -8.3868
    -8.3829  -8.3762  -8.3675  -8.3624  -8.3599  -8.3551  -8.3527  -8.3483
    -8.3306  -8.3170  -8.3124  -8.3117  -8.3079  -8.2992  -8.2865  -8.2730
    -8.2662  -8.2559  -8.2501  -8.2443  -8.2426  -8.1983  -8.1781  -8.1511
    -8.1475  -8.1322  -8.1252  -8.1008  -8.0914  -8.0750  -8.0600  -8.0339
    -8.0181  -8.0164  -7.9946  -7.9857  -7.9784  -7.9784  -7.9708  -7.9681
    -7.9647  -7.9581  -7.9510  -7.9432  -7.9241  -7.9035  -7.8961  -7.8939
    -7.8867  -7.8846  -7.8728  -7.8690  -7.8578  -7.8548  -7.8461  -7.8401
    -7.8225  -7.7611  -7.7449  -7.7080  -7.6658  -7.6022  -7.5818  -7.5762
    -4.8375  -4.5493  -4.4887  -4.3082  -4.1807  -4.0248  -3.9668  -3.8993
    -3.7947  -3.6962  -3.6583  -3.6496  -3.5971  -3.5799  -3.5086  -3.4309
    -3.4257  -3.3732  -3.3496  -3.3492  -3.2594  -3.2439  -3.1973  -3.1708
    -3.1593  -3.1588  -3.1534  -3.1460  -3.1441  -3.1128  -3.1091  -3.1052
    -3.0847  -3.0621  -3.0583  -3.0271  -3.0153  -3.0022  -2.9881  -2.9606
    -2.9525  -2.8881  -2.8748  -2.8640  -2.8625  -2.8434  -2.8291  -2.8189
    -2.8138  -2.8119  -2.7847  -2.7293  -2.7223  -2.7131  -2.6766  -2.6599
    -2.6473  -2.6353  -2.6339  -2.5968  -2.5857  -2.5413  -2.5141  -2.5093
    -2.5021  -2.4513  -2.4398  -2.4384  -2.4226  -2.4170  -2.4169  -2.4085
    -2.4083  -2.4077  -2.3994  -2.3950  -2.3943  -2.3912  -2.3905  -2.3782
    -2.3675  -2.3669  -2.3526  -2.3457  -2.3421  -2.3370  -2.3260  -2.3242
    -2.3193  -2.3189  -2.3180  -2.3155  -2.2938  -2.2858  -2.2750  -2.2697
    -2.2630  -2.2391  -2.2305  -2.2111  -2.1850  -2.1838  -2.1576  -2.1507
    -2.1400  -2.1224  -2.1200  -2.1079  -2.0843  -2.0613  -2.0558  -2.0373
    -2.0293  -2.0086  -1.9941  -1.9817  -1.9716  -1.9536  -1.9536  -1.9389
    -1.9265  -1.9199  -1.9186  -1.8954  -1.8861  -1.8469  -1.8360  -1.8298
    -1.8224  -1.8150  -1.8122  -1.7702  -1.7607  -1.7545  -1.7535  -1.7458
    -1.7173  -1.7126  -1.7040  -1.6992  -1.6929  -1.6837  -1.6788  -1.6780
    -1.6489  -1.6476  -1.6233  -1.5711  -1.5497  -1.5089  -1.4758  -1.4729
    -1.4479  -1.4253  -1.4151  -1.3980  -1.3824  -1.3788  -1.3777  -1.3676
    -1.3558  -1.3232  -1.3211  -1.3169  -1.2902  -1.2840  -1.2712  -1.2656
    -1.2633  -1.2534  -1.2413  -1.2358  -1.2263  -1.2259  -1.2219  -1.2201
    -1.2138  -1.2043  -1.2038  -1.1924  -1.1922  -1.1830  -1.1714  -1.1657
    -1.1549  -1.1531  -1.1516  -1.1510  -1.1487  -1.1357  -1.1320  -1.1202
    -1.1147  -1.1006  -1.0900  -1.0826  -1.0783  -1.0780  -1.0747  -1.0637
    -1.0601  -1.0584  -1.0564  -1.0487  -1.0444  -1.0368  -1.0352  -1.0276
    -1.0246  -1.0166  -1.0092  -0.9946  -0.9941  -0.9718  -0.9706  -0.9682
    -0.9614  -0.9612  -0.9573  -0.9319  -0.9218  -0.9077  -0.8959  -0.8907
    -0.8807  -0.8795  -0.8754  -0.8677  -0.8659  -0.8615  -0.8571  -0.8473
    -0.8444  -0.8138  -0.8102  -0.7956  -0.7953  -0.7746  -0.7584  -0.7479
    -0.7478  -0.7366  -0.7286  -0.7259  -0.7258  -0.7174  -0.7050  -0.6836
    -0.6788  -0.6771  -0.6687  -0.6677  -0.6651  -0.6564  -0.6486  -0.6449
    -0.6306  -0.6164  -0.5999  -0.5964  -0.5743  -0.5650  -0.5631  -0.5557
    -0.5447  -0.5286  -0.4894  -0.4654  -0.4635  -0.4529  -0.4521  -0.4416
    -0.4323  -0.4273  -0.3660  -0.3277  -0.3262  -0.3171  -0.3168  -0.3050
    -0.2996  -0.2888  -0.2827  -0.2690  -0.2671  -0.2614  -0.2559  -0.2430
    -0.2357  -0.2349  -0.2247  -0.2158  -0.1819  -0.1745  -0.1631  -0.1520
    -0.1501  -0.1460  -0.1421  -0.1410  -0.1223  -0.1159  -0.1126  -0.1000
    -0.0990  -0.0956  -0.0903  -0.0843  -0.0718  -0.0660  -0.0646  -0.0587
    -0.0532  -0.0329  -0.0116  -0.0097   0.0040   0.0127   0.0131   0.0236
     0.0329   0.0347   0.0406   0.0440   0.0532   0.0745   0.0771   0.0812
     0.0821   0.0898   0.1044   0.1077   0.1132   0.1286   0.1345   0.1372
     0.1396   0.1471   0.1581   0.1616   0.1668   0.1726   0.1740   0.1824
     0.1925   0.2059   0.2209   0.2217   0.2313   0.2352   0.2372   0.2399
     0.2429   0.2436   0.2605   0.2627   0.2750   0.2844   0.2846   0.2850
     0.3035   0.3079   0.3249   0.3253   0.3424   0.3585   0.3601   0.3976
     0.4011   0.4060   0.4323   0.4396   0.4412   0.4497   0.4786   0.4888
     0.4894   0.4996   0.5066   0.5074   0.5194   0.5260   0.5334   0.5501
     0.5679   0.5780   0.5794   0.6120   0.6146   0.6345   0.6392   0.6431
     0.6845   0.6864   0.6892   0.6944   0.6969   0.7018   0.7038   0.7093
     0.7149   0.7204   0.7276   0.7332   0.7368   0.7465   0.7599   0.7633
     0.7690   0.7724   0.7763   0.7819   0.7970   0.8044   0.8060   0.8121
     0.8164   0.8232   0.8293   0.8308   0.8342   0.8564   0.8655   0.8699
     0.8716   0.8774   0.8804   0.8925   0.8928   0.8960   0.8990   0.9245
     0.9297   0.9335   0.9336   0.9502   0.9577   0.9695   0.9732   0.9811
     0.9915   0.9967   1.0069   1.0213   1.0270   1.0455   1.0618   1.0653
     1.0656   1.0676   1.0678   1.0978   1.1009   1.1143   1.1178   1.1187
     1.1213   1.1391   1.1446   1.1553   1.1604   1.1647   1.1762   1.1823
     1.1850   1.1907   1.1945   1.1955   1.1962   1.2072   1.2134   1.2160
     1.2253   1.2254   1.2296   1.2390   1.2486   1.2586   1.2590   1.2620
     1.2687   1.2753   1.2872   1.2998   1.3040   1.3101   1.3157   1.3234
     1.3237   1.3379   1.3396   1.3419   1.3500   1.3520   1.3526   1.3556
     1.3566   1.3611   1.3742   1.3787   1.3843   1.3895   1.3957   1.4041
     1.4080   1.4084   1.4213   1.4326   1.4407   1.4444   1.4455   1.4492
     1.4561   1.4660   1.4811   1.4883   1.4953   1.5098   1.5204   1.5231
     1.5267   1.5337   1.5380   1.5460   1.5557   1.5564   1.5703   1.5838
     1.5889   1.5906   1.5949   1.6060   1.6125   1.6267   1.6302   1.6402
     1.6462   1.6501   1.6511   1.6543   1.6655   1.6659   1.6669   1.6909
     1.6978   1.7042   1.7059   1.7060   1.7274   1.7276   1.7680   1.7936
     1.8045   1.8125   1.8128   1.8200   1.8323   1.8356   1.8480   1.8526
     1.8946   1.8985   1.9018   1.9051   1.9258   1.9331   1.9476   1.9647
     1.9752   1.9799   1.9971   2.0001   2.0546   2.0553   2.0607   2.0790
     2.0813   2.0901   2.0988   2.1042   2.1173   2.1192   2.1420   2.1480
     2.2001   2.2051   2.2057   2.2276   2.2459   2.2551   2.2741   2.2842
     2.2887   2.2924   2.3134   2.3267   2.3501   2.3874   2.4151   2.4250
     2.4858   2.4896   2.4912   2.5107   2.5177   2.5272   2.5445   2.5530
     2.6380   2.6425   2.6478   2.6511   2.7307   2.7550   2.7714   2.7819
     2.7874   2.8071   2.8077   2.8156   2.8183   2.8233   2.8327   2.8380
     2.8470   2.8491   2.9204   2.9375   2.9579   2.9978   3.0388   3.0650
     3.0771   3.2408   3.2561   3.3186   3.4209   3.4316   3.5210   3.6356
     3.6821   3.7598   3.7811   3.7851   3.8073   3.8111   3.8597   3.8966
     3.9373   3.9752   3.9956   4.0271   4.1593   4.1916   4.2186   4.3241
     4.3731   4.4567   4.4887   4.5110   4.5577   4.6360   4.7207   4.7320
     4.7961   4.8450   4.8584   4.9616   5.1144   5.1979   5.2605   5.4676
     5.5527   5.5912   5.5950   5.6020   5.6079   5.7146   5.7196   5.8092
     5.8394   5.8999   5.9219   5.9653   5.9796   6.0114   6.0240   6.0727
     6.2790   6.2988   6.3038   6.3511   6.3626   6.3664   6.3739   6.3987
     6.4032   6.4122   6.4140   6.4258   6.4987   6.5720   6.5969   6.6088
     6.6145   6.6365   6.6462   6.6985   6.7089   6.7324   6.7512   6.7575
     6.8009   6.8369   6.9024   6.9514   6.9732   6.9930   7.1122   7.1279
     7.1505   7.1575   7.2200   7.2260   7.2467   7.3563   7.3779   7.3900
     7.4329   7.4572   7.4791   7.5007   7.5152   7.5186   7.5426   7.5474
     7.5632   7.5837   7.5929   7.6037   7.6130   7.6285   7.6587   7.7090
     7.7593   7.7699   7.8376   7.8786   7.9942   8.0002   8.0127   8.0244
     8.0285   8.1110   8.1573   8.1836   8.2303   8.2434   8.2561   8.2622
     8.3091   8.3141   8.3346   8.3444   8.3971   8.3985   8.4032   8.4182
     8.4300   8.4768   8.4923   8.4976   8.5022   8.5228   8.5254   8.5344
     8.5593   8.5691   8.6109   8.6307   8.6419   8.6537   8.6634   8.7093
     8.7109   8.7211

          k =-0.4652-0.0000 0.0000 (302204 PWs)   bands (ev):

   -41.3963 -41.3909 -41.3890 -41.3802 -41.3787 -41.3483 -41.3477 -39.0279
   -38.5572 -38.5301 -38.5266 -38.5230 -38.5206 -38.5070 -38.5053 -36.0943
   -23.4408 -23.3797 -23.3526 -23.3138 -23.2836 -23.1861 -23.1752 -23.1538
   -23.1293 -23.1177 -23.1098 -23.0624 -23.0268 -23.0247 -23.0196 -23.0104
   -22.9801 -22.9785 -22.9360 -22.9027 -22.8816 -22.7717 -22.7710 -22.7390
   -22.7218 -22.7168 -22.7048 -22.6630 -22.6195 -22.6191 -22.6154 -22.5743
   -21.5573 -21.5376 -21.5301 -21.5274 -21.5078 -21.4869 -21.4818 -21.4727
   -21.4500 -21.4314 -21.4252 -21.4075 -21.3815 -21.3630 -21.3559 -21.3516
   -21.3141 -21.3094 -21.2986 -21.2625 -21.2425 -20.1034 -20.0758 -20.0602
   -19.1361 -19.0632 -19.0576 -19.0321 -19.0082 -18.9695 -18.9317 -18.9210
   -18.8664 -18.8591 -18.8389 -18.8372 -18.8302 -18.7563 -18.7308 -18.6952
   -18.6701 -18.6512 -18.6466 -18.5772 -18.5243 -17.3537 -17.3252 -17.3188
   -16.4595 -16.3568 -16.3122 -16.2116 -16.0334 -15.9885 -15.9501 -15.8697
   -15.8548 -15.8454 -15.7753 -15.7505 -15.7220 -15.7013 -15.6410 -15.6340
   -15.5134 -15.5004 -15.4435 -15.3185 -15.2010 -15.1762 -15.1547 -15.1429
   -15.1064 -15.0831 -15.0286 -15.0178 -14.9977 -14.9921 -14.9878 -14.9831
   -14.9586 -14.9555 -14.9382 -14.9121 -14.8981 -14.8852 -14.8824 -14.8758
   -14.8745 -14.8641 -14.8238 -14.8154 -14.8115 -14.8049 -14.7945 -14.7924
   -14.7867 -14.7851 -14.7839 -14.7686 -14.7360 -14.7157 -14.6997 -14.6647
   -14.6430 -14.6257 -14.6168 -14.5984 -14.5928 -14.5834 -14.5625 -14.5441
   -14.5380 -14.5318 -14.5264 -14.5230 -14.5112 -14.4905 -14.4763 -14.4677
   -14.4404 -14.4402 -14.4321 -14.4233 -14.3918 -14.3867 -14.3177 -14.2816
   -14.2737 -14.2690 -14.2462 -14.2410 -14.2397 -14.2345 -14.2184 -14.2177
   -14.1680 -14.1649 -14.1531 -14.1476 -14.1427 -14.1412 -14.1399 -14.1324
   -14.1319 -14.1252 -14.1244 -14.1235 -14.1149 -14.0898 -14.0792 -14.0648
   -14.0554 -14.0490 -14.0485 -14.0228 -13.9839 -13.9632 -13.9504 -13.9302
   -13.9065 -13.8180 -13.7677 -13.7599 -13.6749 -13.6068 -13.5890 -13.5198
    -9.1070  -8.9551  -8.9175  -8.8597  -8.8404  -8.8254  -8.8050  -8.7679
    -8.7536  -8.7194  -8.7081  -8.6924  -8.6750  -8.6694  -8.6657  -8.6209
    -8.6045  -8.5792  -8.5470  -8.5416  -8.5158  -8.5149  -8.4855  -8.4824
    -8.4604  -8.4528  -8.4283  -8.4171  -8.4065  -8.3979  -8.3976  -8.3757
    -8.3721  -8.3717  -8.3610  -8.3536  -8.3506  -8.3491  -8.3418  -8.3365
    -8.3271  -8.3084  -8.3042  -8.2995  -8.2950  -8.2929  -8.2925  -8.2885
    -8.2740  -8.2647  -8.2513  -8.2244  -8.1810  -8.1732  -8.1670  -8.1446
    -8.1437  -8.1412  -8.1357  -8.1276  -8.1046  -8.1008  -8.0814  -8.0718
    -8.0526  -8.0372  -8.0248  -7.9983  -7.9918  -7.9892  -7.9882  -7.9798
    -7.9738  -7.9690  -7.9607  -7.9596  -7.9457  -7.9180  -7.9146  -7.8846
    -7.8765  -7.8690  -7.8624  -7.8576  -7.8376  -7.8056  -7.8054  -7.7789
    -7.7709  -7.7321  -7.7247  -7.6853  -7.6790  -7.6229  -7.6166  -7.5951
    -4.8703  -4.4878  -4.4258  -4.3540  -4.2993  -3.9356  -3.8849  -3.8525
    -3.8073  -3.7982  -3.7497  -3.7281  -3.6117  -3.5112  -3.4869  -3.4728
    -3.4630  -3.4558  -3.3537  -3.2867  -3.2736  -3.2569  -3.2479  -3.2202
    -3.1922  -3.1722  -3.1677  -3.1627  -3.1329  -3.1252  -3.1177  -3.1149
    -3.0972  -3.0680  -3.0406  -3.0327  -2.9969  -2.9624  -2.9501  -2.9423
    -2.8610  -2.8608  -2.8436  -2.8403  -2.7886  -2.7838  -2.7736  -2.7286
    -2.7104  -2.7093  -2.7052  -2.6867  -2.6650  -2.6616  -2.6318  -2.6285
    -2.5649  -2.5616  -2.5517  -2.5434  -2.5392  -2.5030  -2.4990  -2.4954
    -2.4919  -2.4831  -2.4600  -2.4546  -2.4434  -2.4389  -2.4235  -2.4173
    -2.4135  -2.4120  -2.4108  -2.4000  -2.3977  -2.3789  -2.3786  -2.3779
    -2.3675  -2.3655  -2.3381  -2.3366  -2.3354  -2.3340  -2.3272  -2.3247
    -2.3071  -2.2982  -2.2911  -2.2909  -2.2527  -2.2525  -2.2493  -2.2455
[...]
     atom   60 type  5   force =     0.00000000    0.00000000   -0.00011481
     atom   61 type  5   force =     0.00000000    0.00000000   -0.00069849
     atom   62 type  5   force =     0.00000000    0.00000000   -0.00069849
     atom   63 type  5   force =     0.00000000    0.00005870   -0.00079358
     atom   64 type  5   force =     0.00000000   -0.00005870   -0.00079358
     atom   65 type  4   force =    -0.00029695    0.00007975    0.00085409
     atom   66 type  4   force =    -0.00029695   -0.00007975    0.00085409
     atom   67 type  4   force =     0.00029695    0.00007975    0.00085409
     atom   68 type  4   force =     0.00029695   -0.00007975    0.00085409
     atom   69 type  4   force =     0.00000000   -0.00023028    0.00045335
     atom   70 type  4   force =     0.00000000    0.00023028    0.00045335
     atom   71 type  4   force =    -0.00010103   -0.00002918    0.00102651
     atom   72 type  4   force =    -0.00010103    0.00002918    0.00102651
     atom   73 type  4   force =     0.00010103    0.00002918    0.00102651
     atom   74 type  4   force =     0.00010103   -0.00002918    0.00102651
     atom   75 type  4   force =     0.00018703    0.00000000    0.00089395
     atom   76 type  4   force =    -0.00018703    0.00000000    0.00089395
     atom   77 type  4   force =     0.00000000   -0.00040453    0.00154211
     atom   78 type  4   force =     0.00000000    0.00040453    0.00154211
     atom   79 type  4   force =     0.00019739    0.00000000    0.00061622
     atom   80 type  4   force =    -0.00019739    0.00000000    0.00061622
     atom   81 type  3   force =     0.00009211   -0.00006602   -0.00155961
     atom   82 type  3   force =     0.00009211    0.00006602   -0.00155961
     atom   83 type  3   force =    -0.00009211   -0.00006602   -0.00155961
     atom   84 type  3   force =    -0.00009211    0.00006602   -0.00155961
     atom   85 type  3   force =     0.00003259   -0.00004760   -0.00172027
     atom   86 type  3   force =    -0.00003259   -0.00004760   -0.00172027
     atom   87 type  3   force =    -0.00003259    0.00004760   -0.00172027
     atom   88 type  3   force =     0.00003259    0.00004760   -0.00172027
     atom   89 type  1   force =     0.00000000    0.00000000   -0.00149136
     atom   90 type  1   force =     0.00000000   -0.00020374   -0.00210416
     atom   91 type  1   force =     0.00000000    0.00020374   -0.00210416
     atom   92 type  1   force =    -0.00017210    0.00000000   -0.00128160
     atom   93 type  1   force =     0.00017210    0.00000000   -0.00128160
     atom   94 type  1   force =     0.00000000    0.00000000   -0.00199951
     atom   95 type  1   force =     0.00000000    0.00000000   -0.00199951
     atom   96 type  1   force =     0.00000000    0.00000000   -0.00141590
     atom   97 type  4   force =    -0.00020859   -0.00017261    0.00296019
     atom   98 type  4   force =    -0.00020859    0.00017261    0.00296019
     atom   99 type  4   force =     0.00020859   -0.00017261    0.00296019
     atom  100 type  4   force =     0.00020859    0.00017261    0.00296019
     atom  101 type  4   force =     0.00007218   -0.00038172    0.00298130
     atom  102 type  4   force =    -0.00007218   -0.00038172    0.00298130
     atom  103 type  4   force =    -0.00007218    0.00038172    0.00298130
     atom  104 type  4   force =     0.00007218    0.00038172    0.00298130
     atom  105 type  4   force =     0.00180581    0.00000000    0.00509462
     atom  106 type  4   force =    -0.00180581    0.00000000    0.00509462
     atom  107 type  3   force =    -0.00265363   -0.00098889   -0.00978671
     atom  108 type  3   force =    -0.00265363    0.00098889   -0.00978671
     atom  109 type  3   force =     0.00265363    0.00098889   -0.00978671
     atom  110 type  3   force =     0.00265363   -0.00098889   -0.00978671
     atom  111 type  3   force =    -0.00210778   -0.00023397   -0.01017733
     atom  112 type  3   force =     0.00210778    0.00023397   -0.01017733
     atom  113 type  3   force =    -0.00210778    0.00023397   -0.01017733
     atom  114 type  3   force =     0.00210778   -0.00023397   -0.01017733
     atom  115 type  4   force =     0.00054191   -0.00082803    0.00540820
     atom  116 type  4   force =    -0.00054191   -0.00082803    0.00540820
     atom  117 type  4   force =     0.00054191    0.00082803    0.00540820
     atom  118 type  4   force =    -0.00054191    0.00082803    0.00540820
     atom  119 type  4   force =    -0.00087502    0.00000000    0.00494516
     atom  120 type  4   force =     0.00087502    0.00000000    0.00494516
     atom  121 type  4   force =    -0.00181252   -0.00045245    0.01711026
     atom  122 type  4   force =     0.00181252   -0.00045245    0.01711026
     atom  123 type  4   force =     0.00181252    0.00045245    0.01711026
     atom  124 type  4   force =    -0.00181252    0.00045245    0.01711026
     atom  125 type  4   force =     0.00080814   -0.00064497    0.01787155
     atom  126 type  4   force =     0.00080814    0.00064497    0.01787155
     atom  127 type  4   force =    -0.00080814   -0.00064497    0.01787155
     atom  128 type  4   force =    -0.00080814    0.00064497    0.01787155
     atom  129 type  1   force =     0.00000000    0.00000000   -0.02330021
     atom  130 type  1   force =     0.00000000    0.00000000   -0.02207112
     atom  131 type  1   force =     0.00000000    0.00000000   -0.02207112
     atom  132 type  1   force =    -0.00093550    0.00000000   -0.02301000
     atom  133 type  1   force =     0.00093550    0.00000000   -0.02301000
     atom  134 type  1   force =     0.00000000   -0.00034594   -0.02114189
     atom  135 type  1   force =     0.00000000    0.00034594   -0.02114189
     atom  136 type  1   force =     0.00000000    0.00000000   -0.02019187
     atom  137 type  3   force =     0.00104594    0.00075150    0.00238424
     atom  138 type  3   force =     0.00104594   -0.00075150    0.00238424
     atom  139 type  3   force =    -0.00104594   -0.00075150    0.00238424
     atom  140 type  3   force =    -0.00104594    0.00075150    0.00238424
     atom  141 type  3   force =    -0.00034278    0.00019270    0.00522278
     atom  142 type  3   force =    -0.00034278   -0.00019270    0.00522278
     atom  143 type  3   force =     0.00034278    0.00019270    0.00522278
     atom  144 type  3   force =     0.00034278   -0.00019270    0.00522278
     atom  145 type  4   force =    -0.01561749    0.00000000    0.05958135
     atom  146 type  4   force =     0.01561749    0.00000000    0.05958135
     atom  147 type  4   force =     0.00000000   -0.01528733    0.05674157
     atom  148 type  4   force =     0.00000000    0.01528733    0.05674157
     atom  149 type  4   force =     0.00070168    0.00000000    0.06738719
     atom  150 type  4   force =    -0.00070168    0.00000000    0.06738719
     atom  151 type  4   force =    -0.00118268   -0.00013447    0.06469688
     atom  152 type  4   force =     0.00118268   -0.00013447    0.06469688
     atom  153 type  4   force =     0.00118268    0.00013447    0.06469688
     atom  154 type  4   force =    -0.00118268    0.00013447    0.06469688
     atom  155 type  4   force =     0.00000000    0.00124371    0.06315048
     atom  156 type  4   force =     0.00000000   -0.00124371    0.06315048
     atom  157 type  4   force =     0.00146502   -0.00180745    0.06141631
     atom  158 type  4   force =    -0.00146502    0.00180745    0.06141631
     atom  159 type  4   force =     0.00146502    0.00180745    0.06141631
     atom  160 type  4   force =    -0.00146502   -0.00180745    0.06141631
     atom  161 type  2   force =     0.00000000    0.00000000   -0.06424279
     atom  162 type  5   force =    -0.00113022    0.00000000   -0.12831844
     atom  163 type  5   force =     0.00113022    0.00000000   -0.12831844
     atom  164 type  5   force =     0.00000000    0.00000000   -0.12216739
     atom  165 type  5   force =     0.00000000    0.00000000   -0.12001044
     atom  166 type  5   force =     0.00000000    0.00000000   -0.12001044
     atom  167 type  5   force =     0.00000000   -0.00071827   -0.13025937
     atom  168 type  5   force =     0.00000000    0.00071827   -0.13025937
     atom  169 type  4   force =    -0.00238899    0.00106157    0.02945165
     atom  170 type  4   force =    -0.00238899   -0.00106157    0.02945165
     atom  171 type  4   force =     0.00238899    0.00106157    0.02945165
     atom  172 type  4   force =     0.00238899   -0.00106157    0.02945165
     atom  173 type  4   force =     0.00000000   -0.00045113    0.03004454
     atom  174 type  4   force =     0.00000000    0.00045113    0.03004454
     atom  175 type  4   force =    -0.00133582   -0.00169760    0.02238279
     atom  176 type  4   force =    -0.00133582    0.00169760    0.02238279
     atom  177 type  4   force =     0.00133582    0.00169760    0.02238279
     atom  178 type  4   force =     0.00133582   -0.00169760    0.02238279
     atom  179 type  4   force =     0.00081857    0.00000000    0.02249431
     atom  180 type  4   force =    -0.00081857    0.00000000    0.02249431
     atom  181 type  4   force =     0.00000000   -0.00139316    0.02809300
     atom  182 type  4   force =     0.00000000    0.00139316    0.02809300
     atom  183 type  4   force =     0.00057370    0.00000000    0.02101749
     atom  184 type  4   force =    -0.00057370    0.00000000    0.02101749
     atom  185 type  3   force =     0.00059007   -0.00048234   -0.01857336
     atom  186 type  3   force =     0.00059007    0.00048234   -0.01857336
     atom  187 type  3   force =    -0.00059007   -0.00048234   -0.01857336
     atom  188 type  3   force =    -0.00059007    0.00048234   -0.01857336
     atom  189 type  3   force =     0.00051244    0.00045145   -0.02082679
     atom  190 type  3   force =    -0.00051244    0.00045145   -0.02082679
     atom  191 type  3   force =    -0.00051244   -0.00045145   -0.02082679
     atom  192 type  3   force =     0.00051244   -0.00045145   -0.02082679
     atom  193 type  1   force =     0.00000000    0.00000000   -0.02665958
     atom  194 type  1   force =     0.00000000   -0.00002435   -0.03146627
     atom  195 type  1   force =     0.00000000    0.00002435   -0.03146627
     atom  196 type  1   force =     0.00006067    0.00000000   -0.03207593
     atom  197 type  1   force =    -0.00006067    0.00000000   -0.03207593
     atom  198 type  1   force =     0.00000000    0.00000000   -0.03140516
     atom  199 type  1   force =     0.00000000    0.00000000   -0.03140516
     atom  200 type  1   force =     0.00000000    0.00000000   -0.03204911
     atom  201 type  4   force =    -0.00008591    0.00009007   -0.00555672
     atom  202 type  4   force =    -0.00008591   -0.00009007   -0.00555672
     atom  203 type  4   force =     0.00008591    0.00009007   -0.00555672
     atom  204 type  4   force =     0.00008591   -0.00009007   -0.00555672
     atom  205 type  4   force =    -0.00045587   -0.00028802   -0.00595926
     atom  206 type  4   force =     0.00045587   -0.00028802   -0.00595926
     atom  207 type  4   force =     0.00045587    0.00028802   -0.00595926
     atom  208 type  4   force =    -0.00045587    0.00028802   -0.00595926
     atom  209 type  4   force =     0.00018660    0.00000000    0.00650450
     atom  210 type  4   force =    -0.00018660    0.00000000    0.00650450
     atom  211 type  3   force =     0.00022575    0.00003585   -0.00310577
     atom  212 type  3   force =     0.00022575   -0.00003585   -0.00310577
     atom  213 type  3   force =    -0.00022575   -0.00003585   -0.00310577
     atom  214 type  3   force =    -0.00022575    0.00003585   -0.00310577
     atom  215 type  3   force =     0.00008008   -0.00022942   -0.00332332
     atom  216 type  3   force =    -0.00008008    0.00022942   -0.00332332
     atom  217 type  3   force =     0.00008008    0.00022942   -0.00332332
     atom  218 type  3   force =    -0.00008008   -0.00022942   -0.00332332
     atom  219 type  4   force =    -0.00008059    0.00111358    0.00612420
     atom  220 type  4   force =     0.00008059    0.00111358    0.00612420
     atom  221 type  4   force =    -0.00008059   -0.00111358    0.00612420
     atom  222 type  4   force =     0.00008059   -0.00111358    0.00612420
     atom  223 type  4   force =    -0.00033984    0.00000000    0.00540545
     atom  224 type  4   force =     0.00033984    0.00000000    0.00540545

     Total force =     0.456251     Total SCF correction =     0.000358


     Computing stress (Cartesian axis) and pressure


     negative rho (up, down):  6.313E-01 0.000E+00
          total   stress  (Ry/bohr**3)                   (kbar)     P=       -9.65
  -0.00005170   0.00000000   0.00000000           -7.61        0.00        0.00
   0.00000000  -0.00004825   0.00000000            0.00       -7.10        0.00
   0.00000000   0.00000000  -0.00009686            0.00        0.00      -14.25

 
     init_run     :     63.75s CPU     66.64s WALL (       1 calls)
     electrons    :   5204.07s CPU   5426.94s WALL (       1 calls)
     forces       :     35.98s CPU     38.13s WALL (       1 calls)
     stress       :    493.75s CPU    498.59s WALL (       1 calls)

     Called by init_run:
     wfcinit      :     50.55s CPU     51.97s WALL (       1 calls)
     potinit      :      1.74s CPU      1.81s WALL (       1 calls)
     hinit0       :      3.24s CPU      3.29s WALL (       1 calls)

     Called by electrons:
     c_bands      :   4256.42s CPU   4347.72s WALL (      47 calls)
     sum_band     :    643.91s CPU    718.20s WALL (      47 calls)
     v_of_rho     :     14.54s CPU     15.23s WALL (      48 calls)
     newd         :    121.84s CPU    178.44s WALL (      48 calls)
     mix_rho      :    167.57s CPU    168.69s WALL (      47 calls)

     Called by c_bands:
     init_us_2    :     14.60s CPU     15.18s WALL (     388 calls)
     cegterg      :   4134.37s CPU   4218.36s WALL (     188 calls)

     Called by sum_band:
     sum_band:bec :      4.28s CPU      4.30s WALL (     188 calls)
     addusdens    :     91.25s CPU    160.40s WALL (      47 calls)

     Called by *egterg:
     h_psi        :   1795.79s CPU   1827.94s WALL (     975 calls)
     s_psi        :    511.58s CPU    522.86s WALL (     975 calls)
     g_psi        :      2.28s CPU      2.29s WALL (     783 calls)
     cdiaghg      :    623.45s CPU    625.89s WALL (     971 calls)

     Called by h_psi:
     h_psi:calbec :    575.65s CPU    578.74s WALL (     975 calls)
     vloc_psi     :    704.62s CPU    712.85s WALL (     975 calls)
     add_vuspsi   :    511.58s CPU    523.23s WALL (     975 calls)

     General routines
     calbec       :    948.20s CPU    952.62s WALL (    1183 calls)
     fft          :     15.37s CPU     15.57s WALL (     647 calls)
     ffts         :     98.78s CPU     99.37s WALL (   37477 calls)
     fftw         :    801.54s CPU    810.58s WALL ( 1056570 calls)
     interpolate  :      1.33s CPU      1.34s WALL (      48 calls)
 
     Parallel routines
     fft_scatt_xy :    102.77s CPU    103.92s WALL ( 1094694 calls)
     fft_scatt_yz :    550.62s CPU    556.85s WALL ( 1094694 calls)
 
     PWSCF        :      1h36m CPU      1h40m WALL

 
   This run was terminated on:  22:57:38  18May2021            

=------------------------------------------------------------------------------=
   JOB DONE.
=------------------------------------------------------------------------------=
[1621393058.826371] [holy7c10611:75943:0]          mpool.c:43   UCX  WARN  object 0x3441d80 was not returned to mpool ucp_requests
[1621393058.837991] [holy7c12408:128673:0]          mpool.c:43   UCX  WARN  object 0x4c434c0 was not returned to mpool ucp_requests
[1621393058.837027] [holy7c12408:128681:0]          mpool.c:43   UCX  WARN  object 0x4584cc0 was not returned to mpool ucp_requests
[1621393058.841509] [holy7c12408:128676:0]          mpool.c:43   UCX  WARN  object 0x578ee00 was not returned to mpool ucp_requests
[1621393058.836253] [holy7c08509:25529:0]          mpool.c:43   UCX  WARN  object 0x3717400 was not returned to mpool ucp_requests
[1621393058.843514] [holy7c12408:128683:0]          mpool.c:43   UCX  WARN  object 0x4686180 was not returned to mpool ucp_requests
[1621393058.843115] [holy7c10111:183019:0]          mpool.c:43   UCX  WARN  object 0x2bfb280 was not returned to mpool ucp_requests
[1621393058.846029] [holy7c12408:128674:0]          mpool.c:43   UCX  WARN  object 0x28883c0 was not returned to mpool ucp_requests
[1621393058.846396] [holy7c10111:183021:0]          mpool.c:43   UCX  WARN  object 0x3ec1440 was not returned to mpool ucp_requests
[1621393058.847369] [holy7c12408:128675:0]          mpool.c:43   UCX  WARN  object 0x2e7b840 was not returned to mpool ucp_requests
[1621393058.849789] [holy7c10111:183020:0]          mpool.c:43   UCX  WARN  object 0x4529e40 was not returned to mpool ucp_requests
[1621393058.849817] [holy7c10111:183020:0]          mpool.c:43   UCX  WARN  object 0x4531540 was not returned to mpool ucp_requests
[1621393058.850576] [holy7c10111:183028:0]          mpool.c:43   UCX  WARN  object 0x3c717c0 was not returned to mpool ucp_requests
[1621393058.850511] [holy7c10111:183027:0]          mpool.c:43   UCX  WARN  object 0x4d6b380 was not returned to mpool ucp_requests
[1621393058.850537] [holy7c10111:183027:0]          mpool.c:43   UCX  WARN  object 0x3518f00 was not returned to mpool ucp_requests
[1621393058.848755] [holy7c12408:128682:0]          mpool.c:43   UCX  WARN  object 0x43c9680 was not returned to mpool ucp_requests
[1621393058.849653] [holy7c10111:183022:0]          mpool.c:43   UCX  WARN  object 0x3609340 was not returned to mpool ucp_requests
[1621393058.847278] [holy7c12408:128668:0]          mpool.c:43   UCX  WARN  object 0x3d5ac40 was not returned to mpool ucp_requests
[1621393058.849670] [holy7c12408:128667:0]          mpool.c:43   UCX  WARN  object 0x4606780 was not returned to mpool ucp_requests
[1621393058.859131] [holy7c10111:183014:0]          mpool.c:43   UCX  WARN  object 0x51dae00 was not returned to mpool ucp_requests
[1621393058.863380] [holy7c10111:183029:0]          mpool.c:43   UCX  WARN  object 0x3f97280 was not returned to mpool ucp_requests
[1621393058.863442] [holy7c10111:183030:0]          mpool.c:43   UCX  WARN  object 0x33bb580 was not returned to mpool ucp_requests
[1621393058.837757] [holy7c10611:75939:0]          mpool.c:43   UCX  WARN  object 0x2a91e40 was not returned to mpool ucp_requests
[1621393058.834329] [holy7c10611:75950:0]          mpool.c:43   UCX  WARN  object 0x6a01480 was not returned to mpool ucp_requests
[1621393058.837004] [holy7c10611:75944:0]          mpool.c:43   UCX  WARN  object 0x344d400 was not returned to mpool ucp_requests
[1621393058.836281] [holy7c10611:75945:0]          mpool.c:43   UCX  WARN  object 0x2c8f100 was not returned to mpool ucp_requests
[1621393058.837811] [holy7c10611:75951:0]          mpool.c:43   UCX  WARN  object 0x465d180 was not returned to mpool ucp_requests
[1621393058.840234] [holy7c08509:25530:0]          mpool.c:43   UCX  WARN  object 0x4604700 was not returned to mpool ucp_requests
[1621393058.851288] [holy7c08509:25535:0]          mpool.c:43   UCX  WARN  object 0x3aa1480 was not returned to mpool ucp_requests
[1621393058.844755] [holy7c08509:25536:0]          mpool.c:43   UCX  WARN  object 0x5846080 was not returned to mpool ucp_requests
[1621393058.843059] [holy7c08509:25528:0]          mpool.c:43   UCX  WARN  object 0x499d7c0 was not returned to mpool ucp_requests
[1621393058.843879] [holy7c08509:25537:0]          mpool.c:43   UCX  WARN  object 0x32e2a40 was not returned to mpool ucp_requests
[1621393058.865825] [holy7c12508:252290:0]          mpool.c:43   UCX  WARN  object 0x3281680 was not returned to mpool ucp_requests
