
     Program PWSCF v.6.5 starts on 17May2021 at 20:50:18 

     This program is part of the open-source Quantum ESPRESSO suite
     for quantum simulation of materials; please cite
         "P. Giannozzi et al., J. Phys.:Condens. Matter 21 395502 (2009);
         "P. Giannozzi et al., J. Phys.:Condens. Matter 29 465901 (2017);
          URL http://www.quantum-espresso.org", 
     in publications or presentations arising from this work. More details at
     http://www.quantum-espresso.org/quote

     Parallel version (MPI), running on    80 processors

     MPI processes distributed on     5 nodes
     R & G space division:  proc/nbgrp/npool/nimage =      80
     Reading input from YBCO_CuO_cleave_3.0_sep.pwi
Warning: card &IONS ignored
Warning: card     ION_DYNAMICS = 'BFGS' ignored
Warning: card / ignored
Warning: card &CELL ignored
Warning: card     CELL_DYNAMICS = 'BFGS' ignored
Warning: card     PRESS_CONV_THR = 5 ignored
Warning: card / ignored

     Current dimensions of program PWSCF are:
     Max number of different atomic species (ntypx) = 10
     Max number of k-points (npk) =  40000
     Max angular momentum in pseudopotentials (lmaxx) =  3
     Message from routine volume:
     axis vectors are left-handed

     Subspace diagonalization in iterative solution of the eigenvalue problem:
     one sub-group per band group will be used
     scalapack distributed-memory algorithm (size of sub-group:  8*  8 procs)

     Message from routine setup:
     using ibrav=0 with symmetry is DISCOURAGED, use correct ibrav instead
 
     Parallelization info
     --------------------
     sticks:   dense  smooth     PW     G-vecs:    dense   smooth      PW
     Min         300     100     25               150530    28968    3803
     Max         301     101     26               150565    28991    3842
     Sum       24079    8031   2067             12044437  2318275  306339
 


     bravais-lattice index     =            0
     lattice parameter (alat)  =      20.5021  a.u.
     unit-cell volume          =   36917.4932 (a.u.)^3
     number of atoms/cell      =          224
     number of atomic types    =            5
     number of electrons       =      1830.00
     number of Kohn-Sham states=         1098
     kinetic-energy cutoff     =      60.0000  Ry
     charge density cutoff     =     720.0000  Ry
     convergence threshold     =      1.0E-08
     mixing beta               =       0.5000
     number of iterations used =           10  local-TF  mixing
     Exchange-correlation= SLA PW PBE PBE
                           (   1   4   3   4   0   0   0)

     celldm(1)=  20.502120  celldm(2)=   0.000000  celldm(3)=   0.000000
     celldm(4)=   0.000000  celldm(5)=   0.000000  celldm(6)=   0.000000

     crystal axes: (cart. coord. in units of alat)
               a(1) = (  -0.716599   0.697485   0.000000 )  
               a(2) = (   0.716599   0.697485   0.000000 )  
               a(3) = (   0.000000   0.000000   4.285432 )  

     reciprocal axes: (cart. coord. in units 2 pi/alat)
               b(1) = ( -0.697740  0.716861  0.000000 )  
               b(2) = (  0.697740  0.716861  0.000000 )  
               b(3) = (  0.000000  0.000000  0.233349 )  


     PseudoPot. # 1 for Ba read from file:
     ./pseudo/Ba.pbe-nsp-van.UPF
     MD5 check sum: 2b9c31dd849566dd297d80989662b7a0
     Pseudo is Ultrasoft + core correction, Zval = 10.0
     Generated by new atomic code, or converted to UPF format
     Using radial grid of  907 points,  6 beta functions with: 
                l(1) =   0
                l(2) =   0
                l(3) =   1
                l(4) =   1
                l(5) =   2
                l(6) =   2
     Q(r) pseudized with  6 coefficients,  rinner =    1.200   1.200   1.200
                                                       1.200   1.200

     PseudoPot. # 2 for Ca read from file:
     ./pseudo/Ca.pbe-nsp-van.UPF
     MD5 check sum: 6471098428ff4fa451746d08035ff179
     Pseudo is Ultrasoft + core correction, Zval = 10.0
     Generated by new atomic code, or converted to UPF format
     Using radial grid of  845 points,  6 beta functions with: 
                l(1) =   0
                l(2) =   0
                l(3) =   1
                l(4) =   1
                l(5) =   2
                l(6) =   2
     Q(r) pseudized with  6 coefficients,  rinner =    1.200   1.200   1.200
                                                       1.200   1.200

     PseudoPot. # 3 for Cu read from file:
     ./pseudo/Cu.pbe-n-van_ak.UPF
     MD5 check sum: 34e3282627ffb533726feb647e090d62
     Pseudo is Ultrasoft + core correction, Zval = 11.0
     Generated by new atomic code, or converted to UPF format
     Using radial grid of  867 points,  6 beta functions with: 
                l(1) =   0
                l(2) =   0
                l(3) =   1
                l(4) =   1
                l(5) =   2
                l(6) =   2
     Q(r) pseudized with  8 coefficients,  rinner =    1.400   1.400   1.400
                                                       1.400   1.400

     PseudoPot. # 4 for O  read from file:
     ./pseudo/O.pbe-van_ak.UPF
     MD5 check sum: 783ce7fe4c79b6a4916957118fed0856
     Pseudo is Ultrasoft, Zval =  6.0
     Generated by new atomic code, or converted to UPF format
     Using radial grid of  737 points,  4 beta functions with: 
                l(1) =   0
                l(2) =   0
                l(3) =   1
                l(4) =   1
     Q(r) pseudized with  8 coefficients,  rinner =    0.800   0.800   0.800


     PseudoPot. # 5 for Y  read from file:
     ./pseudo/Y.pbe-nsp-van.UPF
     MD5 check sum: 4412fed3ab108fed87a1b7d6a69a4a38
     Pseudo is Ultrasoft + core correction, Zval = 11.0
     Generated by new atomic code, or converted to UPF format
     Using radial grid of  885 points,  6 beta functions with: 
                l(1) =   0
                l(2) =   0
                l(3) =   1
                l(4) =   1
                l(5) =   2
                l(6) =   2
     Q(r) pseudized with  6 coefficients,  rinner =    1.200   1.200   1.200
                                                       1.200   1.200

     atomic species   valence    mass     pseudopotential
        Ba            10.00   137.32700     Ba( 1.00)
        Ca            10.00    40.07800     Ca( 1.00)
        Cu            11.00    63.54600     Cu( 1.00)
        O              6.00    15.99900     O ( 1.00)
        Y             11.00    88.90584     Y ( 1.00)

      4 Sym. Ops. (no inversion) found ( 3 have fractional translation)



   Cartesian axes

     site n.     atom                  positions (alat units)
         1           O   tau(   1) = (   0.3545921   0.8718562  -0.0077406  )
         2           O   tau(   2) = (   0.0037072   0.8718562  -0.0077406  )
         3           Cu  tau(   3) = (  -0.0002581   0.0006065   0.0080789  )
         4           Cu  tau(   4) = (  -0.0002581   0.3481364   0.0080789  )
         5           Cu  tau(   5) = (   0.3585574   0.3481364   0.0080789  )
         6           Cu  tau(   6) = (  -0.3580421   0.6980913   0.0080789  )
         7           Cu  tau(   7) = (   0.3577988   0.6971373   0.0086255  )
         8           Cu  tau(   8) = (   0.0005005   1.0465760   0.0086255  )
         9           Cu  tau(   9) = (  -0.3588016   0.3490903   0.0086255  )
        10           Cu  tau(  10) = (   0.0005005   0.6971373   0.0086255  )
        11           O   tau(  11) = (  -0.0001733   0.5225410  -0.0089757  )
        12           O   tau(  12) = (   0.3584726   0.5225410  -0.0089757  )
        13           O   tau(  13) = (  -0.0001733   1.2211724  -0.0089757  )
        14           O   tau(  14) = (  -0.3581278   0.5236867  -0.0089757  )
        15           O   tau(  15) = (  -0.3544557   0.8718562  -0.0105593  )
        16           O   tau(  16) = (  -0.0038445   0.1743714  -0.0105593  )
        17           O   tau(  17) = (   0.3588818   0.3486599   0.1817056  )
        18           O   tau(  18) = (  -0.0005825   0.3486599   0.1817056  )
        19           O   tau(  19) = (  -0.0005825   0.0000830   0.1817056  )
        20           O   tau(  20) = (  -0.3577167   0.6975677   0.1817056  )
        21           O   tau(  21) = (   0.3584283   0.6967843   0.1825784  )
        22           O   tau(  22) = (  -0.3581712   0.3494443   0.1825784  )
        23           O   tau(  23) = (  -0.0001290   0.6967843   0.1825784  )
        24           O   tau(  24) = (  -0.0001290   1.0469291   0.1825784  )
        25           Ba  tau(  25) = (   0.1791506   0.8718562   0.1908537  )
        26           Ba  tau(  26) = (   0.5374498   0.5231143   0.1919901  )
        27           Ba  tau(  27) = (  -0.1791506   0.5231143   0.1919901  )
        28           Ba  tau(  28) = (  -0.1793773   0.8718562   0.1931958  )
        29           Ba  tau(  29) = (  -0.1789238   0.1743714   0.1931958  )
        30           Ba  tau(  30) = (   0.1791506   0.5222101   0.1929368  )
        31           Ba  tau(  31) = (  -0.5374498   0.5240176   0.1929368  )
        32           Ba  tau(  32) = (   0.1791506   0.1743714   0.1992469  )
        33           Cu  tau(  33) = (  -0.3583426   0.3488452   0.3777458  )
        34           Cu  tau(  34) = (   0.3582559   0.6973834   0.3777458  )
        35           Cu  tau(  35) = (   0.0000433   0.6973834   0.3777458  )
        36           Cu  tau(  36) = (   0.0000433   1.0463299   0.3777458  )
        37           Cu  tau(  37) = (  -0.3586541   0.6975060   0.3775126  )
        38           Cu  tau(  38) = (   0.3579444   0.3487217   0.3775126  )
        39           Cu  tau(  39) = (   0.0003549   0.0000212   0.3775126  )
        40           Cu  tau(  40) = (   0.0003549   0.3487217   0.3775126  )
        41           O   tau(  41) = (  -0.0047976   0.1743714   0.3996864  )
        42           O   tau(  42) = (  -0.3535026   0.8718562   0.3996864  )
        43           O   tau(  43) = (  -0.5374498   0.6924605   0.3956991  )
        44           O   tau(  44) = (   0.1791506   0.3537672   0.3956991  )
        45           O   tau(  45) = (   0.3586385   0.8718562   0.4046840  )
        46           O   tau(  46) = (  -0.0003392   0.8718562   0.4046840  )
        47           O   tau(  47) = (  -0.0004857   0.5230571   0.4066611  )
        48           O   tau(  48) = (   0.3587850   0.5230571   0.4066611  )
        49           O   tau(  49) = (  -0.3578135   0.5231714   0.4066611  )
        50           O   tau(  50) = (  -0.0004857   1.2206562   0.4066611  )
        51           O   tau(  51) = (   0.1791506   1.0461604   0.4028931  )
        52           O   tau(  52) = (   0.1791506   0.6975521   0.4028931  )
        53           O   tau(  53) = (  -0.1792261   0.6967170   0.4025963  )
        54           O   tau(  54) = (  -0.1790731   0.3495106   0.4025963  )
        55           O   tau(  55) = (  -0.1792261   1.0469964   0.4025963  )
        56           O   tau(  56) = (   0.5375263   0.6967170   0.4025963  )
        57           Ca  tau(  57) = (   0.1791506   0.1743714   0.5358617  )
        58           Y   tau(  58) = (  -0.1811525   0.8718562   0.5373908  )
        59           Y   tau(  59) = (  -0.1771467   0.1743714   0.5373908  )
        60           Y   tau(  60) = (   0.1791506   0.8718562   0.5379568  )
        61           Y   tau(  61) = (   0.5374498   0.5231143   0.5384490  )
        62           Y   tau(  62) = (  -0.1791506   0.5231143   0.5384490  )
        63           Y   tau(  63) = (   0.1791506   0.5216598   0.5383310  )
        64           Y   tau(  64) = (  -0.5374498   0.5245688   0.5383310  )
        65           O   tau(  65) = (  -0.1787754   0.3493171   0.6712314  )
        66           O   tau(  66) = (   0.5378231   0.6969115   0.6712314  )
        67           O   tau(  67) = (  -0.1795239   1.0468019   0.6712314  )
        68           O   tau(  68) = (  -0.1795239   0.6969115   0.6712314  )
        69           O   tau(  69) = (   0.1791506   0.6972691   0.6718637  )
        70           O   tau(  70) = (   0.1791506   1.0464433   0.6718637  )
        71           O   tau(  71) = (  -0.0003880   1.2203935   0.6667490  )
        72           O   tau(  72) = (  -0.0003880   0.5233198   0.6667490  )
        73           O   tau(  73) = (   0.3586882   0.5233198   0.6667490  )
        74           O   tau(  74) = (  -0.3579112   0.5229087   0.6667490  )
        75           O   tau(  75) = (   0.3585850   0.8718562   0.6641940  )
        76           O   tau(  76) = (  -0.0002857   0.8718562   0.6641940  )
        77           O   tau(  77) = (   0.1791506   0.3535118   0.6756778  )
        78           O   tau(  78) = (  -0.5374498   0.6927158   0.6756778  )
        79           O   tau(  79) = (  -0.0043044   0.1743714   0.6710848  )
        80           O   tau(  80) = (  -0.3539948   0.8718562   0.6710848  )
        81           Cu  tau(  81) = (  -0.3586514   0.6973604   0.6974442  )
        82           Cu  tau(  82) = (   0.3579472   0.3488682   0.6974442  )
        83           Cu  tau(  83) = (   0.0003521  -0.0001254   0.6974442  )
        84           Cu  tau(  84) = (   0.0003521   0.3488682   0.6974442  )
        85           Cu  tau(  85) = (   0.0000083   1.0459401   0.6989015  )
        86           Cu  tau(  86) = (  -0.3583076   0.3484544   0.6989015  )
        87           Cu  tau(  87) = (   0.3582910   0.6977733   0.6989015  )
        88           Cu  tau(  88) = (   0.0000083   0.6977733   0.6989015  )
        89           Ba  tau(  89) = (   0.1791506   0.1743714   0.8671591  )
        90           Ba  tau(  90) = (  -0.5374498   0.5239908   0.8827639  )
        91           Ba  tau(  91) = (   0.1791506   0.5222377   0.8827639  )
        92           Ba  tau(  92) = (  -0.1785616   0.1743714   0.8784262  )
        93           Ba  tau(  93) = (  -0.1797386   0.8718562   0.8784262  )
        94           Ba  tau(  94) = (  -0.1791506   0.5231143   0.8841483  )
        95           Ba  tau(  95) = (   0.5374498   0.5231143   0.8841483  )
        96           Ba  tau(  96) = (   0.1791506   0.8718562   0.8844635  )
        97           O   tau(  97) = (   0.3607888   0.6975991   0.9037874  )
        98           O   tau(  98) = (  -0.3558097   0.3486286   0.9037874  )
        99           O   tau(  99) = (  -0.0024896   0.6975991   0.9037874  )
       100           O   tau( 100) = (  -0.0024896   1.0461143   0.9037874  )
       101           O   tau( 101) = (   0.3544087   0.3463252   0.9043663  )
       102           O   tau( 102) = (   0.0038906   0.3463252   0.9043663  )
       103           O   tau( 103) = (   0.0038906   0.0024177   0.9043663  )
       104           O   tau( 104) = (  -0.3621908   0.6999025   0.9043663  )
       105           O   tau( 105) = (   0.3314246   0.8718562   1.0783672  )
       106           O   tau( 106) = (   0.0268747   0.8718562   1.0783672  )
       107           Cu  tau( 107) = (  -0.0027882   0.0031818   1.0782086  )
       108           Cu  tau( 108) = (  -0.0027882   0.3455601   1.0782086  )
       109           Cu  tau( 109) = (   0.3610875   0.3455601   1.0782086  )
       110           Cu  tau( 110) = (  -0.3555111   0.7006675   1.0782086  )
       111           Cu  tau( 111) = (   0.3579684   0.6983604   1.0781976  )
       112           Cu  tau( 112) = (   0.0003318   1.0453529   1.0781976  )
       113           Cu  tau( 113) = (  -0.3586320   0.3478672   1.0781976  )
       114           Cu  tau( 114) = (   0.0003318   0.6983604   1.0781976  )
       115           O   tau( 115) = (  -0.0055718   0.5218801   1.0778989  )
       116           O   tau( 116) = (   0.3638720   0.5218801   1.0778989  )
       117           O   tau( 117) = (  -0.0055718   1.2218333   1.0778989  )
       118           O   tau( 118) = (  -0.3527284   0.5243475   1.0778989  )
       119           O   tau( 119) = (  -0.3170374   0.8718562   1.0783192  )
       120           O   tau( 120) = (  -0.0412618   0.1743714   1.0783192  )
       121           O   tau( 121) = (   0.3544105   0.3465040   1.5285529  )
       122           O   tau( 122) = (   0.0038887   0.3465040   1.5285529  )
       123           O   tau( 123) = (   0.0038887   0.0022389   1.5285529  )
       124           O   tau( 124) = (  -0.3621880   0.6997236   1.5285529  )
       125           O   tau( 125) = (   0.3607981   0.6973991   1.5291143  )
       126           O   tau( 126) = (  -0.3558014   0.3488295   1.5291143  )
       127           O   tau( 127) = (  -0.0024988   0.6973991   1.5291143  )
       128           O   tau( 128) = (  -0.0024988   1.0463143   1.5291143  )
       129           Ba  tau( 129) = (   0.1791506   0.8718562   1.5484695  )
       130           Ba  tau( 130) = (   0.5374498   0.5231143   1.5487930  )
       131           Ba  tau( 131) = (  -0.1791506   0.5231143   1.5487930  )
       132           Ba  tau( 132) = (  -0.1796732   0.8718562   1.5544930  )
       133           Ba  tau( 133) = (  -0.1786270   0.1743714   1.5544930  )
       134           Ba  tau( 134) = (   0.1791506   0.5222571   1.5502208  )
       135           Ba  tau( 135) = (  -0.5374498   0.5239706   1.5502208  )
       136           Ba  tau( 136) = (   0.1791506   0.1743714   1.5657435  )
       137           Cu  tau( 137) = (  -0.3583094   0.3484682   1.7340399  )
       138           Cu  tau( 138) = (   0.3582901   0.6977604   1.7340399  )
       139           Cu  tau( 139) = (   0.0000101   0.6977604   1.7340399  )
       140           Cu  tau( 140) = (   0.0000101   1.0459530   1.7340399  )
       141           Cu  tau( 141) = (  -0.3586477   0.6973567   1.7354602  )
       142           Cu  tau( 142) = (   0.3579518   0.3488710   1.7354602  )
       143           Cu  tau( 143) = (   0.0003484  -0.0001281   1.7354602  )
       144           Cu  tau( 144) = (   0.0003484   0.3488710   1.7354602  )
       145           O   tau( 145) = (  -0.0043173   0.1743714   1.7617653  )
       146           O   tau( 146) = (  -0.3539819   0.8718562   1.7617653  )
       147           O   tau( 147) = (  -0.5374498   0.6927305   1.7572341  )
       148           O   tau( 148) = (   0.1791506   0.3534971   1.7572341  )
       149           O   tau( 149) = (   0.3585795   0.8718562   1.7686754  )
       150           O   tau( 150) = (  -0.0002802   0.8718562   1.7686754  )
       151           O   tau( 151) = (  -0.0003853   0.5233134   1.7661794  )
       152           O   tau( 152) = (   0.3586855   0.5233134   1.7661794  )
       153           O   tau( 153) = (  -0.3579140   0.5229152   1.7661794  )
       154           O   tau( 154) = (  -0.0003853   1.2204000   1.7661794  )
       155           O   tau( 155) = (   0.1791506   1.0464553   1.7610528  )
       156           O   tau( 156) = (   0.1791506   0.6972571   1.7610528  )
       157           O   tau( 157) = (  -0.1795146   0.6969069   1.7616814  )
       158           O   tau( 158) = (  -0.1787846   0.3493208   1.7616814  )
       159           O   tau( 159) = (  -0.1795146   1.0468065   1.7616814  )
       160           O   tau( 160) = (   0.5378139   0.6969069   1.7616814  )
       161           Ca  tau( 161) = (   0.1791506   0.1743714   1.8970437  )
       162           Y   tau( 162) = (  -0.1811544   0.8718562   1.8955127  )
       163           Y   tau( 163) = (  -0.1771449   0.1743714   1.8955127  )
       164           Y   tau( 164) = (   0.1791506   0.8718562   1.8949495  )
       165           Y   tau( 165) = (   0.5374498   0.5231143   1.8944804  )
       166           Y   tau( 166) = (  -0.1791506   0.5231143   1.8944804  )
       167           Y   tau( 167) = (   0.1791506   0.5216524   1.8946011  )
       168           Y   tau( 168) = (  -0.5374498   0.5245761   1.8946011  )
       169           O   tau( 169) = (  -0.1790685   0.3495088   2.0303155  )
       170           O   tau( 170) = (   0.5375300   0.6967198   2.0303155  )
       171           O   tau( 171) = (  -0.1792307   1.0469936   2.0303155  )
       172           O   tau( 172) = (  -0.1792307   0.6967198   2.0303155  )
       173           O   tau( 173) = (   0.1791506   0.6975604   2.0300187  )
       174           O   tau( 174) = (   0.1791506   1.0461521   2.0300187  )
       175           O   tau( 175) = (  -0.0004848   1.2206534   2.0262544  )
       176           O   tau( 176) = (  -0.0004848   0.5230599   2.0262544  )
       177           O   tau( 177) = (   0.3587841   0.5230599   2.0262544  )
       178           O   tau( 178) = (  -0.3578144   0.5231687   2.0262544  )
       179           O   tau( 179) = (   0.3586468   0.8718562   2.0281928  )
       180           O   tau( 180) = (  -0.0003466   0.8718562   2.0281928  )
       181           O   tau( 181) = (   0.1791506   0.3537690   2.0372155  )
       182           O   tau( 182) = (  -0.5374498   0.6924586   2.0372155  )
       183           O   tau( 183) = (  -0.0047874   0.1743714   2.0331802  )
       184           O   tau( 184) = (  -0.3535118   0.8718562   2.0331802  )
       185           Cu  tau( 185) = (  -0.3586560   0.6975087   2.0553864  )
       186           Cu  tau( 186) = (   0.3579435   0.3487198   2.0553864  )
       187           Cu  tau( 187) = (   0.0003567   0.0000230   2.0553864  )
       188           Cu  tau( 188) = (   0.0003567   0.3487198   2.0553864  )
       189           Cu  tau( 189) = (   0.0000415   1.0463263   2.0551541  )
       190           Cu  tau( 190) = (  -0.3583407   0.3488406   2.0551541  )
       191           Cu  tau( 191) = (   0.3582587   0.6973871   2.0551541  )
       192           Cu  tau( 192) = (   0.0000415   0.6973871   2.0551541  )
       193           Ba  tau( 193) = (   0.1791506   0.1743714   2.2336594  )
       194           Ba  tau( 194) = (  -0.5374498   0.5240166   2.2399686  )
       195           Ba  tau( 195) = (   0.1791506   0.5222119   2.2399686  )
       196           Ba  tau( 196) = (  -0.1789220   0.1743714   2.2397124  )
       197           Ba  tau( 197) = (  -0.1793773   0.8718562   2.2397124  )
       198           Ba  tau( 198) = (  -0.1791506   0.5231143   2.2409226  )
       199           Ba  tau( 199) = (   0.5374498   0.5231143   2.2409226  )
       200           Ba  tau( 200) = (   0.1791506   0.8718562   2.2420508  )
       201           O   tau( 201) = (   0.3584302   0.6967870   2.2503205  )
       202           O   tau( 202) = (  -0.3581684   0.3494406   2.2503205  )
       203           O   tau( 203) = (  -0.0001309   0.6967870   2.2503205  )
       204           O   tau( 204) = (  -0.0001309   1.0469263   2.2503205  )
       205           O   tau( 205) = (   0.3588800   0.3486562   2.2511934  )
       206           O   tau( 206) = (  -0.0005807   0.3486562   2.2511934  )
       207           O   tau( 207) = (  -0.0005807   0.0000866   2.2511934  )
       208           O   tau( 208) = (  -0.3577186   0.6975714   2.2511934  )
       209           O   tau( 209) = (   0.3545921   0.8718562   2.4406239  )
       210           O   tau( 210) = (   0.0037081   0.8718562   2.4406239  )
       211           Cu  tau( 211) = (  -0.0002516   0.0006074   2.4248200  )
       212           Cu  tau( 212) = (  -0.0002516   0.3481345   2.4248200  )
       213           Cu  tau( 213) = (   0.3585509   0.3481345   2.4248200  )
       214           Cu  tau( 214) = (  -0.3580476   0.6980931   2.4248200  )
       215           Cu  tau( 215) = (   0.3577960   0.6971373   2.4242735  )
       216           Cu  tau( 216) = (   0.0005033   1.0465760   2.4242735  )
       217           Cu  tau( 217) = (  -0.3588035   0.3490903   2.4242735  )
       218           Cu  tau( 218) = (   0.0005033   0.6971373   2.4242735  )
       219           O   tau( 219) = (  -0.0001724   0.5225410   2.4418627  )
       220           O   tau( 220) = (   0.3584716   0.5225410   2.4418627  )
       221           O   tau( 221) = (  -0.0001724   1.2211724   2.4418627  )
       222           O   tau( 222) = (  -0.3581288   0.5236867   2.4418627  )
       223           O   tau( 223) = (  -0.3544640   0.8718562   2.4434527  )
       224           O   tau( 224) = (  -0.0038353   0.1743714   2.4434527  )

     number of k points=     4  Gaussian smearing, width (Ry)=  0.0100
                       cart. coord. in units 2pi/alat
        k(    1) = (   0.0000000   0.0000000   0.0000000), wk =   0.2222222
        k(    2) = (   0.2325801   0.2389537   0.0000000), wk =   0.8888889
        k(    3) = (   0.0000000   0.4779073   0.0000000), wk =   0.4444444
        k(    4) = (  -0.4651601  -0.0000000   0.0000000), wk =   0.4444444

     Dense  grid: 12044437 G-vectors     FFT dimensions: ( 180, 180, 768)

     Smooth grid:  2318275 G-vectors     FFT dimensions: ( 108, 108, 450)

     Estimated max dynamical RAM per process >       2.51 GB

     Estimated total dynamical RAM >     201.15 GB

     Initial potential from superposition of free atoms

     starting charge 1828.78422, renormalised to 1830.00000

     negative rho (up, down):  6.297E-01 0.000E+00
     Starting wfcs are 1602 randomized atomic wfcs

     total cpu time spent up to now is       60.4 secs

     Self-consistent Calculation

     iteration #  1     ecut=    60.00 Ry     beta= 0.50
     Davidson diagonalization with overlap
     ethr =  1.00E-02,  avg # of iterations =  2.0

     negative rho (up, down):  5.992E-01 0.000E+00

     total cpu time spent up to now is      163.4 secs

     total energy              =  -14912.69292198 Ry
     Harris-Foulkes estimate   =  -14943.03840113 Ry
     estimated scf accuracy    <     110.35915938 Ry

     iteration #  2     ecut=    60.00 Ry     beta= 0.50
     Davidson diagonalization with overlap
     ethr =  6.03E-03,  avg # of iterations =  2.0

     negative rho (up, down):  5.993E-01 0.000E+00

     total cpu time spent up to now is      264.2 secs

     total energy              =  -14922.22548652 Ry
     Harris-Foulkes estimate   =  -14926.45626351 Ry
     estimated scf accuracy    <      23.35482581 Ry

     iteration #  3     ecut=    60.00 Ry     beta= 0.50
     Davidson diagonalization with overlap
     ethr =  1.28E-03,  avg # of iterations =  2.0

     negative rho (up, down):  6.021E-01 0.000E+00

     total cpu time spent up to now is      363.1 secs

     total energy              =  -14924.00198324 Ry
     Harris-Foulkes estimate   =  -14925.55898003 Ry
     estimated scf accuracy    <      40.54822246 Ry

     iteration #  4     ecut=    60.00 Ry     beta= 0.50
     Davidson diagonalization with overlap
     ethr =  1.28E-03,  avg # of iterations =  1.0

     negative rho (up, down):  6.053E-01 0.000E+00

     total cpu time spent up to now is      456.7 secs

     total energy              =  -14924.33428657 Ry
     Harris-Foulkes estimate   =  -14924.70080861 Ry
     estimated scf accuracy    <      12.74982232 Ry

     iteration #  5     ecut=    60.00 Ry     beta= 0.50
     Davidson diagonalization with overlap
     ethr =  6.97E-04,  avg # of iterations =  1.0

     negative rho (up, down):  6.153E-01 0.000E+00

     total cpu time spent up to now is      549.4 secs

     total energy              =  -14924.00495971 Ry
     Harris-Foulkes estimate   =  -14924.52903477 Ry
     estimated scf accuracy    <       6.71800410 Ry

     iteration #  6     ecut=    60.00 Ry     beta= 0.50
     Davidson diagonalization with overlap
     ethr =  3.67E-04,  avg # of iterations =  4.8

     negative rho (up, down):  6.183E-01 0.000E+00

     total cpu time spent up to now is      658.6 secs

     total energy              =  -14924.07726817 Ry
     Harris-Foulkes estimate   =  -14924.18160602 Ry
     estimated scf accuracy    <       3.73887330 Ry

     iteration #  7     ecut=    60.00 Ry     beta= 0.50
     Davidson diagonalization with overlap
     ethr =  2.04E-04,  avg # of iterations = 10.2

     negative rho (up, down):  6.264E-01 0.000E+00

     total cpu time spent up to now is      790.1 secs

     total energy              =  -14923.99051122 Ry
     Harris-Foulkes estimate   =  -14924.12900032 Ry
     estimated scf accuracy    <       2.08430878 Ry

     iteration #  8     ecut=    60.00 Ry     beta= 0.50
     Davidson diagonalization with overlap
     ethr =  1.14E-04,  avg # of iterations = 11.0

     negative rho (up, down):  6.294E-01 0.000E+00

     total cpu time spent up to now is      930.4 secs

     total energy              =  -14923.96765643 Ry
     Harris-Foulkes estimate   =  -14924.06146226 Ry
     estimated scf accuracy    <       3.29956805 Ry

     iteration #  9     ecut=    60.00 Ry     beta= 0.50
     Davidson diagonalization with overlap
     ethr =  1.14E-04,  avg # of iterations =  1.0

     negative rho (up, down):  6.318E-01 0.000E+00

     total cpu time spent up to now is     1026.1 secs

     total energy              =  -14923.95885168 Ry
     Harris-Foulkes estimate   =  -14924.02122653 Ry
     estimated scf accuracy    <       1.91800090 Ry

     iteration # 10     ecut=    60.00 Ry     beta= 0.50
     Davidson diagonalization with overlap
     ethr =  1.05E-04,  avg # of iterations =  1.0

     negative rho (up, down):  6.321E-01 0.000E+00

     total cpu time spent up to now is     1124.8 secs

     total energy              =  -14923.94629408 Ry
     Harris-Foulkes estimate   =  -14923.97836967 Ry
     estimated scf accuracy    <       0.88581692 Ry

     iteration # 11     ecut=    60.00 Ry     beta= 0.50
     Davidson diagonalization with overlap
     ethr =  4.84E-05,  avg # of iterations =  6.0

     negative rho (up, down):  6.308E-01 0.000E+00

     total cpu time spent up to now is     1245.7 secs

     total energy              =  -14923.92488690 Ry
     Harris-Foulkes estimate   =  -14923.95626980 Ry
     estimated scf accuracy    <       0.59464295 Ry

     iteration # 12     ecut=    60.00 Ry     beta= 0.50
     Davidson diagonalization with overlap
     ethr =  3.25E-05,  avg # of iterations = 10.2

     negative rho (up, down):  6.289E-01 0.000E+00

     total cpu time spent up to now is     1388.9 secs

     total energy              =  -14923.92204954 Ry
     Harris-Foulkes estimate   =  -14923.93332998 Ry
     estimated scf accuracy    <       0.32923666 Ry

     iteration # 13     ecut=    60.00 Ry     beta= 0.50
     Davidson diagonalization with overlap
     ethr =  1.80E-05,  avg # of iterations =  6.2

     negative rho (up, down):  6.279E-01 0.000E+00

     total cpu time spent up to now is     1503.8 secs

     total energy              =  -14923.92174297 Ry
     Harris-Foulkes estimate   =  -14923.92544190 Ry
     estimated scf accuracy    <       0.31307430 Ry

     iteration # 14     ecut=    60.00 Ry     beta= 0.50
     Davidson diagonalization with overlap
     ethr =  1.71E-05,  avg # of iterations =  1.0

     negative rho (up, down):  6.262E-01 0.000E+00

     total cpu time spent up to now is     1598.3 secs

     total energy              =  -14923.91584139 Ry
     Harris-Foulkes estimate   =  -14923.92319276 Ry
     estimated scf accuracy    <       0.37322325 Ry

     iteration # 15     ecut=    60.00 Ry     beta= 0.50
     Davidson diagonalization with overlap
     ethr =  1.71E-05,  avg # of iterations = 11.2

     negative rho (up, down):  6.259E-01 0.000E+00

     total cpu time spent up to now is     1730.4 secs

     total energy              =  -14923.91479791 Ry
     Harris-Foulkes estimate   =  -14923.91733872 Ry
     estimated scf accuracy    <       0.37477790 Ry

     iteration # 16     ecut=    60.00 Ry     beta= 0.50
     Davidson diagonalization with overlap
     ethr =  1.71E-05,  avg # of iterations =  2.5

     negative rho (up, down):  6.246E-01 0.000E+00

     total cpu time spent up to now is     1829.4 secs

     total energy              =  -14923.91003403 Ry
     Harris-Foulkes estimate   =  -14923.91711435 Ry
     estimated scf accuracy    <       0.43587338 Ry

     iteration # 17     ecut=    60.00 Ry     beta= 0.50
     Davidson diagonalization with overlap
     ethr =  1.71E-05,  avg # of iterations =  1.0

     negative rho (up, down):  6.906E-01 0.000E+00

     total cpu time spent up to now is     1924.4 secs

     total energy              =  -14923.89019682 Ry
     Harris-Foulkes estimate   =  -14923.91161643 Ry
     estimated scf accuracy    <       0.43092628 Ry

     iteration # 18     ecut=    60.00 Ry     beta= 0.50
     Davidson diagonalization with overlap
     ethr =  1.71E-05,  avg # of iterations = 10.5

     negative rho (up, down):  7.608E-01 0.000E+00

     total cpu time spent up to now is     2064.3 secs

     total energy              =  -14923.88592419 Ry
     Harris-Foulkes estimate   =  -14923.89300191 Ry
     estimated scf accuracy    <       0.15980084 Ry

     iteration # 19     ecut=    60.00 Ry     beta= 0.50
     Davidson diagonalization with overlap
     ethr =  8.73E-06,  avg # of iterations = 13.0

     negative rho (up, down):  7.705E-01 0.000E+00

     total cpu time spent up to now is     2212.7 secs

     total energy              =  -14923.88407354 Ry
     Harris-Foulkes estimate   =  -14923.88742158 Ry
     estimated scf accuracy    <       0.10784468 Ry

     iteration # 20     ecut=    60.00 Ry     beta= 0.50
     Davidson diagonalization with overlap
     ethr =  5.89E-06,  avg # of iterations = 13.2

     negative rho (up, down):  7.016E-01 0.000E+00

     total cpu time spent up to now is     2348.7 secs

     total energy              =  -14923.88110846 Ry
     Harris-Foulkes estimate   =  -14923.88464955 Ry
     estimated scf accuracy    <       0.07442071 Ry

     iteration # 21     ecut=    60.00 Ry     beta= 0.50
     Davidson diagonalization with overlap
     ethr =  4.07E-06,  avg # of iterations = 10.0

     negative rho (up, down):  6.939E-01 0.000E+00

     total cpu time spent up to now is     2475.7 secs

     total energy              =  -14923.87998909 Ry
     Harris-Foulkes estimate   =  -14923.88161304 Ry
     estimated scf accuracy    <       0.03688529 Ry

     iteration # 22     ecut=    60.00 Ry     beta= 0.50
     Davidson diagonalization with overlap
     c_bands:  1 eigenvalues not converged
     ethr =  2.02E-06,  avg # of iterations = 14.8

     negative rho (up, down):  6.643E-01 0.000E+00

     total cpu time spent up to now is     2623.4 secs

     total energy              =  -14923.87933717 Ry
     Harris-Foulkes estimate   =  -14923.88044373 Ry
     estimated scf accuracy    <       0.01392892 Ry

     iteration # 23     ecut=    60.00 Ry     beta= 0.50
     Davidson diagonalization with overlap
     ethr =  7.61E-07,  avg # of iterations =  7.2

     negative rho (up, down):  6.484E-01 0.000E+00

     total cpu time spent up to now is     2740.1 secs

     total energy              =  -14923.87925486 Ry
     Harris-Foulkes estimate   =  -14923.87956413 Ry
     estimated scf accuracy    <       0.00438472 Ry

     iteration # 24     ecut=    60.00 Ry     beta= 0.50
     Davidson diagonalization with overlap
     c_bands:  1 eigenvalues not converged
     ethr =  2.40E-07,  avg # of iterations = 10.5

     negative rho (up, down):  6.274E-01 0.000E+00

     total cpu time spent up to now is     2863.9 secs

     total energy              =  -14923.87931694 Ry
     Harris-Foulkes estimate   =  -14923.87937422 Ry
     estimated scf accuracy    <       0.00242483 Ry

     iteration # 25     ecut=    60.00 Ry     beta= 0.50
     Davidson diagonalization with overlap
     c_bands:  4 eigenvalues not converged
     c_bands:  2 eigenvalues not converged
     ethr =  1.33E-07,  avg # of iterations = 17.8

     negative rho (up, down):  6.283E-01 0.000E+00

     total cpu time spent up to now is     3020.9 secs

     total energy              =  -14923.87953299 Ry
     Harris-Foulkes estimate   =  -14923.87944151 Ry
     estimated scf accuracy    <       0.00171336 Ry

     iteration # 26     ecut=    60.00 Ry     beta= 0.50
     Davidson diagonalization with overlap
     c_bands:  1 eigenvalues not converged
     c_bands:  2 eigenvalues not converged
     ethr =  9.36E-08,  avg # of iterations = 12.5

     negative rho (up, down):  6.299E-01 0.000E+00

     total cpu time spent up to now is     3153.4 secs

     total energy              =  -14923.87964206 Ry
     Harris-Foulkes estimate   =  -14923.87958007 Ry
     estimated scf accuracy    <       0.00041022 Ry

     iteration # 27     ecut=    60.00 Ry     beta= 0.50
     Davidson diagonalization with overlap
     c_bands:  1 eigenvalues not converged
     ethr =  2.24E-08,  avg # of iterations =  6.8

     negative rho (up, down):  6.304E-01 0.000E+00

     total cpu time spent up to now is     3264.2 secs

     total energy              =  -14923.87969009 Ry
     Harris-Foulkes estimate   =  -14923.87966131 Ry
     estimated scf accuracy    <       0.00013031 Ry

     iteration # 28     ecut=    60.00 Ry     beta= 0.50
     Davidson diagonalization with overlap
     ethr =  7.12E-09,  avg # of iterations =  7.2

     negative rho (up, down):  6.306E-01 0.000E+00

     total cpu time spent up to now is     3378.4 secs

     total energy              =  -14923.87969334 Ry
     Harris-Foulkes estimate   =  -14923.87969487 Ry
     estimated scf accuracy    <       0.00007641 Ry

     iteration # 29     ecut=    60.00 Ry     beta= 0.50
     Davidson diagonalization with overlap
     ethr =  4.18E-09,  avg # of iterations =  1.0

     negative rho (up, down):  6.336E-01 0.000E+00

     total cpu time spent up to now is     3468.1 secs

     total energy              =  -14923.87969457 Ry
     Harris-Foulkes estimate   =  -14923.87969509 Ry
     estimated scf accuracy    <       0.00003749 Ry

     iteration # 30     ecut=    60.00 Ry     beta= 0.50
     Davidson diagonalization with overlap
     ethr =  2.05E-09,  avg # of iterations =  2.0

     negative rho (up, down):  6.337E-01 0.000E+00

     total cpu time spent up to now is     3563.0 secs

     total energy              =  -14923.87969612 Ry
     Harris-Foulkes estimate   =  -14923.87969693 Ry
     estimated scf accuracy    <       0.00002559 Ry

     iteration # 31     ecut=    60.00 Ry     beta= 0.50
     Davidson diagonalization with overlap
     ethr =  1.40E-09,  avg # of iterations =  1.0

     negative rho (up, down):  6.341E-01 0.000E+00

     total cpu time spent up to now is     3654.5 secs

     total energy              =  -14923.87969617 Ry
     Harris-Foulkes estimate   =  -14923.87969670 Ry
     estimated scf accuracy    <       0.00000669 Ry

     iteration # 32     ecut=    60.00 Ry     beta= 0.50
     Davidson diagonalization with overlap
     ethr =  3.66E-10,  avg # of iterations =  1.0

     negative rho (up, down):  6.343E-01 0.000E+00

     total cpu time spent up to now is     3745.4 secs

     total energy              =  -14923.87969566 Ry
     Harris-Foulkes estimate   =  -14923.87969640 Ry
     estimated scf accuracy    <       0.00000335 Ry

     iteration # 33     ecut=    60.00 Ry     beta= 0.50
     Davidson diagonalization with overlap
     ethr =  1.83E-10,  avg # of iterations =  1.2

     negative rho (up, down):  6.346E-01 0.000E+00

     total cpu time spent up to now is     3836.8 secs

     total energy              =  -14923.87969534 Ry
     Harris-Foulkes estimate   =  -14923.87969586 Ry
     estimated scf accuracy    <       0.00000274 Ry

     iteration # 34     ecut=    60.00 Ry     beta= 0.50
     Davidson diagonalization with overlap
     ethr =  1.50E-10,  avg # of iterations =  1.0

     negative rho (up, down):  6.347E-01 0.000E+00

     total cpu time spent up to now is     3926.8 secs

     total energy              =  -14923.87969520 Ry
     Harris-Foulkes estimate   =  -14923.87969541 Ry
     estimated scf accuracy    <       0.00000077 Ry

     iteration # 35     ecut=    60.00 Ry     beta= 0.50
     Davidson diagonalization with overlap
     ethr =  4.20E-11,  avg # of iterations =  2.0

     negative rho (up, down):  6.348E-01 0.000E+00

     total cpu time spent up to now is     4021.9 secs

     total energy              =  -14923.87969502 Ry
     Harris-Foulkes estimate   =  -14923.87969527 Ry
     estimated scf accuracy    <       0.00000148 Ry

     iteration # 36     ecut=    60.00 Ry     beta= 0.50
     Davidson diagonalization with overlap
     ethr =  4.20E-11,  avg # of iterations =  1.0

     negative rho (up, down):  6.347E-01 0.000E+00

     total cpu time spent up to now is     4115.0 secs

     total energy              =  -14923.87969514 Ry
     Harris-Foulkes estimate   =  -14923.87969505 Ry
     estimated scf accuracy    <       0.00000043 Ry

     iteration # 37     ecut=    60.00 Ry     beta= 0.50
     Davidson diagonalization with overlap
     ethr =  2.35E-11,  avg # of iterations =  1.0

     negative rho (up, down):  6.348E-01 0.000E+00

     total cpu time spent up to now is     4206.8 secs

     total energy              =  -14923.87969507 Ry
     Harris-Foulkes estimate   =  -14923.87969514 Ry
     estimated scf accuracy    <       0.00000019 Ry

     iteration # 38     ecut=    60.00 Ry     beta= 0.50
     Davidson diagonalization with overlap
     ethr =  1.02E-11,  avg # of iterations =  2.0

     negative rho (up, down):  6.348E-01 0.000E+00

     total cpu time spent up to now is     4301.1 secs

     total energy              =  -14923.87969508 Ry
     Harris-Foulkes estimate   =  -14923.87969507 Ry
     estimated scf accuracy    <       0.00000006 Ry

     iteration # 39     ecut=    60.00 Ry     beta= 0.50
     Davidson diagonalization with overlap
     ethr =  3.11E-12,  avg # of iterations =  1.0

     negative rho (up, down):  6.348E-01 0.000E+00

     total cpu time spent up to now is     4392.2 secs

     total energy              =  -14923.87969506 Ry
     Harris-Foulkes estimate   =  -14923.87969508 Ry
     estimated scf accuracy    <       0.00000004 Ry

     iteration # 40     ecut=    60.00 Ry     beta= 0.50
     Davidson diagonalization with overlap
     ethr =  2.17E-12,  avg # of iterations =  1.0

     negative rho (up, down):  6.348E-01 0.000E+00

     total cpu time spent up to now is     4483.1 secs

     total energy              =  -14923.87969505 Ry
     Harris-Foulkes estimate   =  -14923.87969505 Ry
     estimated scf accuracy    <       0.00000002 Ry

     iteration # 41     ecut=    60.00 Ry     beta= 0.50
     Davidson diagonalization with overlap
     ethr =  1.16E-12,  avg # of iterations =  1.0

     negative rho (up, down):  6.348E-01 0.000E+00

     total cpu time spent up to now is     4573.9 secs

     total energy              =  -14923.87969502 Ry
     Harris-Foulkes estimate   =  -14923.87969504 Ry
     estimated scf accuracy    <       0.00000002 Ry

     iteration # 42     ecut=    60.00 Ry     beta= 0.50
     Davidson diagonalization with overlap
     ethr =  1.08E-12,  avg # of iterations =  1.0

     negative rho (up, down):  6.348E-01 0.000E+00

     total cpu time spent up to now is     4664.0 secs

     total energy              =  -14923.87969501 Ry
     Harris-Foulkes estimate   =  -14923.87969502 Ry
     estimated scf accuracy    <       0.00000002 Ry

     iteration # 43     ecut=    60.00 Ry     beta= 0.50
     Davidson diagonalization with overlap
     ethr =  9.69E-13,  avg # of iterations =  1.0

     negative rho (up, down):  6.348E-01 0.000E+00

     total cpu time spent up to now is     4751.7 secs

     End of self-consistent calculation

          k = 0.0000 0.0000 0.0000 (289747 PWs)   bands (ev):

   -38.3933 -38.3666 -38.3641 -38.3584 -38.3576 -38.3444 -38.3395 -38.3155
   -38.2789 -38.2762 -38.2659 -38.2639 -38.2566 -38.2508 -35.9342 -35.8406
   -22.9907 -22.9766 -22.9382 -22.8881 -22.8799 -22.8730 -22.8654 -22.8654
   -22.8609 -22.8510 -22.8505 -22.8476 -22.8455 -22.8446 -22.8310 -22.8309
   -22.8275 -22.8134 -22.7907 -22.7851 -22.7538 -22.7417 -22.7401 -22.7296
   -22.7275 -22.7238 -22.6936 -22.6702 -22.6413 -22.6176 -22.5240 -22.3270
   -18.9761 -18.9387 -18.8928 -18.8883 -18.8874 -18.8618 -18.8532 -18.8098
   -18.8068 -18.7822 -18.7074 -18.6938 -18.6937 -18.6826 -18.6798 -18.6740
   -18.6722 -18.6637 -18.6622 -18.6576 -18.6456 -18.6176 -18.6120 -18.6043
   -18.5987 -18.5948 -18.5915 -18.5909 -18.5784 -18.5760 -18.5681 -18.5639
   -18.4938 -18.4885 -18.4648 -18.4114 -18.3993 -18.3831 -18.3691 -18.3610
   -18.2786 -18.2708 -17.1919 -17.1650 -17.1578 -17.1009 -17.0697 -17.0669
   -15.7149 -15.6542 -15.1362 -15.0960 -15.0614 -15.0309 -15.0198 -15.0121
   -15.0100 -15.0064 -14.9792 -14.9675 -14.9643 -14.9634 -14.9389 -14.9068
   -14.8819 -14.8435 -14.8358 -14.8352 -14.8290 -14.8285 -14.8063 -14.7997
   -14.7740 -14.7736 -14.7660 -14.7606 -14.7548 -14.7542 -14.7388 -14.7191
   -14.7175 -14.7080 -14.6889 -14.6739 -14.6595 -14.6034 -14.6026 -14.5893
   -14.5862 -14.5856 -14.5825 -14.5675 -14.5657 -14.5335 -14.5169 -14.5156
   -14.5095 -14.5069 -14.5035 -14.4922 -14.4919 -14.4908 -14.4857 -14.4741
   -14.4724 -14.4573 -14.4556 -14.4549 -14.4413 -14.4390 -14.4369 -14.4296
   -14.4225 -14.4211 -14.3859 -14.3690 -14.3527 -14.3474 -14.3429 -14.2993
   -14.2963 -14.2934 -14.2820 -14.2773 -14.2769 -14.2733 -14.2696 -14.2576
   -14.2243 -14.2194 -14.2134 -14.2065 -14.2037 -14.2021 -14.1372 -14.1214
   -14.0168 -14.0112 -14.0088 -14.0011 -13.9912 -13.9762 -13.9747 -13.9734
   -13.9722 -13.9669 -13.9578 -13.9559 -13.9554 -13.9534 -13.9168 -13.9082
   -13.9039 -13.8965 -13.8836 -13.8682 -13.7943 -13.7816 -13.7803 -13.7706
   -12.9451 -12.9216 -12.7280 -12.7276 -12.7233 -12.7201 -12.5672 -12.4570
    -8.9491  -8.9357  -8.7827  -8.6621  -8.6482  -8.5841  -8.4981  -8.4577
    -8.4392  -8.4354  -8.4256  -8.4232  -8.4218  -8.4117  -8.4097  -8.3982
    -8.3213  -8.2797  -8.2770  -8.2603  -8.2566  -8.2560  -8.2499  -8.2317
    -8.2140  -8.2116  -8.1954  -8.1930  -8.1878  -8.1868  -8.1775  -8.1745
    -8.1630  -8.1584  -8.1579  -8.1550  -8.1548  -8.1490  -8.1439  -8.1416
    -8.1361  -8.1316  -8.1310  -8.1040  -8.1021  -8.0989  -8.0973  -8.0938
    -8.0859  -8.0751  -8.0646  -8.0606  -8.0581  -8.0515  -7.9883  -7.9746
    -7.9713  -7.9598  -7.9499  -7.9475  -7.9340  -7.8450  -7.8344  -7.8343
    -7.8336  -7.8207  -7.8197  -7.8123  -7.8068  -7.7986  -7.7979  -7.7977
    -7.7933  -7.7847  -7.7674  -7.7610  -7.7504  -7.7059  -7.6985  -7.6941
    -7.6848  -7.6840  -7.6799  -7.6796  -7.6657  -7.6587  -7.6443  -7.6197
    -7.5424  -7.5331  -7.5059  -7.5040  -7.4961  -7.4765  -7.3133  -7.3084
    -4.4658  -4.3938  -3.9246  -3.8293  -3.4308  -3.4039  -3.3260  -3.3187
    -3.3179  -3.2580  -3.2552  -3.2524  -3.2508  -3.2507  -3.2134  -3.1874
    -3.1818  -3.1501  -3.0843  -3.0785  -3.0665  -3.0074  -3.0067  -2.9888
    -2.9693  -2.9604  -2.9495  -2.9439  -2.9426  -2.9049  -2.8637  -2.8550
    -2.8490  -2.8397  -2.7594  -2.7037  -2.6618  -2.6594  -2.5809  -2.4947
    -2.4332  -2.4278  -2.4153  -2.4091  -2.4082  -2.4068  -2.4014  -2.3987
    -2.3958  -2.3941  -2.3826  -2.3805  -2.3031  -2.3016  -2.2998  -2.2982
    -2.2932  -2.2891  -2.2331  -2.2318  -2.2274  -2.2235  -2.2224  -2.2189
    -2.2154  -2.2130  -2.2114  -2.2087  -2.2050  -2.2036  -2.1929  -2.1923
    -2.1581  -2.1358  -2.1268  -2.1243  -2.1114  -2.1089  -2.1075  -2.1006
    -2.0949  -2.0775  -2.0765  -2.0561  -2.0333  -2.0214  -2.0176  -2.0173
    -2.0125  -2.0084  -2.0048  -2.0036  -1.9995  -1.9985  -1.9969  -1.9853
    -1.9508  -1.9333  -1.9331  -1.9209  -1.9154  -1.8754  -1.8742  -1.8451
    -1.8388  -1.8323  -1.8247  -1.8138  -1.8125  -1.8123  -1.7849  -1.7658
    -1.7634  -1.7537  -1.7273  -1.7254  -1.7052  -1.6977  -1.6970  -1.6712
    -1.6654  -1.6507  -1.6444  -1.6406  -1.6359  -1.6356  -1.6180  -1.6154
    -1.6065  -1.6001  -1.5962  -1.5883  -1.5865  -1.5643  -1.5520  -1.5513
    -1.5060  -1.4903  -1.4817  -1.4751  -1.4569  -1.4280  -1.4271  -1.3586
    -1.3416  -1.3080  -1.3075  -1.2863  -1.2818  -1.2340  -1.2208  -1.2156
    -1.2155  -1.1697  -1.1501  -1.1447  -1.1323  -1.1179  -1.1167  -1.1131
    -1.0995  -1.0975  -1.0945  -1.0911  -1.0896  -1.0774  -1.0709  -1.0647
    -1.0625  -1.0533  -1.0299  -1.0218  -1.0150  -1.0134  -0.9922  -0.9851
    -0.9790  -0.9741  -0.9597  -0.9498  -0.9423  -0.9278  -0.9212  -0.9161
    -0.9148  -0.9052  -0.8888  -0.8825  -0.8811  -0.8710  -0.8672  -0.8632
    -0.8600  -0.8459  -0.8380  -0.8169  -0.7849  -0.7830  -0.7684  -0.7670
    -0.7501  -0.7306  -0.7125  -0.7002  -0.6927  -0.6703  -0.6536  -0.6504
    -0.6358  -0.6215  -0.6195  -0.6160  -0.5991  -0.5929  -0.5911  -0.5900
    -0.5826  -0.5283  -0.5157  -0.5006  -0.4983  -0.4825  -0.4784  -0.4734
    -0.4693  -0.4470  -0.4388  -0.4235  -0.4188  -0.4187  -0.4166  -0.4137
    -0.4049  -0.3997  -0.3958  -0.3921  -0.3847  -0.3798  -0.3779  -0.3704
    -0.3701  -0.3674  -0.3582  -0.3516  -0.3426  -0.3392  -0.3385  -0.3347
    -0.3285  -0.3155  -0.3152  -0.3106  -0.3103  -0.2923  -0.2922  -0.2896
    -0.2889  -0.2847  -0.2686  -0.2654  -0.2633  -0.2397  -0.2017  -0.2006
    -0.1992  -0.1931  -0.1887  -0.1881  -0.1460  -0.1346  -0.1311  -0.1176
    -0.0971  -0.0728  -0.0717  -0.0471  -0.0458  -0.0419  -0.0381  -0.0366
    -0.0082   0.0126   0.0176   0.0268   0.0290   0.0378   0.0401   0.0916
     0.0923   0.0992   0.1049   0.1102   0.1190   0.1218   0.1305   0.1390
     0.1840   0.1908   0.1988   0.2035   0.2048   0.2209   0.2271   0.2359
     0.2369   0.2497   0.2557   0.2564   0.2578   0.2660   0.2689   0.2739
     0.2745   0.2787   0.2797   0.2853   0.2859   0.2882   0.2953   0.2988
     0.3065   0.3147   0.3227   0.3303   0.3341   0.3357   0.3437   0.3506
     0.3642   0.3690   0.3716   0.3768   0.3936   0.3947   0.4071   0.4095
     0.4141   0.4195   0.4317   0.4418   0.4449   0.4554   0.4696   0.4767
     0.4813   0.4855   0.4975   0.4987   0.4999   0.5003   0.5024   0.5100
     0.5125   0.5131   0.5144   0.5212   0.5216   0.5403   0.5446   0.5494
     0.5655   0.5698   0.5736   0.5775   0.5843   0.5850   0.5961   0.6073
     0.6187   0.6276   0.6489   0.6668   0.6669   0.6767   0.6811   0.6881
     0.7255   0.8295   0.8649   0.8714   0.8772   0.8815   0.8820   0.9160
     0.9202   0.9448   0.9479   0.9544   0.9746   0.9751   0.9834   0.9834
     0.9877   0.9932   0.9954   1.0012   1.0031   1.0040   1.0074   1.0089
     1.0248   1.0255   1.0276   1.0372   1.0501   1.0537   1.0539   1.0628
     1.0650   1.0678   1.0823   1.0872   1.0882   1.0887   1.0946   1.1008
     1.1053   1.1152   1.1174   1.1176   1.1177   1.1204   1.1205   1.1244
     1.1271   1.1296   1.1313   1.1322   1.1402   1.1408   1.1416   1.1517
     1.1547   1.1583   1.1663   1.1728   1.1790   1.1871   1.1899   1.1902
     1.1926   1.1947   1.2038   1.2077   1.2109   1.2129   1.2191   1.2210
     1.2220   1.2238   1.2420   1.2424   1.2469   1.2476   1.2491   1.2521
     1.2533   1.2571   1.2595   1.2596   1.2635   1.2695   1.2699   1.2775
     1.2803   1.2804   1.2914   1.2925   1.2998   1.3061   1.3119   1.3130
     1.3244   1.3265   1.3329   1.3332   1.3402   1.3513   1.3548   1.3645
     1.3962   1.3986   1.4040   1.4237   1.4320   1.4613   1.5340   1.5378
     1.5381   1.5401   1.5475   1.5524   1.5575   1.5578   1.5593   1.5606
     1.5619   1.5747   1.5898   1.5977   1.6126   1.6205   1.6224   1.6268
     1.6319   1.6329   1.6354   1.6393   1.6436   1.6518   1.6703   1.6714
     1.6751   1.6846   1.6849   1.7017   1.7047   1.7054   1.7092   1.7099
     1.7173   1.7258   1.7294   1.7368   1.7396   1.7457   1.7558   1.7576
     1.7602   1.7608   1.7664   1.7867   1.7888   1.7895   1.7989   1.8006
     1.8037   1.8131   1.8144   1.8155   1.8220   1.8230   1.8238   1.8238
     1.8721   1.8796   1.8821   1.9013   1.9040   1.9041   1.9072   1.9135
     1.9172   1.9184   1.9184   1.9270   1.9376   1.9384   1.9461   1.9811
     2.0048   2.0088   2.0185   2.0623   2.0785   2.1263   2.1317   2.2511
     2.2587   2.2740   2.2817   2.2960   2.2970   2.3183   2.3279   2.3753
     2.3811   2.4130   2.4137   2.4182   2.4285   2.4357   2.4500   2.4591
     2.4656   2.4661   2.4771   2.5069   2.5109   2.5176   2.5189   2.5554
     2.5700   2.5763   2.5772   2.5799   2.5879   2.6056   2.7007   2.7030
     2.7114   2.7127   2.7902   2.7968   2.8008   2.8653   2.8820   2.9104
     2.9487   2.9561   2.9641   2.9822   3.0198   3.0275   3.0281   3.0353
     3.0364   3.0420   3.0456   3.0631   3.0767   3.1021   3.1129   3.1184
     3.1229   3.1443   3.1558   3.1624   3.2468   3.2875   3.2920   3.2967
     3.3067   3.3402   3.3492   3.3505   4.5028   4.5527   4.6043   4.6255
     4.8316   5.0673   5.0880   5.6104   5.6247   5.6458   5.7118   5.7360
     6.0505   6.2478   6.2794   6.3075   6.3143   6.4082   6.4377   6.4573
     6.4618   6.4622   6.4650   6.4675   6.4795   6.4807   6.4830   6.4856
     6.5132   6.7108   6.8317   6.8409   6.8455   6.9060   6.9071   6.9084
     6.9225   6.9485   6.9733   7.0080   7.0619   7.1119   7.1287   7.1970
     7.2134   7.2792   7.2940   7.3449   7.3457   7.3681   7.4075   7.4498
     7.4658   7.4820   7.5007   7.5079   7.5499   7.5762   7.5934   7.6130
     7.6280   7.6409   7.6749   7.7106   7.7270   7.7320   7.7712   7.8011
     7.8399   7.9075   7.9170   7.9255   7.9608   8.1122   8.1135   8.1174
     8.1194   8.1295   8.1304   8.1307   8.1355   8.1460   8.1630   8.1918
     8.2637   8.3323   8.3606   8.3613   8.3760   8.3891   8.3919   8.4142
     8.4206   8.4374   8.4861   8.4882   8.4895   8.5174   8.5263   8.5399
     8.5406   8.5599   8.5628   8.5882   8.5935   8.5995   8.6172   8.6264
     8.6382   8.6472   8.6518   8.6539   8.6842   8.7001   8.7131   8.7201
     8.7349   8.7711   8.7829   8.7848   8.7960   8.8124   8.8276   8.8337
     8.8450   8.8545   8.8604   8.8741   8.8965   8.9066   8.9180   8.9450
     8.9480   8.9500   8.9570   8.9746   8.9902   8.9957   8.9974   9.0128
     9.0136   9.0173   9.0206   9.0347   9.0557   9.0562   9.0957   9.1013
     9.1076   9.1228

          k = 0.2326 0.2390 0.0000 (289781 PWs)   bands (ev):

   -38.3932 -38.3662 -38.3647 -38.3585 -38.3578 -38.3430 -38.3405 -38.3155
   -38.2783 -38.2769 -38.2656 -38.2647 -38.2547 -38.2520 -35.9342 -35.8406
   -22.9724 -22.9583 -22.9345 -22.9242 -22.9100 -22.8783 -22.8714 -22.8696
   -22.8655 -22.8594 -22.8550 -22.8516 -22.8405 -22.8318 -22.8264 -22.8177
   -22.8158 -22.7962 -22.7821 -22.7792 -22.7559 -22.7445 -22.7417 -22.7367
   -22.7332 -22.7256 -22.6881 -22.6742 -22.6372 -22.6159 -22.5261 -22.3271
   -18.9414 -18.9073 -18.8903 -18.8634 -18.8598 -18.8537 -18.8383 -18.8223
   -18.8060 -18.8044 -18.7860 -18.7793 -18.7720 -18.7502 -18.7188 -18.6955
   -18.6919 -18.6841 -18.6704 -18.6656 -18.6517 -18.6088 -18.6016 -18.5827
   -18.5822 -18.5740 -18.5700 -18.5422 -18.5251 -18.4922 -18.4899 -18.4873
   -18.4797 -18.4535 -18.4359 -18.4148 -18.4084 -18.4073 -18.4052 -18.3909
   -18.3249 -18.3184 -17.1921 -17.1668 -17.1592 -17.1012 -17.0716 -17.0683
   -15.6143 -15.5538 -15.3445 -15.2834 -15.0852 -15.0496 -15.0277 -15.0131
   -15.0042 -14.9890 -14.9727 -14.9677 -14.9569 -14.9387 -14.8987 -14.8897
   -14.8818 -14.8549 -14.8313 -14.8198 -14.8145 -14.8129 -14.7951 -14.7845
   -14.7842 -14.7633 -14.7614 -14.7491 -14.7329 -14.7127 -14.7101 -14.7058
   -14.6980 -14.6813 -14.6800 -14.6778 -14.6589 -14.6430 -14.6230 -14.6038
   -14.5924 -14.5858 -14.5822 -14.5786 -14.5620 -14.5456 -14.5367 -14.5335
   -14.5233 -14.5197 -14.5182 -14.5047 -14.4863 -14.4796 -14.4757 -14.4621
   -14.4557 -14.4372 -14.4244 -14.4215 -14.4106 -14.4097 -14.4035 -14.3997
   -14.3867 -14.3803 -14.3638 -14.3593 -14.3560 -14.3441 -14.3417 -14.3235
   -14.3143 -14.3137 -14.2989 -14.2865 -14.2831 -14.2739 -14.2701 -14.2626
   -14.2529 -14.2523 -14.2435 -14.2382 -14.2275 -14.2076 -14.1609 -14.1525
   -14.0223 -14.0146 -14.0055 -14.0016 -13.9979 -13.9967 -13.9821 -13.9812
   -13.9761 -13.9645 -13.9578 -13.9381 -13.9362 -13.9276 -13.9165 -13.9164
   -13.9085 -13.9077 -13.8886 -13.8585 -13.8005 -13.7852 -13.7734 -13.7708
   -12.8980 -12.8773 -12.7848 -12.7685 -12.7062 -12.6467 -12.6150 -12.5182
    -8.8418  -8.8284  -8.6792  -8.6457  -8.6321  -8.5424  -8.5286  -8.5026
    -8.4848  -8.3844  -8.3340  -8.3305  -8.3209  -8.3174  -8.3082  -8.2785
    -8.2645  -8.2589  -8.2534  -8.2319  -8.2288  -8.2214  -8.2163  -8.2130
    -8.2034  -8.1892  -8.1857  -8.1829  -8.1789  -8.1775  -8.1687  -8.1652
    -8.1633  -8.1631  -8.1532  -8.1493  -8.1481  -8.1414  -8.1361  -8.1337
    -8.1318  -8.1305  -8.1303  -8.1222  -8.1163  -8.1050  -8.1018  -8.0996
    -8.0979  -8.0865  -8.0740  -8.0536  -8.0488  -8.0446  -8.0278  -8.0229
    -8.0142  -8.0131  -7.9524  -7.9496  -7.9430  -7.9291  -7.9162  -7.9099
    -7.9027  -7.8761  -7.8737  -7.8625  -7.8352  -7.8277  -7.8140  -7.7941
    -7.7904  -7.7784  -7.7767  -7.7662  -7.7526  -7.7507  -7.7486  -7.7374
    -7.7349  -7.7291  -7.7241  -7.7228  -7.6999  -7.6702  -7.6434  -7.6195
    -7.6154  -7.5889  -7.5648  -7.5437  -7.5137  -7.4930  -7.3314  -7.3149
    -4.3048  -4.2334  -3.8698  -3.7990  -3.7790  -3.6833  -3.4135  -3.3988
    -3.3781  -3.3674  -3.3154  -3.3016  -3.2436  -3.2122  -3.2069  -3.1856
    -3.1650  -3.1099  -3.0860  -3.0450  -2.9944  -2.9718  -2.9623  -2.9546
    -2.9383  -2.9040  -2.8976  -2.8862  -2.8631  -2.8084  -2.7612  -2.7067
    -2.6500  -2.6474  -2.6335  -2.6301  -2.6279  -2.6117  -2.6100  -2.5966
    -2.5903  -2.5823  -2.5568  -2.5361  -2.5289  -2.5257  -2.5133  -2.4716
    -2.4692  -2.4080  -2.3863  -2.3656  -2.3636  -2.3583  -2.3376  -2.3203
    -2.3127  -2.2983  -2.2843  -2.2695  -2.2648  -2.2555  -2.2554  -2.2456
    -2.2370  -2.2291  -2.2287  -2.2150  -2.2066  -2.1964  -2.1956  -2.1878
    -2.1727  -2.1382  -2.1213  -2.1155  -2.1097  -2.1085  -2.1066  -2.1062
    -2.1034  -2.0993  -2.0964  -2.0881  -2.0872  -2.0821  -2.0673  -2.0614
    -2.0514  -2.0205  -2.0016  -1.9913  -1.9740  -1.9632  -1.9453  -1.9351
    -1.9241  -1.9070  -1.8895  -1.8892  -1.8833  -1.8724  -1.8661  -1.8579
    -1.8536  -1.8492  -1.8405  -1.8376  -1.8343  -1.8260  -1.8258  -1.8075
    -1.7997  -1.7740  -1.7724  -1.7557  -1.7470  -1.7015  -1.6935  -1.6237
    -1.6062  -1.5968  -1.5842  -1.5784  -1.5772  -1.5711  -1.5419  -1.5367
    -1.5321  -1.5209  -1.5132  -1.5025  -1.4990  -1.4827  -1.4793  -1.4514
    -1.4385  -1.4277  -1.4215  -1.4090  -1.3741  -1.3644  -1.3573  -1.3403
    -1.3224  -1.2955  -1.2904  -1.2522  -1.2503  -1.2205  -1.2089  -1.1666
    -1.1602  -1.1601  -1.1585  -1.1499  -1.1413  -1.1099  -1.1033  -1.0948
    -1.0830  -1.0699  -1.0652  -1.0574  -1.0486  -1.0444  -1.0289  -1.0281
    -1.0166  -1.0062  -1.0032  -0.9999  -0.9977  -0.9944  -0.9849  -0.9797
    -0.9759  -0.9701  -0.9494  -0.9456  -0.9400  -0.9287  -0.9222  -0.9147
    -0.9140  -0.9009  -0.8821  -0.8704  -0.8674  -0.8550  -0.8472  -0.8436
    -0.8387  -0.8351  -0.8179  -0.8157  -0.8063  -0.7954  -0.7836  -0.7814
    -0.7694  -0.7570  -0.7556  -0.7309  -0.7302  -0.7247  -0.7163  -0.7134
    -0.6899  -0.6816  -0.6551  -0.6530  -0.6309  -0.6231  -0.6216  -0.6077
    -0.6055  -0.6027  -0.5884  -0.5764  -0.5725  -0.5656  -0.5327  -0.5197
    -0.5056  -0.4896  -0.4893  -0.4743  -0.4630  -0.4483  -0.4354  -0.4317
    -0.4217  -0.3970  -0.3675  -0.3633  -0.3582  -0.3539  -0.3386  -0.3229
    -0.3121  -0.3056  -0.3010  -0.2937  -0.2779  -0.2695  -0.2666  -0.2595
    -0.2489  -0.2450  -0.2399  -0.2368  -0.2352  -0.2194  -0.2124  -0.2068
    -0.2055  -0.1951  -0.1928  -0.1915  -0.1789  -0.1751  -0.1746  -0.1659
    -0.1605  -0.1563  -0.1503  -0.1340  -0.1297  -0.1194  -0.1138  -0.1089
    -0.1047  -0.0947  -0.0897  -0.0829  -0.0787  -0.0737  -0.0630  -0.0570
    -0.0347  -0.0134   0.0166   0.0289   0.0351   0.0419   0.0756   0.0788
     0.1041   0.1116   0.1194   0.1312   0.1318   0.1347   0.1470   0.1529
     0.1558   0.1567   0.1639   0.1644   0.1732   0.1739   0.1807   0.1891
     0.1956   0.1966   0.2090   0.2157   0.2196   0.2215   0.2271   0.2277
     0.2336   0.2392   0.2423   0.2532   0.2616   0.2627   0.2712   0.2846
     0.2851   0.2887   0.2903   0.2958   0.2988   0.3092   0.3196   0.3221
     0.3343   0.3369   0.3510   0.3638   0.3659   0.3826   0.3883   0.3920
     0.3953   0.3971   0.4039   0.4054   0.4089   0.4100   0.4195   0.4282
     0.4314   0.4449   0.4635   0.4733   0.4781   0.4812   0.4846   0.4964
     0.5094   0.5147   0.5150   0.5293   0.5517   0.5631   0.5659   0.5695
     0.5843   0.5949   0.5983   0.6087   0.6183   0.6454   0.6549   0.6864
     0.6971   0.7183   0.7333   0.7520   0.7593   0.7686   0.7752   0.7865
     0.7899   0.7945   0.8020   0.8031   0.8183   0.8269   0.8365   0.8449
     0.8604   0.8609   0.8656   0.8743   0.8811   0.8928   0.9184   0.9225
     0.9245   0.9317   0.9384   0.9446   0.9532   0.9584   0.9688   0.9765
     0.9840   0.9944   0.9957   0.9999   1.0049   1.0140   1.0167   1.0271
     1.0288   1.0348   1.0375   1.0391   1.0400   1.0435   1.0535   1.0630
     1.0783   1.0790   1.0896   1.0907   1.0924   1.0946   1.1141   1.1157
     1.1212   1.1224   1.1299   1.1315   1.1425   1.1486   1.1487   1.1537
     1.1569   1.1638   1.1640   1.1802   1.1818   1.1918   1.1994   1.1999
     1.2004   1.2040   1.2100   1.2149   1.2153   1.2206   1.2301   1.2341
     1.2372   1.2430   1.2551   1.2564   1.2603   1.2679   1.2688   1.2716
     1.2720   1.2774   1.2844   1.2879   1.2912   1.3156   1.3185   1.3305
     1.3357   1.3500   1.3599   1.3666   1.3678   1.3827   1.3872   1.3875
     1.3980   1.4023   1.4075   1.4165   1.4182   1.4258   1.4364   1.4441
     1.4489   1.4575   1.4652   1.4724   1.4892   1.4936   1.4945   1.5058
     1.5072   1.5140   1.5202   1.5244   1.5329   1.5372   1.5411   1.5442
     1.5461   1.5521   1.5528   1.5538   1.5671   1.5689   1.5733   1.5860
     1.5961   1.6012   1.6209   1.6244   1.6278   1.6309   1.6407   1.6413
     1.6424   1.6493   1.6563   1.6662   1.6711   1.6754   1.6781   1.6841
     1.6843   1.6891   1.6930   1.6992   1.7008   1.7125   1.7157   1.7186
     1.7230   1.7392   1.7450   1.7495   1.7606   1.7630   1.7678   1.7748
     1.7765   1.7879   1.7965   1.8301   1.8344   1.8430   1.8450   1.8569
     1.8811   1.8937   1.9018   1.9260   1.9491   1.9780   1.9892   1.9945
     2.0655   2.0676   2.0923   2.0984   2.1151   2.1200   2.1223   2.1383
     2.1431   2.1499   2.1596   2.1671   2.1765   2.1995   2.2086   2.2400
     2.2570   2.2637   2.2739   2.2846   2.2992   2.3112   2.3252   2.3366
     2.3371   2.3503   2.3538   2.3582   2.4235   2.4540   2.4554   2.4737
     2.4932   2.5022   2.5075   2.5101   2.5189   2.5207   2.5251   2.5297
     2.5364   2.5691   2.5728   2.5813   2.6114   2.6234   2.6252   2.6387
     2.6463   2.6473   2.6727   2.7428   2.7645   2.7703   2.7937   2.7961
     2.8044   2.8341   2.8645   2.8774   2.8776   2.8802   2.8827   2.8968
     2.8998   2.9083   2.9187   2.9358   2.9518   2.9586   2.9690   2.9940
     2.9961   3.0215   3.0426   3.0568   3.1232   3.1528   3.1594   3.1761
     3.7618   3.8010   3.8847   3.9243   4.2918   4.3382   4.3900   4.4166
     5.0459   5.3077   5.3247   5.5308   5.8393   5.8440   5.8592   5.8987
     5.9113   5.9335   5.9799   6.1359   6.3308   6.3406   6.3541   6.3624
     6.3813   6.3970   6.4088   6.4359   6.5123   6.5319   6.5960   6.6365
     6.6445   6.6583   6.7051   6.7153   6.7381   6.7973   6.8416   6.8667
     6.9596   6.9663   6.9904   7.0387   7.0961   7.1575   7.1648   7.2271
     7.2374   7.3072   7.3441   7.3792   7.3982   7.4076   7.4156   7.4455
     7.4741   7.4952   7.5096   7.5144   7.5197   7.5724   7.5788   7.6044
     7.6375   7.6487   7.6663   7.6982   7.7301   7.7385   7.7580   7.7647
     7.7668   7.7940   7.8109   7.8331   7.8489   7.8890   7.9795   8.0026
     8.0235   8.0296   8.0406   8.0505   8.0603   8.0879   8.1938   8.2001
     8.2606   8.2649   8.2843   8.2938   8.3039   8.3589   8.3998   8.4284
     8.4488   8.4763   8.4915   8.4932   8.5036   8.5182   8.5348   8.5408
     8.5527   8.5584   8.5845   8.5948   8.5969   8.6131   8.6197   8.6364
     8.6459   8.6692   8.6785   8.6977   8.7192   8.7334   8.7463   8.7600
     8.7721   8.7860   8.7998   8.8179   8.8261   8.8342   8.8469   8.8505
     8.8709   8.8873   8.9037   8.9178   8.9367   8.9411   8.9543   8.9851
     8.9981   9.0161   9.0216   9.0311   9.0392   9.0496   9.0609   9.0983
     9.1059   9.1076   9.1234   9.1300   9.1434   9.1657   9.1992   9.2031
     9.2374   9.2451

          k = 0.0000 0.4779 0.0000 (289679 PWs)   bands (ev):

   -38.3932 -38.3663 -38.3645 -38.3595 -38.3569 -38.3421 -38.3413 -38.3155
   -38.2785 -38.2767 -38.2669 -38.2635 -38.2543 -38.2525 -35.9342 -35.8406
   -22.9532 -22.9390 -22.9315 -22.9233 -22.9128 -22.9091 -22.8987 -22.8766
   -22.8703 -22.8693 -22.8660 -22.8625 -22.8269 -22.8229 -22.8127 -22.7994
   -22.7929 -22.7854 -22.7787 -22.7777 -22.7709 -22.7630 -22.7568 -22.7389
   -22.7229 -22.7191 -22.6841 -22.6773 -22.6347 -22.6158 -22.5269 -22.3271
   -18.9368 -18.9324 -18.8964 -18.8677 -18.8489 -18.8462 -18.8375 -18.8369
   -18.8106 -18.7887 -18.7837 -18.7603 -18.7486 -18.7469 -18.7040 -18.6928
   -18.6868 -18.6772 -18.6684 -18.6678 -18.6528 -18.6058 -18.5974 -18.5932
   -18.5872 -18.5858 -18.5666 -18.5531 -18.5372 -18.5169 -18.5112 -18.4931
   -18.4796 -18.4724 -18.4480 -18.4292 -18.4108 -18.4099 -18.3904 -18.3696
   -18.3200 -18.2791 -17.1921 -17.1669 -17.1582 -17.1011 -17.0717 -17.0673
   -15.5362 -15.4769 -15.3227 -15.2672 -15.2615 -15.2096 -15.1519 -15.0951
   -15.0531 -15.0104 -14.9432 -14.9131 -14.9025 -14.8975 -14.8762 -14.8665
   -14.8589 -14.8543 -14.8445 -14.8384 -14.8129 -14.8105 -14.8047 -14.7874
   -14.7432 -14.7203 -14.7158 -14.7140 -14.6834 -14.6700 -14.6614 -14.6561
   -14.6488 -14.6468 -14.6456 -14.6441 -14.6354 -14.6176 -14.6143 -14.6141
   -14.6009 -14.5921 -14.5902 -14.5893 -14.5758 -14.5725 -14.5594 -14.5536
   -14.5387 -14.5329 -14.5300 -14.5288 -14.5160 -14.4945 -14.4677 -14.4613
   -14.4595 -14.4387 -14.4354 -14.4258 -14.4058 -14.4027 -14.3983 -14.3944
   -14.3883 -14.3833 -14.3657 -14.3626 -14.3575 -14.3508 -14.3440 -14.3294
   -14.3254 -14.3108 -14.2990 -14.2905 -14.2882 -14.2857 -14.2764 -14.2665
   -14.2588 -14.2582 -14.2437 -14.2423 -14.2250 -14.2152 -14.1994 -14.1714
   -14.0261 -14.0166 -14.0101 -14.0082 -13.9990 -13.9940 -13.9929 -13.9882
   -13.9705 -13.9685 -13.9528 -13.9485 -13.9261 -13.9244 -13.9205 -13.9143
   -13.9063 -13.9005 -13.8949 -13.8507 -13.8112 -13.7888 -13.7774 -13.7563
   -12.8646 -12.8165 -12.7523 -12.7485 -12.7116 -12.7068 -12.6650 -12.5738
    -8.6836  -8.6701  -8.5417  -8.5318  -8.5284  -8.5277  -8.5184  -8.4586
    -8.4449  -8.3985  -8.3856  -8.3610  -8.3181  -8.3041  -8.2601  -8.2588
    -8.2390  -8.2386  -8.2290  -8.2224  -8.2219  -8.2149  -8.2133  -8.2023
    -8.1985  -8.1977  -8.1836  -8.1718  -8.1671  -8.1576  -8.1470  -8.1448
    -8.1408  -8.1402  -8.1341  -8.1334  -8.1331  -8.1325  -8.1286  -8.1260
    -8.1237  -8.1190  -8.1148  -8.1116  -8.1022  -8.0972  -8.0943  -8.0572
    -8.0565  -8.0431  -8.0398  -8.0360  -8.0337  -8.0278  -8.0265  -8.0259
    -8.0204  -8.0144  -8.0127  -7.9901  -7.9819  -7.9709  -7.9685  -7.9670
    -7.9434  -7.9165  -7.9160  -7.9035  -7.9022  -7.9007  -7.9001  -7.8688
    -7.8483  -7.8381  -7.8334  -7.8248  -7.7859  -7.7625  -7.7619  -7.7484
    -7.7422  -7.7418  -7.7347  -7.7284  -7.7249  -7.7213  -7.7160  -7.6759
    -7.6251  -7.6235  -7.5876  -7.5704  -7.5516  -7.5484  -7.3384  -7.3310
    -4.1384  -4.0666  -3.8507  -3.7915  -3.7876  -3.7284  -3.6316  -3.5353
    -3.4705  -3.4278  -3.4118  -3.4038  -3.3354  -3.3057  -3.1872  -3.1754
    -3.1431  -3.0869  -3.0155  -2.9388  -2.9384  -2.9215  -2.9210  -2.9176
    -2.8577  -2.8476  -2.8129  -2.7968  -2.7702  -2.7560  -2.7058  -2.6883
    -2.6675  -2.6517  -2.6114  -2.6055  -2.6001  -2.6000  -2.5912  -2.5889
    -2.5758  -2.5741  -2.5576  -2.5485  -2.5415  -2.5304  -2.5004  -2.4883
    -2.4502  -2.4471  -2.4452  -2.4335  -2.4268  -2.4118  -2.3531  -2.3441
    -2.3413  -2.3201  -2.2701  -2.2553  -2.2516  -2.2331  -2.2203  -2.2124
    -2.2096  -2.1956  -2.1745  -2.1738  -2.1720  -2.1638  -2.1627  -2.1568
    -2.1513  -2.1443  -2.1377  -2.1320  -2.1252  -2.1176  -2.1170  -2.1153
    -2.1099  -2.1092  -2.1057  -2.0997  -2.0977  -2.0941  -2.0819  -2.0757
    -2.0691  -2.0617  -2.0521  -2.0170  -2.0099  -2.0077  -1.9638  -1.9537
    -1.9525  -1.9458  -1.9420  -1.9310  -1.8969  -1.8967  -1.8927  -1.8881
    -1.8879  -1.8803  -1.8760  -1.8747  -1.8726  -1.8599  -1.8560  -1.8392
    -1.8337  -1.8329  -1.8267  -1.8255  -1.8165  -1.8138  -1.7955  -1.7872
    -1.7869  -1.7516  -1.7316  -1.6979  -1.6380  -1.6045  -1.5517  -1.5502
    -1.5455  -1.5366  -1.5326  -1.5250  -1.5195  -1.5123  -1.5059  -1.4620
    -1.4028  -1.3336  -1.2789  -1.2379  -1.2202  -1.1753  -1.1641  -1.1632
    -1.1612  -1.1590  -1.1476  -1.1442  -1.1364  -1.1256  -1.1101  -1.1093
    -1.1058  -1.0969  -1.0887  -1.0829  -1.0722  -1.0616  -1.0540  -1.0353
    -1.0234  -1.0113  -1.0061  -1.0057  -1.0031  -0.9965  -0.9863  -0.9829
    -0.9796  -0.9780  -0.9750  -0.9647  -0.9616  -0.9514  -0.9406  -0.9330
    -0.9276  -0.9245  -0.9195  -0.9128  -0.9095  -0.9091  -0.9016  -0.8953
    -0.8936  -0.8896  -0.8859  -0.8634  -0.8601  -0.8503  -0.8489  -0.8468
    -0.8421  -0.8331  -0.8329  -0.8310  -0.8155  -0.7988  -0.7932  -0.7732
    -0.7655  -0.7571  -0.7474  -0.6983  -0.6928  -0.6733  -0.6678  -0.6574
    -0.6562  -0.6528  -0.6442  -0.6423  -0.6377  -0.6351  -0.6325  -0.6234
    -0.6220  -0.6143  -0.5684  -0.5676  -0.5467  -0.5369  -0.5365  -0.5339
    -0.5151  -0.5132  -0.5132  -0.5060  -0.4964  -0.4902  -0.4799  -0.4727
    -0.4460  -0.4433  -0.4393  -0.4351  -0.4087  -0.4031  -0.3815  -0.3734
    -0.3677  -0.3608  -0.3565  -0.3394  -0.3345  -0.3233  -0.3035  -0.2948
    -0.2837  -0.2669  -0.2622  -0.2583  -0.2511  -0.2462  -0.2406  -0.2375
    -0.2357  -0.2288  -0.2285  -0.2164  -0.2065  -0.1938  -0.1914  -0.1762
    -0.1751  -0.1640  -0.1368  -0.1095  -0.1022  -0.1003  -0.0953  -0.0949
    -0.0787  -0.0728  -0.0651  -0.0645  -0.0518  -0.0402  -0.0222  -0.0138
    -0.0059   0.0131   0.0424   0.0510   0.0625   0.0682   0.0736   0.0786
     0.0790   0.0856   0.0871   0.0881   0.0887   0.0985   0.1027   0.1132
     0.1165   0.1212   0.1272   0.1331   0.1393   0.1687   0.1754   0.1838
     0.1871   0.1989   0.2180   0.2294   0.2325   0.2344   0.2501   0.2519
     0.2530   0.2641   0.2664   0.2713   0.2975   0.3060   0.3089   0.3099
     0.3137   0.3138   0.3251   0.3299   0.3408   0.3428   0.3529   0.3539
     0.3540   0.3806   0.3855   0.3885   0.3907   0.3935   0.3940   0.3978
     0.4025   0.4064   0.4125   0.4126   0.4343   0.4497   0.4526   0.4559
     0.4569   0.4575   0.4601   0.4658   0.4761   0.4800   0.4865   0.4912
     0.5085   0.5125   0.5254   0.5370   0.5477   0.5754   0.5766   0.5785
     0.5961   0.6020   0.6125   0.6196   0.6371   0.6409   0.6437   0.6696
     0.6758   0.6803   0.6850   0.6882   0.7005   0.7172   0.7216   0.7293
     0.7372   0.7439   0.7499   0.7786   0.7852   0.7887   0.8065   0.8128
     0.8462   0.8534   0.8734   0.8846   0.9000   0.9113   0.9387   0.9409
     0.9419   0.9528   0.9548   0.9564   0.9615   0.9650   0.9782   0.9795
     0.9805   0.9829   1.0006   1.0051   1.0073   1.0082   1.0164   1.0177
     1.0241   1.0271   1.0425   1.0558   1.0577   1.0780   1.0828   1.0850
     1.0883   1.0932   1.1035   1.1063   1.1072   1.1086   1.1099   1.1106
     1.1234   1.1249   1.1396   1.1441   1.1455   1.1459   1.1558   1.1657
     1.1689   1.1701   1.1778   1.1808   1.1819   1.1954   1.1991   1.2103
     1.2175   1.2336   1.2425   1.2464   1.2506   1.2521   1.2589   1.2606
     1.2631   1.2638   1.2710   1.2721   1.2754   1.2966   1.2980   1.3142
     1.3149   1.3224   1.3240   1.3310   1.3322   1.3370   1.3458   1.3516
     1.3530   1.3574   1.3595   1.3776   1.3796   1.3827   1.3834   1.3912
     1.4032   1.4042   1.4058   1.4113   1.4141   1.4152   1.4266   1.4271
     1.4311   1.4315   1.4440   1.4521   1.4567   1.4620   1.4695   1.4808
     1.4864   1.4955   1.4962   1.4966   1.5030   1.5072   1.5201   1.5270
     1.5305   1.5344   1.5356   1.5426   1.5649   1.5690   1.5713   1.5771
     1.5789   1.5841   1.5931   1.6038   1.6122   1.6162   1.6293   1.6356
     1.6360   1.6506   1.6647   1.6718   1.6740   1.6918   1.7025   1.7037
     1.7163   1.7199   1.7210   1.7218   1.7283   1.7305   1.7309   1.7410
     1.7429   1.7489   1.7559   1.7586   1.7639   1.7641   1.7657   1.7711
     1.7720   1.7732   1.7889   1.7904   1.7983   1.7986   1.8063   1.8456
     1.8547   1.8840   1.8909   1.8979   1.9034   1.9214   1.9272   1.9313
     1.9810   2.0012   2.0392   2.0525   2.0722   2.0889   2.0889   2.1092
     2.1132   2.1156   2.1159   2.1187   2.1228   2.1258   2.1651   2.2037
     2.2046   2.2095   2.2330   2.2359   2.2466   2.2631   2.2884   2.2899
     2.3073   2.3168   2.3215   2.3316   2.3354   2.3393   2.3730   2.4205
     2.4248   2.4250   2.4393   2.4420   2.4427   2.4622   2.4634   2.4668
     2.5037   2.5226   2.5249   2.5449   2.5740   2.5985   2.6201   2.6214
     2.6251   2.6761   2.7126   2.7302   2.7533   2.7555   2.7711   2.8019
     2.8250   2.8303   2.8833   2.8860   2.8900   2.8928   2.8988   2.9038
     2.9190   2.9619   2.9780   2.9809   2.9877   3.0131   3.0343   3.0624
     3.0727   3.0936   3.2091   3.2530   3.4140   3.4284   3.4581   3.4723
     3.5928   3.6122   3.6353   3.6526   4.1093   4.1493   4.1959   4.2292
     5.3215   5.4962   5.5856   5.6888   5.7067   5.8119   5.8157   5.8273
     5.8310   6.0241   6.0423   6.0730   6.1301   6.1664   6.4288   6.4674
     6.5050   6.5262   6.5279   6.5823   6.6112   6.6181   6.6185   6.6259
     6.6381   6.6385   6.7879   6.7929   6.8006   6.8051   6.8616   6.8679
     6.8934   6.9046   6.9537   6.9598   6.9798   7.0176   7.0352   7.0874
     7.1298   7.1859   7.1971   7.2013   7.2283   7.2472   7.3049   7.4462
     7.4586   7.4615   7.4654   7.4801   7.5301   7.6053   7.6362   7.6563
     7.7046   7.7199   7.7328   7.7355   7.7511   7.7529   7.7623   7.7828
     7.7960   7.7966   7.8064   7.8155   7.8507   7.8620   7.8673   7.9056
     7.9146   7.9149   7.9665   7.9780   8.0237   8.0532   8.1337   8.2067
     8.2289   8.2420   8.2774   8.2817   8.3012   8.3203   8.3321   8.3396
     8.3820   8.3915   8.4141   8.4720   8.4959   8.5320   8.5343   8.5634
     8.5756   8.5937   8.5938   8.6004   8.6298   8.6642   8.6811   8.6824
     8.7012   8.7038   8.7101   8.7214   8.7260   8.7432   8.7487   8.7547
     8.7607   8.7922   8.8137   8.8301   8.8742   8.8824   8.8886   8.9007
     8.9427   8.9641   8.9858   8.9882   8.9908   9.0111   9.0215   9.0372
     9.0411   9.0419   9.0493   9.0867   9.0942   9.1125   9.1316   9.1345
     9.1512   9.1542   9.1592   9.1813   9.2559   9.2619   9.2661   9.3017
     9.3225   9.3272

          k =-0.4652-0.0000 0.0000 (289778 PWs)   bands (ev):

   -38.3932 -38.3669 -38.3637 -38.3594 -38.3572 -38.3426 -38.3409 -38.3155
   -38.2791 -38.2759 -38.2667 -38.2641 -38.2538 -38.2528 -35.9342 -35.8406
   -22.9593 -22.9451 -22.9317 -22.9133 -22.9020 -22.8989 -22.8938 -22.8879
   -22.8799 -22.8716 -22.8713 -22.8636 -22.8182 -22.8108 -22.8088 -22.8038
   -22.7964 -22.7947 -22.7899 -22.7889 -22.7643 -22.7522 -22.7501 -22.7341
   -22.7267 -22.7196 -22.6913 -22.6712 -22.6442 -22.6085 -22.5272 -22.3270
   -18.9725 -18.9002 -18.8945 -18.8847 -18.8704 -18.8427 -18.8139 -18.8082
   -18.8069 -18.7916 -18.7661 -18.7655 -18.7557 -18.7200 -18.7033 -18.6962
   -18.6837 -18.6796 -18.6773 -18.6721 -18.6676 -18.6124 -18.6077 -18.5915
   -18.5912 -18.5896 -18.5744 -18.5652 -18.5322 -18.5129 -18.5050 -18.4883
   -18.4844 -18.4809 -18.4439 -18.4241 -18.4143 -18.4017 -18.3993 -18.3613
   -18.3242 -18.2711 -17.1920 -17.1653 -17.1595 -17.1011 -17.0700 -17.0687
   -15.5288 -15.4680 -15.3412 -15.2809 -15.2703 -15.2155 -15.1352 -15.0828
   -15.0115 -14.9933 -14.9578 -14.9418 -14.9364 -14.9162 -14.9126 -14.8761
   -14.8523 -14.8456 -14.8217 -14.8091 -14.7897 -14.7797 -14.7780 -14.7709
   -14.7580 -14.7449 -14.7416 -14.7312 -14.7215 -14.7151 -14.6992 -14.6866
   -14.6732 -14.6640 -14.6422 -14.6359 -14.6035 -14.6016 -14.5896 -14.5816
   -14.5791 -14.5774 -14.5670 -14.5627 -14.5522 -14.5518 -14.5482 -14.5369
   -14.5331 -14.5301 -14.5118 -14.5053 -14.5015 -14.4961 -14.4642 -14.4543
   -14.4477 -14.4477 -14.4456 -14.4353 -14.4324 -14.4292 -14.4155 -14.4141
   -14.3920 -14.3890 -14.3745 -14.3683 -14.3656 -14.3618 -14.3471 -14.3426
   -14.3281 -14.3177 -14.3129 -14.3104 -14.2955 -14.2932 -14.2894 -14.2708
   -14.2555 -14.2407 -14.2401 -14.2393 -14.2256 -14.1896 -14.1651 -14.1605
   -14.0211 -14.0165 -14.0044 -14.0042 -13.9999 -13.9992 -13.9983 -13.9823
   -13.9812 -13.9808 -13.9497 -13.9461 -13.9314 -13.9275 -13.9257 -13.9138
   -13.9071 -13.8935 -13.8869 -13.8505 -13.8209 -13.7853 -13.7751 -13.7541
   -12.8479 -12.8349 -12.7603 -12.7600 -12.6981 -12.6971 -12.6587 -12.5819
    -8.7386  -8.7253  -8.5859  -8.4588  -8.4531  -8.4495  -8.4449  -8.4396
    -8.4358  -8.3676  -8.3456  -8.3207  -8.2984  -8.2865  -8.2852  -8.2809
    -8.2651  -8.2567  -8.2540  -8.2377  -8.2201  -8.2147  -8.2019  -8.2006
    -8.1974  -8.1906  -8.1863  -8.1818  -8.1766  -8.1638  -8.1610  -8.1579
    -8.1570  -8.1484  -8.1457  -8.1423  -8.1373  -8.1359  -8.1346  -8.1311
    -8.1276  -8.1267  -8.1257  -8.1236  -8.1207  -8.1206  -8.1126  -8.1116
    -8.1113  -8.1069  -8.1001  -8.0958  -8.0922  -8.0902  -8.0529  -8.0203
    -8.0180  -7.9933  -7.9649  -7.9539  -7.9538  -7.9509  -7.9440  -7.9284
    -7.9251  -7.9148  -7.8883  -7.8760  -7.8748  -7.8667  -7.8472  -7.8429
    -7.8362  -7.8243  -7.8226  -7.7820  -7.7741  -7.7730  -7.7684  -7.7662
    -7.7636  -7.7596  -7.7528  -7.7500  -7.7346  -7.7306  -7.7002  -7.6504
    -7.6249  -7.6013  -7.5940  -7.5703  -7.5608  -7.5429  -7.3412  -7.3381
    -4.1829  -4.1143  -3.7643  -3.7104  -3.6929  -3.6890  -3.6469  -3.6236
    -3.5942  -3.5689  -3.3493  -3.3220  -3.2950  -3.2531  -3.2254  -3.1932
    -3.0669  -3.0494  -3.0272  -3.0095  -2.9984  -2.9828  -2.9633  -2.9456
    -2.9322  -2.9262  -2.9016  -2.8885  -2.8805  -2.7976  -2.7751  -2.7721
    -2.7053  -2.6811  -2.5735  -2.5641  -2.5434  -2.5116  -2.5020  -2.4982
    -2.4921  -2.4899  -2.4861  -2.4830  -2.4742  -2.4638  -2.4127  -2.4077
    -2.4063  -2.3603  -2.3373  -2.3295  -2.2859  -2.2754  -2.2735  -2.2701
    -2.2654  -2.2540  -2.2400  -2.2235  -2.2231  -2.2175  -2.2133  -2.2096
    -2.2089  -2.1901  -2.1877  -2.1844  -2.1818  -2.1757  -2.1666  -2.1531
    -2.1529  -2.1443  -2.1305  -2.1126  -2.1065  -2.1050  -2.1029  -2.0989
    -2.0774  -2.0738  -2.0709  -2.0685  -2.0591  -2.0350  -2.0290  -2.0281
    -2.0239  -2.0219  -2.0212  -2.0128  -2.0082  -2.0038  -2.0032  -2.0021
    -1.9926  -1.9917  -1.9748  -1.9731  -1.9543  -1.9518  -1.9498  -1.9432
    -1.9329  -1.9250  -1.9227  -1.9047  -1.9032  -1.8981  -1.8960  -1.8895
    -1.8703  -1.8655  -1.8649  -1.8627  -1.8608  -1.8464  -1.8371  -1.8289
    -1.8255  -1.8163  -1.8160  -1.8054  -1.7902  -1.7866  -1.7692  -1.7584
    -1.7471  -1.7204  -1.7172  -1.6345  -1.4996  -1.4623  -1.4365  -1.4263
    -1.4005  -1.3674  -1.3297  -1.2297  -1.2215  -1.2063  -1.2033  -1.1731
    -1.1574  -1.1381  -1.1258  -1.1148  -1.1141  -1.1022  -1.0999  -1.0935
    -1.0902  -1.0747  -1.0731  -1.0706  -1.0593  -1.0569  -1.0496  -1.0397
    -1.0316  -1.0207  -1.0017  -0.9880  -0.9853  -0.9846  -0.9794  -0.9689
    -0.9614  -0.9595  -0.9462  -0.9270  -0.9215  -0.9195  -0.9084  -0.9059
    -0.9030  -0.8969  -0.8961  -0.8933  -0.8849  -0.8836  -0.8742  -0.8727
    -0.8673  -0.8612  -0.8536  -0.8533  -0.8391  -0.8228  -0.8194  -0.8153
    -0.8008  -0.7962  -0.7772  -0.7731  -0.7562  -0.7459  -0.7419  -0.7408
    -0.7338  -0.7214  -0.7179  -0.7149  -0.7038  -0.7026  -0.6981  -0.6875
    -0.6722  -0.6524  -0.6294  -0.6053  -0.5979  -0.5859  -0.5758  -0.5738
    -0.5726  -0.5633  -0.5623  -0.5604  -0.5490  -0.5320  -0.5064  -0.4985
    -0.4954  -0.4909  -0.4882  -0.4816  -0.4683  -0.4665  -0.4636  -0.4634
    -0.4611  -0.4549  -0.4502  -0.4463  -0.4419  -0.4317  -0.4292  -0.4201
    -0.3919  -0.3745  -0.3655  -0.3522  -0.3453  -0.3422  -0.3273  -0.3114
    -0.3075  -0.3074  -0.3002  -0.2999  -0.2990  -0.2978  -0.2720  -0.2707
    -0.2647  -0.2608  -0.2568  -0.2441  -0.2341  -0.2297  -0.2284  -0.2255
    -0.2224  -0.2120  -0.1859  -0.1574  -0.1186  -0.1064  -0.0876  -0.0816
[...]
     atom   56 type  4   force =    -0.00003225    0.00003615    0.00157433
     atom   57 type  2   force =     0.00000000    0.00000000   -0.00328395
     atom   58 type  5   force =     0.00053672    0.00000000   -0.00553697
     atom   59 type  5   force =    -0.00053672    0.00000000   -0.00553697
     atom   60 type  5   force =     0.00000000    0.00000000   -0.00481215
     atom   61 type  5   force =     0.00000000    0.00000000   -0.00528655
     atom   62 type  5   force =     0.00000000    0.00000000   -0.00528655
     atom   63 type  5   force =     0.00000000    0.00037324   -0.00553473
     atom   64 type  5   force =     0.00000000   -0.00037324   -0.00553473
     atom   65 type  4   force =    -0.00052420   -0.00021886    0.00382173
     atom   66 type  4   force =    -0.00052420    0.00021886    0.00382173
     atom   67 type  4   force =     0.00052420   -0.00021886    0.00382173
     atom   68 type  4   force =     0.00052420    0.00021886    0.00382173
     atom   69 type  4   force =     0.00000000   -0.00006359    0.00340635
     atom   70 type  4   force =     0.00000000    0.00006359    0.00340635
     atom   71 type  4   force =     0.00004117   -0.00019572    0.00583784
     atom   72 type  4   force =     0.00004117    0.00019572    0.00583784
     atom   73 type  4   force =    -0.00004117    0.00019572    0.00583784
     atom   74 type  4   force =    -0.00004117   -0.00019572    0.00583784
     atom   75 type  4   force =     0.00038763    0.00000000    0.00649662
     atom   76 type  4   force =    -0.00038763    0.00000000    0.00649662
     atom   77 type  4   force =     0.00000000   -0.00114041    0.00500320
     atom   78 type  4   force =     0.00000000    0.00114041    0.00500320
     atom   79 type  4   force =     0.00107190    0.00000000    0.00592993
     atom   80 type  4   force =    -0.00107190    0.00000000    0.00592993
     atom   81 type  3   force =    -0.00022927    0.00014735   -0.00164248
     atom   82 type  3   force =    -0.00022927   -0.00014735   -0.00164248
     atom   83 type  3   force =     0.00022927    0.00014735   -0.00164248
     atom   84 type  3   force =     0.00022927   -0.00014735   -0.00164248
     atom   85 type  3   force =    -0.00013533    0.00007261   -0.00256889
     atom   86 type  3   force =     0.00013533    0.00007261   -0.00256889
     atom   87 type  3   force =     0.00013533   -0.00007261   -0.00256889
     atom   88 type  3   force =    -0.00013533   -0.00007261   -0.00256889
     atom   89 type  1   force =     0.00000000    0.00000000    0.00723773
     atom   90 type  1   force =     0.00000000   -0.00052153    0.01456466
     atom   91 type  1   force =     0.00000000    0.00052153    0.01456466
     atom   92 type  1   force =     0.00083768    0.00000000    0.01290997
     atom   93 type  1   force =    -0.00083768    0.00000000    0.01290997
     atom   94 type  1   force =     0.00000000    0.00000000    0.01611554
     atom   95 type  1   force =     0.00000000    0.00000000    0.01611554
     atom   96 type  1   force =     0.00000000    0.00000000    0.01632818
     atom   97 type  4   force =     0.00079130    0.00017631   -0.01795186
     atom   98 type  4   force =     0.00079130   -0.00017631   -0.01795186
     atom   99 type  4   force =    -0.00079130    0.00017631   -0.01795186
     atom  100 type  4   force =    -0.00079130   -0.00017631   -0.01795186
     atom  101 type  4   force =    -0.00260681   -0.00036752   -0.01854523
     atom  102 type  4   force =     0.00260681   -0.00036752   -0.01854523
     atom  103 type  4   force =     0.00260681    0.00036752   -0.01854523
     atom  104 type  4   force =    -0.00260681    0.00036752   -0.01854523
     atom  105 type  4   force =     0.00923291    0.00000000    0.02493207
     atom  106 type  4   force =    -0.00923291    0.00000000    0.02493207
     atom  107 type  3   force =    -0.01239131   -0.00417066   -0.02275609
     atom  108 type  3   force =    -0.01239131    0.00417066   -0.02275609
     atom  109 type  3   force =     0.01239131    0.00417066   -0.02275609
     atom  110 type  3   force =     0.01239131   -0.00417066   -0.02275609
     atom  111 type  3   force =    -0.00527207   -0.00040180   -0.02400996
     atom  112 type  3   force =     0.00527207    0.00040180   -0.02400996
     atom  113 type  3   force =    -0.00527207    0.00040180   -0.02400996
     atom  114 type  3   force =     0.00527207   -0.00040180   -0.02400996
     atom  115 type  4   force =     0.00201921   -0.00046029    0.02124466
     atom  116 type  4   force =    -0.00201921   -0.00046029    0.02124466
     atom  117 type  4   force =     0.00201921    0.00046029    0.02124466
     atom  118 type  4   force =    -0.00201921    0.00046029    0.02124466
     atom  119 type  4   force =    -0.01739940    0.00000000    0.02783833
     atom  120 type  4   force =     0.01739940    0.00000000    0.02783833
     atom  121 type  4   force =     0.00727364    0.00768770    0.02429416
     atom  122 type  4   force =    -0.00727364    0.00768770    0.02429416
     atom  123 type  4   force =    -0.00727364   -0.00768770    0.02429416
     atom  124 type  4   force =     0.00727364   -0.00768770    0.02429416
     atom  125 type  4   force =    -0.00205042    0.00069543    0.02198011
     atom  126 type  4   force =    -0.00205042   -0.00069543    0.02198011
     atom  127 type  4   force =     0.00205042    0.00069543    0.02198011
     atom  128 type  4   force =     0.00205042   -0.00069543    0.02198011
     atom  129 type  1   force =     0.00000000    0.00000000   -0.00457786
     atom  130 type  1   force =     0.00000000    0.00000000   -0.00389520
     atom  131 type  1   force =     0.00000000    0.00000000   -0.00389520
     atom  132 type  1   force =    -0.00467694    0.00000000   -0.01017117
     atom  133 type  1   force =     0.00467694    0.00000000   -0.01017117
     atom  134 type  1   force =     0.00000000   -0.00518991   -0.00504454
     atom  135 type  1   force =     0.00000000    0.00518991   -0.00504454
     atom  136 type  1   force =     0.00000000    0.00000000   -0.01934321
     atom  137 type  3   force =     0.00031403    0.00099642   -0.02133437
     atom  138 type  3   force =     0.00031403   -0.00099642   -0.02133437
     atom  139 type  3   force =    -0.00031403   -0.00099642   -0.02133437
     atom  140 type  3   force =    -0.00031403    0.00099642   -0.02133437
     atom  141 type  3   force =    -0.00167353    0.00087767   -0.02202766
     atom  142 type  3   force =    -0.00167353   -0.00087767   -0.02202766
     atom  143 type  3   force =     0.00167353    0.00087767   -0.02202766
     atom  144 type  3   force =     0.00167353   -0.00087767   -0.02202766
     atom  145 type  4   force =    -0.00253231    0.00000000    0.00320135
     atom  146 type  4   force =     0.00253231    0.00000000    0.00320135
     atom  147 type  4   force =     0.00000000   -0.00212387    0.00542399
     atom  148 type  4   force =     0.00000000    0.00212387    0.00542399
     atom  149 type  4   force =    -0.00041136    0.00000000    0.00017759
     atom  150 type  4   force =     0.00041136    0.00000000    0.00017759
     atom  151 type  4   force =    -0.00074662   -0.00007598    0.00210411
     atom  152 type  4   force =     0.00074662   -0.00007598    0.00210411
     atom  153 type  4   force =     0.00074662    0.00007598    0.00210411
     atom  154 type  4   force =    -0.00074662    0.00007598    0.00210411
     atom  155 type  4   force =     0.00000000   -0.00207494    0.00337112
     atom  156 type  4   force =     0.00000000    0.00207494    0.00337112
     atom  157 type  4   force =    -0.00009096    0.00029450    0.00398529
     atom  158 type  4   force =     0.00009096   -0.00029450    0.00398529
     atom  159 type  4   force =    -0.00009096   -0.00029450    0.00398529
     atom  160 type  4   force =     0.00009096    0.00029450    0.00398529
     atom  161 type  2   force =     0.00000000    0.00000000   -0.00125988
     atom  162 type  5   force =    -0.00010011    0.00000000    0.00006439
     atom  163 type  5   force =     0.00010011    0.00000000    0.00006439
     atom  164 type  5   force =     0.00000000    0.00000000    0.00078763
     atom  165 type  5   force =     0.00000000    0.00000000   -0.00022290
     atom  166 type  5   force =     0.00000000    0.00000000   -0.00022290
     atom  167 type  5   force =     0.00000000   -0.00055517   -0.00062372
     atom  168 type  5   force =     0.00000000    0.00055517   -0.00062372
     atom  169 type  4   force =    -0.00028352   -0.00001919    0.00034634
     atom  170 type  4   force =    -0.00028352    0.00001919    0.00034634
     atom  171 type  4   force =     0.00028352   -0.00001919    0.00034634
     atom  172 type  4   force =     0.00028352    0.00001919    0.00034634
     atom  173 type  4   force =     0.00000000    0.00018377    0.00045082
     atom  174 type  4   force =     0.00000000   -0.00018377    0.00045082
     atom  175 type  4   force =    -0.00002876   -0.00003449   -0.00037650
     atom  176 type  4   force =    -0.00002876    0.00003449   -0.00037650
     atom  177 type  4   force =     0.00002876    0.00003449   -0.00037650
     atom  178 type  4   force =     0.00002876   -0.00003449   -0.00037650
     atom  179 type  4   force =    -0.00005195    0.00000000   -0.00079084
     atom  180 type  4   force =     0.00005195    0.00000000   -0.00079084
     atom  181 type  4   force =     0.00000000   -0.00014316    0.00020813
     atom  182 type  4   force =     0.00000000    0.00014316    0.00020813
     atom  183 type  4   force =    -0.00008710    0.00000000   -0.00040954
     atom  184 type  4   force =     0.00008710    0.00000000   -0.00040954
     atom  185 type  3   force =     0.00006534   -0.00007219    0.00032820
     atom  186 type  3   force =     0.00006534    0.00007219    0.00032820
     atom  187 type  3   force =    -0.00006534   -0.00007219    0.00032820
     atom  188 type  3   force =    -0.00006534    0.00007219    0.00032820
     atom  189 type  3   force =     0.00001478    0.00006912    0.00036469
     atom  190 type  3   force =    -0.00001478    0.00006912    0.00036469
     atom  191 type  3   force =    -0.00001478   -0.00006912    0.00036469
     atom  192 type  3   force =     0.00001478   -0.00006912    0.00036469
     atom  193 type  1   force =     0.00000000    0.00000000    0.00022709
     atom  194 type  1   force =     0.00000000   -0.00004153    0.00039870
     atom  195 type  1   force =     0.00000000    0.00004153    0.00039870
     atom  196 type  1   force =     0.00025715    0.00000000    0.00016428
     atom  197 type  1   force =    -0.00025715    0.00000000    0.00016428
     atom  198 type  1   force =     0.00000000    0.00000000    0.00026811
     atom  199 type  1   force =     0.00000000    0.00000000    0.00026811
     atom  200 type  1   force =     0.00000000    0.00000000    0.00022994
     atom  201 type  4   force =     0.00006151    0.00007100   -0.00238845
     atom  202 type  4   force =     0.00006151   -0.00007100   -0.00238845
     atom  203 type  4   force =    -0.00006151    0.00007100   -0.00238845
     atom  204 type  4   force =    -0.00006151   -0.00007100   -0.00238845
     atom  205 type  4   force =     0.00002852    0.00004981   -0.00209827
     atom  206 type  4   force =    -0.00002852    0.00004981   -0.00209827
     atom  207 type  4   force =    -0.00002852   -0.00004981   -0.00209827
     atom  208 type  4   force =     0.00002852   -0.00004981   -0.00209827
     atom  209 type  4   force =     0.00006385    0.00000000   -0.00010150
     atom  210 type  4   force =    -0.00006385    0.00000000   -0.00010150
     atom  211 type  3   force =     0.00009111   -0.00004681    0.00066180
     atom  212 type  3   force =     0.00009111    0.00004681    0.00066180
     atom  213 type  3   force =    -0.00009111    0.00004681    0.00066180
     atom  214 type  3   force =    -0.00009111   -0.00004681    0.00066180
     atom  215 type  3   force =     0.00000526   -0.00003276    0.00091575
     atom  216 type  3   force =    -0.00000526    0.00003276    0.00091575
     atom  217 type  3   force =     0.00000526    0.00003276    0.00091575
     atom  218 type  3   force =    -0.00000526   -0.00003276    0.00091575
     atom  219 type  4   force =    -0.00010493    0.00020723   -0.00001927
     atom  220 type  4   force =     0.00010493    0.00020723   -0.00001927
     atom  221 type  4   force =    -0.00010493   -0.00020723   -0.00001927
     atom  222 type  4   force =     0.00010493   -0.00020723   -0.00001927
     atom  223 type  4   force =    -0.00011385    0.00000000    0.00003758
     atom  224 type  4   force =     0.00011385    0.00000000    0.00003758

     Total force =     0.158687     Total SCF correction =     0.000316


     Computing stress (Cartesian axis) and pressure


     negative rho (up, down):  6.348E-01 0.000E+00
          total   stress  (Ry/bohr**3)                   (kbar)     P=       -6.66
  -0.00000344   0.00000000   0.00000000           -0.51        0.00        0.00
   0.00000000  -0.00010264   0.00000000            0.00      -15.10        0.00
   0.00000000   0.00000000  -0.00002970            0.00        0.00       -4.37

 
     init_run     :     57.08s CPU     58.96s WALL (       1 calls)
     electrons    :   4496.48s CPU   4691.32s WALL (       1 calls)
     forces       :     35.00s CPU     37.18s WALL (       1 calls)
     stress       :    398.60s CPU    402.88s WALL (       1 calls)

     Called by init_run:
     wfcinit      :     45.23s CPU     46.24s WALL (       1 calls)
     potinit      :      1.64s CPU      1.71s WALL (       1 calls)
     hinit0       :      2.93s CPU      3.13s WALL (       1 calls)

     Called by electrons:
     c_bands      :   3770.51s CPU   3852.64s WALL (      43 calls)
     sum_band     :    507.06s CPU    569.56s WALL (      43 calls)
     v_of_rho     :     10.97s CPU     11.53s WALL (      44 calls)
     newd         :     82.08s CPU    131.31s WALL (      44 calls)
     mix_rho      :    127.18s CPU    128.06s WALL (      43 calls)

     Called by c_bands:
     init_us_2    :     14.61s CPU     14.73s WALL (     356 calls)
     cegterg      :   3682.18s CPU   3761.89s WALL (     172 calls)

     Called by sum_band:
     sum_band:bec :      3.81s CPU      3.82s WALL (     172 calls)
     addusdens    :     82.00s CPU    141.41s WALL (      43 calls)

     Called by *egterg:
     h_psi        :   1551.63s CPU   1581.02s WALL (    1040 calls)
     s_psi        :    459.45s CPU    470.58s WALL (    1040 calls)
     g_psi        :      2.33s CPU      2.34s WALL (     864 calls)
     cdiaghg      :    680.54s CPU    683.34s WALL (    1036 calls)

     Called by h_psi:
     h_psi:calbec :    492.06s CPU    494.17s WALL (    1040 calls)
     vloc_psi     :    596.79s CPU    604.19s WALL (    1040 calls)
     add_vuspsi   :    459.19s CPU    470.75s WALL (    1040 calls)

     General routines
     calbec       :    756.68s CPU    759.62s WALL (    1232 calls)
     fft          :     11.16s CPU     11.42s WALL (     595 calls)
     ffts         :     79.38s CPU     79.90s WALL (   32729 calls)
     fftw         :    660.61s CPU    668.48s WALL (  970814 calls)
     interpolate  :      0.98s CPU      1.02s WALL (      44 calls)
 
     Parallel routines
     fft_scatt_xy :     97.42s CPU     98.54s WALL ( 1004138 calls)
     fft_scatt_yz :    405.88s CPU    410.76s WALL ( 1004138 calls)
 
     PWSCF        :      1h23m CPU      1h26m WALL

 
   This run was terminated on:  22:16:50  17May2021            

=------------------------------------------------------------------------------=
   JOB DONE.
=------------------------------------------------------------------------------=
[1621304210.430618] [holy7c16107:9784 :0]          mpool.c:43   UCX  WARN  object 0x299a080 was not returned to mpool ucp_requests
[1621304210.436513] [holy7c16107:9790 :0]          mpool.c:43   UCX  WARN  object 0x2f4c3c0 was not returned to mpool ucp_requests
[1621304210.433767] [holy7c16107:9782 :0]          mpool.c:43   UCX  WARN  object 0x3b139c0 was not returned to mpool ucp_requests
[1621304210.448154] [holy7c16201:107845:0]          mpool.c:43   UCX  WARN  object 0x45ce640 was not returned to mpool ucp_requests
[1621304210.436162] [holy7c16107:9791 :0]          mpool.c:43   UCX  WARN  object 0x3b769c0 was not returned to mpool ucp_requests
[1621304210.465154] [holy7c16106:172338:0]          mpool.c:43   UCX  WARN  object 0x3512540 was not returned to mpool ucp_requests
[1621304210.469813] [holy7c16104:21093:0]          mpool.c:43   UCX  WARN  object 0x3b99680 was not returned to mpool ucp_requests
[1621304210.472654] [holy7c16104:21095:0]          mpool.c:43   UCX  WARN  object 0x3cf3e40 was not returned to mpool ucp_requests
[1621304210.472181] [holy7c16104:21088:0]          mpool.c:43   UCX  WARN  object 0x326e080 was not returned to mpool ucp_requests
[1621304210.470437] [holy7c16104:21086:0]          mpool.c:43   UCX  WARN  object 0x36a7900 was not returned to mpool ucp_requests
[1621304210.474979] [holy7c16104:21096:0]          mpool.c:43   UCX  WARN  object 0x5801480 was not returned to mpool ucp_requests
[1621304210.477152] [holy7c16104:21094:0]          mpool.c:43   UCX  WARN  object 0x2ebdc80 was not returned to mpool ucp_requests
[1621304210.441928] [holy7c16107:9783 :0]          mpool.c:43   UCX  WARN  object 0x608c980 was not returned to mpool ucp_requests
[1621304210.479429] [holy7c16104:21087:0]          mpool.c:43   UCX  WARN  object 0x320a080 was not returned to mpool ucp_requests
[1621304210.443869] [holy7c16107:9785 :0]          mpool.c:43   UCX  WARN  object 0x46a1240 was not returned to mpool ucp_requests
[1621304210.451112] [holy7c16201:107853:0]          mpool.c:43   UCX  WARN  object 0x295eb80 was not returned to mpool ucp_requests
[1621304210.458302] [holy7c16201:107846:0]          mpool.c:43   UCX  WARN  object 0x644e640 was not returned to mpool ucp_requests
[1621304210.458977] [holy7c16201:107838:0]          mpool.c:43   UCX  WARN  object 0x5041340 was not returned to mpool ucp_requests
[1621304210.454659] [holy7c16201:107839:0]          mpool.c:43   UCX  WARN  object 0x33e5a40 was not returned to mpool ucp_requests
[1621304210.462017] [holy7c16201:107844:0]          mpool.c:43   UCX  WARN  object 0x339d800 was not returned to mpool ucp_requests
[1621304210.463781] [holy7c16201:107847:0]          mpool.c:43   UCX  WARN  object 0x2c90440 was not returned to mpool ucp_requests
[1621304210.465073] [holy7c16201:107852:0]          mpool.c:43   UCX  WARN  object 0x35b9400 was not returned to mpool ucp_requests
[1621304210.463982] [holy7c16201:107854:0]          mpool.c:43   UCX  WARN  object 0x4180900 was not returned to mpool ucp_requests
[1621304210.462839] [holy7c16106:172339:0]          mpool.c:43   UCX  WARN  object 0x2f85980 was not returned to mpool ucp_requests
[1621304210.461408] [holy7c16106:172331:0]          mpool.c:43   UCX  WARN  object 0x3b5fdc0 was not returned to mpool ucp_requests
[1621304210.468744] [holy7c16106:172330:0]          mpool.c:43   UCX  WARN  object 0x28879c0 was not returned to mpool ucp_requests
[1621304210.465686] [holy7c16106:172329:0]          mpool.c:43   UCX  WARN  object 0x3648fc0 was not returned to mpool ucp_requests
[1621304210.474332] [holy7c16106:172337:0]          mpool.c:43   UCX  WARN  object 0x4a81f40 was not returned to mpool ucp_requests
[1621304210.473543] [holy7c16106:172340:0]          mpool.c:43   UCX  WARN  object 0x37941c0 was not returned to mpool ucp_requests
[1621304210.471464] [holy7c16106:172332:0]          mpool.c:43   UCX  WARN  object 0x3087280 was not returned to mpool ucp_requests
[1621304210.477894] [holy7c16203:253464:0]          mpool.c:43   UCX  WARN  object 0x29908c0 was not returned to mpool ucp_requests
