
     Program PWSCF v.6.5 starts on 17May2021 at 22:28:28 

     This program is part of the open-source Quantum ESPRESSO suite
     for quantum simulation of materials; please cite
         "P. Giannozzi et al., J. Phys.:Condens. Matter 21 395502 (2009);
         "P. Giannozzi et al., J. Phys.:Condens. Matter 29 465901 (2017);
          URL http://www.quantum-espresso.org", 
     in publications or presentations arising from this work. More details at
     http://www.quantum-espresso.org/quote

     Parallel version (MPI), running on    80 processors

     MPI processes distributed on     5 nodes
     R & G space division:  proc/nbgrp/npool/nimage =      80
     Reading input from YBCO_CuO_cleave_2.5_sep.pwi
Warning: card &IONS ignored
Warning: card     ION_DYNAMICS = 'BFGS' ignored
Warning: card / ignored
Warning: card &CELL ignored
Warning: card     CELL_DYNAMICS = 'BFGS' ignored
Warning: card     PRESS_CONV_THR = 5 ignored
Warning: card / ignored

     Current dimensions of program PWSCF are:
     Max number of different atomic species (ntypx) = 10
     Max number of k-points (npk) =  40000
     Max angular momentum in pseudopotentials (lmaxx) =  3
     Message from routine volume:
     axis vectors are left-handed

     Subspace diagonalization in iterative solution of the eigenvalue problem:
     one sub-group per band group will be used
     scalapack distributed-memory algorithm (size of sub-group:  8*  8 procs)

     Message from routine setup:
     using ibrav=0 with symmetry is DISCOURAGED, use correct ibrav instead
 
     Parallelization info
     --------------------
     sticks:   dense  smooth     PW     G-vecs:    dense   smooth      PW
     Min         300     100     25               148918    28658    3763
     Max         301     101     26               148955    28681    3800
     Sum       24079    8031   2067             11915489  2293371  303101
 


     bravais-lattice index     =            0
     lattice parameter (alat)  =      20.5021  a.u.
     unit-cell volume          =   36520.4775 (a.u.)^3
     number of atoms/cell      =          224
     number of atomic types    =            5
     number of electrons       =      1830.00
     number of Kohn-Sham states=         1098
     kinetic-energy cutoff     =      60.0000  Ry
     charge density cutoff     =     720.0000  Ry
     convergence threshold     =      1.0E-08
     mixing beta               =       0.5000
     number of iterations used =           10  local-TF  mixing
     Exchange-correlation= SLA PW PBE PBE
                           (   1   4   3   4   0   0   0)

     celldm(1)=  20.502120  celldm(2)=   0.000000  celldm(3)=   0.000000
     celldm(4)=   0.000000  celldm(5)=   0.000000  celldm(6)=   0.000000

     crystal axes: (cart. coord. in units of alat)
               a(1) = (  -0.716599   0.697485   0.000000 )  
               a(2) = (   0.716599   0.697485   0.000000 )  
               a(3) = (   0.000000   0.000000   4.239346 )  

     reciprocal axes: (cart. coord. in units 2 pi/alat)
               b(1) = ( -0.697740  0.716861  0.000000 )  
               b(2) = (  0.697740  0.716861  0.000000 )  
               b(3) = (  0.000000  0.000000  0.235885 )  


     PseudoPot. # 1 for Ba read from file:
     ./pseudo/Ba.pbe-nsp-van.UPF
     MD5 check sum: 2b9c31dd849566dd297d80989662b7a0
     Pseudo is Ultrasoft + core correction, Zval = 10.0
     Generated by new atomic code, or converted to UPF format
     Using radial grid of  907 points,  6 beta functions with: 
                l(1) =   0
                l(2) =   0
                l(3) =   1
                l(4) =   1
                l(5) =   2
                l(6) =   2
     Q(r) pseudized with  6 coefficients,  rinner =    1.200   1.200   1.200
                                                       1.200   1.200

     PseudoPot. # 2 for Ca read from file:
     ./pseudo/Ca.pbe-nsp-van.UPF
     MD5 check sum: 6471098428ff4fa451746d08035ff179
     Pseudo is Ultrasoft + core correction, Zval = 10.0
     Generated by new atomic code, or converted to UPF format
     Using radial grid of  845 points,  6 beta functions with: 
                l(1) =   0
                l(2) =   0
                l(3) =   1
                l(4) =   1
                l(5) =   2
                l(6) =   2
     Q(r) pseudized with  6 coefficients,  rinner =    1.200   1.200   1.200
                                                       1.200   1.200

     PseudoPot. # 3 for Cu read from file:
     ./pseudo/Cu.pbe-n-van_ak.UPF
     MD5 check sum: 34e3282627ffb533726feb647e090d62
     Pseudo is Ultrasoft + core correction, Zval = 11.0
     Generated by new atomic code, or converted to UPF format
     Using radial grid of  867 points,  6 beta functions with: 
                l(1) =   0
                l(2) =   0
                l(3) =   1
                l(4) =   1
                l(5) =   2
                l(6) =   2
     Q(r) pseudized with  8 coefficients,  rinner =    1.400   1.400   1.400
                                                       1.400   1.400

     PseudoPot. # 4 for O  read from file:
     ./pseudo/O.pbe-van_ak.UPF
     MD5 check sum: 783ce7fe4c79b6a4916957118fed0856
     Pseudo is Ultrasoft, Zval =  6.0
     Generated by new atomic code, or converted to UPF format
     Using radial grid of  737 points,  4 beta functions with: 
                l(1) =   0
                l(2) =   0
                l(3) =   1
                l(4) =   1
     Q(r) pseudized with  8 coefficients,  rinner =    0.800   0.800   0.800


     PseudoPot. # 5 for Y  read from file:
     ./pseudo/Y.pbe-nsp-van.UPF
     MD5 check sum: 4412fed3ab108fed87a1b7d6a69a4a38
     Pseudo is Ultrasoft + core correction, Zval = 11.0
     Generated by new atomic code, or converted to UPF format
     Using radial grid of  885 points,  6 beta functions with: 
                l(1) =   0
                l(2) =   0
                l(3) =   1
                l(4) =   1
                l(5) =   2
                l(6) =   2
     Q(r) pseudized with  6 coefficients,  rinner =    1.200   1.200   1.200
                                                       1.200   1.200

     atomic species   valence    mass     pseudopotential
        Ba            10.00   137.32700     Ba( 1.00)
        Ca            10.00    40.07800     Ca( 1.00)
        Cu            11.00    63.54600     Cu( 1.00)
        O              6.00    15.99900     O ( 1.00)
        Y             11.00    88.90584     Y ( 1.00)

      4 Sym. Ops. (no inversion) found ( 3 have fractional translation)



   Cartesian axes

     site n.     atom                  positions (alat units)
         1           O   tau(   1) = (   0.3545921   0.8718562  -0.0077406  )
         2           O   tau(   2) = (   0.0037072   0.8718562  -0.0077406  )
         3           Cu  tau(   3) = (  -0.0002581   0.0006065   0.0080789  )
         4           Cu  tau(   4) = (  -0.0002581   0.3481364   0.0080789  )
         5           Cu  tau(   5) = (   0.3585574   0.3481364   0.0080789  )
         6           Cu  tau(   6) = (  -0.3580421   0.6980913   0.0080789  )
         7           Cu  tau(   7) = (   0.3577988   0.6971373   0.0086255  )
         8           Cu  tau(   8) = (   0.0005005   1.0465760   0.0086255  )
         9           Cu  tau(   9) = (  -0.3588016   0.3490903   0.0086255  )
        10           Cu  tau(  10) = (   0.0005005   0.6971373   0.0086255  )
        11           O   tau(  11) = (  -0.0001733   0.5225410  -0.0089757  )
        12           O   tau(  12) = (   0.3584726   0.5225410  -0.0089757  )
        13           O   tau(  13) = (  -0.0001733   1.2211724  -0.0089757  )
        14           O   tau(  14) = (  -0.3581278   0.5236867  -0.0089757  )
        15           O   tau(  15) = (  -0.3544557   0.8718562  -0.0105593  )
        16           O   tau(  16) = (  -0.0038445   0.1743714  -0.0105593  )
        17           O   tau(  17) = (   0.3588818   0.3486599   0.1817056  )
        18           O   tau(  18) = (  -0.0005825   0.3486599   0.1817056  )
        19           O   tau(  19) = (  -0.0005825   0.0000830   0.1817056  )
        20           O   tau(  20) = (  -0.3577167   0.6975677   0.1817056  )
        21           O   tau(  21) = (   0.3584283   0.6967843   0.1825784  )
        22           O   tau(  22) = (  -0.3581712   0.3494443   0.1825784  )
        23           O   tau(  23) = (  -0.0001290   0.6967843   0.1825784  )
        24           O   tau(  24) = (  -0.0001290   1.0469291   0.1825784  )
        25           Ba  tau(  25) = (   0.1791506   0.8718562   0.1908537  )
        26           Ba  tau(  26) = (   0.5374498   0.5231143   0.1919901  )
        27           Ba  tau(  27) = (  -0.1791506   0.5231143   0.1919901  )
        28           Ba  tau(  28) = (  -0.1793773   0.8718562   0.1931958  )
        29           Ba  tau(  29) = (  -0.1789238   0.1743714   0.1931958  )
        30           Ba  tau(  30) = (   0.1791506   0.5222101   0.1929368  )
        31           Ba  tau(  31) = (  -0.5374498   0.5240176   0.1929368  )
        32           Ba  tau(  32) = (   0.1791506   0.1743714   0.1992469  )
        33           Cu  tau(  33) = (  -0.3583426   0.3488452   0.3777458  )
        34           Cu  tau(  34) = (   0.3582559   0.6973834   0.3777458  )
        35           Cu  tau(  35) = (   0.0000433   0.6973834   0.3777458  )
        36           Cu  tau(  36) = (   0.0000433   1.0463299   0.3777458  )
        37           Cu  tau(  37) = (  -0.3586541   0.6975060   0.3775126  )
        38           Cu  tau(  38) = (   0.3579444   0.3487217   0.3775126  )
        39           Cu  tau(  39) = (   0.0003549   0.0000212   0.3775126  )
        40           Cu  tau(  40) = (   0.0003549   0.3487217   0.3775126  )
        41           O   tau(  41) = (  -0.0047976   0.1743714   0.3996864  )
        42           O   tau(  42) = (  -0.3535026   0.8718562   0.3996864  )
        43           O   tau(  43) = (  -0.5374498   0.6924605   0.3956991  )
        44           O   tau(  44) = (   0.1791506   0.3537672   0.3956991  )
        45           O   tau(  45) = (   0.3586385   0.8718562   0.4046840  )
        46           O   tau(  46) = (  -0.0003392   0.8718562   0.4046840  )
        47           O   tau(  47) = (  -0.0004857   0.5230571   0.4066611  )
        48           O   tau(  48) = (   0.3587850   0.5230571   0.4066611  )
        49           O   tau(  49) = (  -0.3578135   0.5231714   0.4066611  )
        50           O   tau(  50) = (  -0.0004857   1.2206562   0.4066611  )
        51           O   tau(  51) = (   0.1791506   1.0461604   0.4028931  )
        52           O   tau(  52) = (   0.1791506   0.6975521   0.4028931  )
        53           O   tau(  53) = (  -0.1792261   0.6967170   0.4025963  )
        54           O   tau(  54) = (  -0.1790731   0.3495106   0.4025963  )
        55           O   tau(  55) = (  -0.1792261   1.0469964   0.4025963  )
        56           O   tau(  56) = (   0.5375263   0.6967170   0.4025963  )
        57           Ca  tau(  57) = (   0.1791506   0.1743714   0.5358617  )
        58           Y   tau(  58) = (  -0.1811525   0.8718562   0.5373908  )
        59           Y   tau(  59) = (  -0.1771467   0.1743714   0.5373908  )
        60           Y   tau(  60) = (   0.1791506   0.8718562   0.5379568  )
        61           Y   tau(  61) = (   0.5374498   0.5231143   0.5384490  )
        62           Y   tau(  62) = (  -0.1791506   0.5231143   0.5384490  )
        63           Y   tau(  63) = (   0.1791506   0.5216598   0.5383310  )
        64           Y   tau(  64) = (  -0.5374498   0.5245688   0.5383310  )
        65           O   tau(  65) = (  -0.1787754   0.3493171   0.6712314  )
        66           O   tau(  66) = (   0.5378231   0.6969115   0.6712314  )
        67           O   tau(  67) = (  -0.1795239   1.0468019   0.6712314  )
        68           O   tau(  68) = (  -0.1795239   0.6969115   0.6712314  )
        69           O   tau(  69) = (   0.1791506   0.6972691   0.6718637  )
        70           O   tau(  70) = (   0.1791506   1.0464433   0.6718637  )
        71           O   tau(  71) = (  -0.0003880   1.2203935   0.6667490  )
        72           O   tau(  72) = (  -0.0003880   0.5233198   0.6667490  )
        73           O   tau(  73) = (   0.3586882   0.5233198   0.6667490  )
        74           O   tau(  74) = (  -0.3579112   0.5229087   0.6667490  )
        75           O   tau(  75) = (   0.3585850   0.8718562   0.6641940  )
        76           O   tau(  76) = (  -0.0002857   0.8718562   0.6641940  )
        77           O   tau(  77) = (   0.1791506   0.3535118   0.6756778  )
        78           O   tau(  78) = (  -0.5374498   0.6927158   0.6756778  )
        79           O   tau(  79) = (  -0.0043044   0.1743714   0.6710848  )
        80           O   tau(  80) = (  -0.3539948   0.8718562   0.6710848  )
        81           Cu  tau(  81) = (  -0.3586514   0.6973604   0.6974442  )
        82           Cu  tau(  82) = (   0.3579472   0.3488682   0.6974442  )
        83           Cu  tau(  83) = (   0.0003521  -0.0001254   0.6974442  )
        84           Cu  tau(  84) = (   0.0003521   0.3488682   0.6974442  )
        85           Cu  tau(  85) = (   0.0000083   1.0459401   0.6989015  )
        86           Cu  tau(  86) = (  -0.3583076   0.3484544   0.6989015  )
        87           Cu  tau(  87) = (   0.3582910   0.6977733   0.6989015  )
        88           Cu  tau(  88) = (   0.0000083   0.6977733   0.6989015  )
        89           Ba  tau(  89) = (   0.1791506   0.1743714   0.8671591  )
        90           Ba  tau(  90) = (  -0.5374498   0.5239908   0.8827639  )
        91           Ba  tau(  91) = (   0.1791506   0.5222377   0.8827639  )
        92           Ba  tau(  92) = (  -0.1785616   0.1743714   0.8784262  )
        93           Ba  tau(  93) = (  -0.1797386   0.8718562   0.8784262  )
        94           Ba  tau(  94) = (  -0.1791506   0.5231143   0.8841483  )
        95           Ba  tau(  95) = (   0.5374498   0.5231143   0.8841483  )
        96           Ba  tau(  96) = (   0.1791506   0.8718562   0.8844635  )
        97           O   tau(  97) = (   0.3607888   0.6975991   0.9037874  )
        98           O   tau(  98) = (  -0.3558097   0.3486286   0.9037874  )
        99           O   tau(  99) = (  -0.0024896   0.6975991   0.9037874  )
       100           O   tau( 100) = (  -0.0024896   1.0461143   0.9037874  )
       101           O   tau( 101) = (   0.3544087   0.3463252   0.9043663  )
       102           O   tau( 102) = (   0.0038906   0.3463252   0.9043663  )
       103           O   tau( 103) = (   0.0038906   0.0024177   0.9043663  )
       104           O   tau( 104) = (  -0.3621908   0.6999025   0.9043663  )
       105           O   tau( 105) = (   0.3314246   0.8718562   1.0783672  )
       106           O   tau( 106) = (   0.0268747   0.8718562   1.0783672  )
       107           Cu  tau( 107) = (  -0.0027882   0.0031818   1.0782086  )
       108           Cu  tau( 108) = (  -0.0027882   0.3455601   1.0782086  )
       109           Cu  tau( 109) = (   0.3610875   0.3455601   1.0782086  )
       110           Cu  tau( 110) = (  -0.3555111   0.7006675   1.0782086  )
       111           Cu  tau( 111) = (   0.3579684   0.6983604   1.0781976  )
       112           Cu  tau( 112) = (   0.0003318   1.0453529   1.0781976  )
       113           Cu  tau( 113) = (  -0.3586320   0.3478672   1.0781976  )
       114           Cu  tau( 114) = (   0.0003318   0.6983604   1.0781976  )
       115           O   tau( 115) = (  -0.0055718   0.5218801   1.0778989  )
       116           O   tau( 116) = (   0.3638720   0.5218801   1.0778989  )
       117           O   tau( 117) = (  -0.0055718   1.2218333   1.0778989  )
       118           O   tau( 118) = (  -0.3527284   0.5243475   1.0778989  )
       119           O   tau( 119) = (  -0.3170374   0.8718562   1.0783192  )
       120           O   tau( 120) = (  -0.0412618   0.1743714   1.0783192  )
       121           O   tau( 121) = (   0.3544105   0.3465040   1.4824668  )
       122           O   tau( 122) = (   0.0038887   0.3465040   1.4824668  )
       123           O   tau( 123) = (   0.0038887   0.0022389   1.4824668  )
       124           O   tau( 124) = (  -0.3621880   0.6997236   1.4824668  )
       125           O   tau( 125) = (   0.3607981   0.6973991   1.4830282  )
       126           O   tau( 126) = (  -0.3558014   0.3488295   1.4830282  )
       127           O   tau( 127) = (  -0.0024988   0.6973991   1.4830282  )
       128           O   tau( 128) = (  -0.0024988   1.0463143   1.4830282  )
       129           Ba  tau( 129) = (   0.1791506   0.8718562   1.5023834  )
       130           Ba  tau( 130) = (   0.5374498   0.5231143   1.5027069  )
       131           Ba  tau( 131) = (  -0.1791506   0.5231143   1.5027069  )
       132           Ba  tau( 132) = (  -0.1796732   0.8718562   1.5084069  )
       133           Ba  tau( 133) = (  -0.1786270   0.1743714   1.5084069  )
       134           Ba  tau( 134) = (   0.1791506   0.5222571   1.5041347  )
       135           Ba  tau( 135) = (  -0.5374498   0.5239706   1.5041347  )
       136           Ba  tau( 136) = (   0.1791506   0.1743714   1.5196574  )
       137           Cu  tau( 137) = (  -0.3583094   0.3484682   1.6879538  )
       138           Cu  tau( 138) = (   0.3582901   0.6977604   1.6879538  )
       139           Cu  tau( 139) = (   0.0000101   0.6977604   1.6879538  )
       140           Cu  tau( 140) = (   0.0000101   1.0459530   1.6879538  )
       141           Cu  tau( 141) = (  -0.3586477   0.6973567   1.6893741  )
       142           Cu  tau( 142) = (   0.3579518   0.3488710   1.6893741  )
       143           Cu  tau( 143) = (   0.0003484  -0.0001281   1.6893741  )
       144           Cu  tau( 144) = (   0.0003484   0.3488710   1.6893741  )
       145           O   tau( 145) = (  -0.0043173   0.1743714   1.7156792  )
       146           O   tau( 146) = (  -0.3539819   0.8718562   1.7156792  )
       147           O   tau( 147) = (  -0.5374498   0.6927305   1.7111480  )
       148           O   tau( 148) = (   0.1791506   0.3534971   1.7111480  )
       149           O   tau( 149) = (   0.3585795   0.8718562   1.7225893  )
       150           O   tau( 150) = (  -0.0002802   0.8718562   1.7225893  )
       151           O   tau( 151) = (  -0.0003853   0.5233134   1.7200933  )
       152           O   tau( 152) = (   0.3586855   0.5233134   1.7200933  )
       153           O   tau( 153) = (  -0.3579140   0.5229152   1.7200933  )
       154           O   tau( 154) = (  -0.0003853   1.2204000   1.7200933  )
       155           O   tau( 155) = (   0.1791506   1.0464553   1.7149667  )
       156           O   tau( 156) = (   0.1791506   0.6972571   1.7149667  )
       157           O   tau( 157) = (  -0.1795146   0.6969069   1.7155953  )
       158           O   tau( 158) = (  -0.1787846   0.3493208   1.7155953  )
       159           O   tau( 159) = (  -0.1795146   1.0468065   1.7155953  )
       160           O   tau( 160) = (   0.5378139   0.6969069   1.7155953  )
       161           Ca  tau( 161) = (   0.1791506   0.1743714   1.8509576  )
       162           Y   tau( 162) = (  -0.1811544   0.8718562   1.8494266  )
       163           Y   tau( 163) = (  -0.1771449   0.1743714   1.8494266  )
       164           Y   tau( 164) = (   0.1791506   0.8718562   1.8488634  )
       165           Y   tau( 165) = (   0.5374498   0.5231143   1.8483943  )
       166           Y   tau( 166) = (  -0.1791506   0.5231143   1.8483943  )
       167           Y   tau( 167) = (   0.1791506   0.5216524   1.8485150  )
       168           Y   tau( 168) = (  -0.5374498   0.5245761   1.8485150  )
       169           O   tau( 169) = (  -0.1790685   0.3495088   1.9842294  )
       170           O   tau( 170) = (   0.5375300   0.6967198   1.9842294  )
       171           O   tau( 171) = (  -0.1792307   1.0469936   1.9842294  )
       172           O   tau( 172) = (  -0.1792307   0.6967198   1.9842294  )
       173           O   tau( 173) = (   0.1791506   0.6975604   1.9839326  )
       174           O   tau( 174) = (   0.1791506   1.0461521   1.9839326  )
       175           O   tau( 175) = (  -0.0004848   1.2206534   1.9801683  )
       176           O   tau( 176) = (  -0.0004848   0.5230599   1.9801683  )
       177           O   tau( 177) = (   0.3587841   0.5230599   1.9801683  )
       178           O   tau( 178) = (  -0.3578144   0.5231687   1.9801683  )
       179           O   tau( 179) = (   0.3586468   0.8718562   1.9821067  )
       180           O   tau( 180) = (  -0.0003466   0.8718562   1.9821067  )
       181           O   tau( 181) = (   0.1791506   0.3537690   1.9911294  )
       182           O   tau( 182) = (  -0.5374498   0.6924586   1.9911294  )
       183           O   tau( 183) = (  -0.0047874   0.1743714   1.9870941  )
       184           O   tau( 184) = (  -0.3535118   0.8718562   1.9870941  )
       185           Cu  tau( 185) = (  -0.3586560   0.6975087   2.0093003  )
       186           Cu  tau( 186) = (   0.3579435   0.3487198   2.0093003  )
       187           Cu  tau( 187) = (   0.0003567   0.0000230   2.0093003  )
       188           Cu  tau( 188) = (   0.0003567   0.3487198   2.0093003  )
       189           Cu  tau( 189) = (   0.0000415   1.0463263   2.0090680  )
       190           Cu  tau( 190) = (  -0.3583407   0.3488406   2.0090680  )
       191           Cu  tau( 191) = (   0.3582587   0.6973871   2.0090680  )
       192           Cu  tau( 192) = (   0.0000415   0.6973871   2.0090680  )
       193           Ba  tau( 193) = (   0.1791506   0.1743714   2.1875733  )
       194           Ba  tau( 194) = (  -0.5374498   0.5240166   2.1938825  )
       195           Ba  tau( 195) = (   0.1791506   0.5222119   2.1938825  )
       196           Ba  tau( 196) = (  -0.1789220   0.1743714   2.1936263  )
       197           Ba  tau( 197) = (  -0.1793773   0.8718562   2.1936263  )
       198           Ba  tau( 198) = (  -0.1791506   0.5231143   2.1948365  )
       199           Ba  tau( 199) = (   0.5374498   0.5231143   2.1948365  )
       200           Ba  tau( 200) = (   0.1791506   0.8718562   2.1959647  )
       201           O   tau( 201) = (   0.3584302   0.6967870   2.2042344  )
       202           O   tau( 202) = (  -0.3581684   0.3494406   2.2042344  )
       203           O   tau( 203) = (  -0.0001309   0.6967870   2.2042344  )
       204           O   tau( 204) = (  -0.0001309   1.0469263   2.2042344  )
       205           O   tau( 205) = (   0.3588800   0.3486562   2.2051073  )
       206           O   tau( 206) = (  -0.0005807   0.3486562   2.2051073  )
       207           O   tau( 207) = (  -0.0005807   0.0000866   2.2051073  )
       208           O   tau( 208) = (  -0.3577186   0.6975714   2.2051073  )
       209           O   tau( 209) = (   0.3545921   0.8718562   2.3945378  )
       210           O   tau( 210) = (   0.0037081   0.8718562   2.3945378  )
       211           Cu  tau( 211) = (  -0.0002516   0.0006074   2.3787339  )
       212           Cu  tau( 212) = (  -0.0002516   0.3481345   2.3787339  )
       213           Cu  tau( 213) = (   0.3585509   0.3481345   2.3787339  )
       214           Cu  tau( 214) = (  -0.3580476   0.6980931   2.3787339  )
       215           Cu  tau( 215) = (   0.3577960   0.6971373   2.3781873  )
       216           Cu  tau( 216) = (   0.0005033   1.0465760   2.3781873  )
       217           Cu  tau( 217) = (  -0.3588035   0.3490903   2.3781873  )
       218           Cu  tau( 218) = (   0.0005033   0.6971373   2.3781873  )
       219           O   tau( 219) = (  -0.0001724   0.5225410   2.3957766  )
       220           O   tau( 220) = (   0.3584716   0.5225410   2.3957766  )
       221           O   tau( 221) = (  -0.0001724   1.2211724   2.3957766  )
       222           O   tau( 222) = (  -0.3581288   0.5236867   2.3957766  )
       223           O   tau( 223) = (  -0.3544640   0.8718562   2.3973665  )
       224           O   tau( 224) = (  -0.0038353   0.1743714   2.3973665  )

     number of k points=     4  Gaussian smearing, width (Ry)=  0.0100
                       cart. coord. in units 2pi/alat
        k(    1) = (   0.0000000   0.0000000   0.0000000), wk =   0.2222222
        k(    2) = (   0.2325801   0.2389537   0.0000000), wk =   0.8888889
        k(    3) = (   0.0000000   0.4779073   0.0000000), wk =   0.4444444
        k(    4) = (  -0.4651601  -0.0000000   0.0000000), wk =   0.4444444

     Dense  grid: 11915489 G-vectors     FFT dimensions: ( 180, 180, 750)

     Smooth grid:  2293371 G-vectors     FFT dimensions: ( 108, 108, 432)

     Estimated max dynamical RAM per process >       2.49 GB

     Estimated total dynamical RAM >     199.06 GB

     Initial potential from superposition of free atoms

     starting charge 1828.78422, renormalised to 1830.00000

     negative rho (up, down):  6.300E-01 0.000E+00
     Starting wfcs are 1602 randomized atomic wfcs

     total cpu time spent up to now is       60.4 secs

     Self-consistent Calculation

     iteration #  1     ecut=    60.00 Ry     beta= 0.50
     Davidson diagonalization with overlap
     ethr =  1.00E-02,  avg # of iterations =  2.0

     negative rho (up, down):  5.990E-01 0.000E+00

     total cpu time spent up to now is      164.6 secs

     total energy              =  -14912.65144345 Ry
     Harris-Foulkes estimate   =  -14942.99140552 Ry
     estimated scf accuracy    <     109.91934215 Ry

     iteration #  2     ecut=    60.00 Ry     beta= 0.50
     Davidson diagonalization with overlap
     ethr =  6.01E-03,  avg # of iterations =  2.0

     negative rho (up, down):  5.991E-01 0.000E+00

     total cpu time spent up to now is      266.4 secs

     total energy              =  -14922.16979978 Ry
     Harris-Foulkes estimate   =  -14926.40530694 Ry
     estimated scf accuracy    <      22.71263626 Ry

     iteration #  3     ecut=    60.00 Ry     beta= 0.50
     Davidson diagonalization with overlap
     ethr =  1.24E-03,  avg # of iterations =  2.0

     negative rho (up, down):  6.018E-01 0.000E+00

     total cpu time spent up to now is      368.4 secs

     total energy              =  -14923.96027364 Ry
     Harris-Foulkes estimate   =  -14925.53194739 Ry
     estimated scf accuracy    <      39.21896626 Ry

     iteration #  4     ecut=    60.00 Ry     beta= 0.50
     Davidson diagonalization with overlap
     ethr =  1.24E-03,  avg # of iterations =  1.0

     negative rho (up, down):  6.050E-01 0.000E+00

     total cpu time spent up to now is      463.7 secs

     total energy              =  -14924.32361280 Ry
     Harris-Foulkes estimate   =  -14924.67032399 Ry
     estimated scf accuracy    <      12.31192835 Ry

     iteration #  5     ecut=    60.00 Ry     beta= 0.50
     Davidson diagonalization with overlap
     ethr =  6.73E-04,  avg # of iterations =  1.0

     negative rho (up, down):  6.152E-01 0.000E+00

     total cpu time spent up to now is      558.7 secs

     total energy              =  -14924.00036232 Ry
     Harris-Foulkes estimate   =  -14924.50226960 Ry
     estimated scf accuracy    <       5.50996306 Ry

     iteration #  6     ecut=    60.00 Ry     beta= 0.50
     Davidson diagonalization with overlap
     ethr =  3.01E-04,  avg # of iterations =  6.5

     negative rho (up, down):  6.190E-01 0.000E+00

     total cpu time spent up to now is      679.1 secs

     total energy              =  -14924.06086743 Ry
     Harris-Foulkes estimate   =  -14924.16756790 Ry
     estimated scf accuracy    <       3.26588924 Ry

     iteration #  7     ecut=    60.00 Ry     beta= 0.50
     Davidson diagonalization with overlap
     ethr =  1.78E-04,  avg # of iterations =  9.5

     negative rho (up, down):  6.266E-01 0.000E+00

     total cpu time spent up to now is      812.9 secs

     total energy              =  -14923.99734333 Ry
     Harris-Foulkes estimate   =  -14924.11062862 Ry
     estimated scf accuracy    <       1.77659124 Ry

     iteration #  8     ecut=    60.00 Ry     beta= 0.50
     Davidson diagonalization with overlap
     ethr =  9.71E-05,  avg # of iterations = 12.8

     negative rho (up, down):  6.298E-01 0.000E+00

     total cpu time spent up to now is      962.0 secs

     total energy              =  -14923.98428187 Ry
     Harris-Foulkes estimate   =  -14924.05805701 Ry
     estimated scf accuracy    <       2.51990635 Ry

     iteration #  9     ecut=    60.00 Ry     beta= 0.50
     Davidson diagonalization with overlap
     ethr =  9.71E-05,  avg # of iterations =  1.0

     negative rho (up, down):  6.315E-01 0.000E+00

     total cpu time spent up to now is     1056.4 secs

     total energy              =  -14923.98091883 Ry
     Harris-Foulkes estimate   =  -14924.02419068 Ry
     estimated scf accuracy    <       1.64911035 Ry

     iteration # 10     ecut=    60.00 Ry     beta= 0.50
     Davidson diagonalization with overlap
     ethr =  9.01E-05,  avg # of iterations =  1.0

     negative rho (up, down):  6.316E-01 0.000E+00

     total cpu time spent up to now is     1152.3 secs

     total energy              =  -14923.96338664 Ry
     Harris-Foulkes estimate   =  -14923.99493451 Ry
     estimated scf accuracy    <       0.96115755 Ry

     iteration # 11     ecut=    60.00 Ry     beta= 0.50
     Davidson diagonalization with overlap
     c_bands:  2 eigenvalues not converged
     ethr =  5.25E-05,  avg # of iterations =  6.2

     negative rho (up, down):  6.304E-01 0.000E+00

     total cpu time spent up to now is     1270.7 secs

     total energy              =  -14923.93980244 Ry
     Harris-Foulkes estimate   =  -14923.97268390 Ry
     estimated scf accuracy    <       0.59135050 Ry

     iteration # 12     ecut=    60.00 Ry     beta= 0.50
     Davidson diagonalization with overlap
     ethr =  3.23E-05,  avg # of iterations =  9.2

     negative rho (up, down):  6.285E-01 0.000E+00

     total cpu time spent up to now is     1405.8 secs

     total energy              =  -14923.93856402 Ry
     Harris-Foulkes estimate   =  -14923.94835718 Ry
     estimated scf accuracy    <       0.31127830 Ry

     iteration # 13     ecut=    60.00 Ry     beta= 0.50
     Davidson diagonalization with overlap
     ethr =  1.70E-05,  avg # of iterations =  4.8

     negative rho (up, down):  6.274E-01 0.000E+00

     total cpu time spent up to now is     1515.6 secs

     total energy              =  -14923.93633073 Ry
     Harris-Foulkes estimate   =  -14923.94080751 Ry
     estimated scf accuracy    <       0.32659022 Ry

     iteration # 14     ecut=    60.00 Ry     beta= 0.50
     Davidson diagonalization with overlap
     ethr =  1.70E-05,  avg # of iterations =  1.0

     negative rho (up, down):  6.258E-01 0.000E+00

     total cpu time spent up to now is     1610.4 secs

     total energy              =  -14923.92731050 Ry
     Harris-Foulkes estimate   =  -14923.93809791 Ry
     estimated scf accuracy    <       0.41666194 Ry

     iteration # 15     ecut=    60.00 Ry     beta= 0.50
     Davidson diagonalization with overlap
     ethr =  1.70E-05,  avg # of iterations = 10.5

     negative rho (up, down):  6.251E-01 0.000E+00

     total cpu time spent up to now is     1744.0 secs

     total energy              =  -14923.92768808 Ry
     Harris-Foulkes estimate   =  -14923.92920269 Ry
     estimated scf accuracy    <       0.37767236 Ry

     iteration # 16     ecut=    60.00 Ry     beta= 0.50
     Davidson diagonalization with overlap
     ethr =  1.70E-05,  avg # of iterations =  2.2

     negative rho (up, down):  6.256E-01 0.000E+00

     total cpu time spent up to now is     1844.6 secs

     total energy              =  -14923.91722757 Ry
     Harris-Foulkes estimate   =  -14923.93083143 Ry
     estimated scf accuracy    <       0.39868151 Ry

     iteration # 17     ecut=    60.00 Ry     beta= 0.50
     Davidson diagonalization with overlap
     ethr =  1.70E-05,  avg # of iterations =  5.0

     negative rho (up, down):  7.346E-01 0.000E+00

     total cpu time spent up to now is     1957.1 secs

     total energy              =  -14923.90390341 Ry
     Harris-Foulkes estimate   =  -14923.92018637 Ry
     estimated scf accuracy    <       0.35318217 Ry

     iteration # 18     ecut=    60.00 Ry     beta= 0.50
     Davidson diagonalization with overlap
     ethr =  1.70E-05,  avg # of iterations = 11.0

     negative rho (up, down):  7.497E-01 0.000E+00

     total cpu time spent up to now is     2105.0 secs

     total energy              =  -14923.90278559 Ry
     Harris-Foulkes estimate   =  -14923.90708302 Ry
     estimated scf accuracy    <       0.10784522 Ry

     iteration # 19     ecut=    60.00 Ry     beta= 0.50
     Davidson diagonalization with overlap
     ethr =  5.89E-06,  avg # of iterations = 11.0

     negative rho (up, down):  7.344E-01 0.000E+00

     total cpu time spent up to now is     2243.6 secs

     total energy              =  -14923.89952107 Ry
     Harris-Foulkes estimate   =  -14923.90338329 Ry
     estimated scf accuracy    <       0.08270020 Ry

     iteration # 20     ecut=    60.00 Ry     beta= 0.50
     Davidson diagonalization with overlap
     ethr =  4.52E-06,  avg # of iterations = 13.0

     negative rho (up, down):  7.256E-01 0.000E+00

     total cpu time spent up to now is     2388.8 secs

     total energy              =  -14923.89697079 Ry
     Harris-Foulkes estimate   =  -14923.90009924 Ry
     estimated scf accuracy    <       0.04066077 Ry

     iteration # 21     ecut=    60.00 Ry     beta= 0.50
     Davidson diagonalization with overlap
     ethr =  2.22E-06,  avg # of iterations = 13.0

     negative rho (up, down):  6.907E-01 0.000E+00

     total cpu time spent up to now is     2551.6 secs

     total energy              =  -14923.89608683 Ry
     Harris-Foulkes estimate   =  -14923.89749146 Ry
     estimated scf accuracy    <       0.02268958 Ry

     iteration # 22     ecut=    60.00 Ry     beta= 0.50
     Davidson diagonalization with overlap
     ethr =  1.24E-06,  avg # of iterations =  6.2

     negative rho (up, down):  6.419E-01 0.000E+00

     total cpu time spent up to now is     2677.5 secs

     total energy              =  -14923.89557708 Ry
     Harris-Foulkes estimate   =  -14923.89638620 Ry
     estimated scf accuracy    <       0.00574723 Ry

     iteration # 23     ecut=    60.00 Ry     beta= 0.50
     Davidson diagonalization with overlap
     c_bands:  1 eigenvalues not converged
     c_bands:  3 eigenvalues not converged
     c_bands:  1 eigenvalues not converged
     ethr =  3.14E-07,  avg # of iterations = 19.5

     negative rho (up, down):  6.415E-01 0.000E+00

     total cpu time spent up to now is     2870.6 secs

     total energy              =  -14923.89566928 Ry
     Harris-Foulkes estimate   =  -14923.89578959 Ry
     estimated scf accuracy    <       0.00418509 Ry

     iteration # 24     ecut=    60.00 Ry     beta= 0.50
     Davidson diagonalization with overlap
     ethr =  2.29E-07,  avg # of iterations =  9.8

     negative rho (up, down):  6.309E-01 0.000E+00

     total cpu time spent up to now is     3006.5 secs

     total energy              =  -14923.89586690 Ry
     Harris-Foulkes estimate   =  -14923.89582404 Ry
     estimated scf accuracy    <       0.00169118 Ry

     iteration # 25     ecut=    60.00 Ry     beta= 0.50
     Davidson diagonalization with overlap
     c_bands:  1 eigenvalues not converged
     ethr =  9.24E-08,  avg # of iterations = 15.2

     negative rho (up, down):  6.302E-01 0.000E+00

     total cpu time spent up to now is     3169.5 secs

     total energy              =  -14923.89612744 Ry
     Harris-Foulkes estimate   =  -14923.89596494 Ry
     estimated scf accuracy    <       0.00150389 Ry

     iteration # 26     ecut=    60.00 Ry     beta= 0.50
     Davidson diagonalization with overlap
     c_bands:  1 eigenvalues not converged
     c_bands:  1 eigenvalues not converged
     ethr =  8.22E-08,  avg # of iterations = 16.0

     negative rho (up, down):  6.316E-01 0.000E+00

     total cpu time spent up to now is     3329.7 secs

     total energy              =  -14923.89619515 Ry
     Harris-Foulkes estimate   =  -14923.89616824 Ry
     estimated scf accuracy    <       0.00021589 Ry

     iteration # 27     ecut=    60.00 Ry     beta= 0.50
     Davidson diagonalization with overlap
     ethr =  1.18E-08,  avg # of iterations =  6.8

     negative rho (up, down):  6.324E-01 0.000E+00

     total cpu time spent up to now is     3447.7 secs

     total energy              =  -14923.89622947 Ry
     Harris-Foulkes estimate   =  -14923.89621053 Ry
     estimated scf accuracy    <       0.00013271 Ry

     iteration # 28     ecut=    60.00 Ry     beta= 0.50
     Davidson diagonalization with overlap
     ethr =  7.25E-09,  avg # of iterations =  1.2

     negative rho (up, down):  6.323E-01 0.000E+00

     total cpu time spent up to now is     3546.3 secs

     total energy              =  -14923.89622208 Ry
     Harris-Foulkes estimate   =  -14923.89623447 Ry
     estimated scf accuracy    <       0.00012360 Ry

     iteration # 29     ecut=    60.00 Ry     beta= 0.50
     Davidson diagonalization with overlap
     ethr =  6.75E-09,  avg # of iterations =  1.0

     negative rho (up, down):  6.328E-01 0.000E+00

     total cpu time spent up to now is     3643.7 secs

     total energy              =  -14923.89623226 Ry
     Harris-Foulkes estimate   =  -14923.89622462 Ry
     estimated scf accuracy    <       0.00004498 Ry

     iteration # 30     ecut=    60.00 Ry     beta= 0.50
     Davidson diagonalization with overlap
     ethr =  2.46E-09,  avg # of iterations =  1.8

     negative rho (up, down):  6.336E-01 0.000E+00

     total cpu time spent up to now is     3743.9 secs

     total energy              =  -14923.89623715 Ry
     Harris-Foulkes estimate   =  -14923.89623377 Ry
     estimated scf accuracy    <       0.00002834 Ry

     iteration # 31     ecut=    60.00 Ry     beta= 0.50
     Davidson diagonalization with overlap
     ethr =  1.55E-09,  avg # of iterations =  2.5

     negative rho (up, down):  6.339E-01 0.000E+00

     total cpu time spent up to now is     3846.3 secs

     total energy              =  -14923.89623718 Ry
     Harris-Foulkes estimate   =  -14923.89623828 Ry
     estimated scf accuracy    <       0.00000746 Ry

     iteration # 32     ecut=    60.00 Ry     beta= 0.50
     Davidson diagonalization with overlap
     ethr =  4.08E-10,  avg # of iterations =  2.8

     negative rho (up, down):  6.343E-01 0.000E+00

     total cpu time spent up to now is     3950.9 secs

     total energy              =  -14923.89623595 Ry
     Harris-Foulkes estimate   =  -14923.89623761 Ry
     estimated scf accuracy    <       0.00000494 Ry

     iteration # 33     ecut=    60.00 Ry     beta= 0.50
     Davidson diagonalization with overlap
     ethr =  2.70E-10,  avg # of iterations =  1.0

     negative rho (up, down):  6.345E-01 0.000E+00

     total cpu time spent up to now is     4047.3 secs

     total energy              =  -14923.89623594 Ry
     Harris-Foulkes estimate   =  -14923.89623614 Ry
     estimated scf accuracy    <       0.00000189 Ry

     iteration # 34     ecut=    60.00 Ry     beta= 0.50
     Davidson diagonalization with overlap
     ethr =  1.03E-10,  avg # of iterations =  1.2

     negative rho (up, down):  6.347E-01 0.000E+00

     total cpu time spent up to now is     4145.2 secs

     total energy              =  -14923.89623584 Ry
     Harris-Foulkes estimate   =  -14923.89623599 Ry
     estimated scf accuracy    <       0.00000083 Ry

     iteration # 35     ecut=    60.00 Ry     beta= 0.50
     Davidson diagonalization with overlap
     ethr =  4.52E-11,  avg # of iterations =  2.2

     negative rho (up, down):  6.348E-01 0.000E+00

     total cpu time spent up to now is     4247.0 secs

     total energy              =  -14923.89623563 Ry
     Harris-Foulkes estimate   =  -14923.89623587 Ry
     estimated scf accuracy    <       0.00000052 Ry

     iteration # 36     ecut=    60.00 Ry     beta= 0.50
     Davidson diagonalization with overlap
     ethr =  2.83E-11,  avg # of iterations =  2.0

     negative rho (up, down):  6.348E-01 0.000E+00

     total cpu time spent up to now is     4348.2 secs

     total energy              =  -14923.89623565 Ry
     Harris-Foulkes estimate   =  -14923.89623566 Ry
     estimated scf accuracy    <       0.00000038 Ry

     iteration # 37     ecut=    60.00 Ry     beta= 0.50
     Davidson diagonalization with overlap
     ethr =  2.07E-11,  avg # of iterations =  1.0

     negative rho (up, down):  6.349E-01 0.000E+00

     total cpu time spent up to now is     4444.3 secs

     total energy              =  -14923.89623559 Ry
     Harris-Foulkes estimate   =  -14923.89623565 Ry
     estimated scf accuracy    <       0.00000016 Ry

     iteration # 38     ecut=    60.00 Ry     beta= 0.50
     Davidson diagonalization with overlap
     ethr =  8.72E-12,  avg # of iterations =  2.2

     negative rho (up, down):  6.349E-01 0.000E+00

     total cpu time spent up to now is     4545.5 secs

     total energy              =  -14923.89623560 Ry
     Harris-Foulkes estimate   =  -14923.89623559 Ry
     estimated scf accuracy    <       0.00000005 Ry

     iteration # 39     ecut=    60.00 Ry     beta= 0.50
     Davidson diagonalization with overlap
     ethr =  2.58E-12,  avg # of iterations =  2.0

     negative rho (up, down):  6.348E-01 0.000E+00

     total cpu time spent up to now is     4649.1 secs

     total energy              =  -14923.89623564 Ry
     Harris-Foulkes estimate   =  -14923.89623560 Ry
     estimated scf accuracy    <       0.00000002 Ry

     iteration # 40     ecut=    60.00 Ry     beta= 0.50
     Davidson diagonalization with overlap
     ethr =  1.30E-12,  avg # of iterations =  1.0

     negative rho (up, down):  6.348E-01 0.000E+00

     total cpu time spent up to now is     4744.8 secs

     total energy              =  -14923.89623567 Ry
     Harris-Foulkes estimate   =  -14923.89623564 Ry
     estimated scf accuracy    <       0.00000003 Ry

     iteration # 41     ecut=    60.00 Ry     beta= 0.50
     Davidson diagonalization with overlap
     ethr =  1.30E-12,  avg # of iterations =  1.0

     negative rho (up, down):  6.348E-01 0.000E+00

     total cpu time spent up to now is     4841.7 secs

     total energy              =  -14923.89623567 Ry
     Harris-Foulkes estimate   =  -14923.89623567 Ry
     estimated scf accuracy    <       0.00000001 Ry

     iteration # 42     ecut=    60.00 Ry     beta= 0.50
     Davidson diagonalization with overlap
     ethr =  6.08E-13,  avg # of iterations =  1.0

     negative rho (up, down):  6.348E-01 0.000E+00

     total cpu time spent up to now is     4934.4 secs

     End of self-consistent calculation

          k = 0.0000 0.0000 0.0000 (286677 PWs)   bands (ev):

   -38.3134 -38.2868 -38.2842 -38.2786 -38.2777 -38.2646 -38.2596 -38.2365
   -38.1998 -38.1971 -38.1869 -38.1849 -38.1775 -38.1718 -35.8543 -35.7613
   -22.9114 -22.8975 -22.8381 -22.8077 -22.8007 -22.7864 -22.7861 -22.7816
   -22.7748 -22.7715 -22.7685 -22.7662 -22.7653 -22.7532 -22.7520 -22.7518
   -22.7483 -22.7344 -22.7103 -22.7052 -22.6741 -22.6624 -22.6496 -22.6484
   -22.6448 -22.6284 -22.5988 -22.5750 -22.5603 -22.5370 -22.4437 -22.2425
   -18.8962 -18.8588 -18.8129 -18.8093 -18.8075 -18.7819 -18.7741 -18.7306
   -18.7279 -18.7032 -18.6275 -18.6139 -18.6138 -18.6027 -18.5999 -18.5942
   -18.5924 -18.5839 -18.5824 -18.5778 -18.5657 -18.5386 -18.5328 -18.5252
   -18.5197 -18.5156 -18.5124 -18.5117 -18.4993 -18.4970 -18.4891 -18.4847
   -18.4139 -18.4086 -18.3850 -18.3323 -18.3204 -18.3039 -18.2893 -18.2811
   -18.1996 -18.1918 -17.1120 -17.0850 -17.0778 -17.0216 -16.9905 -16.9876
   -15.6351 -15.5748 -15.0566 -15.0167 -14.9817 -14.9512 -14.9401 -14.9323
   -14.9302 -14.9273 -14.8999 -14.8883 -14.8849 -14.8841 -14.8591 -14.8269
   -14.8025 -14.7639 -14.7559 -14.7554 -14.7492 -14.7490 -14.7261 -14.7205
   -14.6942 -14.6939 -14.6859 -14.6811 -14.6753 -14.6747 -14.6589 -14.6396
   -14.6375 -14.6289 -14.6094 -14.5943 -14.5804 -14.5241 -14.5234 -14.5100
   -14.5072 -14.5065 -14.5032 -14.4884 -14.4866 -14.4536 -14.4376 -14.4349
   -14.4286 -14.4270 -14.4245 -14.4124 -14.4116 -14.4114 -14.4067 -14.3938
   -14.3931 -14.3766 -14.3758 -14.3757 -14.3617 -14.3583 -14.3574 -14.3503
   -14.3423 -14.3417 -14.3068 -14.2892 -14.2729 -14.2676 -14.2631 -14.2200
   -14.2170 -14.2138 -14.2022 -14.1979 -14.1970 -14.1934 -14.1892 -14.1784
   -14.1417 -14.1397 -14.1341 -14.1269 -14.1245 -14.1222 -14.0579 -14.0423
   -13.9376 -13.9313 -13.9291 -13.9222 -13.9123 -13.8969 -13.8955 -13.8941
   -13.8929 -13.8868 -13.8789 -13.8770 -13.8765 -13.8745 -13.8376 -13.8305
   -13.8246 -13.8176 -13.8047 -13.7903 -13.7178 -13.7050 -13.7039 -13.6927
   -12.8679 -12.8446 -12.6518 -12.6514 -12.6472 -12.6440 -12.4921 -12.3816
    -8.8698  -8.8566  -8.7023  -8.5828  -8.5691  -8.4905  -8.4177  -8.3626
    -8.3599  -8.3561  -8.3465  -8.3440  -8.3427  -8.3324  -8.3307  -8.3192
    -8.2147  -8.1992  -8.1968  -8.1763  -8.1755  -8.1594  -8.1524  -8.1471
    -8.1331  -8.1318  -8.1155  -8.1137  -8.1083  -8.1075  -8.0984  -8.0942
    -8.0837  -8.0791  -8.0755  -8.0693  -8.0650  -8.0633  -8.0610  -8.0595
    -8.0519  -8.0389  -8.0336  -8.0245  -8.0146  -8.0091  -8.0051  -7.9981
    -7.9975  -7.9863  -7.9854  -7.9812  -7.9789  -7.9724  -7.9091  -7.8956
    -7.8909  -7.8793  -7.8695  -7.8682  -7.8550  -7.7645  -7.7550  -7.7547
    -7.7543  -7.7416  -7.7407  -7.7331  -7.7275  -7.7196  -7.7187  -7.7172
    -7.7143  -7.7056  -7.6805  -7.6724  -7.6648  -7.6253  -7.6192  -7.6058
    -7.6036  -7.6011  -7.6004  -7.5867  -7.5847  -7.5778  -7.5637  -7.5240
    -7.4621  -7.4408  -7.4157  -7.4137  -7.4119  -7.3839  -7.2274  -7.2231
    -4.3859  -4.3147  -3.8447  -3.7502  -3.3513  -3.3247  -3.2462  -3.2388
    -3.2381  -3.1789  -3.1752  -3.1733  -3.1716  -3.1708  -3.1338  -3.1082
    -3.1027  -3.0709  -3.0052  -2.9985  -2.9876  -2.9298  -2.9275  -2.9100
    -2.8905  -2.8805  -2.8697  -2.8640  -2.8627  -2.8273  -2.7845  -2.7758
    -2.7698  -2.7605  -2.6797  -2.6238  -2.5825  -2.5801  -2.5007  -2.4159
    -2.3539  -2.3486  -2.3359  -2.3298  -2.3289  -2.3273  -2.3221  -2.3183
    -2.3155  -2.3148  -2.3022  -2.3004  -2.2243  -2.2226  -2.2210  -2.2183
    -2.2143  -2.2091  -2.1542  -2.1526  -2.1482  -2.1443  -2.1434  -2.1397
    -2.1362  -2.1340  -2.1322  -2.1297  -2.1261  -2.1244  -2.1139  -2.1133
    -2.0782  -2.0570  -2.0485  -2.0457  -2.0322  -2.0301  -2.0299  -2.0215
    -2.0159  -1.9981  -1.9976  -1.9763  -1.9534  -1.9419  -1.9385  -1.9381
    -1.9333  -1.9291  -1.9259  -1.9248  -1.9206  -1.9193  -1.9180  -1.9055
    -1.8715  -1.8531  -1.8514  -1.8418  -1.8355  -1.7951  -1.7937  -1.7632
    -1.7574  -1.7508  -1.7455  -1.7327  -1.7313  -1.7305  -1.7050  -1.6858
    -1.6835  -1.6739  -1.6483  -1.6460  -1.6259  -1.6184  -1.6171  -1.5914
    -1.5857  -1.5714  -1.5647  -1.5614  -1.5567  -1.5557  -1.5386  -1.5360
    -1.5268  -1.5209  -1.5168  -1.5084  -1.5063  -1.4852  -1.4721  -1.4720
    -1.4263  -1.4104  -1.4019  -1.3953  -1.3773  -1.3486  -1.3479  -1.2789
    -1.2624  -1.2287  -1.2274  -1.2065  -1.2020  -1.1546  -1.1419  -1.1367
    -1.1357  -1.0905  -1.0702  -1.0649  -1.0527  -1.0386  -1.0372  -1.0336
    -1.0205  -1.0179  -1.0153  -1.0115  -1.0108  -0.9982  -0.9919  -0.9857
    -0.9834  -0.9737  -0.9509  -0.9424  -0.9353  -0.9343  -0.9132  -0.9056
    -0.8989  -0.8949  -0.8806  -0.8706  -0.8633  -0.8486  -0.8419  -0.8366
    -0.8357  -0.8263  -0.8099  -0.8037  -0.8018  -0.7934  -0.7883  -0.7834
    -0.7811  -0.7667  -0.7583  -0.7377  -0.7054  -0.7037  -0.6895  -0.6882
    -0.6710  -0.6519  -0.6333  -0.6194  -0.6139  -0.5925  -0.5744  -0.5712
    -0.5569  -0.5426  -0.5405  -0.5383  -0.5201  -0.5137  -0.5121  -0.5109
    -0.5036  -0.4488  -0.4360  -0.4218  -0.4208  -0.4033  -0.3990  -0.3938
    -0.3895  -0.3676  -0.3605  -0.3438  -0.3398  -0.3397  -0.3376  -0.3354
    -0.3259  -0.3213  -0.3169  -0.3125  -0.3056  -0.3005  -0.2981  -0.2909
    -0.2905  -0.2881  -0.2785  -0.2719  -0.2639  -0.2602  -0.2595  -0.2560
    -0.2496  -0.2363  -0.2360  -0.2315  -0.2313  -0.2132  -0.2131  -0.2107
    -0.2090  -0.2058  -0.1899  -0.1867  -0.1846  -0.1611  -0.1223  -0.1211
    -0.1196  -0.1134  -0.1090  -0.1086  -0.0658  -0.0543  -0.0520  -0.0388
    -0.0208   0.0057   0.0080   0.0297   0.0310   0.0350   0.0402   0.0415
     0.0713   0.0882   0.0967   0.1029   0.1029   0.1167   0.1170   0.1716
     0.1724   0.1792   0.1848   0.1897   0.1977   0.2010   0.2087   0.2177
     0.2642   0.2642   0.2782   0.2835   0.2848   0.2996   0.3066   0.3150
     0.3169   0.3282   0.3336   0.3344   0.3360   0.3440   0.3470   0.3535
     0.3545   0.3578   0.3588   0.3639   0.3658   0.3669   0.3741   0.3776
     0.3848   0.3928   0.4020   0.4093   0.4137   0.4137   0.4221   0.4291
     0.4418   0.4483   0.4509   0.4565   0.4725   0.4745   0.4858   0.4885
     0.4929   0.4992   0.5094   0.5212   0.5241   0.5349   0.5474   0.5555
     0.5602   0.5643   0.5768   0.5776   0.5785   0.5796   0.5811   0.5902
     0.5912   0.5924   0.5939   0.6000   0.6011   0.6194   0.6244   0.6283
     0.6447   0.6490   0.6524   0.6564   0.6632   0.6641   0.6740   0.6863
     0.6983   0.7072   0.7270   0.7447   0.7451   0.7560   0.7593   0.7662
     0.8019   0.9091   0.9445   0.9503   0.9559   0.9593   0.9605   0.9950
     1.0000   1.0245   1.0274   1.0338   1.0540   1.0546   1.0625   1.0631
     1.0663   1.0720   1.0743   1.0806   1.0819   1.0829   1.0870   1.0882
     1.1046   1.1047   1.1073   1.1167   1.1290   1.1330   1.1341   1.1419
     1.1443   1.1477   1.1613   1.1663   1.1677   1.1684   1.1745   1.1808
     1.1848   1.1943   1.1969   1.1970   1.1972   1.1994   1.1997   1.2033
     1.2052   1.2085   1.2109   1.2112   1.2198   1.2200   1.2208   1.2318
     1.2334   1.2377   1.2450   1.2525   1.2588   1.2670   1.2689   1.2695
     1.2718   1.2738   1.2835   1.2867   1.2907   1.2921   1.2987   1.3009
     1.3018   1.3038   1.3210   1.3220   1.3257   1.3268   1.3289   1.3313
     1.3325   1.3368   1.3386   1.3387   1.3436   1.3491   1.3494   1.3565
     1.3594   1.3595   1.3712   1.3716   1.3788   1.3852   1.3902   1.3913
     1.4035   1.4065   1.4116   1.4128   1.4190   1.4309   1.4338   1.4437
     1.4762   1.4777   1.4856   1.5042   1.5119   1.5410   1.6128   1.6166
     1.6170   1.6191   1.6257   1.6319   1.6362   1.6364   1.6381   1.6403
     1.6417   1.6548   1.6693   1.6770   1.6917   1.6995   1.7021   1.7069
     1.7108   1.7118   1.7152   1.7185   1.7234   1.7298   1.7467   1.7505
     1.7515   1.7638   1.7642   1.7780   1.7825   1.7846   1.7884   1.7901
     1.7969   1.8051   1.8090   1.8160   1.8187   1.8257   1.8330   1.8352
     1.8402   1.8405   1.8462   1.8673   1.8691   1.8698   1.8783   1.8795
     1.8831   1.8922   1.8936   1.8959   1.9008   1.9028   1.9028   1.9035
     1.9506   1.9589   1.9620   1.9804   1.9831   1.9834   1.9873   1.9927
     1.9961   1.9973   1.9973   2.0059   2.0168   2.0178   2.0252   2.0609
     2.0834   2.0839   2.0993   2.1404   2.1556   2.1989   2.2115   2.3269
     2.3384   2.3532   2.3605   2.3748   2.3762   2.3971   2.4059   2.4509
     2.4603   2.4879   2.4905   2.4974   2.5075   2.5145   2.5297   2.5392
     2.5456   2.5459   2.5558   2.5852   2.5901   2.5975   2.5977   2.6264
     2.6476   2.6534   2.6537   2.6549   2.6671   2.6845   2.7807   2.7839
     2.7902   2.7923   2.8687   2.8787   2.8798   2.9476   2.9646   2.9853
     3.0306   3.0406   3.0450   3.0743   3.0995   3.1067   3.1076   3.1145
     3.1149   3.1203   3.1273   3.1450   3.1565   3.1820   3.1921   3.1982
     3.2030   3.2234   3.2350   3.2416   3.3267   3.3673   3.3718   3.3765
     3.3857   3.4193   3.4283   3.4294   4.5829   4.6317   4.6838   4.7046
     4.9162   5.1460   5.1705   5.6896   5.7036   5.7287   5.7840   5.8250
     6.1257   6.3232   6.3553   6.3807   6.3871   6.5010   6.5163   6.5380
     6.5415   6.5419   6.5442   6.5467   6.5589   6.5597   6.5620   6.5645
     6.6145   6.8039   6.9177   6.9218   6.9375   6.9810   6.9874   6.9901
     6.9907   7.0251   7.0560   7.0948   7.1839   7.2081   7.2391   7.2762
     7.2921   7.3729   7.3833   7.4254   7.4260   7.4489   7.4974   7.5298
     7.5454   7.5614   7.5825   7.6242   7.6341   7.7206   7.7524   7.7694
     7.7896   7.8059   7.8072   7.8110   7.8567   7.8706   7.8880   7.9194
     7.9198   7.9981   8.0044   8.0081   8.0693   8.1917   8.1933   8.1975
     8.2089   8.2099   8.2133   8.2149   8.2256   8.2423   8.2572   8.3725
     8.3804   8.4380   8.4459   8.4603   8.4644   8.4786   8.5010   8.5095
     8.5228   8.5317   8.5716   8.5887   8.5982   8.6124   8.6185   8.6327
     8.6371   8.6506   8.6686   8.6827   8.6910   8.7101   8.7106   8.7145
     8.7285   8.7372   8.7375   8.7454   8.7777   8.7927   8.8080   8.8419
     8.8589   8.8717   8.8723   8.8951   8.9191   8.9198   8.9371   8.9406
     8.9482   8.9491   8.9805   8.9849   8.9972   9.0022   9.0042   9.0221
     9.0342   9.0420   9.0429   9.0558   9.0752   9.0852   9.0939   9.1000
     9.1021   9.1027   9.1178   9.1221   9.1542   9.1820   9.1870   9.2077
     9.2109   9.3174

          k = 0.2326 0.2390 0.0000 (286675 PWs)   bands (ev):

   -38.3134 -38.2863 -38.2848 -38.2786 -38.2780 -38.2632 -38.2607 -38.2365
   -38.1992 -38.1978 -38.1866 -38.1857 -38.1757 -38.1729 -35.8543 -35.7613
   -22.8932 -22.8793 -22.8450 -22.8341 -22.8310 -22.7979 -22.7904 -22.7862
   -22.7760 -22.7737 -22.7725 -22.7616 -22.7612 -22.7525 -22.7474 -22.7386
   -22.7358 -22.7170 -22.7031 -22.6990 -22.6766 -22.6647 -22.6627 -22.6531
   -22.6414 -22.6301 -22.5932 -22.5789 -22.5564 -22.5351 -22.4459 -22.2426
   -18.8616 -18.8274 -18.8104 -18.7835 -18.7799 -18.7747 -18.7584 -18.7433
   -18.7261 -18.7254 -18.7068 -18.7003 -18.6921 -18.6712 -18.6398 -18.6156
   -18.6127 -18.6042 -18.5905 -18.5857 -18.5719 -18.5297 -18.5226 -18.5035
   -18.5031 -18.4942 -18.4908 -18.4624 -18.4453 -18.4131 -18.4100 -18.4074
   -18.3998 -18.3745 -18.3569 -18.3350 -18.3285 -18.3281 -18.3261 -18.3120
   -18.2459 -18.2394 -17.1122 -17.0868 -17.0793 -17.0218 -16.9925 -16.9890
   -15.5345 -15.4744 -15.2647 -15.2041 -15.0056 -14.9704 -14.9480 -14.9334
   -14.9245 -14.9097 -14.8935 -14.8877 -14.8777 -14.8587 -14.8188 -14.8102
   -14.8018 -14.7755 -14.7516 -14.7405 -14.7347 -14.7333 -14.7158 -14.7052
   -14.7043 -14.6835 -14.6821 -14.6697 -14.6531 -14.6333 -14.6308 -14.6260
   -14.6182 -14.6014 -14.6000 -14.5986 -14.5797 -14.5638 -14.5433 -14.5240
   -14.5130 -14.5067 -14.5026 -14.4984 -14.4829 -14.4662 -14.4575 -14.4543
   -14.4443 -14.4406 -14.4387 -14.4243 -14.4071 -14.3997 -14.3955 -14.3817
   -14.3757 -14.3573 -14.3438 -14.3422 -14.3311 -14.3296 -14.3242 -14.3197
   -14.3068 -14.2994 -14.2836 -14.2800 -14.2760 -14.2644 -14.2624 -14.2440
   -14.2349 -14.2340 -14.2188 -14.2071 -14.2038 -14.1934 -14.1891 -14.1825
   -14.1737 -14.1727 -14.1642 -14.1589 -14.1475 -14.1283 -14.0817 -14.0733
   -13.9431 -13.9353 -13.9266 -13.9215 -13.9183 -13.9178 -13.9029 -13.9023
   -13.8961 -13.8856 -13.8786 -13.8592 -13.8570 -13.8483 -13.8385 -13.8376
   -13.8293 -13.8288 -13.8097 -13.7806 -13.7237 -13.7078 -13.6969 -13.6942
   -12.8209 -12.8005 -12.7083 -12.6922 -12.6302 -12.5707 -12.5395 -12.4425
    -8.7626  -8.7494  -8.5988  -8.5664  -8.5531  -8.4632  -8.4495  -8.4084
    -8.4044  -8.3039  -8.2548  -8.2416  -8.2348  -8.2146  -8.2122  -8.1992
    -8.1854  -8.1576  -8.1526  -8.1512  -8.1496  -8.1411  -8.1367  -8.1330
    -8.1241  -8.1098  -8.1053  -8.1036  -8.0996  -8.0982  -8.0892  -8.0858
    -8.0840  -8.0837  -8.0734  -8.0698  -8.0689  -8.0569  -8.0551  -8.0513
    -8.0510  -8.0435  -8.0405  -8.0364  -8.0349  -8.0257  -8.0222  -8.0120
    -8.0007  -7.9944  -7.9942  -7.9738  -7.9643  -7.9540  -7.9486  -7.9429
    -7.9352  -7.9327  -7.8719  -7.8625  -7.8566  -7.8370  -7.8348  -7.8236
    -7.8157  -7.7969  -7.7934  -7.7835  -7.7555  -7.7485  -7.7349  -7.7136
    -7.7111  -7.6977  -7.6870  -7.6841  -7.6735  -7.6693  -7.6642  -7.6582
    -7.6558  -7.6488  -7.6448  -7.6315  -7.6193  -7.5895  -7.5490  -7.5388
    -7.5213  -7.5085  -7.4720  -7.4632  -7.4216  -7.4004  -7.2452  -7.2296
    -4.2250  -4.1543  -3.7899  -3.7199  -3.6991  -3.6042  -3.3339  -3.3189
    -3.2988  -3.2876  -3.2362  -3.2225  -3.1638  -3.1323  -3.1271  -3.1065
    -3.0859  -3.0307  -3.0061  -2.9651  -2.9152  -2.8926  -2.8825  -2.8757
    -2.8595  -2.8248  -2.8201  -2.8074  -2.7842  -2.7309  -2.6814  -2.6275
    -2.5707  -2.5677  -2.5546  -2.5507  -2.5486  -2.5325  -2.5301  -2.5176
    -2.5107  -2.5046  -2.4766  -2.4568  -2.4497  -2.4479  -2.4340  -2.3914
    -2.3903  -2.3281  -2.3076  -2.2857  -2.2844  -2.2786  -2.2579  -2.2412
    -2.2335  -2.2185  -2.2045  -2.1903  -2.1853  -2.1763  -2.1756  -2.1659
    -2.1578  -2.1497  -2.1494  -2.1358  -2.1268  -2.1174  -2.1162  -2.1088
    -2.0936  -2.0589  -2.0422  -2.0362  -2.0303  -2.0295  -2.0273  -2.0273
    -2.0241  -2.0203  -2.0174  -2.0082  -2.0080  -2.0027  -1.9875  -1.9823
    -1.9718  -1.9413  -1.9225  -1.9116  -1.8941  -1.8830  -1.8651  -1.8551
    -1.8434  -1.8277  -1.8097  -1.8086  -1.8020  -1.7931  -1.7850  -1.7772
    -1.7745  -1.7680  -1.7596  -1.7563  -1.7526  -1.7468  -1.7449  -1.7267
    -1.7192  -1.6948  -1.6924  -1.6764  -1.6678  -1.6223  -1.6136  -1.5445
    -1.5267  -1.5170  -1.5050  -1.4988  -1.4983  -1.4919  -1.4630  -1.4585
    -1.4530  -1.4418  -1.4344  -1.4236  -1.4195  -1.4033  -1.3995  -1.3718
    -1.3588  -1.3479  -1.3421  -1.3297  -1.2943  -1.2850  -1.2775  -1.2606
    -1.2432  -1.2163  -1.2111  -1.1729  -1.1709  -1.1414  -1.1291  -1.0871
    -1.0810  -1.0807  -1.0793  -1.0710  -1.0621  -1.0305  -1.0241  -1.0156
    -1.0048  -0.9907  -0.9860  -0.9780  -0.9692  -0.9651  -0.9496  -0.9491
    -0.9370  -0.9270  -0.9243  -0.9207  -0.9187  -0.9155  -0.9054  -0.9008
    -0.8962  -0.8911  -0.8704  -0.8660  -0.8608  -0.8491  -0.8430  -0.8352
    -0.8348  -0.8218  -0.8023  -0.7913  -0.7877  -0.7754  -0.7676  -0.7645
    -0.7595  -0.7560  -0.7389  -0.7362  -0.7273  -0.7164  -0.7046  -0.7021
    -0.6900  -0.6779  -0.6768  -0.6518  -0.6511  -0.6452  -0.6367  -0.6345
    -0.6108  -0.6019  -0.5768  -0.5740  -0.5519  -0.5439  -0.5426  -0.5284
    -0.5267  -0.5223  -0.5093  -0.4978  -0.4935  -0.4867  -0.4557  -0.4410
    -0.4267  -0.4107  -0.4103  -0.3952  -0.3837  -0.3706  -0.3555  -0.3527
    -0.3428  -0.3173  -0.2882  -0.2844  -0.2792  -0.2748  -0.2594  -0.2440
    -0.2333  -0.2263  -0.2222  -0.2145  -0.1993  -0.1908  -0.1870  -0.1798
    -0.1694  -0.1660  -0.1606  -0.1577  -0.1557  -0.1397  -0.1328  -0.1275
    -0.1257  -0.1156  -0.1136  -0.1125  -0.0996  -0.0962  -0.0951  -0.0872
    -0.0814  -0.0774  -0.0712  -0.0550  -0.0507  -0.0415  -0.0349  -0.0299
    -0.0257  -0.0181  -0.0111  -0.0040  -0.0018   0.0040   0.0157   0.0221
     0.0418   0.0632   0.0954   0.1063   0.1113   0.1183   0.1520   0.1560
     0.1840   0.1915   0.1985   0.2073   0.2104   0.2144   0.2258   0.2326
     0.2348   0.2362   0.2429   0.2444   0.2520   0.2540   0.2603   0.2678
     0.2745   0.2760   0.2882   0.2946   0.2988   0.3005   0.3064   0.3067
     0.3132   0.3178   0.3223   0.3331   0.3402   0.3428   0.3506   0.3638
     0.3642   0.3677   0.3691   0.3759   0.3774   0.3886   0.3994   0.4010
     0.4143   0.4155   0.4305   0.4427   0.4434   0.4608   0.4671   0.4711
     0.4738   0.4762   0.4824   0.4846   0.4869   0.4892   0.4982   0.5059
     0.5102   0.5240   0.5417   0.5516   0.5573   0.5594   0.5626   0.5742
     0.5891   0.5931   0.5944   0.6074   0.6309   0.6422   0.6448   0.6484
     0.6635   0.6741   0.6777   0.6876   0.6974   0.7248   0.7335   0.7644
     0.7761   0.7975   0.8131   0.8307   0.8382   0.8478   0.8544   0.8654
     0.8687   0.8734   0.8812   0.8824   0.8980   0.9060   0.9163   0.9244
     0.9383   0.9395   0.9451   0.9537   0.9601   0.9719   0.9973   1.0012
     1.0038   1.0113   1.0178   1.0238   1.0314   1.0379   1.0482   1.0562
     1.0632   1.0737   1.0750   1.0788   1.0831   1.0930   1.0962   1.1061
     1.1077   1.1143   1.1167   1.1181   1.1195   1.1231   1.1333   1.1427
     1.1575   1.1582   1.1692   1.1698   1.1714   1.1737   1.1924   1.1952
     1.2005   1.2014   1.2092   1.2106   1.2213   1.2270   1.2278   1.2327
     1.2366   1.2429   1.2436   1.2595   1.2609   1.2710   1.2785   1.2790
     1.2798   1.2831   1.2897   1.2940   1.2942   1.3005   1.3091   1.3133
     1.3166   1.3221   1.3346   1.3351   1.3393   1.3470   1.3484   1.3505
     1.3514   1.3565   1.3634   1.3669   1.3708   1.3945   1.3976   1.4095
     1.4149   1.4291   1.4388   1.4456   1.4471   1.4614   1.4664   1.4672
     1.4772   1.4813   1.4871   1.4950   1.4977   1.5051   1.5154   1.5233
     1.5283   1.5365   1.5442   1.5522   1.5681   1.5731   1.5749   1.5854
     1.5868   1.5938   1.5998   1.6040   1.6130   1.6164   1.6207   1.6233
     1.6250   1.6312   1.6320   1.6332   1.6472   1.6481   1.6532   1.6657
     1.6756   1.6807   1.7005   1.7038   1.7075   1.7105   1.7204   1.7205
     1.7218   1.7289   1.7354   1.7454   1.7508   1.7551   1.7576   1.7633
     1.7634   1.7681   1.7720   1.7783   1.7801   1.7921   1.7954   1.7979
     1.8023   1.8184   1.8257   1.8288   1.8404   1.8433   1.8475   1.8549
     1.8560   1.8670   1.8765   1.9092   1.9131   1.9221   1.9254   1.9367
     1.9584   1.9735   1.9808   2.0058   2.0288   2.0559   2.0625   2.0727
     2.1408   2.1468   2.1695   2.1777   2.1932   2.1967   2.2004   2.2174
     2.2224   2.2294   2.2385   2.2486   2.2519   2.2785   2.2881   2.3191
     2.3332   2.3362   2.3511   2.3536   2.3787   2.3951   2.4048   2.4103
     2.4159   2.4327   2.4330   2.4374   2.5034   2.5336   2.5351   2.5509
     2.5717   2.5814   2.5865   2.5894   2.5980   2.6002   2.6046   2.6084
     2.6141   2.6474   2.6513   2.6608   2.6906   2.7016   2.7048   2.7158
     2.7238   2.7272   2.7524   2.8232   2.8435   2.8513   2.8726   2.8764
     2.8849   2.9137   2.9456   2.9560   2.9564   2.9607   2.9645   2.9750
     2.9794   2.9874   2.9989   3.0165   3.0305   3.0415   3.0481   3.0719
     3.0780   3.0997   3.1299   3.1404   3.2031   3.2302   3.2416   3.2558
     3.8418   3.8801   3.9644   4.0033   4.3719   4.4173   4.4694   4.4957
     5.1334   5.3871   5.4045   5.6166   5.9214   5.9232   5.9381   5.9780
     5.9908   6.0183   6.0526   6.2078   6.4069   6.4153   6.4322   6.4413
     6.4604   6.4759   6.4886   6.5158   6.5767   6.6094   6.6745   6.7214
     6.7373   6.7454   6.7839   6.7966   6.8375   6.8788   6.9212   6.9462
     7.0481   7.0540   7.0784   7.1228   7.1774   7.2417   7.3185   7.3452
     7.3805   7.4209   7.4367   7.4628   7.4800   7.4881   7.4953   7.5264
     7.5604   7.5825   7.5916   7.5946   7.6038   7.6570   7.6647   7.7046
     7.7258   7.7456   7.7921   7.8105   7.8141   7.8354   7.8451   7.8638
     7.9183   7.9230   7.9434   7.9556   7.9858   8.0406   8.0900   8.1034
     8.1074   8.1198   8.1391   8.1553   8.2061   8.2489   8.3200   8.3341
     8.3515   8.3624   8.3751   8.3838   8.3974   8.4578   8.4912   8.5190
     8.5311   8.5579   8.5777   8.5804   8.5959   8.6130   8.6276   8.6381
     8.6465   8.6552   8.6719   8.6790   8.6952   8.7096   8.7206   8.7362
     8.7541   8.7723   8.7759   8.8015   8.8084   8.8181   8.8425   8.8577
     8.8804   8.8977   8.9030   8.9135   8.9148   8.9373   8.9581   8.9637
     8.9711   9.0056   9.0110   9.0284   9.0326   9.0454   9.0618   9.0776
     9.1017   9.1173   9.1249   9.1351   9.1552   9.1656   9.1810   9.1881
     9.2026   9.2095   9.2210   9.2303   9.2456   9.2760   9.2888   9.2997
     9.3215   9.3339

          k = 0.0000 0.4779 0.0000 (286577 PWs)   bands (ev):

   -38.3133 -38.2865 -38.2846 -38.2796 -38.2770 -38.2623 -38.2615 -38.2365
   -38.1994 -38.1976 -38.1879 -38.1845 -38.1752 -38.1735 -35.8543 -35.7613
   -22.8739 -22.8600 -22.8441 -22.8336 -22.8308 -22.8301 -22.8196 -22.7974
   -22.7898 -22.7835 -22.7716 -22.7685 -22.7476 -22.7429 -22.7337 -22.7202
   -22.7137 -22.7064 -22.6997 -22.6977 -22.6917 -22.6828 -22.6778 -22.6436
   -22.6392 -22.6274 -22.5889 -22.5822 -22.5539 -22.5350 -22.4467 -22.2425
   -18.8570 -18.8526 -18.8165 -18.7878 -18.7699 -18.7672 -18.7577 -18.7570
   -18.7317 -18.7097 -18.7038 -18.6811 -18.6697 -18.6670 -18.6248 -18.6130
   -18.6070 -18.5974 -18.5886 -18.5885 -18.5729 -18.5267 -18.5175 -18.5143
   -18.5082 -18.5067 -18.4875 -18.4732 -18.4574 -18.4378 -18.4313 -18.4132
   -18.3998 -18.3932 -18.3690 -18.3501 -18.3317 -18.3301 -18.3114 -18.2898
   -18.2410 -18.2001 -17.1121 -17.0870 -17.0782 -17.0218 -16.9925 -16.9880
   -15.4564 -15.3975 -15.2429 -15.1874 -15.1822 -15.1303 -15.0721 -15.0158
   -14.9734 -14.9311 -14.8633 -14.8334 -14.8227 -14.8177 -14.7970 -14.7868
   -14.7798 -14.7746 -14.7651 -14.7590 -14.7337 -14.7305 -14.7253 -14.7076
   -14.6639 -14.6410 -14.6359 -14.6341 -14.6037 -14.5904 -14.5819 -14.5765
   -14.5696 -14.5676 -14.5653 -14.5649 -14.5562 -14.5376 -14.5350 -14.5349
   -14.5218 -14.5130 -14.5107 -14.5090 -14.4957 -14.4925 -14.4802 -14.4742
   -14.4595 -14.4536 -14.4508 -14.4490 -14.4370 -14.4150 -14.3880 -14.3812
   -14.3790 -14.3588 -14.3553 -14.3451 -14.3265 -14.3224 -14.3190 -14.3141
   -14.3082 -14.3021 -14.2854 -14.2832 -14.2775 -14.2708 -14.2647 -14.2496
   -14.2460 -14.2311 -14.2196 -14.2104 -14.2079 -14.2064 -14.1968 -14.1871
   -14.1794 -14.1790 -14.1634 -14.1630 -14.1448 -14.1360 -14.1203 -14.0921
   -13.9468 -13.9374 -13.9309 -13.9293 -13.9201 -13.9140 -13.9137 -13.9080
   -13.8912 -13.8892 -13.8739 -13.8696 -13.8469 -13.8465 -13.8413 -13.8350
   -13.8274 -13.8216 -13.8160 -13.7728 -13.7344 -13.7118 -13.7006 -13.6798
   -12.7877 -12.7398 -12.6760 -12.6724 -12.6353 -12.6304 -12.5892 -12.4980
    -8.6043  -8.5911  -8.4624  -8.4525  -8.4494  -8.4473  -8.4394  -8.3794
    -8.3658  -8.3180  -8.3051  -8.2663  -8.2236  -8.2114  -8.1601  -8.1598
    -8.1567  -8.1497  -8.1458  -8.1420  -8.1384  -8.1352  -8.1339  -8.1232
    -8.1192  -8.1049  -8.1043  -8.0926  -8.0778  -8.0734  -8.0677  -8.0655
    -8.0610  -8.0542  -8.0538  -8.0533  -8.0514  -8.0473  -8.0466  -8.0395
    -8.0384  -8.0355  -8.0344  -8.0321  -8.0208  -7.9987  -7.9973  -7.9780
    -7.9773  -7.9640  -7.9606  -7.9555  -7.9544  -7.9486  -7.9472  -7.9468
    -7.9414  -7.9353  -7.9337  -7.9097  -7.9027  -7.8906  -7.8895  -7.8869
    -7.8632  -7.8367  -7.8232  -7.8230  -7.8221  -7.8196  -7.8061  -7.7883
    -7.7676  -7.7533  -7.7448  -7.7304  -7.7055  -7.6831  -7.6818  -7.6694
    -7.6625  -7.6555  -7.6541  -7.6493  -7.6421  -7.6311  -7.6244  -7.5839
    -7.5429  -7.5326  -7.5071  -7.4787  -7.4711  -7.4547  -7.2522  -7.2447
    -4.0585  -3.9875  -3.7709  -3.7116  -3.7084  -3.6492  -3.5517  -3.4563
    -3.3907  -3.3479  -3.3327  -3.3239  -3.2562  -3.2265  -3.1073  -3.0957
    -3.0639  -3.0080  -2.9355  -2.8596  -2.8592  -2.8426  -2.8421  -2.8384
    -2.7802  -2.7701  -2.7331  -2.7171  -2.6911  -2.6769  -2.6259  -2.6084
    -2.5883  -2.5728  -2.5336  -2.5261  -2.5212  -2.5207  -2.5120  -2.5090
    -2.4968  -2.4953  -2.4784  -2.4686  -2.4617  -2.4502  -2.4228  -2.4086
    -2.3709  -2.3682  -2.3656  -2.3539  -2.3476  -2.3326  -2.2733  -2.2642
    -2.2613  -2.2409  -2.1902  -2.1765  -2.1728  -2.1535  -2.1404  -2.1332
    -2.1297  -2.1165  -2.0954  -2.0945  -2.0923  -2.0848  -2.0830  -2.0774
    -2.0710  -2.0651  -2.0587  -2.0527  -2.0462  -2.0385  -2.0378  -2.0358
    -2.0306  -2.0302  -2.0265  -2.0204  -2.0186  -2.0151  -2.0025  -1.9966
    -1.9895  -1.9826  -1.9728  -1.9378  -1.9301  -1.9279  -1.8839  -1.8739
    -1.8731  -1.8659  -1.8624  -1.8511  -1.8166  -1.8154  -1.8117  -1.8088
    -1.8087  -1.7989  -1.7963  -1.7945  -1.7910  -1.7781  -1.7767  -1.7579
    -1.7522  -1.7512  -1.7473  -1.7454  -1.7359  -1.7346  -1.7157  -1.7077
    -1.7069  -1.6725  -1.6522  -1.6184  -1.5582  -1.5250  -1.4724  -1.4723
    -1.4663  -1.4574  -1.4531  -1.4458  -1.4407  -1.4339  -1.4271  -1.3827
    -1.3234  -1.2539  -1.1998  -1.1588  -1.1405  -1.0960  -1.0848  -1.0842
    -1.0828  -1.0801  -1.0682  -1.0644  -1.0575  -1.0467  -1.0307  -1.0306
    -1.0269  -1.0176  -1.0094  -1.0037  -0.9929  -0.9817  -0.9746  -0.9560
    -0.9441  -0.9316  -0.9268  -0.9264  -0.9238  -0.9170  -0.9072  -0.9030
    -0.9006  -0.8991  -0.8951  -0.8849  -0.8818  -0.8723  -0.8614  -0.8534
    -0.8486  -0.8449  -0.8404  -0.8334  -0.8303  -0.8302  -0.8218  -0.8167
    -0.8145  -0.8106  -0.8063  -0.7840  -0.7805  -0.7710  -0.7693  -0.7677
    -0.7632  -0.7539  -0.7539  -0.7519  -0.7365  -0.7197  -0.7142  -0.6940
    -0.6865  -0.6771  -0.6683  -0.6201  -0.6134  -0.5947  -0.5886  -0.5783
    -0.5766  -0.5734  -0.5644  -0.5634  -0.5588  -0.5561  -0.5534  -0.5440
    -0.5427  -0.5354  -0.4906  -0.4886  -0.4678  -0.4576  -0.4562  -0.4549
    -0.4358  -0.4352  -0.4339  -0.4273  -0.4172  -0.4099  -0.4011  -0.3959
    -0.3673  -0.3641  -0.3605  -0.3561  -0.3294  -0.3244  -0.3020  -0.2939
    -0.2883  -0.2820  -0.2774  -0.2606  -0.2557  -0.2437  -0.2237  -0.2156
    -0.2042  -0.1867  -0.1824  -0.1792  -0.1709  -0.1673  -0.1630  -0.1581
    -0.1567  -0.1499  -0.1492  -0.1365  -0.1273  -0.1138  -0.1126  -0.1005
    -0.0953  -0.0859  -0.0580  -0.0301  -0.0239  -0.0229  -0.0170  -0.0157
     0.0001   0.0037   0.0112   0.0120   0.0264   0.0396   0.0558   0.0626
     0.0717   0.0918   0.1223   0.1305   0.1404   0.1453   0.1529   0.1579
     0.1589   0.1640   0.1653   0.1675   0.1679   0.1773   0.1815   0.1909
     0.1956   0.2014   0.2072   0.2131   0.2181   0.2481   0.2554   0.2627
     0.2656   0.2793   0.2947   0.3084   0.3117   0.3136   0.3295   0.3311
     0.3323   0.3435   0.3456   0.3486   0.3767   0.3850   0.3873   0.3892
     0.3926   0.3944   0.4027   0.4106   0.4190   0.4216   0.4311   0.4326
     0.4343   0.4585   0.4631   0.4676   0.4685   0.4732   0.4735   0.4758
     0.4826   0.4852   0.4904   0.4913   0.5125   0.5272   0.5315   0.5351
     0.5363   0.5367   0.5392   0.5434   0.5549   0.5584   0.5638   0.5705
     0.5870   0.5913   0.6038   0.6158   0.6266   0.6550   0.6556   0.6578
     0.6749   0.6815   0.6922   0.6991   0.7169   0.7204   0.7234   0.7493
     0.7554   0.7590   0.7644   0.7675   0.7801   0.7964   0.8009   0.8080
     0.8153   0.8235   0.8286   0.8567   0.8637   0.8676   0.8851   0.8920
     0.9240   0.9325   0.9522   0.9644   0.9799   0.9910   1.0179   1.0205
     1.0213   1.0319   1.0343   1.0355   1.0407   1.0446   1.0571   1.0588
     1.0600   1.0623   1.0796   1.0840   1.0867   1.0874   1.0961   1.0968
     1.1033   1.1062   1.1215   1.1352   1.1366   1.1567   1.1620   1.1639
     1.1675   1.1727   1.1825   1.1850   1.1861   1.1878   1.1888   1.1898
     1.2025   1.2044   1.2185   1.2236   1.2243   1.2245   1.2347   1.2445
     1.2486   1.2499   1.2567   1.2597   1.2612   1.2746   1.2781   1.2889
     1.2973   1.3127   1.3212   1.3257   1.3297   1.3312   1.3381   1.3385
     1.3429   1.3431   1.3500   1.3511   1.3549   1.3762   1.3776   1.3928
     1.3939   1.3996   1.4025   1.4101   1.4112   1.4161   1.4248   1.4314
     1.4319   1.4360   1.4397   1.4574   1.4588   1.4618   1.4630   1.4710
     1.4825   1.4834   1.4852   1.4908   1.4933   1.4943   1.5056   1.5065
     1.5105   1.5109   1.5230   1.5312   1.5360   1.5415   1.5488   1.5600
     1.5659   1.5747   1.5755   1.5757   1.5828   1.5864   1.5993   1.6063
     1.6096   1.6139   1.6145   1.6218   1.6444   1.6487   1.6502   1.6561
     1.6587   1.6641   1.6730   1.6836   1.6914   1.6959   1.7086   1.7159
     1.7165   1.7310   1.7443   1.7516   1.7534   1.7711   1.7819   1.7836
     1.7954   1.7998   1.8005   1.8015   1.8073   1.8104   1.8104   1.8203
     1.8233   1.8284   1.8357   1.8381   1.8434   1.8440   1.8447   1.8501
     1.8520   1.8532   1.8681   1.8702   1.8775   1.8779   1.8858   1.9254
     1.9345   1.9637   1.9709   1.9774   1.9811   1.9998   2.0064   2.0110
     2.0546   2.0740   2.1191   2.1279   2.1514   2.1678   2.1683   2.1871
     2.1922   2.1924   2.1951   2.1977   2.2019   2.2045   2.2457   2.2774
     2.2822   2.2859   2.3123   2.3156   2.3262   2.3423   2.3669   2.3692
     2.3865   2.3962   2.4005   2.4072   2.4139   2.4149   2.4521   2.4998
     2.5040   2.5042   2.5170   2.5208   2.5214   2.5376   2.5404   2.5466
     2.5833   2.6020   2.6039   2.6233   2.6532   2.6782   2.6987   2.7006
     2.7045   2.7523   2.7920   2.8096   2.8323   2.8371   2.8501   2.8822
     2.9058   2.9108   2.9627   2.9652   2.9688   2.9716   2.9773   2.9816
     2.9999   3.0452   3.0629   3.0673   3.0680   3.0918   3.1131   3.1448
     3.1502   3.1777   3.2889   3.3319   3.4940   3.5083   3.5371   3.5513
     3.6725   3.6919   3.7143   3.7316   4.1894   4.2284   4.2755   4.3082
     5.4113   5.5817   5.6722   5.7682   5.7859   5.8911   5.8949   5.9062
     5.9099   6.1029   6.1212   6.1543   6.1999   6.2491   6.5091   6.5490
     6.5848   6.6055   6.6071   6.6544   6.6903   6.6946   6.6961   6.7052
     6.7166   6.7175   6.8627   6.8664   6.8723   6.8838   6.9256   6.9400
     6.9772   7.0321   7.0351   7.0422   7.0590   7.1003   7.1257   7.1665
     7.2110   7.2585   7.2785   7.3383   7.3816   7.4001   7.4246   7.5298
     7.5386   7.5478   7.5590   7.6246   7.6502   7.6930   7.7350   7.7462
     7.7984   7.8056   7.8124   7.8158   7.8321   7.8466   7.8640   7.8858
     7.8885   7.8943   7.9319   7.9335   7.9844   7.9851   7.9945   7.9984
     8.0008   8.0488   8.0564   8.1113   8.1457   8.1890   8.2591   8.2922
     8.3522   8.3658   8.3910   8.4040   8.4186   8.4207   8.4244   8.4658
     8.4766   8.4905   8.5579   8.5753   8.5820   8.6235   8.6419   8.6559
     8.6730   8.6788   8.6888   8.7097   8.7182   8.7470   8.7642   8.7726
     8.7872   8.7886   8.8034   8.8166   8.8220   8.8302   8.8463   8.8639
     8.8687   8.8869   8.9184   8.9448   8.9708   8.9990   9.0072   9.0166
     9.0453   9.0727   9.0769   9.0889   9.0937   9.1058   9.1114   9.1241
     9.1392   9.1417   9.1652   9.1964   9.2147   9.2252   9.2252   9.2328
     9.2333   9.2537   9.2866   9.3077   9.3418   9.3444   9.3511   9.3877
     9.3982   9.4045

          k =-0.4652-0.0000 0.0000 (286584 PWs)   bands (ev):

   -38.3133 -38.2871 -38.2838 -38.2796 -38.2773 -38.2627 -38.2611 -38.2365
   -38.2000 -38.1968 -38.1877 -38.1851 -38.1748 -38.1737 -35.8543 -35.7613
   -22.8800 -22.8661 -22.8341 -22.8310 -22.8227 -22.8198 -22.8146 -22.8089
   -22.8008 -22.7911 -22.7737 -22.7661 -22.7383 -22.7316 -22.7296 -22.7245
   -22.7174 -22.7157 -22.7109 -22.7087 -22.6850 -22.6721 -22.6711 -22.6398
   -22.6388 -22.6311 -22.5964 -22.5760 -22.5633 -22.5277 -22.4469 -22.2425
   -18.8927 -18.8204 -18.8146 -18.8057 -18.7905 -18.7628 -18.7349 -18.7292
   -18.7271 -18.7125 -18.6863 -18.6863 -18.6758 -18.6410 -18.6235 -18.6163
   -18.6045 -18.6004 -18.5974 -18.5923 -18.5877 -18.5335 -18.5287 -18.5125
   -18.5113 -18.5105 -18.4954 -18.4854 -18.4524 -18.4337 -18.4252 -18.4085
   -18.4046 -18.4017 -18.3648 -18.3449 -18.3345 -18.3226 -18.3203 -18.2814
   -18.2452 -18.1921 -17.1121 -17.0854 -17.0796 -17.0218 -16.9909 -16.9894
   -15.4490 -15.3886 -15.2614 -15.2015 -15.1904 -15.1361 -15.0554 -15.0036
   -14.9316 -14.9135 -14.8781 -14.8623 -14.8572 -14.8365 -14.8333 -14.7969
   -14.7725 -14.7657 -14.7419 -14.7293 -14.7105 -14.7004 -14.6983 -14.6912
   -14.6786 -14.6657 -14.6619 -14.6520 -14.6416 -14.6356 -14.6195 -14.6073
   -14.5930 -14.5847 -14.5623 -14.5568 -14.5238 -14.5223 -14.5102 -14.5022
   -14.5000 -14.4980 -14.4869 -14.4834 -14.4731 -14.4727 -14.4691 -14.4570
   -14.4540 -14.4502 -14.4316 -14.4261 -14.4212 -14.4160 -14.3843 -14.3739
   -14.3684 -14.3672 -14.3656 -14.3555 -14.3516 -14.3492 -14.3363 -14.3348
   -14.3127 -14.3094 -14.2950 -14.2885 -14.2857 -14.2816 -14.2679 -14.2627
   -14.2483 -14.2363 -14.2335 -14.2310 -14.2157 -14.2134 -14.2100 -14.1913
   -14.1758 -14.1616 -14.1600 -14.1596 -14.1463 -14.1089 -14.0858 -14.0814
   -13.9419 -13.9373 -13.9253 -13.9242 -13.9207 -13.9199 -13.9194 -13.9023
   -13.9022 -13.9019 -13.8704 -13.8669 -13.8525 -13.8486 -13.8479 -13.8346
   -13.8279 -13.8146 -13.8080 -13.7727 -13.7445 -13.7083 -13.6980 -13.6775
   -12.7712 -12.7580 -12.6841 -12.6836 -12.6219 -12.6210 -12.5830 -12.5060
    -8.6594  -8.6463  -8.5055  -8.3795  -8.3739  -8.3702  -8.3659  -8.3606
    -8.3567  -8.2741  -8.2652  -8.2191  -8.2139  -8.2062  -8.2061  -8.2006
    -8.1671  -8.1584  -8.1563  -8.1543  -8.1383  -8.1352  -8.1227  -8.1204
    -8.1180  -8.1113  -8.1071  -8.1013  -8.0975  -8.0817  -8.0778  -8.0694
    -8.0680  -8.0664  -8.0632  -8.0619  -8.0581  -8.0554  -8.0523  -8.0473
    -8.0464  -8.0446  -8.0422  -8.0413  -8.0375  -8.0333  -8.0332  -8.0320
    -8.0291  -8.0276  -8.0181  -8.0163  -7.9953  -7.9926  -7.9738  -7.9400
    -7.9376  -7.9128  -7.8856  -7.8733  -7.8733  -7.8718  -7.8635  -7.8491
    -7.8357  -7.8316  -7.8090  -7.7957  -7.7806  -7.7735  -7.7674  -7.7570
    -7.7500  -7.7441  -7.7436  -7.7028  -7.6937  -7.6892  -7.6844  -7.6828
    -7.6805  -7.6740  -7.6721  -7.6709  -7.6542  -7.6418  -7.6194  -7.5701
    -7.5328  -7.5209  -7.5005  -7.4897  -7.4679  -7.4491  -7.2555  -7.2522
    -4.1030  -4.0352  -3.6845  -3.6306  -3.6138  -3.6091  -3.5678  -3.5438
    -3.5150  -3.4897  -3.2694  -3.2421  -3.2151  -3.1739  -3.1463  -3.1142
    -2.9877  -2.9705  -2.9480  -2.9306  -2.9187  -2.9054  -2.8842  -2.8658
    -2.8545  -2.8467  -2.8224  -2.8093  -2.8006  -2.7177  -2.6950  -2.6932
    -2.6261  -2.6018  -2.4941  -2.4849  -2.4636  -2.4319  -2.4223  -2.4187
    -2.4121  -2.4102  -2.4069  -2.4037  -2.3943  -2.3844  -2.3327  -2.3276
    -2.3274  -2.2813  -2.2583  -2.2507  -2.2066  -2.1962  -2.1940  -2.1911
    -2.1864  -2.1749  -2.1602  -2.1443  -2.1436  -2.1377  -2.1343  -2.1300
    -2.1298  -2.1109  -2.1088  -2.1054  -2.1026  -2.0974  -2.0873  -2.0735
    -2.0734  -2.0644  -2.0510  -2.0334  -2.0275  -2.0256  -2.0236  -2.0199
    -1.9988  -1.9941  -1.9920  -1.9891  -1.9816  -1.9555  -1.9498  -1.9487
    -1.9448  -1.9423  -1.9422  -1.9339  -1.9294  -1.9242  -1.9236  -1.9231
    -1.9136  -1.9117  -1.8952  -1.8935  -1.8744  -1.8726  -1.8706  -1.8634
    -1.8521  -1.8456  -1.8429  -1.8254  -1.8228  -1.8189  -1.8159  -1.8087
    -1.7888  -1.7855  -1.7843  -1.7823  -1.7817  -1.7668  -1.7562  -1.7476
    -1.7448  -1.7371  -1.7359  -1.7261  -1.7093  -1.7071  -1.6882  -1.6780
    -1.6677  -1.6408  -1.6374  -1.5551  -1.4198  -1.3825  -1.3567  -1.3471
    -1.3211  -1.2881  -1.2503  -1.1498  -1.1424  -1.1267  -1.1240  -1.0937
    -1.0786  -1.0582  -1.0467  -1.0350  -1.0350  -1.0222  -1.0201  -1.0143
    -1.0104  -0.9962  -0.9942  -0.9913  -0.9801  -0.9771  -0.9703  -0.9605
    -0.9518  -0.9422  -0.9220  -0.9082  -0.9063  -0.9049  -0.8998  -0.8898
    -0.8822  -0.8799  -0.8669  -0.8475  -0.8424  -0.8397  -0.8293  -0.8269
    -0.8254  -0.8179  -0.8169  -0.8139  -0.8057  -0.8040  -0.7952  -0.7935
    -0.7878  -0.7815  -0.7745  -0.7739  -0.7598  -0.7436  -0.7403  -0.7353
    -0.7218  -0.7174  -0.6982  -0.6943  -0.6771  -0.6670  -0.6636  -0.6616
    -0.6546  -0.6426  -0.6387  -0.6360  -0.6249  -0.6228  -0.6193  -0.6079
    -0.5931  -0.5735  -0.5505  -0.5262  -0.5212  -0.5060  -0.4967  -0.4948
    -0.4932  -0.4843  -0.4828  -0.4814  -0.4698  -0.4540  -0.4262  -0.4192
    -0.4159  -0.4129  -0.4083  -0.4024  -0.3905  -0.3872  -0.3845  -0.3841
    -0.3826  -0.3754  -0.3712  -0.3671  -0.3630  -0.3528  -0.3511  -0.3413
    -0.3119  -0.2942  -0.2853  -0.2730  -0.2662  -0.2636  -0.2486  -0.2322
    -0.2286  -0.2282  -0.2213  -0.2210  -0.2196  -0.2190  -0.1931  -0.1919
    -0.1850  -0.1813  -0.1779  -0.1649  -0.1553  -0.1507  -0.1496  -0.1455
    -0.1425  -0.1321  -0.1060  -0.0775  -0.0388  -0.0267  -0.0113  -0.0049
     0.0024   0.0141   0.0218   0.0242   0.0303   0.0482   0.0505   0.0777
     0.0829   0.1251   0.1291   0.1296   0.1301   0.1340   0.1487   0.1500
     0.1502   0.1679   0.1918   0.1980   0.2017   0.2092   0.2113   0.2226
     0.2240   0.2247   0.2352   0.2393   0.2469   0.2504   0.2691   0.2696
     0.2943   0.2953   0.3067   0.3150   0.3229   0.3241   0.3335   0.3368
[...]
     atom   61 type  5   force =     0.00000000    0.00000000   -0.00524594
     atom   62 type  5   force =     0.00000000    0.00000000   -0.00524594
     atom   63 type  5   force =     0.00000000    0.00036966   -0.00549138
     atom   64 type  5   force =     0.00000000   -0.00036966   -0.00549138
     atom   65 type  4   force =    -0.00051594   -0.00020987    0.00378423
     atom   66 type  4   force =    -0.00051594    0.00020987    0.00378423
     atom   67 type  4   force =     0.00051594   -0.00020987    0.00378423
     atom   68 type  4   force =     0.00051594    0.00020987    0.00378423
     atom   69 type  4   force =     0.00000000   -0.00006335    0.00337144
     atom   70 type  4   force =     0.00000000    0.00006335    0.00337144
     atom   71 type  4   force =     0.00003788   -0.00019790    0.00577345
     atom   72 type  4   force =     0.00003788    0.00019790    0.00577345
     atom   73 type  4   force =    -0.00003788    0.00019790    0.00577345
     atom   74 type  4   force =    -0.00003788   -0.00019790    0.00577345
     atom   75 type  4   force =     0.00037980    0.00000000    0.00640316
     atom   76 type  4   force =    -0.00037980    0.00000000    0.00640316
     atom   77 type  4   force =     0.00000000   -0.00112428    0.00496242
     atom   78 type  4   force =     0.00000000    0.00112428    0.00496242
     atom   79 type  4   force =     0.00105333    0.00000000    0.00584507
     atom   80 type  4   force =    -0.00105333    0.00000000    0.00584507
     atom   81 type  3   force =    -0.00022462    0.00013700   -0.00162475
     atom   82 type  3   force =    -0.00022462   -0.00013700   -0.00162475
     atom   83 type  3   force =     0.00022462    0.00013700   -0.00162475
     atom   84 type  3   force =     0.00022462   -0.00013700   -0.00162475
     atom   85 type  3   force =    -0.00013671    0.00006955   -0.00253350
     atom   86 type  3   force =     0.00013671    0.00006955   -0.00253350
     atom   87 type  3   force =     0.00013671   -0.00006955   -0.00253350
     atom   88 type  3   force =    -0.00013671   -0.00006955   -0.00253350
     atom   89 type  1   force =     0.00000000    0.00000000    0.00720010
     atom   90 type  1   force =     0.00000000   -0.00052463    0.01440127
     atom   91 type  1   force =     0.00000000    0.00052463    0.01440127
     atom   92 type  1   force =     0.00084308    0.00000000    0.01282676
     atom   93 type  1   force =    -0.00084308    0.00000000    0.01282676
     atom   94 type  1   force =     0.00000000    0.00000000    0.01593585
     atom   95 type  1   force =     0.00000000    0.00000000    0.01593585
     atom   96 type  1   force =     0.00000000    0.00000000    0.01618353
     atom   97 type  4   force =     0.00076253    0.00016815   -0.01775796
     atom   98 type  4   force =     0.00076253   -0.00016815   -0.01775796
     atom   99 type  4   force =    -0.00076253    0.00016815   -0.01775796
     atom  100 type  4   force =    -0.00076253   -0.00016815   -0.01775796
     atom  101 type  4   force =    -0.00257106   -0.00036551   -0.01826370
     atom  102 type  4   force =     0.00257106   -0.00036551   -0.01826370
     atom  103 type  4   force =     0.00257106    0.00036551   -0.01826370
     atom  104 type  4   force =    -0.00257106    0.00036551   -0.01826370
     atom  105 type  4   force =     0.00899390    0.00000000    0.02521179
     atom  106 type  4   force =    -0.00899390    0.00000000    0.02521179
     atom  107 type  3   force =    -0.01222301   -0.00389212   -0.02127249
     atom  108 type  3   force =    -0.01222301    0.00389212   -0.02127249
     atom  109 type  3   force =     0.01222301    0.00389212   -0.02127249
     atom  110 type  3   force =     0.01222301   -0.00389212   -0.02127249
     atom  111 type  3   force =    -0.00520730   -0.00038682   -0.02263116
     atom  112 type  3   force =     0.00520730    0.00038682   -0.02263116
     atom  113 type  3   force =    -0.00520730    0.00038682   -0.02263116
     atom  114 type  3   force =     0.00520730   -0.00038682   -0.02263116
     atom  115 type  4   force =     0.00197472   -0.00038529    0.02157037
     atom  116 type  4   force =    -0.00197472   -0.00038529    0.02157037
     atom  117 type  4   force =     0.00197472    0.00038529    0.02157037
     atom  118 type  4   force =    -0.00197472    0.00038529    0.02157037
     atom  119 type  4   force =    -0.01697854    0.00000000    0.02776036
     atom  120 type  4   force =     0.01697854    0.00000000    0.02776036
     atom  121 type  4   force =     0.00705684    0.00745915    0.02418433
     atom  122 type  4   force =    -0.00705684    0.00745915    0.02418433
     atom  123 type  4   force =    -0.00705684   -0.00745915    0.02418433
     atom  124 type  4   force =     0.00705684   -0.00745915    0.02418433
     atom  125 type  4   force =    -0.00200687    0.00067793    0.02228657
     atom  126 type  4   force =    -0.00200687   -0.00067793    0.02228657
     atom  127 type  4   force =     0.00200687    0.00067793    0.02228657
     atom  128 type  4   force =     0.00200687   -0.00067793    0.02228657
     atom  129 type  1   force =     0.00000000    0.00000000   -0.00719999
     atom  130 type  1   force =     0.00000000    0.00000000   -0.00611679
     atom  131 type  1   force =     0.00000000    0.00000000   -0.00611679
     atom  132 type  1   force =    -0.00468290    0.00000000   -0.01210788
     atom  133 type  1   force =     0.00468290    0.00000000   -0.01210788
     atom  134 type  1   force =     0.00000000   -0.00502533   -0.00697848
     atom  135 type  1   force =     0.00000000    0.00502533   -0.00697848
     atom  136 type  1   force =     0.00000000    0.00000000   -0.02004803
     atom  137 type  3   force =     0.00030413    0.00100345   -0.02138744
     atom  138 type  3   force =     0.00030413   -0.00100345   -0.02138744
     atom  139 type  3   force =    -0.00030413   -0.00100345   -0.02138744
     atom  140 type  3   force =    -0.00030413    0.00100345   -0.02138744
     atom  141 type  3   force =    -0.00166023    0.00086697   -0.02201778
     atom  142 type  3   force =    -0.00166023   -0.00086697   -0.02201778
     atom  143 type  3   force =     0.00166023    0.00086697   -0.02201778
     atom  144 type  3   force =     0.00166023   -0.00086697   -0.02201778
     atom  145 type  4   force =    -0.00249316    0.00000000    0.00327488
     atom  146 type  4   force =     0.00249316    0.00000000    0.00327488
     atom  147 type  4   force =     0.00000000   -0.00207745    0.00550502
     atom  148 type  4   force =     0.00000000    0.00207745    0.00550502
     atom  149 type  4   force =    -0.00040033    0.00000000    0.00021550
     atom  150 type  4   force =     0.00040033    0.00000000    0.00021550
     atom  151 type  4   force =    -0.00073515   -0.00007895    0.00216063
     atom  152 type  4   force =     0.00073515   -0.00007895    0.00216063
     atom  153 type  4   force =     0.00073515    0.00007895    0.00216063
     atom  154 type  4   force =    -0.00073515    0.00007895    0.00216063
     atom  155 type  4   force =     0.00000000   -0.00205658    0.00347617
     atom  156 type  4   force =     0.00000000    0.00205658    0.00347617
     atom  157 type  4   force =    -0.00010694    0.00030245    0.00407357
     atom  158 type  4   force =     0.00010694   -0.00030245    0.00407357
     atom  159 type  4   force =    -0.00010694   -0.00030245    0.00407357
     atom  160 type  4   force =     0.00010694    0.00030245    0.00407357
     atom  161 type  2   force =     0.00000000    0.00000000   -0.00127937
     atom  162 type  5   force =    -0.00011738    0.00000000    0.00004310
     atom  163 type  5   force =     0.00011738    0.00000000    0.00004310
     atom  164 type  5   force =     0.00000000    0.00000000    0.00076703
     atom  165 type  5   force =     0.00000000    0.00000000   -0.00023972
     atom  166 type  5   force =     0.00000000    0.00000000   -0.00023972
     atom  167 type  5   force =     0.00000000   -0.00055325   -0.00063856
     atom  168 type  5   force =     0.00000000    0.00055325   -0.00063856
     atom  169 type  4   force =    -0.00027734   -0.00002302    0.00034454
     atom  170 type  4   force =    -0.00027734    0.00002302    0.00034454
     atom  171 type  4   force =     0.00027734   -0.00002302    0.00034454
     atom  172 type  4   force =     0.00027734    0.00002302    0.00034454
     atom  173 type  4   force =     0.00000000    0.00018669    0.00045373
     atom  174 type  4   force =     0.00000000   -0.00018669    0.00045373
     atom  175 type  4   force =    -0.00002516   -0.00003497   -0.00035638
     atom  176 type  4   force =    -0.00002516    0.00003497   -0.00035638
     atom  177 type  4   force =     0.00002516    0.00003497   -0.00035638
     atom  178 type  4   force =     0.00002516   -0.00003497   -0.00035638
     atom  179 type  4   force =    -0.00005563    0.00000000   -0.00077700
     atom  180 type  4   force =     0.00005563    0.00000000   -0.00077700
     atom  181 type  4   force =     0.00000000   -0.00014292    0.00021118
     atom  182 type  4   force =     0.00000000    0.00014292    0.00021118
     atom  183 type  4   force =    -0.00009016    0.00000000   -0.00038498
     atom  184 type  4   force =     0.00009016    0.00000000   -0.00038498
     atom  185 type  3   force =     0.00006292   -0.00006892    0.00034673
     atom  186 type  3   force =     0.00006292    0.00006892    0.00034673
     atom  187 type  3   force =    -0.00006292   -0.00006892    0.00034673
     atom  188 type  3   force =    -0.00006292    0.00006892    0.00034673
     atom  189 type  3   force =     0.00001791    0.00006776    0.00038360
     atom  190 type  3   force =    -0.00001791    0.00006776    0.00038360
     atom  191 type  3   force =    -0.00001791   -0.00006776    0.00038360
     atom  192 type  3   force =     0.00001791   -0.00006776    0.00038360
     atom  193 type  1   force =     0.00000000    0.00000000    0.00021676
     atom  194 type  1   force =     0.00000000   -0.00004225    0.00038640
     atom  195 type  1   force =     0.00000000    0.00004225    0.00038640
     atom  196 type  1   force =     0.00025399    0.00000000    0.00015102
     atom  197 type  1   force =    -0.00025399    0.00000000    0.00015102
     atom  198 type  1   force =     0.00000000    0.00000000    0.00025465
     atom  199 type  1   force =     0.00000000    0.00000000    0.00025465
     atom  200 type  1   force =     0.00000000    0.00000000    0.00021835
     atom  201 type  4   force =     0.00006016    0.00007403   -0.00235751
     atom  202 type  4   force =     0.00006016   -0.00007403   -0.00235751
     atom  203 type  4   force =    -0.00006016    0.00007403   -0.00235751
     atom  204 type  4   force =    -0.00006016   -0.00007403   -0.00235751
     atom  205 type  4   force =     0.00002271    0.00004732   -0.00206093
     atom  206 type  4   force =    -0.00002271    0.00004732   -0.00206093
     atom  207 type  4   force =    -0.00002271   -0.00004732   -0.00206093
     atom  208 type  4   force =     0.00002271   -0.00004732   -0.00206093
     atom  209 type  4   force =     0.00006349    0.00000000   -0.00012050
     atom  210 type  4   force =    -0.00006349    0.00000000   -0.00012050
     atom  211 type  3   force =     0.00008935   -0.00004998    0.00069592
     atom  212 type  3   force =     0.00008935    0.00004998    0.00069592
     atom  213 type  3   force =    -0.00008935    0.00004998    0.00069592
     atom  214 type  3   force =    -0.00008935   -0.00004998    0.00069592
     atom  215 type  3   force =     0.00000318   -0.00002957    0.00093600
     atom  216 type  3   force =    -0.00000318    0.00002957    0.00093600
     atom  217 type  3   force =     0.00000318    0.00002957    0.00093600
     atom  218 type  3   force =    -0.00000318   -0.00002957    0.00093600
     atom  219 type  4   force =    -0.00010345    0.00019290   -0.00004215
     atom  220 type  4   force =     0.00010345    0.00019290   -0.00004215
     atom  221 type  4   force =    -0.00010345   -0.00019290   -0.00004215
     atom  222 type  4   force =     0.00010345   -0.00019290   -0.00004215
     atom  223 type  4   force =    -0.00011509    0.00000000    0.00002298
     atom  224 type  4   force =     0.00011509    0.00000000    0.00002298

     Total force =     0.157501     Total SCF correction =     0.000272


     Computing stress (Cartesian axis) and pressure


     negative rho (up, down):  6.348E-01 0.000E+00
          total   stress  (Ry/bohr**3)                   (kbar)     P=       -6.76
  -0.00000348   0.00000000   0.00000000           -0.51        0.00        0.00
   0.00000000  -0.00010167   0.00000000            0.00      -14.96        0.00
   0.00000000   0.00000000  -0.00003271            0.00        0.00       -4.81

 
     init_run     :     56.97s CPU     58.93s WALL (       1 calls)
     electrons    :   4669.04s CPU   4874.00s WALL (       1 calls)
     forces       :     34.73s CPU     37.13s WALL (       1 calls)
     stress       :    489.53s CPU    494.48s WALL (       1 calls)

     Called by init_run:
     wfcinit      :     44.99s CPU     46.02s WALL (       1 calls)
     potinit      :      1.63s CPU      1.68s WALL (       1 calls)
     hinit0       :      2.88s CPU      3.10s WALL (       1 calls)

     Called by electrons:
     c_bands      :   3914.18s CPU   3999.73s WALL (      42 calls)
     sum_band     :    520.40s CPU    586.36s WALL (      42 calls)
     v_of_rho     :     12.15s CPU     12.33s WALL (      43 calls)
     newd         :     83.11s CPU    135.90s WALL (      43 calls)
     mix_rho      :    140.40s CPU    141.34s WALL (      42 calls)

     Called by c_bands:
     init_us_2    :     15.56s CPU     15.69s WALL (     348 calls)
     cegterg      :   3825.19s CPU   3908.40s WALL (     168 calls)

     Called by sum_band:
     sum_band:bec :      3.64s CPU      3.66s WALL (     168 calls)
     addusdens    :     82.53s CPU    145.01s WALL (      42 calls)

     Called by *egterg:
     h_psi        :   1581.33s CPU   1611.14s WALL (    1065 calls)
     s_psi        :    448.06s CPU    459.17s WALL (    1065 calls)
     g_psi        :      2.44s CPU      2.46s WALL (     893 calls)
     cdiaghg      :    738.00s CPU    741.14s WALL (    1061 calls)

     Called by h_psi:
     h_psi:calbec :    499.20s CPU    501.38s WALL (    1065 calls)
     vloc_psi     :    630.35s CPU    638.22s WALL (    1065 calls)
     add_vuspsi   :    448.15s CPU    459.75s WALL (    1065 calls)

     General routines
     calbec       :    851.15s CPU    854.71s WALL (    1253 calls)
     fft          :     12.71s CPU     12.91s WALL (     582 calls)
     ffts         :     86.40s CPU     86.94s WALL (   32842 calls)
     fftw         :    700.23s CPU    708.75s WALL (  951152 calls)
     interpolate  :      1.08s CPU      1.09s WALL (      43 calls)
 
     Parallel routines
     fft_scatt_xy :    100.50s CPU    101.63s WALL (  984576 calls)
     fft_scatt_yz :    453.97s CPU    459.68s WALL (  984576 calls)
 
     PWSCF        :      1h27m CPU      1h31m WALL

 
   This run was terminated on:  23:59:34  17May2021            

=------------------------------------------------------------------------------=
   JOB DONE.
=------------------------------------------------------------------------------=
[1621310374.874105] [holy7c06511:253829:0]          mpool.c:43   UCX  WARN  object 0x2bc4a00 was not returned to mpool ucp_requests
[1621310374.902793] [holy7c06607:266162:0]          mpool.c:43   UCX  WARN  object 0x3c45940 was not returned to mpool ucp_requests
[1621310374.879691] [holy7c06511:253830:0]          mpool.c:43   UCX  WARN  object 0x67fe440 was not returned to mpool ucp_requests
[1621310374.917205] [holy7c06509:28594:0]          mpool.c:43   UCX  WARN  object 0x3aabfc0 was not returned to mpool ucp_requests
[1621310374.924288] [holy7c06509:28595:0]          mpool.c:43   UCX  WARN  object 0x5d84940 was not returned to mpool ucp_requests
[1621310374.924653] [holy7c06509:28593:0]          mpool.c:43   UCX  WARN  object 0x4355480 was not returned to mpool ucp_requests
[1621310374.935485] [holy7c06509:28603:0]          mpool.c:43   UCX  WARN  object 0x400f500 was not returned to mpool ucp_requests
[1621310374.936899] [holy7c06509:28601:0]          mpool.c:43   UCX  WARN  object 0x29bbd40 was not returned to mpool ucp_requests
[1621310374.935368] [holy7c06601:139416:0]          mpool.c:43   UCX  WARN  object 0x371af40 was not returned to mpool ucp_requests
[1621310374.938609] [holy7c06509:28600:0]          mpool.c:43   UCX  WARN  object 0x4326140 was not returned to mpool ucp_requests
[1621310374.941121] [holy7c06509:28602:0]          mpool.c:43   UCX  WARN  object 0x3553640 was not returned to mpool ucp_requests
[1621310374.930931] [holy7c06510:179986:0]          mpool.c:43   UCX  WARN  object 0x4676d40 was not returned to mpool ucp_requests
[1621310374.912751] [holy7c06607:266161:0]          mpool.c:43   UCX  WARN  object 0x4a5e340 was not returned to mpool ucp_requests
[1621310374.943823] [holy7c06601:139430:0]          mpool.c:43   UCX  WARN  object 0x3c48dc0 was not returned to mpool ucp_requests
[1621310374.951435] [holy7c06601:139421:0]          mpool.c:43   UCX  WARN  object 0x604cf40 was not returned to mpool ucp_requests
[1621310374.951554] [holy7c06601:139422:0]          mpool.c:43   UCX  WARN  object 0x3c01c00 was not returned to mpool ucp_requests
[1621310374.947886] [holy7c06601:139415:0]          mpool.c:43   UCX  WARN  object 0x30cf940 was not returned to mpool ucp_requests
[1621310374.948986] [holy7c06601:139423:0]          mpool.c:43   UCX  WARN  object 0x36d3380 was not returned to mpool ucp_requests
[1621310374.947611] [holy7c06601:139414:0]          mpool.c:43   UCX  WARN  object 0x3acbe40 was not returned to mpool ucp_requests
[1621310374.961038] [holy7c06601:139424:0]          mpool.c:43   UCX  WARN  object 0x5eefdc0 was not returned to mpool ucp_requests
[1621310374.957503] [holy7c06601:139429:0]          mpool.c:43   UCX  WARN  object 0x34af2c0 was not returned to mpool ucp_requests
[1621310374.959676] [holy7c06601:139413:0]          mpool.c:43   UCX  WARN  object 0x326c440 was not returned to mpool ucp_requests
[1621310374.939797] [holy7c06510:179987:0]          mpool.c:43   UCX  WARN  object 0x38a9000 was not returned to mpool ucp_requests
[1621310374.939827] [holy7c06510:179987:0]          mpool.c:43   UCX  WARN  object 0x38a9fc0 was not returned to mpool ucp_requests
[1621310374.934367] [holy7c06510:179979:0]          mpool.c:43   UCX  WARN  object 0x3a87440 was not returned to mpool ucp_requests
[1621310374.934391] [holy7c06510:179979:0]          mpool.c:43   UCX  WARN  object 0x3a8d480 was not returned to mpool ucp_requests
[1621310374.934106] [holy7c06510:179981:0]          mpool.c:43   UCX  WARN  object 0x58d0d40 was not returned to mpool ucp_requests
[1621310374.943604] [holy7c06510:179989:0]          mpool.c:43   UCX  WARN  object 0x464fac0 was not returned to mpool ucp_requests
[1621310374.949055] [holy7c06510:179995:0]          mpool.c:43   UCX  WARN  object 0x407bc80 was not returned to mpool ucp_requests
[1621310374.949459] [holy7c06510:179988:0]          mpool.c:43   UCX  WARN  object 0x3df4300 was not returned to mpool ucp_requests
[1621310374.949479] [holy7c06510:179988:0]          mpool.c:43   UCX  WARN  object 0x3dfa500 was not returned to mpool ucp_requests
[1621310374.946250] [holy7c06510:179978:0]          mpool.c:43   UCX  WARN  object 0x3684740 was not returned to mpool ucp_requests
[1621310374.951782] [holy7c06510:179994:0]          mpool.c:43   UCX  WARN  object 0x41b2d00 was not returned to mpool ucp_requests
[1621310374.951958] [holy7c06510:179980:0]          mpool.c:43   UCX  WARN  object 0x2c59d80 was not returned to mpool ucp_requests
