
     Program PWSCF v.6.5 starts on 17May2021 at 20:46:49 

     This program is part of the open-source Quantum ESPRESSO suite
     for quantum simulation of materials; please cite
         "P. Giannozzi et al., J. Phys.:Condens. Matter 21 395502 (2009);
         "P. Giannozzi et al., J. Phys.:Condens. Matter 29 465901 (2017);
          URL http://www.quantum-espresso.org", 
     in publications or presentations arising from this work. More details at
     http://www.quantum-espresso.org/quote

     Parallel version (MPI), running on    80 processors

     MPI processes distributed on     5 nodes
     R & G space division:  proc/nbgrp/npool/nimage =      80
     Reading input from YBCO_CuO_cleave_1.0_sep.pwi
Warning: card &IONS ignored
Warning: card     ION_DYNAMICS = 'BFGS' ignored
Warning: card / ignored
Warning: card &CELL ignored
Warning: card     CELL_DYNAMICS = 'BFGS' ignored
Warning: card     PRESS_CONV_THR = 5 ignored
Warning: card / ignored

     Current dimensions of program PWSCF are:
     Max number of different atomic species (ntypx) = 10
     Max number of k-points (npk) =  40000
     Max angular momentum in pseudopotentials (lmaxx) =  3
     Message from routine volume:
     axis vectors are left-handed

     Subspace diagonalization in iterative solution of the eigenvalue problem:
     one sub-group per band group will be used
     scalapack distributed-memory algorithm (size of sub-group:  8*  8 procs)

     Message from routine setup:
     using ibrav=0 with symmetry is DISCOURAGED, use correct ibrav instead
 
     Parallelization info
     --------------------
     sticks:   dense  smooth     PW     G-vecs:    dense   smooth      PW
     Min         300     100     25               144060    27722    3639
     Max         301     101     26               144093    27745    3676
     Sum       24079    8031   2067             11526673  2218529  293173
 


     bravais-lattice index     =            0
     lattice parameter (alat)  =      20.5021  a.u.
     unit-cell volume          =   35329.4303 (a.u.)^3
     number of atoms/cell      =          224
     number of atomic types    =            5
     number of electrons       =      1830.00
     number of Kohn-Sham states=         1098
     kinetic-energy cutoff     =      60.0000  Ry
     charge density cutoff     =     720.0000  Ry
     convergence threshold     =      1.0E-08
     mixing beta               =       0.5000
     number of iterations used =           10  local-TF  mixing
     Exchange-correlation= SLA PW PBE PBE
                           (   1   4   3   4   0   0   0)

     celldm(1)=  20.502120  celldm(2)=   0.000000  celldm(3)=   0.000000
     celldm(4)=   0.000000  celldm(5)=   0.000000  celldm(6)=   0.000000

     crystal axes: (cart. coord. in units of alat)
               a(1) = (  -0.716599   0.697485   0.000000 )  
               a(2) = (   0.716599   0.697485   0.000000 )  
               a(3) = (   0.000000   0.000000   4.101087 )  

     reciprocal axes: (cart. coord. in units 2 pi/alat)
               b(1) = ( -0.697740  0.716861  0.000000 )  
               b(2) = (  0.697740  0.716861  0.000000 )  
               b(3) = (  0.000000  0.000000  0.243838 )  


     PseudoPot. # 1 for Ba read from file:
     ./pseudo/Ba.pbe-nsp-van.UPF
     MD5 check sum: 2b9c31dd849566dd297d80989662b7a0
     Pseudo is Ultrasoft + core correction, Zval = 10.0
     Generated by new atomic code, or converted to UPF format
     Using radial grid of  907 points,  6 beta functions with: 
                l(1) =   0
                l(2) =   0
                l(3) =   1
                l(4) =   1
                l(5) =   2
                l(6) =   2
     Q(r) pseudized with  6 coefficients,  rinner =    1.200   1.200   1.200
                                                       1.200   1.200

     PseudoPot. # 2 for Ca read from file:
     ./pseudo/Ca.pbe-nsp-van.UPF
     MD5 check sum: 6471098428ff4fa451746d08035ff179
     Pseudo is Ultrasoft + core correction, Zval = 10.0
     Generated by new atomic code, or converted to UPF format
     Using radial grid of  845 points,  6 beta functions with: 
                l(1) =   0
                l(2) =   0
                l(3) =   1
                l(4) =   1
                l(5) =   2
                l(6) =   2
     Q(r) pseudized with  6 coefficients,  rinner =    1.200   1.200   1.200
                                                       1.200   1.200

     PseudoPot. # 3 for Cu read from file:
     ./pseudo/Cu.pbe-n-van_ak.UPF
     MD5 check sum: 34e3282627ffb533726feb647e090d62
     Pseudo is Ultrasoft + core correction, Zval = 11.0
     Generated by new atomic code, or converted to UPF format
     Using radial grid of  867 points,  6 beta functions with: 
                l(1) =   0
                l(2) =   0
                l(3) =   1
                l(4) =   1
                l(5) =   2
                l(6) =   2
     Q(r) pseudized with  8 coefficients,  rinner =    1.400   1.400   1.400
                                                       1.400   1.400

     PseudoPot. # 4 for O  read from file:
     ./pseudo/O.pbe-van_ak.UPF
     MD5 check sum: 783ce7fe4c79b6a4916957118fed0856
     Pseudo is Ultrasoft, Zval =  6.0
     Generated by new atomic code, or converted to UPF format
     Using radial grid of  737 points,  4 beta functions with: 
                l(1) =   0
                l(2) =   0
                l(3) =   1
                l(4) =   1
     Q(r) pseudized with  8 coefficients,  rinner =    0.800   0.800   0.800


     PseudoPot. # 5 for Y  read from file:
     ./pseudo/Y.pbe-nsp-van.UPF
     MD5 check sum: 4412fed3ab108fed87a1b7d6a69a4a38
     Pseudo is Ultrasoft + core correction, Zval = 11.0
     Generated by new atomic code, or converted to UPF format
     Using radial grid of  885 points,  6 beta functions with: 
                l(1) =   0
                l(2) =   0
                l(3) =   1
                l(4) =   1
                l(5) =   2
                l(6) =   2
     Q(r) pseudized with  6 coefficients,  rinner =    1.200   1.200   1.200
                                                       1.200   1.200

     atomic species   valence    mass     pseudopotential
        Ba            10.00   137.32700     Ba( 1.00)
        Ca            10.00    40.07800     Ca( 1.00)
        Cu            11.00    63.54600     Cu( 1.00)
        O              6.00    15.99900     O ( 1.00)
        Y             11.00    88.90584     Y ( 1.00)

      4 Sym. Ops. (no inversion) found ( 3 have fractional translation)



   Cartesian axes

     site n.     atom                  positions (alat units)
         1           O   tau(   1) = (   0.3545921   0.8718562  -0.0077406  )
         2           O   tau(   2) = (   0.0037072   0.8718562  -0.0077406  )
         3           Cu  tau(   3) = (  -0.0002581   0.0006065   0.0080789  )
         4           Cu  tau(   4) = (  -0.0002581   0.3481364   0.0080789  )
         5           Cu  tau(   5) = (   0.3585574   0.3481364   0.0080789  )
         6           Cu  tau(   6) = (  -0.3580421   0.6980913   0.0080789  )
         7           Cu  tau(   7) = (   0.3577988   0.6971373   0.0086255  )
         8           Cu  tau(   8) = (   0.0005005   1.0465760   0.0086255  )
         9           Cu  tau(   9) = (  -0.3588016   0.3490903   0.0086255  )
        10           Cu  tau(  10) = (   0.0005005   0.6971373   0.0086255  )
        11           O   tau(  11) = (  -0.0001733   0.5225410  -0.0089757  )
        12           O   tau(  12) = (   0.3584726   0.5225410  -0.0089757  )
        13           O   tau(  13) = (  -0.0001733   1.2211724  -0.0089757  )
        14           O   tau(  14) = (  -0.3581278   0.5236867  -0.0089757  )
        15           O   tau(  15) = (  -0.3544557   0.8718562  -0.0105593  )
        16           O   tau(  16) = (  -0.0038445   0.1743714  -0.0105593  )
        17           O   tau(  17) = (   0.3588818   0.3486599   0.1817056  )
        18           O   tau(  18) = (  -0.0005825   0.3486599   0.1817056  )
        19           O   tau(  19) = (  -0.0005825   0.0000830   0.1817056  )
        20           O   tau(  20) = (  -0.3577167   0.6975677   0.1817056  )
        21           O   tau(  21) = (   0.3584283   0.6967843   0.1825784  )
        22           O   tau(  22) = (  -0.3581712   0.3494443   0.1825784  )
        23           O   tau(  23) = (  -0.0001290   0.6967843   0.1825784  )
        24           O   tau(  24) = (  -0.0001290   1.0469291   0.1825784  )
        25           Ba  tau(  25) = (   0.1791506   0.8718562   0.1908537  )
        26           Ba  tau(  26) = (   0.5374498   0.5231143   0.1919901  )
        27           Ba  tau(  27) = (  -0.1791506   0.5231143   0.1919901  )
        28           Ba  tau(  28) = (  -0.1793773   0.8718562   0.1931958  )
        29           Ba  tau(  29) = (  -0.1789238   0.1743714   0.1931958  )
        30           Ba  tau(  30) = (   0.1791506   0.5222101   0.1929368  )
        31           Ba  tau(  31) = (  -0.5374498   0.5240176   0.1929368  )
        32           Ba  tau(  32) = (   0.1791506   0.1743714   0.1992469  )
        33           Cu  tau(  33) = (  -0.3583426   0.3488452   0.3777458  )
        34           Cu  tau(  34) = (   0.3582559   0.6973834   0.3777458  )
        35           Cu  tau(  35) = (   0.0000433   0.6973834   0.3777458  )
        36           Cu  tau(  36) = (   0.0000433   1.0463299   0.3777458  )
        37           Cu  tau(  37) = (  -0.3586541   0.6975060   0.3775126  )
        38           Cu  tau(  38) = (   0.3579444   0.3487217   0.3775126  )
        39           Cu  tau(  39) = (   0.0003549   0.0000212   0.3775126  )
        40           Cu  tau(  40) = (   0.0003549   0.3487217   0.3775126  )
        41           O   tau(  41) = (  -0.0047976   0.1743714   0.3996864  )
        42           O   tau(  42) = (  -0.3535026   0.8718562   0.3996864  )
        43           O   tau(  43) = (  -0.5374498   0.6924605   0.3956991  )
        44           O   tau(  44) = (   0.1791506   0.3537672   0.3956991  )
        45           O   tau(  45) = (   0.3586385   0.8718562   0.4046840  )
        46           O   tau(  46) = (  -0.0003392   0.8718562   0.4046840  )
        47           O   tau(  47) = (  -0.0004857   0.5230571   0.4066611  )
        48           O   tau(  48) = (   0.3587850   0.5230571   0.4066611  )
        49           O   tau(  49) = (  -0.3578135   0.5231714   0.4066611  )
        50           O   tau(  50) = (  -0.0004857   1.2206562   0.4066611  )
        51           O   tau(  51) = (   0.1791506   1.0461604   0.4028931  )
        52           O   tau(  52) = (   0.1791506   0.6975521   0.4028931  )
        53           O   tau(  53) = (  -0.1792261   0.6967170   0.4025963  )
        54           O   tau(  54) = (  -0.1790731   0.3495106   0.4025963  )
        55           O   tau(  55) = (  -0.1792261   1.0469964   0.4025963  )
        56           O   tau(  56) = (   0.5375263   0.6967170   0.4025963  )
        57           Ca  tau(  57) = (   0.1791506   0.1743714   0.5358617  )
        58           Y   tau(  58) = (  -0.1811525   0.8718562   0.5373908  )
        59           Y   tau(  59) = (  -0.1771467   0.1743714   0.5373908  )
        60           Y   tau(  60) = (   0.1791506   0.8718562   0.5379568  )
        61           Y   tau(  61) = (   0.5374498   0.5231143   0.5384490  )
        62           Y   tau(  62) = (  -0.1791506   0.5231143   0.5384490  )
        63           Y   tau(  63) = (   0.1791506   0.5216598   0.5383310  )
        64           Y   tau(  64) = (  -0.5374498   0.5245688   0.5383310  )
        65           O   tau(  65) = (  -0.1787754   0.3493171   0.6712314  )
        66           O   tau(  66) = (   0.5378231   0.6969115   0.6712314  )
        67           O   tau(  67) = (  -0.1795239   1.0468019   0.6712314  )
        68           O   tau(  68) = (  -0.1795239   0.6969115   0.6712314  )
        69           O   tau(  69) = (   0.1791506   0.6972691   0.6718637  )
        70           O   tau(  70) = (   0.1791506   1.0464433   0.6718637  )
        71           O   tau(  71) = (  -0.0003880   1.2203935   0.6667490  )
        72           O   tau(  72) = (  -0.0003880   0.5233198   0.6667490  )
        73           O   tau(  73) = (   0.3586882   0.5233198   0.6667490  )
        74           O   tau(  74) = (  -0.3579112   0.5229087   0.6667490  )
        75           O   tau(  75) = (   0.3585850   0.8718562   0.6641940  )
        76           O   tau(  76) = (  -0.0002857   0.8718562   0.6641940  )
        77           O   tau(  77) = (   0.1791506   0.3535118   0.6756778  )
        78           O   tau(  78) = (  -0.5374498   0.6927158   0.6756778  )
        79           O   tau(  79) = (  -0.0043044   0.1743714   0.6710848  )
        80           O   tau(  80) = (  -0.3539948   0.8718562   0.6710848  )
        81           Cu  tau(  81) = (  -0.3586514   0.6973604   0.6974442  )
        82           Cu  tau(  82) = (   0.3579472   0.3488682   0.6974442  )
        83           Cu  tau(  83) = (   0.0003521  -0.0001254   0.6974442  )
        84           Cu  tau(  84) = (   0.0003521   0.3488682   0.6974442  )
        85           Cu  tau(  85) = (   0.0000083   1.0459401   0.6989015  )
        86           Cu  tau(  86) = (  -0.3583076   0.3484544   0.6989015  )
        87           Cu  tau(  87) = (   0.3582910   0.6977733   0.6989015  )
        88           Cu  tau(  88) = (   0.0000083   0.6977733   0.6989015  )
        89           Ba  tau(  89) = (   0.1791506   0.1743714   0.8671591  )
        90           Ba  tau(  90) = (  -0.5374498   0.5239908   0.8827639  )
        91           Ba  tau(  91) = (   0.1791506   0.5222377   0.8827639  )
        92           Ba  tau(  92) = (  -0.1785616   0.1743714   0.8784262  )
        93           Ba  tau(  93) = (  -0.1797386   0.8718562   0.8784262  )
        94           Ba  tau(  94) = (  -0.1791506   0.5231143   0.8841483  )
        95           Ba  tau(  95) = (   0.5374498   0.5231143   0.8841483  )
        96           Ba  tau(  96) = (   0.1791506   0.8718562   0.8844635  )
        97           O   tau(  97) = (   0.3607888   0.6975991   0.9037874  )
        98           O   tau(  98) = (  -0.3558097   0.3486286   0.9037874  )
        99           O   tau(  99) = (  -0.0024896   0.6975991   0.9037874  )
       100           O   tau( 100) = (  -0.0024896   1.0461143   0.9037874  )
       101           O   tau( 101) = (   0.3544087   0.3463252   0.9043663  )
       102           O   tau( 102) = (   0.0038906   0.3463252   0.9043663  )
       103           O   tau( 103) = (   0.0038906   0.0024177   0.9043663  )
       104           O   tau( 104) = (  -0.3621908   0.6999025   0.9043663  )
       105           O   tau( 105) = (   0.3314246   0.8718562   1.0783672  )
       106           O   tau( 106) = (   0.0268747   0.8718562   1.0783672  )
       107           Cu  tau( 107) = (  -0.0027882   0.0031818   1.0782086  )
       108           Cu  tau( 108) = (  -0.0027882   0.3455601   1.0782086  )
       109           Cu  tau( 109) = (   0.3610875   0.3455601   1.0782086  )
       110           Cu  tau( 110) = (  -0.3555111   0.7006675   1.0782086  )
       111           Cu  tau( 111) = (   0.3579684   0.6983604   1.0781976  )
       112           Cu  tau( 112) = (   0.0003318   1.0453529   1.0781976  )
       113           Cu  tau( 113) = (  -0.3586320   0.3478672   1.0781976  )
       114           Cu  tau( 114) = (   0.0003318   0.6983604   1.0781976  )
       115           O   tau( 115) = (  -0.0055718   0.5218801   1.0778989  )
       116           O   tau( 116) = (   0.3638720   0.5218801   1.0778989  )
       117           O   tau( 117) = (  -0.0055718   1.2218333   1.0778989  )
       118           O   tau( 118) = (  -0.3527284   0.5243475   1.0778989  )
       119           O   tau( 119) = (  -0.3170374   0.8718562   1.0783192  )
       120           O   tau( 120) = (  -0.0412618   0.1743714   1.0783192  )
       121           O   tau( 121) = (   0.3544105   0.3465040   1.3442085  )
       122           O   tau( 122) = (   0.0038887   0.3465040   1.3442085  )
       123           O   tau( 123) = (   0.0038887   0.0022389   1.3442085  )
       124           O   tau( 124) = (  -0.3621880   0.6997236   1.3442085  )
       125           O   tau( 125) = (   0.3607981   0.6973991   1.3447698  )
       126           O   tau( 126) = (  -0.3558014   0.3488295   1.3447698  )
       127           O   tau( 127) = (  -0.0024988   0.6973991   1.3447698  )
       128           O   tau( 128) = (  -0.0024988   1.0463143   1.3447698  )
       129           Ba  tau( 129) = (   0.1791506   0.8718562   1.3641251  )
       130           Ba  tau( 130) = (   0.5374498   0.5231143   1.3644486  )
       131           Ba  tau( 131) = (  -0.1791506   0.5231143   1.3644486  )
       132           Ba  tau( 132) = (  -0.1796732   0.8718562   1.3701485  )
       133           Ba  tau( 133) = (  -0.1786270   0.1743714   1.3701485  )
       134           Ba  tau( 134) = (   0.1791506   0.5222571   1.3658763  )
       135           Ba  tau( 135) = (  -0.5374498   0.5239706   1.3658763  )
       136           Ba  tau( 136) = (   0.1791506   0.1743714   1.3813991  )
       137           Cu  tau( 137) = (  -0.3583094   0.3484682   1.5496954  )
       138           Cu  tau( 138) = (   0.3582901   0.6977604   1.5496954  )
       139           Cu  tau( 139) = (   0.0000101   0.6977604   1.5496954  )
       140           Cu  tau( 140) = (   0.0000101   1.0459530   1.5496954  )
       141           Cu  tau( 141) = (  -0.3586477   0.6973567   1.5511158  )
       142           Cu  tau( 142) = (   0.3579518   0.3488710   1.5511158  )
       143           Cu  tau( 143) = (   0.0003484  -0.0001281   1.5511158  )
       144           Cu  tau( 144) = (   0.0003484   0.3488710   1.5511158  )
       145           O   tau( 145) = (  -0.0043173   0.1743714   1.5774208  )
       146           O   tau( 146) = (  -0.3539819   0.8718562   1.5774208  )
       147           O   tau( 147) = (  -0.5374498   0.6927305   1.5728896  )
       148           O   tau( 148) = (   0.1791506   0.3534971   1.5728896  )
       149           O   tau( 149) = (   0.3585795   0.8718562   1.5843310  )
       150           O   tau( 150) = (  -0.0002802   0.8718562   1.5843310  )
       151           O   tau( 151) = (  -0.0003853   0.5233134   1.5818349  )
       152           O   tau( 152) = (   0.3586855   0.5233134   1.5818349  )
       153           O   tau( 153) = (  -0.3579140   0.5229152   1.5818349  )
       154           O   tau( 154) = (  -0.0003853   1.2204000   1.5818349  )
       155           O   tau( 155) = (   0.1791506   1.0464553   1.5767083  )
       156           O   tau( 156) = (   0.1791506   0.6972571   1.5767083  )
       157           O   tau( 157) = (  -0.1795146   0.6969069   1.5773369  )
       158           O   tau( 158) = (  -0.1787846   0.3493208   1.5773369  )
       159           O   tau( 159) = (  -0.1795146   1.0468065   1.5773369  )
       160           O   tau( 160) = (   0.5378139   0.6969069   1.5773369  )
       161           Ca  tau( 161) = (   0.1791506   0.1743714   1.7126992  )
       162           Y   tau( 162) = (  -0.1811544   0.8718562   1.7111683  )
       163           Y   tau( 163) = (  -0.1771449   0.1743714   1.7111683  )
       164           Y   tau( 164) = (   0.1791506   0.8718562   1.7106051  )
       165           Y   tau( 165) = (   0.5374498   0.5231143   1.7101359  )
       166           Y   tau( 166) = (  -0.1791506   0.5231143   1.7101359  )
       167           Y   tau( 167) = (   0.1791506   0.5216524   1.7102567  )
       168           Y   tau( 168) = (  -0.5374498   0.5245761   1.7102567  )
       169           O   tau( 169) = (  -0.1790685   0.3495088   1.8459711  )
       170           O   tau( 170) = (   0.5375300   0.6967198   1.8459711  )
       171           O   tau( 171) = (  -0.1792307   1.0469936   1.8459711  )
       172           O   tau( 172) = (  -0.1792307   0.6967198   1.8459711  )
       173           O   tau( 173) = (   0.1791506   0.6975604   1.8456743  )
       174           O   tau( 174) = (   0.1791506   1.0461521   1.8456743  )
       175           O   tau( 175) = (  -0.0004848   1.2206534   1.8419100  )
       176           O   tau( 176) = (  -0.0004848   0.5230599   1.8419100  )
       177           O   tau( 177) = (   0.3587841   0.5230599   1.8419100  )
       178           O   tau( 178) = (  -0.3578144   0.5231687   1.8419100  )
       179           O   tau( 179) = (   0.3586468   0.8718562   1.8438483  )
       180           O   tau( 180) = (  -0.0003466   0.8718562   1.8438483  )
       181           O   tau( 181) = (   0.1791506   0.3537690   1.8528711  )
       182           O   tau( 182) = (  -0.5374498   0.6924586   1.8528711  )
       183           O   tau( 183) = (  -0.0047874   0.1743714   1.8488358  )
       184           O   tau( 184) = (  -0.3535118   0.8718562   1.8488358  )
       185           Cu  tau( 185) = (  -0.3586560   0.6975087   1.8710419  )
       186           Cu  tau( 186) = (   0.3579435   0.3487198   1.8710419  )
       187           Cu  tau( 187) = (   0.0003567   0.0000230   1.8710419  )
       188           Cu  tau( 188) = (   0.0003567   0.3487198   1.8710419  )
       189           Cu  tau( 189) = (   0.0000415   1.0463263   1.8708096  )
       190           Cu  tau( 190) = (  -0.3583407   0.3488406   1.8708096  )
       191           Cu  tau( 191) = (   0.3582587   0.6973871   1.8708096  )
       192           Cu  tau( 192) = (   0.0000415   0.6973871   1.8708096  )
       193           Ba  tau( 193) = (   0.1791506   0.1743714   2.0493150  )
       194           Ba  tau( 194) = (  -0.5374498   0.5240166   2.0556242  )
       195           Ba  tau( 195) = (   0.1791506   0.5222119   2.0556242  )
       196           Ba  tau( 196) = (  -0.1789220   0.1743714   2.0553679  )
       197           Ba  tau( 197) = (  -0.1793773   0.8718562   2.0553679  )
       198           Ba  tau( 198) = (  -0.1791506   0.5231143   2.0565782  )
       199           Ba  tau( 199) = (   0.5374498   0.5231143   2.0565782  )
       200           Ba  tau( 200) = (   0.1791506   0.8718562   2.0577063  )
       201           O   tau( 201) = (   0.3584302   0.6967870   2.0659760  )
       202           O   tau( 202) = (  -0.3581684   0.3494406   2.0659760  )
       203           O   tau( 203) = (  -0.0001309   0.6967870   2.0659760  )
       204           O   tau( 204) = (  -0.0001309   1.0469263   2.0659760  )
       205           O   tau( 205) = (   0.3588800   0.3486562   2.0668489  )
       206           O   tau( 206) = (  -0.0005807   0.3486562   2.0668489  )
       207           O   tau( 207) = (  -0.0005807   0.0000866   2.0668489  )
       208           O   tau( 208) = (  -0.3577186   0.6975714   2.0668489  )
       209           O   tau( 209) = (   0.3545921   0.8718562   2.2562794  )
       210           O   tau( 210) = (   0.0037081   0.8718562   2.2562794  )
       211           Cu  tau( 211) = (  -0.0002516   0.0006074   2.2404756  )
       212           Cu  tau( 212) = (  -0.0002516   0.3481345   2.2404756  )
       213           Cu  tau( 213) = (   0.3585509   0.3481345   2.2404756  )
       214           Cu  tau( 214) = (  -0.3580476   0.6980931   2.2404756  )
       215           Cu  tau( 215) = (   0.3577960   0.6971373   2.2399290  )
       216           Cu  tau( 216) = (   0.0005033   1.0465760   2.2399290  )
       217           Cu  tau( 217) = (  -0.3588035   0.3490903   2.2399290  )
       218           Cu  tau( 218) = (   0.0005033   0.6971373   2.2399290  )
       219           O   tau( 219) = (  -0.0001724   0.5225410   2.2575182  )
       220           O   tau( 220) = (   0.3584716   0.5225410   2.2575182  )
       221           O   tau( 221) = (  -0.0001724   1.2211724   2.2575182  )
       222           O   tau( 222) = (  -0.3581288   0.5236867   2.2575182  )
       223           O   tau( 223) = (  -0.3544640   0.8718562   2.2591082  )
       224           O   tau( 224) = (  -0.0038353   0.1743714   2.2591082  )

     number of k points=     4  Gaussian smearing, width (Ry)=  0.0100
                       cart. coord. in units 2pi/alat
        k(    1) = (   0.0000000   0.0000000   0.0000000), wk =   0.2222222
        k(    2) = (   0.2325801   0.2389537   0.0000000), wk =   0.8888889
        k(    3) = (   0.0000000   0.4779073   0.0000000), wk =   0.4444444
        k(    4) = (  -0.4651601  -0.0000000   0.0000000), wk =   0.4444444

     Dense  grid: 11526673 G-vectors     FFT dimensions: ( 180, 180, 720)

     Smooth grid:  2218529 G-vectors     FFT dimensions: ( 108, 108, 432)

     Estimated max dynamical RAM per process >       2.41 GB

     Estimated total dynamical RAM >     192.54 GB

     Initial potential from superposition of free atoms

     starting charge 1828.78422, renormalised to 1830.00000

     negative rho (up, down):  6.303E-01 0.000E+00
     Starting wfcs are 1602 randomized atomic wfcs

     total cpu time spent up to now is       58.2 secs

     Self-consistent Calculation

     iteration #  1     ecut=    60.00 Ry     beta= 0.50
     Davidson diagonalization with overlap
     ethr =  1.00E-02,  avg # of iterations =  2.0

     negative rho (up, down):  5.991E-01 0.000E+00

     total cpu time spent up to now is      154.8 secs

     total energy              =  -14912.87774293 Ry
     Harris-Foulkes estimate   =  -14942.73071265 Ry
     estimated scf accuracy    <     106.98769236 Ry

     iteration #  2     ecut=    60.00 Ry     beta= 0.50
     Davidson diagonalization with overlap
     ethr =  5.85E-03,  avg # of iterations =  2.0

     negative rho (up, down):  5.992E-01 0.000E+00

     total cpu time spent up to now is      249.7 secs

     total energy              =  -14922.62325412 Ry
     Harris-Foulkes estimate   =  -14926.29149828 Ry
     estimated scf accuracy    <      16.74247664 Ry

     iteration #  3     ecut=    60.00 Ry     beta= 0.50
     Davidson diagonalization with overlap
     ethr =  9.15E-04,  avg # of iterations =  2.0

     negative rho (up, down):  6.022E-01 0.000E+00

     total cpu time spent up to now is      351.0 secs

     total energy              =  -14924.38429709 Ry
     Harris-Foulkes estimate   =  -14925.47899319 Ry
     estimated scf accuracy    <      25.75395297 Ry

     iteration #  4     ecut=    60.00 Ry     beta= 0.50
     Davidson diagonalization with overlap
     ethr =  9.15E-04,  avg # of iterations =  1.0

     negative rho (up, down):  6.113E-01 0.000E+00

     total cpu time spent up to now is      438.5 secs

     total energy              =  -14924.32942803 Ry
     Harris-Foulkes estimate   =  -14924.84110719 Ry
     estimated scf accuracy    <       4.40263752 Ry

     iteration #  5     ecut=    60.00 Ry     beta= 0.50
     Davidson diagonalization with overlap
     ethr =  2.41E-04,  avg # of iterations =  9.2

     negative rho (up, down):  6.168E-01 0.000E+00

     total cpu time spent up to now is      558.7 secs

     total energy              =  -14924.35290279 Ry
     Harris-Foulkes estimate   =  -14924.52812740 Ry
     estimated scf accuracy    <       7.15714005 Ry

     iteration #  6     ecut=    60.00 Ry     beta= 0.50
     Davidson diagonalization with overlap
     ethr =  2.41E-04,  avg # of iterations =  1.0

     negative rho (up, down):  6.238E-01 0.000E+00

     total cpu time spent up to now is      646.2 secs

     total energy              =  -14924.31279196 Ry
     Harris-Foulkes estimate   =  -14924.41857246 Ry
     estimated scf accuracy    <       2.90910101 Ry

     iteration #  7     ecut=    60.00 Ry     beta= 0.50
     Davidson diagonalization with overlap
     ethr =  1.59E-04,  avg # of iterations =  4.0

     negative rho (up, down):  6.282E-01 0.000E+00

     total cpu time spent up to now is      744.6 secs

     total energy              =  -14924.31955810 Ry
     Harris-Foulkes estimate   =  -14924.36648634 Ry
     estimated scf accuracy    <       4.37717314 Ry

     iteration #  8     ecut=    60.00 Ry     beta= 0.50
     Davidson diagonalization with overlap
     ethr =  1.59E-04,  avg # of iterations =  1.0

     negative rho (up, down):  6.311E-01 0.000E+00

     total cpu time spent up to now is      832.7 secs

     total energy              =  -14924.30475789 Ry
     Harris-Foulkes estimate   =  -14924.34474550 Ry
     estimated scf accuracy    <       2.23059416 Ry

     iteration #  9     ecut=    60.00 Ry     beta= 0.50
     Davidson diagonalization with overlap
     ethr =  1.22E-04,  avg # of iterations =  2.8

     negative rho (up, down):  6.314E-01 0.000E+00

     total cpu time spent up to now is      925.4 secs

     total energy              =  -14924.28262507 Ry
     Harris-Foulkes estimate   =  -14924.31784541 Ry
     estimated scf accuracy    <       1.35668685 Ry

     iteration # 10     ecut=    60.00 Ry     beta= 0.50
     Davidson diagonalization with overlap
     ethr =  7.41E-05,  avg # of iterations = 12.2

     negative rho (up, down):  6.315E-01 0.000E+00

     total cpu time spent up to now is     1057.4 secs

     total energy              =  -14924.25844200 Ry
     Harris-Foulkes estimate   =  -14924.29232757 Ry
     estimated scf accuracy    <       0.89881099 Ry

     iteration # 11     ecut=    60.00 Ry     beta= 0.50
     Davidson diagonalization with overlap
     ethr =  4.91E-05,  avg # of iterations =  8.0

     negative rho (up, down):  6.310E-01 0.000E+00

     total cpu time spent up to now is     1171.6 secs

     total energy              =  -14924.24431791 Ry
     Harris-Foulkes estimate   =  -14924.26523688 Ry
     estimated scf accuracy    <       0.41559936 Ry

     iteration # 12     ecut=    60.00 Ry     beta= 0.50
     Davidson diagonalization with overlap
     ethr =  2.27E-05,  avg # of iterations =  9.5

     negative rho (up, down):  6.298E-01 0.000E+00

     total cpu time spent up to now is     1292.7 secs

     total energy              =  -14924.23979612 Ry
     Harris-Foulkes estimate   =  -14924.24879938 Ry
     estimated scf accuracy    <       0.19845228 Ry

     iteration # 13     ecut=    60.00 Ry     beta= 0.50
     Davidson diagonalization with overlap
     ethr =  1.08E-05,  avg # of iterations =  6.5

     negative rho (up, down):  6.414E-01 0.000E+00

     total cpu time spent up to now is     1398.8 secs

     total energy              =  -14924.23500554 Ry
     Harris-Foulkes estimate   =  -14924.24206104 Ry
     estimated scf accuracy    <       0.19340749 Ry

     iteration # 14     ecut=    60.00 Ry     beta= 0.50
     Davidson diagonalization with overlap
     ethr =  1.06E-05,  avg # of iterations =  9.0

     negative rho (up, down):  7.124E-01 0.000E+00

     total cpu time spent up to now is     1515.0 secs

     total energy              =  -14924.22689725 Ry
     Harris-Foulkes estimate   =  -14924.23586998 Ry
     estimated scf accuracy    <       0.11991170 Ry

     iteration # 15     ecut=    60.00 Ry     beta= 0.50
     Davidson diagonalization with overlap
     ethr =  6.55E-06,  avg # of iterations = 12.0

     negative rho (up, down):  7.450E-01 0.000E+00

     total cpu time spent up to now is     1657.8 secs

     total energy              =  -14924.22079230 Ry
     Harris-Foulkes estimate   =  -14924.22838021 Ry
     estimated scf accuracy    <       0.07025062 Ry

     iteration # 16     ecut=    60.00 Ry     beta= 0.50
     Davidson diagonalization with overlap
     c_bands:  1 eigenvalues not converged
     ethr =  3.84E-06,  avg # of iterations = 14.5

     negative rho (up, down):  7.643E-01 0.000E+00

     total cpu time spent up to now is     1799.9 secs

     total energy              =  -14924.21541297 Ry
     Harris-Foulkes estimate   =  -14924.22227798 Ry
     estimated scf accuracy    <       0.05223715 Ry

     iteration # 17     ecut=    60.00 Ry     beta= 0.50
     Davidson diagonalization with overlap
     ethr =  2.85E-06,  avg # of iterations = 12.0

     negative rho (up, down):  7.612E-01 0.000E+00

     total cpu time spent up to now is     1933.5 secs

     total energy              =  -14924.21148827 Ry
     Harris-Foulkes estimate   =  -14924.21631913 Ry
     estimated scf accuracy    <       0.03292944 Ry

     iteration # 18     ecut=    60.00 Ry     beta= 0.50
     Davidson diagonalization with overlap
     ethr =  1.80E-06,  avg # of iterations = 16.0

     negative rho (up, down):  7.314E-01 0.000E+00

     total cpu time spent up to now is     2088.0 secs

     total energy              =  -14924.20793232 Ry
     Harris-Foulkes estimate   =  -14924.21188933 Ry
     estimated scf accuracy    <       0.02209427 Ry

     iteration # 19     ecut=    60.00 Ry     beta= 0.50
     Davidson diagonalization with overlap
     c_bands:  2 eigenvalues not converged
     c_bands:  1 eigenvalues not converged
     ethr =  1.21E-06,  avg # of iterations = 15.5

     negative rho (up, down):  7.504E-01 0.000E+00

     total cpu time spent up to now is     2234.7 secs

     total energy              =  -14924.20605921 Ry
     Harris-Foulkes estimate   =  -14924.20835248 Ry
     estimated scf accuracy    <       0.01546731 Ry

     iteration # 20     ecut=    60.00 Ry     beta= 0.50
     Davidson diagonalization with overlap
     ethr =  8.45E-07,  avg # of iterations = 12.2

     negative rho (up, down):  7.069E-01 0.000E+00

     total cpu time spent up to now is     2378.4 secs

     total energy              =  -14924.20505874 Ry
     Harris-Foulkes estimate   =  -14924.20640151 Ry
     estimated scf accuracy    <       0.00873032 Ry

     iteration # 21     ecut=    60.00 Ry     beta= 0.50
     Davidson diagonalization with overlap
     ethr =  4.77E-07,  avg # of iterations =  4.8

     negative rho (up, down):  6.590E-01 0.000E+00

     total cpu time spent up to now is     2480.6 secs

     total energy              =  -14924.20437708 Ry
     Harris-Foulkes estimate   =  -14924.20527221 Ry
     estimated scf accuracy    <       0.00258431 Ry

     iteration # 22     ecut=    60.00 Ry     beta= 0.50
     Davidson diagonalization with overlap
     c_bands:  1 eigenvalues not converged
     c_bands:  3 eigenvalues not converged
     c_bands:  1 eigenvalues not converged
     ethr =  1.41E-07,  avg # of iterations = 17.2

     negative rho (up, down):  6.355E-01 0.000E+00

     total cpu time spent up to now is     2638.3 secs

     total energy              =  -14924.20458181 Ry
     Harris-Foulkes estimate   =  -14924.20446663 Ry
     estimated scf accuracy    <       0.00112056 Ry

     iteration # 23     ecut=    60.00 Ry     beta= 0.50
     Davidson diagonalization with overlap
     c_bands:  2 eigenvalues not converged
     c_bands:  1 eigenvalues not converged
     ethr =  6.12E-08,  avg # of iterations = 15.2

     negative rho (up, down):  6.419E-01 0.000E+00

     total cpu time spent up to now is     2783.8 secs

     total energy              =  -14924.20475279 Ry
     Harris-Foulkes estimate   =  -14924.20463167 Ry
     estimated scf accuracy    <       0.00043078 Ry

     iteration # 24     ecut=    60.00 Ry     beta= 0.50
     Davidson diagonalization with overlap
     ethr =  2.35E-08,  avg # of iterations =  4.8

     negative rho (up, down):  6.348E-01 0.000E+00

     total cpu time spent up to now is     2886.5 secs

     total energy              =  -14924.20488471 Ry
     Harris-Foulkes estimate   =  -14924.20477916 Ry
     estimated scf accuracy    <       0.00037081 Ry

     iteration # 25     ecut=    60.00 Ry     beta= 0.50
     Davidson diagonalization with overlap
     c_bands:  2 eigenvalues not converged
     c_bands:  1 eigenvalues not converged
     ethr =  2.03E-08,  avg # of iterations = 15.5

     negative rho (up, down):  6.350E-01 0.000E+00

     total cpu time spent up to now is     3027.0 secs

     total energy              =  -14924.20487875 Ry
     Harris-Foulkes estimate   =  -14924.20489317 Ry
     estimated scf accuracy    <       0.00011137 Ry

     iteration # 26     ecut=    60.00 Ry     beta= 0.50
     Davidson diagonalization with overlap
     ethr =  6.09E-09,  avg # of iterations =  5.8

     negative rho (up, down):  6.346E-01 0.000E+00

     total cpu time spent up to now is     3131.3 secs

     total energy              =  -14924.20488078 Ry
     Harris-Foulkes estimate   =  -14924.20488781 Ry
     estimated scf accuracy    <       0.00006480 Ry

     iteration # 27     ecut=    60.00 Ry     beta= 0.50
     Davidson diagonalization with overlap
     ethr =  3.54E-09,  avg # of iterations =  1.2

     negative rho (up, down):  6.350E-01 0.000E+00

     total cpu time spent up to now is     3219.3 secs

     total energy              =  -14924.20488310 Ry
     Harris-Foulkes estimate   =  -14924.20488601 Ry
     estimated scf accuracy    <       0.00005781 Ry

     iteration # 28     ecut=    60.00 Ry     beta= 0.50
     Davidson diagonalization with overlap
     ethr =  3.16E-09,  avg # of iterations =  1.0

     negative rho (up, down):  6.350E-01 0.000E+00

     total cpu time spent up to now is     3305.6 secs

     total energy              =  -14924.20488452 Ry
     Harris-Foulkes estimate   =  -14924.20488461 Ry
     estimated scf accuracy    <       0.00001962 Ry

     iteration # 29     ecut=    60.00 Ry     beta= 0.50
     Davidson diagonalization with overlap
     ethr =  1.07E-09,  avg # of iterations =  1.0

     negative rho (up, down):  6.344E-01 0.000E+00

     total cpu time spent up to now is     3393.3 secs

     total energy              =  -14924.20488494 Ry
     Harris-Foulkes estimate   =  -14924.20488486 Ry
     estimated scf accuracy    <       0.00000899 Ry

     iteration # 30     ecut=    60.00 Ry     beta= 0.50
     Davidson diagonalization with overlap
     ethr =  4.91E-10,  avg # of iterations =  1.0

     negative rho (up, down):  6.344E-01 0.000E+00

     total cpu time spent up to now is     3480.7 secs

     total energy              =  -14924.20488494 Ry
     Harris-Foulkes estimate   =  -14924.20488512 Ry
     estimated scf accuracy    <       0.00000455 Ry

     iteration # 31     ecut=    60.00 Ry     beta= 0.50
     Davidson diagonalization with overlap
     ethr =  2.49E-10,  avg # of iterations =  1.5

     negative rho (up, down):  6.344E-01 0.000E+00

     total cpu time spent up to now is     3569.0 secs

     total energy              =  -14924.20488493 Ry
     Harris-Foulkes estimate   =  -14924.20488509 Ry
     estimated scf accuracy    <       0.00000258 Ry

     iteration # 32     ecut=    60.00 Ry     beta= 0.50
     Davidson diagonalization with overlap
     ethr =  1.41E-10,  avg # of iterations =  1.0

     negative rho (up, down):  6.344E-01 0.000E+00

     total cpu time spent up to now is     3656.5 secs

     total energy              =  -14924.20488498 Ry
     Harris-Foulkes estimate   =  -14924.20488501 Ry
     estimated scf accuracy    <       0.00000191 Ry

     iteration # 33     ecut=    60.00 Ry     beta= 0.50
     Davidson diagonalization with overlap
     ethr =  1.04E-10,  avg # of iterations =  1.0

     negative rho (up, down):  6.347E-01 0.000E+00

     total cpu time spent up to now is     3743.7 secs

     total energy              =  -14924.20488452 Ry
     Harris-Foulkes estimate   =  -14924.20488503 Ry
     estimated scf accuracy    <       0.00000070 Ry

     iteration # 34     ecut=    60.00 Ry     beta= 0.50
     Davidson diagonalization with overlap
     ethr =  3.83E-11,  avg # of iterations =  2.0

     negative rho (up, down):  6.349E-01 0.000E+00

     total cpu time spent up to now is     3834.0 secs

     total energy              =  -14924.20488409 Ry
     Harris-Foulkes estimate   =  -14924.20488454 Ry
     estimated scf accuracy    <       0.00000063 Ry

     iteration # 35     ecut=    60.00 Ry     beta= 0.50
     Davidson diagonalization with overlap
     ethr =  3.42E-11,  avg # of iterations =  1.5

     negative rho (up, down):  6.351E-01 0.000E+00

     total cpu time spent up to now is     3923.0 secs

     total energy              =  -14924.20488391 Ry
     Harris-Foulkes estimate   =  -14924.20488409 Ry
     estimated scf accuracy    <       0.00000037 Ry

     iteration # 36     ecut=    60.00 Ry     beta= 0.50
     Davidson diagonalization with overlap
     ethr =  2.03E-11,  avg # of iterations =  1.2

     negative rho (up, down):  6.351E-01 0.000E+00

     total cpu time spent up to now is     4010.5 secs

     total energy              =  -14924.20488388 Ry
     Harris-Foulkes estimate   =  -14924.20488391 Ry
     estimated scf accuracy    <       0.00000012 Ry

     iteration # 37     ecut=    60.00 Ry     beta= 0.50
     Davidson diagonalization with overlap
     ethr =  6.31E-12,  avg # of iterations =  2.0

     negative rho (up, down):  6.351E-01 0.000E+00

     total cpu time spent up to now is     4101.2 secs

     total energy              =  -14924.20488387 Ry
     Harris-Foulkes estimate   =  -14924.20488388 Ry
     estimated scf accuracy    <       0.00000006 Ry

     iteration # 38     ecut=    60.00 Ry     beta= 0.50
     Davidson diagonalization with overlap
     ethr =  3.01E-12,  avg # of iterations =  1.2

     negative rho (up, down):  6.351E-01 0.000E+00

     total cpu time spent up to now is     4188.8 secs

     total energy              =  -14924.20488388 Ry
     Harris-Foulkes estimate   =  -14924.20488387 Ry
     estimated scf accuracy    <       0.00000001 Ry

     iteration # 39     ecut=    60.00 Ry     beta= 0.50
     Davidson diagonalization with overlap
     ethr =  7.93E-13,  avg # of iterations =  3.0

     negative rho (up, down):  6.351E-01 0.000E+00

     total cpu time spent up to now is     4280.4 secs

     End of self-consistent calculation

          k = 0.0000 0.0000 0.0000 (277337 PWs)   bands (ev):

   -38.0464 -38.0195 -38.0168 -38.0114 -38.0105 -38.0000 -37.9979 -37.9928
   -37.9637 -37.9608 -37.9518 -37.9500 -37.9421 -37.9364 -35.5850 -35.5214
   -22.6652 -22.6573 -22.5545 -22.5463 -22.5398 -22.5355 -22.5313 -22.5281
   -22.5201 -22.5190 -22.5118 -22.5114 -22.5020 -22.4941 -22.4926 -22.4178
   -22.4162 -22.4082 -22.3958 -22.3905 -22.3598 -22.3571 -22.3516 -22.3342
   -22.2725 -22.2518 -22.2386 -22.2171 -22.2165 -22.1902 -22.1244 -21.9738
   -18.6291 -18.5916 -18.5737 -18.5457 -18.5408 -18.5373 -18.5142 -18.4923
   -18.4917 -18.4656 -18.3597 -18.3463 -18.3458 -18.3363 -18.3320 -18.3276
   -18.3257 -18.3173 -18.3164 -18.3101 -18.3026 -18.2988 -18.2942 -18.2895
   -18.2836 -18.2772 -18.2756 -18.2739 -18.2624 -18.2612 -18.2532 -18.2465
   -18.1463 -18.1412 -18.1182 -18.0954 -18.0854 -18.0661 -18.0221 -18.0139
   -17.9645 -17.9567 -16.8430 -16.8157 -16.8084 -16.7806 -16.7513 -16.7469
   -15.3700 -15.3307 -14.7976 -14.7733 -14.7212 -14.6892 -14.6868 -14.6781
   -14.6703 -14.6669 -14.6575 -14.6460 -14.6411 -14.6401 -14.5952 -14.5590
   -14.5557 -14.5060 -14.5059 -14.4880 -14.4871 -14.4805 -14.4783 -14.4488
   -14.4355 -14.4323 -14.4320 -14.4312 -14.4262 -14.4107 -14.3958 -14.3918
   -14.3892 -14.3646 -14.3493 -14.3398 -14.3379 -14.2769 -14.2765 -14.2662
   -14.2651 -14.2612 -14.2562 -14.2473 -14.2456 -14.1925 -14.1881 -14.1852
   -14.1683 -14.1659 -14.1635 -14.1511 -14.1477 -14.1356 -14.1351 -14.1331
   -14.1129 -14.1077 -14.1070 -14.1035 -14.0977 -14.0819 -14.0674 -14.0660
   -14.0428 -14.0258 -14.0201 -14.0197 -14.0067 -14.0028 -13.9980 -13.9781
   -13.9768 -13.9672 -13.9544 -13.9381 -13.9378 -13.9301 -13.9265 -13.8930
   -13.8922 -13.8829 -13.8803 -13.8755 -13.8562 -13.8153 -13.8036 -13.7819
   -13.6930 -13.6853 -13.6840 -13.6748 -13.6520 -13.6510 -13.6495 -13.6484
   -13.6416 -13.6400 -13.6391 -13.6375 -13.6099 -13.5927 -13.5809 -13.5798
   -13.5683 -13.5680 -13.5283 -13.4889 -13.4136 -13.4015 -13.4002 -13.3738
   -12.7354 -12.7195 -12.5358 -12.5356 -12.5303 -12.5265 -12.3892 -12.2759
    -8.6238  -8.6163  -8.3848  -8.3368  -8.3289  -8.1441  -8.1139  -8.1101
    -8.1063  -8.1024  -8.0994  -8.0979  -8.0904  -8.0864  -8.0788  -7.9886
    -7.9056  -7.8972  -7.8833  -7.8785  -7.8777  -7.8704  -7.8673  -7.8612
    -7.8601  -7.8585  -7.8572  -7.8521  -7.8368  -7.8325  -7.8290  -7.8283
    -7.8243  -7.8202  -7.8131  -7.7685  -7.7605  -7.7585  -7.7481  -7.7395
    -7.7321  -7.7220  -7.7198  -7.7127  -7.7038  -7.6897  -7.6785  -7.6766
    -7.6630  -7.6553  -7.6549  -7.6524  -7.6479  -7.6344  -7.6222  -7.6147
    -7.5956  -7.5893  -7.5717  -7.5644  -7.5574  -7.5091  -7.5083  -7.5013
    -7.5004  -7.4870  -7.4815  -7.4793  -7.4739  -7.4728  -7.4653  -7.4442
    -7.4440  -7.3989  -7.3981  -7.3731  -7.3654  -7.3590  -7.3542  -7.3464
    -7.3038  -7.2976  -7.2833  -7.2647  -7.2532  -7.2399  -7.2130  -7.1455
    -7.1445  -7.0989  -7.0923  -7.0761  -7.0707  -7.0352  -6.9465  -6.9428
    -4.1202  -4.0729  -3.5770  -3.5084  -3.0958  -3.0806  -2.9807  -2.9734
    -2.9728  -2.9365  -2.9306  -2.9293  -2.9060  -2.8988  -2.8772  -2.8654
    -2.8599  -2.8232  -2.7612  -2.7500  -2.7279  -2.6842  -2.6738  -2.6636
    -2.6501  -2.6120  -2.6006  -2.5946  -2.5940  -2.5596  -2.5414  -2.5325
    -2.5269  -2.5164  -2.4159  -2.3757  -2.3352  -2.3347  -2.2223  -2.1680
    -2.1065  -2.1045  -2.0882  -2.0857  -2.0806  -2.0778  -2.0763  -2.0710
    -2.0374  -2.0354  -2.0262  -2.0226  -1.9780  -1.9777  -1.9752  -1.9684
    -1.9513  -1.9401  -1.9122  -1.9084  -1.9034  -1.9017  -1.9001  -1.8955
    -1.8945  -1.8920  -1.8896  -1.8865  -1.8863  -1.8803  -1.8734  -1.8722
    -1.8109  -1.7897  -1.7867  -1.7800  -1.7792  -1.7778  -1.7756  -1.7703
    -1.7545  -1.7536  -1.7253  -1.7115  -1.7031  -1.6950  -1.6947  -1.6927
    -1.6893  -1.6878  -1.6872  -1.6833  -1.6807  -1.6729  -1.6724  -1.6424
    -1.6291  -1.5992  -1.5829  -1.5668  -1.5486  -1.5214  -1.5051  -1.4741
    -1.4504  -1.4363  -1.4346  -1.4331  -1.4323  -1.4185  -1.4160  -1.4147
    -1.4081  -1.4058  -1.4016  -1.3991  -1.3820  -1.3741  -1.3516  -1.3291
    -1.3270  -1.3232  -1.3185  -1.3126  -1.3033  -1.2872  -1.2865  -1.2775
    -1.2714  -1.2628  -1.2622  -1.2424  -1.2382  -1.2283  -1.2261  -1.2029
    -1.1787  -1.1472  -1.1404  -1.1361  -1.1305  -1.1040  -1.1004  -1.0216
    -1.0173  -0.9845  -0.9498  -0.9431  -0.9371  -0.9054  -0.9003  -0.8738
    -0.8714  -0.8474  -0.8037  -0.8012  -0.7915  -0.7829  -0.7814  -0.7786
    -0.7739  -0.7684  -0.7578  -0.7559  -0.7516  -0.7461  -0.7447  -0.7437
    -0.7215  -0.7114  -0.7069  -0.6952  -0.6836  -0.6739  -0.6677  -0.6538
    -0.6461  -0.6267  -0.6236  -0.6229  -0.6139  -0.6074  -0.5992  -0.5919
    -0.5868  -0.5655  -0.5414  -0.5404  -0.5392  -0.5384  -0.5321  -0.5276
    -0.5235  -0.5027  -0.4961  -0.4900  -0.4613  -0.4515  -0.4482  -0.4328
    -0.4281  -0.4165  -0.3900  -0.3786  -0.3507  -0.3304  -0.3205  -0.3177
    -0.3126  -0.2953  -0.2868  -0.2847  -0.2795  -0.2709  -0.2694  -0.2621
    -0.2517  -0.1931  -0.1897  -0.1870  -0.1546  -0.1456  -0.1423  -0.1333
    -0.1243  -0.1237  -0.1079  -0.1010  -0.0990  -0.0982  -0.0948  -0.0855
    -0.0828  -0.0804  -0.0790  -0.0567  -0.0542  -0.0483  -0.0477  -0.0332
    -0.0276  -0.0274  -0.0187  -0.0183  -0.0124  -0.0117  -0.0059  -0.0054
    -0.0041   0.0040   0.0052   0.0095   0.0140   0.0219   0.0302   0.0329
     0.0434   0.0453   0.0491   0.0491   0.0637   0.0679   0.1054   0.1229
     0.1295   0.1388   0.1439   0.1538   0.1542   0.1569   0.1790   0.1909
     0.1949   0.1974   0.1997   0.2052   0.2065   0.2209   0.2248   0.2587
     0.2842   0.2954   0.3070   0.3329   0.3395   0.3437   0.3595   0.3625
     0.4378   0.4384   0.4404   0.4433   0.4451   0.4462   0.4477   0.4536
     0.4572   0.5227   0.5310   0.5344   0.5348   0.5379   0.5474   0.5501
     0.5513   0.5571   0.5596   0.5634   0.5673   0.5803   0.5867   0.5998
     0.6002   0.6018   0.6097   0.6120   0.6134   0.6169   0.6218   0.6253
     0.6296   0.6364   0.6477   0.6500   0.6527   0.6579   0.6659   0.6670
     0.6749   0.7018   0.7021   0.7069   0.7200   0.7258   0.7341   0.7401
     0.7433   0.7564   0.7653   0.7683   0.7753   0.7886   0.7916   0.7958
     0.7983   0.8059   0.8084   0.8089   0.8115   0.8280   0.8302   0.8322
     0.8373   0.8439   0.8494   0.8605   0.8725   0.8758   0.8810   0.8867
     0.8910   0.8941   0.8978   0.8983   0.9114   0.9129   0.9413   0.9417
     0.9450   0.9501   0.9570   0.9739   0.9750   0.9776   1.0004   1.0334
     1.0903   1.1661   1.1893   1.2031   1.2057   1.2293   1.2364   1.2507
     1.2675   1.2794   1.2812   1.2843   1.2904   1.3049   1.3081   1.3083
     1.3136   1.3182   1.3183   1.3205   1.3219   1.3349   1.3355   1.3465
     1.3511   1.3683   1.3684   1.3718   1.3738   1.3798   1.3857   1.4001
     1.4012   1.4067   1.4111   1.4161   1.4271   1.4275   1.4334   1.4398
     1.4415   1.4416   1.4425   1.4443   1.4443   1.4479   1.4498   1.4506
     1.4569   1.4647   1.4652   1.4663   1.4778   1.4823   1.4826   1.4861
     1.4901   1.4997   1.5055   1.5133   1.5163   1.5197   1.5264   1.5311
     1.5367   1.5375   1.5408   1.5473   1.5542   1.5561   1.5630   1.5646
     1.5650   1.5691   1.5727   1.5742   1.5745   1.5771   1.5788   1.5819
     1.5869   1.5878   1.5968   1.5985   1.6003   1.6018   1.6029   1.6150
     1.6177   1.6190   1.6206   1.6296   1.6312   1.6347   1.6429   1.6466
     1.6512   1.6715   1.6755   1.6894   1.6954   1.6955   1.7000   1.7101
     1.7160   1.7253   1.7265   1.7440   1.7818   1.7846   1.8555   1.8556
     1.8570   1.8597   1.8613   1.8771   1.8805   1.8818   1.8823   1.8987
     1.9008   1.9054   1.9083   1.9090   1.9096   1.9325   1.9344   1.9372
     1.9393   1.9521   1.9570   1.9625   1.9672   1.9789   1.9857   1.9865
     1.9899   1.9921   2.0114   2.0186   2.0235   2.0345   2.0366   2.0521
     2.0544   2.0591   2.0686   2.0728   2.0740   2.0924   2.0947   2.0975
     2.1051   2.1077   2.1101   2.1253   2.1282   2.1310   2.1353   2.1391
     2.1422   2.1443   2.1553   2.1651   2.1752   2.1815   2.1829   2.1875
     2.2040   2.2097   2.2212   2.2253   2.2266   2.2275   2.2335   2.2343
     2.2355   2.2355   2.2375   2.2447   2.2607   2.2654   2.2655   2.2943
     2.3089   2.3220   2.3226   2.3313   2.4218   2.4357   2.4827   2.5583
     2.5972   2.5975   2.6100   2.6114   2.6201   2.6324   2.6606   2.6768
     2.6866   2.6950   2.7063   2.7251   2.7257   2.7288   2.7302   2.7412
     2.7472   2.7514   2.7593   2.7742   2.7799   2.8121   2.8177   2.8345
     2.8367   2.8381   2.8451   2.8607   2.9111   2.9214   2.9530   3.0124
     3.0469   3.0527   3.0925   3.0977   3.1627   3.2029   3.2925   3.3043
     3.3220   3.3238   3.3385   3.3454   3.3484   3.3530   3.4104   3.4182
     3.4325   3.4369   3.4482   3.4601   3.4624   3.4707   3.4794   3.4864
     3.5128   3.5371   3.5555   3.5954   3.6308   3.6315   3.6334   3.6376
     3.6660   3.6672   3.6768   3.7104   4.8551   4.8798   4.9373   4.9532
     5.3348   5.3895   5.5459   5.9335   5.9417   6.0061   6.0103   6.1467
     6.5115   6.6504   6.7042   6.7296   6.7699   6.7749   6.7848   6.7879
     6.7888   6.7905   6.7931   6.7992   6.8006   6.8006   6.8208   6.8298
     7.0271   7.1534   7.1971   7.1985   7.2075   7.2447   7.2493   7.2656
     7.2991   7.3113   7.3535   7.4324   7.4503   7.5179   7.5274   7.6056
     7.6919   7.6959   7.6983   7.7144   7.7634   7.7764   7.7934   7.8002
     7.8516   7.8675   7.8938   7.8972   7.9165   7.9895   8.0339   8.0438
     8.0471   8.1187   8.1815   8.1880   8.2276   8.2416   8.4005   8.4222
     8.4346   8.4351   8.4375   8.4466   8.4467   8.4502   8.4685   8.4785
     8.5547   8.5723   8.5866   8.6416   8.6650   8.6809   8.7093   8.7251
     8.7388   8.7495   8.7519   8.7784   8.7790   8.7948   8.8091   8.8226
     8.8858   8.8973   8.8988   8.9056   8.9207   8.9214   8.9273   8.9566
     8.9672   8.9679   8.9700   9.0034   9.0099   9.0145   9.0201   9.0336
     9.0422   9.0521   9.0710   9.0911   9.1248   9.1271   9.1391   9.1515
     9.1878   9.1906   9.2208   9.2419   9.2570   9.2585   9.2668   9.2786
     9.2865   9.2896   9.2908   9.3070   9.3083   9.3137   9.3163   9.3195
     9.3352   9.3409   9.3430   9.3626   9.3773   9.4101   9.4171   9.4285
     9.4342   9.4596   9.4705   9.4707   9.4774   9.5288   9.5366   9.5378
     9.5510   9.5559

          k = 0.2326 0.2390 0.0000 (277319 PWs)   bands (ev):

   -38.0463 -38.0189 -38.0174 -38.0114 -38.0108 -38.0000 -37.9964 -37.9939
   -37.9630 -37.9616 -37.9516 -37.9508 -37.9403 -37.9376 -35.5850 -35.5214
   -22.6470 -22.6390 -22.5988 -22.5908 -22.5441 -22.5400 -22.5358 -22.5323
   -22.5150 -22.5071 -22.5063 -22.4983 -22.4830 -22.4707 -22.4628 -22.4304
   -22.4224 -22.4209 -22.4079 -22.3846 -22.3691 -22.3552 -22.3498 -22.3379
   -22.2681 -22.2532 -22.2356 -22.2149 -22.2105 -22.1933 -22.1265 -21.9741
   -18.5944 -18.5601 -18.5432 -18.5391 -18.5168 -18.5124 -18.5064 -18.4912
   -18.4899 -18.4680 -18.4629 -18.4589 -18.4355 -18.4254 -18.4034 -18.3742
   -18.3477 -18.3374 -18.3230 -18.3187 -18.3050 -18.2915 -18.2864 -18.2671
   -18.2652 -18.2526 -18.2275 -18.1953 -18.1781 -18.1751 -18.1427 -18.1404
   -18.1390 -18.1324 -18.1214 -18.0906 -18.0892 -18.0769 -18.0678 -18.0613
   -18.0106 -18.0043 -16.8432 -16.8175 -16.8099 -16.7808 -16.7532 -16.7483
   -15.2694 -15.2304 -14.9999 -14.9606 -14.7482 -14.7272 -14.6890 -14.6743
   -14.6666 -14.6648 -14.6511 -14.6358 -14.6170 -14.5872 -14.5660 -14.5506
   -14.5318 -14.5292 -14.4971 -14.4923 -14.4733 -14.4733 -14.4694 -14.4622
   -14.4396 -14.4388 -14.4262 -14.4196 -14.3901 -14.3897 -14.3877 -14.3639
   -14.3593 -14.3574 -14.3376 -14.3275 -14.3233 -14.3012 -14.2824 -14.2679
   -14.2664 -14.2575 -14.2541 -14.2422 -14.2174 -14.2127 -14.2125 -14.2045
   -14.2001 -14.1877 -14.1775 -14.1643 -14.1336 -14.1241 -14.1026 -14.0992
   -14.0859 -14.0844 -14.0801 -14.0799 -14.0640 -14.0577 -14.0543 -14.0427
   -14.0370 -14.0332 -14.0195 -14.0073 -14.0026 -13.9997 -13.9935 -13.9917
   -13.9728 -13.9638 -13.9620 -13.9590 -13.9379 -13.9328 -13.9232 -13.9163
   -13.9138 -13.9060 -13.9010 -13.8860 -13.8827 -13.8405 -13.8399 -13.8329
   -13.6983 -13.6905 -13.6887 -13.6803 -13.6750 -13.6648 -13.6584 -13.6482
   -13.6337 -13.6223 -13.6121 -13.6036 -13.6007 -13.5971 -13.5920 -13.5845
   -13.5769 -13.5730 -13.5374 -13.4787 -13.4171 -13.3963 -13.3907 -13.3887
   -12.6921 -12.6777 -12.5874 -12.5728 -12.5174 -12.4572 -12.4314 -12.3333
    -8.5165  -8.5091  -8.3204  -8.3128  -8.2811  -8.2171  -8.2093  -8.0863
    -8.0551  -8.0088  -8.0013  -7.9843  -7.9530  -7.9451  -7.9060  -7.9030
    -7.8977  -7.8948  -7.8798  -7.8782  -7.8712  -7.8571  -7.8552  -7.8534
    -7.8518  -7.8482  -7.8453  -7.8429  -7.8373  -7.8313  -7.8290  -7.8221
    -7.8140  -7.8107  -7.8051  -7.8028  -7.7970  -7.7871  -7.7795  -7.7713
    -7.7673  -7.7547  -7.7455  -7.7263  -7.7153  -7.7139  -7.7027  -7.6949
    -7.6872  -7.6626  -7.6500  -7.6470  -7.6385  -7.6249  -7.6143  -7.5983
    -7.5914  -7.5909  -7.5902  -7.5831  -7.5578  -7.5508  -7.5474  -7.5432
    -7.5096  -7.5024  -7.4946  -7.4753  -7.4713  -7.4651  -7.4574  -7.4537
    -7.4431  -7.4409  -7.4332  -7.4232  -7.4156  -7.4121  -7.4047  -7.3958
    -7.3907  -7.3298  -7.3195  -7.3002  -7.2991  -7.2669  -7.2175  -7.1919
    -7.1879  -7.1497  -7.1388  -7.1243  -7.0791  -7.0512  -6.9616  -6.9521
    -3.9593  -3.9124  -3.5242  -3.4778  -3.4314  -3.3623  -3.0754  -3.0547
    -3.0509  -3.0248  -2.9926  -2.9801  -2.9008  -2.8708  -2.8645  -2.8545
    -2.8436  -2.7829  -2.7351  -2.6958  -2.6693  -2.6488  -2.6387  -2.6188
    -2.6153  -2.5815  -2.5712  -2.5534  -2.5433  -2.4631  -2.4170  -2.3846
    -2.3269  -2.3175  -2.3073  -2.3039  -2.2996  -2.2886  -2.2800  -2.2638
    -2.2606  -2.2347  -2.2074  -2.2056  -2.1983  -2.1891  -2.1794  -2.1425
    -2.1142  -2.0636  -2.0609  -2.0417  -2.0181  -2.0156  -1.9977  -1.9972
    -1.9894  -1.9540  -1.9447  -1.9405  -1.9333  -1.9307  -1.9145  -1.9118
    -1.9049  -1.9029  -1.8969  -1.8931  -1.8752  -1.8737  -1.8662  -1.8498
    -1.8484  -1.8110  -1.7995  -1.7915  -1.7872  -1.7854  -1.7829  -1.7821
    -1.7797  -1.7769  -1.7759  -1.7663  -1.7525  -1.7399  -1.7366  -1.7222
    -1.7101  -1.6956  -1.6781  -1.6630  -1.6291  -1.6121  -1.5903  -1.5871
    -1.5842  -1.5637  -1.5620  -1.5489  -1.5318  -1.5173  -1.5056  -1.5021
    -1.4871  -1.4779  -1.4651  -1.4583  -1.4528  -1.4409  -1.4403  -1.4346
    -1.4301  -1.4261  -1.4249  -1.4163  -1.4101  -1.3798  -1.3460  -1.3018
    -1.2704  -1.2613  -1.2574  -1.2482  -1.2302  -1.2238  -1.2105  -1.2026
    -1.1987  -1.1919  -1.1873  -1.1842  -1.1576  -1.1505  -1.1329  -1.1238
    -1.0967  -1.0944  -1.0854  -1.0822  -1.0408  -1.0289  -1.0121  -0.9987
    -0.9945  -0.9726  -0.9661  -0.9296  -0.9080  -0.8671  -0.8644  -0.8416
    -0.8370  -0.8195  -0.8176  -0.8044  -0.7926  -0.7820  -0.7726  -0.7649
    -0.7389  -0.7267  -0.7222  -0.7203  -0.7147  -0.7096  -0.7044  -0.6944
    -0.6869  -0.6829  -0.6808  -0.6770  -0.6743  -0.6710  -0.6635  -0.6517
    -0.6458  -0.6324  -0.6302  -0.6030  -0.6005  -0.5955  -0.5913  -0.5866
    -0.5810  -0.5738  -0.5477  -0.5411  -0.5230  -0.5188  -0.5170  -0.5134
    -0.5047  -0.5033  -0.4996  -0.4800  -0.4765  -0.4740  -0.4621  -0.4430
    -0.4368  -0.4233  -0.4127  -0.4078  -0.4057  -0.3972  -0.3828  -0.3665
    -0.3640  -0.3399  -0.3372  -0.3224  -0.3079  -0.3001  -0.2982  -0.2894
    -0.2792  -0.2659  -0.2541  -0.2501  -0.2453  -0.2194  -0.2107  -0.1944
    -0.1754  -0.1701  -0.1595  -0.1529  -0.1361  -0.1222  -0.1081  -0.1023
    -0.0618  -0.0565  -0.0475  -0.0358  -0.0328  -0.0156  -0.0125  -0.0034
     0.0046   0.0142   0.0336   0.0364   0.0412   0.0438   0.0737   0.0755
     0.0815   0.0841   0.0916   0.0937   0.0993   0.1062   0.1079   0.1180
     0.1235   0.1259   0.1326   0.1351   0.1390   0.1449   0.1489   0.1546
     0.1597   0.1661   0.1676   0.1719   0.1778   0.1922   0.1961   0.1985
     0.2022   0.2040   0.2060   0.2163   0.2232   0.2299   0.2373   0.2457
     0.2462   0.2510   0.2631   0.2734   0.2797   0.3032   0.3417   0.3681
     0.3890   0.4475   0.4518   0.4565   0.4621   0.4640   0.4718   0.4740
     0.4815   0.4855   0.4888   0.4919   0.5018   0.5094   0.5157   0.5175
     0.5248   0.5282   0.5329   0.5414   0.5430   0.5454   0.5484   0.5553
     0.5620   0.5776   0.5828   0.5840   0.5919   0.5970   0.6005   0.6101
     0.6219   0.6240   0.6258   0.6390   0.6399   0.6424   0.6555   0.6590
     0.6648   0.6658   0.6758   0.6870   0.6938   0.6987   0.7043   0.7118
     0.7138   0.7191   0.7214   0.7247   0.7268   0.7340   0.7350   0.7389
     0.7454   0.7605   0.7662   0.7697   0.7782   0.7802   0.7928   0.7984
     0.8176   0.8451   0.8497   0.8528   0.8747   0.8840   0.8849   0.8964
     0.9149   0.9222   0.9250   0.9420   0.9594   0.9635   0.9917   1.0199
     1.0328   1.0448   1.0632   1.0781   1.0949   1.0996   1.1026   1.1097
     1.1138   1.1213   1.1243   1.1447   1.1589   1.1646   1.1755   1.1796
     1.1819   1.1939   1.2021   1.2042   1.2152   1.2173   1.2372   1.2427
     1.2492   1.2743   1.2770   1.2858   1.2957   1.3007   1.3041   1.3121
     1.3157   1.3206   1.3225   1.3318   1.3384   1.3462   1.3516   1.3581
     1.3597   1.3643   1.3716   1.3801   1.3819   1.3869   1.3987   1.4072
     1.4084   1.4115   1.4171   1.4293   1.4321   1.4351   1.4426   1.4449
     1.4540   1.4549   1.4619   1.4706   1.4736   1.4755   1.4835   1.4890
     1.4943   1.4997   1.5022   1.5080   1.5166   1.5214   1.5288   1.5343
     1.5357   1.5425   1.5483   1.5508   1.5611   1.5651   1.5671   1.5731
     1.5742   1.5796   1.5828   1.5895   1.5903   1.5931   1.5985   1.6029
     1.6084   1.6095   1.6245   1.6329   1.6367   1.6418   1.6591   1.6746
     1.6788   1.6805   1.6937   1.7012   1.7084   1.7191   1.7204   1.7290
     1.7330   1.7399   1.7493   1.7539   1.7558   1.7674   1.7690   1.7718
     1.7872   1.7916   1.8003   1.8034   1.8093   1.8167   1.8216   1.8289
     1.8400   1.8418   1.8527   1.8572   1.8628   1.8650   1.8664   1.8714
     1.8721   1.8745   1.8811   1.8831   1.8902   1.9086   1.9137   1.9208
     1.9270   1.9419   1.9474   1.9493   1.9559   1.9619   1.9676   1.9731
     1.9751   1.9831   1.9875   1.9941   1.9989   1.9995   2.0036   2.0091
     2.0119   2.0137   2.0254   2.0307   2.0343   2.0372   2.0417   2.0510
     2.0549   2.0595   2.0664   2.0787   2.0991   2.1073   2.1131   2.1271
     2.1348   2.1407   2.1449   2.1466   2.1498   2.1600   2.1672   2.1696
     2.2095   2.2120   2.2208   2.2543   2.2675   2.2840   2.3051   2.3308
     2.3412   2.3582   2.3878   2.4063   2.4121   2.4250   2.4406   2.4607
     2.4655   2.4678   2.4682   2.4756   2.4829   2.4909   2.4979   2.5028
     2.5055   2.5224   2.5802   2.5877   2.5905   2.6369   2.6510   2.6597
     2.6651   2.6698   2.6808   2.7233   2.7374   2.7443   2.7491   2.7747
     2.7891   2.7935   2.8053   2.8149   2.8252   2.8292   2.8349   2.8458
     2.8516   2.8606   2.8728   2.8860   2.9044   2.9343   2.9428   2.9506
     2.9688   2.9852   3.0014   3.0817   3.0918   3.1148   3.1539   3.1615
     3.1688   3.1755   3.1928   3.1944   3.2008   3.2189   3.2352   3.2471
     3.2539   3.2643   3.2686   3.2736   3.2908   3.2963   3.2995   3.3298
     3.3911   3.4622   3.4721   3.4976   3.5517   3.5972   3.6349   3.6791
     4.1082   4.1270   4.2249   4.2520   4.6426   4.6648   4.7247   4.7446
     5.6034   5.6349   5.7375   6.1069   6.1684   6.1764   6.2024   6.2219
     6.2292   6.2858   6.3584   6.5886   6.6662   6.6784   6.6949   6.7009
     6.7113   6.7260   6.7602   6.7688   6.8456   6.9291   6.9666   6.9765
     7.0295   7.0425   7.0526   7.0908   7.1241   7.1740   7.1948   7.2667
     7.3249   7.3719   7.4083   7.4513   7.5010   7.5421   7.6033   7.6657
     7.6896   7.7152   7.7250   7.7361   7.7582   7.7917   7.8201   7.8272
     7.8460   7.8486   7.8919   7.9027   7.9185   7.9422   7.9631   8.0191
     8.0481   8.0605   8.0774   8.1091   8.1325   8.1590   8.2132   8.2276
     8.2755   8.3238   8.3462   8.3543   8.3687   8.4053   8.4453   8.5450
     8.5604   8.5696   8.6046   8.6174   8.6348   8.6443   8.6733   8.7010
     8.7141   8.7554   8.7765   8.7859   8.8038   8.8257   8.8416   8.8622
     8.8742   8.8805   8.8986   8.9059   8.9214   8.9253   8.9420   8.9520
     8.9725   8.9958   9.0059   9.0218   9.0239   9.0343   9.0370   9.0542
     9.0794   9.0955   9.1256   9.1320   9.1396   9.1525   9.1632   9.1839
     9.1930   9.2138   9.2365   9.2411   9.2648   9.2681   9.2862   9.2926
     9.3008   9.3285   9.3371   9.3449   9.3933   9.4009   9.4063   9.4225
     9.4409   9.4521   9.4685   9.4802   9.5046   9.5082   9.5202   9.5386
     9.5558   9.5648   9.5838   9.5949   9.6068   9.6169   9.6311   9.6359
     9.6620   9.6714

          k = 0.0000 0.4779 0.0000 (277213 PWs)   bands (ev):

   -38.0463 -38.0191 -38.0173 -38.0124 -38.0098 -38.0000 -37.9956 -37.9947
   -37.9632 -37.9614 -37.9529 -37.9496 -37.9397 -37.9381 -35.5850 -35.5214
   -22.6277 -22.6197 -22.5979 -22.5899 -22.5874 -22.5793 -22.5511 -22.5432
   -22.5014 -22.4934 -22.4751 -22.4739 -22.4674 -22.4661 -22.4594 -22.4454
   -22.4375 -22.4282 -22.3985 -22.3824 -22.3693 -22.3683 -22.3672 -22.3243
   -22.2697 -22.2506 -22.2335 -22.2145 -22.2043 -22.1975 -22.1273 -21.9742
   -18.5899 -18.5854 -18.5493 -18.5342 -18.5306 -18.5201 -18.4961 -18.4909
   -18.4899 -18.4719 -18.4423 -18.4371 -18.4341 -18.4002 -18.3861 -18.3502
   -18.3456 -18.3392 -18.3300 -18.3216 -18.3054 -18.2901 -18.2789 -18.2723
   -18.2689 -18.2509 -18.2506 -18.2064 -18.1999 -18.1902 -18.1646 -18.1549
   -18.1456 -18.1338 -18.1324 -18.1124 -18.0949 -18.0765 -18.0628 -18.0226
   -18.0059 -17.9649 -16.8432 -16.8176 -16.8088 -16.7808 -16.7533 -16.7473
   -15.1913 -15.1532 -14.9786 -14.9396 -14.9234 -14.8871 -14.8074 -14.7713
   -14.7132 -14.6873 -14.5994 -14.5724 -14.5569 -14.5557 -14.5535 -14.5390
   -14.5266 -14.5202 -14.5148 -14.5139 -14.4927 -14.4819 -14.4616 -14.4432
   -14.4202 -14.3986 -14.3698 -14.3686 -14.3465 -14.3362 -14.3283 -14.3255
   -14.3254 -14.3236 -14.3191 -14.3145 -14.2946 -14.2866 -14.2814 -14.2710
   -14.2679 -14.2561 -14.2514 -14.2377 -14.2315 -14.2172 -14.2167 -14.2096
   -14.2069 -14.1968 -14.1841 -14.1831 -14.1756 -14.1681 -14.1400 -14.1129
   -14.0867 -14.0838 -14.0786 -14.0750 -14.0536 -14.0529 -14.0441 -14.0391
   -14.0282 -14.0228 -14.0204 -14.0156 -14.0041 -13.9991 -13.9906 -13.9856
   -13.9770 -13.9740 -13.9652 -13.9644 -13.9445 -13.9371 -13.9352 -13.9351
   -13.9210 -13.9179 -13.9141 -13.8954 -13.8810 -13.8635 -13.8502 -13.8484
   -13.7019 -13.6926 -13.6917 -13.6863 -13.6825 -13.6763 -13.6468 -13.6443
   -13.6365 -13.6327 -13.6020 -13.5966 -13.5923 -13.5905 -13.5904 -13.5873
   -13.5849 -13.5792 -13.5461 -13.4709 -13.4258 -13.4039 -13.3932 -13.3751
   -12.6623 -12.6198 -12.5607 -12.5572 -12.5169 -12.5108 -12.4758 -12.3862
    -8.3583  -8.3508  -8.2165  -8.2091  -8.2065  -8.1991  -8.1334  -8.1303
    -8.1256  -7.9988  -7.9871  -7.9133  -7.9106  -7.9047  -7.9033  -7.9030
    -7.8944  -7.8916  -7.8831  -7.8735  -7.8645  -7.8456  -7.8371  -7.8315
    -7.8212  -7.8186  -7.8138  -7.8133  -7.8106  -7.8070  -7.8055  -7.7989
    -7.7893  -7.7813  -7.7770  -7.7620  -7.7578  -7.7458  -7.7409  -7.7328
    -7.7314  -7.7270  -7.7243  -7.7212  -7.7208  -7.7140  -7.7084  -7.7064
    -7.7026  -7.7011  -7.7011  -7.6951  -7.6933  -7.6732  -7.6566  -7.6498
    -7.6490  -7.6372  -7.6364  -7.5966  -7.5956  -7.5938  -7.5906  -7.5829
    -7.5726  -7.5678  -7.5462  -7.5038  -7.5035  -7.4692  -7.4640  -7.4473
    -7.4396  -7.4392  -7.4369  -7.4291  -7.4165  -7.4111  -7.4094  -7.4090
    -7.4017  -7.3866  -7.3638  -7.3613  -7.3461  -7.2791  -7.2715  -7.2530
    -7.2224  -7.1889  -7.1861  -7.1474  -7.1472  -7.0902  -6.9650  -6.9562
    -3.7930  -3.7459  -3.5063  -3.4655  -3.4471  -3.4063  -3.2845  -3.2151
    -3.1281  -3.0909  -3.0785  -3.0539  -3.0117  -2.9819  -2.8404  -2.8379
    -2.8197  -2.7678  -2.6600  -2.6162  -2.6157  -2.6061  -2.6056  -2.5902
    -2.5129  -2.5035  -2.4727  -2.4575  -2.4488  -2.4347  -2.3569  -2.3446
    -2.3377  -2.3357  -2.2800  -2.2772  -2.2759  -2.2686  -2.2631  -2.2588
    -2.2552  -2.2491  -2.2350  -2.1987  -2.1935  -2.1721  -2.1619  -2.1540
    -2.1226  -2.1195  -2.1120  -2.1039  -2.0990  -2.0886  -2.0119  -1.9967
    -1.9938  -1.9896  -1.9321  -1.9291  -1.9242  -1.8948  -1.8897  -1.8772
    -1.8726  -1.8640  -1.8519  -1.8484  -1.8435  -1.8323  -1.8283  -1.8245
    -1.8188  -1.8176  -1.8100  -1.8053  -1.7947  -1.7936  -1.7907  -1.7898
    -1.7876  -1.7829  -1.7813  -1.7772  -1.7731  -1.7718  -1.7513  -1.7501
    -1.7382  -1.7298  -1.7249  -1.6911  -1.6646  -1.6641  -1.6270  -1.6173
    -1.6144  -1.6099  -1.5992  -1.5838  -1.5660  -1.5655  -1.5484  -1.5467
    -1.5337  -1.5330  -1.5174  -1.5034  -1.4925  -1.4873  -1.4856  -1.4776
    -1.4731  -1.4629  -1.4527  -1.4512  -1.4410  -1.4366  -1.4325  -1.4289
    -1.4267  -1.4243  -1.4073  -1.3744  -1.2912  -1.2596  -1.2288  -1.2171
    -1.2096  -1.2051  -1.2026  -1.2000  -1.1983  -1.1914  -1.1659  -1.1393
    -1.0558  -0.9898  -0.9576  -0.9190  -0.8770  -0.8430  -0.8400  -0.8319
    -0.8197  -0.8128  -0.8105  -0.8089  -0.8009  -0.7995  -0.7733  -0.7665
    -0.7601  -0.7568  -0.7564  -0.7323  -0.7240  -0.7133  -0.7115  -0.7065
    -0.7004  -0.6842  -0.6805  -0.6780  -0.6744  -0.6683  -0.6630  -0.6591
    -0.6555  -0.6355  -0.6295  -0.6245  -0.6215  -0.6160  -0.6117  -0.6079
    -0.5996  -0.5891  -0.5878  -0.5862  -0.5816  -0.5733  -0.5727  -0.5649
    -0.5612  -0.5569  -0.5503  -0.5291  -0.5276  -0.5209  -0.5189  -0.5154
    -0.5106  -0.5077  -0.5062  -0.5010  -0.4976  -0.4801  -0.4704  -0.4501
    -0.4463  -0.4285  -0.4010  -0.3617  -0.3610  -0.3450  -0.3437  -0.3378
    -0.3262  -0.3249  -0.3205  -0.3097  -0.3054  -0.3042  -0.2984  -0.2911
    -0.2840  -0.2760  -0.2474  -0.2448  -0.2271  -0.2192  -0.2157  -0.1890
    -0.1883  -0.1871  -0.1791  -0.1745  -0.1671  -0.1644  -0.1460  -0.1305
    -0.1296  -0.1198  -0.1166  -0.1001  -0.0759  -0.0742  -0.0465  -0.0445
    -0.0393  -0.0278  -0.0269  -0.0217  -0.0212   0.0147   0.0402   0.0403
     0.0500   0.0601   0.0653   0.0695   0.0729   0.0828   0.0863   0.0951
     0.0968   0.1060   0.1109   0.1161   0.1168   0.1218   0.1246   0.1393
     0.1427   0.1538   0.1576   0.1638   0.1648   0.1756   0.1859   0.2025
     0.2116   0.2270   0.2360   0.2367   0.2430   0.2537   0.2581   0.2613
     0.2840   0.3030   0.3095   0.3362   0.3805   0.3884   0.3955   0.3985
     0.4080   0.4098   0.4139   0.4180   0.4183   0.4292   0.4316   0.4349
     0.4385   0.4528   0.4733   0.4743   0.4795   0.4881   0.4913   0.5053
     0.5131   0.5260   0.5306   0.5456   0.5570   0.5589   0.5673   0.5735
     0.5781   0.5807   0.5852   0.5997   0.6121   0.6199   0.6210   0.6277
     0.6312   0.6341   0.6354   0.6385   0.6606   0.6703   0.6816   0.6829
     0.6861   0.6936   0.6999   0.7101   0.7127   0.7171   0.7190   0.7197
     0.7209   0.7267   0.7330   0.7418   0.7554   0.7668   0.7688   0.7721
     0.7820   0.7827   0.7852   0.7878   0.7881   0.7921   0.7927   0.8203
     0.8247   0.8372   0.8469   0.8501   0.8778   0.8978   0.9010   0.9112
     0.9181   0.9427   0.9572   0.9618   0.9838   0.9887   0.9975   1.0042
     1.0092   1.0148   1.0160   1.0323   1.0361   1.0380   1.0400   1.0468
     1.0643   1.0659   1.0797   1.0861   1.1060   1.1303   1.1320   1.1739
     1.1760   1.1878   1.1900   1.2284   1.2463   1.2533   1.2650   1.2742
     1.2790   1.2830   1.2848   1.2952   1.2967   1.2967   1.3091   1.3146
     1.3193   1.3195   1.3227   1.3300   1.3300   1.3393   1.3403   1.3468
     1.3645   1.3737   1.3886   1.3958   1.3961   1.4056   1.4071   1.4136
     1.4189   1.4255   1.4256   1.4336   1.4383   1.4434   1.4448   1.4479
     1.4550   1.4588   1.4664   1.4708   1.4767   1.4831   1.4936   1.4967
     1.5015   1.5091   1.5109   1.5188   1.5209   1.5318   1.5416   1.5428
     1.5578   1.5632   1.5654   1.5757   1.5820   1.5823   1.5897   1.5944
     1.5968   1.6041   1.6174   1.6199   1.6224   1.6344   1.6352   1.6434
     1.6537   1.6597   1.6644   1.6651   1.6695   1.6719   1.6727   1.6802
     1.6930   1.7033   1.7056   1.7077   1.7190   1.7238   1.7253   1.7273
     1.7372   1.7406   1.7411   1.7454   1.7531   1.7611   1.7613   1.7641
     1.7664   1.7717   1.7798   1.7911   1.7969   1.7996   1.8028   1.8141
     1.8157   1.8202   1.8267   1.8301   1.8346   1.8463   1.8483   1.8541
     1.8565   1.8649   1.8710   1.8772   1.8915   1.8923   1.8977   1.9127
     1.9216   1.9281   1.9373   1.9461   1.9504   1.9566   1.9581   1.9707
     1.9856   1.9957   2.0074   2.0162   2.0184   2.0206   2.0304   2.0353
     2.0366   2.0390   2.0394   2.0468   2.0495   2.0570   2.0705   2.0724
     2.0736   2.0747   2.0799   2.0838   2.0850   2.0917   2.0945   2.1030
     2.1122   2.1129   2.1168   2.1217   2.1312   2.1476   2.1573   2.1629
     2.1642   2.1751   2.1893   2.1895   2.2044   2.2070   2.2485   2.2668
     2.2778   2.3058   2.3439   2.3607   2.3737   2.3840   2.3958   2.4025
     2.4029   2.4058   2.4265   2.4378   2.4387   2.4428   2.4656   2.4678
     2.4885   2.4977   2.5352   2.5496   2.5601   2.5766   2.5790   2.5794
     2.5977   2.6093   2.6268   2.6309   2.6368   2.6486   2.6544   2.6751
     2.7284   2.7479   2.7481   2.7581   2.7582   2.7802   2.7868   2.8108
     2.8112   2.8289   2.8363   2.8578   2.8922   2.9181   2.9300   2.9374
     2.9478   2.9778   3.0453   3.0654   3.0709   3.0930   3.1548   3.1740
     3.1767   3.1801   3.2000   3.2025   3.2094   3.2103   3.2500   3.2571
     3.2864   3.3230   3.3335   3.3472   3.3570   3.3823   3.5334   3.5617
     3.5844   3.6027   3.6144   3.6318   3.7608   3.7755   3.7844   3.7982
     3.9351   3.9553   3.9629   3.9815   4.4583   4.4757   4.5333   4.5578
     5.9554   6.0136   6.0255   6.1309   6.1368   6.1404   6.1460   6.1547
     6.3099   6.3437   6.3583   6.3999   6.4385   6.5226   6.7830   6.8151
     6.8466   6.8541   6.8776   6.9177   6.9375   6.9391   6.9445   6.9522
     6.9569   7.0073   7.0528   7.1142   7.1231   7.1398   7.1723   7.2092
     7.2343   7.2871   7.2899   7.2998   7.3371   7.3488   7.4514   7.4859
     7.5117   7.5264   7.5624   7.6891   7.7642   7.7766   7.7853   7.7969
     7.9221   7.9725   7.9779   8.0115   8.0268   8.0354   8.0539   8.0548
     8.0652   8.0981   8.1161   8.1179   8.1270   8.1475   8.1606   8.1704
     8.2243   8.2401   8.2562   8.2580   8.3208   8.3559   8.3724   8.4289
     8.4500   8.5149   8.5381   8.5420   8.5825   8.6157   8.6340   8.6617
     8.6715   8.6940   8.7185   8.7783   8.8387   8.8409   8.8784   8.8793
     8.9108   8.9212   8.9331   8.9397   8.9539   8.9637   8.9697   8.9771
     8.9950   9.0072   9.0072   9.0351   9.0399   9.0580   9.0653   9.0691
     9.1077   9.1129   9.1389   9.1452   9.1718   9.1811   9.2206   9.2593
     9.2661   9.2887   9.2892   9.3021   9.3104   9.3159   9.3590   9.3609
     9.3673   9.3805   9.4067   9.4086   9.4248   9.4292   9.4586   9.4701
     9.4781   9.4900   9.5083   9.5139   9.5374   9.5896   9.5978   9.6258
     9.6394   9.6451   9.6457   9.6534   9.6621   9.6805   9.6913   9.7069
     9.7135   9.7236

          k =-0.4652-0.0000 0.0000 (277224 PWs)   bands (ev):

   -38.0463 -38.0197 -38.0164 -38.0124 -38.0101 -38.0000 -37.9960 -37.9943
   -37.9638 -37.9605 -37.9527 -37.9501 -37.9395 -37.9383 -35.5850 -35.5214
   -22.6338 -22.6258 -22.5879 -22.5797 -22.5764 -22.5685 -22.5684 -22.5605
   -22.4854 -22.4833 -22.4782 -22.4772 -22.4763 -22.4754 -22.4705 -22.4388
   -22.4308 -22.4237 -22.3998 -22.3935 -22.3685 -22.3670 -22.3569 -22.3255
   -22.2639 -22.2548 -22.2423 -22.2132 -22.2074 -22.1902 -22.1275 -21.9741
   -18.6256 -18.5701 -18.5532 -18.5474 -18.5228 -18.4988 -18.4961 -18.4933
   -18.4748 -18.4598 -18.4474 -18.4196 -18.4090 -18.4045 -18.3664 -18.3615
   -18.3562 -18.3490 -18.3295 -18.3255 -18.3202 -18.2983 -18.2929 -18.2752
   -18.2722 -18.2606 -18.2444 -18.2187 -18.1953 -18.1853 -18.1643 -18.1583
   -18.1411 -18.1371 -18.1290 -18.1069 -18.0859 -18.0853 -18.0673 -18.0142
   -18.0099 -17.9570 -16.8431 -16.8160 -16.8101 -16.7807 -16.7517 -16.7487
   -15.1842 -15.1452 -14.9966 -14.9575 -14.9256 -14.8914 -14.7943 -14.7617
   -14.6638 -14.6524 -14.6177 -14.6173 -14.6168 -14.5895 -14.5766 -14.5529
   -14.5092 -14.5011 -14.4776 -14.4695 -14.4668 -14.4580 -14.4370 -14.4352
   -14.4260 -14.4250 -14.4098 -14.4002 -14.3896 -14.3757 -14.3648 -14.3587
   -14.3403 -14.3168 -14.3063 -14.2740 -14.2659 -14.2644 -14.2628 -14.2582
   -14.2515 -14.2482 -14.2338 -14.2327 -14.2319 -14.2283 -14.2135 -14.2134
   -14.1868 -14.1840 -14.1498 -14.1470 -14.1319 -14.1281 -14.1061 -14.0996
   -14.0974 -14.0957 -14.0915 -14.0888 -14.0836 -14.0731 -14.0691 -14.0621
   -14.0593 -14.0488 -14.0436 -14.0265 -14.0228 -14.0159 -13.9886 -13.9878
   -13.9859 -13.9783 -13.9675 -13.9617 -13.9511 -13.9458 -13.9445 -13.9311
   -13.9230 -13.9170 -13.9111 -13.9051 -13.8579 -13.8441 -13.8428 -13.7974
   -13.6971 -13.6923 -13.6875 -13.6819 -13.6761 -13.6753 -13.6649 -13.6648
   -13.6256 -13.6224 -13.6151 -13.6116 -13.6032 -13.5897 -13.5830 -13.5816
   -13.5780 -13.5713 -13.5482 -13.4704 -13.4410 -13.4015 -13.3867 -13.3721
   -12.6512 -12.6327 -12.5659 -12.5650 -12.5058 -12.5055 -12.4713 -12.3923
    -8.4134  -8.4060  -8.1873  -8.1335  -8.1278  -8.1257  -8.1242  -8.1202
    -8.1164  -7.9732  -7.9659  -7.9491  -7.9294  -7.9117  -7.9032  -7.8886
    -7.8870  -7.8834  -7.8785  -7.8761  -7.8674  -7.8656  -7.8570  -7.8348
    -7.8310  -7.8262  -7.8224  -7.8200  -7.8127  -7.8121  -7.8119  -7.8091
    -7.8044  -7.8015  -7.8002  -7.7951  -7.7925  -7.7877  -7.7872  -7.7860
    -7.7824  -7.7779  -7.7474  -7.7421  -7.7413  -7.7227  -7.7219  -7.7114
    -7.7089  -7.7078  -7.6701  -7.6439  -7.6395  -7.6373  -7.6316  -7.6228
    -7.6158  -7.6030  -7.5961  -7.5954  -7.5914  -7.5900  -7.5630  -7.5597
    -7.5554  -7.5524  -7.5470  -7.5110  -7.5033  -7.4869  -7.4567  -7.4558
    -7.4490  -7.4475  -7.4403  -7.4383  -7.4306  -7.4242  -7.4224  -7.4209
    -7.4014  -7.3765  -7.3496  -7.3363  -7.3350  -7.3001  -7.2946  -7.2504
    -7.2027  -7.1861  -7.1651  -7.1456  -7.1181  -7.0897  -6.9739  -6.9702
    -3.8377  -3.7929  -3.4193  -3.3724  -3.3661  -3.3406  -3.3256  -3.2817
    -3.2720  -3.2463  -2.9975  -2.9756  -2.9477  -2.9278  -2.9057  -2.8730
    -2.7441  -2.7337  -2.7047  -2.6944  -2.6607  -2.6416  -2.6391  -2.6040
    -2.5884  -2.5854  -2.5786  -2.5651  -2.5301  -2.4521  -2.4461  -2.4202
    -2.3797  -2.3532  -2.2434  -2.2404  -2.2008  -2.1751  -2.1731  -2.1674
    -2.1620  -2.1603  -2.1528  -2.1393  -2.1385  -2.1228  -2.0803  -2.0594
    -2.0515  -2.0394  -2.0104  -2.0026  -1.9581  -1.9520  -1.9505  -1.9466
    -1.9433  -1.9336  -1.8998  -1.8967  -1.8942  -1.8930  -1.8895  -1.8749
    -1.8669  -1.8668  -1.8645  -1.8591  -1.8437  -1.8318  -1.8276  -1.8170
    -1.8083  -1.7967  -1.7908  -1.7890  -1.7870  -1.7805  -1.7781  -1.7725
    -1.7501  -1.7451  -1.7333  -1.7249  -1.7109  -1.7058  -1.7019  -1.7011
    -1.7008  -1.6969  -1.6927  -1.6896  -1.6846  -1.6823  -1.6725  -1.6640
    -1.6633  -1.6470  -1.6410  -1.6331  -1.6295  -1.6253  -1.6103  -1.5998
    -1.5991  -1.5818  -1.5786  -1.5728  -1.5679  -1.5488  -1.5422  -1.5409
    -1.5393  -1.5222  -1.5179  -1.4953  -1.4924  -1.4836  -1.4773  -1.4696
    -1.4653  -1.4607  -1.4599  -1.4361  -1.4236  -1.4213  -1.4049  -1.3967
    -1.3827  -1.3781  -1.3675  -1.3117  -1.1548  -1.1178  -1.1045  -1.0921
    -1.0764  -1.0454  -0.9833  -0.9041  -0.8848  -0.8643  -0.8625  -0.8490
    -0.8106  -0.8074  -0.7951  -0.7917  -0.7707  -0.7704  -0.7580  -0.7571
    -0.7486  -0.7462  -0.7452  -0.7363  -0.7260  -0.7257  -0.7165  -0.7106
    -0.6856  -0.6674  -0.6625  -0.6611  -0.6470  -0.6435  -0.6402  -0.6386
    -0.6327  -0.6126  -0.6047  -0.6018  -0.5888  -0.5883  -0.5874  -0.5767
    -0.5691  -0.5573  -0.5564  -0.5549  -0.5506  -0.5490  -0.5440  -0.5318
    -0.5280  -0.5257  -0.5191  -0.5138  -0.5052  -0.4986  -0.4913  -0.4821
    -0.4622  -0.4605  -0.4559  -0.4543  -0.4333  -0.4277  -0.4188  -0.4128
    -0.4104  -0.4073  -0.3983  -0.3952  -0.3854  -0.3825  -0.3570  -0.3493
    -0.3484  -0.3357  -0.3106  -0.2885  -0.2865  -0.2518  -0.2470  -0.2451
    -0.2418  -0.2405  -0.2378  -0.2246  -0.2232  -0.2026  -0.1734  -0.1695
    -0.1604  -0.1592  -0.1529  -0.1511  -0.1404  -0.1394  -0.1380  -0.1317
    -0.1295  -0.1221  -0.1211  -0.1195  -0.1134  -0.1130  -0.0937  -0.0928
    -0.0420  -0.0377  -0.0200  -0.0100  -0.0075  -0.0068   0.0046   0.0094
     0.0166   0.0188   0.0230   0.0263   0.0303   0.0346   0.0408   0.0431
     0.0598   0.0638   0.0689   0.0770   0.0776   0.0790   0.0846   0.1304
     0.1310   0.1386   0.1458   0.1543   0.1697   0.1751   0.1798   0.1846
     0.1902   0.2099   0.2147   0.2201   0.2299   0.2408   0.2594   0.2755
     0.2812   0.3067   0.3192   0.3739   0.3944   0.4005   0.4053   0.4236
     0.4242   0.4326   0.4339   0.4394   0.4398   0.4480   0.4607   0.4713
     0.4772   0.4823   0.4831   0.4853   0.5074   0.5092   0.5145   0.5231
     0.5291   0.5319   0.5517   0.5535   0.5541   0.5628   0.5661   0.5716
     0.5723   0.5767   0.5780   0.5792   0.5887   0.5971   0.6091   0.6121
     0.6173   0.6187   0.6328   0.6336   0.6523   0.6599   0.6667   0.6719
     0.6732   0.6801   0.6885   0.6948   0.7045   0.7057   0.7090   0.7120
     0.7139   0.7241   0.7268   0.7275   0.7384   0.7420   0.7443   0.7521
     0.7666   0.7750   0.7881   0.7980   0.7984   0.8203   0.8270   0.8274
     0.8495   0.8512   0.8579   0.8772   0.8836   0.9084   0.9166   0.9541
     0.9554   0.9567   0.9616   0.9668   0.9844   0.9864   0.9881   0.9963
     1.0045   1.0096   1.0101   1.0150   1.0208   1.0261   1.0549   1.0575
     1.0636   1.0761   1.0775   1.0824   1.0942   1.1021   1.1372   1.1491
     1.1901   1.1938   1.2163   1.2259   1.2304   1.2340   1.2445   1.2460
     1.2607   1.2712   1.2771   1.2815   1.2979   1.3040   1.3199   1.3260
     1.3273   1.3417   1.3493   1.3545   1.3562   1.3628   1.3726   1.3732
     1.3756   1.3796   1.3845   1.3853   1.3866   1.4002   1.4059   1.4073
     1.4130   1.4226   1.4350   1.4421   1.4423   1.4510   1.4547   1.4638
     1.4780   1.4876   1.4991   1.5048   1.5059   1.5080   1.5171   1.5212
[...]
     atom   59 type  5   force =    -0.00044562    0.00000000   -0.00351603
     atom   60 type  5   force =     0.00000000    0.00000000   -0.00290203
     atom   61 type  5   force =     0.00000000    0.00000000   -0.00343980
     atom   62 type  5   force =     0.00000000    0.00000000   -0.00343980
     atom   63 type  5   force =     0.00000000    0.00022686   -0.00360609
     atom   64 type  5   force =     0.00000000   -0.00022686   -0.00360609
     atom   65 type  4   force =    -0.00041982   -0.00010509    0.00248171
     atom   66 type  4   force =    -0.00041982    0.00010509    0.00248171
     atom   67 type  4   force =     0.00041982   -0.00010509    0.00248171
     atom   68 type  4   force =     0.00041982    0.00010509    0.00248171
     atom   69 type  4   force =     0.00000000   -0.00010582    0.00212687
     atom   70 type  4   force =     0.00000000    0.00010582    0.00212687
     atom   71 type  4   force =    -0.00001100   -0.00016338    0.00370325
     atom   72 type  4   force =    -0.00001100    0.00016338    0.00370325
     atom   73 type  4   force =     0.00001100    0.00016338    0.00370325
     atom   74 type  4   force =     0.00001100   -0.00016338    0.00370325
     atom   75 type  4   force =     0.00028043    0.00000000    0.00407090
     atom   76 type  4   force =    -0.00028043    0.00000000    0.00407090
     atom   77 type  4   force =     0.00000000   -0.00088311    0.00327838
     atom   78 type  4   force =     0.00000000    0.00088311    0.00327838
     atom   79 type  4   force =     0.00078542    0.00000000    0.00353426
     atom   80 type  4   force =    -0.00078542    0.00000000    0.00353426
     atom   81 type  3   force =    -0.00013347   -0.00001029   -0.00115635
     atom   82 type  3   force =    -0.00013347    0.00001029   -0.00115635
     atom   83 type  3   force =     0.00013347   -0.00001029   -0.00115635
     atom   84 type  3   force =     0.00013347    0.00001029   -0.00115635
     atom   85 type  3   force =    -0.00011445    0.00009155   -0.00188674
     atom   86 type  3   force =     0.00011445    0.00009155   -0.00188674
     atom   87 type  3   force =     0.00011445   -0.00009155   -0.00188674
     atom   88 type  3   force =    -0.00011445   -0.00009155   -0.00188674
     atom   89 type  1   force =     0.00000000    0.00000000    0.00722331
     atom   90 type  1   force =     0.00000000   -0.00043031    0.01326620
     atom   91 type  1   force =     0.00000000    0.00043031    0.01326620
     atom   92 type  1   force =     0.00089847    0.00000000    0.01232904
     atom   93 type  1   force =    -0.00089847    0.00000000    0.01232904
     atom   94 type  1   force =     0.00000000    0.00000000    0.01478006
     atom   95 type  1   force =     0.00000000    0.00000000    0.01478006
     atom   96 type  1   force =     0.00000000    0.00000000    0.01510612
     atom   97 type  4   force =     0.00049750    0.00044541   -0.01150788
     atom   98 type  4   force =     0.00049750   -0.00044541   -0.01150788
     atom   99 type  4   force =    -0.00049750    0.00044541   -0.01150788
     atom  100 type  4   force =    -0.00049750   -0.00044541   -0.01150788
     atom  101 type  4   force =    -0.00201182   -0.00063935   -0.01182504
     atom  102 type  4   force =     0.00201182   -0.00063935   -0.01182504
     atom  103 type  4   force =     0.00201182    0.00063935   -0.01182504
     atom  104 type  4   force =    -0.00201182    0.00063935   -0.01182504
     atom  105 type  4   force =     0.00328529    0.00000000    0.02166991
     atom  106 type  4   force =    -0.00328529    0.00000000    0.02166991
     atom  107 type  3   force =    -0.00781772   -0.00196960    0.01095067
     atom  108 type  3   force =    -0.00781772    0.00196960    0.01095067
     atom  109 type  3   force =     0.00781772    0.00196960    0.01095067
     atom  110 type  3   force =     0.00781772   -0.00196960    0.01095067
     atom  111 type  3   force =    -0.00321603   -0.00029216    0.00837538
     atom  112 type  3   force =     0.00321603    0.00029216    0.00837538
     atom  113 type  3   force =    -0.00321603    0.00029216    0.00837538
     atom  114 type  3   force =     0.00321603   -0.00029216    0.00837538
     atom  115 type  4   force =     0.00071635   -0.00029442    0.01895662
     atom  116 type  4   force =    -0.00071635   -0.00029442    0.01895662
     atom  117 type  4   force =     0.00071635    0.00029442    0.01895662
     atom  118 type  4   force =    -0.00071635    0.00029442    0.01895662
     atom  119 type  4   force =    -0.00843818    0.00000000    0.02310387
     atom  120 type  4   force =     0.00843818    0.00000000    0.02310387
     atom  121 type  4   force =     0.00529226    0.00545986   -0.00176017
     atom  122 type  4   force =    -0.00529226    0.00545986   -0.00176017
     atom  123 type  4   force =    -0.00529226   -0.00545986   -0.00176017
     atom  124 type  4   force =     0.00529226   -0.00545986   -0.00176017
     atom  125 type  4   force =    -0.00161599    0.00064825   -0.00069681
     atom  126 type  4   force =    -0.00161599   -0.00064825   -0.00069681
     atom  127 type  4   force =     0.00161599    0.00064825   -0.00069681
     atom  128 type  4   force =     0.00161599   -0.00064825   -0.00069681
     atom  129 type  1   force =     0.00000000    0.00000000   -0.02495583
     atom  130 type  1   force =     0.00000000    0.00000000   -0.02012139
     atom  131 type  1   force =     0.00000000    0.00000000   -0.02012139
     atom  132 type  1   force =    -0.00587005    0.00000000   -0.02454697
     atom  133 type  1   force =     0.00587005    0.00000000   -0.02454697
     atom  134 type  1   force =     0.00000000   -0.00369240   -0.01856722
     atom  135 type  1   force =     0.00000000    0.00369240   -0.01856722
     atom  136 type  1   force =     0.00000000    0.00000000   -0.02213261
     atom  137 type  3   force =     0.00018004    0.00109672   -0.01668674
     atom  138 type  3   force =     0.00018004   -0.00109672   -0.01668674
     atom  139 type  3   force =    -0.00018004   -0.00109672   -0.01668674
     atom  140 type  3   force =    -0.00018004    0.00109672   -0.01668674
     atom  141 type  3   force =    -0.00140213    0.00081384   -0.01731984
     atom  142 type  3   force =    -0.00140213   -0.00081384   -0.01731984
     atom  143 type  3   force =     0.00140213    0.00081384   -0.01731984
     atom  144 type  3   force =     0.00140213   -0.00081384   -0.01731984
     atom  145 type  4   force =    -0.00208353    0.00000000    0.00341324
     atom  146 type  4   force =     0.00208353    0.00000000    0.00341324
     atom  147 type  4   force =     0.00000000   -0.00162883    0.00554295
     atom  148 type  4   force =     0.00000000    0.00162883    0.00554295
     atom  149 type  4   force =    -0.00025761    0.00000000   -0.00034775
     atom  150 type  4   force =     0.00025761    0.00000000   -0.00034775
     atom  151 type  4   force =    -0.00063640    0.00002061    0.00188101
     atom  152 type  4   force =     0.00063640    0.00002061    0.00188101
     atom  153 type  4   force =     0.00063640   -0.00002061    0.00188101
     atom  154 type  4   force =    -0.00063640   -0.00002061    0.00188101
     atom  155 type  4   force =     0.00000000   -0.00177908    0.00359844
     atom  156 type  4   force =     0.00000000    0.00177908    0.00359844
     atom  157 type  4   force =    -0.00012167    0.00028323    0.00389193
     atom  158 type  4   force =     0.00012167   -0.00028323    0.00389193
     atom  159 type  4   force =    -0.00012167   -0.00028323    0.00389193
     atom  160 type  4   force =     0.00012167    0.00028323    0.00389193
     atom  161 type  2   force =     0.00000000    0.00000000   -0.00131482
     atom  162 type  5   force =    -0.00027155    0.00000000   -0.00001160
     atom  163 type  5   force =     0.00027155    0.00000000   -0.00001160
     atom  164 type  5   force =     0.00000000    0.00000000    0.00063254
     atom  165 type  5   force =     0.00000000    0.00000000   -0.00018473
     atom  166 type  5   force =     0.00000000    0.00000000   -0.00018473
     atom  167 type  5   force =     0.00000000   -0.00051840   -0.00057927
     atom  168 type  5   force =     0.00000000    0.00051840   -0.00057927
     atom  169 type  4   force =    -0.00020361   -0.00002084    0.00025055
     atom  170 type  4   force =    -0.00020361    0.00002084    0.00025055
     atom  171 type  4   force =     0.00020361   -0.00002084    0.00025055
     atom  172 type  4   force =     0.00020361    0.00002084    0.00025055
     atom  173 type  4   force =     0.00000000    0.00016470    0.00041404
     atom  174 type  4   force =     0.00000000   -0.00016470    0.00041404
     atom  175 type  4   force =    -0.00003308   -0.00002503   -0.00008172
     atom  176 type  4   force =    -0.00003308    0.00002503   -0.00008172
     atom  177 type  4   force =     0.00003308    0.00002503   -0.00008172
     atom  178 type  4   force =     0.00003308   -0.00002503   -0.00008172
     atom  179 type  4   force =    -0.00006268    0.00000000   -0.00034587
     atom  180 type  4   force =     0.00006268    0.00000000   -0.00034587
     atom  181 type  4   force =     0.00000000   -0.00008778    0.00024482
     atom  182 type  4   force =     0.00000000    0.00008778    0.00024482
     atom  183 type  4   force =    -0.00014721    0.00000000    0.00002028
     atom  184 type  4   force =     0.00014721    0.00000000    0.00002028
     atom  185 type  3   force =     0.00002122   -0.00000219    0.00032354
     atom  186 type  3   force =     0.00002122    0.00000219    0.00032354
     atom  187 type  3   force =    -0.00002122   -0.00000219    0.00032354
     atom  188 type  3   force =    -0.00002122    0.00000219    0.00032354
     atom  189 type  3   force =     0.00003428    0.00006018    0.00031357
     atom  190 type  3   force =    -0.00003428    0.00006018    0.00031357
     atom  191 type  3   force =    -0.00003428   -0.00006018    0.00031357
     atom  192 type  3   force =     0.00003428   -0.00006018    0.00031357
     atom  193 type  1   force =     0.00000000    0.00000000    0.00014545
     atom  194 type  1   force =     0.00000000   -0.00006231    0.00029685
     atom  195 type  1   force =     0.00000000    0.00006231    0.00029685
     atom  196 type  1   force =     0.00023001    0.00000000    0.00005503
     atom  197 type  1   force =    -0.00023001    0.00000000    0.00005503
     atom  198 type  1   force =     0.00000000    0.00000000    0.00016267
     atom  199 type  1   force =     0.00000000    0.00000000    0.00016267
     atom  200 type  1   force =     0.00000000    0.00000000    0.00011082
     atom  201 type  4   force =     0.00003794    0.00007804   -0.00159691
     atom  202 type  4   force =     0.00003794   -0.00007804   -0.00159691
     atom  203 type  4   force =    -0.00003794    0.00007804   -0.00159691
     atom  204 type  4   force =    -0.00003794   -0.00007804   -0.00159691
     atom  205 type  4   force =     0.00003804    0.00004526   -0.00136392
     atom  206 type  4   force =    -0.00003804    0.00004526   -0.00136392
     atom  207 type  4   force =    -0.00003804   -0.00004526   -0.00136392
     atom  208 type  4   force =     0.00003804   -0.00004526   -0.00136392
     atom  209 type  4   force =     0.00009397    0.00000000   -0.00024298
     atom  210 type  4   force =    -0.00009397    0.00000000   -0.00024298
     atom  211 type  3   force =     0.00008515   -0.00006319    0.00058222
     atom  212 type  3   force =     0.00008515    0.00006319    0.00058222
     atom  213 type  3   force =    -0.00008515    0.00006319    0.00058222
     atom  214 type  3   force =    -0.00008515   -0.00006319    0.00058222
     atom  215 type  3   force =    -0.00000853   -0.00001428    0.00077587
     atom  216 type  3   force =     0.00000853    0.00001428    0.00077587
     atom  217 type  3   force =    -0.00000853    0.00001428    0.00077587
     atom  218 type  3   force =     0.00000853   -0.00001428    0.00077587
     atom  219 type  4   force =    -0.00010381    0.00014755   -0.00022438
     atom  220 type  4   force =     0.00010381    0.00014755   -0.00022438
     atom  221 type  4   force =    -0.00010381   -0.00014755   -0.00022438
     atom  222 type  4   force =     0.00010381   -0.00014755   -0.00022438
     atom  223 type  4   force =    -0.00014889    0.00000000   -0.00019620
     atom  224 type  4   force =     0.00014889    0.00000000   -0.00019620

     Total force =     0.119124     Total SCF correction =     0.000436


     Computing stress (Cartesian axis) and pressure


     negative rho (up, down):  6.351E-01 0.000E+00
          total   stress  (Ry/bohr**3)                   (kbar)     P=       -7.18
  -0.00000402   0.00000000   0.00000000           -0.59        0.00        0.00
  -0.00000000  -0.00007606   0.00000000           -0.00      -11.19        0.00
   0.00000000   0.00000000  -0.00006629            0.00        0.00       -9.75

 
     init_run     :     53.86s CPU     56.57s WALL (       1 calls)
     electrons    :   4047.28s CPU   4222.23s WALL (       1 calls)
     forces       :     31.94s CPU     34.06s WALL (       1 calls)
     stress       :    374.64s CPU    378.88s WALL (       1 calls)

     Called by init_run:
     wfcinit      :     42.68s CPU     44.08s WALL (       1 calls)
     potinit      :      1.57s CPU      1.61s WALL (       1 calls)
     hinit0       :      3.00s CPU      3.03s WALL (       1 calls)

     Called by electrons:
     c_bands      :   3435.34s CPU   3511.31s WALL (      39 calls)
     sum_band     :    428.88s CPU    483.58s WALL (      39 calls)
     v_of_rho     :      8.88s CPU      9.06s WALL (      40 calls)
     newd         :     69.34s CPU    113.59s WALL (      40 calls)
     mix_rho      :    105.71s CPU    106.48s WALL (      39 calls)

     Called by c_bands:
     init_us_2    :     11.37s CPU     11.70s WALL (     324 calls)
     cegterg      :   3356.98s CPU   3428.09s WALL (     156 calls)

     Called by sum_band:
     sum_band:bec :      3.59s CPU      3.63s WALL (     156 calls)
     addusdens    :     68.67s CPU    119.04s WALL (      39 calls)

     Called by *egterg:
     h_psi        :   1357.88s CPU   1384.74s WALL (    1098 calls)
     s_psi        :    405.78s CPU    415.60s WALL (    1098 calls)
     g_psi        :      1.83s CPU      1.85s WALL (     938 calls)
     cdiaghg      :    722.03s CPU    725.25s WALL (    1094 calls)

     Called by h_psi:
     h_psi:calbec :    437.96s CPU    440.46s WALL (    1098 calls)
     vloc_psi     :    510.70s CPU    517.58s WALL (    1098 calls)
     add_vuspsi   :    406.11s CPU    416.31s WALL (    1098 calls)

     General routines
     calbec       :    676.79s CPU    680.17s WALL (    1274 calls)
     fft          :      9.00s CPU      9.06s WALL (     543 calls)
     ffts         :     66.09s CPU     66.52s WALL (   29385 calls)
     fftw         :    566.48s CPU    573.83s WALL (  890318 calls)
     interpolate  :      0.80s CPU      0.80s WALL (      40 calls)
 
     Parallel routines
     fft_scatt_xy :     83.97s CPU     85.08s WALL (  920246 calls)
     fft_scatt_yz :    340.57s CPU    345.00s WALL (  920246 calls)
 
     PWSCF        :      1h15m CPU      1h18m WALL

 
   This run was terminated on:  22: 5: 3  17May2021            

=------------------------------------------------------------------------------=
   JOB DONE.
=------------------------------------------------------------------------------=
[1621303503.469654] [holy7c12107:273826:0]          mpool.c:43   UCX  WARN  object 0x676bfc0 was not returned to mpool ucp_requests
[1621303503.482926] [holy7c12207:9021 :0]          mpool.c:43   UCX  WARN  object 0x29efd00 was not returned to mpool ucp_requests
[1621303503.486287] [holy7c12211:84570:0]          mpool.c:43   UCX  WARN  object 0x3d58c00 was not returned to mpool ucp_requests
[1621303503.483621] [holy7c10112:34958:0]          mpool.c:43   UCX  WARN  object 0x2ba2e80 was not returned to mpool ucp_requests
[1621303503.489672] [holy7c10112:34964:0]          mpool.c:43   UCX  WARN  object 0x3f04e80 was not returned to mpool ucp_requests
[1621303503.477167] [holy7c12107:273824:0]          mpool.c:43   UCX  WARN  object 0x3d06780 was not returned to mpool ucp_requests
[1621303503.482287] [holy7c12107:273832:0]          mpool.c:43   UCX  WARN  object 0x4165040 was not returned to mpool ucp_requests
[1621303503.477084] [holy7c12107:273825:0]          mpool.c:43   UCX  WARN  object 0x3c45f00 was not returned to mpool ucp_requests
[1621303503.489236] [holy7c12107:273831:0]          mpool.c:43   UCX  WARN  object 0x3e40040 was not returned to mpool ucp_requests
[1621303503.484791] [holy7c12207:9023 :0]          mpool.c:43   UCX  WARN  object 0x6905bc0 was not returned to mpool ucp_requests
[1621303503.495826] [holy7c12207:9031 :0]          mpool.c:43   UCX  WARN  object 0x2e44040 was not returned to mpool ucp_requests
[1621303503.495874] [holy7c12207:9029 :0]          mpool.c:43   UCX  WARN  object 0x4729a40 was not returned to mpool ucp_requests
[1621303503.489813] [holy7c12207:9030 :0]          mpool.c:43   UCX  WARN  object 0x4373f00 was not returned to mpool ucp_requests
[1621303503.489837] [holy7c12207:9030 :0]          mpool.c:43   UCX  WARN  object 0x4378500 was not returned to mpool ucp_requests
[1621303503.491485] [holy7c12207:9024 :0]          mpool.c:43   UCX  WARN  object 0x341df40 was not returned to mpool ucp_requests
[1621303503.493139] [holy7c12107:273823:0]          mpool.c:43   UCX  WARN  object 0x395b000 was not returned to mpool ucp_requests
[1621303503.488359] [holy7c12211:84568:0]          mpool.c:43   UCX  WARN  object 0x3b12100 was not returned to mpool ucp_requests
[1621303503.512014] [holy7c10112:34966:0]          mpool.c:43   UCX  WARN  object 0x3c9cf40 was not returned to mpool ucp_requests
[1621303503.487599] [holy7c12107:273833:0]          mpool.c:43   UCX  WARN  object 0x5093440 was not returned to mpool ucp_requests
[1621303503.494833] [holy7c10112:34965:0]          mpool.c:43   UCX  WARN  object 0x680c3c0 was not returned to mpool ucp_requests
[1621303503.491238] [holy7c12211:84567:0]          mpool.c:43   UCX  WARN  object 0x35d50c0 was not returned to mpool ucp_requests
[1621303503.493277] [holy7c12211:84578:0]          mpool.c:43   UCX  WARN  object 0x409e980 was not returned to mpool ucp_requests
[1621303503.493443] [holy7c12211:84577:0]          mpool.c:43   UCX  WARN  object 0x3cdfe00 was not returned to mpool ucp_requests
[1621303503.494091] [holy7c10112:34957:0]          mpool.c:43   UCX  WARN  object 0x31f6bc0 was not returned to mpool ucp_requests
[1621303503.493657] [holy7c10112:34959:0]          mpool.c:43   UCX  WARN  object 0x33aa940 was not returned to mpool ucp_requests
[1621303503.493640] [holy7c12211:84576:0]          mpool.c:43   UCX  WARN  object 0x2eecc00 was not returned to mpool ucp_requests
[1621303503.493660] [holy7c12211:84576:0]          mpool.c:43   UCX  WARN  object 0x2eecdc0 was not returned to mpool ucp_requests
[1621303503.497030] [holy7c12211:84569:0]          mpool.c:43   UCX  WARN  object 0x3867a00 was not returned to mpool ucp_requests
[1621303503.498411] [holy7c12207:9016 :0]          mpool.c:43   UCX  WARN  object 0x3370b40 was not returned to mpool ucp_requests
[1621303503.500280] [holy7c12211:84575:0]          mpool.c:43   UCX  WARN  object 0x2db11c0 was not returned to mpool ucp_requests
[1621303503.501419] [holy7c12207:9022 :0]          mpool.c:43   UCX  WARN  object 0x36336c0 was not returned to mpool ucp_requests
[1621303503.513620] [holy7c12207:9032 :0]          mpool.c:43   UCX  WARN  object 0x3310f80 was not returned to mpool ucp_requests
[1621303503.509348] [holy7c10112:34967:0]          mpool.c:43   UCX  WARN  object 0x5200980 was not returned to mpool ucp_requests
