
     Program PWSCF v.6.5 starts on 17May2021 at 22:26:46 

     This program is part of the open-source Quantum ESPRESSO suite
     for quantum simulation of materials; please cite
         "P. Giannozzi et al., J. Phys.:Condens. Matter 21 395502 (2009);
         "P. Giannozzi et al., J. Phys.:Condens. Matter 29 465901 (2017);
          URL http://www.quantum-espresso.org", 
     in publications or presentations arising from this work. More details at
     http://www.quantum-espresso.org/quote

     Parallel version (MPI), running on    80 processors

     MPI processes distributed on     5 nodes
     R & G space division:  proc/nbgrp/npool/nimage =      80
     Reading input from YBCO_BaO_cleave_3.0_sep.pwi
Warning: card &IONS ignored
Warning: card     ION_DYNAMICS = 'BFGS' ignored
Warning: card / ignored
Warning: card &CELL ignored
Warning: card     CELL_DYNAMICS = 'BFGS' ignored
Warning: card     PRESS_CONV_THR = 5 ignored
Warning: card / ignored

     Current dimensions of program PWSCF are:
     Max number of different atomic species (ntypx) = 10
     Max number of k-points (npk) =  40000
     Max angular momentum in pseudopotentials (lmaxx) =  3
     Message from routine volume:
     axis vectors are left-handed

     Subspace diagonalization in iterative solution of the eigenvalue problem:
     one sub-group per band group will be used
     scalapack distributed-memory algorithm (size of sub-group:  8*  8 procs)

     Message from routine setup:
     using ibrav=0 with symmetry is DISCOURAGED, use correct ibrav instead
 
     Parallelization info
     --------------------
     sticks:   dense  smooth     PW     G-vecs:    dense   smooth      PW
     Min         300     100     25               150530    28968    3803
     Max         301     101     26               150565    28991    3842
     Sum       24079    8031   2067             12044437  2318275  306339
 


     bravais-lattice index     =            0
     lattice parameter (alat)  =      20.5021  a.u.
     unit-cell volume          =   36917.4932 (a.u.)^3
     number of atoms/cell      =          224
     number of atomic types    =            5
     number of electrons       =      1830.00
     number of Kohn-Sham states=         1098
     kinetic-energy cutoff     =      60.0000  Ry
     charge density cutoff     =     720.0000  Ry
     convergence threshold     =      1.0E-08
     mixing beta               =       0.5000
     number of iterations used =           10  local-TF  mixing
     Exchange-correlation= SLA PW PBE PBE
                           (   1   4   3   4   0   0   0)

     celldm(1)=  20.502120  celldm(2)=   0.000000  celldm(3)=   0.000000
     celldm(4)=   0.000000  celldm(5)=   0.000000  celldm(6)=   0.000000

     crystal axes: (cart. coord. in units of alat)
               a(1) = (  -0.716599   0.697485   0.000000 )  
               a(2) = (   0.716599   0.697485   0.000000 )  
               a(3) = (   0.000000   0.000000   4.285432 )  

     reciprocal axes: (cart. coord. in units 2 pi/alat)
               b(1) = ( -0.697740  0.716861  0.000000 )  
               b(2) = (  0.697740  0.716861  0.000000 )  
               b(3) = (  0.000000  0.000000  0.233349 )  


     PseudoPot. # 1 for Ba read from file:
     ./pseudo/Ba.pbe-nsp-van.UPF
     MD5 check sum: 2b9c31dd849566dd297d80989662b7a0
     Pseudo is Ultrasoft + core correction, Zval = 10.0
     Generated by new atomic code, or converted to UPF format
     Using radial grid of  907 points,  6 beta functions with: 
                l(1) =   0
                l(2) =   0
                l(3) =   1
                l(4) =   1
                l(5) =   2
                l(6) =   2
     Q(r) pseudized with  6 coefficients,  rinner =    1.200   1.200   1.200
                                                       1.200   1.200

     PseudoPot. # 2 for Ca read from file:
     ./pseudo/Ca.pbe-nsp-van.UPF
     MD5 check sum: 6471098428ff4fa451746d08035ff179
     Pseudo is Ultrasoft + core correction, Zval = 10.0
     Generated by new atomic code, or converted to UPF format
     Using radial grid of  845 points,  6 beta functions with: 
                l(1) =   0
                l(2) =   0
                l(3) =   1
                l(4) =   1
                l(5) =   2
                l(6) =   2
     Q(r) pseudized with  6 coefficients,  rinner =    1.200   1.200   1.200
                                                       1.200   1.200

     PseudoPot. # 3 for Cu read from file:
     ./pseudo/Cu.pbe-n-van_ak.UPF
     MD5 check sum: 34e3282627ffb533726feb647e090d62
     Pseudo is Ultrasoft + core correction, Zval = 11.0
     Generated by new atomic code, or converted to UPF format
     Using radial grid of  867 points,  6 beta functions with: 
                l(1) =   0
                l(2) =   0
                l(3) =   1
                l(4) =   1
                l(5) =   2
                l(6) =   2
     Q(r) pseudized with  8 coefficients,  rinner =    1.400   1.400   1.400
                                                       1.400   1.400

     PseudoPot. # 4 for O  read from file:
     ./pseudo/O.pbe-van_ak.UPF
     MD5 check sum: 783ce7fe4c79b6a4916957118fed0856
     Pseudo is Ultrasoft, Zval =  6.0
     Generated by new atomic code, or converted to UPF format
     Using radial grid of  737 points,  4 beta functions with: 
                l(1) =   0
                l(2) =   0
                l(3) =   1
                l(4) =   1
     Q(r) pseudized with  8 coefficients,  rinner =    0.800   0.800   0.800


     PseudoPot. # 5 for Y  read from file:
     ./pseudo/Y.pbe-nsp-van.UPF
     MD5 check sum: 4412fed3ab108fed87a1b7d6a69a4a38
     Pseudo is Ultrasoft + core correction, Zval = 11.0
     Generated by new atomic code, or converted to UPF format
     Using radial grid of  885 points,  6 beta functions with: 
                l(1) =   0
                l(2) =   0
                l(3) =   1
                l(4) =   1
                l(5) =   2
                l(6) =   2
     Q(r) pseudized with  6 coefficients,  rinner =    1.200   1.200   1.200
                                                       1.200   1.200

     atomic species   valence    mass     pseudopotential
        Ba            10.00   137.32700     Ba( 1.00)
        Ca            10.00    40.07800     Ca( 1.00)
        Cu            11.00    63.54600     Cu( 1.00)
        O              6.00    15.99900     O ( 1.00)
        Y             11.00    88.90584     Y ( 1.00)

      4 Sym. Ops. (no inversion) found ( 3 have fractional translation)



   Cartesian axes

     site n.     atom                  positions (alat units)
         1           O   tau(   1) = (   0.3545921   0.8718562  -0.0077406  )
         2           O   tau(   2) = (   0.0037072   0.8718562  -0.0077406  )
         3           Cu  tau(   3) = (  -0.0002581   0.0006065   0.0080789  )
         4           Cu  tau(   4) = (  -0.0002581   0.3481364   0.0080789  )
         5           Cu  tau(   5) = (   0.3585574   0.3481364   0.0080789  )
         6           Cu  tau(   6) = (  -0.3580421   0.6980913   0.0080789  )
         7           Cu  tau(   7) = (   0.3577988   0.6971373   0.0086255  )
         8           Cu  tau(   8) = (   0.0005005   1.0465760   0.0086255  )
         9           Cu  tau(   9) = (  -0.3588016   0.3490903   0.0086255  )
        10           Cu  tau(  10) = (   0.0005005   0.6971373   0.0086255  )
        11           O   tau(  11) = (  -0.0001733   0.5225410  -0.0089757  )
        12           O   tau(  12) = (   0.3584726   0.5225410  -0.0089757  )
        13           O   tau(  13) = (  -0.0001733   1.2211724  -0.0089757  )
        14           O   tau(  14) = (  -0.3581278   0.5236867  -0.0089757  )
        15           O   tau(  15) = (  -0.3544557   0.8718562  -0.0105593  )
        16           O   tau(  16) = (  -0.0038445   0.1743714  -0.0105593  )
        17           O   tau(  17) = (   0.3588818   0.3486599   0.1817056  )
        18           O   tau(  18) = (  -0.0005825   0.3486599   0.1817056  )
        19           O   tau(  19) = (  -0.0005825   0.0000830   0.1817056  )
        20           O   tau(  20) = (  -0.3577167   0.6975677   0.1817056  )
        21           O   tau(  21) = (   0.3584283   0.6967843   0.1825784  )
        22           O   tau(  22) = (  -0.3581712   0.3494443   0.1825784  )
        23           O   tau(  23) = (  -0.0001290   0.6967843   0.1825784  )
        24           O   tau(  24) = (  -0.0001290   1.0469291   0.1825784  )
        25           Ba  tau(  25) = (   0.1791506   0.8718562   0.1908537  )
        26           Ba  tau(  26) = (   0.5374498   0.5231143   0.1919901  )
        27           Ba  tau(  27) = (  -0.1791506   0.5231143   0.1919901  )
        28           Ba  tau(  28) = (  -0.1793773   0.8718562   0.1931958  )
        29           Ba  tau(  29) = (  -0.1789238   0.1743714   0.1931958  )
        30           Ba  tau(  30) = (   0.1791506   0.5222101   0.1929368  )
        31           Ba  tau(  31) = (  -0.5374498   0.5240176   0.1929368  )
        32           Ba  tau(  32) = (   0.1791506   0.1743714   0.1992469  )
        33           Cu  tau(  33) = (  -0.3583426   0.3488452   0.3777458  )
        34           Cu  tau(  34) = (   0.3582559   0.6973834   0.3777458  )
        35           Cu  tau(  35) = (   0.0000433   0.6973834   0.3777458  )
        36           Cu  tau(  36) = (   0.0000433   1.0463299   0.3777458  )
        37           Cu  tau(  37) = (  -0.3586541   0.6975060   0.3775126  )
        38           Cu  tau(  38) = (   0.3579444   0.3487217   0.3775126  )
        39           Cu  tau(  39) = (   0.0003549   0.0000212   0.3775126  )
        40           Cu  tau(  40) = (   0.0003549   0.3487217   0.3775126  )
        41           O   tau(  41) = (  -0.0047976   0.1743714   0.3996864  )
        42           O   tau(  42) = (  -0.3535026   0.8718562   0.3996864  )
        43           O   tau(  43) = (  -0.5374498   0.6924605   0.3956991  )
        44           O   tau(  44) = (   0.1791506   0.3537672   0.3956991  )
        45           O   tau(  45) = (   0.3586385   0.8718562   0.4046840  )
        46           O   tau(  46) = (  -0.0003392   0.8718562   0.4046840  )
        47           O   tau(  47) = (  -0.0004857   0.5230571   0.4066611  )
        48           O   tau(  48) = (   0.3587850   0.5230571   0.4066611  )
        49           O   tau(  49) = (  -0.3578135   0.5231714   0.4066611  )
        50           O   tau(  50) = (  -0.0004857   1.2206562   0.4066611  )
        51           O   tau(  51) = (   0.1791506   1.0461604   0.4028931  )
        52           O   tau(  52) = (   0.1791506   0.6975521   0.4028931  )
        53           O   tau(  53) = (  -0.1792261   0.6967170   0.4025963  )
        54           O   tau(  54) = (  -0.1790731   0.3495106   0.4025963  )
        55           O   tau(  55) = (  -0.1792261   1.0469964   0.4025963  )
        56           O   tau(  56) = (   0.5375263   0.6967170   0.4025963  )
        57           Ca  tau(  57) = (   0.1791506   0.1743714   0.5358617  )
        58           Y   tau(  58) = (  -0.1811525   0.8718562   0.5373908  )
        59           Y   tau(  59) = (  -0.1771467   0.1743714   0.5373908  )
        60           Y   tau(  60) = (   0.1791506   0.8718562   0.5379568  )
        61           Y   tau(  61) = (   0.5374498   0.5231143   0.5384490  )
        62           Y   tau(  62) = (  -0.1791506   0.5231143   0.5384490  )
        63           Y   tau(  63) = (   0.1791506   0.5216598   0.5383310  )
        64           Y   tau(  64) = (  -0.5374498   0.5245688   0.5383310  )
        65           O   tau(  65) = (  -0.1787754   0.3493171   0.6712314  )
        66           O   tau(  66) = (   0.5378231   0.6969115   0.6712314  )
        67           O   tau(  67) = (  -0.1795239   1.0468019   0.6712314  )
        68           O   tau(  68) = (  -0.1795239   0.6969115   0.6712314  )
        69           O   tau(  69) = (   0.1791506   0.6972691   0.6718637  )
        70           O   tau(  70) = (   0.1791506   1.0464433   0.6718637  )
        71           O   tau(  71) = (  -0.0003880   1.2203935   0.6667490  )
        72           O   tau(  72) = (  -0.0003880   0.5233198   0.6667490  )
        73           O   tau(  73) = (   0.3586882   0.5233198   0.6667490  )
        74           O   tau(  74) = (  -0.3579112   0.5229087   0.6667490  )
        75           O   tau(  75) = (   0.3585850   0.8718562   0.6641940  )
        76           O   tau(  76) = (  -0.0002857   0.8718562   0.6641940  )
        77           O   tau(  77) = (   0.1791506   0.3535118   0.6756778  )
        78           O   tau(  78) = (  -0.5374498   0.6927158   0.6756778  )
        79           O   tau(  79) = (  -0.0043044   0.1743714   0.6710848  )
        80           O   tau(  80) = (  -0.3539948   0.8718562   0.6710848  )
        81           Cu  tau(  81) = (  -0.3586514   0.6973604   0.6974442  )
        82           Cu  tau(  82) = (   0.3579472   0.3488682   0.6974442  )
        83           Cu  tau(  83) = (   0.0003521  -0.0001254   0.6974442  )
        84           Cu  tau(  84) = (   0.0003521   0.3488682   0.6974442  )
        85           Cu  tau(  85) = (   0.0000083   1.0459401   0.6989015  )
        86           Cu  tau(  86) = (  -0.3583076   0.3484544   0.6989015  )
        87           Cu  tau(  87) = (   0.3582910   0.6977733   0.6989015  )
        88           Cu  tau(  88) = (   0.0000083   0.6977733   0.6989015  )
        89           Ba  tau(  89) = (   0.1791506   0.1743714   0.8671591  )
        90           Ba  tau(  90) = (  -0.5374498   0.5239908   0.8827639  )
        91           Ba  tau(  91) = (   0.1791506   0.5222377   0.8827639  )
        92           Ba  tau(  92) = (  -0.1785616   0.1743714   0.8784262  )
        93           Ba  tau(  93) = (  -0.1797386   0.8718562   0.8784262  )
        94           Ba  tau(  94) = (  -0.1791506   0.5231143   0.8841483  )
        95           Ba  tau(  95) = (   0.5374498   0.5231143   0.8841483  )
        96           Ba  tau(  96) = (   0.1791506   0.8718562   0.8844635  )
        97           O   tau(  97) = (   0.3607888   0.6975991   0.9037874  )
        98           O   tau(  98) = (  -0.3558097   0.3486286   0.9037874  )
        99           O   tau(  99) = (  -0.0024896   0.6975991   0.9037874  )
       100           O   tau( 100) = (  -0.0024896   1.0461143   0.9037874  )
       101           O   tau( 101) = (   0.3544087   0.3463252   0.9043663  )
       102           O   tau( 102) = (   0.0038906   0.3463252   0.9043663  )
       103           O   tau( 103) = (   0.0038906   0.0024177   0.9043663  )
       104           O   tau( 104) = (  -0.3621908   0.6999025   0.9043663  )
       105           O   tau( 105) = (   0.3314246   0.8718562   1.0783672  )
       106           O   tau( 106) = (   0.0268747   0.8718562   1.0783672  )
       107           Cu  tau( 107) = (  -0.0027882   0.0031818   1.0782086  )
       108           Cu  tau( 108) = (  -0.0027882   0.3455601   1.0782086  )
       109           Cu  tau( 109) = (   0.3610875   0.3455601   1.0782086  )
       110           Cu  tau( 110) = (  -0.3555111   0.7006675   1.0782086  )
       111           Cu  tau( 111) = (   0.3579684   0.6983604   1.0781976  )
       112           Cu  tau( 112) = (   0.0003318   1.0453529   1.0781976  )
       113           Cu  tau( 113) = (  -0.3586320   0.3478672   1.0781976  )
       114           Cu  tau( 114) = (   0.0003318   0.6983604   1.0781976  )
       115           O   tau( 115) = (  -0.0055718   0.5218801   1.0778989  )
       116           O   tau( 116) = (   0.3638720   0.5218801   1.0778989  )
       117           O   tau( 117) = (  -0.0055718   1.2218333   1.0778989  )
       118           O   tau( 118) = (  -0.3527284   0.5243475   1.0778989  )
       119           O   tau( 119) = (  -0.3170374   0.8718562   1.0783192  )
       120           O   tau( 120) = (  -0.0412618   0.1743714   1.0783192  )
       121           O   tau( 121) = (   0.3544105   0.3465040   1.2520362  )
       122           O   tau( 122) = (   0.0038887   0.3465040   1.2520362  )
       123           O   tau( 123) = (   0.0038887   0.0022389   1.2520362  )
       124           O   tau( 124) = (  -0.3621880   0.6997236   1.2520362  )
       125           O   tau( 125) = (   0.3607981   0.6973991   1.2525976  )
       126           O   tau( 126) = (  -0.3558014   0.3488295   1.2525976  )
       127           O   tau( 127) = (  -0.0024988   0.6973991   1.2525976  )
       128           O   tau( 128) = (  -0.0024988   1.0463143   1.2525976  )
       129           Ba  tau( 129) = (   0.1791506   0.8718562   1.2719528  )
       130           Ba  tau( 130) = (   0.5374498   0.5231143   1.2722763  )
       131           Ba  tau( 131) = (  -0.1791506   0.5231143   1.2722763  )
       132           Ba  tau( 132) = (  -0.1796732   0.8718562   1.2779763  )
       133           Ba  tau( 133) = (  -0.1786270   0.1743714   1.2779763  )
       134           Ba  tau( 134) = (   0.1791506   0.5222571   1.2737041  )
       135           Ba  tau( 135) = (  -0.5374498   0.5239706   1.2737041  )
       136           Ba  tau( 136) = (   0.1791506   0.1743714   1.2892268  )
       137           Cu  tau( 137) = (  -0.3583094   0.3484682   1.7340399  )
       138           Cu  tau( 138) = (   0.3582901   0.6977604   1.7340399  )
       139           Cu  tau( 139) = (   0.0000101   0.6977604   1.7340399  )
       140           Cu  tau( 140) = (   0.0000101   1.0459530   1.7340399  )
       141           Cu  tau( 141) = (  -0.3586477   0.6973567   1.7354602  )
       142           Cu  tau( 142) = (   0.3579518   0.3488710   1.7354602  )
       143           Cu  tau( 143) = (   0.0003484  -0.0001281   1.7354602  )
       144           Cu  tau( 144) = (   0.0003484   0.3488710   1.7354602  )
       145           O   tau( 145) = (  -0.0043173   0.1743714   1.7617653  )
       146           O   tau( 146) = (  -0.3539819   0.8718562   1.7617653  )
       147           O   tau( 147) = (  -0.5374498   0.6927305   1.7572341  )
       148           O   tau( 148) = (   0.1791506   0.3534971   1.7572341  )
       149           O   tau( 149) = (   0.3585795   0.8718562   1.7686754  )
       150           O   tau( 150) = (  -0.0002802   0.8718562   1.7686754  )
       151           O   tau( 151) = (  -0.0003853   0.5233134   1.7661794  )
       152           O   tau( 152) = (   0.3586855   0.5233134   1.7661794  )
       153           O   tau( 153) = (  -0.3579140   0.5229152   1.7661794  )
       154           O   tau( 154) = (  -0.0003853   1.2204000   1.7661794  )
       155           O   tau( 155) = (   0.1791506   1.0464553   1.7610528  )
       156           O   tau( 156) = (   0.1791506   0.6972571   1.7610528  )
       157           O   tau( 157) = (  -0.1795146   0.6969069   1.7616814  )
       158           O   tau( 158) = (  -0.1787846   0.3493208   1.7616814  )
       159           O   tau( 159) = (  -0.1795146   1.0468065   1.7616814  )
       160           O   tau( 160) = (   0.5378139   0.6969069   1.7616814  )
       161           Ca  tau( 161) = (   0.1791506   0.1743714   1.8970437  )
       162           Y   tau( 162) = (  -0.1811544   0.8718562   1.8955127  )
       163           Y   tau( 163) = (  -0.1771449   0.1743714   1.8955127  )
       164           Y   tau( 164) = (   0.1791506   0.8718562   1.8949495  )
       165           Y   tau( 165) = (   0.5374498   0.5231143   1.8944804  )
       166           Y   tau( 166) = (  -0.1791506   0.5231143   1.8944804  )
       167           Y   tau( 167) = (   0.1791506   0.5216524   1.8946011  )
       168           Y   tau( 168) = (  -0.5374498   0.5245761   1.8946011  )
       169           O   tau( 169) = (  -0.1790685   0.3495088   2.0303155  )
       170           O   tau( 170) = (   0.5375300   0.6967198   2.0303155  )
       171           O   tau( 171) = (  -0.1792307   1.0469936   2.0303155  )
       172           O   tau( 172) = (  -0.1792307   0.6967198   2.0303155  )
       173           O   tau( 173) = (   0.1791506   0.6975604   2.0300187  )
       174           O   tau( 174) = (   0.1791506   1.0461521   2.0300187  )
       175           O   tau( 175) = (  -0.0004848   1.2206534   2.0262544  )
       176           O   tau( 176) = (  -0.0004848   0.5230599   2.0262544  )
       177           O   tau( 177) = (   0.3587841   0.5230599   2.0262544  )
       178           O   tau( 178) = (  -0.3578144   0.5231687   2.0262544  )
       179           O   tau( 179) = (   0.3586468   0.8718562   2.0281928  )
       180           O   tau( 180) = (  -0.0003466   0.8718562   2.0281928  )
       181           O   tau( 181) = (   0.1791506   0.3537690   2.0372155  )
       182           O   tau( 182) = (  -0.5374498   0.6924586   2.0372155  )
       183           O   tau( 183) = (  -0.0047874   0.1743714   2.0331802  )
       184           O   tau( 184) = (  -0.3535118   0.8718562   2.0331802  )
       185           Cu  tau( 185) = (  -0.3586560   0.6975087   2.0553864  )
       186           Cu  tau( 186) = (   0.3579435   0.3487198   2.0553864  )
       187           Cu  tau( 187) = (   0.0003567   0.0000230   2.0553864  )
       188           Cu  tau( 188) = (   0.0003567   0.3487198   2.0553864  )
       189           Cu  tau( 189) = (   0.0000415   1.0463263   2.0551541  )
       190           Cu  tau( 190) = (  -0.3583407   0.3488406   2.0551541  )
       191           Cu  tau( 191) = (   0.3582587   0.6973871   2.0551541  )
       192           Cu  tau( 192) = (   0.0000415   0.6973871   2.0551541  )
       193           Ba  tau( 193) = (   0.1791506   0.1743714   2.2336594  )
       194           Ba  tau( 194) = (  -0.5374498   0.5240166   2.2399686  )
       195           Ba  tau( 195) = (   0.1791506   0.5222119   2.2399686  )
       196           Ba  tau( 196) = (  -0.1789220   0.1743714   2.2397124  )
       197           Ba  tau( 197) = (  -0.1793773   0.8718562   2.2397124  )
       198           Ba  tau( 198) = (  -0.1791506   0.5231143   2.2409226  )
       199           Ba  tau( 199) = (   0.5374498   0.5231143   2.2409226  )
       200           Ba  tau( 200) = (   0.1791506   0.8718562   2.2420508  )
       201           O   tau( 201) = (   0.3584302   0.6967870   2.2503205  )
       202           O   tau( 202) = (  -0.3581684   0.3494406   2.2503205  )
       203           O   tau( 203) = (  -0.0001309   0.6967870   2.2503205  )
       204           O   tau( 204) = (  -0.0001309   1.0469263   2.2503205  )
       205           O   tau( 205) = (   0.3588800   0.3486562   2.2511934  )
       206           O   tau( 206) = (  -0.0005807   0.3486562   2.2511934  )
       207           O   tau( 207) = (  -0.0005807   0.0000866   2.2511934  )
       208           O   tau( 208) = (  -0.3577186   0.6975714   2.2511934  )
       209           O   tau( 209) = (   0.3545921   0.8718562   2.4406239  )
       210           O   tau( 210) = (   0.0037081   0.8718562   2.4406239  )
       211           Cu  tau( 211) = (  -0.0002516   0.0006074   2.4248200  )
       212           Cu  tau( 212) = (  -0.0002516   0.3481345   2.4248200  )
       213           Cu  tau( 213) = (   0.3585509   0.3481345   2.4248200  )
       214           Cu  tau( 214) = (  -0.3580476   0.6980931   2.4248200  )
       215           Cu  tau( 215) = (   0.3577960   0.6971373   2.4242735  )
       216           Cu  tau( 216) = (   0.0005033   1.0465760   2.4242735  )
       217           Cu  tau( 217) = (  -0.3588035   0.3490903   2.4242735  )
       218           Cu  tau( 218) = (   0.0005033   0.6971373   2.4242735  )
       219           O   tau( 219) = (  -0.0001724   0.5225410   2.4418627  )
       220           O   tau( 220) = (   0.3584716   0.5225410   2.4418627  )
       221           O   tau( 221) = (  -0.0001724   1.2211724   2.4418627  )
       222           O   tau( 222) = (  -0.3581288   0.5236867   2.4418627  )
       223           O   tau( 223) = (  -0.3544640   0.8718562   2.4434527  )
       224           O   tau( 224) = (  -0.0038353   0.1743714   2.4434527  )

     number of k points=     4  Gaussian smearing, width (Ry)=  0.0100
                       cart. coord. in units 2pi/alat
        k(    1) = (   0.0000000   0.0000000   0.0000000), wk =   0.2222222
        k(    2) = (   0.2325801   0.2389537   0.0000000), wk =   0.8888889
        k(    3) = (   0.0000000   0.4779073   0.0000000), wk =   0.4444444
        k(    4) = (  -0.4651601  -0.0000000   0.0000000), wk =   0.4444444

     Dense  grid: 12044437 G-vectors     FFT dimensions: ( 180, 180, 768)

     Smooth grid:  2318275 G-vectors     FFT dimensions: ( 108, 108, 450)

     Estimated max dynamical RAM per process >       2.51 GB

     Estimated total dynamical RAM >     201.15 GB

     Initial potential from superposition of free atoms

     starting charge 1828.78422, renormalised to 1830.00000

     negative rho (up, down):  6.300E-01 0.000E+00
     Starting wfcs are 1602 randomized atomic wfcs

     total cpu time spent up to now is       68.2 secs

     Self-consistent Calculation

     iteration #  1     ecut=    60.00 Ry     beta= 0.50
     Davidson diagonalization with overlap
     ethr =  1.00E-02,  avg # of iterations =  2.0

     negative rho (up, down):  6.003E-01 0.000E+00

     total cpu time spent up to now is      179.3 secs

     total energy              =  -14912.95317100 Ry
     Harris-Foulkes estimate   =  -14943.78561935 Ry
     estimated scf accuracy    <     123.29512676 Ry

     iteration #  2     ecut=    60.00 Ry     beta= 0.50
     Davidson diagonalization with overlap
     ethr =  6.74E-03,  avg # of iterations =  2.0

     negative rho (up, down):  6.007E-01 0.000E+00

     total cpu time spent up to now is      286.0 secs

     total energy              =  -14923.08100770 Ry
     Harris-Foulkes estimate   =  -14927.19465192 Ry
     estimated scf accuracy    <      32.92081531 Ry

     iteration #  3     ecut=    60.00 Ry     beta= 0.50
     Davidson diagonalization with overlap
     ethr =  1.80E-03,  avg # of iterations =  1.5

     negative rho (up, down):  6.041E-01 0.000E+00

     total cpu time spent up to now is      390.8 secs

     total energy              =  -14924.68534231 Ry
     Harris-Foulkes estimate   =  -14925.75208312 Ry
     estimated scf accuracy    <      37.07981158 Ry

     iteration #  4     ecut=    60.00 Ry     beta= 0.50
     Davidson diagonalization with overlap
     ethr =  1.80E-03,  avg # of iterations =  1.0

     negative rho (up, down):  6.095E-01 0.000E+00

     total cpu time spent up to now is      489.3 secs

     total energy              =  -14924.69272860 Ry
     Harris-Foulkes estimate   =  -14925.20382682 Ry
     estimated scf accuracy    <      12.82151519 Ry

     iteration #  5     ecut=    60.00 Ry     beta= 0.50
     Davidson diagonalization with overlap
     ethr =  7.01E-04,  avg # of iterations =  1.0

     negative rho (up, down):  6.195E-01 0.000E+00

     total cpu time spent up to now is      589.5 secs

     total energy              =  -14924.46022801 Ry
     Harris-Foulkes estimate   =  -14924.97740758 Ry
     estimated scf accuracy    <      16.25184017 Ry

     iteration #  6     ecut=    60.00 Ry     beta= 0.50
     Davidson diagonalization with overlap
     ethr =  7.01E-04,  avg # of iterations =  1.0

     negative rho (up, down):  6.248E-01 0.000E+00

     total cpu time spent up to now is      693.2 secs

     total energy              =  -14924.49272681 Ry
     Harris-Foulkes estimate   =  -14924.67262544 Ry
     estimated scf accuracy    <       5.27570428 Ry

     iteration #  7     ecut=    60.00 Ry     beta= 0.50
     Davidson diagonalization with overlap
     ethr =  2.88E-04,  avg # of iterations =  9.0

     negative rho (up, down):  6.322E-01 0.000E+00

     total cpu time spent up to now is      823.8 secs

     total energy              =  -14924.45728896 Ry
     Harris-Foulkes estimate   =  -14924.57404940 Ry
     estimated scf accuracy    <       3.78636024 Ry

     iteration #  8     ecut=    60.00 Ry     beta= 0.50
     Davidson diagonalization with overlap
     ethr =  2.07E-04,  avg # of iterations =  5.0

     negative rho (up, down):  6.359E-01 0.000E+00

     total cpu time spent up to now is      934.1 secs

     total energy              =  -14924.40350523 Ry
     Harris-Foulkes estimate   =  -14924.50799061 Ry
     estimated scf accuracy    <       2.88121932 Ry

     iteration #  9     ecut=    60.00 Ry     beta= 0.50
     Davidson diagonalization with overlap
     ethr =  1.57E-04,  avg # of iterations =  9.2

     negative rho (up, down):  6.347E-01 0.000E+00

     total cpu time spent up to now is     1063.2 secs

     total energy              =  -14924.38029305 Ry
     Harris-Foulkes estimate   =  -14924.43721393 Ry
     estimated scf accuracy    <       1.46220002 Ry

     iteration # 10     ecut=    60.00 Ry     beta= 0.50
     Davidson diagonalization with overlap
     ethr =  7.99E-05,  avg # of iterations = 11.5

     negative rho (up, down):  6.320E-01 0.000E+00

     total cpu time spent up to now is     1198.8 secs

     total energy              =  -14924.36305550 Ry
     Harris-Foulkes estimate   =  -14924.40035936 Ry
     estimated scf accuracy    <       0.58556639 Ry

     iteration # 11     ecut=    60.00 Ry     beta= 0.50
     Davidson diagonalization with overlap
     c_bands:  1 eigenvalues not converged
     ethr =  3.20E-05,  avg # of iterations = 14.5

     negative rho (up, down):  6.293E-01 0.000E+00

     total cpu time spent up to now is     1359.9 secs

     total energy              =  -14924.36339191 Ry
     Harris-Foulkes estimate   =  -14924.37665389 Ry
     estimated scf accuracy    <       0.21683941 Ry

     iteration # 12     ecut=    60.00 Ry     beta= 0.50
     Davidson diagonalization with overlap
     ethr =  1.18E-05,  avg # of iterations =  7.0

     negative rho (up, down):  6.268E-01 0.000E+00

     total cpu time spent up to now is     1477.5 secs

     total energy              =  -14924.36045318 Ry
     Harris-Foulkes estimate   =  -14924.36842256 Ry
     estimated scf accuracy    <       0.18284918 Ry

     iteration # 13     ecut=    60.00 Ry     beta= 0.50
     Davidson diagonalization with overlap
     ethr =  9.99E-06,  avg # of iterations =  5.8

     negative rho (up, down):  6.242E-01 0.000E+00

     total cpu time spent up to now is     1588.5 secs

     total energy              =  -14924.35388681 Ry
     Harris-Foulkes estimate   =  -14924.36268512 Ry
     estimated scf accuracy    <       0.18989728 Ry

     iteration # 14     ecut=    60.00 Ry     beta= 0.50
     Davidson diagonalization with overlap
     ethr =  9.99E-06,  avg # of iterations = 12.8

     negative rho (up, down):  6.246E-01 0.000E+00

     total cpu time spent up to now is     1730.6 secs

     total energy              =  -14924.34887060 Ry
     Harris-Foulkes estimate   =  -14924.35545506 Ry
     estimated scf accuracy    <       0.16310798 Ry

     iteration # 15     ecut=    60.00 Ry     beta= 0.50
     Davidson diagonalization with overlap
     ethr =  8.91E-06,  avg # of iterations =  7.8

     negative rho (up, down):  6.248E-01 0.000E+00

     total cpu time spent up to now is     1852.6 secs

     total energy              =  -14924.34810364 Ry
     Harris-Foulkes estimate   =  -14924.34994374 Ry
     estimated scf accuracy    <       0.15383006 Ry

     iteration # 16     ecut=    60.00 Ry     beta= 0.50
     Davidson diagonalization with overlap
     ethr =  8.41E-06,  avg # of iterations =  2.5

     negative rho (up, down):  6.388E-01 0.000E+00

     total cpu time spent up to now is     1954.0 secs

     total energy              =  -14924.33766295 Ry
     Harris-Foulkes estimate   =  -14924.34934669 Ry
     estimated scf accuracy    <       0.15101276 Ry

     iteration # 17     ecut=    60.00 Ry     beta= 0.50
     Davidson diagonalization with overlap
     ethr =  8.25E-06,  avg # of iterations = 14.8

     negative rho (up, down):  6.301E-01 0.000E+00

     total cpu time spent up to now is     2109.8 secs

     total energy              =  -14924.33370958 Ry
     Harris-Foulkes estimate   =  -14924.33958395 Ry
     estimated scf accuracy    <       0.16862672 Ry

     iteration # 18     ecut=    60.00 Ry     beta= 0.50
     Davidson diagonalization with overlap
     c_bands:  1 eigenvalues not converged
     ethr =  8.25E-06,  avg # of iterations = 14.5

     negative rho (up, down):  6.348E-01 0.000E+00

     total cpu time spent up to now is     2258.7 secs

     total energy              =  -14924.32783711 Ry
     Harris-Foulkes estimate   =  -14924.33450818 Ry
     estimated scf accuracy    <       0.11761345 Ry

     iteration # 19     ecut=    60.00 Ry     beta= 0.50
     Davidson diagonalization with overlap
     ethr =  6.43E-06,  avg # of iterations =  9.5

     negative rho (up, down):  6.323E-01 0.000E+00

     total cpu time spent up to now is     2397.4 secs

     total energy              =  -14924.32579298 Ry
     Harris-Foulkes estimate   =  -14924.33006508 Ry
     estimated scf accuracy    <       0.04503276 Ry

     iteration # 20     ecut=    60.00 Ry     beta= 0.50
     Davidson diagonalization with overlap
     c_bands:  1 eigenvalues not converged
     ethr =  2.46E-06,  avg # of iterations = 12.5

     negative rho (up, down):  6.284E-01 0.000E+00

     total cpu time spent up to now is     2543.8 secs

     total energy              =  -14924.32603643 Ry
     Harris-Foulkes estimate   =  -14924.32766412 Ry
     estimated scf accuracy    <       0.03620812 Ry

     iteration # 21     ecut=    60.00 Ry     beta= 0.50
     Davidson diagonalization with overlap
     c_bands:  1 eigenvalues not converged
     c_bands:  1 eigenvalues not converged
     ethr =  1.98E-06,  avg # of iterations = 13.8

     negative rho (up, down):  6.280E-01 0.000E+00

     total cpu time spent up to now is     2695.4 secs

     total energy              =  -14924.32605710 Ry
     Harris-Foulkes estimate   =  -14924.32698835 Ry
     estimated scf accuracy    <       0.03417756 Ry

     iteration # 22     ecut=    60.00 Ry     beta= 0.50
     Davidson diagonalization with overlap
     c_bands:  1 eigenvalues not converged
     ethr =  1.87E-06,  avg # of iterations = 15.8

     negative rho (up, down):  6.274E-01 0.000E+00

     total cpu time spent up to now is     2858.9 secs

     total energy              =  -14924.32606528 Ry
     Harris-Foulkes estimate   =  -14924.32630090 Ry
     estimated scf accuracy    <       0.01942853 Ry

     iteration # 23     ecut=    60.00 Ry     beta= 0.50
     Davidson diagonalization with overlap
     ethr =  1.06E-06,  avg # of iterations =  6.5

     negative rho (up, down):  6.277E-01 0.000E+00

     total cpu time spent up to now is     2979.8 secs

     total energy              =  -14924.32561115 Ry
     Harris-Foulkes estimate   =  -14924.32620771 Ry
     estimated scf accuracy    <       0.01333562 Ry

     iteration # 24     ecut=    60.00 Ry     beta= 0.50
     Davidson diagonalization with overlap
     ethr =  7.29E-07,  avg # of iterations = 12.5

     negative rho (up, down):  6.302E-01 0.000E+00

     total cpu time spent up to now is     3131.8 secs

     total energy              =  -14924.32508869 Ry
     Harris-Foulkes estimate   =  -14924.32586313 Ry
     estimated scf accuracy    <       0.00870339 Ry

     iteration # 25     ecut=    60.00 Ry     beta= 0.50
     Davidson diagonalization with overlap
     ethr =  4.76E-07,  avg # of iterations =  9.0

     negative rho (up, down):  6.399E-01 0.000E+00

     total cpu time spent up to now is     3262.4 secs

     total energy              =  -14924.32557157 Ry
     Harris-Foulkes estimate   =  -14924.32540800 Ry
     estimated scf accuracy    <       0.00705351 Ry

     iteration # 26     ecut=    60.00 Ry     beta= 0.50
     Davidson diagonalization with overlap
     c_bands:  1 eigenvalues not converged
     ethr =  3.85E-07,  avg # of iterations =  9.5

     negative rho (up, down):  6.464E-01 0.000E+00

     total cpu time spent up to now is     3396.3 secs

     total energy              =  -14924.32572511 Ry
     Harris-Foulkes estimate   =  -14924.32564509 Ry
     estimated scf accuracy    <       0.00356116 Ry

     iteration # 27     ecut=    60.00 Ry     beta= 0.50
     Davidson diagonalization with overlap
     ethr =  1.95E-07,  avg # of iterations =  6.5

     negative rho (up, down):  6.469E-01 0.000E+00

     total cpu time spent up to now is     3514.7 secs

     total energy              =  -14924.32575811 Ry
     Harris-Foulkes estimate   =  -14924.32576458 Ry
     estimated scf accuracy    <       0.00238874 Ry

     iteration # 28     ecut=    60.00 Ry     beta= 0.50
     Davidson diagonalization with overlap
     ethr =  1.31E-07,  avg # of iterations =  3.0

     negative rho (up, down):  6.406E-01 0.000E+00

     total cpu time spent up to now is     3620.7 secs

     total energy              =  -14924.32568132 Ry
     Harris-Foulkes estimate   =  -14924.32577251 Ry
     estimated scf accuracy    <       0.00152138 Ry

     iteration # 29     ecut=    60.00 Ry     beta= 0.50
     Davidson diagonalization with overlap
     ethr =  8.31E-08,  avg # of iterations =  6.8

     negative rho (up, down):  6.387E-01 0.000E+00

     total cpu time spent up to now is     3739.8 secs

     total energy              =  -14924.32563261 Ry
     Harris-Foulkes estimate   =  -14924.32570300 Ry
     estimated scf accuracy    <       0.00089896 Ry

     iteration # 30     ecut=    60.00 Ry     beta= 0.50
     Davidson diagonalization with overlap
     ethr =  4.91E-08,  avg # of iterations =  1.5

     negative rho (up, down):  6.357E-01 0.000E+00

     total cpu time spent up to now is     3839.8 secs

     total energy              =  -14924.32562820 Ry
     Harris-Foulkes estimate   =  -14924.32565254 Ry
     estimated scf accuracy    <       0.00026926 Ry

     iteration # 31     ecut=    60.00 Ry     beta= 0.50
     Davidson diagonalization with overlap
     ethr =  1.47E-08,  avg # of iterations =  1.5

     negative rho (up, down):  6.359E-01 0.000E+00

     total cpu time spent up to now is     3937.5 secs

     total energy              =  -14924.32562729 Ry
     Harris-Foulkes estimate   =  -14924.32563838 Ry
     estimated scf accuracy    <       0.00010588 Ry

     iteration # 32     ecut=    60.00 Ry     beta= 0.50
     Davidson diagonalization with overlap
     ethr =  5.79E-09,  avg # of iterations =  1.0

     negative rho (up, down):  6.362E-01 0.000E+00

     total cpu time spent up to now is     4031.9 secs

     total energy              =  -14924.32562587 Ry
     Harris-Foulkes estimate   =  -14924.32563168 Ry
     estimated scf accuracy    <       0.00007405 Ry

     iteration # 33     ecut=    60.00 Ry     beta= 0.50
     Davidson diagonalization with overlap
     ethr =  4.05E-09,  avg # of iterations =  1.0

     negative rho (up, down):  6.360E-01 0.000E+00

     total cpu time spent up to now is     4128.7 secs

     total energy              =  -14924.32562753 Ry
     Harris-Foulkes estimate   =  -14924.32562793 Ry
     estimated scf accuracy    <       0.00003339 Ry

     iteration # 34     ecut=    60.00 Ry     beta= 0.50
     Davidson diagonalization with overlap
     ethr =  1.82E-09,  avg # of iterations =  1.0

     negative rho (up, down):  6.361E-01 0.000E+00

     total cpu time spent up to now is     4224.2 secs

     total energy              =  -14924.32562715 Ry
     Harris-Foulkes estimate   =  -14924.32562797 Ry
     estimated scf accuracy    <       0.00001124 Ry

     iteration # 35     ecut=    60.00 Ry     beta= 0.50
     Davidson diagonalization with overlap
     ethr =  6.14E-10,  avg # of iterations =  1.0

     negative rho (up, down):  6.354E-01 0.000E+00

     total cpu time spent up to now is     4320.4 secs

     total energy              =  -14924.32562730 Ry
     Harris-Foulkes estimate   =  -14924.32562747 Ry
     estimated scf accuracy    <       0.00001090 Ry

     iteration # 36     ecut=    60.00 Ry     beta= 0.50
     Davidson diagonalization with overlap
     ethr =  5.95E-10,  avg # of iterations =  1.2

     negative rho (up, down):  6.355E-01 0.000E+00

     total cpu time spent up to now is     4419.9 secs

     total energy              =  -14924.32562742 Ry
     Harris-Foulkes estimate   =  -14924.32562776 Ry
     estimated scf accuracy    <       0.00000247 Ry

     iteration # 37     ecut=    60.00 Ry     beta= 0.50
     Davidson diagonalization with overlap
     ethr =  1.35E-10,  avg # of iterations =  2.0

     negative rho (up, down):  6.351E-01 0.000E+00

     total cpu time spent up to now is     4519.4 secs

     total energy              =  -14924.32562795 Ry
     Harris-Foulkes estimate   =  -14924.32562759 Ry
     estimated scf accuracy    <       0.00000166 Ry

     iteration # 38     ecut=    60.00 Ry     beta= 0.50
     Davidson diagonalization with overlap
     ethr =  9.09E-11,  avg # of iterations =  2.0

     negative rho (up, down):  6.351E-01 0.000E+00

     total cpu time spent up to now is     4619.4 secs

     total energy              =  -14924.32562809 Ry
     Harris-Foulkes estimate   =  -14924.32562800 Ry
     estimated scf accuracy    <       0.00000026 Ry

     iteration # 39     ecut=    60.00 Ry     beta= 0.50
     Davidson diagonalization with overlap
     ethr =  1.44E-11,  avg # of iterations =  3.0

     negative rho (up, down):  6.351E-01 0.000E+00

     total cpu time spent up to now is     4727.9 secs

     total energy              =  -14924.32562810 Ry
     Harris-Foulkes estimate   =  -14924.32562811 Ry
     estimated scf accuracy    <       0.00000018 Ry

     iteration # 40     ecut=    60.00 Ry     beta= 0.50
     Davidson diagonalization with overlap
     ethr =  9.97E-12,  avg # of iterations =  1.0

     negative rho (up, down):  6.351E-01 0.000E+00

     total cpu time spent up to now is     4824.2 secs

     total energy              =  -14924.32562809 Ry
     Harris-Foulkes estimate   =  -14924.32562811 Ry
     estimated scf accuracy    <       0.00000017 Ry

     iteration # 41     ecut=    60.00 Ry     beta= 0.50
     Davidson diagonalization with overlap
     ethr =  9.56E-12,  avg # of iterations =  1.0

     negative rho (up, down):  6.351E-01 0.000E+00

     total cpu time spent up to now is     4921.9 secs

     total energy              =  -14924.32562804 Ry
     Harris-Foulkes estimate   =  -14924.32562809 Ry
     estimated scf accuracy    <       0.00000010 Ry

     iteration # 42     ecut=    60.00 Ry     beta= 0.50
     Davidson diagonalization with overlap
     ethr =  5.57E-12,  avg # of iterations =  1.0

     negative rho (up, down):  6.351E-01 0.000E+00

     total cpu time spent up to now is     5017.7 secs

     total energy              =  -14924.32562804 Ry
     Harris-Foulkes estimate   =  -14924.32562804 Ry
     estimated scf accuracy    <       0.00000008 Ry

     iteration # 43     ecut=    60.00 Ry     beta= 0.50
     Davidson diagonalization with overlap
     ethr =  4.55E-12,  avg # of iterations =  1.0

     negative rho (up, down):  6.352E-01 0.000E+00

     total cpu time spent up to now is     5112.4 secs

     total energy              =  -14924.32562797 Ry
     Harris-Foulkes estimate   =  -14924.32562805 Ry
     estimated scf accuracy    <       0.00000005 Ry

     iteration # 44     ecut=    60.00 Ry     beta= 0.50
     Davidson diagonalization with overlap
     ethr =  2.60E-12,  avg # of iterations =  1.0

     negative rho (up, down):  6.352E-01 0.000E+00

     total cpu time spent up to now is     5208.1 secs

     total energy              =  -14924.32562792 Ry
     Harris-Foulkes estimate   =  -14924.32562797 Ry
     estimated scf accuracy    <       0.00000003 Ry

     iteration # 45     ecut=    60.00 Ry     beta= 0.50
     Davidson diagonalization with overlap
     ethr =  1.54E-12,  avg # of iterations =  1.0

     negative rho (up, down):  6.352E-01 0.000E+00

     total cpu time spent up to now is     5304.4 secs

     total energy              =  -14924.32562789 Ry
     Harris-Foulkes estimate   =  -14924.32562792 Ry
     estimated scf accuracy    <       0.00000001 Ry

     iteration # 46     ecut=    60.00 Ry     beta= 0.50
     Davidson diagonalization with overlap
     ethr =  7.24E-13,  avg # of iterations =  1.5

     negative rho (up, down):  6.352E-01 0.000E+00

     total cpu time spent up to now is     5399.6 secs

     End of self-consistent calculation

          k = 0.0000 0.0000 0.0000 (289747 PWs)   bands (ev):

   -38.2133 -38.1872 -38.1843 -38.1798 -38.1790 -38.1667 -38.1615 -37.9149
   -37.8637 -37.8596 -37.8540 -37.8524 -37.8458 -37.8394 -35.7531 -35.3519
   -24.3917 -24.0394 -24.0220 -23.9297 -23.9100 -23.8626 -23.8214 -23.5600
   -22.8562 -22.8304 -22.7667 -22.7455 -22.7307 -22.7265 -22.7194 -22.7111
   -22.7100 -22.7037 -22.7013 -22.6930 -22.6852 -22.6845 -22.6840 -22.6672
   -22.6623 -22.6569 -22.6213 -22.6071 -22.5811 -22.4940 -22.4788 -22.3857
   -18.7967 -18.7586 -18.7127 -18.7103 -18.6797 -18.5265 -18.5138 -18.5123
   -18.5055 -18.4995 -18.4969 -18.4952 -18.4890 -18.4865 -18.4856 -18.4767
   -18.4681 -18.4621 -18.4149 -18.3920 -18.3643 -18.3121 -18.3082 -18.2877
   -18.2202 -18.2061 -18.2021 -18.1962 -18.1897 -18.1814 -18.1810 -18.1716
   -18.1637 -18.1393 -18.1376 -18.1312 -18.1119 -18.0173 -18.0039 -17.9299
   -17.8836 -17.8694 -17.0123 -16.9835 -16.9753 -16.6016 -16.6013 -16.5788
   -15.5429 -15.2889 -15.0935 -14.9693 -14.9187 -14.9005 -14.8981 -14.8663
   -14.8559 -14.8475 -14.8413 -14.7815 -14.7782 -14.7716 -14.7570 -14.7425
   -14.7350 -14.7299 -14.7297 -14.7235 -14.7158 -14.7085 -14.6849 -14.6534
   -14.6504 -14.6481 -14.6108 -14.6082 -14.5906 -14.5770 -14.5756 -14.5652
   -14.5522 -14.4922 -14.4665 -14.4656 -14.4595 -14.4564 -14.4518 -14.4501
   -14.4465 -14.4068 -14.4066 -14.4005 -14.3985 -14.3939 -14.3932 -14.3890
   -14.3847 -14.3623 -14.3617 -14.3505 -14.3489 -14.3466 -14.3402 -14.3143
   -14.3047 -14.2930 -14.2354 -14.2346 -14.2292 -14.2048 -14.2040 -14.1964
   -14.1924 -14.1781 -14.1735 -14.1722 -14.1565 -14.1321 -14.1272 -14.1115
   -14.1010 -14.0942 -14.0857 -14.0812 -14.0798 -14.0456 -14.0451 -14.0359
   -14.0324 -14.0117 -14.0090 -13.9854 -13.9826 -13.9369 -13.8851 -13.8770
   -13.8760 -13.8659 -13.8576 -13.8486 -13.8437 -13.8429 -13.8411 -13.8409
   -13.8404 -13.8399 -13.8373 -13.8367 -13.8234 -13.8101 -13.8037 -13.8026
   -13.7843 -13.7753 -13.7736 -13.7727 -13.7714 -13.7606 -13.7590 -13.7290
   -13.6982 -13.6874 -13.6480 -13.6456 -13.6220 -13.6029 -13.4966 -13.4725
    -9.8992  -9.7823  -9.6324  -9.4060  -9.4017  -9.3842  -9.3479  -9.3283
    -9.3048  -9.2895  -9.2449  -9.1875  -9.1451  -9.0049  -8.9800  -8.8915
    -8.8786  -8.8150  -8.7929  -8.7895  -8.7599  -8.7264  -8.7002  -8.6587
    -8.6386  -8.5616  -8.5279  -8.5039  -8.4387  -8.3432  -8.3051  -8.3013
    -8.2891  -8.2801  -8.2776  -8.2762  -8.2645  -8.2529  -8.1432  -8.1366
    -8.1273  -8.1206  -8.0993  -8.0910  -8.0833  -8.0673  -8.0666  -8.0580
    -8.0486  -8.0404  -8.0400  -8.0293  -8.0275  -8.0231  -8.0213  -8.0210
    -8.0193  -8.0097  -7.9985  -7.9951  -7.9913  -7.9584  -7.9308  -7.9303
    -7.9056  -7.8618  -7.8575  -7.8542  -7.8299  -7.8244  -7.8134  -7.7883
    -7.7565  -7.7032  -7.6999  -7.6995  -7.6783  -7.6750  -7.6745  -7.6726
    -7.6640  -7.6536  -7.6482  -7.6481  -7.6404  -7.6115  -7.5643  -7.5584
    -7.5453  -7.5387  -7.5386  -7.5207  -7.4989  -7.4840  -7.4041  -7.3490
    -4.2897  -4.1266  -3.7443  -3.4145  -3.3622  -3.2741  -3.2712  -3.2292
    -3.1538  -3.1459  -3.1456  -3.0805  -3.0606  -3.0257  -3.0198  -3.0125
    -3.0074  -3.0015  -2.9604  -2.9530  -2.9518  -2.8858  -2.8768  -2.8766
    -2.7843  -2.7724  -2.7668  -2.7638  -2.7246  -2.6029  -2.5271  -2.5171
    -2.5013  -2.4997  -2.4934  -2.4919  -2.4858  -2.4132  -2.3937  -2.3847
    -2.3694  -2.3653  -2.3365  -2.2980  -2.2796  -2.2715  -2.2656  -2.2628
    -2.2425  -2.2331  -2.2244  -2.1815  -2.1783  -2.1780  -2.1673  -2.1338
    -2.1174  -2.1073  -2.1007  -2.0931  -2.0928  -2.0877  -2.0847  -2.0807
    -2.0785  -2.0761  -2.0754  -2.0742  -2.0720  -2.0673  -2.0094  -1.9986
    -1.9963  -1.9811  -1.9806  -1.9751  -1.9727  -1.9715  -1.9687  -1.9684
    -1.9637  -1.9545  -1.9375  -1.9271  -1.9118  -1.9114  -1.9056  -1.8893
    -1.8888  -1.8888  -1.8880  -1.8852  -1.8837  -1.8836  -1.8819  -1.8805
    -1.8778  -1.8748  -1.8739  -1.8432  -1.8115  -1.7978  -1.7788  -1.7443
    -1.7442  -1.7396  -1.6462  -1.6125  -1.6076  -1.6053  -1.5938  -1.5832
    -1.5796  -1.5736  -1.5442  -1.5442  -1.5302  -1.5120  -1.5060  -1.5025
    -1.5019  -1.4824  -1.4787  -1.4742  -1.4567  -1.4516  -1.4483  -1.4475
    -1.4405  -1.4343  -1.4278  -1.4164  -1.4089  -1.4012  -1.3765  -1.3678
    -1.3464  -1.3461  -1.3041  -1.3016  -1.2964  -1.2950  -1.2816  -1.2815
    -1.2808  -1.2229  -1.1830  -1.1745  -1.1276  -1.1223  -1.1211  -1.1132
    -1.1124  -1.1021  -1.0516  -1.0249  -1.0237  -1.0211  -1.0193  -1.0148
    -1.0063  -0.9986  -0.9908  -0.9810  -0.9748  -0.9727  -0.9695  -0.9664
    -0.9640  -0.9584  -0.9431  -0.8992  -0.8859  -0.8746  -0.8721  -0.8700
    -0.8628  -0.8572  -0.8496  -0.8452  -0.8432  -0.8225  -0.8198  -0.8194
    -0.8124  -0.8079  -0.7973  -0.7873  -0.7850  -0.7765  -0.7634  -0.7498
    -0.7490  -0.7434  -0.7387  -0.7325  -0.7257  -0.7247  -0.7229  -0.7057
    -0.6871  -0.6859  -0.6843  -0.6771  -0.6737  -0.6538  -0.6531  -0.6507
    -0.6416  -0.6312  -0.6218  -0.6208  -0.6191  -0.5884  -0.5825  -0.5822
    -0.5783  -0.5650  -0.5229  -0.5226  -0.5042  -0.4869  -0.4842  -0.4819
    -0.4695  -0.4688  -0.4665  -0.4640  -0.4469  -0.4376  -0.4304  -0.4246
    -0.4104  -0.3982  -0.3676  -0.3613  -0.3537  -0.3513  -0.3487  -0.3415
    -0.3143  -0.3041  -0.3032  -0.3016  -0.2875  -0.2804  -0.2795  -0.2752
    -0.2750  -0.2336  -0.2297  -0.2232  -0.2213  -0.2208  -0.2204  -0.2075
    -0.1997  -0.1833  -0.1819  -0.1818  -0.1687  -0.1604  -0.1573  -0.1487
    -0.1478  -0.1439  -0.1304  -0.0988  -0.0725  -0.0702  -0.0639  -0.0635
    -0.0630  -0.0539  -0.0532  -0.0497  -0.0437  -0.0405  -0.0335  -0.0059
    -0.0032  -0.0024   0.0001   0.0013   0.0389   0.0522   0.0633   0.0776
     0.0928   0.1078   0.1308   0.1436   0.1556   0.1676   0.1760   0.1797
     0.1807   0.2027   0.2044   0.2208   0.2264   0.2468   0.2522   0.2535
     0.2563   0.2685   0.2844   0.2858   0.2864   0.2900   0.2968   0.3239
     0.3290   0.3329   0.3517   0.3528   0.3622   0.3637   0.3787   0.4011
     0.4048   0.4054   0.4088   0.4105   0.4135   0.4253   0.4299   0.4310
     0.4345   0.4474   0.4534   0.4572   0.4579   0.4627   0.4892   0.5132
     0.5144   0.5195   0.5211   0.5213   0.5378   0.5550   0.5582   0.5624
     0.5755   0.5757   0.5818   0.5852   0.5855   0.5941   0.5946   0.6141
     0.6145   0.6252   0.6327   0.6340   0.6505   0.6656   0.6740   0.6743
     0.6751   0.6760   0.6835   0.6961   0.6962   0.6965   0.6990   0.7160
     0.7181   0.7208   0.7517   0.7575   0.7643   0.7648   0.7832   0.7937
     0.8243   0.8281   0.8745   0.8923   0.9296   0.9506   0.9579   0.9833
     0.9973   0.9976   1.0045   1.0218   1.0229   1.0449   1.0572   1.0602
     1.0710   1.0849   1.0863   1.1035   1.1035   1.1038   1.1091   1.1100
     1.1152   1.1182   1.1227   1.1298   1.1383   1.1480   1.1544   1.1552
     1.1560   1.1762   1.1782   1.1826   1.1864   1.2036   1.2080   1.2107
     1.2249   1.2259   1.2294   1.2353   1.2398   1.2429   1.2450   1.2465
     1.2481   1.2500   1.2521   1.2558   1.2574   1.2593   1.2638   1.2660
     1.2703   1.2712   1.2737   1.2740   1.2865   1.2900   1.2931   1.3041
     1.3077   1.3163   1.3347   1.3496   1.3564   1.3599   1.3667   1.3682
     1.3754   1.3766   1.3820   1.3905   1.3918   1.3933   1.4009   1.4014
     1.4021   1.4044   1.4063   1.4098   1.4114   1.4135   1.4175   1.4192
     1.4217   1.4259   1.4272   1.4301   1.4363   1.4465   1.4538   1.4541
     1.4545   1.4574   1.4578   1.4623   1.4623   1.4744   1.4808   1.4844
     1.4853   1.4885   1.5001   1.5039   1.5234   1.5363   1.5488   1.5648
     1.5685   1.5699   1.5723   1.5848   1.5849   1.5929   1.6020   1.6054
     1.6380   1.6529   1.6614   1.6728   1.6735   1.6829   1.6837   1.6869
     1.6936   1.6951   1.6971   1.7201   1.7415   1.7479   1.7495   1.7539
     1.7552   1.7587   1.7597   1.7880   1.7948   1.7948   1.7987   1.8120
     1.8133   1.8184   1.8220   1.8282   1.8361   1.8586   1.8598   1.8628
     1.8710   1.8821   1.8833   1.8844   1.8876   1.8880   1.9005   1.9050
     1.9131   1.9190   1.9240   1.9331   1.9363   1.9410   1.9423   1.9441
     1.9521   1.9575   1.9581   1.9832   1.9971   1.9978   2.0078   2.0102
     2.0218   2.0289   2.0391   2.0404   2.0409   2.0434   2.0470   2.0491
     2.0498   2.0562   2.0609   2.0682   2.0758   2.0923   2.0940   2.0986
     2.1330   2.1431   2.1509   2.1729   2.1759   2.1784   2.1988   2.2321
     2.2331   2.2369   2.2411   2.2706   2.2879   2.2920   2.3309   2.3543
     2.3728   2.4054   2.4064   2.4239   2.4244   2.4282   2.4299   2.4851
     2.5474   2.5483   2.5494   2.5502   2.5570   2.5727   2.7189   2.7192
     2.8383   2.8467   2.8738   2.8769   2.9892   2.9991   3.1279   3.1359
     3.1373   3.1408   3.1434   3.1438   3.1477   3.1503   3.2433   3.2748
     3.2858   3.2924   3.2934   3.3320   3.3395   3.3491   3.3792   3.4346
     3.4702   3.4803   3.4810   3.4987   3.6222   3.6279   3.6371   3.6576
     3.6657   3.6737   4.1044   4.2071   4.4706   4.6927   4.7422   4.7672
     4.8621   4.9439   5.1717   5.1979   5.3277   5.4708   5.5837   5.6577
     5.6804   5.7416   5.7514   5.7548   5.9429   6.0424   6.1249   6.1662
     6.1960   6.2198   6.2652   6.2937   6.3259   6.4030   6.5281   6.5782
     6.5949   6.5950   6.5973   6.5995   6.6012   6.6039   6.6095   6.6099
     6.6114   6.6410   6.8450   6.9421   6.9760   6.9940   7.0154   7.0285
     7.0350   7.0704   7.0720   7.0987   7.1163   7.1414   7.2478   7.2644
     7.2656   7.2687   7.3250   7.3273   7.3429   7.3676   7.4945   7.5023
     7.5302   7.5308   7.5508   7.6337   7.6443   7.6482   7.6798   7.7000
     7.7468   7.7576   7.7876   7.8250   7.8410   7.8422   7.8546   7.8717
     7.9350   7.9752   8.0235   8.0245   8.0317   8.0579   8.0791   8.0856
     8.0923   8.2281   8.2369   8.2438   8.2500   8.2502   8.2579   8.2633
     8.2654   8.2691   8.2791   8.2854   8.2856   8.3046   8.3340   8.3510
     8.3708   8.3858   8.3958   8.4327   8.4382   8.5375   8.5384   8.5722
     8.5745   8.5892   8.5920   8.6079   8.6619   8.6904   8.6917   8.7119
     8.7119   8.7258   8.7556   8.7757   8.7809   8.7857   8.7871   8.7895
     8.8062   8.8092   8.8445   8.8515   8.8643   8.8800   8.9000   8.9097
     8.9124   8.9186   8.9189   8.9373   8.9544   8.9569   8.9677   8.9744
     8.9790   9.0221   9.0425   9.0443   9.0662   9.0779   9.0864   9.0877
     9.0965   9.1043

          k = 0.2326 0.2390 0.0000 (289781 PWs)   bands (ev):

   -38.2132 -38.1866 -38.1850 -38.1799 -38.1792 -38.1652 -38.1626 -37.9149
   -37.8628 -37.8607 -37.8539 -37.8533 -37.8436 -37.8406 -35.7531 -35.3519
   -24.3915 -24.0366 -24.0248 -23.9277 -23.9192 -23.8485 -23.8288 -23.5601
   -22.8380 -22.8121 -22.7898 -22.7639 -22.7546 -22.7350 -22.7311 -22.7104
   -22.7085 -22.7060 -22.7054 -22.6973 -22.6803 -22.6715 -22.6617 -22.6604
   -22.6432 -22.6358 -22.6248 -22.6214 -22.5954 -22.4945 -22.4744 -22.3876
   -18.7620 -18.7270 -18.7102 -18.6861 -18.6782 -18.6587 -18.6261 -18.5950
   -18.5146 -18.5066 -18.4897 -18.4881 -18.4743 -18.4549 -18.4313 -18.4122
   -18.3971 -18.3890 -18.3629 -18.3511 -18.3456 -18.3407 -18.3264 -18.3115
   -18.3072 -18.2992 -18.2436 -18.2354 -18.2288 -18.2036 -18.1834 -18.1613
   -18.1296 -18.1178 -18.0552 -18.0407 -18.0382 -18.0114 -17.9959 -17.9544
   -17.9295 -17.9177 -17.0125 -16.9853 -16.9768 -16.6040 -16.6024 -16.5790
   -15.4424 -15.1964 -15.1734 -15.0484 -14.9583 -14.9430 -14.9244 -14.8699
   -14.8647 -14.8549 -14.8536 -14.8431 -14.8075 -14.7812 -14.7724 -14.7572
   -14.7495 -14.7282 -14.7137 -14.6909 -14.6725 -14.6509 -14.6405 -14.6285
   -14.6129 -14.6076 -14.6010 -14.5953 -14.5670 -14.5572 -14.5472 -14.5460
   -14.5405 -14.5101 -14.4940 -14.4890 -14.4825 -14.4721 -14.4714 -14.4699
   -14.4605 -14.4444 -14.4329 -14.4238 -14.4144 -14.4051 -14.4040 -14.3840
   -14.3694 -14.3668 -14.3464 -14.3335 -14.3129 -14.3060 -14.3048 -14.2907
   -14.2844 -14.2805 -14.2469 -14.2412 -14.2373 -14.2180 -14.2080 -14.1991
   -14.1917 -14.1806 -14.1715 -14.1714 -14.1560 -14.1551 -14.1448 -14.1373
   -14.1267 -14.1165 -14.0968 -14.0790 -14.0650 -14.0556 -14.0326 -14.0064
   -13.9986 -13.9942 -13.9694 -13.9503 -13.9308 -13.9224 -13.9064 -13.8903
   -13.8827 -13.8823 -13.8765 -13.8673 -13.8645 -13.8626 -13.8504 -13.8493
   -13.8454 -13.8339 -13.8253 -13.8252 -13.8243 -13.8037 -13.8030 -13.7957
   -13.7956 -13.7952 -13.7762 -13.7762 -13.7655 -13.7604 -13.7404 -13.7301
   -13.7017 -13.6837 -13.6643 -13.6636 -13.6458 -13.6124 -13.5133 -13.4772
    -9.8099  -9.7845  -9.5767  -9.5050  -9.4085  -9.3930  -9.3046  -9.2903
    -9.2532  -9.2053  -9.1716  -9.1618  -9.1350  -9.0984  -9.0242  -8.9299
    -8.8818  -8.8182  -8.8100  -8.7544  -8.7217  -8.7078  -8.6860  -8.6824
    -8.5740  -8.5342  -8.5116  -8.4866  -8.4630  -8.4083  -8.3842  -8.3385
    -8.2316  -8.2000  -8.1751  -8.1441  -8.1183  -8.1128  -8.0977  -8.0948
    -8.0864  -8.0780  -8.0697  -8.0685  -8.0660  -8.0479  -8.0447  -8.0446
    -8.0416  -8.0410  -8.0379  -8.0282  -8.0256  -8.0207  -8.0180  -8.0139
    -8.0128  -8.0015  -7.9998  -7.9959  -7.9857  -7.9752  -7.9699  -7.9687
    -7.9561  -7.9418  -7.9000  -7.8938  -7.8931  -7.8787  -7.8690  -7.8530
    -7.8256  -7.7822  -7.7596  -7.7577  -7.7420  -7.7293  -7.7172  -7.6936
    -7.6687  -7.6563  -7.6399  -7.6321  -7.6315  -7.6144  -7.6072  -7.6033
    -7.5926  -7.5898  -7.5786  -7.5510  -7.5192  -7.4683  -7.4437  -7.3898
    -4.1291  -3.9686  -3.6951  -3.5992  -3.5427  -3.3137  -3.2419  -3.2208
    -3.2172  -3.2039  -3.1931  -3.1746  -3.1020  -3.0764  -3.0500  -2.9934
    -2.9874  -2.9841  -2.9563  -2.9022  -2.8674  -2.8537  -2.8412  -2.8407
    -2.8313  -2.7825  -2.7740  -2.7736  -2.6802  -2.5959  -2.5576  -2.5194
    -2.5150  -2.5065  -2.4969  -2.4846  -2.4800  -2.4797  -2.4745  -2.4681
    -2.4316  -2.3986  -2.3887  -2.3685  -2.3411  -2.3012  -2.2581  -2.2444
    -2.1949  -2.1910  -2.1764  -2.1737  -2.1399  -2.1330  -2.1232  -2.1114
    -2.1111  -2.1030  -2.0941  -2.0931  -2.0806  -2.0791  -2.0683  -2.0590
    -2.0559  -2.0486  -2.0318  -2.0139  -2.0139  -2.0070  -2.0024  -1.9978
    -1.9923  -1.9845  -1.9799  -1.9792  -1.9763  -1.9756  -1.9750  -1.9725
    -1.9690  -1.9683  -1.9606  -1.9593  -1.9572  -1.9427  -1.9323  -1.9288
    -1.9183  -1.9125  -1.8962  -1.8953  -1.8910  -1.8834  -1.8736  -1.8672
    -1.8122  -1.7977  -1.7910  -1.7847  -1.7531  -1.7422  -1.7321  -1.7251
    -1.7071  -1.6926  -1.6887  -1.6747  -1.6504  -1.6385  -1.6228  -1.6167
    -1.5844  -1.5830  -1.5776  -1.5671  -1.5208  -1.5192  -1.5118  -1.5073
    -1.4994  -1.4886  -1.4705  -1.4624  -1.4585  -1.4525  -1.4443  -1.4368
    -1.4080  -1.4027  -1.3976  -1.3916  -1.3890  -1.3887  -1.3725  -1.3514
    -1.3475  -1.3238  -1.2962  -1.2906  -1.2760  -1.2583  -1.2204  -1.2167
    -1.2022  -1.1874  -1.1795  -1.1687  -1.1326  -1.1325  -1.1137  -1.0839
    -1.0775  -1.0616  -1.0598  -1.0373  -1.0319  -1.0102  -0.9889  -0.9816
    -0.9738  -0.9699  -0.9607  -0.9600  -0.9583  -0.9448  -0.9308  -0.9165
    -0.9116  -0.9087  -0.8949  -0.8925  -0.8846  -0.8814  -0.8803  -0.8738
    -0.8736  -0.8700  -0.8672  -0.8664  -0.8495  -0.8451  -0.8245  -0.8120
    -0.8040  -0.8037  -0.7969  -0.7915  -0.7815  -0.7745  -0.7595  -0.7578
    -0.7387  -0.7326  -0.7294  -0.7234  -0.7203  -0.7114  -0.7083  -0.7064
    -0.7023  -0.6924  -0.6877  -0.6667  -0.6620  -0.6562  -0.6439  -0.6315
    -0.6287  -0.6210  -0.6051  -0.6025  -0.5992  -0.5971  -0.5931  -0.5641
    -0.5632  -0.5416  -0.5256  -0.5138  -0.5094  -0.5029  -0.4968  -0.4912
    -0.4899  -0.4808  -0.4806  -0.4764  -0.4601  -0.4594  -0.4555  -0.4493
    -0.4378  -0.4372  -0.4299  -0.4243  -0.4073  -0.4058  -0.4026  -0.3974
    -0.3683  -0.3669  -0.3656  -0.3525  -0.3483  -0.3432  -0.3097  -0.3040
    -0.2914  -0.2583  -0.2437  -0.2296  -0.2254  -0.2081  -0.2003  -0.1965
    -0.1869  -0.1742  -0.1448  -0.1415  -0.1359  -0.1241  -0.1191  -0.1154
    -0.0846  -0.0796  -0.0750  -0.0690  -0.0550  -0.0534  -0.0472  -0.0415
    -0.0351  -0.0329  -0.0313  -0.0163  -0.0047   0.0063   0.0156   0.0326
     0.0498   0.0516   0.0648   0.0667   0.0902   0.0963   0.1064   0.1352
     0.1462   0.1517   0.1641   0.1657   0.1865   0.1885   0.2026   0.2144
     0.2206   0.2417   0.2473   0.2555   0.2599   0.2607   0.2646   0.2662
     0.2743   0.2869   0.2904   0.3013   0.3195   0.3240   0.3357   0.3446
     0.3471   0.3481   0.3514   0.3528   0.3536   0.3651   0.3711   0.3738
     0.3833   0.3941   0.3947   0.3980   0.4005   0.4160   0.4169   0.4229
     0.4379   0.4412   0.4430   0.4567   0.4579   0.4635   0.4769   0.4846
     0.5017   0.5067   0.5152   0.5201   0.5223   0.5290   0.5295   0.5341
     0.5374   0.5414   0.5432   0.5539   0.5654   0.5772   0.5783   0.5806
     0.5808   0.5864   0.6075   0.6198   0.6248   0.6377   0.6466   0.6582
     0.6684   0.6752   0.6841   0.6896   0.7115   0.7169   0.7214   0.7270
     0.7368   0.7403   0.7637   0.8088   0.8183   0.8516   0.8565   0.8588
     0.8683   0.8751   0.8880   0.8923   0.8974   0.9026   0.9073   0.9103
     0.9130   0.9447   0.9516   0.9677   0.9732   0.9869   1.0018   1.0052
     1.0129   1.0201   1.0350   1.0414   1.0430   1.0604   1.0681   1.0801
     1.0854   1.0878   1.0970   1.1103   1.1115   1.1145   1.1176   1.1215
     1.1249   1.1264   1.1302   1.1334   1.1366   1.1432   1.1559   1.1579
     1.1805   1.1868   1.1940   1.1973   1.2046   1.2142   1.2214   1.2234
     1.2263   1.2317   1.2421   1.2445   1.2456   1.2560   1.2678   1.2705
     1.2752   1.2806   1.2828   1.2897   1.2936   1.2961   1.3050   1.3162
     1.3226   1.3254   1.3273   1.3296   1.3356   1.3395   1.3413   1.3468
     1.3498   1.3516   1.3617   1.3701   1.3745   1.3768   1.3858   1.3860
     1.3903   1.3914   1.4056   1.4114   1.4168   1.4207   1.4248   1.4276
     1.4336   1.4402   1.4420   1.4431   1.4495   1.4523   1.4610   1.4671
     1.4769   1.4838   1.4946   1.4990   1.5056   1.5147   1.5164   1.5226
     1.5265   1.5323   1.5374   1.5432   1.5485   1.5498   1.5561   1.5626
     1.5652   1.5686   1.5780   1.5869   1.5924   1.6055   1.6109   1.6229
     1.6275   1.6396   1.6447   1.6622   1.6690   1.6697   1.6751   1.6813
     1.6858   1.7000   1.7004   1.7143   1.7229   1.7241   1.7269   1.7479
     1.7486   1.7607   1.7646   1.7689   1.7723   1.7746   1.7770   1.7885
     1.7939   1.7955   1.8003   1.8013   1.8073   1.8113   1.8118   1.8196
     1.8240   1.8330   1.8345   1.8436   1.8499   1.8560   1.8586   1.8713
     1.8806   1.8873   1.8987   1.9046   1.9114   1.9171   1.9270   1.9291
     1.9508   1.9636   1.9692   1.9732   1.9744   1.9906   1.9939   1.9986
     2.0141   2.0230   2.0240   2.0522   2.0581   2.0662   2.0702   2.0764
     2.0814   2.1067   2.1249   2.1436   2.1486   2.1574   2.1590   2.1716
     2.1971   2.2067   2.2313   2.2317   2.2397   2.2444   2.2724   2.2760
     2.2771   2.2810   2.3186   2.3233   2.3388   2.3538   2.3881   2.3896
     2.3905   2.4674   2.4690   2.4888   2.5254   2.5302   2.5853   2.6198
     2.6329   2.6337   2.6377   2.6632   2.6714   2.7343   2.7351   2.7457
     2.7461   2.8111   2.8471   2.9163   2.9584   2.9751   2.9812   2.9820
     2.9842   2.9965   2.9985   3.0045   3.0228   3.0696   3.0735   3.0763
     3.0853   3.0911   3.0989   3.1108   3.1143   3.1234   3.1420   3.1543
     3.2568   3.3080   3.3779   3.4669   3.8384   3.8936   3.9397   3.9883
     4.0611   4.0718   4.1408   4.2462   4.4767   4.5242   4.5582   4.6353
     4.7414   5.0128   5.0915   5.4255   5.4417   5.4765   5.5599   5.6546
     5.7134   5.9327   5.9662   5.9730   5.9759   5.9883   6.0278   6.0317
     6.0722   6.1078   6.2492   6.2597   6.3068   6.4190   6.4540   6.4789
     6.4951   6.5079   6.5110   6.5202   6.5361   6.5596   6.6120   6.7204
     6.7727   6.7812   6.8422   6.8486   6.8679   6.8760   6.8840   6.9433
     6.9639   6.9780   6.9854   7.0066   7.0526   7.1425   7.1660   7.1901
     7.2794   7.3041   7.4051   7.4181   7.4576   7.4891   7.5140   7.5340
     7.5424   7.5635   7.5878   7.6120   7.6288   7.6694   7.6919   7.7062
     7.7513   7.7657   7.7970   7.8092   7.8270   7.8323   7.8548   7.8572
     7.8649   7.8751   7.9102   7.9457   7.9499   7.9655   7.9952   8.0191
     8.0289   8.0689   8.1081   8.1532   8.1574   8.1662   8.1765   8.2038
     8.2332   8.2815   8.3119   8.3365   8.3609   8.3868   8.4095   8.4289
     8.4404   8.4608   8.4713   8.4782   8.4934   8.5530   8.5818   8.5886
     8.6018   8.6213   8.6216   8.6361   8.6489   8.6550   8.6659   8.6816
     8.7134   8.7234   8.7338   8.7419   8.7671   8.7725   8.7971   8.8150
     8.8213   8.8311   8.8323   8.8638   8.8868   8.9002   8.9158   8.9305
     8.9513   8.9545   8.9737   8.9837   8.9943   9.0074   9.0321   9.0843
     9.0845   9.0980   9.1063   9.1139   9.1293   9.1346   9.1389   9.1508
     9.1648   9.1732

          k = 0.0000 0.4779 0.0000 (289679 PWs)   bands (ev):

   -38.2132 -38.1868 -38.1849 -38.1809 -38.1783 -38.1642 -38.1635 -37.9149
   -37.8626 -37.8608 -37.8552 -37.8521 -37.8428 -37.8414 -35.7531 -35.3519
   -24.3914 -24.0392 -24.0198 -23.9417 -23.9077 -23.8474 -23.8298 -23.5600
   -22.8187 -22.7928 -22.7889 -22.7784 -22.7630 -22.7523 -22.7450 -22.7421
   -22.7162 -22.7155 -22.6924 -22.6744 -22.6665 -22.6649 -22.6585 -22.6426
   -22.6391 -22.6364 -22.6325 -22.6175 -22.6104 -22.4917 -22.4750 -22.3882
   -18.7575 -18.7525 -18.7162 -18.6854 -18.6602 -18.6575 -18.6066 -18.5695
   -18.5129 -18.5065 -18.4973 -18.4909 -18.4720 -18.4553 -18.4488 -18.4204
   -18.4194 -18.3985 -18.3758 -18.3578 -18.3491 -18.3341 -18.3159 -18.3114
   -18.2995 -18.2538 -18.2304 -18.2248 -18.2096 -18.1931 -18.1920 -18.1902
   -18.1704 -18.1319 -18.0692 -18.0459 -18.0213 -18.0139 -17.9955 -17.9770
   -17.9186 -17.8840 -17.0125 -16.9855 -16.9757 -16.6036 -16.6018 -16.5789
   -15.3641 -15.1529 -15.1283 -15.0975 -14.9971 -14.9830 -14.9631 -14.9423
   -14.9125 -14.9092 -14.8747 -14.8161 -14.8017 -14.7921 -14.7733 -14.7509
   -14.7295 -14.7267 -14.7061 -14.6918 -14.6378 -14.6284 -14.6240 -14.6156
   -14.6152 -14.6061 -14.5764 -14.5639 -14.5586 -14.5489 -14.5415 -14.5413
   -14.5296 -14.5198 -14.5083 -14.5025 -14.4948 -14.4788 -14.4774 -14.4681
   -14.4377 -14.4373 -14.4194 -14.4157 -14.3982 -14.3959 -14.3798 -14.3756
   -14.3662 -14.3550 -14.3399 -14.3353 -14.3262 -14.3218 -14.2908 -14.2900
   -14.2860 -14.2691 -14.2632 -14.2470 -14.2379 -14.2241 -14.2038 -14.1917
   -14.1906 -14.1882 -14.1785 -14.1639 -14.1580 -14.1533 -14.1475 -14.1408
   -14.1277 -14.1125 -14.1111 -14.0989 -14.0940 -14.0736 -14.0313 -14.0165
   -13.9806 -13.9582 -13.9404 -13.9305 -13.9289 -13.9072 -13.9068 -13.8937
   -13.8893 -13.8844 -13.8809 -13.8808 -13.8785 -13.8782 -13.8754 -13.8717
   -13.8426 -13.8378 -13.8364 -13.8358 -13.8282 -13.7936 -13.7933 -13.7884
   -13.7881 -13.7874 -13.7822 -13.7818 -13.7484 -13.7353 -13.7331 -13.7248
   -13.7165 -13.7029 -13.6940 -13.6722 -13.6612 -13.6165 -13.5311 -13.4809
    -9.7892  -9.6900  -9.5182  -9.4658  -9.4042  -9.3895  -9.3613  -9.3020
    -9.2768  -9.1925  -9.1659  -9.1404  -9.1206  -9.0136  -8.9907  -8.9714
    -8.9180  -8.8789  -8.8360  -8.7830  -8.7723  -8.7184  -8.5871  -8.5495
    -8.5240  -8.4875  -8.4077  -8.3978  -8.3870  -8.3828  -8.3726  -8.3245
    -8.3006  -8.2497  -8.2354  -8.1523  -8.1136  -8.1045  -8.0944  -8.0862
    -8.0800  -8.0755  -8.0726  -8.0653  -8.0621  -8.0564  -8.0543  -8.0374
    -8.0346  -8.0184  -8.0121  -8.0090  -8.0078  -8.0039  -7.9980  -7.9853
    -7.9833  -7.9798  -7.9768  -7.9718  -7.9524  -7.9226  -7.9056  -7.8997
    -7.8967  -7.8940  -7.8936  -7.8923  -7.8805  -7.8789  -7.8747  -7.8731
    -7.8702  -7.8670  -7.8480  -7.8446  -7.8227  -7.8103  -7.7818  -7.7706
    -7.7641  -7.7575  -7.7523  -7.7035  -7.6862  -7.6356  -7.6327  -7.6280
    -7.6077  -7.6034  -7.6006  -7.5832  -7.5758  -7.4763  -7.4392  -7.3984
    -3.9627  -3.8033  -3.6792  -3.6217  -3.5455  -3.4945  -3.4517  -3.3031
    -3.2811  -3.2795  -3.1954  -3.1803  -3.1673  -3.0678  -3.0454  -3.0062
    -2.9923  -2.9630  -2.8930  -2.8781  -2.8591  -2.8087  -2.8081  -2.8043
    -2.8017  -2.7868  -2.6542  -2.6399  -2.6226  -2.5846  -2.5727  -2.5375
    -2.5350  -2.5209  -2.5016  -2.4834  -2.4683  -2.4612  -2.4609  -2.4389
    -2.4351  -2.3801  -2.3799  -2.3554  -2.3149  -2.2976  -2.2843  -2.2586
    -2.2512  -2.1925  -2.1919  -2.1597  -2.1531  -2.1472  -2.1021  -2.0984
    -2.0858  -2.0799  -2.0783  -2.0668  -2.0557  -2.0511  -2.0405  -2.0186
    -2.0165  -2.0158  -2.0042  -2.0041  -2.0006  -1.9998  -1.9950  -1.9909
    -1.9905  -1.9892  -1.9888  -1.9870  -1.9805  -1.9792  -1.9764  -1.9752
    -1.9686  -1.9680  -1.9673  -1.9651  -1.9538  -1.9459  -1.9375  -1.9362
    -1.9193  -1.9132  -1.9119  -1.9115  -1.8868  -1.8845  -1.8714  -1.8634
    -1.8544  -1.8458  -1.8434  -1.8335  -1.8312  -1.8295  -1.7924  -1.7777
    -1.7683  -1.7226  -1.7104  -1.6996  -1.6985  -1.6577  -1.6571  -1.6517
    -1.6480  -1.6318  -1.6274  -1.6247  -1.6069  -1.6006  -1.5625  -1.5523
    -1.5516  -1.5471  -1.5361  -1.4901  -1.4883  -1.4693  -1.4676  -1.4540
    -1.4370  -1.4291  -1.4203  -1.4092  -1.4091  -1.3993  -1.3958  -1.3951
    -1.3703  -1.3367  -1.3272  -1.2894  -1.2470  -1.2389  -1.1716  -1.1585
    -1.1387  -1.1160  -1.0794  -1.0757  -1.0606  -1.0499  -1.0487  -1.0285
    -1.0054  -1.0035  -0.9942  -0.9906  -0.9899  -0.9896  -0.9767  -0.9629
    -0.9452  -0.9342  -0.9154  -0.9139  -0.8968  -0.8966  -0.8861  -0.8787
    -0.8733  -0.8722  -0.8707  -0.8565  -0.8559  -0.8425  -0.8393  -0.8380
    -0.8358  -0.8273  -0.8025  -0.7994  -0.7936  -0.7865  -0.7840  -0.7729
    -0.7716  -0.7709  -0.7658  -0.7540  -0.7432  -0.7421  -0.7377  -0.7294
    -0.7196  -0.7144  -0.7103  -0.7030  -0.6997  -0.6896  -0.6792  -0.6774
    -0.6697  -0.6649  -0.6496  -0.6433  -0.6418  -0.6338  -0.6196  -0.6169
    -0.6049  -0.5906  -0.5876  -0.5844  -0.5696  -0.5690  -0.5637  -0.5615
    -0.5537  -0.5382  -0.5348  -0.5298  -0.5228  -0.5218  -0.5095  -0.5004
    -0.4963  -0.4784  -0.4758  -0.4733  -0.4667  -0.4610  -0.4581  -0.4476
    -0.4447  -0.4311  -0.4290  -0.4232  -0.4228  -0.4193  -0.3800  -0.3668
    -0.3662  -0.3649  -0.3582  -0.3559  -0.3514  -0.3414  -0.3189  -0.3188
    -0.3132  -0.3087  -0.2976  -0.2832  -0.2698  -0.2642  -0.2537  -0.2509
    -0.2425  -0.2122  -0.2101  -0.2062  -0.1686  -0.1561  -0.1304  -0.1206
    -0.1162  -0.1142  -0.1048  -0.0923  -0.0770  -0.0748  -0.0723  -0.0321
    -0.0281  -0.0197  -0.0117  -0.0062  -0.0052   0.0300   0.0336   0.0341
     0.0380   0.0454   0.0714   0.0785   0.0965   0.1100   0.1293   0.1426
     0.1439   0.1813   0.1820   0.1940   0.2027   0.2030   0.2165   0.2218
     0.2220   0.2296   0.2297   0.2307   0.2332   0.2405   0.2539   0.2608
     0.2646   0.2809   0.2928   0.3007   0.3081   0.3084   0.3174   0.3196
     0.3332   0.3585   0.3595   0.3660   0.3662   0.3699   0.3771   0.3820
     0.3859   0.3897   0.3932   0.4094   0.4262   0.4361   0.4403   0.4417
     0.4439   0.4473   0.4518   0.4555   0.4610   0.4773   0.5114   0.5169
     0.5173   0.5205   0.5231   0.5283   0.5307   0.5376   0.5390   0.5410
     0.5528   0.5734   0.5743   0.5879   0.5893   0.5956   0.5970   0.5986
     0.6007   0.6010   0.6062   0.6406   0.6531   0.6603   0.6887   0.6949
     0.7095   0.7121   0.7267   0.7412   0.7444   0.7526   0.7634   0.7732
     0.7777   0.7840   0.7957   0.7981   0.8059   0.8135   0.8197   0.8279
     0.8286   0.8328   0.8354   0.8601   0.8652   0.8661   0.8784   0.8797
     0.8930   0.9187   0.9312   0.9415   0.9507   0.9799   0.9807   0.9838
     1.0231   1.0303   1.0350   1.0437   1.0484   1.0484   1.0599   1.0694
     1.0937   1.0955   1.0964   1.1040   1.1076   1.1079   1.1132   1.1143
     1.1185   1.1190   1.1217   1.1333   1.1426   1.1473   1.1505   1.1622
     1.1648   1.1945   1.1964   1.2007   1.2112   1.2123   1.2182   1.2208
     1.2263   1.2351   1.2365   1.2440   1.2465   1.2469   1.2484   1.2642
     1.2691   1.2736   1.2792   1.2807   1.2815   1.2970   1.2987   1.3044
     1.3091   1.3220   1.3315   1.3331   1.3455   1.3526   1.3676   1.3679
     1.3730   1.3749   1.3788   1.3792   1.3860   1.3885   1.3920   1.3932
     1.3987   1.4100   1.4275   1.4351   1.4360   1.4370   1.4421   1.4465
     1.4498   1.4536   1.4599   1.4706   1.4731   1.4824   1.4827   1.4984
     1.5051   1.5072   1.5147   1.5179   1.5227   1.5319   1.5406   1.5415
     1.5429   1.5440   1.5454   1.5488   1.5561   1.5648   1.5725   1.5730
     1.5845   1.5861   1.5871   1.5900   1.5905   1.5925   1.5942   1.6018
     1.6031   1.6078   1.6234   1.6272   1.6320   1.6424   1.6453   1.6470
     1.6552   1.6675   1.6705   1.6718   1.6853   1.6881   1.6902   1.6925
     1.6926   1.7050   1.7125   1.7186   1.7217   1.7312   1.7343   1.7477
     1.7501   1.7740   1.7776   1.7910   1.8044   1.8217   1.8231   1.8311
     1.8351   1.8380   1.8509   1.8527   1.8559   1.8582   1.8636   1.8643
     1.8674   1.8792   1.8798   1.8822   1.8926   1.8995   1.9004   1.9054
     1.9167   1.9185   1.9187   1.9419   1.9557   1.9601   1.9687   1.9767
     1.9831   2.0023   2.0330   2.0428   2.0590   2.0593   2.0597   2.0604
     2.0694   2.0752   2.0912   2.0925   2.1102   2.1206   2.1214   2.1370
     2.1509   2.1571   2.1711   2.1880   2.1996   2.2035   2.2125   2.2304
     2.2394   2.2504   2.2537   2.2680   2.2713   2.2827   2.3950   2.4005
     2.4240   2.4384   2.4398   2.4543   2.4828   2.5040   2.5354   2.5558
     2.5560   2.5570   2.5573   2.6014   2.6252   2.6399   2.6995   2.7220
     2.8049   2.8112   2.8441   2.8598   2.9211   2.9489   2.9800   2.9931
     2.9936   2.9951   2.9991   2.9997   3.0103   3.0114   3.0724   3.1043
     3.1125   3.1210   3.1643   3.1717   3.1822   3.2162   3.3940   3.5221
     3.5890   3.6044   3.6534   3.6711   3.7676   3.7731   3.8670   3.8973
     3.9407   3.9496   4.0800   4.1330   4.2869   4.3291   4.3739   4.5570
     4.7933   5.0858   5.2093   5.2120   5.5829   5.6417   5.7126   5.7877
     5.8207   5.8429   5.9405   5.9442   5.9443   5.9499   5.9524   6.0974
     6.1363   6.1592   6.1728   6.2367   6.3262   6.3470   6.4465   6.4758
     6.5262   6.5432   6.6145   6.6673   6.6960   6.6964   6.7188   6.7477
     6.7508   6.7634   6.7697   6.7932   6.8321   6.9080   6.9128   6.9217
     6.9374   6.9781   6.9902   7.0150   7.0462   7.0555   7.0879   7.1080
     7.1178   7.1198   7.1495   7.1858   7.2447   7.2506   7.2939   7.3066
     7.4198   7.4988   7.5772   7.5911   7.5982   7.6067   7.6282   7.6346
     7.7172   7.7623   7.7887   7.8172   7.8307   7.8598   7.8650   7.8699
     7.9179   7.9379   7.9450   7.9758   7.9973   8.0061   8.0540   8.0867
     8.0904   8.1164   8.1467   8.1690   8.1945   8.2012   8.2118   8.2352
     8.2362   8.2754   8.2995   8.3194   8.3552   8.3563   8.3806   8.4037
     8.4232   8.4480   8.4708   8.5050   8.5149   8.5359   8.5500   8.5684
     8.5726   8.5807   8.6505   8.6671   8.6970   8.7064   8.7196   8.7451
     8.7524   8.7628   8.7823   8.8047   8.8156   8.8318   8.8366   8.8409
     8.8501   8.8698   8.8712   8.8918   8.9171   8.9200   8.9483   8.9735
     8.9821   8.9894   9.0270   9.0525   9.0690   9.0782   9.1005   9.1087
     9.1358   9.1362   9.1516   9.1643   9.1863   9.2040   9.2117   9.2365
     9.2414   9.2686

          k =-0.4652-0.0000 0.0000 (289778 PWs)   bands (ev):

   -38.2132 -38.1874 -38.1839 -38.1810 -38.1785 -38.1648 -38.1630 -37.9149
   -37.8635 -37.8594 -37.8554 -37.8526 -37.8428 -37.8412 -35.7531 -35.3519
   -24.3914 -24.0344 -24.0259 -23.9430 -23.8969 -23.8633 -23.8221 -23.5600
   -22.8248 -22.7989 -22.7790 -22.7674 -22.7594 -22.7530 -22.7446 -22.7412
   -22.7337 -22.7181 -22.6765 -22.6743 -22.6727 -22.6692 -22.6504 -22.6486
   -22.6433 -22.6369 -22.6298 -22.6218 -22.6038 -22.4989 -22.4683 -22.3886
   -18.7932 -18.7203 -18.7144 -18.6882 -18.6654 -18.6269 -18.5896 -18.5779
   -18.5240 -18.5162 -18.4960 -18.4947 -18.4877 -18.4850 -18.4226 -18.4166
   -18.4134 -18.4016 -18.3888 -18.3527 -18.3282 -18.3276 -18.3200 -18.3081
   -18.3030 -18.2397 -18.2349 -18.2347 -18.2111 -18.2019 -18.1928 -18.1816
   -18.1757 -18.1346 -18.0633 -18.0494 -18.0297 -18.0081 -18.0034 -17.9710
   -17.9295 -17.8697 -17.0124 -16.9839 -16.9771 -16.6032 -16.6020 -16.5789
   -15.3575 -15.1698 -15.1184 -15.0993 -15.0301 -14.9727 -14.9580 -14.9462
   -14.9094 -14.8421 -14.8356 -14.8307 -14.8119 -14.8051 -14.7654 -14.7504
   -14.7447 -14.7034 -14.6945 -14.6847 -14.6819 -14.6788 -14.6731 -14.6505
   -14.6438 -14.6153 -14.6127 -14.5955 -14.5703 -14.5435 -14.5386 -14.5176
   -14.4878 -14.4810 -14.4777 -14.4705 -14.4629 -14.4452 -14.4396 -14.4395
   -14.4384 -14.4365 -14.4333 -14.4207 -14.3995 -14.3981 -14.3862 -14.3840
   -14.3713 -14.3558 -14.3307 -14.3249 -14.3223 -14.3161 -14.2986 -14.2850
   -14.2840 -14.2834 -14.2685 -14.2556 -14.2495 -14.2355 -14.2304 -14.2134
   -14.1998 -14.1932 -14.1926 -14.1803 -14.1764 -14.1636 -14.1353 -14.1277
   -14.1050 -14.1050 -14.0832 -14.0826 -14.0730 -14.0549 -14.0245 -14.0109
   -13.9956 -13.9946 -13.9914 -13.9511 -13.9084 -13.9060 -13.8891 -13.8840
   -13.8834 -13.8826 -13.8681 -13.8679 -13.8670 -13.8651 -13.8641 -13.8610
   -13.8439 -13.8394 -13.8261 -13.8214 -13.8172 -13.8144 -13.8141 -13.8122
   -13.7914 -13.7900 -13.7813 -13.7802 -13.7747 -13.7742 -13.7377 -13.7317
   -13.7121 -13.7027 -13.6741 -13.6623 -13.6531 -13.6164 -13.5270 -13.4798
    -9.7884  -9.7142  -9.5061  -9.4088  -9.4039  -9.3900  -9.3363  -9.3197
    -9.2594  -9.2137  -9.1962  -9.1523  -9.1004  -9.0853  -9.0157  -8.9941
    -8.8929  -8.8654  -8.7982  -8.7955  -8.7301  -8.7050  -8.6067  -8.6047
    -8.5793  -8.4951  -8.4378  -8.3247  -8.3190  -8.3153  -8.2993  -8.2939
    -8.2914  -8.2119  -8.1645  -8.1520  -8.1395  -8.1364  -8.1035  -8.0957
    -8.0754  -8.0735  -8.0714  -8.0672  -8.0556  -8.0554  -8.0493  -8.0453
    -8.0383  -8.0289  -8.0271  -8.0240  -8.0230  -8.0137  -8.0106  -8.0033
    -8.0001  -7.9962  -7.9939  -7.9912  -7.9862  -7.9830  -7.9787  -7.9766
    -7.9753  -7.9657  -7.9602  -7.9489  -7.8864  -7.8712  -7.8709  -7.8505
    -7.8306  -7.8166  -7.8062  -7.8048  -7.7942  -7.7700  -7.7647  -7.7542
    -7.7289  -7.7030  -7.7021  -7.6781  -7.6479  -7.6388  -7.6294  -7.6234
    -7.6144  -7.6038  -7.5929  -7.5920  -7.5424  -7.5120  -7.4609  -7.4118
    -4.0084  -3.8574  -3.5904  -3.5393  -3.5135  -3.4665  -3.4396  -3.4112
    -3.3713  -3.3556  -3.2909  -3.1437  -3.1341  -3.1324  -3.1146  -2.9393
    -2.9361  -2.8972  -2.8960  -2.8437  -2.8206  -2.7862  -2.7856  -2.7704
    -2.7635  -2.7115  -2.7085  -2.6982  -2.6907  -2.6325  -2.6165  -2.5131
    -2.4976  -2.4669  -2.4500  -2.4332  -2.4009  -2.3810  -2.3610  -2.3547
    -2.3376  -2.3173  -2.3134  -2.3006  -2.2924  -2.2892  -2.2866  -2.2573
    -2.2179  -2.2071  -2.2009  -2.1972  -2.1486  -2.1447  -2.1334  -2.1320
    -2.1313  -2.1046  -2.0923  -2.0875  -2.0861  -2.0814  -2.0686  -2.0604
    -2.0539  -2.0475  -2.0414  -2.0320  -2.0263  -1.9981  -1.9896  -1.9868
    -1.9844  -1.9784  -1.9744  -1.9734  -1.9657  -1.9640  -1.9598  -1.9561
    -1.9480  -1.9418  -1.9298  -1.9271  -1.9202  -1.9151  -1.9130  -1.8984
    -1.8948  -1.8946  -1.8944  -1.8931  -1.8924  -1.8881  -1.8802  -1.8745
    -1.8724  -1.8706  -1.8595  -1.8460  -1.8426  -1.8372  -1.8298  -1.8265
    -1.8161  -1.8094  -1.7904  -1.7782  -1.7585  -1.7344  -1.7339  -1.7221
    -1.7199  -1.6959  -1.6954  -1.6709  -1.6396  -1.6130  -1.6123  -1.5751
    -1.5694  -1.5423  -1.5268  -1.5233  -1.5105  -1.5010  -1.4868  -1.4695
    -1.4368  -1.4367  -1.4351  -1.4237  -1.4182  -1.4023  -1.4000  -1.3956
[...]
     atom   56 type  4   force =    -0.00008197    0.00000865    0.00033208
     atom   57 type  2   force =     0.00000000    0.00000000   -0.00075135
     atom   58 type  5   force =     0.00042473    0.00000000   -0.00125927
     atom   59 type  5   force =    -0.00042473    0.00000000   -0.00125927
     atom   60 type  5   force =     0.00000000    0.00000000   -0.00063288
     atom   61 type  5   force =     0.00000000    0.00000000   -0.00140593
     atom   62 type  5   force =     0.00000000    0.00000000   -0.00140593
     atom   63 type  5   force =     0.00000000    0.00024400   -0.00151216
     atom   64 type  5   force =     0.00000000   -0.00024400   -0.00151216
     atom   65 type  4   force =    -0.00028769    0.00012270    0.00166705
     atom   66 type  4   force =    -0.00028769   -0.00012270    0.00166705
     atom   67 type  4   force =     0.00028769    0.00012270    0.00166705
     atom   68 type  4   force =     0.00028769   -0.00012270    0.00166705
     atom   69 type  4   force =     0.00000000   -0.00031478    0.00107021
     atom   70 type  4   force =     0.00000000    0.00031478    0.00107021
     atom   71 type  4   force =    -0.00010504    0.00005845    0.00210643
     atom   72 type  4   force =    -0.00010504   -0.00005845    0.00210643
     atom   73 type  4   force =     0.00010504   -0.00005845    0.00210643
     atom   74 type  4   force =     0.00010504    0.00005845    0.00210643
     atom   75 type  4   force =     0.00026058    0.00000000    0.00180211
     atom   76 type  4   force =    -0.00026058    0.00000000    0.00180211
     atom   77 type  4   force =     0.00000000   -0.00050878    0.00263137
     atom   78 type  4   force =     0.00000000    0.00050878    0.00263137
     atom   79 type  4   force =     0.00030602    0.00000000    0.00180135
     atom   80 type  4   force =    -0.00030602    0.00000000    0.00180135
     atom   81 type  3   force =     0.00014106   -0.00026007   -0.00279220
     atom   82 type  3   force =     0.00014106    0.00026007   -0.00279220
     atom   83 type  3   force =    -0.00014106   -0.00026007   -0.00279220
     atom   84 type  3   force =    -0.00014106    0.00026007   -0.00279220
     atom   85 type  3   force =     0.00005839   -0.00012384   -0.00290442
     atom   86 type  3   force =    -0.00005839   -0.00012384   -0.00290442
     atom   87 type  3   force =    -0.00005839    0.00012384   -0.00290442
     atom   88 type  3   force =     0.00005839    0.00012384   -0.00290442
     atom   89 type  1   force =     0.00000000    0.00000000   -0.00540130
     atom   90 type  1   force =     0.00000000   -0.00068896   -0.00658909
     atom   91 type  1   force =     0.00000000    0.00068896   -0.00658909
     atom   92 type  1   force =    -0.00094356    0.00000000   -0.00541919
     atom   93 type  1   force =     0.00094356    0.00000000   -0.00541919
     atom   94 type  1   force =     0.00000000    0.00000000   -0.00662068
     atom   95 type  1   force =     0.00000000    0.00000000   -0.00662068
     atom   96 type  1   force =     0.00000000    0.00000000   -0.00527483
     atom   97 type  4   force =    -0.00038987   -0.00040035    0.00514011
     atom   98 type  4   force =    -0.00038987    0.00040035    0.00514011
     atom   99 type  4   force =     0.00038987   -0.00040035    0.00514011
     atom  100 type  4   force =     0.00038987    0.00040035    0.00514011
     atom  101 type  4   force =     0.00063638   -0.00020100    0.00597046
     atom  102 type  4   force =    -0.00063638   -0.00020100    0.00597046
     atom  103 type  4   force =    -0.00063638    0.00020100    0.00597046
     atom  104 type  4   force =     0.00063638    0.00020100    0.00597046
     atom  105 type  4   force =     0.00147935    0.00000000    0.01501163
     atom  106 type  4   force =    -0.00147935    0.00000000    0.01501163
     atom  107 type  3   force =    -0.00341407   -0.00169298   -0.01470852
     atom  108 type  3   force =    -0.00341407    0.00169298   -0.01470852
     atom  109 type  3   force =     0.00341407    0.00169298   -0.01470852
     atom  110 type  3   force =     0.00341407   -0.00169298   -0.01470852
     atom  111 type  3   force =    -0.00288228   -0.00080616   -0.01186204
     atom  112 type  3   force =     0.00288228    0.00080616   -0.01186204
     atom  113 type  3   force =    -0.00288228    0.00080616   -0.01186204
     atom  114 type  3   force =     0.00288228   -0.00080616   -0.01186204
     atom  115 type  4   force =     0.00098524   -0.00052040    0.01575774
     atom  116 type  4   force =    -0.00098524   -0.00052040    0.01575774
     atom  117 type  4   force =     0.00098524    0.00052040    0.01575774
     atom  118 type  4   force =    -0.00098524    0.00052040    0.01575774
     atom  119 type  4   force =     0.00216164    0.00000000    0.01649907
     atom  120 type  4   force =    -0.00216164    0.00000000    0.01649907
     atom  121 type  4   force =    -0.00785685   -0.00500722    0.03490070
     atom  122 type  4   force =     0.00785685   -0.00500722    0.03490070
     atom  123 type  4   force =     0.00785685    0.00500722    0.03490070
     atom  124 type  4   force =    -0.00785685    0.00500722    0.03490070
     atom  125 type  4   force =     0.00269569   -0.00208072    0.02688015
     atom  126 type  4   force =     0.00269569    0.00208072    0.02688015
     atom  127 type  4   force =    -0.00269569   -0.00208072    0.02688015
     atom  128 type  4   force =    -0.00269569    0.00208072    0.02688015
     atom  129 type  1   force =     0.00000000    0.00000000   -0.03041455
     atom  130 type  1   force =     0.00000000    0.00000000   -0.02999904
     atom  131 type  1   force =     0.00000000    0.00000000   -0.02999904
     atom  132 type  1   force =     0.00197786    0.00000000   -0.02846177
     atom  133 type  1   force =    -0.00197786    0.00000000   -0.02846177
     atom  134 type  1   force =     0.00000000    0.00327880   -0.02907442
     atom  135 type  1   force =     0.00000000   -0.00327880   -0.02907442
     atom  136 type  1   force =     0.00000000    0.00000000   -0.02057725
     atom  137 type  3   force =     0.00066157    0.00071139    0.00501392
     atom  138 type  3   force =     0.00066157   -0.00071139    0.00501392
     atom  139 type  3   force =    -0.00066157   -0.00071139    0.00501392
     atom  140 type  3   force =    -0.00066157    0.00071139    0.00501392
     atom  141 type  3   force =    -0.00556230    0.00663012   -0.00361538
     atom  142 type  3   force =    -0.00556230   -0.00663012   -0.00361538
     atom  143 type  3   force =     0.00556230    0.00663012   -0.00361538
     atom  144 type  3   force =     0.00556230   -0.00663012   -0.00361538
     atom  145 type  4   force =    -0.00256146    0.00000000    0.01319625
     atom  146 type  4   force =     0.00256146    0.00000000    0.01319625
     atom  147 type  4   force =     0.00000000   -0.00240836    0.01345111
     atom  148 type  4   force =     0.00000000    0.00240836    0.01345111
     atom  149 type  4   force =    -0.00076808    0.00000000    0.00752880
     atom  150 type  4   force =     0.00076808    0.00000000    0.00752880
     atom  151 type  4   force =    -0.00073484    0.00112483    0.01167165
     atom  152 type  4   force =     0.00073484    0.00112483    0.01167165
     atom  153 type  4   force =     0.00073484   -0.00112483    0.01167165
     atom  154 type  4   force =    -0.00073484   -0.00112483    0.01167165
     atom  155 type  4   force =     0.00000000   -0.00196585    0.01176573
     atom  156 type  4   force =     0.00000000    0.00196585    0.01176573
     atom  157 type  4   force =     0.00146475    0.00005769    0.01287605
     atom  158 type  4   force =    -0.00146475   -0.00005769    0.01287605
     atom  159 type  4   force =     0.00146475   -0.00005769    0.01287605
     atom  160 type  4   force =    -0.00146475    0.00005769    0.01287605
     atom  161 type  2   force =     0.00000000    0.00000000   -0.03399158
     atom  162 type  5   force =    -0.00072699    0.00000000   -0.04096104
     atom  163 type  5   force =     0.00072699    0.00000000   -0.04096104
     atom  164 type  5   force =     0.00000000    0.00000000   -0.03675947
     atom  165 type  5   force =     0.00000000    0.00000000   -0.03846530
     atom  166 type  5   force =     0.00000000    0.00000000   -0.03846530
     atom  167 type  5   force =     0.00000000   -0.00128774   -0.03974849
     atom  168 type  5   force =     0.00000000    0.00128774   -0.03974849
     atom  169 type  4   force =    -0.00023786    0.00006430    0.00490699
     atom  170 type  4   force =    -0.00023786   -0.00006430    0.00490699
     atom  171 type  4   force =     0.00023786    0.00006430    0.00490699
     atom  172 type  4   force =     0.00023786   -0.00006430    0.00490699
     atom  173 type  4   force =     0.00000000    0.00018176    0.00457190
     atom  174 type  4   force =     0.00000000   -0.00018176    0.00457190
     atom  175 type  4   force =    -0.00002613    0.00006068    0.00377709
     atom  176 type  4   force =    -0.00002613   -0.00006068    0.00377709
     atom  177 type  4   force =     0.00002613   -0.00006068    0.00377709
     atom  178 type  4   force =     0.00002613    0.00006068    0.00377709
     atom  179 type  4   force =    -0.00020201    0.00000000    0.00321397
     atom  180 type  4   force =     0.00020201    0.00000000    0.00321397
     atom  181 type  4   force =     0.00000000   -0.00059523    0.00500338
     atom  182 type  4   force =     0.00000000    0.00059523    0.00500338
     atom  183 type  4   force =     0.00060748    0.00000000    0.00423105
     atom  184 type  4   force =    -0.00060748    0.00000000    0.00423105
     atom  185 type  3   force =     0.00001400    0.00022294    0.00148153
     atom  186 type  3   force =     0.00001400   -0.00022294    0.00148153
     atom  187 type  3   force =    -0.00001400    0.00022294    0.00148153
     atom  188 type  3   force =    -0.00001400   -0.00022294    0.00148153
     atom  189 type  3   force =     0.00001599   -0.00001373    0.00152146
     atom  190 type  3   force =    -0.00001599   -0.00001373    0.00152146
     atom  191 type  3   force =    -0.00001599    0.00001373    0.00152146
     atom  192 type  3   force =     0.00001599    0.00001373    0.00152146
     atom  193 type  1   force =     0.00000000    0.00000000   -0.00132548
     atom  194 type  1   force =     0.00000000   -0.00003796   -0.00103970
     atom  195 type  1   force =     0.00000000    0.00003796   -0.00103970
     atom  196 type  1   force =     0.00020714    0.00000000   -0.00127936
     atom  197 type  1   force =    -0.00020714    0.00000000   -0.00127936
     atom  198 type  1   force =     0.00000000    0.00000000   -0.00120229
     atom  199 type  1   force =     0.00000000    0.00000000   -0.00120229
     atom  200 type  1   force =     0.00000000    0.00000000   -0.00115108
     atom  201 type  4   force =     0.00002126    0.00010016    0.00075691
     atom  202 type  4   force =     0.00002126   -0.00010016    0.00075691
     atom  203 type  4   force =    -0.00002126    0.00010016    0.00075691
     atom  204 type  4   force =    -0.00002126   -0.00010016    0.00075691
     atom  205 type  4   force =     0.00003102    0.00005162    0.00074019
     atom  206 type  4   force =    -0.00003102    0.00005162    0.00074019
     atom  207 type  4   force =    -0.00003102   -0.00005162    0.00074019
     atom  208 type  4   force =     0.00003102   -0.00005162    0.00074019
     atom  209 type  4   force =     0.00010434    0.00000000    0.00021281
     atom  210 type  4   force =    -0.00010434    0.00000000    0.00021281
     atom  211 type  3   force =     0.00009302   -0.00007184   -0.00044893
     atom  212 type  3   force =     0.00009302    0.00007184   -0.00044893
     atom  213 type  3   force =    -0.00009302    0.00007184   -0.00044893
     atom  214 type  3   force =    -0.00009302   -0.00007184   -0.00044893
     atom  215 type  3   force =    -0.00000471   -0.00002649   -0.00035212
     atom  216 type  3   force =     0.00000471    0.00002649   -0.00035212
     atom  217 type  3   force =    -0.00000471    0.00002649   -0.00035212
     atom  218 type  3   force =     0.00000471   -0.00002649   -0.00035212
     atom  219 type  4   force =    -0.00009944    0.00005340    0.00028758
     atom  220 type  4   force =     0.00009944    0.00005340    0.00028758
     atom  221 type  4   force =    -0.00009944   -0.00005340    0.00028758
     atom  222 type  4   force =     0.00009944   -0.00005340    0.00028758
     atom  223 type  4   force =    -0.00015904    0.00000000    0.00026244
     atom  224 type  4   force =     0.00015904    0.00000000    0.00026244

     Total force =     0.184389     Total SCF correction =     0.000325


     Computing stress (Cartesian axis) and pressure


     negative rho (up, down):  6.352E-01 0.000E+00
          total   stress  (Ry/bohr**3)                   (kbar)     P=       -6.89
  -0.00007439   0.00000000   0.00000000          -10.94        0.00        0.00
   0.00000000  -0.00003902   0.00000000            0.00       -5.74        0.00
   0.00000000   0.00000000  -0.00002711            0.00        0.00       -3.99

 
     init_run     :     63.66s CPU     67.10s WALL (       1 calls)
     electrons    :   5131.08s CPU   5331.41s WALL (       1 calls)
     forces       :     35.77s CPU     38.08s WALL (       1 calls)
     stress       :    413.76s CPU    418.10s WALL (       1 calls)

     Called by init_run:
     wfcinit      :     50.65s CPU     52.45s WALL (       1 calls)
     potinit      :      1.70s CPU      1.81s WALL (       1 calls)
     hinit0       :      3.02s CPU      3.08s WALL (       1 calls)

     Called by electrons:
     c_bands      :   4267.51s CPU   4359.41s WALL (      46 calls)
     sum_band     :    587.09s CPU    648.39s WALL (      46 calls)
     v_of_rho     :     13.86s CPU     14.60s WALL (      47 calls)
     newd         :    100.98s CPU    147.50s WALL (      47 calls)
     mix_rho      :    162.07s CPU    163.21s WALL (      46 calls)

     Called by c_bands:
     init_us_2    :     18.15s CPU     18.82s WALL (     380 calls)
     cegterg      :   4168.36s CPU   4255.16s WALL (     184 calls)

     Called by sum_band:
     sum_band:bec :      4.06s CPU      4.09s WALL (     184 calls)
     addusdens    :     96.60s CPU    152.99s WALL (      46 calls)

     Called by *egterg:
     h_psi        :   1762.02s CPU   1794.83s WALL (    1191 calls)
     s_psi        :    498.00s CPU    510.37s WALL (    1191 calls)
     g_psi        :      2.87s CPU      2.88s WALL (    1003 calls)
     cdiaghg      :    826.99s CPU    830.45s WALL (    1187 calls)

     Called by h_psi:
     h_psi:calbec :    538.91s CPU    541.73s WALL (    1191 calls)
     vloc_psi     :    720.41s CPU    729.43s WALL (    1191 calls)
     add_vuspsi   :    498.28s CPU    511.05s WALL (    1191 calls)

     General routines
     calbec       :    828.72s CPU    832.82s WALL (    1395 calls)
     fft          :     14.44s CPU     14.61s WALL (     634 calls)
     ffts         :     98.56s CPU     99.28s WALL (   36790 calls)
     fftw         :    799.28s CPU    808.94s WALL ( 1037902 calls)
     interpolate  :      1.30s CPU      1.35s WALL (      47 calls)
 
     Parallel routines
     fft_scatt_xy :    119.05s CPU    120.37s WALL ( 1075326 calls)
     fft_scatt_yz :    505.69s CPU    512.16s WALL ( 1075326 calls)
 
     PWSCF        :      1h34m CPU      1h37m WALL

 
   This run was terminated on:   0: 4:22  18May2021            

=------------------------------------------------------------------------------=
   JOB DONE.
=------------------------------------------------------------------------------=
[1621310662.577073] [holy7c06412:143263:0]          mpool.c:43   UCX  WARN  object 0x67a4e80 was not returned to mpool ucp_requests
[1621310662.575619] [holy7c06503:132999:0]          mpool.c:43   UCX  WARN  object 0x3c9b080 was not returned to mpool ucp_requests
[1621310662.597307] [holy7c06410:113308:0]          mpool.c:43   UCX  WARN  object 0x47d5d00 was not returned to mpool ucp_requests
[1621310662.580969] [holy7c06503:133000:0]          mpool.c:43   UCX  WARN  object 0x2ac5840 was not returned to mpool ucp_requests
[1621310662.581959] [holy7c06412:143255:0]          mpool.c:43   UCX  WARN  object 0x4432b40 was not returned to mpool ucp_requests
[1621310662.583824] [holy7c06412:143265:0]          mpool.c:43   UCX  WARN  object 0x3d632c0 was not returned to mpool ucp_requests
[1621310662.585628] [holy7c06412:143257:0]          mpool.c:43   UCX  WARN  object 0x34b6240 was not returned to mpool ucp_requests
[1621310662.591514] [holy7c06503:133002:0]          mpool.c:43   UCX  WARN  object 0x3bc25c0 was not returned to mpool ucp_requests
[1621310662.593329] [holy7c06503:133001:0]          mpool.c:43   UCX  WARN  object 0x44934c0 was not returned to mpool ucp_requests
[1621310662.587475] [holy7c06412:143256:0]          mpool.c:43   UCX  WARN  object 0x3ed9740 was not returned to mpool ucp_requests
[1621310662.589082] [holy7c06412:143266:0]          mpool.c:43   UCX  WARN  object 0x448ee00 was not returned to mpool ucp_requests
[1621310662.600421] [holy7c06409:218953:0]          mpool.c:43   UCX  WARN  object 0x4782000 was not returned to mpool ucp_requests
[1621310662.597031] [holy7c06412:143264:0]          mpool.c:43   UCX  WARN  object 0x47d42c0 was not returned to mpool ucp_requests
[1621310662.594673] [holy7c06412:143250:0]          mpool.c:43   UCX  WARN  object 0x2e9ffc0 was not returned to mpool ucp_requests
[1621310662.597956] [holy7c06412:143258:0]          mpool.c:43   UCX  WARN  object 0x3be4200 was not returned to mpool ucp_requests
[1621310662.596937] [holy7c06409:218958:0]          mpool.c:43   UCX  WARN  object 0x2abbf40 was not returned to mpool ucp_requests
[1621310662.596809] [holy7c06409:218960:0]          mpool.c:43   UCX  WARN  object 0x4f70780 was not returned to mpool ucp_requests
[1621310662.602216] [holy7c06409:218961:0]          mpool.c:43   UCX  WARN  object 0x4794080 was not returned to mpool ucp_requests
[1621310662.618538] [holy7c06409:218952:0]          mpool.c:43   UCX  WARN  object 0x2b7f480 was not returned to mpool ucp_requests
[1621310662.598065] [holy7c06410:113310:0]          mpool.c:43   UCX  WARN  object 0x42bca80 was not returned to mpool ucp_requests
[1621310662.615449] [holy7c06409:218959:0]          mpool.c:43   UCX  WARN  object 0x52fcc80 was not returned to mpool ucp_requests
[1621310662.610857] [holy7c06409:218951:0]          mpool.c:43   UCX  WARN  object 0x349f180 was not returned to mpool ucp_requests
[1621310662.596552] [holy7c06410:113309:0]          mpool.c:43   UCX  WARN  object 0x30931c0 was not returned to mpool ucp_requests
[1621310662.593310] [holy7c06410:113301:0]          mpool.c:43   UCX  WARN  object 0x33dc940 was not returned to mpool ucp_requests
[1621310662.602171] [holy7c06410:113316:0]          mpool.c:43   UCX  WARN  object 0x2e9c580 was not returned to mpool ucp_requests
[1621310662.599356] [holy7c06410:113300:0]          mpool.c:43   UCX  WARN  object 0x31bed80 was not returned to mpool ucp_requests
[1621310662.607505] [holy7c06410:113315:0]          mpool.c:43   UCX  WARN  object 0x3d671c0 was not returned to mpool ucp_requests
[1621310662.605356] [holy7c06410:113299:0]          mpool.c:43   UCX  WARN  object 0x35c0980 was not returned to mpool ucp_requests
[1621310662.605463] [holy7c06410:113307:0]          mpool.c:43   UCX  WARN  object 0x3363200 was not returned to mpool ucp_requests
[1621310662.604796] [holy7c06410:113317:0]          mpool.c:43   UCX  WARN  object 0x56e68c0 was not returned to mpool ucp_requests
[1621310662.610676] [holy7c06410:113302:0]          mpool.c:43   UCX  WARN  object 0x30b4ec0 was not returned to mpool ucp_requests
