
     Program PWSCF v.6.5 starts on 18May2021 at 12: 5:32 

     This program is part of the open-source Quantum ESPRESSO suite
     for quantum simulation of materials; please cite
         "P. Giannozzi et al., J. Phys.:Condens. Matter 21 395502 (2009);
         "P. Giannozzi et al., J. Phys.:Condens. Matter 29 465901 (2017);
          URL http://www.quantum-espresso.org", 
     in publications or presentations arising from this work. More details at
     http://www.quantum-espresso.org/quote

     Parallel version (MPI), running on    80 processors

     MPI processes distributed on     5 nodes
     R & G space division:  proc/nbgrp/npool/nimage =      80
     Reading input from YBCO_Y_cleave_3.0_sep.pwi
Warning: card &IONS ignored
Warning: card     ION_DYNAMICS = 'BFGS' ignored
Warning: card / ignored
Warning: card &CELL ignored
Warning: card     CELL_DYNAMICS = 'BFGS' ignored
Warning: card     PRESS_CONV_THR = 5 ignored
Warning: card / ignored

     Current dimensions of program PWSCF are:
     Max number of different atomic species (ntypx) = 10
     Max number of k-points (npk) =  40000
     Max angular momentum in pseudopotentials (lmaxx) =  3
     Message from routine volume:
     axis vectors are left-handed

     Subspace diagonalization in iterative solution of the eigenvalue problem:
     one sub-group per band group will be used
     scalapack distributed-memory algorithm (size of sub-group:  8*  8 procs)

     Message from routine setup:
     using ibrav=0 with symmetry is DISCOURAGED, use correct ibrav instead
 
     Parallelization info
     --------------------
     sticks:   dense  smooth     PW     G-vecs:    dense   smooth      PW
     Min         300     100     25               150530    28968    3803
     Max         301     101     26               150565    28991    3842
     Sum       24079    8031   2067             12044437  2318275  306339
 


     bravais-lattice index     =            0
     lattice parameter (alat)  =      20.5021  a.u.
     unit-cell volume          =   36917.4932 (a.u.)^3
     number of atoms/cell      =          224
     number of atomic types    =            5
     number of electrons       =      1830.00
     number of Kohn-Sham states=         1098
     kinetic-energy cutoff     =      60.0000  Ry
     charge density cutoff     =     720.0000  Ry
     convergence threshold     =      1.0E-08
     mixing beta               =       0.5000
     number of iterations used =           10  local-TF  mixing
     Exchange-correlation= SLA PW PBE PBE
                           (   1   4   3   4   0   0   0)

     celldm(1)=  20.502120  celldm(2)=   0.000000  celldm(3)=   0.000000
     celldm(4)=   0.000000  celldm(5)=   0.000000  celldm(6)=   0.000000

     crystal axes: (cart. coord. in units of alat)
               a(1) = (  -0.716599   0.697485   0.000000 )  
               a(2) = (   0.716599   0.697485   0.000000 )  
               a(3) = (   0.000000   0.000000   4.285432 )  

     reciprocal axes: (cart. coord. in units 2 pi/alat)
               b(1) = ( -0.697740  0.716861  0.000000 )  
               b(2) = (  0.697740  0.716861  0.000000 )  
               b(3) = (  0.000000  0.000000  0.233349 )  


     PseudoPot. # 1 for Ba read from file:
     ./pseudo/Ba.pbe-nsp-van.UPF
     MD5 check sum: 2b9c31dd849566dd297d80989662b7a0
     Pseudo is Ultrasoft + core correction, Zval = 10.0
     Generated by new atomic code, or converted to UPF format
     Using radial grid of  907 points,  6 beta functions with: 
                l(1) =   0
                l(2) =   0
                l(3) =   1
                l(4) =   1
                l(5) =   2
                l(6) =   2
     Q(r) pseudized with  6 coefficients,  rinner =    1.200   1.200   1.200
                                                       1.200   1.200

     PseudoPot. # 2 for Ca read from file:
     ./pseudo/Ca.pbe-nsp-van.UPF
     MD5 check sum: 6471098428ff4fa451746d08035ff179
     Pseudo is Ultrasoft + core correction, Zval = 10.0
     Generated by new atomic code, or converted to UPF format
     Using radial grid of  845 points,  6 beta functions with: 
                l(1) =   0
                l(2) =   0
                l(3) =   1
                l(4) =   1
                l(5) =   2
                l(6) =   2
     Q(r) pseudized with  6 coefficients,  rinner =    1.200   1.200   1.200
                                                       1.200   1.200

     PseudoPot. # 3 for Cu read from file:
     ./pseudo/Cu.pbe-n-van_ak.UPF
     MD5 check sum: 34e3282627ffb533726feb647e090d62
     Pseudo is Ultrasoft + core correction, Zval = 11.0
     Generated by new atomic code, or converted to UPF format
     Using radial grid of  867 points,  6 beta functions with: 
                l(1) =   0
                l(2) =   0
                l(3) =   1
                l(4) =   1
                l(5) =   2
                l(6) =   2
     Q(r) pseudized with  8 coefficients,  rinner =    1.400   1.400   1.400
                                                       1.400   1.400

     PseudoPot. # 4 for O  read from file:
     ./pseudo/O.pbe-van_ak.UPF
     MD5 check sum: 783ce7fe4c79b6a4916957118fed0856
     Pseudo is Ultrasoft, Zval =  6.0
     Generated by new atomic code, or converted to UPF format
     Using radial grid of  737 points,  4 beta functions with: 
                l(1) =   0
                l(2) =   0
                l(3) =   1
                l(4) =   1
     Q(r) pseudized with  8 coefficients,  rinner =    0.800   0.800   0.800


     PseudoPot. # 5 for Y  read from file:
     ./pseudo/Y.pbe-nsp-van.UPF
     MD5 check sum: 4412fed3ab108fed87a1b7d6a69a4a38
     Pseudo is Ultrasoft + core correction, Zval = 11.0
     Generated by new atomic code, or converted to UPF format
     Using radial grid of  885 points,  6 beta functions with: 
                l(1) =   0
                l(2) =   0
                l(3) =   1
                l(4) =   1
                l(5) =   2
                l(6) =   2
     Q(r) pseudized with  6 coefficients,  rinner =    1.200   1.200   1.200
                                                       1.200   1.200

     atomic species   valence    mass     pseudopotential
        Ba            10.00   137.32700     Ba( 1.00)
        Ca            10.00    40.07800     Ca( 1.00)
        Cu            11.00    63.54600     Cu( 1.00)
        O              6.00    15.99900     O ( 1.00)
        Y             11.00    88.90584     Y ( 1.00)

      4 Sym. Ops. (no inversion) found ( 3 have fractional translation)



   Cartesian axes

     site n.     atom                  positions (alat units)
         1           O   tau(   1) = (   0.3545921   0.8718562  -0.0077406  )
         2           O   tau(   2) = (   0.0037072   0.8718562  -0.0077406  )
         3           Cu  tau(   3) = (  -0.0002581   0.0006065   0.0080789  )
         4           Cu  tau(   4) = (  -0.0002581   0.3481364   0.0080789  )
         5           Cu  tau(   5) = (   0.3585574   0.3481364   0.0080789  )
         6           Cu  tau(   6) = (  -0.3580421   0.6980913   0.0080789  )
         7           Cu  tau(   7) = (   0.3577988   0.6971373   0.0086255  )
         8           Cu  tau(   8) = (   0.0005005   1.0465760   0.0086255  )
         9           Cu  tau(   9) = (  -0.3588016   0.3490903   0.0086255  )
        10           Cu  tau(  10) = (   0.0005005   0.6971373   0.0086255  )
        11           O   tau(  11) = (  -0.0001733   0.5225410  -0.0089757  )
        12           O   tau(  12) = (   0.3584726   0.5225410  -0.0089757  )
        13           O   tau(  13) = (  -0.0001733   1.2211724  -0.0089757  )
        14           O   tau(  14) = (  -0.3581278   0.5236867  -0.0089757  )
        15           O   tau(  15) = (  -0.3544557   0.8718562  -0.0105593  )
        16           O   tau(  16) = (  -0.0038445   0.1743714  -0.0105593  )
        17           O   tau(  17) = (   0.3588818   0.3486599   0.1817056  )
        18           O   tau(  18) = (  -0.0005825   0.3486599   0.1817056  )
        19           O   tau(  19) = (  -0.0005825   0.0000830   0.1817056  )
        20           O   tau(  20) = (  -0.3577167   0.6975677   0.1817056  )
        21           O   tau(  21) = (   0.3584283   0.6967843   0.1825784  )
        22           O   tau(  22) = (  -0.3581712   0.3494443   0.1825784  )
        23           O   tau(  23) = (  -0.0001290   0.6967843   0.1825784  )
        24           O   tau(  24) = (  -0.0001290   1.0469291   0.1825784  )
        25           Ba  tau(  25) = (   0.1791506   0.8718562   0.1908537  )
        26           Ba  tau(  26) = (   0.5374498   0.5231143   0.1919901  )
        27           Ba  tau(  27) = (  -0.1791506   0.5231143   0.1919901  )
        28           Ba  tau(  28) = (  -0.1793773   0.8718562   0.1931958  )
        29           Ba  tau(  29) = (  -0.1789238   0.1743714   0.1931958  )
        30           Ba  tau(  30) = (   0.1791506   0.5222101   0.1929368  )
        31           Ba  tau(  31) = (  -0.5374498   0.5240176   0.1929368  )
        32           Ba  tau(  32) = (   0.1791506   0.1743714   0.1992469  )
        33           Cu  tau(  33) = (  -0.3583426   0.3488452   0.3777458  )
        34           Cu  tau(  34) = (   0.3582559   0.6973834   0.3777458  )
        35           Cu  tau(  35) = (   0.0000433   0.6973834   0.3777458  )
        36           Cu  tau(  36) = (   0.0000433   1.0463299   0.3777458  )
        37           Cu  tau(  37) = (  -0.3586541   0.6975060   0.3775126  )
        38           Cu  tau(  38) = (   0.3579444   0.3487217   0.3775126  )
        39           Cu  tau(  39) = (   0.0003549   0.0000212   0.3775126  )
        40           Cu  tau(  40) = (   0.0003549   0.3487217   0.3775126  )
        41           O   tau(  41) = (  -0.0047976   0.1743714   0.3996864  )
        42           O   tau(  42) = (  -0.3535026   0.8718562   0.3996864  )
        43           O   tau(  43) = (  -0.5374498   0.6924605   0.3956991  )
        44           O   tau(  44) = (   0.1791506   0.3537672   0.3956991  )
        45           O   tau(  45) = (   0.3586385   0.8718562   0.4046840  )
        46           O   tau(  46) = (  -0.0003392   0.8718562   0.4046840  )
        47           O   tau(  47) = (  -0.0004857   0.5230571   0.4066611  )
        48           O   tau(  48) = (   0.3587850   0.5230571   0.4066611  )
        49           O   tau(  49) = (  -0.3578135   0.5231714   0.4066611  )
        50           O   tau(  50) = (  -0.0004857   1.2206562   0.4066611  )
        51           O   tau(  51) = (   0.1791506   1.0461604   0.4028931  )
        52           O   tau(  52) = (   0.1791506   0.6975521   0.4028931  )
        53           O   tau(  53) = (  -0.1792261   0.6967170   0.4025963  )
        54           O   tau(  54) = (  -0.1790731   0.3495106   0.4025963  )
        55           O   tau(  55) = (  -0.1792261   1.0469964   0.4025963  )
        56           O   tau(  56) = (   0.5375263   0.6967170   0.4025963  )
        57           Ca  tau(  57) = (   0.1791506   0.1743714   0.5358617  )
        58           Y   tau(  58) = (  -0.1811525   0.8718562   0.5373908  )
        59           Y   tau(  59) = (  -0.1771467   0.1743714   0.5373908  )
        60           Y   tau(  60) = (   0.1791506   0.8718562   0.5379568  )
        61           Y   tau(  61) = (   0.5374498   0.5231143   0.5384490  )
        62           Y   tau(  62) = (  -0.1791506   0.5231143   0.5384490  )
        63           Y   tau(  63) = (   0.1791506   0.5216598   0.5383310  )
        64           Y   tau(  64) = (  -0.5374498   0.5245688   0.5383310  )
        65           O   tau(  65) = (  -0.1787754   0.3493171   0.6712314  )
        66           O   tau(  66) = (   0.5378231   0.6969115   0.6712314  )
        67           O   tau(  67) = (  -0.1795239   1.0468019   0.6712314  )
        68           O   tau(  68) = (  -0.1795239   0.6969115   0.6712314  )
        69           O   tau(  69) = (   0.1791506   0.6972691   0.6718637  )
        70           O   tau(  70) = (   0.1791506   1.0464433   0.6718637  )
        71           O   tau(  71) = (  -0.0003880   1.2203935   0.6667490  )
        72           O   tau(  72) = (  -0.0003880   0.5233198   0.6667490  )
        73           O   tau(  73) = (   0.3586882   0.5233198   0.6667490  )
        74           O   tau(  74) = (  -0.3579112   0.5229087   0.6667490  )
        75           O   tau(  75) = (   0.3585850   0.8718562   0.6641940  )
        76           O   tau(  76) = (  -0.0002857   0.8718562   0.6641940  )
        77           O   tau(  77) = (   0.1791506   0.3535118   0.6756778  )
        78           O   tau(  78) = (  -0.5374498   0.6927158   0.6756778  )
        79           O   tau(  79) = (  -0.0043044   0.1743714   0.6710848  )
        80           O   tau(  80) = (  -0.3539948   0.8718562   0.6710848  )
        81           Cu  tau(  81) = (  -0.3586514   0.6973604   0.6974442  )
        82           Cu  tau(  82) = (   0.3579472   0.3488682   0.6974442  )
        83           Cu  tau(  83) = (   0.0003521  -0.0001254   0.6974442  )
        84           Cu  tau(  84) = (   0.0003521   0.3488682   0.6974442  )
        85           Cu  tau(  85) = (   0.0000083   1.0459401   0.6989015  )
        86           Cu  tau(  86) = (  -0.3583076   0.3484544   0.6989015  )
        87           Cu  tau(  87) = (   0.3582910   0.6977733   0.6989015  )
        88           Cu  tau(  88) = (   0.0000083   0.6977733   0.6989015  )
        89           Ba  tau(  89) = (   0.1791506   0.1743714   0.8671591  )
        90           Ba  tau(  90) = (  -0.5374498   0.5239908   0.8827639  )
        91           Ba  tau(  91) = (   0.1791506   0.5222377   0.8827639  )
        92           Ba  tau(  92) = (  -0.1785616   0.1743714   0.8784262  )
        93           Ba  tau(  93) = (  -0.1797386   0.8718562   0.8784262  )
        94           Ba  tau(  94) = (  -0.1791506   0.5231143   0.8841483  )
        95           Ba  tau(  95) = (   0.5374498   0.5231143   0.8841483  )
        96           Ba  tau(  96) = (   0.1791506   0.8718562   0.8844635  )
        97           O   tau(  97) = (   0.3607888   0.6975991   0.9037874  )
        98           O   tau(  98) = (  -0.3558097   0.3486286   0.9037874  )
        99           O   tau(  99) = (  -0.0024896   0.6975991   0.9037874  )
       100           O   tau( 100) = (  -0.0024896   1.0461143   0.9037874  )
       101           O   tau( 101) = (   0.3544087   0.3463252   0.9043663  )
       102           O   tau( 102) = (   0.0038906   0.3463252   0.9043663  )
       103           O   tau( 103) = (   0.0038906   0.0024177   0.9043663  )
       104           O   tau( 104) = (  -0.3621908   0.6999025   0.9043663  )
       105           O   tau( 105) = (   0.3314246   0.8718562   1.0783672  )
       106           O   tau( 106) = (   0.0268747   0.8718562   1.0783672  )
       107           Cu  tau( 107) = (  -0.0027882   0.0031818   1.0782086  )
       108           Cu  tau( 108) = (  -0.0027882   0.3455601   1.0782086  )
       109           Cu  tau( 109) = (   0.3610875   0.3455601   1.0782086  )
       110           Cu  tau( 110) = (  -0.3555111   0.7006675   1.0782086  )
       111           Cu  tau( 111) = (   0.3579684   0.6983604   1.0781976  )
       112           Cu  tau( 112) = (   0.0003318   1.0453529   1.0781976  )
       113           Cu  tau( 113) = (  -0.3586320   0.3478672   1.0781976  )
       114           Cu  tau( 114) = (   0.0003318   0.6983604   1.0781976  )
       115           O   tau( 115) = (  -0.0055718   0.5218801   1.0778989  )
       116           O   tau( 116) = (   0.3638720   0.5218801   1.0778989  )
       117           O   tau( 117) = (  -0.0055718   1.2218333   1.0778989  )
       118           O   tau( 118) = (  -0.3527284   0.5243475   1.0778989  )
       119           O   tau( 119) = (  -0.3170374   0.8718562   1.0783192  )
       120           O   tau( 120) = (  -0.0412618   0.1743714   1.0783192  )
       121           O   tau( 121) = (   0.3544105   0.3465040   1.2520362  )
       122           O   tau( 122) = (   0.0038887   0.3465040   1.2520362  )
       123           O   tau( 123) = (   0.0038887   0.0022389   1.2520362  )
       124           O   tau( 124) = (  -0.3621880   0.6997236   1.2520362  )
       125           O   tau( 125) = (   0.3607981   0.6973991   1.2525976  )
       126           O   tau( 126) = (  -0.3558014   0.3488295   1.2525976  )
       127           O   tau( 127) = (  -0.0024988   0.6973991   1.2525976  )
       128           O   tau( 128) = (  -0.0024988   1.0463143   1.2525976  )
       129           Ba  tau( 129) = (   0.1791506   0.8718562   1.2719528  )
       130           Ba  tau( 130) = (   0.5374498   0.5231143   1.2722763  )
       131           Ba  tau( 131) = (  -0.1791506   0.5231143   1.2722763  )
       132           Ba  tau( 132) = (  -0.1796732   0.8718562   1.2779763  )
       133           Ba  tau( 133) = (  -0.1786270   0.1743714   1.2779763  )
       134           Ba  tau( 134) = (   0.1791506   0.5222571   1.2737041  )
       135           Ba  tau( 135) = (  -0.5374498   0.5239706   1.2737041  )
       136           Ba  tau( 136) = (   0.1791506   0.1743714   1.2892268  )
       137           Cu  tau( 137) = (  -0.3583094   0.3484682   1.4575232  )
       138           Cu  tau( 138) = (   0.3582901   0.6977604   1.4575232  )
       139           Cu  tau( 139) = (   0.0000101   0.6977604   1.4575232  )
       140           Cu  tau( 140) = (   0.0000101   1.0459530   1.4575232  )
       141           Cu  tau( 141) = (  -0.3586477   0.6973567   1.4589435  )
       142           Cu  tau( 142) = (   0.3579518   0.3488710   1.4589435  )
       143           Cu  tau( 143) = (   0.0003484  -0.0001281   1.4589435  )
       144           Cu  tau( 144) = (   0.0003484   0.3488710   1.4589435  )
       145           O   tau( 145) = (  -0.0043173   0.1743714   1.4852486  )
       146           O   tau( 146) = (  -0.3539819   0.8718562   1.4852486  )
       147           O   tau( 147) = (  -0.5374498   0.6927305   1.4807174  )
       148           O   tau( 148) = (   0.1791506   0.3534971   1.4807174  )
       149           O   tau( 149) = (   0.3585795   0.8718562   1.4921587  )
       150           O   tau( 150) = (  -0.0002802   0.8718562   1.4921587  )
       151           O   tau( 151) = (  -0.0003853   0.5233134   1.4896627  )
       152           O   tau( 152) = (   0.3586855   0.5233134   1.4896627  )
       153           O   tau( 153) = (  -0.3579140   0.5229152   1.4896627  )
       154           O   tau( 154) = (  -0.0003853   1.2204000   1.4896627  )
       155           O   tau( 155) = (   0.1791506   1.0464553   1.4845361  )
       156           O   tau( 156) = (   0.1791506   0.6972571   1.4845361  )
       157           O   tau( 157) = (  -0.1795146   0.6969069   1.4851647  )
       158           O   tau( 158) = (  -0.1787846   0.3493208   1.4851647  )
       159           O   tau( 159) = (  -0.1795146   1.0468065   1.4851647  )
       160           O   tau( 160) = (   0.5378139   0.6969069   1.4851647  )
       161           Ca  tau( 161) = (   0.1791506   0.1743714   1.6205270  )
       162           Y   tau( 162) = (  -0.1811544   0.8718562   1.6189960  )
       163           Y   tau( 163) = (  -0.1771449   0.1743714   1.6189960  )
       164           Y   tau( 164) = (   0.1791506   0.8718562   1.6184328  )
       165           Y   tau( 165) = (   0.5374498   0.5231143   1.6179637  )
       166           Y   tau( 166) = (  -0.1791506   0.5231143   1.6179637  )
       167           Y   tau( 167) = (   0.1791506   0.5216524   1.6180844  )
       168           Y   tau( 168) = (  -0.5374498   0.5245761   1.6180844  )
       169           O   tau( 169) = (  -0.1790685   0.3495088   2.0303155  )
       170           O   tau( 170) = (   0.5375300   0.6967198   2.0303155  )
       171           O   tau( 171) = (  -0.1792307   1.0469936   2.0303155  )
       172           O   tau( 172) = (  -0.1792307   0.6967198   2.0303155  )
       173           O   tau( 173) = (   0.1791506   0.6975604   2.0300187  )
       174           O   tau( 174) = (   0.1791506   1.0461521   2.0300187  )
       175           O   tau( 175) = (  -0.0004848   1.2206534   2.0262544  )
       176           O   tau( 176) = (  -0.0004848   0.5230599   2.0262544  )
       177           O   tau( 177) = (   0.3587841   0.5230599   2.0262544  )
       178           O   tau( 178) = (  -0.3578144   0.5231687   2.0262544  )
       179           O   tau( 179) = (   0.3586468   0.8718562   2.0281928  )
       180           O   tau( 180) = (  -0.0003466   0.8718562   2.0281928  )
       181           O   tau( 181) = (   0.1791506   0.3537690   2.0372155  )
       182           O   tau( 182) = (  -0.5374498   0.6924586   2.0372155  )
       183           O   tau( 183) = (  -0.0047874   0.1743714   2.0331802  )
       184           O   tau( 184) = (  -0.3535118   0.8718562   2.0331802  )
       185           Cu  tau( 185) = (  -0.3586560   0.6975087   2.0553864  )
       186           Cu  tau( 186) = (   0.3579435   0.3487198   2.0553864  )
       187           Cu  tau( 187) = (   0.0003567   0.0000230   2.0553864  )
       188           Cu  tau( 188) = (   0.0003567   0.3487198   2.0553864  )
       189           Cu  tau( 189) = (   0.0000415   1.0463263   2.0551541  )
       190           Cu  tau( 190) = (  -0.3583407   0.3488406   2.0551541  )
       191           Cu  tau( 191) = (   0.3582587   0.6973871   2.0551541  )
       192           Cu  tau( 192) = (   0.0000415   0.6973871   2.0551541  )
       193           Ba  tau( 193) = (   0.1791506   0.1743714   2.2336594  )
       194           Ba  tau( 194) = (  -0.5374498   0.5240166   2.2399686  )
       195           Ba  tau( 195) = (   0.1791506   0.5222119   2.2399686  )
       196           Ba  tau( 196) = (  -0.1789220   0.1743714   2.2397124  )
       197           Ba  tau( 197) = (  -0.1793773   0.8718562   2.2397124  )
       198           Ba  tau( 198) = (  -0.1791506   0.5231143   2.2409226  )
       199           Ba  tau( 199) = (   0.5374498   0.5231143   2.2409226  )
       200           Ba  tau( 200) = (   0.1791506   0.8718562   2.2420508  )
       201           O   tau( 201) = (   0.3584302   0.6967870   2.2503205  )
       202           O   tau( 202) = (  -0.3581684   0.3494406   2.2503205  )
       203           O   tau( 203) = (  -0.0001309   0.6967870   2.2503205  )
       204           O   tau( 204) = (  -0.0001309   1.0469263   2.2503205  )
       205           O   tau( 205) = (   0.3588800   0.3486562   2.2511934  )
       206           O   tau( 206) = (  -0.0005807   0.3486562   2.2511934  )
       207           O   tau( 207) = (  -0.0005807   0.0000866   2.2511934  )
       208           O   tau( 208) = (  -0.3577186   0.6975714   2.2511934  )
       209           O   tau( 209) = (   0.3545921   0.8718562   2.4406239  )
       210           O   tau( 210) = (   0.0037081   0.8718562   2.4406239  )
       211           Cu  tau( 211) = (  -0.0002516   0.0006074   2.4248200  )
       212           Cu  tau( 212) = (  -0.0002516   0.3481345   2.4248200  )
       213           Cu  tau( 213) = (   0.3585509   0.3481345   2.4248200  )
       214           Cu  tau( 214) = (  -0.3580476   0.6980931   2.4248200  )
       215           Cu  tau( 215) = (   0.3577960   0.6971373   2.4242735  )
       216           Cu  tau( 216) = (   0.0005033   1.0465760   2.4242735  )
       217           Cu  tau( 217) = (  -0.3588035   0.3490903   2.4242735  )
       218           Cu  tau( 218) = (   0.0005033   0.6971373   2.4242735  )
       219           O   tau( 219) = (  -0.0001724   0.5225410   2.4418627  )
       220           O   tau( 220) = (   0.3584716   0.5225410   2.4418627  )
       221           O   tau( 221) = (  -0.0001724   1.2211724   2.4418627  )
       222           O   tau( 222) = (  -0.3581288   0.5236867   2.4418627  )
       223           O   tau( 223) = (  -0.3544640   0.8718562   2.4434527  )
       224           O   tau( 224) = (  -0.0038353   0.1743714   2.4434527  )

     number of k points=     4  Gaussian smearing, width (Ry)=  0.0100
                       cart. coord. in units 2pi/alat
        k(    1) = (   0.0000000   0.0000000   0.0000000), wk =   0.2222222
        k(    2) = (   0.2325801   0.2389537   0.0000000), wk =   0.8888889
        k(    3) = (   0.0000000   0.4779073   0.0000000), wk =   0.4444444
        k(    4) = (  -0.4651601  -0.0000000   0.0000000), wk =   0.4444444

     Dense  grid: 12044437 G-vectors     FFT dimensions: ( 180, 180, 768)

     Smooth grid:  2318275 G-vectors     FFT dimensions: ( 108, 108, 450)

     Estimated max dynamical RAM per process >       2.51 GB

     Estimated total dynamical RAM >     201.15 GB

     Initial potential from superposition of free atoms

     starting charge 1828.78422, renormalised to 1830.00000

     negative rho (up, down):  6.317E-01 0.000E+00
     Starting wfcs are 1602 randomized atomic wfcs

     total cpu time spent up to now is       61.4 secs

     Self-consistent Calculation

     iteration #  1     ecut=    60.00 Ry     beta= 0.50
     Davidson diagonalization with overlap
     ethr =  1.00E-02,  avg # of iterations =  2.0

     negative rho (up, down):  5.975E-01 0.000E+00

     total cpu time spent up to now is      163.2 secs

     total energy              =  -14912.38458019 Ry
     Harris-Foulkes estimate   =  -14942.59808019 Ry
     estimated scf accuracy    <     116.62539791 Ry

     iteration #  2     ecut=    60.00 Ry     beta= 0.50
     Davidson diagonalization with overlap
     ethr =  6.37E-03,  avg # of iterations =  2.0

     negative rho (up, down):  5.952E-01 0.000E+00

     total cpu time spent up to now is      260.9 secs

     total energy              =  -14921.97940999 Ry
     Harris-Foulkes estimate   =  -14925.98493784 Ry
     estimated scf accuracy    <      73.69988301 Ry

     iteration #  3     ecut=    60.00 Ry     beta= 0.50
     Davidson diagonalization with overlap
     ethr =  4.03E-03,  avg # of iterations =  1.0

     negative rho (up, down):  5.960E-01 0.000E+00

     total cpu time spent up to now is      353.6 secs

     total energy              =  -14922.36448824 Ry
     Harris-Foulkes estimate   =  -14924.49113610 Ry
     estimated scf accuracy    <      36.20001228 Ry

     iteration #  4     ecut=    60.00 Ry     beta= 0.50
     Davidson diagonalization with overlap
     ethr =  1.98E-03,  avg # of iterations =  1.0

     negative rho (up, down):  5.998E-01 0.000E+00

     total cpu time spent up to now is      445.8 secs

     total energy              =  -14922.10249048 Ry
     Harris-Foulkes estimate   =  -14923.45772546 Ry
     estimated scf accuracy    <      38.26786085 Ry

     iteration #  5     ecut=    60.00 Ry     beta= 0.50
     Davidson diagonalization with overlap
     ethr =  1.98E-03,  avg # of iterations =  1.0

     negative rho (up, down):  6.097E-01 0.000E+00

     total cpu time spent up to now is      536.5 secs

     total energy              =  -14921.55794650 Ry
     Harris-Foulkes estimate   =  -14922.71940869 Ry
     estimated scf accuracy    <      29.65164062 Ry

     iteration #  6     ecut=    60.00 Ry     beta= 0.50
     Davidson diagonalization with overlap
     ethr =  1.62E-03,  avg # of iterations =  1.8

     negative rho (up, down):  6.188E-01 0.000E+00

     total cpu time spent up to now is      630.9 secs

     total energy              =  -14921.33053853 Ry
     Harris-Foulkes estimate   =  -14922.08239052 Ry
     estimated scf accuracy    <      33.28247459 Ry

     iteration #  7     ecut=    60.00 Ry     beta= 0.50
     Davidson diagonalization with overlap
     ethr =  1.62E-03,  avg # of iterations =  3.0

     negative rho (up, down):  6.209E-01 0.000E+00

     total cpu time spent up to now is      730.0 secs

     total energy              =  -14921.54152989 Ry
     Harris-Foulkes estimate   =  -14921.90546217 Ry
     estimated scf accuracy    <       6.54794633 Ry

     iteration #  8     ecut=    60.00 Ry     beta= 0.50
     Davidson diagonalization with overlap
     ethr =  3.58E-04,  avg # of iterations =  7.8

     negative rho (up, down):  6.239E-01 0.000E+00

     total cpu time spent up to now is      867.6 secs

     total energy              =  -14921.63479575 Ry
     Harris-Foulkes estimate   =  -14921.76345903 Ry
     estimated scf accuracy    <       1.77157648 Ry

     iteration #  9     ecut=    60.00 Ry     beta= 0.50
     Davidson diagonalization with overlap
     ethr =  9.68E-05,  avg # of iterations =  3.5

     negative rho (up, down):  6.271E-01 0.000E+00

     total cpu time spent up to now is      968.7 secs

     total energy              =  -14921.63806585 Ry
     Harris-Foulkes estimate   =  -14921.69957130 Ry
     estimated scf accuracy    <       1.46086290 Ry

     iteration # 10     ecut=    60.00 Ry     beta= 0.50
     Davidson diagonalization with overlap
     ethr =  7.98E-05,  avg # of iterations =  3.2

     negative rho (up, down):  6.273E-01 0.000E+00

     total cpu time spent up to now is     1068.6 secs

     total energy              =  -14921.67490734 Ry
     Harris-Foulkes estimate   =  -14921.68045080 Ry
     estimated scf accuracy    <       1.80306420 Ry

     iteration # 11     ecut=    60.00 Ry     beta= 0.50
     Davidson diagonalization with overlap
     ethr =  7.98E-05,  avg # of iterations =  1.0

     negative rho (up, down):  6.235E-01 0.000E+00

     total cpu time spent up to now is     1159.5 secs

     total energy              =  -14921.59920498 Ry
     Harris-Foulkes estimate   =  -14921.67805284 Ry
     estimated scf accuracy    <       1.70817216 Ry

     iteration # 12     ecut=    60.00 Ry     beta= 0.50
     Davidson diagonalization with overlap
     ethr =  7.98E-05,  avg # of iterations =  1.0

     negative rho (up, down):  6.234E-01 0.000E+00

     total cpu time spent up to now is     1251.6 secs

     total energy              =  -14921.61358800 Ry
     Harris-Foulkes estimate   =  -14921.63489315 Ry
     estimated scf accuracy    <       0.84498880 Ry

     iteration # 13     ecut=    60.00 Ry     beta= 0.50
     Davidson diagonalization with overlap
     c_bands:  2 eigenvalues not converged
     c_bands:  1 eigenvalues not converged
     ethr =  4.62E-05,  avg # of iterations = 14.8

     negative rho (up, down):  6.224E-01 0.000E+00

     total cpu time spent up to now is     1395.5 secs

     total energy              =  -14921.61150225 Ry
     Harris-Foulkes estimate   =  -14921.62162962 Ry
     estimated scf accuracy    <       0.50102572 Ry

     iteration # 14     ecut=    60.00 Ry     beta= 0.50
     Davidson diagonalization with overlap
     ethr =  2.74E-05,  avg # of iterations = 13.2

     negative rho (up, down):  6.208E-01 0.000E+00

     total cpu time spent up to now is     1533.7 secs

     total energy              =  -14921.60699669 Ry
     Harris-Foulkes estimate   =  -14921.61479490 Ry
     estimated scf accuracy    <       0.34648528 Ry

     iteration # 15     ecut=    60.00 Ry     beta= 0.50
     Davidson diagonalization with overlap
     ethr =  1.89E-05,  avg # of iterations =  2.5

     negative rho (up, down):  6.204E-01 0.000E+00

     total cpu time spent up to now is     1630.6 secs

     total energy              =  -14921.60749243 Ry
     Harris-Foulkes estimate   =  -14921.60989778 Ry
     estimated scf accuracy    <       0.27989843 Ry

     iteration # 16     ecut=    60.00 Ry     beta= 0.50
     Davidson diagonalization with overlap
     ethr =  1.53E-05,  avg # of iterations =  2.0

     negative rho (up, down):  6.201E-01 0.000E+00

     total cpu time spent up to now is     1724.9 secs

     total energy              =  -14921.59912946 Ry
     Harris-Foulkes estimate   =  -14921.60781244 Ry
     estimated scf accuracy    <       0.22929059 Ry

     iteration # 17     ecut=    60.00 Ry     beta= 0.50
     Davidson diagonalization with overlap
     c_bands:  3 eigenvalues not converged
     c_bands:  1 eigenvalues not converged
     ethr =  1.25E-05,  avg # of iterations = 13.2

     negative rho (up, down):  6.674E-01 0.000E+00

     total cpu time spent up to now is     1863.2 secs

     total energy              =  -14921.58504774 Ry
     Harris-Foulkes estimate   =  -14921.60044314 Ry
     estimated scf accuracy    <       0.19376034 Ry

     iteration # 18     ecut=    60.00 Ry     beta= 0.50
     Davidson diagonalization with overlap
     c_bands:  1 eigenvalues not converged
     ethr =  1.06E-05,  avg # of iterations = 14.2

     negative rho (up, down):  6.683E-01 0.000E+00

     total cpu time spent up to now is     2012.9 secs

     total energy              =  -14921.58538180 Ry
     Harris-Foulkes estimate   =  -14921.58936959 Ry
     estimated scf accuracy    <       0.04634681 Ry

     iteration # 19     ecut=    60.00 Ry     beta= 0.50
     Davidson diagonalization with overlap
     ethr =  2.53E-06,  avg # of iterations =  9.2

     negative rho (up, down):  6.396E-01 0.000E+00

     total cpu time spent up to now is     2136.1 secs

     total energy              =  -14921.58512513 Ry
     Harris-Foulkes estimate   =  -14921.58673766 Ry
     estimated scf accuracy    <       0.03667465 Ry

     iteration # 20     ecut=    60.00 Ry     beta= 0.50
     Davidson diagonalization with overlap
     ethr =  2.00E-06,  avg # of iterations =  8.2

     negative rho (up, down):  6.450E-01 0.000E+00

     total cpu time spent up to now is     2257.0 secs

     total energy              =  -14921.58174965 Ry
     Harris-Foulkes estimate   =  -14921.58554637 Ry
     estimated scf accuracy    <       0.03046816 Ry

     iteration # 21     ecut=    60.00 Ry     beta= 0.50
     Davidson diagonalization with overlap
     c_bands:  1 eigenvalues not converged
     ethr =  1.66E-06,  avg # of iterations = 18.0

     negative rho (up, down):  6.420E-01 0.000E+00

     total cpu time spent up to now is     2419.1 secs

     total energy              =  -14921.58023770 Ry
     Harris-Foulkes estimate   =  -14921.58233759 Ry
     estimated scf accuracy    <       0.01482707 Ry

     iteration # 22     ecut=    60.00 Ry     beta= 0.50
     Davidson diagonalization with overlap
     ethr =  8.10E-07,  avg # of iterations = 10.2

     negative rho (up, down):  6.248E-01 0.000E+00

     total cpu time spent up to now is     2548.9 secs

     total energy              =  -14921.58038575 Ry
     Harris-Foulkes estimate   =  -14921.58081353 Ry
     estimated scf accuracy    <       0.00651466 Ry

     iteration # 23     ecut=    60.00 Ry     beta= 0.50
     Davidson diagonalization with overlap
     ethr =  3.56E-07,  avg # of iterations =  9.0

     negative rho (up, down):  6.302E-01 0.000E+00

     total cpu time spent up to now is     2670.5 secs

     total energy              =  -14921.58008948 Ry
     Harris-Foulkes estimate   =  -14921.58064870 Ry
     estimated scf accuracy    <       0.00962824 Ry

     iteration # 24     ecut=    60.00 Ry     beta= 0.50
     Davidson diagonalization with overlap
     c_bands:  1 eigenvalues not converged
     ethr =  3.56E-07,  avg # of iterations = 12.5

     negative rho (up, down):  6.288E-01 0.000E+00

     total cpu time spent up to now is     2812.6 secs

     total energy              =  -14921.58027903 Ry
     Harris-Foulkes estimate   =  -14921.58026426 Ry
     estimated scf accuracy    <       0.00252981 Ry

     iteration # 25     ecut=    60.00 Ry     beta= 0.50
     Davidson diagonalization with overlap
     ethr =  1.38E-07,  avg # of iterations =  5.0

     negative rho (up, down):  6.269E-01 0.000E+00

     total cpu time spent up to now is     2921.6 secs

     total energy              =  -14921.58040842 Ry
     Harris-Foulkes estimate   =  -14921.58039613 Ry
     estimated scf accuracy    <       0.00150829 Ry

     iteration # 26     ecut=    60.00 Ry     beta= 0.50
     Davidson diagonalization with overlap
     c_bands:  1 eigenvalues not converged
     ethr =  8.24E-08,  avg # of iterations =  9.2

     negative rho (up, down):  6.279E-01 0.000E+00

     total cpu time spent up to now is     3044.5 secs

     total energy              =  -14921.58039831 Ry
     Harris-Foulkes estimate   =  -14921.58045939 Ry
     estimated scf accuracy    <       0.00076966 Ry

     iteration # 27     ecut=    60.00 Ry     beta= 0.50
     Davidson diagonalization with overlap
     ethr =  4.21E-08,  avg # of iterations =  5.0

     negative rho (up, down):  6.303E-01 0.000E+00

     total cpu time spent up to now is     3150.2 secs

     total energy              =  -14921.58040907 Ry
     Harris-Foulkes estimate   =  -14921.58042735 Ry
     estimated scf accuracy    <       0.00020210 Ry

     iteration # 28     ecut=    60.00 Ry     beta= 0.50
     Davidson diagonalization with overlap
     ethr =  1.10E-08,  avg # of iterations =  3.0

     negative rho (up, down):  6.296E-01 0.000E+00

     total cpu time spent up to now is     3251.4 secs

     total energy              =  -14921.58042335 Ry
     Harris-Foulkes estimate   =  -14921.58042422 Ry
     estimated scf accuracy    <       0.00010769 Ry

     iteration # 29     ecut=    60.00 Ry     beta= 0.50
     Davidson diagonalization with overlap
     ethr =  5.88E-09,  avg # of iterations =  2.0

     negative rho (up, down):  6.302E-01 0.000E+00

     total cpu time spent up to now is     3347.3 secs

     total energy              =  -14921.58042684 Ry
     Harris-Foulkes estimate   =  -14921.58042810 Ry
     estimated scf accuracy    <       0.00007637 Ry

     iteration # 30     ecut=    60.00 Ry     beta= 0.50
     Davidson diagonalization with overlap
     ethr =  4.17E-09,  avg # of iterations =  2.0

     negative rho (up, down):  6.303E-01 0.000E+00

     total cpu time spent up to now is     3443.3 secs

     total energy              =  -14921.58042710 Ry
     Harris-Foulkes estimate   =  -14921.58042916 Ry
     estimated scf accuracy    <       0.00003765 Ry

     iteration # 31     ecut=    60.00 Ry     beta= 0.50
     Davidson diagonalization with overlap
     ethr =  2.06E-09,  avg # of iterations =  1.5

     negative rho (up, down):  6.303E-01 0.000E+00

     total cpu time spent up to now is     3539.2 secs

     total energy              =  -14921.58042886 Ry
     Harris-Foulkes estimate   =  -14921.58042860 Ry
     estimated scf accuracy    <       0.00003524 Ry

     iteration # 32     ecut=    60.00 Ry     beta= 0.50
     Davidson diagonalization with overlap
     ethr =  1.93E-09,  avg # of iterations =  1.0

     negative rho (up, down):  6.292E-01 0.000E+00

     total cpu time spent up to now is     3633.8 secs

     total energy              =  -14921.58043223 Ry
     Harris-Foulkes estimate   =  -14921.58042964 Ry
     estimated scf accuracy    <       0.00004692 Ry

     iteration # 33     ecut=    60.00 Ry     beta= 0.50
     Davidson diagonalization with overlap
     ethr =  1.93E-09,  avg # of iterations =  1.0

     negative rho (up, down):  6.288E-01 0.000E+00

     total cpu time spent up to now is     3726.1 secs

     total energy              =  -14921.58043367 Ry
     Harris-Foulkes estimate   =  -14921.58043273 Ry
     estimated scf accuracy    <       0.00001738 Ry

     iteration # 34     ecut=    60.00 Ry     beta= 0.50
     Davidson diagonalization with overlap
     ethr =  9.50E-10,  avg # of iterations =  1.0

     negative rho (up, down):  6.288E-01 0.000E+00

     total cpu time spent up to now is     3818.3 secs

     total energy              =  -14921.58043342 Ry
     Harris-Foulkes estimate   =  -14921.58043400 Ry
     estimated scf accuracy    <       0.00001265 Ry

     iteration # 35     ecut=    60.00 Ry     beta= 0.50
     Davidson diagonalization with overlap
     ethr =  6.91E-10,  avg # of iterations =  1.0

     negative rho (up, down):  6.292E-01 0.000E+00

     total cpu time spent up to now is     3910.2 secs

     total energy              =  -14921.58043199 Ry
     Harris-Foulkes estimate   =  -14921.58043365 Ry
     estimated scf accuracy    <       0.00001120 Ry

     iteration # 36     ecut=    60.00 Ry     beta= 0.50
     Davidson diagonalization with overlap
     ethr =  6.12E-10,  avg # of iterations =  1.2

     negative rho (up, down):  6.295E-01 0.000E+00

     total cpu time spent up to now is     4002.3 secs

     total energy              =  -14921.58043108 Ry
     Harris-Foulkes estimate   =  -14921.58043224 Ry
     estimated scf accuracy    <       0.00000636 Ry

     iteration # 37     ecut=    60.00 Ry     beta= 0.50
     Davidson diagonalization with overlap
     ethr =  3.48E-10,  avg # of iterations =  1.0

     negative rho (up, down):  6.297E-01 0.000E+00

     total cpu time spent up to now is     4095.7 secs

     total energy              =  -14921.58043072 Ry
     Harris-Foulkes estimate   =  -14921.58043124 Ry
     estimated scf accuracy    <       0.00000347 Ry

     iteration # 38     ecut=    60.00 Ry     beta= 0.50
     Davidson diagonalization with overlap
     ethr =  1.90E-10,  avg # of iterations =  1.0

     negative rho (up, down):  6.297E-01 0.000E+00

     total cpu time spent up to now is     4189.8 secs

     total energy              =  -14921.58043051 Ry
     Harris-Foulkes estimate   =  -14921.58043081 Ry
     estimated scf accuracy    <       0.00000263 Ry

     iteration # 39     ecut=    60.00 Ry     beta= 0.50
     Davidson diagonalization with overlap
     ethr =  1.43E-10,  avg # of iterations =  1.8

     negative rho (up, down):  6.301E-01 0.000E+00

     total cpu time spent up to now is     4285.8 secs

     total energy              =  -14921.58042972 Ry
     Harris-Foulkes estimate   =  -14921.58043065 Ry
     estimated scf accuracy    <       0.00000229 Ry

     iteration # 40     ecut=    60.00 Ry     beta= 0.50
     Davidson diagonalization with overlap
     ethr =  1.25E-10,  avg # of iterations =  1.5

     negative rho (up, down):  6.304E-01 0.000E+00

     total cpu time spent up to now is     4380.0 secs

     total energy              =  -14921.58042909 Ry
     Harris-Foulkes estimate   =  -14921.58042980 Ry
     estimated scf accuracy    <       0.00000088 Ry

     iteration # 41     ecut=    60.00 Ry     beta= 0.50
     Davidson diagonalization with overlap
     ethr =  4.78E-11,  avg # of iterations =  2.0

     negative rho (up, down):  6.306E-01 0.000E+00

     total cpu time spent up to now is     4476.3 secs

     total energy              =  -14921.58042878 Ry
     Harris-Foulkes estimate   =  -14921.58042914 Ry
     estimated scf accuracy    <       0.00000045 Ry

     iteration # 42     ecut=    60.00 Ry     beta= 0.50
     Davidson diagonalization with overlap
     ethr =  2.44E-11,  avg # of iterations =  1.5

     negative rho (up, down):  6.306E-01 0.000E+00

     total cpu time spent up to now is     4569.6 secs

     total energy              =  -14921.58042869 Ry
     Harris-Foulkes estimate   =  -14921.58042881 Ry
     estimated scf accuracy    <       0.00000032 Ry

     iteration # 43     ecut=    60.00 Ry     beta= 0.50
     Davidson diagonalization with overlap
     ethr =  1.77E-11,  avg # of iterations =  2.0

     negative rho (up, down):  6.306E-01 0.000E+00

     total cpu time spent up to now is     4665.9 secs

     total energy              =  -14921.58042866 Ry
     Harris-Foulkes estimate   =  -14921.58042870 Ry
     estimated scf accuracy    <       0.00000020 Ry

     iteration # 44     ecut=    60.00 Ry     beta= 0.50
     Davidson diagonalization with overlap
     ethr =  1.10E-11,  avg # of iterations =  1.0

     negative rho (up, down):  6.307E-01 0.000E+00

     total cpu time spent up to now is     4758.8 secs

     total energy              =  -14921.58042863 Ry
     Harris-Foulkes estimate   =  -14921.58042867 Ry
     estimated scf accuracy    <       0.00000009 Ry

     iteration # 45     ecut=    60.00 Ry     beta= 0.50
     Davidson diagonalization with overlap
     ethr =  4.76E-12,  avg # of iterations =  2.0

     negative rho (up, down):  6.307E-01 0.000E+00

     total cpu time spent up to now is     4855.9 secs

     total energy              =  -14921.58042863 Ry
     Harris-Foulkes estimate   =  -14921.58042864 Ry
     estimated scf accuracy    <       0.00000004 Ry

     iteration # 46     ecut=    60.00 Ry     beta= 0.50
     Davidson diagonalization with overlap
     ethr =  2.29E-12,  avg # of iterations =  1.0

     negative rho (up, down):  6.307E-01 0.000E+00

     total cpu time spent up to now is     4948.3 secs

     total energy              =  -14921.58042862 Ry
     Harris-Foulkes estimate   =  -14921.58042863 Ry
     estimated scf accuracy    <       0.00000002 Ry

     iteration # 47     ecut=    60.00 Ry     beta= 0.50
     Davidson diagonalization with overlap
     ethr =  1.23E-12,  avg # of iterations =  2.0

     negative rho (up, down):  6.307E-01 0.000E+00

     total cpu time spent up to now is     5047.0 secs

     total energy              =  -14921.58042864 Ry
     Harris-Foulkes estimate   =  -14921.58042862 Ry
     estimated scf accuracy    <       0.00000001 Ry

     iteration # 48     ecut=    60.00 Ry     beta= 0.50
     Davidson diagonalization with overlap
     ethr =  6.99E-13,  avg # of iterations =  1.0

     negative rho (up, down):  6.306E-01 0.000E+00

     total cpu time spent up to now is     5137.3 secs

     End of self-consistent calculation

          k = 0.0000 0.0000 0.0000 (289747 PWs)   bands (ev):

   -41.1791 -41.1758 -41.1732 -41.1689 -41.1667 -41.1395 -41.1378 -38.8122
   -38.1968 -38.1694 -38.1665 -38.1615 -38.1606 -38.1486 -38.1433 -35.7339
   -23.1227 -23.0281 -23.0137 -22.9842 -22.9575 -22.8492 -22.8457 -22.8286
   -22.7349 -22.7252 -22.7201 -22.7161 -22.7005 -22.6995 -22.6825 -22.6739
   -22.5966 -22.5885 -22.5721 -22.5586 -22.5274 -22.4728 -22.4085 -22.3924
   -22.3536 -22.3473 -22.3405 -22.3273 -22.3241 -22.3073 -22.3022 -22.2200
   -21.3416 -21.3139 -21.3119 -21.3079 -21.2954 -21.2729 -21.2446 -21.2392
   -21.2371 -21.2257 -21.1894 -21.1840 -21.1628 -21.1435 -21.1391 -21.1325
   -21.1252 -21.0936 -21.0915 -21.0350 -21.0286 -19.8758 -19.8612 -19.8452
   -18.7791 -18.7408 -18.6957 -18.6926 -18.6630 -18.5087 -18.4959 -18.4945
   -18.4881 -18.4810 -18.4793 -18.4771 -18.4686 -18.4677 -18.4591 -18.4501
   -18.2952 -18.2909 -18.2696 -18.1716 -18.1636 -16.9931 -16.9644 -16.9566
   -16.2461 -15.9439 -15.9134 -15.9026 -15.8415 -15.7648 -15.6973 -15.6377
   -15.5359 -15.5287 -15.5260 -15.4935 -15.4508 -15.3915 -15.3412 -15.3288
   -15.1892 -14.9719 -14.8856 -14.8851 -14.8513 -14.8409 -14.8329 -14.8272
   -14.7547 -14.7360 -14.7019 -14.6895 -14.6702 -14.6373 -14.6366 -14.6296
   -14.5962 -14.5942 -14.5932 -14.5871 -14.5863 -14.5605 -14.5599 -14.5491
   -14.5225 -14.5192 -14.4835 -14.4813 -14.4801 -14.4778 -14.4548 -14.4536
   -14.4487 -14.4378 -14.4353 -14.3743 -14.3521 -14.3459 -14.3259 -14.3192
   -14.2978 -14.2890 -14.2864 -14.2862 -14.2856 -14.2531 -14.1896 -14.1892
   -14.1783 -14.1769 -14.1522 -14.1500 -14.1393 -14.0937 -14.0834 -14.0777
   -14.0427 -14.0264 -14.0154 -14.0058 -14.0043 -13.9934 -13.9880 -13.9813
   -13.9354 -13.9265 -13.9239 -13.9188 -13.9081 -13.9052 -13.8748 -13.8666
   -13.8335 -13.8326 -13.8311 -13.8300 -13.7981 -13.7740 -13.7637 -13.7611
   -13.7546 -13.7535 -13.7520 -13.7511 -13.7499 -13.7433 -13.7402 -13.7322
   -13.7082 -13.7061 -13.7047 -13.6953 -13.6473 -13.6466 -13.6387 -13.6245
   -13.5293 -13.5072 -13.4671 -13.3739 -13.3456 -13.3349 -13.3343 -13.1545
    -8.9771  -8.8045  -8.7158  -8.5524  -8.5513  -8.5174  -8.5022  -8.4947
    -8.4786  -8.4737  -8.4617  -8.4549  -8.4130  -8.3914  -8.3803  -8.2974
    -8.2945  -8.2908  -8.2786  -8.2722  -8.2671  -8.2021  -8.1815  -8.1488
    -8.1434  -8.0857  -8.0602  -8.0540  -8.0473  -8.0470  -8.0411  -8.0332
    -8.0260  -8.0189  -8.0170  -8.0126  -8.0099  -8.0066  -7.9940  -7.9594
    -7.9501  -7.9490  -7.9475  -7.9466  -7.9454  -7.9438  -7.9320  -7.9225
    -7.9203  -7.9188  -7.8563  -7.8467  -7.8462  -7.8437  -7.8112  -7.8029
    -7.7870  -7.7404  -7.7350  -7.7337  -7.6898  -7.6889  -7.6677  -7.6623
    -7.6604  -7.6575  -7.6536  -7.6180  -7.6061  -7.6042  -7.5829  -7.5818
    -7.5795  -7.5618  -7.5611  -7.5537  -7.5514  -7.5509  -7.5348  -7.5159
    -7.5033  -7.4850  -7.4688  -7.4544  -7.4499  -7.4074  -7.3937  -7.3456
    -7.3430  -7.3241  -7.3203  -7.3192  -7.3178  -7.2585  -7.1956  -7.1846
    -4.8397  -4.2746  -3.8113  -3.8108  -3.8046  -3.7555  -3.7374  -3.7263
    -3.5909  -3.2978  -3.2509  -3.1828  -3.1385  -3.1306  -3.1303  -3.1299
    -3.0899  -3.0650  -3.0485  -3.0106  -3.0036  -2.9777  -2.9410  -2.9262
    -2.8779  -2.8682  -2.8666  -2.8654  -2.8429  -2.8117  -2.7956  -2.7816
    -2.7646  -2.7540  -2.7482  -2.7448  -2.6266  -2.5799  -2.5462  -2.5169
    -2.4363  -2.4309  -2.3981  -2.3913  -2.3725  -2.3664  -2.3498  -2.3433
    -2.3385  -2.3348  -2.3108  -2.2875  -2.2691  -2.2609  -2.2546  -2.2400
    -2.2347  -2.2333  -2.2289  -2.2127  -2.1835  -2.1769  -2.1662  -2.1621
    -2.1610  -2.1593  -2.1580  -2.1513  -2.1206  -2.1062  -2.0954  -2.0923
    -2.0897  -2.0866  -2.0824  -2.0773  -2.0745  -2.0717  -2.0689  -2.0651
    -2.0610  -2.0378  -2.0286  -2.0233  -2.0176  -2.0011  -1.9893  -1.9869
    -1.9841  -1.9783  -1.9766  -1.9619  -1.9493  -1.9136  -1.9125  -1.9109
    -1.9002  -1.8981  -1.8952  -1.8790  -1.8786  -1.8779  -1.8754  -1.8717
    -1.8591  -1.8566  -1.8202  -1.8062  -1.7957  -1.7939  -1.7840  -1.7826
    -1.7300  -1.7266  -1.7254  -1.6709  -1.6535  -1.6333  -1.6277  -1.6150
    -1.6092  -1.6079  -1.6040  -1.5973  -1.5860  -1.5769  -1.5657  -1.5297
    -1.5168  -1.5068  -1.4988  -1.4849  -1.4834  -1.4704  -1.4573  -1.4541
    -1.4522  -1.4418  -1.4314  -1.4121  -1.4006  -1.3998  -1.3976  -1.3669
    -1.3487  -1.2971  -1.2874  -1.2642  -1.2515  -1.2488  -1.2283  -1.2147
    -1.1998  -1.1797  -1.1648  -1.1501  -1.1198  -1.1187  -1.1184  -1.0963
    -1.0939  -1.0379  -1.0366  -0.9679  -0.9622  -0.9609  -0.9600  -0.9595
    -0.9560  -0.9528  -0.9489  -0.9471  -0.9419  -0.9359  -0.9266  -0.9232
    -0.9005  -0.8979  -0.8885  -0.8820  -0.8741  -0.8708  -0.8537  -0.8499
    -0.8333  -0.8286  -0.8248  -0.8204  -0.8105  -0.8031  -0.7924  -0.7873
    -0.7838  -0.7750  -0.7515  -0.7313  -0.7289  -0.7151  -0.7144  -0.7102
    -0.7102  -0.7082  -0.7063  -0.6809  -0.6786  -0.6704  -0.6693  -0.6501
    -0.6441  -0.6416  -0.6232  -0.6190  -0.6106  -0.5968  -0.5885  -0.5794
    -0.5768  -0.5762  -0.5724  -0.5587  -0.5493  -0.5348  -0.5210  -0.5199
    -0.5199  -0.5143  -0.5127  -0.4663  -0.4569  -0.4506  -0.4448  -0.4437
    -0.4376  -0.4345  -0.4206  -0.4106  -0.4052  -0.3977  -0.3896  -0.3808
    -0.3667  -0.3642  -0.3628  -0.3556  -0.3353  -0.3247  -0.3222  -0.2905
    -0.2901  -0.2860  -0.2818  -0.2729  -0.2492  -0.2420  -0.2412  -0.2348
    -0.2222  -0.2147  -0.2079  -0.2040  -0.2018  -0.1875  -0.1873  -0.1842
    -0.1687  -0.1555  -0.1442  -0.1417  -0.1316  -0.1257  -0.1139  -0.1107
    -0.1106  -0.1083  -0.1044  -0.0842  -0.0766  -0.0620  -0.0611  -0.0599
    -0.0540  -0.0280   0.0059   0.0281   0.0372   0.0512   0.0561   0.0563
     0.0713   0.0777   0.1001   0.1009   0.1032   0.1042   0.1046   0.1413
     0.1432   0.1441   0.1539   0.1640   0.1796   0.1992   0.2340   0.2628
     0.2634   0.2662   0.2973   0.3074   0.3115   0.3150   0.3157   0.3242
     0.3290   0.3412   0.3569   0.3705   0.3739   0.3837   0.4105   0.4124
     0.4128   0.4166   0.4206   0.4270   0.4317   0.4365   0.4494   0.4497
     0.4539   0.4573   0.4644   0.4693   0.4724   0.4822   0.4873   0.4922
     0.5102   0.5254   0.5322   0.5439   0.5485   0.5634   0.5649   0.5666
     0.5782   0.5787   0.5793   0.5822   0.5857   0.5862   0.5864   0.5868
     0.5902   0.6033   0.6053   0.6083   0.6287   0.6411   0.6448   0.6559
     0.6606   0.6661   0.6682   0.6788   0.6909   0.6998   0.7045   0.7051
     0.7141   0.7143   0.7284   0.7440   0.7503   0.7559   0.7595   0.7662
     0.7873   0.7920   0.7941   0.8109   0.8180   0.8193   0.8236   0.8299
     0.8532   0.8626   0.8693   0.8818   0.8897   0.9395   0.9521   0.9739
     0.9845   0.9887   0.9953   1.0175   1.0337   1.0392   1.0483   1.0703
     1.0770   1.1096   1.1140   1.1141   1.1254   1.1282   1.1404   1.1517
     1.1658   1.1767   1.1793   1.1844   1.1904   1.1962   1.1989   1.2145
     1.2213   1.2249   1.2273   1.2340   1.2374   1.2534   1.2538   1.2554
     1.2579   1.2601   1.2632   1.2705   1.2807   1.2816   1.2820   1.2847
     1.2861   1.2878   1.2934   1.3036   1.3308   1.3368   1.3541   1.3648
     1.3722   1.3756   1.3761   1.3821   1.3842   1.3881   1.3911   1.3918
     1.3922   1.3922   1.3950   1.4014   1.4068   1.4144   1.4194   1.4239
     1.4271   1.4279   1.4292   1.4460   1.4473   1.4679   1.4692   1.4734
     1.4856   1.4978   1.5134   1.5134   1.5142   1.5233   1.5248   1.5372
     1.5510   1.5512   1.5532   1.5736   1.5785   1.5889   1.5916   1.6346
     1.6514   1.6533   1.6632   1.6657   1.6798   1.6810   1.6853   1.6855
     1.6975   1.7063   1.7092   1.7297   1.7378   1.7391   1.7503   1.7508
     1.7528   1.7547   1.7700   1.7795   1.7952   1.7955   1.7969   1.8016
     1.8071   1.8076   1.8260   1.8306   1.8330   1.8525   1.8564   1.8600
     1.8681   1.8694   1.8702   1.8734   1.8741   1.8901   1.8996   1.9155
     1.9397   1.9423   1.9466   1.9471   1.9485   1.9492   1.9527   1.9576
     1.9630   1.9671   1.9772   1.9788   1.9858   2.0013   2.0022   2.0136
     2.0243   2.0412   2.0428   2.0431   2.0455   2.0497   2.0549   2.0551
     2.0560   2.0602   2.0630   2.0737   2.0788   2.0828   2.1041   2.1412
     2.1578   2.1580   2.1615   2.1879   2.1897   2.1929   2.1939   2.2077
     2.2094   2.2145   2.2314   2.2647   2.2843   2.3002   2.3114   2.3186
     2.3226   2.3310   2.3377   2.3623   2.3674   2.3749   2.4104   2.4155
     2.4184   2.4232   2.4324   2.4384   2.4387   2.4535   2.4718   2.4732
     2.4794   2.4948   2.4991   2.5082   2.5450   2.5591   2.5642   2.5671
     2.5955   2.6244   2.6280   2.6356   2.6414   2.6893   2.7291   2.7928
     2.8685   2.8852   2.8895   2.8983   2.9087   2.9161   2.9480   2.9796
     2.9891   3.0009   3.0204   3.0304   3.0447   3.1406   3.1478   3.1522
     3.1547   3.1818   3.2506   3.2549   3.2617   3.2869   3.2893   3.2976
     3.2976   3.2995   3.3042   3.3045   3.3046   3.4498   3.4827   3.4857
     3.4947   3.4949   3.5247   3.6119   3.7366   3.7406   3.7574   3.8084
     3.8091   3.8139   4.1841   4.2188   4.2322   4.2544   4.3444   4.3487
     4.3509   4.4758   4.7049   4.7228   4.7431   4.7634   4.7802   4.7871
     4.8118   4.8250   4.8648   4.8682   4.9374   4.9678   4.9960   5.0435
     5.0843   5.1190   5.1308   5.1585   5.1941   5.3497   5.3546   5.3700
     5.5011   5.6298   5.7523   5.9440   5.9608   6.0280   6.2170   6.2606
     6.4364   6.4787   6.4855   6.5146   6.5579   6.5918   6.5986   6.6090
     6.6092   6.6098   6.6109   6.6235   6.6441   6.6861   6.6934   6.6996
     6.7083   6.7389   6.7411   6.7449   6.7449   6.7479   6.7487   6.7925
     6.8709   6.9477   7.0239   7.0498   7.0530   7.0607   7.0872   7.1215
     7.1538   7.1726   7.2495   7.2602   7.3366   7.4142   7.4216   7.4243
     7.4806   7.5005   7.5502   7.5517   7.5686   7.6525   7.6835   7.7481
     7.7532   7.8425   7.8529   7.9402   7.9403   8.0138   8.0408   8.0722
     8.1472   8.1641   8.2211   8.2526   8.2554   8.2588   8.2837   8.2909
     8.3385   8.3857   8.4092   8.4335   8.4426   8.4540   8.4566   8.4575
     8.4636   8.4793   8.5034   8.5699   8.5853   8.5939   8.5948   8.5974
     8.6304   8.6954   8.7267   8.7274   8.7289   8.7310   8.7404   8.7442
     8.7562   8.7688   8.8106   8.8223   8.8269   8.8564   8.8708   8.8741
     8.8885   8.9089   8.9382   8.9471   8.9664   8.9831   9.0168   9.0300
     9.0377   9.0546

          k = 0.2326 0.2390 0.0000 (289781 PWs)   bands (ev):

   -41.1787 -41.1762 -41.1732 -41.1691 -41.1664 -41.1391 -41.1382 -38.8122
   -38.1968 -38.1688 -38.1673 -38.1615 -38.1608 -38.1470 -38.1445 -35.7339
   -23.1153 -23.0444 -23.0139 -22.9737 -22.9614 -22.8462 -22.8277 -22.8275
   -22.7793 -22.7267 -22.7245 -22.7206 -22.6955 -22.6867 -22.6623 -22.6512
   -22.6150 -22.6109 -22.5678 -22.5468 -22.5310 -22.4541 -22.4085 -22.4043
   -22.3880 -22.3488 -22.3433 -22.3209 -22.3117 -22.3043 -22.2754 -22.2344
   -21.3284 -21.3131 -21.3078 -21.3052 -21.2932 -21.2853 -21.2571 -21.2502
   -21.2357 -21.2229 -21.2051 -21.1885 -21.1645 -21.1515 -21.1443 -21.0989
   -21.0923 -21.0884 -21.0865 -21.0502 -21.0461 -19.8758 -19.8612 -19.8452
   -18.7445 -18.7093 -18.6932 -18.6684 -18.6613 -18.6411 -18.6082 -18.5770
   -18.4966 -18.4890 -18.4722 -18.4700 -18.4563 -18.3790 -18.3451 -18.3277
   -18.2935 -18.2901 -18.2820 -18.2173 -18.2110 -16.9933 -16.9662 -16.9581
   -16.2047 -16.0765 -15.8880 -15.8761 -15.8076 -15.7746 -15.7026 -15.5723
   -15.5592 -15.5032 -15.4794 -15.4651 -15.4255 -15.4178 -15.3676 -15.3175
   -15.1962 -15.1567 -14.9223 -14.8561 -14.8469 -14.8413 -14.8269 -14.7692
   -14.7444 -14.7217 -14.6920 -14.6865 -14.6749 -14.6656 -14.6538 -14.6356
   -14.6241 -14.6166 -14.5888 -14.5801 -14.5726 -14.5515 -14.5497 -14.5293
   -14.5251 -14.4829 -14.4792 -14.4604 -14.4554 -14.4397 -14.4340 -14.4330
   -14.4299 -14.4225 -14.4095 -14.3940 -14.3928 -14.3548 -14.3417 -14.3139
   -14.2903 -14.2857 -14.2772 -14.2754 -14.2730 -14.2298 -14.2190 -14.1992
   -14.1875 -14.1807 -14.1657 -14.1647 -14.1491 -14.1271 -14.1236 -14.0988
   -14.0808 -14.0578 -14.0466 -14.0134 -13.9961 -13.9868 -13.9543 -13.9483
   -13.9349 -13.9343 -13.9143 -13.9026 -13.8800 -13.8721 -13.8566 -13.8496
   -13.8401 -13.8255 -13.8199 -13.8144 -13.8024 -13.7962 -13.7934 -13.7896
   -13.7850 -13.7740 -13.7659 -13.7635 -13.7571 -13.7522 -13.7511 -13.7356
   -13.7138 -13.7049 -13.7028 -13.6763 -13.6559 -13.6520 -13.6371 -13.5694
   -13.5113 -13.4707 -13.4605 -13.4269 -13.3887 -13.3724 -13.2530 -13.1804
    -8.8737  -8.6973  -8.6810  -8.5972  -8.5495  -8.5011  -8.4988  -8.4847
    -8.4452  -8.4149  -8.3987  -8.3978  -8.3735  -8.3488  -8.3260  -8.2795
    -8.2726  -8.2543  -8.2329  -8.2144  -8.1895  -8.1722  -8.1548  -8.1374
    -8.1335  -8.1101  -8.0863  -8.0834  -8.0708  -8.0612  -8.0597  -8.0373
    -8.0339  -8.0321  -8.0175  -8.0121  -8.0025  -7.9912  -7.9868  -7.9846
    -7.9702  -7.9621  -7.9577  -7.9568  -7.9439  -7.9277  -7.9043  -7.8963
    -7.8832  -7.8692  -7.8446  -7.8372  -7.8264  -7.8091  -7.8026  -7.7880
    -7.7737  -7.7718  -7.7705  -7.7700  -7.7315  -7.7198  -7.7168  -7.6965
    -7.6831  -7.6774  -7.6616  -7.6470  -7.6458  -7.6333  -7.6220  -7.6216
    -7.6067  -7.6039  -7.5928  -7.5861  -7.5818  -7.5648  -7.5548  -7.5475
    -7.5328  -7.5285  -7.4995  -7.4976  -7.4630  -7.4289  -7.4280  -7.3858
    -7.3792  -7.3562  -7.3373  -7.3015  -7.2991  -7.2713  -7.2558  -7.2474
    -4.6867  -4.2795  -4.1140  -3.7979  -3.7785  -3.6992  -3.6798  -3.6158
    -3.5812  -3.3827  -3.2516  -3.2021  -3.1892  -3.1666  -3.1161  -3.0977
    -3.0624  -3.0388  -3.0312  -2.9695  -2.9620  -2.9547  -2.9120  -2.8835
    -2.8655  -2.8490  -2.8411  -2.8306  -2.8285  -2.8137  -2.8010  -2.7747
    -2.7654  -2.7638  -2.7595  -2.7336  -2.6882  -2.6126  -2.5939  -2.5826
    -2.5513  -2.5121  -2.5096  -2.5090  -2.4861  -2.4720  -2.4640  -2.4492
    -2.4181  -2.3882  -2.3849  -2.3718  -2.3254  -2.3209  -2.3154  -2.2932
    -2.2755  -2.2476  -2.2431  -2.2315  -2.1855  -2.1820  -2.1790  -2.1704
    -2.1525  -2.1278  -2.1204  -2.1102  -2.1082  -2.1041  -2.0984  -2.0936
    -2.0902  -2.0809  -2.0790  -2.0702  -2.0667  -2.0616  -2.0605  -2.0529
    -2.0388  -2.0356  -2.0293  -2.0175  -2.0159  -1.9819  -1.9741  -1.9709
    -1.9672  -1.9668  -1.9654  -1.9612  -1.9549  -1.9532  -1.9356  -1.9286
    -1.9280  -1.9230  -1.8821  -1.8799  -1.8779  -1.8701  -1.8659  -1.8321
    -1.8066  -1.7978  -1.7890  -1.7839  -1.7608  -1.7523  -1.7225  -1.7109
    -1.7072  -1.6671  -1.6423  -1.6414  -1.6400  -1.6191  -1.5951  -1.5874
    -1.5586  -1.5429  -1.5291  -1.5089  -1.4934  -1.4858  -1.4729  -1.4540
    -1.4483  -1.4341  -1.4150  -1.4032  -1.3924  -1.3813  -1.3799  -1.3735
    -1.3531  -1.3501  -1.3410  -1.3358  -1.3356  -1.3211  -1.3202  -1.3179
    -1.2993  -1.2986  -1.2751  -1.2548  -1.2379  -1.2269  -1.2055  -1.1910
    -1.1741  -1.1631  -1.1519  -1.1407  -1.1230  -1.1098  -1.1081  -1.0975
    -1.0321  -1.0304  -1.0220  -1.0031  -0.9757  -0.9730  -0.9717  -0.9653
    -0.9511  -0.9355  -0.9316  -0.9147  -0.9012  -0.8944  -0.8862  -0.8797
    -0.8776  -0.8770  -0.8682  -0.8619  -0.8604  -0.8523  -0.8448  -0.8385
    -0.8324  -0.8307  -0.8283  -0.8196  -0.8140  -0.8137  -0.8019  -0.7996
    -0.7914  -0.7911  -0.7895  -0.7799  -0.7764  -0.7716  -0.7659  -0.7579
    -0.7415  -0.7316  -0.7244  -0.7100  -0.7044  -0.6983  -0.6857  -0.6806
    -0.6655  -0.6643  -0.6617  -0.6402  -0.6221  -0.6113  -0.6103  -0.6032
    -0.5994  -0.5971  -0.5902  -0.5882  -0.5744  -0.5621  -0.5619  -0.5480
    -0.5458  -0.5446  -0.5312  -0.5212  -0.5128  -0.5005  -0.4942  -0.4846
    -0.4778  -0.4742  -0.4719  -0.4606  -0.4456  -0.4345  -0.4229  -0.4188
    -0.4178  -0.4032  -0.4001  -0.3997  -0.3886  -0.3578  -0.3567  -0.3565
    -0.3427  -0.3383  -0.3176  -0.3064  -0.2918  -0.2759  -0.2578  -0.2520
    -0.2157  -0.2147  -0.1971  -0.1889  -0.1716  -0.1514  -0.1362  -0.1208
    -0.1199  -0.1163  -0.1048  -0.0917  -0.0671  -0.0636  -0.0534  -0.0477
    -0.0374  -0.0367  -0.0338  -0.0237  -0.0176   0.0020   0.0027   0.0094
     0.0157   0.0268   0.0290   0.0468   0.0488   0.0626   0.0710   0.0846
     0.0928   0.1014   0.1129   0.1353   0.1477   0.1582   0.1680   0.1686
     0.1806   0.2137   0.2142   0.2263   0.2336   0.2443   0.2454   0.2488
     0.2698   0.2774   0.2912   0.2964   0.3046   0.3077   0.3082   0.3151
     0.3159   0.3175   0.3396   0.3498   0.3581   0.3613   0.3663   0.3676
     0.3758   0.3778   0.3890   0.3961   0.3988   0.4083   0.4255   0.4325
     0.4357   0.4377   0.4473   0.4518   0.4537   0.4630   0.4660   0.4713
     0.4760   0.4827   0.4890   0.4983   0.5076   0.5118   0.5142   0.5338
     0.5359   0.5372   0.5432   0.5482   0.5495   0.5559   0.5660   0.5778
     0.5861   0.5927   0.5950   0.6118   0.6183   0.6201   0.6292   0.6461
     0.6509   0.6712   0.6771   0.6780   0.6931   0.6938   0.7012   0.7251
     0.7318   0.7354   0.7422   0.7466   0.7744   0.7774   0.7998   0.8169
     0.8249   0.8423   0.8508   0.8649   0.8658   0.8785   0.8903   0.8945
     0.9025   0.9149   0.9274   0.9316   0.9505   0.9610   0.9647   0.9658
     0.9782   0.9834   0.9902   0.9911   0.9976   1.0116   1.0196   1.0276
     1.0379   1.0407   1.0423   1.0460   1.0662   1.0796   1.0905   1.0976
     1.1143   1.1205   1.1261   1.1304   1.1344   1.1465   1.1501   1.1665
     1.1713   1.1905   1.2065   1.2090   1.2163   1.2246   1.2288   1.2335
     1.2512   1.2519   1.2541   1.2571   1.2631   1.2707   1.2766   1.2861
     1.2977   1.3011   1.3029   1.3061   1.3138   1.3238   1.3311   1.3413
     1.3472   1.3603   1.3610   1.3653   1.3744   1.3748   1.3822   1.3915
     1.3920   1.4005   1.4099   1.4111   1.4164   1.4237   1.4313   1.4350
     1.4432   1.4574   1.4588   1.4748   1.4873   1.5153   1.5206   1.5235
     1.5360   1.5453   1.5515   1.5613   1.5650   1.5767   1.5787   1.5833
     1.5886   1.5914   1.6029   1.6064   1.6120   1.6189   1.6260   1.6366
     1.6403   1.6423   1.6443   1.6500   1.6596   1.6646   1.6672   1.6769
     1.6831   1.6869   1.6903   1.7022   1.7095   1.7131   1.7168   1.7325
     1.7368   1.7384   1.7462   1.7481   1.7495   1.7605   1.7767   1.7796
     1.7873   1.7911   1.7946   1.8026   1.8088   1.8122   1.8166   1.8212
     1.8285   1.8313   1.8457   1.8472   1.8662   1.8676   1.8733   1.8744
     1.8765   1.8958   1.8969   1.9044   1.9137   1.9156   1.9208   1.9226
     1.9256   1.9540   1.9558   1.9738   1.9799   1.9911   2.0022   2.0206
     2.0231   2.0375   2.0432   2.0440   2.0602   2.0649   2.0697   2.0868
     2.1028   2.1290   2.1317   2.1369   2.1457   2.1536   2.1559   2.1744
     2.1830   2.1904   2.2052   2.2099   2.2142   2.2304   2.2351   2.2417
     2.2514   2.2568   2.2626   2.2757   2.2833   2.2834   2.2905   2.2960
     2.3252   2.3318   2.3427   2.3582   2.3620   2.3701   2.3850   2.3976
     2.4008   2.4015   2.4397   2.4496   2.4617   2.4698   2.4777   2.5008
     2.5202   2.5242   2.5491   2.5817   2.5989   2.6001   2.6347   2.6435
     2.6555   2.6718   2.6967   2.7037   2.7193   2.7319   2.7591   2.7606
     2.8077   2.8190   2.8393   2.8473   2.8661   2.8898   2.9282   2.9896
     2.9965   3.0042   3.0183   3.0295   3.0496   3.0830   3.0926   3.1024
     3.1217   3.1294   3.1350   3.1574   3.1637   3.1696   3.1843   3.2071
     3.2321   3.2407   3.2444   3.2562   3.2723   3.2784   3.2822   3.3147
     3.3372   3.4543   3.5295   3.5689   3.6102   3.9267   3.9501   3.9950
     4.0289   4.0768   4.1412   4.2515   4.2659   4.3051   4.3783   4.4022
     4.4696   4.4880   4.5096   4.5329   4.5715   4.5858   4.5984   4.7060
     4.7551   4.8248   4.9107   4.9289   4.9478   4.9985   5.0125   5.0685
     5.1140   5.1157   5.1725   5.2350   5.3240   5.4426   5.4691   5.5210
     5.5850   5.7707   5.9473   5.9869   6.0378   6.0488   6.0908   6.1440
     6.1803   6.1859   6.2197   6.4027   6.4717   6.4914   6.5076   6.5213
     6.5348   6.5582   6.6267   6.6407   6.6485   6.6736   6.6749   6.6909
     6.7147   6.7686   6.7857   6.7935   6.8196   6.8565   6.8780   6.9040
     6.9150   6.9593   6.9999   7.0571   7.0794   7.1020   7.1551   7.1724
     7.1812   7.1855   7.2142   7.2743   7.3102   7.3350   7.4330   7.4773
     7.5261   7.5472   7.6086   7.6419   7.6669   7.6886   7.7053   7.7125
     7.7345   7.7638   7.8105   7.8348   7.8816   7.8961   7.9146   7.9388
     7.9612   7.9847   7.9948   8.0654   8.1386   8.1656   8.1959   8.2162
     8.2905   8.3293   8.3483   8.3748   8.4069   8.4230   8.4363   8.4778
     8.5164   8.5918   8.5962   8.6102   8.6225   8.6377   8.6514   8.6777
     8.7078   8.7120   8.7230   8.7283   8.7426   8.7622   8.7693   8.8115
     8.8225   8.8291   8.8344   8.8480   8.8550   8.8729   8.8843   8.8971
     8.9169   8.9224   8.9269   8.9398   8.9780   8.9953   9.0036   9.0060
     9.0276   9.0748

          k = 0.0000 0.4779 0.0000 (289679 PWs)   bands (ev):

   -41.1784 -41.1765 -41.1732 -41.1694 -41.1661 -41.1388 -41.1385 -38.8122
   -38.1967 -38.1690 -38.1671 -38.1625 -38.1599 -38.1461 -38.1453 -35.7339
   -23.1094 -23.0518 -23.0046 -22.9957 -22.9483 -22.8451 -22.8272 -22.8082
   -22.7784 -22.7678 -22.7316 -22.7272 -22.6819 -22.6544 -22.6527 -22.6479
   -22.6259 -22.6212 -22.5774 -22.5519 -22.5214 -22.4344 -22.4060 -22.4000
   -22.3965 -22.3882 -22.3561 -22.3060 -22.3050 -22.2759 -22.2746 -22.2495
   -21.3250 -21.3179 -21.3080 -21.3045 -21.2990 -21.2854 -21.2555 -21.2549
   -21.2249 -21.2166 -21.2005 -21.1921 -21.1631 -21.1490 -21.1341 -21.1280
   -21.0957 -21.0925 -21.0860 -21.0471 -21.0353 -19.8758 -19.8612 -19.8452
   -18.7398 -18.7347 -18.6993 -18.6688 -18.6425 -18.6399 -18.5886 -18.5517
   -18.4951 -18.4884 -18.4792 -18.4729 -18.4543 -18.4025 -18.3578 -18.3402
   -18.3161 -18.2946 -18.2821 -18.2126 -18.1721 -16.9933 -16.9664 -16.9570
   -16.1644 -16.0662 -16.0276 -15.9078 -15.7358 -15.7033 -15.6675 -15.5876
   -15.5524 -15.5222 -15.5008 -15.4594 -15.4228 -15.3520 -15.3473 -15.3351
   -15.2050 -15.1363 -15.0816 -14.9654 -14.8829 -14.7816 -14.7640 -14.7552
   -14.7358 -14.7270 -14.7087 -14.7070 -14.6917 -14.6731 -14.6408 -14.6104
   -14.6049 -14.5842 -14.5368 -14.5317 -14.5248 -14.5246 -14.5170 -14.5093
   -14.5066 -14.4939 -14.4842 -14.4712 -14.4487 -14.4477 -14.4432 -14.4233
   -14.4222 -14.4219 -14.4209 -14.4065 -14.4028 -14.3871 -14.3597 -14.3364
   -14.2896 -14.2849 -14.2740 -14.2661 -14.2411 -14.2334 -14.2206 -14.2053
   -14.1748 -14.1710 -14.1694 -14.1619 -14.1440 -14.1370 -14.1351 -14.1276
   -14.1085 -14.0982 -14.0759 -14.0311 -14.0286 -14.0152 -13.9943 -13.9886
   -13.8997 -13.8836 -13.8832 -13.8758 -13.8737 -13.8680 -13.8538 -13.8482
   -13.8371 -13.8321 -13.8284 -13.8253 -13.8039 -13.8026 -13.7906 -13.7878
   -13.7832 -13.7777 -13.7719 -13.7500 -13.7495 -13.7440 -13.7437 -13.7252
   -13.7186 -13.6972 -13.6970 -13.6805 -13.6648 -13.6359 -13.6199 -13.6174
   -13.5189 -13.4778 -13.4761 -13.4736 -13.3787 -13.2968 -13.2676 -13.2078
    -8.7280  -8.5871  -8.5732  -8.5512  -8.5390  -8.4993  -8.4991  -8.4694
    -8.4380  -8.3972  -8.3874  -8.3873  -8.3141  -8.3025  -8.2851  -8.2835
    -8.2479  -8.2043  -8.1884  -8.1725  -8.1522  -8.1365  -8.1152  -8.1106
    -8.1092  -8.0932  -8.0831  -8.0719  -8.0547  -8.0534  -8.0534  -8.0517
    -8.0447  -8.0260  -8.0142  -8.0141  -8.0015  -7.9991  -7.9943  -7.9875
    -7.9802  -7.9743  -7.9699  -7.9612  -7.9544  -7.9534  -7.9409  -7.9123
    -7.9108  -7.8950  -7.8892  -7.8834  -7.8818  -7.8375  -7.8355  -7.7985
    -7.7947  -7.7827  -7.7713  -7.7550  -7.7378  -7.7180  -7.7142  -7.6772
    -7.6629  -7.6627  -7.6610  -7.6539  -7.6472  -7.6388  -7.6331  -7.6175
    -7.6116  -7.5973  -7.5927  -7.5901  -7.5879  -7.5653  -7.5552  -7.5521
    -7.5465  -7.5409  -7.5375  -7.5373  -7.5269  -7.5231  -7.5148  -7.5090
    -7.4908  -7.4285  -7.3877  -7.3507  -7.3086  -7.2700  -7.2497  -7.2441
    -4.5309  -4.2415  -4.1797  -3.9476  -3.8693  -3.6642  -3.6062  -3.5844
    -3.4344  -3.3881  -3.3498  -3.2889  -3.2373  -3.2206  -3.2007  -3.0746
    -3.0709  -3.0433  -3.0128  -2.9889  -2.9420  -2.9045  -2.8766  -2.8575
    -2.8392  -2.8094  -2.8031  -2.8010  -2.7985  -2.7980  -2.7875  -2.7581
    -2.7510  -2.7388  -2.7315  -2.7133  -2.6989  -2.6416  -2.6306  -2.6275
    -2.6225  -2.5681  -2.5273  -2.5237  -2.5176  -2.5040  -2.4855  -2.4847
    -2.4580  -2.4510  -2.4247  -2.4005  -2.3818  -2.3618  -2.3358  -2.3026
    -2.3003  -2.2978  -2.2865  -2.2844  -2.2727  -2.1805  -2.1786  -2.1562
    -2.1502  -2.0961  -2.0926  -2.0823  -2.0703  -2.0700  -2.0640  -2.0600
    -2.0583  -2.0562  -2.0537  -2.0520  -2.0421  -2.0402  -2.0356  -2.0293
    -2.0190  -2.0061  -1.9917  -1.9851  -1.9814  -1.9766  -1.9761  -1.9719
    -1.9696  -1.9673  -1.9641  -1.9629  -1.9582  -1.9335  -1.9250  -1.9204
    -1.9108  -1.9003  -1.8894  -1.8707  -1.8297  -1.8268  -1.8242  -1.8014
    -1.7843  -1.7715  -1.7620  -1.7590  -1.7343  -1.7268  -1.7012  -1.6944
    -1.6774  -1.6694  -1.6533  -1.6526  -1.6364  -1.6268  -1.6237  -1.6114
    -1.6095  -1.5950  -1.5932  -1.5859  -1.5537  -1.5464  -1.5275  -1.5100
    -1.4808  -1.4642  -1.4624  -1.4395  -1.4352  -1.4128  -1.3989  -1.3849
    -1.3822  -1.3673  -1.3605  -1.3583  -1.3470  -1.3442  -1.3437  -1.3305
    -1.3272  -1.3029  -1.2910  -1.2408  -1.2103  -1.1491  -1.1349  -1.1319
    -1.0917  -1.0833  -1.0715  -1.0630  -1.0419  -1.0243  -1.0225  -1.0200
    -1.0173  -1.0069  -0.9640  -0.9605  -0.9324  -0.9312  -0.9260  -0.9256
    -0.9084  -0.8977  -0.8863  -0.8803  -0.8771  -0.8697  -0.8658  -0.8648
    -0.8600  -0.8596  -0.8583  -0.8491  -0.8369  -0.8238  -0.8143  -0.8118
    -0.8050  -0.8033  -0.7977  -0.7963  -0.7921  -0.7907  -0.7770  -0.7727
    -0.7608  -0.7568  -0.7463  -0.7346  -0.7287  -0.7275  -0.7260  -0.7210
    -0.7192  -0.7179  -0.7103  -0.7074  -0.6987  -0.6881  -0.6873  -0.6787
    -0.6666  -0.6653  -0.6551  -0.6539  -0.6479  -0.6352  -0.6345  -0.6332
    -0.6317  -0.6237  -0.6152  -0.5805  -0.5680  -0.5630  -0.5475  -0.5397
    -0.5325  -0.5278  -0.5257  -0.5241  -0.5184  -0.5168  -0.5065  -0.4965
    -0.4854  -0.4594  -0.4501  -0.4392  -0.4361  -0.4219  -0.4100  -0.4077
    -0.4022  -0.4000  -0.3861  -0.3775  -0.3664  -0.3587  -0.3565  -0.3502
    -0.3483  -0.3405  -0.3273  -0.3262  -0.3169  -0.3132  -0.3042  -0.2974
    -0.2785  -0.2678  -0.2532  -0.2378  -0.2361  -0.2155  -0.2077  -0.2044
    -0.2025  -0.1717  -0.1293  -0.1064  -0.1046  -0.1031  -0.0936  -0.0818
    -0.0734  -0.0664  -0.0071   0.0128   0.0233   0.0283   0.0300   0.0442
     0.0479   0.0490   0.0517   0.0553   0.0880   0.0918   0.0934   0.0941
     0.0948   0.1013   0.1150   0.1298   0.1446   0.1759   0.1913   0.1985
     0.2095   0.2097   0.2140   0.2188   0.2356   0.2407   0.2458   0.2478
     0.2519   0.2557   0.2586   0.2710   0.2792   0.2820   0.2849   0.2961
     0.2986   0.3040   0.3162   0.3268   0.3400   0.3487   0.3599   0.3640
     0.3713   0.3738   0.3798   0.3953   0.3994   0.4045   0.4255   0.4355
     0.4369   0.4502   0.4602   0.4639   0.4691   0.4730   0.4776   0.4778
     0.4907   0.5006   0.5012   0.5128   0.5142   0.5277   0.5335   0.5368
     0.5458   0.5611   0.5709   0.5801   0.5814   0.5857   0.5918   0.5933
     0.6006   0.6018   0.6043   0.6199   0.6201   0.6215   0.6275   0.6299
     0.6436   0.6578   0.6602   0.6614   0.7010   0.7026   0.7195   0.7346
     0.7566   0.7588   0.7737   0.7926   0.7995   0.8075   0.8369   0.8469
     0.8473   0.8517   0.8535   0.8596   0.8639   0.8695   0.8779   0.9005
     0.9106   0.9247   0.9284   0.9412   0.9527   0.9798   0.9856   0.9928
     0.9948   0.9952   1.0083   1.0269   1.0354   1.0409   1.0514   1.0613
     1.0644   1.0674   1.0732   1.0860   1.0950   1.1064   1.1093   1.1179
     1.1225   1.1236   1.1340   1.1355   1.1505   1.1547   1.1621   1.1625
     1.1700   1.1772   1.1783   1.1817   1.1820   1.2153   1.2173   1.2225
     1.2322   1.2350   1.2396   1.2461   1.2484   1.2497   1.2520   1.2593
     1.2812   1.2863   1.2915   1.3037   1.3102   1.3159   1.3313   1.3386
     1.3479   1.3518   1.3557   1.3752   1.3869   1.4047   1.4061   1.4075
     1.4214   1.4233   1.4269   1.4273   1.4524   1.4597   1.4705   1.4728
     1.4740   1.4782   1.4810   1.4980   1.5117   1.5156   1.5204   1.5340
     1.5356   1.5376   1.5481   1.5544   1.5547   1.5549   1.5580   1.5656
     1.5670   1.5758   1.5816   1.5851   1.6003   1.6075   1.6084   1.6085
     1.6179   1.6213   1.6318   1.6355   1.6457   1.6469   1.6498   1.6579
     1.6747   1.6802   1.6930   1.6940   1.6976   1.6988   1.7044   1.7057
     1.7118   1.7131   1.7160   1.7207   1.7368   1.7383   1.7461   1.7535
     1.7565   1.7662   1.7781   1.7873   1.7938   1.8001   1.8018   1.8033
     1.8081   1.8144   1.8222   1.8380   1.8510   1.8553   1.8663   1.8740
     1.8835   1.8869   1.8981   1.8984   1.9026   1.9027   1.9127   1.9135
     1.9290   1.9308   1.9350   1.9447   1.9463   1.9493   1.9615   1.9695
     1.9712   1.9842   1.9857   1.9861   1.9965   1.9971   2.0029   2.0089
     2.0200   2.0207   2.0472   2.0624   2.0824   2.0855   2.0899   2.1176
     2.1232   2.1451   2.1479   2.1664   2.1748   2.1892   2.2013   2.2134
     2.2458   2.2504   2.2526   2.2543   2.2606   2.2653   2.2785   2.2858
     2.2933   2.3485   2.3498   2.3530   2.3638   2.3740   2.3804   2.3812
     2.4159   2.4268   2.4289   2.4397   2.4510   2.4771   2.4984   2.5011
     2.5552   2.5586   2.5660   2.5664   2.6064   2.6186   2.6312   2.6377
     2.6380   2.6865   2.7096   2.7143   2.7420   2.7625   2.7777   2.7831
     2.8126   2.8302   2.8443   2.8699   2.8864   2.9133   2.9139   2.9987
     3.0034   3.0036   3.0087   3.0119   3.0581   3.1157   3.1207   3.1334
     3.1440   3.1444   3.1596   3.1656   3.1690   3.1765   3.1806   3.1816
     3.1844   3.1996   3.2572   3.3034   3.3298   3.3686   3.3791   3.4244
     3.4267   3.6015   3.6169   3.6719   3.7815   3.7923   3.8549   4.0015
     4.0363   4.0961   4.1126   4.1515   4.1693   4.2544   4.2752   4.2981
     4.3466   4.3873   4.4445   4.4814   4.5735   4.6013   4.6507   4.6699
     4.7231   4.7756   4.7758   4.8460   4.8896   5.0044   5.0065   5.0691
     5.1631   5.1797   5.2027   5.2738   5.3510   5.4294   5.6099   5.8279
     5.9314   5.9504   5.9519   5.9556   6.0271   6.0619   6.0653   6.1700
     6.1768   6.1950   6.2474   6.3167   6.3258   6.3544   6.3598   6.4214
     6.5734   6.5742   6.6221   6.6383   6.6575   6.6850   6.6893   6.7134
     6.7263   6.7349   6.7597   6.7612   6.7679   6.8905   6.9326   6.9366
     6.9495   6.9579   7.0039   7.0147   7.0203   7.0710   7.0996   7.1086
     7.1238   7.1619   7.2483   7.3118   7.3336   7.3740   7.4281   7.4732
     7.4849   7.4984   7.5523   7.5862   7.6071   7.7408   7.7652   7.7919
     7.8343   7.8540   7.8633   7.8754   7.8781   7.8787   7.9089   7.9266
     7.9511   7.9609   7.9707   7.9707   8.0285   8.0336   8.0647   8.1156
     8.1845   8.1970   8.2065   8.2234   8.3657   8.3834   8.3906   8.3937
     8.4141   8.4713   8.5407   8.5474   8.5937   8.5939   8.6215   8.6658
     8.6690   8.6940   8.7001   8.7545   8.7634   8.7660   8.7894   8.8480
     8.8544   8.8616   8.8671   8.8799   8.9085   8.9164   8.9664   8.9692
     8.9850   8.9966   9.0392   9.0405   9.0523   9.0554   9.0583   9.0903
     9.1007   9.1183

          k =-0.4652-0.0000 0.0000 (289778 PWs)   bands (ev):

   -41.1785 -41.1765 -41.1732 -41.1693 -41.1662 -41.1390 -41.1383 -38.8122
   -38.1967 -38.1696 -38.1662 -38.1626 -38.1602 -38.1466 -38.1449 -35.7339
   -23.1103 -23.0465 -23.0201 -22.9809 -22.9503 -22.8530 -22.8207 -22.8143
   -22.7684 -22.7569 -22.7489 -22.7274 -22.6659 -22.6638 -22.6587 -22.6532
   -22.6215 -22.6193 -22.5788 -22.5455 -22.5245 -22.4403 -22.4135 -22.3909
   -22.3850 -22.3815 -22.3733 -22.3054 -22.2887 -22.2879 -22.2837 -22.2431
   -21.3397 -21.3168 -21.3061 -21.3034 -21.2925 -21.2684 -21.2628 -21.2520
   -21.2294 -21.2114 -21.2064 -21.1912 -21.1629 -21.1455 -21.1393 -21.1354
   -21.0968 -21.0912 -21.0844 -21.0511 -21.0287 -19.8758 -19.8612 -19.8452
   -18.7756 -18.7027 -18.6971 -18.6716 -18.6478 -18.6090 -18.5712 -18.5605
   -18.5060 -18.4987 -18.4785 -18.4767 -18.4698 -18.3958 -18.3704 -18.3348
   -18.3096 -18.2908 -18.2861 -18.2168 -18.1639 -16.9932 -16.9648 -16.9583
   -16.1667 -16.0654 -16.0185 -15.9192 -15.7423 -15.6943 -15.6572 -15.5761
   -15.5624 -15.5517 -15.4825 -15.4562 -15.4267 -15.3455 -15.3408 -15.3400
   -15.2052 -15.1529 -15.0829 -14.9579 -14.8452 -14.8156 -14.7972 -14.7823
   -14.7470 -14.7284 -14.6681 -14.6573 -14.6424 -14.6373 -14.6328 -14.6273
   -14.6006 -14.5980 -14.5777 -14.5581 -14.5404 -14.5290 -14.5277 -14.5249
   -14.5220 -14.5179 -14.4716 -14.4670 -14.4547 -14.4521 -14.4507 -14.4503
   -14.4260 -14.4243 -14.4234 -14.4078 -14.3753 -14.3681 -14.3394 -14.3043
   -14.2824 -14.2725 -14.2653 -14.2564 -14.2379 -14.2238 -14.2080 -14.1861
   -14.1774 -14.1716 -14.1716 -14.1676 -14.1515 -14.1375 -14.1245 -14.1160
   -14.1156 -14.1073 -14.0847 -14.0753 -14.0631 -14.0367 -13.9692 -13.9338
   -13.9251 -13.9235 -13.8959 -13.8895 -13.8788 -13.8737 -13.8575 -13.8568
   -13.8225 -13.8152 -13.8071 -13.8040 -13.7981 -13.7930 -13.7928 -13.7873
   -13.7780 -13.7779 -13.7710 -13.7644 -13.7586 -13.7344 -13.7235 -13.7215
   -13.7142 -13.7137 -13.7010 -13.6685 -13.6497 -13.6394 -13.6298 -13.5967
   -13.5754 -13.5095 -13.4590 -13.4510 -13.3645 -13.2943 -13.2766 -13.2065
    -8.7737  -8.5942  -8.5871  -8.5261  -8.5082  -8.4926  -8.4713  -8.4346
    -8.4218  -8.3875  -8.3592  -8.3505  -8.3141  -8.3085  -8.3049  -8.2867
    -8.2725  -8.2482  -8.2119  -8.2071  -8.1788  -8.1540  -8.1493  -8.1474
    -8.1087  -8.0920  -8.0681  -8.0563  -8.0550  -8.0457  -8.0429  -8.0186
    -8.0149  -8.0113  -8.0003  -7.9942  -7.9928  -7.9897  -7.9809  -7.9757
    -7.9678  -7.9664  -7.9632  -7.9607  -7.9544  -7.9495  -7.9481  -7.9388
    -7.9296  -7.9167  -7.9031  -7.8859  -7.8384  -7.8202  -7.8173  -7.8123
    -7.7934  -7.7849  -7.7837  -7.7786  -7.7465  -7.7437  -7.7275  -7.7148
    -7.6921  -7.6914  -7.6684  -7.6594  -7.6560  -7.6417  -7.6374  -7.6373
    -7.6304  -7.6283  -7.6189  -7.6147  -7.6028  -7.5873  -7.5832  -7.5527
    -7.5462  -7.5379  -7.5061  -7.5051  -7.5009  -7.4734  -7.4485  -7.4382
    -7.4217  -7.3930  -7.3748  -7.3527  -7.3219  -7.2908  -7.2841  -7.2637
    -4.5633  -4.1811  -4.1170  -3.9935  -3.9872  -3.5751  -3.5243  -3.4922
    -3.4875  -3.4467  -3.4371  -3.4174  -3.2559  -3.1673  -3.1553  -3.1265
    -3.1032  -3.0957  -3.0484  -2.9448  -2.9258  -2.9168  -2.9105  -2.8870
    -2.8607  -2.8478  -2.8423  -2.8314  -2.8126  -2.7848  -2.7788  -2.7725
    -2.7610  -2.7570  -2.7329  -2.6729  -2.6658  -2.6400  -2.6041  -2.5864
[...]
     atom   58 type  5   force =     0.00032586    0.00000000   -0.00064029
     atom   59 type  5   force =    -0.00032586    0.00000000   -0.00064029
     atom   60 type  5   force =     0.00000000    0.00000000   -0.00015482
     atom   61 type  5   force =     0.00000000    0.00000000   -0.00074445
     atom   62 type  5   force =     0.00000000    0.00000000   -0.00074445
     atom   63 type  5   force =     0.00000000    0.00006349   -0.00084180
     atom   64 type  5   force =     0.00000000   -0.00006349   -0.00084180
     atom   65 type  4   force =    -0.00030260    0.00008346    0.00091575
     atom   66 type  4   force =    -0.00030260   -0.00008346    0.00091575
     atom   67 type  4   force =     0.00030260    0.00008346    0.00091575
     atom   68 type  4   force =     0.00030260   -0.00008346    0.00091575
     atom   69 type  4   force =     0.00000000   -0.00023069    0.00051427
     atom   70 type  4   force =     0.00000000    0.00023069    0.00051427
     atom   71 type  4   force =    -0.00009870   -0.00002664    0.00108701
     atom   72 type  4   force =    -0.00009870    0.00002664    0.00108701
     atom   73 type  4   force =     0.00009870    0.00002664    0.00108701
     atom   74 type  4   force =     0.00009870   -0.00002664    0.00108701
     atom   75 type  4   force =     0.00018537    0.00000000    0.00095035
     atom   76 type  4   force =    -0.00018537    0.00000000    0.00095035
     atom   77 type  4   force =     0.00000000   -0.00041024    0.00161237
     atom   78 type  4   force =     0.00000000    0.00041024    0.00161237
     atom   79 type  4   force =     0.00020432    0.00000000    0.00068635
     atom   80 type  4   force =    -0.00020432    0.00000000    0.00068635
     atom   81 type  3   force =     0.00008863   -0.00006977   -0.00164988
     atom   82 type  3   force =     0.00008863    0.00006977   -0.00164988
     atom   83 type  3   force =    -0.00008863   -0.00006977   -0.00164988
     atom   84 type  3   force =    -0.00008863    0.00006977   -0.00164988
     atom   85 type  3   force =     0.00003281   -0.00004928   -0.00181646
     atom   86 type  3   force =    -0.00003281   -0.00004928   -0.00181646
     atom   87 type  3   force =    -0.00003281    0.00004928   -0.00181646
     atom   88 type  3   force =     0.00003281    0.00004928   -0.00181646
     atom   89 type  1   force =     0.00000000    0.00000000   -0.00160429
     atom   90 type  1   force =     0.00000000   -0.00021814   -0.00222988
     atom   91 type  1   force =     0.00000000    0.00021814   -0.00222988
     atom   92 type  1   force =    -0.00018361    0.00000000   -0.00138726
     atom   93 type  1   force =     0.00018361    0.00000000   -0.00138726
     atom   94 type  1   force =     0.00000000    0.00000000   -0.00212919
     atom   95 type  1   force =     0.00000000    0.00000000   -0.00212919
     atom   96 type  1   force =     0.00000000    0.00000000   -0.00151193
     atom   97 type  4   force =    -0.00022004   -0.00017713    0.00315315
     atom   98 type  4   force =    -0.00022004    0.00017713    0.00315315
     atom   99 type  4   force =     0.00022004   -0.00017713    0.00315315
     atom  100 type  4   force =     0.00022004    0.00017713    0.00315315
     atom  101 type  4   force =     0.00009298   -0.00036729    0.00318131
     atom  102 type  4   force =    -0.00009298   -0.00036729    0.00318131
     atom  103 type  4   force =    -0.00009298    0.00036729    0.00318131
     atom  104 type  4   force =     0.00009298    0.00036729    0.00318131
     atom  105 type  4   force =     0.00192461    0.00000000    0.00536803
     atom  106 type  4   force =    -0.00192461    0.00000000    0.00536803
     atom  107 type  3   force =    -0.00276690   -0.00102750   -0.01031800
     atom  108 type  3   force =    -0.00276690    0.00102750   -0.01031800
     atom  109 type  3   force =     0.00276690    0.00102750   -0.01031800
     atom  110 type  3   force =     0.00276690   -0.00102750   -0.01031800
     atom  111 type  3   force =    -0.00218971   -0.00024315   -0.01071755
     atom  112 type  3   force =     0.00218971    0.00024315   -0.01071755
     atom  113 type  3   force =    -0.00218971    0.00024315   -0.01071755
     atom  114 type  3   force =     0.00218971   -0.00024315   -0.01071755
     atom  115 type  4   force =     0.00056914   -0.00083761    0.00575900
     atom  116 type  4   force =    -0.00056914   -0.00083761    0.00575900
     atom  117 type  4   force =     0.00056914    0.00083761    0.00575900
     atom  118 type  4   force =    -0.00056914    0.00083761    0.00575900
     atom  119 type  4   force =    -0.00093266    0.00000000    0.00524843
     atom  120 type  4   force =     0.00093266    0.00000000    0.00524843
     atom  121 type  4   force =    -0.00193331   -0.00047191    0.01813584
     atom  122 type  4   force =     0.00193331   -0.00047191    0.01813584
     atom  123 type  4   force =     0.00193331    0.00047191    0.01813584
     atom  124 type  4   force =    -0.00193331    0.00047191    0.01813584
     atom  125 type  4   force =     0.00084581   -0.00067695    0.01893645
     atom  126 type  4   force =     0.00084581    0.00067695    0.01893645
     atom  127 type  4   force =    -0.00084581   -0.00067695    0.01893645
     atom  128 type  4   force =    -0.00084581    0.00067695    0.01893645
     atom  129 type  1   force =     0.00000000    0.00000000   -0.02447230
     atom  130 type  1   force =     0.00000000    0.00000000   -0.02329390
     atom  131 type  1   force =     0.00000000    0.00000000   -0.02329390
     atom  132 type  1   force =    -0.00092725    0.00000000   -0.02421286
     atom  133 type  1   force =     0.00092725    0.00000000   -0.02421286
     atom  134 type  1   force =     0.00000000   -0.00029838   -0.02234693
     atom  135 type  1   force =     0.00000000    0.00029838   -0.02234693
     atom  136 type  1   force =     0.00000000    0.00000000   -0.02139589
     atom  137 type  3   force =     0.00111661    0.00073632    0.00241732
     atom  138 type  3   force =     0.00111661   -0.00073632    0.00241732
     atom  139 type  3   force =    -0.00111661   -0.00073632    0.00241732
     atom  140 type  3   force =    -0.00111661    0.00073632    0.00241732
     atom  141 type  3   force =    -0.00020088    0.00016534    0.00558749
     atom  142 type  3   force =    -0.00020088   -0.00016534    0.00558749
     atom  143 type  3   force =     0.00020088    0.00016534    0.00558749
     atom  144 type  3   force =     0.00020088   -0.00016534    0.00558749
     atom  145 type  4   force =    -0.01617028    0.00000000    0.06273512
     atom  146 type  4   force =     0.01617028    0.00000000    0.06273512
     atom  147 type  4   force =     0.00000000   -0.01593525    0.06024474
     atom  148 type  4   force =     0.00000000    0.01593525    0.06024474
     atom  149 type  4   force =     0.00081660    0.00000000    0.06997476
     atom  150 type  4   force =    -0.00081660    0.00000000    0.06997476
     atom  151 type  4   force =    -0.00131383   -0.00015343    0.06727641
     atom  152 type  4   force =     0.00131383   -0.00015343    0.06727641
     atom  153 type  4   force =     0.00131383    0.00015343    0.06727641
     atom  154 type  4   force =    -0.00131383    0.00015343    0.06727641
     atom  155 type  4   force =     0.00000000    0.00147298    0.06569611
     atom  156 type  4   force =     0.00000000   -0.00147298    0.06569611
     atom  157 type  4   force =     0.00148493   -0.00202476    0.06393029
     atom  158 type  4   force =    -0.00148493    0.00202476    0.06393029
     atom  159 type  4   force =     0.00148493    0.00202476    0.06393029
     atom  160 type  4   force =    -0.00148493   -0.00202476    0.06393029
     atom  161 type  2   force =     0.00000000    0.00000000   -0.05954065
     atom  162 type  5   force =    -0.00078654    0.00000000   -0.11937115
     atom  163 type  5   force =     0.00078654    0.00000000   -0.11937115
     atom  164 type  5   force =     0.00000000    0.00000000   -0.11275059
     atom  165 type  5   force =     0.00000000    0.00000000   -0.11066202
     atom  166 type  5   force =     0.00000000    0.00000000   -0.11066202
     atom  167 type  5   force =     0.00000000   -0.00025158   -0.12172850
     atom  168 type  5   force =     0.00000000    0.00025158   -0.12172850
     atom  169 type  4   force =    -0.00216589    0.00087913    0.02138191
     atom  170 type  4   force =    -0.00216589   -0.00087913    0.02138191
     atom  171 type  4   force =     0.00216589    0.00087913    0.02138191
     atom  172 type  4   force =     0.00216589   -0.00087913    0.02138191
     atom  173 type  4   force =     0.00000000   -0.00047452    0.02221404
     atom  174 type  4   force =     0.00000000    0.00047452    0.02221404
     atom  175 type  4   force =    -0.00120210   -0.00154666    0.01439822
     atom  176 type  4   force =    -0.00120210    0.00154666    0.01439822
     atom  177 type  4   force =     0.00120210    0.00154666    0.01439822
     atom  178 type  4   force =     0.00120210   -0.00154666    0.01439822
     atom  179 type  4   force =     0.00093215    0.00000000    0.01492844
     atom  180 type  4   force =    -0.00093215    0.00000000    0.01492844
     atom  181 type  4   force =     0.00000000   -0.00232321    0.02064517
     atom  182 type  4   force =     0.00000000    0.00232321    0.02064517
     atom  183 type  4   force =     0.00127916    0.00000000    0.01358997
     atom  184 type  4   force =    -0.00127916    0.00000000    0.01358997
     atom  185 type  3   force =     0.00073355   -0.00076627   -0.01718978
     atom  186 type  3   force =     0.00073355    0.00076627   -0.01718978
     atom  187 type  3   force =    -0.00073355   -0.00076627   -0.01718978
     atom  188 type  3   force =    -0.00073355    0.00076627   -0.01718978
     atom  189 type  3   force =     0.00063503    0.00039449   -0.01998653
     atom  190 type  3   force =    -0.00063503    0.00039449   -0.01998653
     atom  191 type  3   force =    -0.00063503   -0.00039449   -0.01998653
     atom  192 type  3   force =     0.00063503   -0.00039449   -0.01998653
     atom  193 type  1   force =     0.00000000    0.00000000   -0.02646262
     atom  194 type  1   force =     0.00000000   -0.00010396   -0.03120177
     atom  195 type  1   force =     0.00000000    0.00010396   -0.03120177
     atom  196 type  1   force =    -0.00000076    0.00000000   -0.03182785
     atom  197 type  1   force =     0.00000076    0.00000000   -0.03182785
     atom  198 type  1   force =     0.00000000    0.00000000   -0.03117849
     atom  199 type  1   force =     0.00000000    0.00000000   -0.03117849
     atom  200 type  1   force =     0.00000000    0.00000000   -0.03168841
     atom  201 type  4   force =    -0.00008523    0.00009201   -0.00458228
     atom  202 type  4   force =    -0.00008523   -0.00009201   -0.00458228
     atom  203 type  4   force =     0.00008523    0.00009201   -0.00458228
     atom  204 type  4   force =     0.00008523   -0.00009201   -0.00458228
     atom  205 type  4   force =    -0.00041978   -0.00027879   -0.00489727
     atom  206 type  4   force =     0.00041978   -0.00027879   -0.00489727
     atom  207 type  4   force =     0.00041978    0.00027879   -0.00489727
     atom  208 type  4   force =    -0.00041978    0.00027879   -0.00489727
     atom  209 type  4   force =     0.00019523    0.00000000    0.00569281
     atom  210 type  4   force =    -0.00019523    0.00000000    0.00569281
     atom  211 type  3   force =     0.00021191    0.00000921   -0.00293926
     atom  212 type  3   force =     0.00021191   -0.00000921   -0.00293926
     atom  213 type  3   force =    -0.00021191   -0.00000921   -0.00293926
     atom  214 type  3   force =    -0.00021191    0.00000921   -0.00293926
     atom  215 type  3   force =     0.00007270   -0.00019536   -0.00311868
     atom  216 type  3   force =    -0.00007270    0.00019536   -0.00311868
     atom  217 type  3   force =     0.00007270    0.00019536   -0.00311868
     atom  218 type  3   force =    -0.00007270   -0.00019536   -0.00311868
     atom  219 type  4   force =    -0.00008040    0.00101884    0.00532373
     atom  220 type  4   force =     0.00008040    0.00101884    0.00532373
     atom  221 type  4   force =    -0.00008040   -0.00101884    0.00532373
     atom  222 type  4   force =     0.00008040   -0.00101884    0.00532373
     atom  223 type  4   force =    -0.00034692    0.00000000    0.00462064
     atom  224 type  4   force =     0.00034692    0.00000000    0.00462064

     Total force =     0.439107     Total SCF correction =     0.000357


     Computing stress (Cartesian axis) and pressure


     negative rho (up, down):  6.306E-01 0.000E+00
          total   stress  (Ry/bohr**3)                   (kbar)     P=      -10.02
  -0.00004205   0.00000000   0.00000000           -6.19        0.00        0.00
   0.00000000  -0.00003551   0.00000000            0.00       -5.22        0.00
   0.00000000   0.00000000  -0.00012683            0.00        0.00      -18.66

 
     init_run     :     56.60s CPU     59.68s WALL (       1 calls)
     electrons    :   4841.29s CPU   5076.01s WALL (       1 calls)
     forces       :     33.60s CPU     35.89s WALL (       1 calls)
     stress       :    424.43s CPU    430.03s WALL (       1 calls)

     Called by init_run:
     wfcinit      :     45.00s CPU     46.51s WALL (       1 calls)
     potinit      :      1.72s CPU      1.79s WALL (       1 calls)
     hinit0       :      3.29s CPU      3.36s WALL (       1 calls)

     Called by electrons:
     c_bands      :   4030.98s CPU   4128.87s WALL (      48 calls)
     sum_band     :    554.81s CPU    631.01s WALL (      48 calls)
     v_of_rho     :     12.00s CPU     12.82s WALL (      49 calls)
     newd         :     91.46s CPU    151.29s WALL (      49 calls)
     mix_rho      :    152.47s CPU    153.61s WALL (      48 calls)

     Called by c_bands:
     init_us_2    :     15.12s CPU     15.69s WALL (     396 calls)
     cegterg      :   3932.60s CPU   4022.73s WALL (     192 calls)

     Called by sum_band:
     sum_band:bec :      4.55s CPU      4.57s WALL (     192 calls)
     addusdens    :     90.24s CPU    161.22s WALL (      48 calls)

     Called by *egterg:
     h_psi        :   1716.60s CPU   1750.52s WALL (    1021 calls)
     s_psi        :    510.51s CPU    522.97s WALL (    1021 calls)
     g_psi        :      2.36s CPU      2.38s WALL (     825 calls)
     cdiaghg      :    636.95s CPU    639.84s WALL (    1017 calls)

     Called by h_psi:
     h_psi:calbec :    542.56s CPU    546.06s WALL (    1021 calls)
     vloc_psi     :    660.71s CPU    669.06s WALL (    1021 calls)
     add_vuspsi   :    509.26s CPU    522.07s WALL (    1021 calls)

     General routines
     calbec       :    853.34s CPU    858.27s WALL (    1233 calls)
     fft          :     12.26s CPU     12.47s WALL (     660 calls)
     ffts         :     94.70s CPU     95.32s WALL (   39300 calls)
     fftw         :    736.03s CPU    745.03s WALL ( 1079756 calls)
     interpolate  :      1.19s CPU      1.20s WALL (      49 calls)
 
     Parallel routines
     fft_scatt_xy :    107.60s CPU    108.84s WALL ( 1119716 calls)
     fft_scatt_yz :    455.00s CPU    460.73s WALL ( 1119716 calls)
 
     PWSCF        :      1h29m CPU      1h33m WALL

 
   This run was terminated on:  13:38:55  18May2021            

=------------------------------------------------------------------------------=
   JOB DONE.
=------------------------------------------------------------------------------=
[1621359536.060906] [holy7c08211:214700:0]          mpool.c:43   UCX  WARN  object 0x42ef280 was not returned to mpool ucp_requests
[1621359536.076368] [holy7c08208:65037:0]          mpool.c:43   UCX  WARN  object 0x4e03d00 was not returned to mpool ucp_requests
[1621359536.089082] [holy7c08210:201983:0]          mpool.c:43   UCX  WARN  object 0x42d6440 was not returned to mpool ucp_requests
[1621359536.061629] [holy7c08211:214706:0]          mpool.c:43   UCX  WARN  object 0x465e200 was not returned to mpool ucp_requests
[1621359536.060806] [holy7c08211:214698:0]          mpool.c:43   UCX  WARN  object 0x3ae7380 was not returned to mpool ucp_requests
[1621359536.070650] [holy7c08211:214699:0]          mpool.c:43   UCX  WARN  object 0x31bff80 was not returned to mpool ucp_requests
[1621359536.073056] [holy7c08211:214701:0]          mpool.c:43   UCX  WARN  object 0x59166c0 was not returned to mpool ucp_requests
[1621359536.080399] [holy7c08208:65035:0]          mpool.c:43   UCX  WARN  object 0x2954600 was not returned to mpool ucp_requests
[1621359536.080893] [holy7c08208:65034:0]          mpool.c:43   UCX  WARN  object 0x44f7200 was not returned to mpool ucp_requests
[1621359536.081268] [holy7c08208:65029:0]          mpool.c:43   UCX  WARN  object 0x5d915c0 was not returned to mpool ucp_requests
[1621359536.086366] [holy7c08208:65027:0]          mpool.c:43   UCX  WARN  object 0x3db9c40 was not returned to mpool ucp_requests
[1621359536.090518] [holy7c08208:65028:0]          mpool.c:43   UCX  WARN  object 0x46a7c00 was not returned to mpool ucp_requests
[1621359536.088953] [holy7c08208:65036:0]          mpool.c:43   UCX  WARN  object 0x2c84180 was not returned to mpool ucp_requests
[1621359536.094464] [holy7c08208:65026:0]          mpool.c:43   UCX  WARN  object 0x2a13240 was not returned to mpool ucp_requests
[1621359536.089401] [holy7c08108:122440:0]          mpool.c:43   UCX  WARN  object 0x2a40d80 was not returned to mpool ucp_requests
[1621359536.089968] [holy7c08108:122434:0]          mpool.c:43   UCX  WARN  object 0x5c8d200 was not returned to mpool ucp_requests
[1621359536.087770] [holy7c08108:122433:0]          mpool.c:43   UCX  WARN  object 0x4337840 was not returned to mpool ucp_requests
[1621359536.093237] [holy7c08108:122439:0]          mpool.c:43   UCX  WARN  object 0x40e4840 was not returned to mpool ucp_requests
[1621359536.088466] [holy7c08108:122441:0]          mpool.c:43   UCX  WARN  object 0x4473cc0 was not returned to mpool ucp_requests
[1621359536.088487] [holy7c08108:122441:0]          mpool.c:43   UCX  WARN  object 0x447df80 was not returned to mpool ucp_requests
[1621359536.093105] [holy7c08108:122432:0]          mpool.c:43   UCX  WARN  object 0x3002b00 was not returned to mpool ucp_requests
[1621359536.103971] [holy7c08108:122442:0]          mpool.c:43   UCX  WARN  object 0x3ee5dc0 was not returned to mpool ucp_requests
[1621359536.088984] [holy7c08210:201985:0]          mpool.c:43   UCX  WARN  object 0x2e40c80 was not returned to mpool ucp_requests
[1621359536.092793] [holy7c08210:201977:0]          mpool.c:43   UCX  WARN  object 0x4064dc0 was not returned to mpool ucp_requests
[1621359536.098612] [holy7c08210:201984:0]          mpool.c:43   UCX  WARN  object 0x443d5c0 was not returned to mpool ucp_requests
[1621359536.096169] [holy7c08210:201976:0]          mpool.c:43   UCX  WARN  object 0x68cf180 was not returned to mpool ucp_requests
[1621359536.101234] [holy7c08210:201975:0]          mpool.c:43   UCX  WARN  object 0x43992c0 was not returned to mpool ucp_requests
[1621359536.102892] [holy7c08210:201986:0]          mpool.c:43   UCX  WARN  object 0x3691c00 was not returned to mpool ucp_requests
[1621359536.103178] [holy7c08210:201978:0]          mpool.c:43   UCX  WARN  object 0x3aefb80 was not returned to mpool ucp_requests
[1621359536.094090] [holy7c08212:63096:0]          mpool.c:43   UCX  WARN  object 0x3379dc0 was not returned to mpool ucp_requests
[1621359536.100791] [holy7c08212:63097:0]          mpool.c:43   UCX  WARN  object 0x443bac0 was not returned to mpool ucp_requests
[1621359536.116672] [holy7c08212:63098:0]          mpool.c:43   UCX  WARN  object 0x3a609c0 was not returned to mpool ucp_requests
