
     Program PWSCF v.6.5 starts on 18May2021 at 21:13:52 

     This program is part of the open-source Quantum ESPRESSO suite
     for quantum simulation of materials; please cite
         "P. Giannozzi et al., J. Phys.:Condens. Matter 21 395502 (2009);
         "P. Giannozzi et al., J. Phys.:Condens. Matter 29 465901 (2017);
          URL http://www.quantum-espresso.org", 
     in publications or presentations arising from this work. More details at
     http://www.quantum-espresso.org/quote

     Parallel version (MPI), running on    80 processors

     MPI processes distributed on     5 nodes
     R & G space division:  proc/nbgrp/npool/nimage =      80
     Reading input from YBCO_BaO_cleave_5.0_sep.pwi
Warning: card &IONS ignored
Warning: card     ION_DYNAMICS = 'BFGS' ignored
Warning: card / ignored
Warning: card &CELL ignored
Warning: card     CELL_DYNAMICS = 'BFGS' ignored
Warning: card     PRESS_CONV_THR = 5 ignored
Warning: card / ignored

     Current dimensions of program PWSCF are:
     Max number of different atomic species (ntypx) = 10
     Max number of k-points (npk) =  40000
     Max angular momentum in pseudopotentials (lmaxx) =  3
     Message from routine volume:
     axis vectors are left-handed

     Subspace diagonalization in iterative solution of the eigenvalue problem:
     one sub-group per band group will be used
     scalapack distributed-memory algorithm (size of sub-group:  8*  8 procs)

     Message from routine setup:
     using ibrav=0 with symmetry is DISCOURAGED, use correct ibrav instead
 
     Parallelization info
     --------------------
     sticks:   dense  smooth     PW     G-vecs:    dense   smooth      PW
     Min         300     100     25               157004    30216    3967
     Max         301     101     26               157041    30239    4006
     Sum       24079    8031   2067             12562461  2418073  319497
 


     bravais-lattice index     =            0
     lattice parameter (alat)  =      20.5021  a.u.
     unit-cell volume          =   38505.5562 (a.u.)^3
     number of atoms/cell      =          224
     number of atomic types    =            5
     number of electrons       =      1830.00
     number of Kohn-Sham states=         1098
     kinetic-energy cutoff     =      60.0000  Ry
     charge density cutoff     =     720.0000  Ry
     convergence threshold     =      1.0E-08
     mixing beta               =       0.5000
     number of iterations used =           10  local-TF  mixing
     Exchange-correlation= SLA PW PBE PBE
                           (   1   4   3   4   0   0   0)

     celldm(1)=  20.502120  celldm(2)=   0.000000  celldm(3)=   0.000000
     celldm(4)=   0.000000  celldm(5)=   0.000000  celldm(6)=   0.000000

     crystal axes: (cart. coord. in units of alat)
               a(1) = (  -0.716599   0.697485   0.000000 )  
               a(2) = (   0.716599   0.697485   0.000000 )  
               a(3) = (   0.000000   0.000000   4.469776 )  

     reciprocal axes: (cart. coord. in units 2 pi/alat)
               b(1) = ( -0.697740  0.716861  0.000000 )  
               b(2) = (  0.697740  0.716861  0.000000 )  
               b(3) = (  0.000000  0.000000  0.223725 )  


     PseudoPot. # 1 for Ba read from file:
     ./pseudo/Ba.pbe-nsp-van.UPF
     MD5 check sum: 2b9c31dd849566dd297d80989662b7a0
     Pseudo is Ultrasoft + core correction, Zval = 10.0
     Generated by new atomic code, or converted to UPF format
     Using radial grid of  907 points,  6 beta functions with: 
                l(1) =   0
                l(2) =   0
                l(3) =   1
                l(4) =   1
                l(5) =   2
                l(6) =   2
     Q(r) pseudized with  6 coefficients,  rinner =    1.200   1.200   1.200
                                                       1.200   1.200

     PseudoPot. # 2 for Ca read from file:
     ./pseudo/Ca.pbe-nsp-van.UPF
     MD5 check sum: 6471098428ff4fa451746d08035ff179
     Pseudo is Ultrasoft + core correction, Zval = 10.0
     Generated by new atomic code, or converted to UPF format
     Using radial grid of  845 points,  6 beta functions with: 
                l(1) =   0
                l(2) =   0
                l(3) =   1
                l(4) =   1
                l(5) =   2
                l(6) =   2
     Q(r) pseudized with  6 coefficients,  rinner =    1.200   1.200   1.200
                                                       1.200   1.200

     PseudoPot. # 3 for Cu read from file:
     ./pseudo/Cu.pbe-n-van_ak.UPF
     MD5 check sum: 34e3282627ffb533726feb647e090d62
     Pseudo is Ultrasoft + core correction, Zval = 11.0
     Generated by new atomic code, or converted to UPF format
     Using radial grid of  867 points,  6 beta functions with: 
                l(1) =   0
                l(2) =   0
                l(3) =   1
                l(4) =   1
                l(5) =   2
                l(6) =   2
     Q(r) pseudized with  8 coefficients,  rinner =    1.400   1.400   1.400
                                                       1.400   1.400

     PseudoPot. # 4 for O  read from file:
     ./pseudo/O.pbe-van_ak.UPF
     MD5 check sum: 783ce7fe4c79b6a4916957118fed0856
     Pseudo is Ultrasoft, Zval =  6.0
     Generated by new atomic code, or converted to UPF format
     Using radial grid of  737 points,  4 beta functions with: 
                l(1) =   0
                l(2) =   0
                l(3) =   1
                l(4) =   1
     Q(r) pseudized with  8 coefficients,  rinner =    0.800   0.800   0.800


     PseudoPot. # 5 for Y  read from file:
     ./pseudo/Y.pbe-nsp-van.UPF
     MD5 check sum: 4412fed3ab108fed87a1b7d6a69a4a38
     Pseudo is Ultrasoft + core correction, Zval = 11.0
     Generated by new atomic code, or converted to UPF format
     Using radial grid of  885 points,  6 beta functions with: 
                l(1) =   0
                l(2) =   0
                l(3) =   1
                l(4) =   1
                l(5) =   2
                l(6) =   2
     Q(r) pseudized with  6 coefficients,  rinner =    1.200   1.200   1.200
                                                       1.200   1.200

     atomic species   valence    mass     pseudopotential
        Ba            10.00   137.32700     Ba( 1.00)
        Ca            10.00    40.07800     Ca( 1.00)
        Cu            11.00    63.54600     Cu( 1.00)
        O              6.00    15.99900     O ( 1.00)
        Y             11.00    88.90584     Y ( 1.00)

      4 Sym. Ops. (no inversion) found ( 3 have fractional translation)



   Cartesian axes

     site n.     atom                  positions (alat units)
         1           O   tau(   1) = (   0.3545921   0.8718562  -0.0077406  )
         2           O   tau(   2) = (   0.0037072   0.8718562  -0.0077406  )
         3           Cu  tau(   3) = (  -0.0002581   0.0006065   0.0080789  )
         4           Cu  tau(   4) = (  -0.0002581   0.3481364   0.0080789  )
         5           Cu  tau(   5) = (   0.3585574   0.3481364   0.0080789  )
         6           Cu  tau(   6) = (  -0.3580421   0.6980913   0.0080789  )
         7           Cu  tau(   7) = (   0.3577988   0.6971373   0.0086255  )
         8           Cu  tau(   8) = (   0.0005005   1.0465760   0.0086255  )
         9           Cu  tau(   9) = (  -0.3588016   0.3490903   0.0086255  )
        10           Cu  tau(  10) = (   0.0005005   0.6971373   0.0086255  )
        11           O   tau(  11) = (  -0.0001733   0.5225410  -0.0089757  )
        12           O   tau(  12) = (   0.3584726   0.5225410  -0.0089757  )
        13           O   tau(  13) = (  -0.0001733   1.2211724  -0.0089757  )
        14           O   tau(  14) = (  -0.3581278   0.5236867  -0.0089757  )
        15           O   tau(  15) = (  -0.3544557   0.8718562  -0.0105593  )
        16           O   tau(  16) = (  -0.0038445   0.1743714  -0.0105593  )
        17           O   tau(  17) = (   0.3588818   0.3486599   0.1817056  )
        18           O   tau(  18) = (  -0.0005825   0.3486599   0.1817056  )
        19           O   tau(  19) = (  -0.0005825   0.0000830   0.1817056  )
        20           O   tau(  20) = (  -0.3577167   0.6975677   0.1817056  )
        21           O   tau(  21) = (   0.3584283   0.6967843   0.1825784  )
        22           O   tau(  22) = (  -0.3581712   0.3494443   0.1825784  )
        23           O   tau(  23) = (  -0.0001290   0.6967843   0.1825784  )
        24           O   tau(  24) = (  -0.0001290   1.0469291   0.1825784  )
        25           Ba  tau(  25) = (   0.1791506   0.8718562   0.1908537  )
        26           Ba  tau(  26) = (   0.5374498   0.5231143   0.1919901  )
        27           Ba  tau(  27) = (  -0.1791506   0.5231143   0.1919901  )
        28           Ba  tau(  28) = (  -0.1793773   0.8718562   0.1931958  )
        29           Ba  tau(  29) = (  -0.1789238   0.1743714   0.1931958  )
        30           Ba  tau(  30) = (   0.1791506   0.5222101   0.1929368  )
        31           Ba  tau(  31) = (  -0.5374498   0.5240176   0.1929368  )
        32           Ba  tau(  32) = (   0.1791506   0.1743714   0.1992469  )
        33           Cu  tau(  33) = (  -0.3583426   0.3488452   0.3777458  )
        34           Cu  tau(  34) = (   0.3582559   0.6973834   0.3777458  )
        35           Cu  tau(  35) = (   0.0000433   0.6973834   0.3777458  )
        36           Cu  tau(  36) = (   0.0000433   1.0463299   0.3777458  )
        37           Cu  tau(  37) = (  -0.3586541   0.6975060   0.3775126  )
        38           Cu  tau(  38) = (   0.3579444   0.3487217   0.3775126  )
        39           Cu  tau(  39) = (   0.0003549   0.0000212   0.3775126  )
        40           Cu  tau(  40) = (   0.0003549   0.3487217   0.3775126  )
        41           O   tau(  41) = (  -0.0047976   0.1743714   0.3996864  )
        42           O   tau(  42) = (  -0.3535026   0.8718562   0.3996864  )
        43           O   tau(  43) = (  -0.5374498   0.6924605   0.3956991  )
        44           O   tau(  44) = (   0.1791506   0.3537672   0.3956991  )
        45           O   tau(  45) = (   0.3586385   0.8718562   0.4046840  )
        46           O   tau(  46) = (  -0.0003392   0.8718562   0.4046840  )
        47           O   tau(  47) = (  -0.0004857   0.5230571   0.4066611  )
        48           O   tau(  48) = (   0.3587850   0.5230571   0.4066611  )
        49           O   tau(  49) = (  -0.3578135   0.5231714   0.4066611  )
        50           O   tau(  50) = (  -0.0004857   1.2206562   0.4066611  )
        51           O   tau(  51) = (   0.1791506   1.0461604   0.4028931  )
        52           O   tau(  52) = (   0.1791506   0.6975521   0.4028931  )
        53           O   tau(  53) = (  -0.1792261   0.6967170   0.4025963  )
        54           O   tau(  54) = (  -0.1790731   0.3495106   0.4025963  )
        55           O   tau(  55) = (  -0.1792261   1.0469964   0.4025963  )
        56           O   tau(  56) = (   0.5375263   0.6967170   0.4025963  )
        57           Ca  tau(  57) = (   0.1791506   0.1743714   0.5358617  )
        58           Y   tau(  58) = (  -0.1811525   0.8718562   0.5373908  )
        59           Y   tau(  59) = (  -0.1771467   0.1743714   0.5373908  )
        60           Y   tau(  60) = (   0.1791506   0.8718562   0.5379568  )
        61           Y   tau(  61) = (   0.5374498   0.5231143   0.5384490  )
        62           Y   tau(  62) = (  -0.1791506   0.5231143   0.5384490  )
        63           Y   tau(  63) = (   0.1791506   0.5216598   0.5383310  )
        64           Y   tau(  64) = (  -0.5374498   0.5245688   0.5383310  )
        65           O   tau(  65) = (  -0.1787754   0.3493171   0.6712314  )
        66           O   tau(  66) = (   0.5378231   0.6969115   0.6712314  )
        67           O   tau(  67) = (  -0.1795239   1.0468019   0.6712314  )
        68           O   tau(  68) = (  -0.1795239   0.6969115   0.6712314  )
        69           O   tau(  69) = (   0.1791506   0.6972691   0.6718637  )
        70           O   tau(  70) = (   0.1791506   1.0464433   0.6718637  )
        71           O   tau(  71) = (  -0.0003880   1.2203935   0.6667490  )
        72           O   tau(  72) = (  -0.0003880   0.5233198   0.6667490  )
        73           O   tau(  73) = (   0.3586882   0.5233198   0.6667490  )
        74           O   tau(  74) = (  -0.3579112   0.5229087   0.6667490  )
        75           O   tau(  75) = (   0.3585850   0.8718562   0.6641940  )
        76           O   tau(  76) = (  -0.0002857   0.8718562   0.6641940  )
        77           O   tau(  77) = (   0.1791506   0.3535118   0.6756778  )
        78           O   tau(  78) = (  -0.5374498   0.6927158   0.6756778  )
        79           O   tau(  79) = (  -0.0043044   0.1743714   0.6710848  )
        80           O   tau(  80) = (  -0.3539948   0.8718562   0.6710848  )
        81           Cu  tau(  81) = (  -0.3586514   0.6973604   0.6974442  )
        82           Cu  tau(  82) = (   0.3579472   0.3488682   0.6974442  )
        83           Cu  tau(  83) = (   0.0003521  -0.0001254   0.6974442  )
        84           Cu  tau(  84) = (   0.0003521   0.3488682   0.6974442  )
        85           Cu  tau(  85) = (   0.0000083   1.0459401   0.6989015  )
        86           Cu  tau(  86) = (  -0.3583076   0.3484544   0.6989015  )
        87           Cu  tau(  87) = (   0.3582910   0.6977733   0.6989015  )
        88           Cu  tau(  88) = (   0.0000083   0.6977733   0.6989015  )
        89           Ba  tau(  89) = (   0.1791506   0.1743714   0.8671591  )
        90           Ba  tau(  90) = (  -0.5374498   0.5239908   0.8827639  )
        91           Ba  tau(  91) = (   0.1791506   0.5222377   0.8827639  )
        92           Ba  tau(  92) = (  -0.1785616   0.1743714   0.8784262  )
        93           Ba  tau(  93) = (  -0.1797386   0.8718562   0.8784262  )
        94           Ba  tau(  94) = (  -0.1791506   0.5231143   0.8841483  )
        95           Ba  tau(  95) = (   0.5374498   0.5231143   0.8841483  )
        96           Ba  tau(  96) = (   0.1791506   0.8718562   0.8844635  )
        97           O   tau(  97) = (   0.3607888   0.6975991   0.9037874  )
        98           O   tau(  98) = (  -0.3558097   0.3486286   0.9037874  )
        99           O   tau(  99) = (  -0.0024896   0.6975991   0.9037874  )
       100           O   tau( 100) = (  -0.0024896   1.0461143   0.9037874  )
       101           O   tau( 101) = (   0.3544087   0.3463252   0.9043663  )
       102           O   tau( 102) = (   0.0038906   0.3463252   0.9043663  )
       103           O   tau( 103) = (   0.0038906   0.0024177   0.9043663  )
       104           O   tau( 104) = (  -0.3621908   0.6999025   0.9043663  )
       105           O   tau( 105) = (   0.3314246   0.8718562   1.0783672  )
       106           O   tau( 106) = (   0.0268747   0.8718562   1.0783672  )
       107           Cu  tau( 107) = (  -0.0027882   0.0031818   1.0782086  )
       108           Cu  tau( 108) = (  -0.0027882   0.3455601   1.0782086  )
       109           Cu  tau( 109) = (   0.3610875   0.3455601   1.0782086  )
       110           Cu  tau( 110) = (  -0.3555111   0.7006675   1.0782086  )
       111           Cu  tau( 111) = (   0.3579684   0.6983604   1.0781976  )
       112           Cu  tau( 112) = (   0.0003318   1.0453529   1.0781976  )
       113           Cu  tau( 113) = (  -0.3586320   0.3478672   1.0781976  )
       114           Cu  tau( 114) = (   0.0003318   0.6983604   1.0781976  )
       115           O   tau( 115) = (  -0.0055718   0.5218801   1.0778989  )
       116           O   tau( 116) = (   0.3638720   0.5218801   1.0778989  )
       117           O   tau( 117) = (  -0.0055718   1.2218333   1.0778989  )
       118           O   tau( 118) = (  -0.3527284   0.5243475   1.0778989  )
       119           O   tau( 119) = (  -0.3170374   0.8718562   1.0783192  )
       120           O   tau( 120) = (  -0.0412618   0.1743714   1.0783192  )
       121           O   tau( 121) = (   0.3544105   0.3465040   1.2520362  )
       122           O   tau( 122) = (   0.0038887   0.3465040   1.2520362  )
       123           O   tau( 123) = (   0.0038887   0.0022389   1.2520362  )
       124           O   tau( 124) = (  -0.3621880   0.6997236   1.2520362  )
       125           O   tau( 125) = (   0.3607981   0.6973991   1.2525976  )
       126           O   tau( 126) = (  -0.3558014   0.3488295   1.2525976  )
       127           O   tau( 127) = (  -0.0024988   0.6973991   1.2525976  )
       128           O   tau( 128) = (  -0.0024988   1.0463143   1.2525976  )
       129           Ba  tau( 129) = (   0.1791506   0.8718562   1.2719528  )
       130           Ba  tau( 130) = (   0.5374498   0.5231143   1.2722763  )
       131           Ba  tau( 131) = (  -0.1791506   0.5231143   1.2722763  )
       132           Ba  tau( 132) = (  -0.1796732   0.8718562   1.2779763  )
       133           Ba  tau( 133) = (  -0.1786270   0.1743714   1.2779763  )
       134           Ba  tau( 134) = (   0.1791506   0.5222571   1.2737041  )
       135           Ba  tau( 135) = (  -0.5374498   0.5239706   1.2737041  )
       136           Ba  tau( 136) = (   0.1791506   0.1743714   1.2892268  )
       137           Cu  tau( 137) = (  -0.3583094   0.3484682   1.9183843  )
       138           Cu  tau( 138) = (   0.3582901   0.6977604   1.9183843  )
       139           Cu  tau( 139) = (   0.0000101   0.6977604   1.9183843  )
       140           Cu  tau( 140) = (   0.0000101   1.0459530   1.9183843  )
       141           Cu  tau( 141) = (  -0.3586477   0.6973567   1.9198047  )
       142           Cu  tau( 142) = (   0.3579518   0.3488710   1.9198047  )
       143           Cu  tau( 143) = (   0.0003484  -0.0001281   1.9198047  )
       144           Cu  tau( 144) = (   0.0003484   0.3488710   1.9198047  )
       145           O   tau( 145) = (  -0.0043173   0.1743714   1.9461097  )
       146           O   tau( 146) = (  -0.3539819   0.8718562   1.9461097  )
       147           O   tau( 147) = (  -0.5374498   0.6927305   1.9415786  )
       148           O   tau( 148) = (   0.1791506   0.3534971   1.9415786  )
       149           O   tau( 149) = (   0.3585795   0.8718562   1.9530199  )
       150           O   tau( 150) = (  -0.0002802   0.8718562   1.9530199  )
       151           O   tau( 151) = (  -0.0003853   0.5233134   1.9505239  )
       152           O   tau( 152) = (   0.3586855   0.5233134   1.9505239  )
       153           O   tau( 153) = (  -0.3579140   0.5229152   1.9505239  )
       154           O   tau( 154) = (  -0.0003853   1.2204000   1.9505239  )
       155           O   tau( 155) = (   0.1791506   1.0464553   1.9453972  )
       156           O   tau( 156) = (   0.1791506   0.6972571   1.9453972  )
       157           O   tau( 157) = (  -0.1795146   0.6969069   1.9460259  )
       158           O   tau( 158) = (  -0.1787846   0.3493208   1.9460259  )
       159           O   tau( 159) = (  -0.1795146   1.0468065   1.9460259  )
       160           O   tau( 160) = (   0.5378139   0.6969069   1.9460259  )
       161           Ca  tau( 161) = (   0.1791506   0.1743714   2.0813882  )
       162           Y   tau( 162) = (  -0.1811544   0.8718562   2.0798572  )
       163           Y   tau( 163) = (  -0.1771449   0.1743714   2.0798572  )
       164           Y   tau( 164) = (   0.1791506   0.8718562   2.0792940  )
       165           Y   tau( 165) = (   0.5374498   0.5231143   2.0788248  )
       166           Y   tau( 166) = (  -0.1791506   0.5231143   2.0788248  )
       167           Y   tau( 167) = (   0.1791506   0.5216524   2.0789456  )
       168           Y   tau( 168) = (  -0.5374498   0.5245761   2.0789456  )
       169           O   tau( 169) = (  -0.1790685   0.3495088   2.2146600  )
       170           O   tau( 170) = (   0.5375300   0.6967198   2.2146600  )
       171           O   tau( 171) = (  -0.1792307   1.0469936   2.2146600  )
       172           O   tau( 172) = (  -0.1792307   0.6967198   2.2146600  )
       173           O   tau( 173) = (   0.1791506   0.6975604   2.2143632  )
       174           O   tau( 174) = (   0.1791506   1.0461521   2.2143632  )
       175           O   tau( 175) = (  -0.0004848   1.2206534   2.2105989  )
       176           O   tau( 176) = (  -0.0004848   0.5230599   2.2105989  )
       177           O   tau( 177) = (   0.3587841   0.5230599   2.2105989  )
       178           O   tau( 178) = (  -0.3578144   0.5231687   2.2105989  )
       179           O   tau( 179) = (   0.3586468   0.8718562   2.2125373  )
       180           O   tau( 180) = (  -0.0003466   0.8718562   2.2125373  )
       181           O   tau( 181) = (   0.1791506   0.3537690   2.2215600  )
       182           O   tau( 182) = (  -0.5374498   0.6924586   2.2215600  )
       183           O   tau( 183) = (  -0.0047874   0.1743714   2.2175247  )
       184           O   tau( 184) = (  -0.3535118   0.8718562   2.2175247  )
       185           Cu  tau( 185) = (  -0.3586560   0.6975087   2.2397308  )
       186           Cu  tau( 186) = (   0.3579435   0.3487198   2.2397308  )
       187           Cu  tau( 187) = (   0.0003567   0.0000230   2.2397308  )
       188           Cu  tau( 188) = (   0.0003567   0.3487198   2.2397308  )
       189           Cu  tau( 189) = (   0.0000415   1.0463263   2.2394986  )
       190           Cu  tau( 190) = (  -0.3583407   0.3488406   2.2394986  )
       191           Cu  tau( 191) = (   0.3582587   0.6973871   2.2394986  )
       192           Cu  tau( 192) = (   0.0000415   0.6973871   2.2394986  )
       193           Ba  tau( 193) = (   0.1791506   0.1743714   2.4180039  )
       194           Ba  tau( 194) = (  -0.5374498   0.5240166   2.4243131  )
       195           Ba  tau( 195) = (   0.1791506   0.5222119   2.4243131  )
       196           Ba  tau( 196) = (  -0.1789220   0.1743714   2.4240569  )
       197           Ba  tau( 197) = (  -0.1793773   0.8718562   2.4240569  )
       198           Ba  tau( 198) = (  -0.1791506   0.5231143   2.4252671  )
       199           Ba  tau( 199) = (   0.5374498   0.5231143   2.4252671  )
       200           Ba  tau( 200) = (   0.1791506   0.8718562   2.4263953  )
       201           O   tau( 201) = (   0.3584302   0.6967870   2.4346650  )
       202           O   tau( 202) = (  -0.3581684   0.3494406   2.4346650  )
       203           O   tau( 203) = (  -0.0001309   0.6967870   2.4346650  )
       204           O   tau( 204) = (  -0.0001309   1.0469263   2.4346650  )
       205           O   tau( 205) = (   0.3588800   0.3486562   2.4355378  )
       206           O   tau( 206) = (  -0.0005807   0.3486562   2.4355378  )
       207           O   tau( 207) = (  -0.0005807   0.0000866   2.4355378  )
       208           O   tau( 208) = (  -0.3577186   0.6975714   2.4355378  )
       209           O   tau( 209) = (   0.3545921   0.8718562   2.6249684  )
       210           O   tau( 210) = (   0.0037081   0.8718562   2.6249684  )
       211           Cu  tau( 211) = (  -0.0002516   0.0006074   2.6091645  )
       212           Cu  tau( 212) = (  -0.0002516   0.3481345   2.6091645  )
       213           Cu  tau( 213) = (   0.3585509   0.3481345   2.6091645  )
       214           Cu  tau( 214) = (  -0.3580476   0.6980931   2.6091645  )
       215           Cu  tau( 215) = (   0.3577960   0.6971373   2.6086179  )
       216           Cu  tau( 216) = (   0.0005033   1.0465760   2.6086179  )
       217           Cu  tau( 217) = (  -0.3588035   0.3490903   2.6086179  )
       218           Cu  tau( 218) = (   0.0005033   0.6971373   2.6086179  )
       219           O   tau( 219) = (  -0.0001724   0.5225410   2.6262072  )
       220           O   tau( 220) = (   0.3584716   0.5225410   2.6262072  )
       221           O   tau( 221) = (  -0.0001724   1.2211724   2.6262072  )
       222           O   tau( 222) = (  -0.3581288   0.5236867   2.6262072  )
       223           O   tau( 223) = (  -0.3544640   0.8718562   2.6277971  )
       224           O   tau( 224) = (  -0.0038353   0.1743714   2.6277971  )

     number of k points=     4  Gaussian smearing, width (Ry)=  0.0100
                       cart. coord. in units 2pi/alat
        k(    1) = (   0.0000000   0.0000000   0.0000000), wk =   0.2222222
        k(    2) = (   0.2325801   0.2389537   0.0000000), wk =   0.8888889
        k(    3) = (   0.0000000   0.4779073   0.0000000), wk =   0.4444444
        k(    4) = (  -0.4651601  -0.0000000   0.0000000), wk =   0.4444444

     Dense  grid: 12562461 G-vectors     FFT dimensions: ( 180, 180, 800)

     Smooth grid:  2418073 G-vectors     FFT dimensions: ( 108, 108, 480)

     Estimated max dynamical RAM per process >       2.62 GB

     Estimated total dynamical RAM >     209.63 GB

     Initial potential from superposition of free atoms

     starting charge 1828.78422, renormalised to 1830.00000

     negative rho (up, down):  6.298E-01 0.000E+00
     Starting wfcs are 1602 randomized atomic wfcs

     total cpu time spent up to now is       64.8 secs

     Self-consistent Calculation

     iteration #  1     ecut=    60.00 Ry     beta= 0.50
     Davidson diagonalization with overlap
     ethr =  1.00E-02,  avg # of iterations =  2.0

     negative rho (up, down):  6.001E-01 0.000E+00

     total cpu time spent up to now is      171.5 secs

     total energy              =  -14912.73385713 Ry
     Harris-Foulkes estimate   =  -14943.88086622 Ry
     estimated scf accuracy    <     134.78533568 Ry

     iteration #  2     ecut=    60.00 Ry     beta= 0.50
     Davidson diagonalization with overlap
     ethr =  7.37E-03,  avg # of iterations =  2.0

     negative rho (up, down):  6.004E-01 0.000E+00

     total cpu time spent up to now is      271.9 secs

     total energy              =  -14923.25072021 Ry
     Harris-Foulkes estimate   =  -14927.45620494 Ry
     estimated scf accuracy    <      48.34061254 Ry

     iteration #  3     ecut=    60.00 Ry     beta= 0.50
     Davidson diagonalization with overlap
     ethr =  2.64E-03,  avg # of iterations =  1.0

     negative rho (up, down):  6.037E-01 0.000E+00

     total cpu time spent up to now is      368.0 secs

     total energy              =  -14924.78730315 Ry
     Harris-Foulkes estimate   =  -14925.91930109 Ry
     estimated scf accuracy    <      43.40378467 Ry

     iteration #  4     ecut=    60.00 Ry     beta= 0.50
     Davidson diagonalization with overlap
     ethr =  2.37E-03,  avg # of iterations =  1.0

     negative rho (up, down):  6.085E-01 0.000E+00

     total cpu time spent up to now is      464.1 secs

     total energy              =  -14924.82728950 Ry
     Harris-Foulkes estimate   =  -14925.36916652 Ry
     estimated scf accuracy    <      15.63865311 Ry

     iteration #  5     ecut=    60.00 Ry     beta= 0.50
     Davidson diagonalization with overlap
     ethr =  8.55E-04,  avg # of iterations =  1.0

     negative rho (up, down):  6.189E-01 0.000E+00

     total cpu time spent up to now is      559.5 secs

     total energy              =  -14924.57316172 Ry
     Harris-Foulkes estimate   =  -14925.11402482 Ry
     estimated scf accuracy    <      18.09154414 Ry

     iteration #  6     ecut=    60.00 Ry     beta= 0.50
     Davidson diagonalization with overlap
     ethr =  8.55E-04,  avg # of iterations =  1.0

     negative rho (up, down):  6.253E-01 0.000E+00

     total cpu time spent up to now is      655.2 secs

     total energy              =  -14924.54445577 Ry
     Harris-Foulkes estimate   =  -14924.78857129 Ry
     estimated scf accuracy    <       6.52083480 Ry

     iteration #  7     ecut=    60.00 Ry     beta= 0.50
     Davidson diagonalization with overlap
     ethr =  3.56E-04,  avg # of iterations =  6.2

     negative rho (up, down):  6.328E-01 0.000E+00

     total cpu time spent up to now is      772.9 secs

     total energy              =  -14924.48030462 Ry
     Harris-Foulkes estimate   =  -14924.63931403 Ry
     estimated scf accuracy    <       5.04277615 Ry

     iteration #  8     ecut=    60.00 Ry     beta= 0.50
     Davidson diagonalization with overlap
     ethr =  2.76E-04,  avg # of iterations =  7.0

     negative rho (up, down):  6.377E-01 0.000E+00

     total cpu time spent up to now is      897.0 secs

     total energy              =  -14924.35696916 Ry
     Harris-Foulkes estimate   =  -14924.53244583 Ry
     estimated scf accuracy    <       3.91019765 Ry

     iteration #  9     ecut=    60.00 Ry     beta= 0.50
     Davidson diagonalization with overlap
     ethr =  2.14E-04,  avg # of iterations =  6.0

     negative rho (up, down):  6.366E-01 0.000E+00

     total cpu time spent up to now is     1016.0 secs

     total energy              =  -14924.29448394 Ry
     Harris-Foulkes estimate   =  -14924.40087674 Ry
     estimated scf accuracy    <       2.15943773 Ry

     iteration # 10     ecut=    60.00 Ry     beta= 0.50
     Davidson diagonalization with overlap
     ethr =  1.18E-04,  avg # of iterations =  7.0

     negative rho (up, down):  6.334E-01 0.000E+00

     total cpu time spent up to now is     1139.5 secs

     total energy              =  -14924.26140223 Ry
     Harris-Foulkes estimate   =  -14924.32401920 Ry
     estimated scf accuracy    <       1.01730637 Ry

     iteration # 11     ecut=    60.00 Ry     beta= 0.50
     Davidson diagonalization with overlap
     ethr =  5.56E-05,  avg # of iterations =  8.8

     negative rho (up, down):  6.363E-01 0.000E+00

     total cpu time spent up to now is     1272.9 secs

     total energy              =  -14924.26415063 Ry
     Harris-Foulkes estimate   =  -14924.28712146 Ry
     estimated scf accuracy    <       0.40060531 Ry

     iteration # 12     ecut=    60.00 Ry     beta= 0.50
     Davidson diagonalization with overlap
     ethr =  2.19E-05,  avg # of iterations =  8.2

     negative rho (up, down):  6.354E-01 0.000E+00

     total cpu time spent up to now is     1403.9 secs

     total energy              =  -14924.26451047 Ry
     Harris-Foulkes estimate   =  -14924.27512239 Ry
     estimated scf accuracy    <       0.15363680 Ry

     iteration # 13     ecut=    60.00 Ry     beta= 0.50
     Davidson diagonalization with overlap
     c_bands:  1 eigenvalues not converged
     ethr =  8.40E-06,  avg # of iterations = 15.5

     negative rho (up, down):  6.836E-01 0.000E+00

     total cpu time spent up to now is     1569.4 secs

     total energy              =  -14924.26464689 Ry
     Harris-Foulkes estimate   =  -14924.26895810 Ry
     estimated scf accuracy    <       0.10967971 Ry

     iteration # 14     ecut=    60.00 Ry     beta= 0.50
     Davidson diagonalization with overlap
     ethr =  5.99E-06,  avg # of iterations =  9.8

     negative rho (up, down):  6.955E-01 0.000E+00

     total cpu time spent up to now is     1707.9 secs

     total energy              =  -14924.26199908 Ry
     Harris-Foulkes estimate   =  -14924.26708787 Ry
     estimated scf accuracy    <       0.07508862 Ry

     iteration # 15     ecut=    60.00 Ry     beta= 0.50
     Davidson diagonalization with overlap
     ethr =  4.10E-06,  avg # of iterations =  8.5

     negative rho (up, down):  6.425E-01 0.000E+00

     total cpu time spent up to now is     1832.5 secs

     total energy              =  -14924.25903788 Ry
     Harris-Foulkes estimate   =  -14924.26331709 Ry
     estimated scf accuracy    <       0.08169481 Ry

     iteration # 16     ecut=    60.00 Ry     beta= 0.50
     Davidson diagonalization with overlap
     ethr =  4.10E-06,  avg # of iterations =  5.8

     negative rho (up, down):  6.286E-01 0.000E+00

     total cpu time spent up to now is     1952.1 secs

     total energy              =  -14924.25514060 Ry
     Harris-Foulkes estimate   =  -14924.26026947 Ry
     estimated scf accuracy    <       0.06914652 Ry

     iteration # 17     ecut=    60.00 Ry     beta= 0.50
     Davidson diagonalization with overlap
     c_bands:  1 eigenvalues not converged
     ethr =  3.78E-06,  avg # of iterations = 13.0

     negative rho (up, down):  6.275E-01 0.000E+00

     total cpu time spent up to now is     2097.4 secs

     total energy              =  -14924.24897683 Ry
     Harris-Foulkes estimate   =  -14924.25583782 Ry
     estimated scf accuracy    <       0.07917980 Ry

     iteration # 18     ecut=    60.00 Ry     beta= 0.50
     Davidson diagonalization with overlap
     c_bands:  1 eigenvalues not converged
     ethr =  3.78E-06,  avg # of iterations = 14.8

     negative rho (up, down):  6.300E-01 0.000E+00

     total cpu time spent up to now is     2255.7 secs

     total energy              =  -14924.24678069 Ry
     Harris-Foulkes estimate   =  -14924.25008891 Ry
     estimated scf accuracy    <       0.08320243 Ry

     iteration # 19     ecut=    60.00 Ry     beta= 0.50
     Davidson diagonalization with overlap
     c_bands:  2 eigenvalues not converged
     ethr =  3.78E-06,  avg # of iterations = 11.2

     negative rho (up, down):  6.293E-01 0.000E+00

     total cpu time spent up to now is     2402.5 secs

     total energy              =  -14924.24304832 Ry
     Harris-Foulkes estimate   =  -14924.24774852 Ry
     estimated scf accuracy    <       0.03183045 Ry

     iteration # 20     ecut=    60.00 Ry     beta= 0.50
     Davidson diagonalization with overlap
     ethr =  1.74E-06,  avg # of iterations = 14.8

     negative rho (up, down):  6.289E-01 0.000E+00

     total cpu time spent up to now is     2565.2 secs

     total energy              =  -14924.24182990 Ry
     Harris-Foulkes estimate   =  -14924.24358113 Ry
     estimated scf accuracy    <       0.03980432 Ry

     iteration # 21     ecut=    60.00 Ry     beta= 0.50
     Davidson diagonalization with overlap
     c_bands:  1 eigenvalues not converged
     ethr =  1.74E-06,  avg # of iterations = 14.0

     negative rho (up, down):  6.286E-01 0.000E+00

     total cpu time spent up to now is     2712.7 secs

     total energy              =  -14924.24074813 Ry
     Harris-Foulkes estimate   =  -14924.24215026 Ry
     estimated scf accuracy    <       0.02237414 Ry

     iteration # 22     ecut=    60.00 Ry     beta= 0.50
     Davidson diagonalization with overlap
     c_bands:  1 eigenvalues not converged
     c_bands:  1 eigenvalues not converged
     ethr =  1.22E-06,  avg # of iterations = 15.8

     negative rho (up, down):  6.263E-01 0.000E+00

     total cpu time spent up to now is     2865.8 secs

     total energy              =  -14924.23937579 Ry
     Harris-Foulkes estimate   =  -14924.24103978 Ry
     estimated scf accuracy    <       0.01403234 Ry

     iteration # 23     ecut=    60.00 Ry     beta= 0.50
     Davidson diagonalization with overlap
     c_bands:  1 eigenvalues not converged
     ethr =  7.67E-07,  avg # of iterations = 17.0

     negative rho (up, down):  6.267E-01 0.000E+00

     total cpu time spent up to now is     3041.4 secs

     total energy              =  -14924.23925344 Ry
     Harris-Foulkes estimate   =  -14924.24001816 Ry
     estimated scf accuracy    <       0.01731394 Ry

     iteration # 24     ecut=    60.00 Ry     beta= 0.50
     Davidson diagonalization with overlap
     ethr =  7.67E-07,  avg # of iterations =  5.8

     negative rho (up, down):  6.262E-01 0.000E+00

     total cpu time spent up to now is     3157.8 secs

     total energy              =  -14924.23924140 Ry
     Harris-Foulkes estimate   =  -14924.23949049 Ry
     estimated scf accuracy    <       0.01431917 Ry

     iteration # 25     ecut=    60.00 Ry     beta= 0.50
     Davidson diagonalization with overlap
     ethr =  7.67E-07,  avg # of iterations =  6.2

     negative rho (up, down):  6.277E-01 0.000E+00

     total cpu time spent up to now is     3273.6 secs

     total energy              =  -14924.23892614 Ry
     Harris-Foulkes estimate   =  -14924.23944057 Ry
     estimated scf accuracy    <       0.00720600 Ry

     iteration # 26     ecut=    60.00 Ry     beta= 0.50
     Davidson diagonalization with overlap
     ethr =  3.94E-07,  avg # of iterations = 13.2

     negative rho (up, down):  6.273E-01 0.000E+00

     total cpu time spent up to now is     3418.1 secs

     total energy              =  -14924.23941780 Ry
     Harris-Foulkes estimate   =  -14924.23919353 Ry
     estimated scf accuracy    <       0.00522277 Ry

     iteration # 27     ecut=    60.00 Ry     beta= 0.50
     Davidson diagonalization with overlap
     ethr =  2.85E-07,  avg # of iterations =  2.8

     negative rho (up, down):  6.281E-01 0.000E+00

     total cpu time spent up to now is     3519.9 secs

     total energy              =  -14924.23971350 Ry
     Harris-Foulkes estimate   =  -14924.23950697 Ry
     estimated scf accuracy    <       0.00294249 Ry

     iteration # 28     ecut=    60.00 Ry     beta= 0.50
     Davidson diagonalization with overlap
     c_bands:  1 eigenvalues not converged
     ethr =  1.61E-07,  avg # of iterations = 11.2

     negative rho (up, down):  6.372E-01 0.000E+00

     total cpu time spent up to now is     3658.3 secs

     total energy              =  -14924.23984447 Ry
     Harris-Foulkes estimate   =  -14924.23976914 Ry
     estimated scf accuracy    <       0.00144553 Ry

     iteration # 29     ecut=    60.00 Ry     beta= 0.50
     Davidson diagonalization with overlap
     c_bands:  1 eigenvalues not converged
     ethr =  7.90E-08,  avg # of iterations = 13.2

     negative rho (up, down):  6.366E-01 0.000E+00

     total cpu time spent up to now is     3807.2 secs

     total energy              =  -14924.23989664 Ry
     Harris-Foulkes estimate   =  -14924.23993075 Ry
     estimated scf accuracy    <       0.00110113 Ry

     iteration # 30     ecut=    60.00 Ry     beta= 0.50
     Davidson diagonalization with overlap
     ethr =  6.02E-08,  avg # of iterations =  2.0

     negative rho (up, down):  6.348E-01 0.000E+00

     total cpu time spent up to now is     3906.7 secs

     total energy              =  -14924.23988620 Ry
     Harris-Foulkes estimate   =  -14924.23993623 Ry
     estimated scf accuracy    <       0.00038747 Ry

     iteration # 31     ecut=    60.00 Ry     beta= 0.50
     Davidson diagonalization with overlap
     ethr =  2.12E-08,  avg # of iterations =  3.8

     negative rho (up, down):  6.352E-01 0.000E+00

     total cpu time spent up to now is     4012.1 secs

     total energy              =  -14924.23990132 Ry
     Harris-Foulkes estimate   =  -14924.23990727 Ry
     estimated scf accuracy    <       0.00030247 Ry

     iteration # 32     ecut=    60.00 Ry     beta= 0.50
     Davidson diagonalization with overlap
     ethr =  1.65E-08,  avg # of iterations =  1.0

     negative rho (up, down):  6.348E-01 0.000E+00

     total cpu time spent up to now is     4107.4 secs

     total energy              =  -14924.23990447 Ry
     Harris-Foulkes estimate   =  -14924.23990648 Ry
     estimated scf accuracy    <       0.00006385 Ry

     iteration # 33     ecut=    60.00 Ry     beta= 0.50
     Davidson diagonalization with overlap
     ethr =  3.49E-09,  avg # of iterations =  3.0

     negative rho (up, down):  6.347E-01 0.000E+00

     total cpu time spent up to now is     4212.3 secs

     total energy              =  -14924.23990660 Ry
     Harris-Foulkes estimate   =  -14924.23990714 Ry
     estimated scf accuracy    <       0.00007341 Ry

     iteration # 34     ecut=    60.00 Ry     beta= 0.50
     Davidson diagonalization with overlap
     ethr =  3.49E-09,  avg # of iterations =  1.0

     negative rho (up, down):  6.349E-01 0.000E+00

     total cpu time spent up to now is     4308.2 secs

     total energy              =  -14924.23990637 Ry
     Harris-Foulkes estimate   =  -14924.23990713 Ry
     estimated scf accuracy    <       0.00002973 Ry

     iteration # 35     ecut=    60.00 Ry     beta= 0.50
     Davidson diagonalization with overlap
     ethr =  1.62E-09,  avg # of iterations =  1.0

     negative rho (up, down):  6.350E-01 0.000E+00

     total cpu time spent up to now is     4404.1 secs

     total energy              =  -14924.23990611 Ry
     Harris-Foulkes estimate   =  -14924.23990675 Ry
     estimated scf accuracy    <       0.00001981 Ry

     iteration # 36     ecut=    60.00 Ry     beta= 0.50
     Davidson diagonalization with overlap
     ethr =  1.08E-09,  avg # of iterations =  1.0

     negative rho (up, down):  6.352E-01 0.000E+00

     total cpu time spent up to now is     4500.4 secs

     total energy              =  -14924.23990578 Ry
     Harris-Foulkes estimate   =  -14924.23990638 Ry
     estimated scf accuracy    <       0.00000791 Ry

     iteration # 37     ecut=    60.00 Ry     beta= 0.50
     Davidson diagonalization with overlap
     ethr =  4.32E-10,  avg # of iterations =  1.0

     negative rho (up, down):  6.352E-01 0.000E+00

     total cpu time spent up to now is     4596.7 secs

     total energy              =  -14924.23990584 Ry
     Harris-Foulkes estimate   =  -14924.23990597 Ry
     estimated scf accuracy    <       0.00000183 Ry

     iteration # 38     ecut=    60.00 Ry     beta= 0.50
     Davidson diagonalization with overlap
     ethr =  1.00E-10,  avg # of iterations =  1.5

     negative rho (up, down):  6.352E-01 0.000E+00

     total cpu time spent up to now is     4692.9 secs

     total energy              =  -14924.23990585 Ry
     Harris-Foulkes estimate   =  -14924.23990592 Ry
     estimated scf accuracy    <       0.00000053 Ry

     iteration # 39     ecut=    60.00 Ry     beta= 0.50
     Davidson diagonalization with overlap
     ethr =  2.90E-11,  avg # of iterations =  2.8

     negative rho (up, down):  6.352E-01 0.000E+00

     total cpu time spent up to now is     4795.0 secs

     total energy              =  -14924.23990587 Ry
     Harris-Foulkes estimate   =  -14924.23990587 Ry
     estimated scf accuracy    <       0.00000055 Ry

     iteration # 40     ecut=    60.00 Ry     beta= 0.50
     Davidson diagonalization with overlap
     ethr =  2.90E-11,  avg # of iterations =  1.0

     negative rho (up, down):  6.352E-01 0.000E+00

     total cpu time spent up to now is     4891.2 secs

     total energy              =  -14924.23990587 Ry
     Harris-Foulkes estimate   =  -14924.23990587 Ry
     estimated scf accuracy    <       0.00000035 Ry

     iteration # 41     ecut=    60.00 Ry     beta= 0.50
     Davidson diagonalization with overlap
     ethr =  1.89E-11,  avg # of iterations =  1.0

     negative rho (up, down):  6.352E-01 0.000E+00

     total cpu time spent up to now is     4987.3 secs

     total energy              =  -14924.23990590 Ry
     Harris-Foulkes estimate   =  -14924.23990588 Ry
     estimated scf accuracy    <       0.00000014 Ry

     iteration # 42     ecut=    60.00 Ry     beta= 0.50
     Davidson diagonalization with overlap
     ethr =  7.56E-12,  avg # of iterations =  1.0

     negative rho (up, down):  6.351E-01 0.000E+00

     total cpu time spent up to now is     5082.4 secs

     total energy              =  -14924.23990595 Ry
     Harris-Foulkes estimate   =  -14924.23990590 Ry
     estimated scf accuracy    <       0.00000009 Ry

     iteration # 43     ecut=    60.00 Ry     beta= 0.50
     Davidson diagonalization with overlap
     ethr =  5.00E-12,  avg # of iterations =  1.0

     negative rho (up, down):  6.351E-01 0.000E+00

     total cpu time spent up to now is     5178.0 secs

     total energy              =  -14924.23990600 Ry
     Harris-Foulkes estimate   =  -14924.23990595 Ry
     estimated scf accuracy    <       0.00000007 Ry

     iteration # 44     ecut=    60.00 Ry     beta= 0.50
     Davidson diagonalization with overlap
     ethr =  4.00E-12,  avg # of iterations =  1.0

     negative rho (up, down):  6.351E-01 0.000E+00

     total cpu time spent up to now is     5273.7 secs

     total energy              =  -14924.23990601 Ry
     Harris-Foulkes estimate   =  -14924.23990600 Ry
     estimated scf accuracy    <       0.00000002 Ry

     iteration # 45     ecut=    60.00 Ry     beta= 0.50
     Davidson diagonalization with overlap
     ethr =  1.15E-12,  avg # of iterations =  1.0

     negative rho (up, down):  6.351E-01 0.000E+00

     total cpu time spent up to now is     5371.0 secs

     total energy              =  -14924.23990602 Ry
     Harris-Foulkes estimate   =  -14924.23990601 Ry
     estimated scf accuracy    <       0.00000002 Ry

     iteration # 46     ecut=    60.00 Ry     beta= 0.50
     Davidson diagonalization with overlap
     ethr =  9.23E-13,  avg # of iterations =  1.0

     negative rho (up, down):  6.351E-01 0.000E+00

     total cpu time spent up to now is     5465.6 secs

     total energy              =  -14924.23990603 Ry
     Harris-Foulkes estimate   =  -14924.23990602 Ry
     estimated scf accuracy    <       0.00000001 Ry

     iteration # 47     ecut=    60.00 Ry     beta= 0.50
     Davidson diagonalization with overlap
     ethr =  7.61E-13,  avg # of iterations =  1.0

     negative rho (up, down):  6.351E-01 0.000E+00

     total cpu time spent up to now is     5560.9 secs

     total energy              =  -14924.23990604 Ry
     Harris-Foulkes estimate   =  -14924.23990603 Ry
     estimated scf accuracy    <       0.00000001 Ry

     iteration # 48     ecut=    60.00 Ry     beta= 0.50
     Davidson diagonalization with overlap
     ethr =  5.73E-13,  avg # of iterations =  1.0

     negative rho (up, down):  6.350E-01 0.000E+00

     total cpu time spent up to now is     5654.2 secs

     End of self-consistent calculation

          k = 0.0000 0.0000 0.0000 (302239 PWs)   bands (ev):

   -38.4477 -38.4220 -38.4191 -38.4147 -38.4139 -38.4015 -38.3963 -38.1043
   -38.0511 -38.0470 -38.0407 -38.0388 -38.0336 -38.0269 -35.9881 -35.5369
   -24.9505 -24.5573 -24.5404 -24.4461 -24.4227 -24.3832 -24.3392 -24.0597
   -23.0820 -23.0526 -23.0517 -22.9713 -22.9713 -22.9565 -22.9523 -22.9461
   -22.9457 -22.9407 -22.9369 -22.9358 -22.9250 -22.9226 -22.9188 -22.9075
   -22.9065 -22.9059 -22.8886 -22.8329 -22.8025 -22.7782 -22.7638 -22.6717
   -19.0311 -18.9935 -18.9470 -18.9449 -18.9144 -18.7613 -18.7485 -18.7472
   -18.7399 -18.7347 -18.7314 -18.7299 -18.7209 -18.7203 -18.7114 -18.7028
   -18.6777 -18.6514 -18.6038 -18.5821 -18.5531 -18.5468 -18.5427 -18.5224
   -18.4246 -18.4160 -18.4093 -18.3951 -18.3905 -18.3858 -18.3691 -18.3598
   -18.3518 -18.3266 -18.3250 -18.3178 -18.2992 -18.2065 -18.1916 -18.1172
   -18.0716 -18.0572 -17.2473 -17.2184 -17.2104 -16.7880 -16.7874 -16.7646
   -15.7765 -15.4907 -15.4494 -15.2640 -15.2028 -15.1315 -15.1243 -15.1176
   -15.1055 -15.0984 -15.0963 -15.0842 -15.0834 -15.0786 -15.0738 -15.0013
   -14.9992 -14.9562 -14.9491 -14.9446 -14.9442 -14.9302 -14.9156 -14.8908
   -14.8887 -14.8849 -14.8574 -14.8454 -14.8284 -14.8269 -14.8108 -14.7948
   -14.7840 -14.7639 -14.7363 -14.7331 -14.7022 -14.6930 -14.6925 -14.6799
   -14.6772 -14.6767 -14.6723 -14.6715 -14.6292 -14.6176 -14.6148 -14.6132
   -14.6101 -14.6072 -14.5942 -14.5871 -14.5749 -14.5711 -14.5564 -14.5485
   -14.5393 -14.5348 -14.5237 -14.5181 -14.4790 -14.4732 -14.4465 -14.4430
   -14.4307 -14.4167 -14.4162 -14.4090 -14.4075 -14.4072 -14.4042 -14.4007
   -14.3950 -14.3937 -14.3436 -14.3432 -14.3347 -14.3300 -14.3024 -14.2797
   -14.2794 -14.2638 -14.2600 -14.2596 -14.2080 -14.2022 -14.1584 -14.1473
   -14.1365 -14.1256 -14.1154 -14.1116 -14.1104 -14.1030 -14.0986 -14.0813
   -14.0801 -14.0690 -14.0680 -14.0663 -14.0654 -14.0652 -14.0642 -14.0609
   -14.0592 -14.0127 -14.0095 -13.9966 -13.9964 -13.9688 -13.9358 -13.9233
   -13.9066 -13.8683 -13.8622 -13.8205 -13.8175 -13.7730 -13.6626 -13.6373
   -10.4240 -10.3658 -10.1617  -9.9400  -9.9353  -9.9125  -9.8642  -9.8456
    -9.8185  -9.8134  -9.7685  -9.7215  -9.6768  -9.5138  -9.5010  -9.4026
    -9.3895  -9.2997  -9.2708  -9.2394  -9.2089  -9.1681  -9.0621  -9.0408
    -9.0109  -8.9291  -8.9238  -8.7536  -8.7256  -8.6348  -8.5308  -8.5270
    -8.5149  -8.5033  -8.5016  -8.4978  -8.4860  -8.4744  -8.4288  -8.4257
    -8.4149  -8.4085  -8.3785  -8.3663  -8.3281  -8.3272  -8.3100  -8.2993
    -8.2908  -8.2882  -8.2835  -8.2753  -8.2610  -8.2530  -8.2502  -8.2491
    -8.2454  -8.2422  -8.2194  -8.2161  -8.2122  -8.1850  -8.1565  -8.1513
    -8.1474  -8.1423  -8.1272  -8.1113  -8.0799  -8.0515  -8.0431  -8.0391
    -8.0098  -7.9895  -7.9331  -7.9263  -7.9248  -7.9041  -7.8984  -7.8974
    -7.8965  -7.8960  -7.8897  -7.8752  -7.8697  -7.8621  -7.8446  -7.8255
    -7.7900  -7.7852  -7.7714  -7.7710  -7.7600  -7.7423  -7.6897  -7.6364
    -4.5223  -4.3370  -3.9802  -3.7320  -3.5850  -3.5452  -3.5029  -3.4475
    -3.3870  -3.3791  -3.3784  -3.3134  -3.2887  -3.2644  -3.2334  -3.2258
    -3.2199  -3.2185  -3.1775  -3.1770  -3.1746  -3.1216  -3.1019  -3.1013
    -3.0244  -3.0116  -3.0066  -3.0055  -2.9139  -2.8506  -2.8203  -2.8057
    -2.7993  -2.7992  -2.7527  -2.7213  -2.7030  -2.6189  -2.6004  -2.5762
    -2.5690  -2.5517  -2.5241  -2.5181  -2.5057  -2.4977  -2.4922  -2.4815
    -2.4610  -2.4516  -2.4430  -2.4158  -2.4150  -2.4149  -2.4033  -2.3540
    -2.3409  -2.3296  -2.3267  -2.3260  -2.3203  -2.3174  -2.3169  -2.3129
    -2.3116  -2.3108  -2.3095  -2.3066  -2.3039  -2.3020  -2.2983  -2.2978
    -2.2977  -2.2913  -2.2897  -2.2497  -2.2460  -2.2338  -2.2303  -2.2112
    -2.1994  -2.1967  -2.1901  -2.1880  -2.1832  -2.1813  -2.1723  -2.1147
    -2.1132  -2.1091  -2.1091  -2.1083  -2.1079  -2.1071  -2.1051  -2.1016
    -2.0797  -2.0796  -2.0666  -2.0441  -2.0357  -2.0255  -1.9987  -1.9820
    -1.9771  -1.9458  -1.8954  -1.8478  -1.8322  -1.8312  -1.8306  -1.8296
    -1.8176  -1.8146  -1.8071  -1.7902  -1.7901  -1.7669  -1.7660  -1.7604
    -1.7409  -1.7406  -1.7287  -1.7005  -1.6975  -1.6947  -1.6879  -1.6713
    -1.6707  -1.6673  -1.6639  -1.6464  -1.6377  -1.6188  -1.6160  -1.6026
    -1.5850  -1.5779  -1.5735  -1.5651  -1.5410  -1.5315  -1.5109  -1.5055
    -1.4925  -1.4787  -1.4712  -1.4343  -1.4099  -1.3974  -1.3768  -1.3632
    -1.3356  -1.3301  -1.3232  -1.3142  -1.3068  -1.3005  -1.2976  -1.2818
    -1.2418  -1.2271  -1.2070  -1.2047  -1.2028  -1.2010  -1.2004  -1.1946
    -1.1924  -1.1851  -1.1765  -1.1580  -1.1363  -1.1362  -1.1169  -1.1082
    -1.1051  -1.0999  -1.0867  -1.0857  -1.0834  -1.0725  -1.0698  -1.0514
    -1.0505  -1.0480  -1.0450  -1.0425  -1.0355  -1.0317  -1.0220  -1.0134
    -1.0095  -1.0090  -1.0050  -1.0000  -0.9890  -0.9680  -0.9642  -0.9606
    -0.9446  -0.9267  -0.9220  -0.9194  -0.9178  -0.8966  -0.8947  -0.8879
    -0.8790  -0.8784  -0.8751  -0.8512  -0.8468  -0.8459  -0.8327  -0.8206
    -0.8108  -0.8101  -0.8073  -0.8072  -0.7927  -0.7706  -0.7579  -0.7480
    -0.7473  -0.7456  -0.7338  -0.7121  -0.7119  -0.6940  -0.6876  -0.6838
    -0.6742  -0.6424  -0.5884  -0.5816  -0.5726  -0.5620  -0.5614  -0.5544
    -0.5514  -0.5348  -0.5328  -0.5316  -0.5174  -0.5038  -0.5035  -0.5005
    -0.4991  -0.4990  -0.4746  -0.4681  -0.4601  -0.4558  -0.4539  -0.4513
    -0.4373  -0.4330  -0.4268  -0.4128  -0.4100  -0.4057  -0.3915  -0.3896
    -0.3893  -0.3873  -0.3814  -0.3731  -0.3542  -0.3530  -0.3374  -0.3229
    -0.3099  -0.2875  -0.2854  -0.2634  -0.2550  -0.2550  -0.2423  -0.2380
    -0.2287  -0.2230  -0.2146  -0.1956  -0.1912  -0.1530  -0.1476  -0.1405
    -0.1323  -0.1302  -0.1206  -0.1204  -0.1065  -0.1040  -0.0885  -0.0872
    -0.0660  -0.0611  -0.0559  -0.0453  -0.0341   0.0094   0.0211   0.0229
     0.0257   0.0267   0.0494   0.0575   0.0596   0.0839   0.0851   0.0861
     0.0867   0.0963   0.1056   0.1095   0.1323   0.1347   0.1371   0.1406
     0.1424   0.1505   0.1638   0.1675   0.1797   0.1798   0.1817   0.1858
     0.1881   0.1896   0.1959   0.2050   0.2265   0.2309   0.2351   0.2463
     0.2485   0.2489   0.2955   0.2996   0.3116   0.3425   0.3466   0.3498
     0.3500   0.3557   0.3609   0.3656   0.3711   0.3731   0.3734   0.3757
     0.3776   0.3798   0.3839   0.3942   0.4012   0.4424   0.4516   0.4524
     0.4530   0.4540   0.4617   0.4627   0.4641   0.4708   0.4734   0.4739
     0.4940   0.5009   0.5107   0.5177   0.5312   0.5352   0.5473   0.5522
     0.5600   0.6339   0.6417   0.6941   0.7064   0.7102   0.7192   0.7323
     0.7393   0.7409   0.7661   0.7716   0.7975   0.8018   0.8031   0.8242
     0.8315   0.8379   0.8696   0.8734   0.8801   0.8812   0.8813   0.8833
     0.8856   0.8884   0.8891   0.8979   0.9025   0.9036   0.9085   0.9123
     0.9191   0.9258   0.9329   0.9370   0.9544   0.9548   0.9711   0.9756
     0.9796   0.9896   0.9931   0.9978   1.0086   1.0120   1.0128   1.0137
     1.0169   1.0171   1.0180   1.0182   1.0212   1.0267   1.0273   1.0318
     1.0330   1.0346   1.0356   1.0448   1.0457   1.0507   1.0518   1.0574
     1.0581   1.0685   1.0717   1.0784   1.0920   1.0935   1.1003   1.1026
     1.1029   1.1149   1.1235   1.1265   1.1353   1.1460   1.1506   1.1527
     1.1541   1.1562   1.1620   1.1626   1.1645   1.1671   1.1704   1.1709
     1.1729   1.1810   1.1885   1.1968   1.1987   1.2002   1.2015   1.2029
     1.2131   1.2224   1.2341   1.2399   1.2403   1.2449   1.2515   1.2526
     1.2592   1.2634   1.2691   1.2739   1.2822   1.2825   1.2831   1.2961
     1.3043   1.3065   1.3265   1.3308   1.3311   1.3422   1.3566   1.3686
     1.3744   1.3832   1.3856   1.4276   1.4301   1.4325   1.4393   1.4491
     1.4511   1.4514   1.4519   1.4569   1.4606   1.5065   1.5175   1.5179
     1.5251   1.5315   1.5452   1.5462   1.5491   1.5524   1.5539   1.5643
     1.5794   1.5817   1.5823   1.5891   1.5895   1.5964   1.6094   1.6187
     1.6198   1.6374   1.6732   1.6741   1.6796   1.6844   1.6851   1.6947
     1.6970   1.6989   1.6995   1.7006   1.7081   1.7119   1.7232   1.7252
     1.7260   1.7301   1.7424   1.7433   1.7507   1.7586   1.7691   1.7716
     1.7757   1.7871   1.7885   1.8094   1.8103   1.8143   1.8150   1.8159
     1.8198   1.8216   1.8245   1.8262   1.8267   1.8376   1.8436   1.8719
     1.8728   1.8796   1.8850   1.9052   1.9123   1.9208   1.9469   1.9622
     1.9766   1.9941   2.0441   2.0524   2.0572   2.0611   2.0806   2.1005
     2.1196   2.1605   2.1801   2.1827   2.2029   2.2057   2.2187   2.3034
     2.3112   2.3209   2.3240   2.3254   2.3267   2.3640   2.4938   2.4945
     2.6148   2.6221   2.6503   2.6510   2.7625   2.7776   2.8985   2.9086
     2.9139   2.9145   2.9168   2.9203   2.9241   2.9269   3.0150   3.0455
     3.0560   3.0572   3.0641   3.0757   3.1147   3.1220   3.1317   3.1762
     3.2002   3.2400   3.2467   3.2473   3.2967   3.3120   3.4336   3.4625
     3.4712   3.4795   3.6935   3.7766   3.8650   4.4229   4.4633   4.5234
     4.5365   4.7150   4.7473   4.7920   4.7977   4.8722   4.8763   4.9589
     4.9776   5.3720   5.4878   5.4951   5.5162   5.5317   5.5576   5.5636
     5.6246   5.7478   5.7647   5.8100   5.8624   6.0064   6.1824   6.1901
     6.2811   6.2880   6.3582   6.3673   6.3689   6.3691   6.3735   6.3746
     6.3783   6.3862   6.3866   6.3877   6.4024   6.4065   6.4439   6.4448
     6.4993   6.5912   6.7938   6.7943   6.8597   6.8918   6.9109   6.9243
     6.9312   6.9657   6.9984   7.0214   7.0373   7.0426   7.0907   7.0918
     7.0998   7.1046   7.1421   7.1571   7.1770   7.2035   7.2775   7.2917
     7.2969   7.3089   7.3602   7.3765   7.3943   7.4058   7.4678   7.4962
     7.5112   7.5911   7.6052   7.6167   7.6308   7.6787   7.7030   7.7049
     7.7543   7.7711   7.7739   7.7893   7.7954   7.7993   7.8044   7.8303
     7.8724   7.8884   7.9905   7.9938   7.9990   8.0100   8.0192   8.0202
     8.0240   8.0303   8.0414   8.0440   8.0516   8.0570   8.0873   8.1160
     8.1982   8.2192   8.2467   8.2777   8.2874   8.2966   8.3295   8.3354
     8.3892   8.3985   8.4136   8.4152   8.4263   8.4477   8.4546   8.4581
     8.5237   8.5300   8.5610   8.5957   8.5980   8.6010   8.6047   8.6207
     8.6270   8.6388   8.6424   8.6455   8.6619   8.6729   8.6804   8.6921
     8.7058   8.7065   8.7296   8.7402   8.7490   8.7503   8.7620   8.7644
     8.7738   8.8019

          k = 0.2326 0.2390 0.0000 (302207 PWs)   bands (ev):

   -38.4477 -38.4215 -38.4198 -38.4148 -38.4142 -38.4000 -38.3974 -38.1043
   -38.0502 -38.0482 -38.0405 -38.0398 -38.0313 -38.0281 -35.9881 -35.5369
   -24.9503 -24.5544 -24.5431 -24.4436 -24.4338 -24.3674 -24.3468 -24.0598
   -23.0638 -23.0403 -23.0334 -23.0156 -22.9976 -22.9852 -22.9609 -22.9569
   -22.9457 -22.9318 -22.9309 -22.9298 -22.9267 -22.9231 -22.9106 -22.9016
   -22.8928 -22.8875 -22.8571 -22.8472 -22.8167 -22.7792 -22.7589 -22.6737
   -18.9964 -18.9619 -18.9444 -18.9206 -18.9129 -18.8932 -18.8610 -18.8297
   -18.7494 -18.7411 -18.7245 -18.7228 -18.7090 -18.6436 -18.6318 -18.6208
   -18.6012 -18.5975 -18.5804 -18.5789 -18.5462 -18.5418 -18.5397 -18.5338
   -18.5295 -18.5154 -18.4702 -18.4635 -18.4320 -18.3917 -18.3713 -18.3498
   -18.3170 -18.3051 -18.2432 -18.2284 -18.2262 -18.2003 -18.1837 -18.1417
   -18.1176 -18.1056 -17.2475 -17.2202 -17.2118 -16.7903 -16.7886 -16.7648
   -15.6759 -15.4106 -15.4003 -15.3991 -15.2926 -15.2155 -15.1649 -15.1579
   -15.1533 -15.0995 -15.0850 -15.0740 -15.0725 -15.0186 -14.9939 -14.9889
   -14.9782 -14.9739 -14.9730 -14.9493 -14.9430 -14.9278 -14.9014 -14.8813
   -14.8805 -14.8746 -14.8441 -14.8321 -14.8189 -14.8176 -14.7957 -14.7704
   -14.7693 -14.7689 -14.7611 -14.7267 -14.7242 -14.7000 -14.6974 -14.6919
   -14.6787 -14.6753 -14.6712 -14.6664 -14.6399 -14.6325 -14.6310 -14.6299
   -14.6010 -14.5966 -14.5911 -14.5776 -14.5566 -14.5466 -14.5422 -14.5380
   -14.5287 -14.5218 -14.5174 -14.4905 -14.4809 -14.4789 -14.4709 -14.4586
   -14.4508 -14.4454 -14.4395 -14.4268 -14.4162 -14.4133 -14.4011 -14.3933
   -14.3778 -14.3766 -14.3714 -14.3507 -14.3480 -14.3300 -14.3281 -14.3143
   -14.2992 -14.2534 -14.2472 -14.1990 -14.1855 -14.1791 -14.1635 -14.1432
   -14.1317 -14.1155 -14.1089 -14.1075 -14.1054 -14.1039 -14.0995 -14.0921
   -14.0827 -14.0760 -14.0735 -14.0706 -14.0520 -14.0504 -14.0494 -14.0289
   -14.0272 -14.0263 -14.0205 -14.0168 -14.0014 -14.0004 -13.9665 -13.9418
   -13.9050 -13.8747 -13.8561 -13.8355 -13.8179 -13.7821 -13.6783 -13.6417
   -10.3689 -10.3366 -10.1030 -10.0271  -9.9427  -9.9278  -9.8335  -9.8176
    -9.7725  -9.7279  -9.7013  -9.6872  -9.6568  -9.6071  -9.5350  -9.4389
    -9.3925  -9.3264  -9.3217  -9.2644  -9.2316  -9.1961  -9.0757  -8.9544
    -8.9335  -8.9038  -8.8196  -8.7373  -8.7081  -8.6340  -8.6265  -8.6058
    -8.5220  -8.4258  -8.3966  -8.3960  -8.3763  -8.3698  -8.3630  -8.3396
    -8.3341  -8.3289  -8.3239  -8.3201  -8.3133  -8.2930  -8.2909  -8.2870
    -8.2732  -8.2698  -8.2682  -8.2626  -8.2538  -8.2450  -8.2421  -8.2391
    -8.2383  -8.2348  -8.2274  -8.2218  -8.2208  -8.2068  -8.1965  -8.1964
    -8.1898  -8.1860  -8.1785  -8.1647  -8.1628  -8.1386  -8.1195  -8.1117
    -8.0906  -8.0464  -8.0158  -8.0079  -7.9793  -7.9677  -7.9388  -7.9266
    -7.9193  -7.8903  -7.8822  -7.8788  -7.8578  -7.8531  -7.8402  -7.8364
    -7.8291  -7.8287  -7.8113  -7.8055  -7.8002  -7.7542  -7.7304  -7.6775
    -4.3616  -4.1791  -3.9279  -3.8354  -3.7542  -3.6254  -3.4909  -3.4770
    -3.4570  -3.4387  -3.4107  -3.4005  -3.3170  -3.3081  -3.2970  -3.2791
    -3.2258  -3.2166  -3.2043  -3.1709  -3.1117  -3.0917  -3.0661  -3.0650
    -3.0184  -3.0148  -2.9991  -2.9983  -2.8687  -2.8289  -2.7528  -2.7446
    -2.7311  -2.7242  -2.7217  -2.7165  -2.7062  -2.7041  -2.6880  -2.6738
    -2.6594  -2.6245  -2.5881  -2.5765  -2.5729  -2.5092  -2.4937  -2.4755
    -2.4363  -2.4236  -2.4117  -2.3901  -2.3701  -2.3649  -2.3574  -2.3544
    -2.3497  -2.3444  -2.3327  -2.3277  -2.3201  -2.3161  -2.3160  -2.3091
    -2.3004  -2.2983  -2.2981  -2.2940  -2.2859  -2.2835  -2.2827  -2.2703
    -2.2498  -2.2387  -2.2241  -2.2177  -2.2111  -2.2095  -2.2088  -2.2057
    -2.2035  -2.2006  -2.1990  -2.1970  -2.1942  -2.1921  -2.1852  -2.1814
    -2.1803  -2.1758  -2.1647  -2.1507  -2.1285  -2.1236  -2.1132  -2.1088
    -2.0378  -2.0259  -2.0056  -1.9947  -1.9870  -1.9765  -1.9676  -1.9504
    -1.9301  -1.9157  -1.9143  -1.9124  -1.9100  -1.8863  -1.8613  -1.8536
    -1.8407  -1.8248  -1.8236  -1.8153  -1.7962  -1.7748  -1.7551  -1.7491
    -1.7270  -1.6975  -1.6899  -1.6835  -1.6747  -1.6607  -1.6597  -1.6557
    -1.6449  -1.6297  -1.6279  -1.6176  -1.6117  -1.5969  -1.5955  -1.5831
    -1.5772  -1.5557  -1.5480  -1.5317  -1.5298  -1.5225  -1.5149  -1.4912
    -1.4409  -1.4376  -1.4267  -1.4245  -1.3890  -1.3697  -1.3526  -1.3391
    -1.3170  -1.3138  -1.3125  -1.2975  -1.2843  -1.2688  -1.2675  -1.2442
    -1.2351  -1.2184  -1.2143  -1.2111  -1.1966  -1.1875  -1.1780  -1.1733
    -1.1651  -1.1601  -1.1535  -1.1392  -1.1294  -1.1240  -1.1213  -1.1157
    -1.1047  -1.1015  -1.0974  -1.0961  -1.0882  -1.0844  -1.0776  -1.0758
    -1.0695  -1.0426  -1.0389  -1.0338  -1.0304  -1.0121  -1.0117  -1.0010
    -0.9950  -0.9870  -0.9867  -0.9742  -0.9730  -0.9562  -0.9467  -0.9448
    -0.9435  -0.9362  -0.9339  -0.9289  -0.9255  -0.9168  -0.9165  -0.9056
    -0.8823  -0.8677  -0.8661  -0.8585  -0.8364  -0.8319  -0.8250  -0.8242
    -0.8144  -0.8053  -0.8010  -0.7920  -0.7767  -0.7614  -0.7597  -0.7519
    -0.7508  -0.7402  -0.7399  -0.7174  -0.7057  -0.7049  -0.7001  -0.6992
    -0.6911  -0.6859  -0.6827  -0.6729  -0.6692  -0.6485  -0.6291  -0.6075
    -0.6050  -0.5989  -0.5951  -0.5756  -0.5576  -0.5503  -0.5336  -0.5329
    -0.5234  -0.4841  -0.4759  -0.4589  -0.4279  -0.4251  -0.4243  -0.4174
    -0.4105  -0.3879  -0.3850  -0.3829  -0.3729  -0.3699  -0.3581  -0.3581
    -0.3447  -0.3316  -0.3186  -0.3027  -0.2982  -0.2898  -0.2801  -0.2742
    -0.2726  -0.2704  -0.2650  -0.2606  -0.2567  -0.2557  -0.2450  -0.2278
    -0.2243  -0.2074  -0.1936  -0.1688  -0.1650  -0.1547  -0.1138  -0.1100
    -0.1020  -0.0977  -0.0722  -0.0711  -0.0624  -0.0511  -0.0338  -0.0284
    -0.0225  -0.0178   0.0015   0.0064   0.0346   0.0349   0.0397   0.0569
     0.0587   0.0622   0.0694   0.0728   0.0826   0.0853   0.0909   0.0989
     0.1080   0.1090   0.1155   0.1186   0.1242   0.1306   0.1378   0.1429
     0.1430   0.1453   0.1587   0.1608   0.1710   0.1729   0.1765   0.1791
     0.1945   0.2076   0.2099   0.2145   0.2214   0.2366   0.2370   0.2493
     0.2541   0.2690   0.2697   0.2824   0.2938   0.2998   0.3003   0.3061
     0.3085   0.3120   0.3167   0.3172   0.3306   0.3368   0.3417   0.3538
     0.3546   0.3552   0.3593   0.3661   0.3737   0.3775   0.4070   0.4212
     0.4323   0.4518   0.4534   0.4582   0.4663   0.4758   0.4939   0.4957
     0.5078   0.5125   0.5251   0.5526   0.5589   0.5821   0.6110   0.6128
     0.6293   0.6376   0.6422   0.6606   0.6745   0.6749   0.6794   0.6834
     0.6854   0.6967   0.7098   0.7177   0.7301   0.7459   0.7504   0.7604
     0.7753   0.7786   0.7790   0.7848   0.8009   0.8152   0.8219   0.8287
     0.8329   0.8558   0.8611   0.8697   0.8734   0.8760   0.8837   0.8957
     0.9015   0.9050   0.9057   0.9061   0.9098   0.9130   0.9194   0.9197
     0.9279   0.9291   0.9313   0.9501   0.9600   0.9620   0.9708   0.9824
     0.9923   0.9947   0.9980   1.0095   1.0165   1.0252   1.0311   1.0340
     1.0368   1.0388   1.0417   1.0436   1.0580   1.0599   1.0677   1.0748
     1.0769   1.0940   1.0972   1.0988   1.1044   1.1092   1.1102   1.1139
     1.1201   1.1267   1.1274   1.1313   1.1379   1.1435   1.1472   1.1487
     1.1548   1.1576   1.1613   1.1646   1.1724   1.1726   1.1786   1.1804
     1.1835   1.1864   1.1865   1.1995   1.2005   1.2088   1.2121   1.2128
     1.2166   1.2250   1.2333   1.2353   1.2369   1.2429   1.2465   1.2628
     1.2664   1.2725   1.2893   1.2968   1.3054   1.3077   1.3130   1.3221
     1.3275   1.3321   1.3395   1.3397   1.3451   1.3576   1.3803   1.3865
     1.3905   1.3957   1.4012   1.4119   1.4251   1.4280   1.4377   1.4418
     1.4478   1.4497   1.4509   1.4624   1.4719   1.4869   1.4884   1.4996
     1.5092   1.5206   1.5227   1.5301   1.5372   1.5420   1.5519   1.5555
     1.5611   1.5638   1.5707   1.5769   1.5804   1.5834   1.5842   1.5860
     1.5863   1.5969   1.5997   1.6036   1.6131   1.6160   1.6297   1.6310
     1.6401   1.6423   1.6507   1.6514   1.6582   1.6857   1.6870   1.6879
     1.6914   1.7043   1.7209   1.7279   1.7309   1.7343   1.7549   1.7761
     1.7792   1.7819   1.7948   1.7985   1.8197   1.8255   1.8361   1.8374
     1.8531   1.8679   1.8682   1.8697   1.8861   1.9146   1.9311   1.9418
     1.9762   1.9857   2.0005   2.0063   2.0109   2.0263   2.0449   2.0474
     2.0525   2.0545   2.0689   2.0768   2.0959   2.1629   2.1654   2.1702
     2.1878   2.2423   2.2446   2.2602   2.2892   2.3119   2.3399   2.3733
     2.3899   2.4046   2.4086   2.4091   2.4552   2.5064   2.5087   2.5129
     2.5431   2.5964   2.6109   2.6879   2.7296   2.7392   2.7408   2.7445
     2.7583   2.7583   2.7786   2.7827   2.8039   2.8151   2.8181   2.8398
     2.8547   2.8630   2.8736   2.8860   2.8916   2.8937   2.9242   2.9368
     3.0251   3.0723   3.1793   3.2712   3.5035   3.5654   3.7078   3.7407
     3.7701   3.7953   3.8349   3.8370   4.0501   4.2472   4.2564   4.3054
     4.3266   4.5452   4.6046   4.8735   4.9181   4.9793   5.0785   5.2085
     5.2164   5.2205   5.2422   5.4548   5.5675   5.6636   5.7478   5.7510
     5.7653   5.7756   5.8032   5.8098   5.8329   5.9146   5.9912   6.0754
     6.1025   6.2479   6.2548   6.2679   6.2718   6.2853   6.2935   6.2969
     6.3109   6.3370   6.3593   6.4055   6.4479   6.5042   6.5477   6.5572
     6.5914   6.6121   6.6450   6.6501   6.6756   6.7564   6.7741   6.7835
     6.9218   6.9431   7.0136   7.0256   7.0521   7.0635   7.0697   7.1226
     7.1830   7.2118   7.2382   7.2422   7.2771   7.2834   7.3069   7.3164
     7.3325   7.3444   7.3552   7.3710   7.3888   7.3964   7.4092   7.4389
     7.4459   7.4575   7.5046   7.5259   7.5585   7.6013   7.6125   7.6256
     7.6467   7.6540   7.7081   7.7343   7.8004   7.8117   7.8298   7.8527
     7.8641   7.8947   7.9152   7.9283   7.9439   7.9513   7.9759   8.0096
     8.0279   8.0302   8.0539   8.1139   8.1430   8.1726   8.1821   8.2156
     8.2189   8.2426   8.2590   8.2743   8.3225   8.3527   8.3595   8.3717
     8.3827   8.4081   8.4122   8.4217   8.4461   8.4618   8.4678   8.4891
     8.5001   8.5236   8.5358   8.5526   8.5676   8.5848   8.5936   8.6246
     8.6273   8.6331   8.6480   8.6655   8.6812   8.7021   8.7205   8.7248
     8.7298   8.7586   8.7893   8.7969   8.8100   8.8296   8.8443   8.8497
     8.8722   8.8820

          k = 0.0000 0.4779 0.0000 (302101 PWs)   bands (ev):

   -38.4476 -38.4216 -38.4197 -38.4158 -38.4132 -38.3990 -38.3983 -38.1043
   -38.0501 -38.0483 -38.0420 -38.0384 -38.0306 -38.0288 -35.9881 -35.5369
   -24.9502 -24.5568 -24.5385 -24.4566 -24.4232 -24.3659 -24.3481 -24.0597
   -23.0445 -23.0307 -23.0147 -23.0141 -23.0042 -23.0017 -22.9844 -22.9736
   -22.9679 -22.9628 -22.9375 -22.9265 -22.9182 -22.9051 -22.8907 -22.8878
   -22.8843 -22.8622 -22.8605 -22.8538 -22.8317 -22.7763 -22.7596 -22.6743
   -18.9919 -18.9874 -18.9505 -18.9201 -18.8947 -18.8919 -18.8412 -18.8042
   -18.7476 -18.7413 -18.7323 -18.7255 -18.7068 -18.6550 -18.6445 -18.6374
   -18.6105 -18.6084 -18.5924 -18.5887 -18.5688 -18.5461 -18.5377 -18.5340
   -18.5049 -18.4650 -18.4425 -18.4251 -18.4139 -18.3981 -18.3810 -18.3790
   -18.3593 -18.3192 -18.2570 -18.2336 -18.2104 -18.2017 -18.1834 -18.1641
   -18.1065 -18.0720 -17.2474 -17.2204 -17.2108 -16.7894 -16.7885 -16.7647
   -15.5977 -15.3872 -15.3499 -15.3320 -15.3303 -15.3159 -15.2570 -15.2142
   -15.1499 -15.1377 -15.1181 -15.1163 -15.0275 -15.0207 -15.0067 -15.0066
   -14.9816 -14.9692 -14.9605 -14.9516 -14.9373 -14.9192 -14.8582 -14.8502
   -14.8456 -14.8447 -14.8362 -14.8336 -14.7930 -14.7807 -14.7784 -14.7746
   -14.7739 -14.7669 -14.7579 -14.7481 -14.7356 -14.7282 -14.7079 -14.6981
   -14.6727 -14.6667 -14.6436 -14.6405 -14.6247 -14.6182 -14.6118 -14.6116
   -14.6029 -14.5931 -14.5890 -14.5787 -14.5695 -14.5502 -14.5445 -14.5409
   -14.5359 -14.5274 -14.5228 -14.5120 -14.4947 -14.4801 -14.4732 -14.4721
   -14.4578 -14.4544 -14.4292 -14.4231 -14.4151 -14.4019 -14.3957 -14.3925
   -14.3903 -14.3876 -14.3782 -14.3714 -14.3549 -14.3386 -14.3325 -14.3103
   -14.3070 -14.2663 -14.2273 -14.2172 -14.2030 -14.1920 -14.1444 -14.1403
   -14.1223 -14.1190 -14.1103 -14.1097 -14.1036 -14.1029 -14.1014 -14.0991
   -14.0683 -14.0636 -14.0614 -14.0611 -14.0548 -14.0460 -14.0329 -14.0324
   -14.0266 -14.0187 -14.0172 -14.0133 -14.0125 -14.0074 -14.0062 -13.9249
   -13.9061 -13.8770 -13.8658 -13.8454 -13.8309 -13.7867 -13.6951 -13.6452
   -10.3715 -10.2245 -10.0513  -9.9825  -9.9390  -9.9211  -9.8794  -9.8253
    -9.8060  -9.7249  -9.6859  -9.6660  -9.6447  -9.5230  -9.5028  -9.4815
    -9.4285  -9.3887  -9.3432  -9.2900  -9.2771  -9.2319  -9.0902  -8.9804
    -8.7753  -8.7455  -8.6725  -8.6335  -8.6235  -8.6043  -8.5942  -8.5503
    -8.5370  -8.5223  -8.5215  -8.4420  -8.3960  -8.3748  -8.3575  -8.3492
    -8.3275  -8.3203  -8.3095  -8.3075  -8.2965  -8.2882  -8.2862  -8.2753
    -8.2609  -8.2554  -8.2381  -8.2352  -8.2303  -8.2287  -8.2241  -8.2066
    -8.2060  -8.2046  -8.1977  -8.1930  -8.1814  -8.1735  -8.1639  -8.1585
    -8.1484  -8.1344  -8.1313  -8.1254  -8.1196  -8.1181  -8.1180  -8.1020
    -8.0970  -8.0962  -8.0919  -8.0885  -8.0737  -8.0561  -8.0501  -8.0443
    -8.0381  -8.0075  -7.9887  -7.9790  -7.9734  -7.9242  -7.9182  -7.8538
    -7.8335  -7.8264  -7.8249  -7.8047  -7.7973  -7.7616  -7.7256  -7.6857
    -4.1952  -4.0141  -3.9121  -3.8552  -3.7582  -3.7081  -3.6869  -3.5782
    -3.5661  -3.5339  -3.4458  -3.4225  -3.4104  -3.3461  -3.2507  -3.2411
    -3.2380  -3.1934  -3.1805  -3.0819  -3.0534  -3.0339  -3.0333  -3.0286
    -3.0257  -3.0172  -2.8842  -2.8697  -2.8065  -2.8013  -2.7894  -2.7632
    -2.7590  -2.7587  -2.7408  -2.6941  -2.6863  -2.6856  -2.6719  -2.6650
    -2.6585  -2.6140  -2.6049  -2.5966  -2.5500  -2.5248  -2.5116  -2.4774
    -2.4690  -2.4203  -2.4113  -2.4030  -2.4028  -2.3864  -2.3673  -2.3392
    -2.3224  -2.3199  -2.3175  -2.3068  -2.2952  -2.2894  -2.2889  -2.2812
    -2.2768  -2.2738  -2.2655  -2.2650  -2.2487  -2.2467  -2.2429  -2.2399
    -2.2345  -2.2312  -2.2278  -2.2270  -2.2256  -2.2244  -2.2109  -2.2104
    -2.2086  -2.2016  -2.1999  -2.1946  -2.1916  -2.1901  -2.1785  -2.1750
    -2.1658  -2.1613  -2.1607  -2.1597  -2.1286  -2.1258  -2.1087  -2.0991
    -2.0971  -2.0865  -2.0853  -2.0806  -2.0426  -2.0250  -2.0210  -2.0109
    -2.0100  -1.9655  -1.9555  -1.9431  -1.9134  -1.8959  -1.8869  -1.8772
    -1.8662  -1.8651  -1.8651  -1.8587  -1.8548  -1.8460  -1.8362  -1.8333
    -1.8210  -1.8037  -1.7975  -1.7436  -1.7095  -1.6860  -1.6810  -1.6770
    -1.6541  -1.6459  -1.6372  -1.6345  -1.6329  -1.6242  -1.6206  -1.6202
    -1.6127  -1.5850  -1.5398  -1.4916  -1.4792  -1.4427  -1.4324  -1.4185
    -1.3872  -1.3781  -1.3750  -1.3676  -1.3403  -1.3222  -1.2855  -1.2738
    -1.2604  -1.2603  -1.2481  -1.2430  -1.2346  -1.2281  -1.2257  -1.2157
    -1.2114  -1.1943  -1.1910  -1.1773  -1.1735  -1.1600  -1.1527  -1.1465
    -1.1404  -1.1334  -1.1124  -1.1008  -1.0978  -1.0975  -1.0952  -1.0859
    -1.0794  -1.0686  -1.0566  -1.0477  -1.0347  -1.0324  -1.0223  -1.0198
    -1.0156  -1.0109  -0.9994  -0.9861  -0.9860  -0.9850  -0.9774  -0.9759
    -0.9704  -0.9656  -0.9502  -0.9386  -0.9365  -0.9325  -0.9298  -0.9266
    -0.9264  -0.9125  -0.9061  -0.9060  -0.8969  -0.8918  -0.8915  -0.8685
    -0.8677  -0.8572  -0.8523  -0.8334  -0.8264  -0.8263  -0.8174  -0.8086
    -0.7982  -0.7955  -0.7822  -0.7809  -0.7802  -0.7705  -0.7570  -0.7473
    -0.7384  -0.7345  -0.7295  -0.7279  -0.7231  -0.7196  -0.6937  -0.6899
    -0.6815  -0.6777  -0.6765  -0.6552  -0.6416  -0.6237  -0.6214  -0.6182
    -0.6078  -0.6032  -0.5973  -0.5916  -0.5904  -0.5741  -0.5612  -0.5393
    -0.5317  -0.5281  -0.5083  -0.4873  -0.4818  -0.4776  -0.4719  -0.4588
    -0.4585  -0.4494  -0.4392  -0.4291  -0.4282  -0.3882  -0.3799  -0.3612
    -0.3527  -0.3499  -0.3375  -0.3260  -0.3192  -0.3018  -0.2957  -0.2767
    -0.2658  -0.2482  -0.2184  -0.2178  -0.2145  -0.2111  -0.2006  -0.1986
    -0.1919  -0.1912  -0.1909  -0.1799  -0.1693  -0.1597  -0.1555  -0.1352
    -0.1118  -0.0931  -0.0885  -0.0453  -0.0374  -0.0320  -0.0318  -0.0273
    -0.0126  -0.0059   0.0061   0.0069   0.0097   0.0117   0.0192   0.0467
     0.0480   0.0540   0.0593   0.0599   0.0633   0.0728   0.0799   0.0911
     0.0997   0.1005   0.1021   0.1122   0.1192   0.1371   0.1461   0.1538
     0.1631   0.1640   0.1654   0.1688   0.1879   0.1922   0.1967   0.2066
     0.2097   0.2132   0.2203   0.2240   0.2328   0.2429   0.2440   0.2461
     0.2684   0.2825   0.2926   0.2927   0.2980   0.2981   0.3042   0.3111
     0.3261   0.3361   0.3365   0.3507   0.3512   0.3646   0.3649   0.3763
     0.3791   0.3802   0.3816   0.3891   0.4023   0.4041   0.4131   0.4241
     0.4423   0.4566   0.4782   0.4842   0.4876   0.4883   0.5158   0.5274
     0.5394   0.5482   0.5532   0.5587   0.5694   0.5865   0.5905   0.5982
     0.6078   0.6080   0.6101   0.6145   0.6191   0.6222   0.6228   0.6275
     0.6427   0.6703   0.6713   0.6822   0.7145   0.7488   0.7574   0.7585
     0.7595   0.7622   0.7695   0.7873   0.8039   0.8167   0.8236   0.8310
     0.8349   0.8357   0.8390   0.8652   0.8656   0.8701   0.8795   0.8897
     0.8912   0.8928   0.8962   0.8996   0.8999   0.9022   0.9118   0.9208
     0.9216   0.9286   0.9444   0.9563   0.9687   0.9758   0.9842   0.9843
     0.9937   0.9996   1.0036   1.0086   1.0093   1.0144   1.0199   1.0208
     1.0307   1.0380   1.0413   1.0437   1.0470   1.0517   1.0532   1.0579
     1.0614   1.0659   1.0704   1.0774   1.0869   1.0982   1.1166   1.1174
     1.1287   1.1421   1.1431   1.1441   1.1458   1.1504   1.1535   1.1566
     1.1665   1.1675   1.1711   1.1740   1.1857   1.1903   1.2017   1.2078
     1.2191   1.2235   1.2246   1.2330   1.2368   1.2383   1.2507   1.2538
     1.2667   1.2689   1.2714   1.2834   1.2834   1.2989   1.3043   1.3087
     1.3104   1.3125   1.3178   1.3188   1.3213   1.3227   1.3235   1.3267
     1.3284   1.3285   1.3393   1.3550   1.3551   1.3558   1.3662   1.3695
     1.3748   1.3750   1.3821   1.3882   1.3924   1.3928   1.3995   1.4065
     1.4125   1.4268   1.4334   1.4345   1.4482   1.4511   1.4551   1.4638
     1.4659   1.4692   1.4728   1.4783   1.4880   1.4934   1.4968   1.5117
     1.5134   1.5277   1.5347   1.5496   1.5569   1.5574   1.5600   1.5727
     1.5851   1.5912   1.6030   1.6059   1.6073   1.6170   1.6275   1.6293
     1.6347   1.6383   1.6476   1.6494   1.6497   1.6548   1.6665   1.6690
     1.6724   1.6832   1.6834   1.6971   1.7018   1.7029   1.7093   1.7257
     1.7489   1.7694   1.7736   1.7784   1.7880   1.7967   1.8061   1.8129
     1.8227   1.8438   1.8519   1.8580   1.8663   1.8721   1.8844   1.8910
     1.9048   1.9276   1.9420   1.9552   1.9782   1.9856   2.0240   2.0274
     2.0281   2.0325   2.0362   2.0623   2.0840   2.1096   2.1352   2.1693
     2.1924   2.2139   2.2141   2.2401   2.2604   2.2674   2.3306   2.3308
     2.3322   2.3325   2.3415   2.3480   2.3541   2.4049   2.4569   2.4825
     2.5857   2.5916   2.6141   2.6289   2.7178   2.7258   2.7526   2.7567
     2.7662   2.7698   2.7719   2.7758   2.7882   2.7884   2.8006   2.8161
     2.8841   2.8892   2.9349   2.9449   2.9604   2.9993   3.1587   3.3233
     3.3592   3.3744   3.4364   3.4542   3.5187   3.5349   3.5403   3.5810
     3.7440   3.7445   3.7527   3.8020   3.9722   4.0589   4.1101   4.1413
     4.3212   4.3610   4.4016   4.7269   4.8116   5.1244   5.1824   5.2663
     5.4486   5.5754   5.5946   5.5963   5.6043   5.7147   5.7157   5.7206
     5.7220   5.7275   5.7990   5.8248   5.8715   5.9238   5.9336   5.9497
     6.0176   6.0274   6.1160   6.1965   6.2214   6.3341   6.3649   6.3876
     6.4191   6.4702   6.4783   6.5029   6.5199   6.5206   6.5396   6.5410
     6.5537   6.5882   6.5959   6.6367   6.6960   6.7134   6.7367   6.7675
     6.8081   6.8284   6.8642   6.8856   6.8893   6.9262   6.9797   6.9919
     7.0572   7.0716   7.0894   7.0943   7.1367   7.1561   7.1720   7.2018
     7.2796   7.2863   7.3504   7.3648   7.3860   7.4056   7.4077   7.4631
     7.4973   7.5094   7.5611   7.5989   7.6312   7.6368   7.6386   7.6537
     7.6939   7.7180   7.7282   7.7356   7.7376   7.8064   7.8860   7.8962
     7.9161   7.9265   7.9341   7.9472   7.9622   7.9843   7.9892   8.0148
     8.0370   8.0410   8.0777   8.1451   8.1750   8.1922   8.2290   8.2468
     8.2533   8.2854   8.2920   8.3119   8.3192   8.3387   8.3621   8.4055
     8.4066   8.4316   8.4433   8.4853   8.4906   8.5077   8.5133   8.5209
     8.5360   8.5419   8.5588   8.5845   8.6024   8.6125   8.6175   8.6241
     8.6341   8.6421   8.6639   8.6647   8.6702   8.6898   8.7213   8.7361
     8.7706   8.7723   8.7889   8.8134   8.8162   8.8389   8.8654   8.8832
     8.9052   8.9070

          k =-0.4652-0.0000 0.0000 (302204 PWs)   bands (ev):

   -38.4476 -38.4222 -38.4187 -38.4159 -38.4135 -38.3996 -38.3978 -38.1043
   -38.0510 -38.0468 -38.0421 -38.0391 -38.0303 -38.0289 -35.9881 -35.5369
   -24.9502 -24.5522 -24.5443 -24.4586 -24.4102 -24.3838 -24.3402 -24.0597
   -23.0506 -23.0296 -23.0202 -23.0061 -23.0046 -22.9932 -22.9852 -22.9743
   -22.9626 -22.9591 -22.9550 -22.9213 -22.9100 -22.9022 -22.9001 -22.8950
   -22.8717 -22.8699 -22.8646 -22.8556 -22.8251 -22.7834 -22.7530 -22.6747
   -19.0276 -18.9551 -18.9488 -18.9229 -18.9000 -18.8618 -18.8243 -18.8124
   -18.7586 -18.7507 -18.7307 -18.7295 -18.7224 -18.6736 -18.6480 -18.6235
   -18.6116 -18.6056 -18.5918 -18.5876 -18.5623 -18.5426 -18.5377 -18.5173
   -18.5089 -18.4698 -18.4284 -18.4239 -18.4163 -18.3988 -18.3894 -18.3818
   -18.3629 -18.3217 -18.2514 -18.2376 -18.2170 -18.1972 -18.1909 -18.1584
   -18.1176 -18.0574 -17.2474 -17.2188 -17.2121 -16.7899 -16.7878 -16.7647
   -15.5909 -15.4034 -15.3865 -15.3320 -15.3222 -15.2939 -15.2037 -15.1642
   -15.1606 -15.1501 -15.1188 -15.0881 -15.0620 -15.0613 -15.0562 -15.0417
   -15.0212 -14.9830 -14.9211 -14.9161 -14.9123 -14.9073 -14.9010 -14.8842
   -14.8759 -14.8428 -14.8311 -14.8303 -14.8039 -14.7834 -14.7773 -14.7494
   -14.7346 -14.7337 -14.7315 -14.7083 -14.7042 -14.7004 -14.6967 -14.6896
   -14.6705 -14.6662 -14.6636 -14.6599 -14.6536 -14.6490 -14.6398 -14.6204
   -14.5989 -14.5928 -14.5916 -14.5837 -14.5554 -14.5518 -14.5354 -14.5346
   -14.5304 -14.5056 -14.5027 -14.4934 -14.4931 -14.4930 -14.4833 -14.4696
   -14.4619 -14.4533 -14.4444 -14.4314 -14.4247 -14.4241 -14.4159 -14.4063
   -14.4053 -14.4028 -14.3952 -14.3622 -14.3555 -14.3257 -14.3177 -14.3028
   -14.2783 -14.2633 -14.2360 -14.2177 -14.1784 -14.1620 -14.1450 -14.1406
   -14.1199 -14.1143 -14.1092 -14.1069 -14.1066 -14.1030 -14.0930 -14.0924
   -14.0904 -14.0893 -14.0881 -14.0828 -14.0577 -14.0425 -14.0395 -14.0394
   -14.0357 -14.0066 -14.0061 -13.9999 -13.9988 -13.9980 -13.9826 -13.9625
   -13.9065 -13.8826 -13.8765 -13.8357 -13.8233 -13.7864 -13.6918 -13.6441
   -10.3711 -10.2443 -10.0420  -9.9413  -9.9384  -9.9124  -9.8559  -9.8427
    -9.7875  -9.7304  -9.7249  -9.6824  -9.6172  -9.5988  -9.5254  -9.5032
    -9.4039  -9.3729  -9.3071  -9.3054  -9.2437  -9.2121  -9.1089  -8.9872
    -8.8304  -8.8008  -8.7233  -8.5505  -8.5448  -8.5411  -8.5208  -8.5155
    -8.5130  -8.4984  -8.4403  -8.4267  -8.3902  -8.3790  -8.3610  -8.3563
    -8.3433  -8.3414  -8.3225  -8.3157  -8.3063  -8.3018  -8.2945  -8.2914
    -8.2819  -8.2703  -8.2592  -8.2506  -8.2481  -8.2468  -8.2366  -8.2290
    -8.2259  -8.2172  -8.2170  -8.2150  -8.2121  -8.2040  -8.2028  -8.2002
    -8.1968  -8.1871  -8.1815  -8.1731  -8.1700  -8.1573  -8.1563  -8.1359
    -8.1032  -8.0910  -8.0565  -8.0515  -8.0277  -8.0199  -7.9918  -7.9916
    -7.9799  -7.9504  -7.9280  -7.8998  -7.8786  -7.8772  -7.8737  -7.8645
    -7.8552  -7.8449  -7.8360  -7.8296  -7.8253  -7.7985  -7.7467  -7.6989
    -4.2411  -4.0687  -3.8228  -3.7738  -3.7564  -3.7221  -3.6588  -3.6513
    -3.6250  -3.5992  -3.5705  -3.3788  -3.3719  -3.3502  -3.3186  -3.1631
    -3.1614  -3.1223  -3.1204  -3.0727  -3.0218  -3.0093  -3.0050  -3.0016
    -2.9482  -2.9308  -2.9277  -2.9192  -2.9054  -2.8988  -2.8860  -2.7971
[...]
     atom   59 type  5   force =    -0.00045949    0.00000000   -0.00204378
     atom   60 type  5   force =     0.00000000    0.00000000   -0.00136361
     atom   61 type  5   force =     0.00000000    0.00000000   -0.00217724
     atom   62 type  5   force =     0.00000000    0.00000000   -0.00217724
     atom   63 type  5   force =     0.00000000    0.00030797   -0.00228442
     atom   64 type  5   force =     0.00000000   -0.00030797   -0.00228442
     atom   65 type  4   force =    -0.00031162    0.00012529    0.00241506
     atom   66 type  4   force =    -0.00031162   -0.00012529    0.00241506
     atom   67 type  4   force =     0.00031162    0.00012529    0.00241506
     atom   68 type  4   force =     0.00031162   -0.00012529    0.00241506
     atom   69 type  4   force =     0.00000000   -0.00032241    0.00177075
     atom   70 type  4   force =     0.00000000    0.00032241    0.00177075
     atom   71 type  4   force =    -0.00010060    0.00005476    0.00302705
     atom   72 type  4   force =    -0.00010060   -0.00005476    0.00302705
     atom   73 type  4   force =     0.00010060   -0.00005476    0.00302705
     atom   74 type  4   force =     0.00010060    0.00005476    0.00302705
     atom   75 type  4   force =     0.00029189    0.00000000    0.00273748
     atom   76 type  4   force =    -0.00029189    0.00000000    0.00273748
     atom   77 type  4   force =     0.00000000   -0.00056385    0.00350266
     atom   78 type  4   force =     0.00000000    0.00056385    0.00350266
     atom   79 type  4   force =     0.00041199    0.00000000    0.00276330
     atom   80 type  4   force =    -0.00041199    0.00000000    0.00276330
     atom   81 type  3   force =     0.00014987   -0.00029829   -0.00347810
     atom   82 type  3   force =     0.00014987    0.00029829   -0.00347810
     atom   83 type  3   force =    -0.00014987   -0.00029829   -0.00347810
     atom   84 type  3   force =    -0.00014987    0.00029829   -0.00347810
     atom   85 type  3   force =     0.00002005   -0.00012180   -0.00372962
     atom   86 type  3   force =    -0.00002005   -0.00012180   -0.00372962
     atom   87 type  3   force =    -0.00002005    0.00012180   -0.00372962
     atom   88 type  3   force =     0.00002005    0.00012180   -0.00372962
     atom   89 type  1   force =     0.00000000    0.00000000   -0.00729022
     atom   90 type  1   force =     0.00000000   -0.00070371   -0.00867399
     atom   91 type  1   force =     0.00000000    0.00070371   -0.00867399
     atom   92 type  1   force =    -0.00096639    0.00000000   -0.00735859
     atom   93 type  1   force =     0.00096639    0.00000000   -0.00735859
     atom   94 type  1   force =     0.00000000    0.00000000   -0.00873854
     atom   95 type  1   force =     0.00000000    0.00000000   -0.00873854
     atom   96 type  1   force =     0.00000000    0.00000000   -0.00722179
     atom   97 type  4   force =    -0.00047210   -0.00050407    0.00628018
     atom   98 type  4   force =    -0.00047210    0.00050407    0.00628018
     atom   99 type  4   force =     0.00047210   -0.00050407    0.00628018
     atom  100 type  4   force =     0.00047210    0.00050407    0.00628018
     atom  101 type  4   force =     0.00076383   -0.00006742    0.00691288
     atom  102 type  4   force =    -0.00076383   -0.00006742    0.00691288
     atom  103 type  4   force =    -0.00076383    0.00006742    0.00691288
     atom  104 type  4   force =     0.00076383    0.00006742    0.00691288
     atom  105 type  4   force =     0.00129979    0.00000000    0.01783709
     atom  106 type  4   force =    -0.00129979    0.00000000    0.01783709
     atom  107 type  3   force =    -0.00400448   -0.00199047   -0.01916792
     atom  108 type  3   force =    -0.00400448    0.00199047   -0.01916792
     atom  109 type  3   force =     0.00400448    0.00199047   -0.01916792
     atom  110 type  3   force =     0.00400448   -0.00199047   -0.01916792
     atom  111 type  3   force =    -0.00321568   -0.00099339   -0.01607161
     atom  112 type  3   force =     0.00321568    0.00099339   -0.01607161
     atom  113 type  3   force =    -0.00321568    0.00099339   -0.01607161
     atom  114 type  3   force =     0.00321568   -0.00099339   -0.01607161
     atom  115 type  4   force =     0.00108338   -0.00034652    0.01849559
     atom  116 type  4   force =    -0.00108338   -0.00034652    0.01849559
     atom  117 type  4   force =     0.00108338    0.00034652    0.01849559
     atom  118 type  4   force =    -0.00108338    0.00034652    0.01849559
     atom  119 type  4   force =     0.00291267    0.00000000    0.01958691
     atom  120 type  4   force =    -0.00291267    0.00000000    0.01958691
     atom  121 type  4   force =    -0.00879179   -0.00531966    0.04695771
     atom  122 type  4   force =     0.00879179   -0.00531966    0.04695771
     atom  123 type  4   force =     0.00879179    0.00531966    0.04695771
     atom  124 type  4   force =    -0.00879179    0.00531966    0.04695771
     atom  125 type  4   force =     0.00305735   -0.00238576    0.03790942
     atom  126 type  4   force =     0.00305735    0.00238576    0.03790942
     atom  127 type  4   force =    -0.00305735   -0.00238576    0.03790942
     atom  128 type  4   force =    -0.00305735    0.00238576    0.03790942
     atom  129 type  1   force =     0.00000000    0.00000000   -0.04246344
     atom  130 type  1   force =     0.00000000    0.00000000   -0.04205585
     atom  131 type  1   force =     0.00000000    0.00000000   -0.04205585
     atom  132 type  1   force =     0.00181420    0.00000000   -0.04145635
     atom  133 type  1   force =    -0.00181420    0.00000000   -0.04145635
     atom  134 type  1   force =     0.00000000    0.00369690   -0.04131843
     atom  135 type  1   force =     0.00000000   -0.00369690   -0.04131843
     atom  136 type  1   force =     0.00000000    0.00000000   -0.03474636
     atom  137 type  3   force =     0.00073377    0.00080461    0.00185081
     atom  138 type  3   force =     0.00073377   -0.00080461    0.00185081
     atom  139 type  3   force =    -0.00073377   -0.00080461    0.00185081
     atom  140 type  3   force =    -0.00073377    0.00080461    0.00185081
     atom  141 type  3   force =    -0.00595994    0.00705812   -0.00737526
     atom  142 type  3   force =    -0.00595994   -0.00705812   -0.00737526
     atom  143 type  3   force =     0.00595994    0.00705812   -0.00737526
     atom  144 type  3   force =     0.00595994   -0.00705812   -0.00737526
     atom  145 type  4   force =    -0.00291640    0.00000000    0.01770188
     atom  146 type  4   force =     0.00291640    0.00000000    0.01770188
     atom  147 type  4   force =     0.00000000   -0.00285181    0.01842736
     atom  148 type  4   force =     0.00000000    0.00285181    0.01842736
     atom  149 type  4   force =    -0.00084545    0.00000000    0.01075682
     atom  150 type  4   force =     0.00084545    0.00000000    0.01075682
     atom  151 type  4   force =    -0.00072651    0.00118656    0.01524408
     atom  152 type  4   force =     0.00072651    0.00118656    0.01524408
     atom  153 type  4   force =     0.00072651   -0.00118656    0.01524408
     atom  154 type  4   force =    -0.00072651   -0.00118656    0.01524408
     atom  155 type  4   force =     0.00000000   -0.00202673    0.01562745
     atom  156 type  4   force =     0.00000000    0.00202673    0.01562745
     atom  157 type  4   force =     0.00154768    0.00005996    0.01690864
     atom  158 type  4   force =    -0.00154768   -0.00005996    0.01690864
     atom  159 type  4   force =     0.00154768   -0.00005996    0.01690864
     atom  160 type  4   force =    -0.00154768    0.00005996    0.01690864
     atom  161 type  2   force =     0.00000000    0.00000000   -0.03574592
     atom  162 type  5   force =    -0.00086455    0.00000000   -0.04384201
     atom  163 type  5   force =     0.00086455    0.00000000   -0.04384201
     atom  164 type  5   force =     0.00000000    0.00000000   -0.03945898
     atom  165 type  5   force =     0.00000000    0.00000000   -0.04133702
     atom  166 type  5   force =     0.00000000    0.00000000   -0.04133702
     atom  167 type  5   force =     0.00000000   -0.00146358   -0.04266506
     atom  168 type  5   force =     0.00000000    0.00146358   -0.04266506
     atom  169 type  4   force =    -0.00024143    0.00005705    0.00559729
     atom  170 type  4   force =    -0.00024143   -0.00005705    0.00559729
     atom  171 type  4   force =     0.00024143    0.00005705    0.00559729
     atom  172 type  4   force =     0.00024143   -0.00005705    0.00559729
     atom  173 type  4   force =     0.00000000    0.00021506    0.00521892
     atom  174 type  4   force =     0.00000000   -0.00021506    0.00521892
     atom  175 type  4   force =    -0.00002452    0.00008110    0.00441322
     atom  176 type  4   force =    -0.00002452   -0.00008110    0.00441322
     atom  177 type  4   force =     0.00002452   -0.00008110    0.00441322
     atom  178 type  4   force =     0.00002452    0.00008110    0.00441322
     atom  179 type  4   force =    -0.00022400    0.00000000    0.00378055
     atom  180 type  4   force =     0.00022400    0.00000000    0.00378055
     atom  181 type  4   force =     0.00000000   -0.00072576    0.00565244
     atom  182 type  4   force =     0.00000000    0.00072576    0.00565244
     atom  183 type  4   force =     0.00075168    0.00000000    0.00482323
     atom  184 type  4   force =    -0.00075168    0.00000000    0.00482323
     atom  185 type  3   force =     0.00002566    0.00021939    0.00150820
     atom  186 type  3   force =     0.00002566   -0.00021939    0.00150820
     atom  187 type  3   force =    -0.00002566    0.00021939    0.00150820
     atom  188 type  3   force =    -0.00002566   -0.00021939    0.00150820
     atom  189 type  3   force =     0.00000620   -0.00001678    0.00158077
     atom  190 type  3   force =    -0.00000620   -0.00001678    0.00158077
     atom  191 type  3   force =    -0.00000620    0.00001678    0.00158077
     atom  192 type  3   force =     0.00000620    0.00001678    0.00158077
     atom  193 type  1   force =     0.00000000    0.00000000   -0.00153554
     atom  194 type  1   force =     0.00000000   -0.00003093   -0.00124230
     atom  195 type  1   force =     0.00000000    0.00003093   -0.00124230
     atom  196 type  1   force =     0.00020313    0.00000000   -0.00147716
     atom  197 type  1   force =    -0.00020313    0.00000000   -0.00147716
     atom  198 type  1   force =     0.00000000    0.00000000   -0.00140912
     atom  199 type  1   force =     0.00000000    0.00000000   -0.00140912
     atom  200 type  1   force =     0.00000000    0.00000000   -0.00134833
     atom  201 type  4   force =     0.00002680    0.00009798    0.00080091
     atom  202 type  4   force =     0.00002680   -0.00009798    0.00080091
     atom  203 type  4   force =    -0.00002680    0.00009798    0.00080091
     atom  204 type  4   force =    -0.00002680   -0.00009798    0.00080091
     atom  205 type  4   force =     0.00002422    0.00004353    0.00074853
     atom  206 type  4   force =    -0.00002422    0.00004353    0.00074853
     atom  207 type  4   force =    -0.00002422   -0.00004353    0.00074853
     atom  208 type  4   force =     0.00002422   -0.00004353    0.00074853
     atom  209 type  4   force =     0.00010078    0.00000000    0.00028722
     atom  210 type  4   force =    -0.00010078    0.00000000    0.00028722
     atom  211 type  3   force =     0.00009722   -0.00006409   -0.00054384
     atom  212 type  3   force =     0.00009722    0.00006409   -0.00054384
     atom  213 type  3   force =    -0.00009722    0.00006409   -0.00054384
     atom  214 type  3   force =    -0.00009722   -0.00006409   -0.00054384
     atom  215 type  3   force =     0.00000192   -0.00003259   -0.00045540
     atom  216 type  3   force =    -0.00000192    0.00003259   -0.00045540
     atom  217 type  3   force =     0.00000192    0.00003259   -0.00045540
     atom  218 type  3   force =    -0.00000192   -0.00003259   -0.00045540
     atom  219 type  4   force =    -0.00009691    0.00005258    0.00035440
     atom  220 type  4   force =     0.00009691    0.00005258    0.00035440
     atom  221 type  4   force =    -0.00009691   -0.00005258    0.00035440
     atom  222 type  4   force =     0.00009691   -0.00005258    0.00035440
     atom  223 type  4   force =    -0.00015796    0.00000000    0.00032228
     atom  224 type  4   force =     0.00015796    0.00000000    0.00032228

     Total force =     0.232313     Total SCF correction =     0.000449


     Computing stress (Cartesian axis) and pressure


     negative rho (up, down):  6.350E-01 0.000E+00
          total   stress  (Ry/bohr**3)                   (kbar)     P=       -6.71
  -0.00007691  -0.00000000   0.00000000          -11.31       -0.00        0.00
   0.00000000  -0.00003882   0.00000000            0.00       -5.71        0.00
   0.00000000   0.00000000  -0.00002118            0.00        0.00       -3.12

 
     init_run     :     60.10s CPU     63.22s WALL (       1 calls)
     electrons    :   5373.65s CPU   5589.50s WALL (       1 calls)
     forces       :     35.22s CPU     37.22s WALL (       1 calls)
     stress       :    422.30s CPU    426.66s WALL (       1 calls)

     Called by init_run:
     wfcinit      :     47.31s CPU     48.75s WALL (       1 calls)
     potinit      :      1.76s CPU      1.82s WALL (       1 calls)
     hinit0       :      3.07s CPU      3.28s WALL (       1 calls)

     Called by electrons:
     c_bands      :   4523.29s CPU   4614.06s WALL (      48 calls)
     sum_band     :    595.47s CPU    664.69s WALL (      48 calls)
     v_of_rho     :     12.84s CPU     13.44s WALL (      49 calls)
     newd         :    101.02s CPU    156.50s WALL (      49 calls)
     mix_rho      :    141.49s CPU    142.42s WALL (      48 calls)

     Called by c_bands:
     init_us_2    :     13.52s CPU     14.10s WALL (     396 calls)
     cegterg      :   4413.21s CPU   4498.12s WALL (     192 calls)

     Called by sum_band:
     sum_band:bec :      4.28s CPU      4.30s WALL (     192 calls)
     addusdens    :     90.15s CPU    154.87s WALL (      48 calls)

     Called by *egterg:
     h_psi        :   1795.91s CPU   1828.28s WALL (    1279 calls)
     s_psi        :    530.22s CPU    541.84s WALL (    1279 calls)
     g_psi        :      2.14s CPU      2.15s WALL (    1083 calls)
     cdiaghg      :    896.92s CPU    900.26s WALL (    1275 calls)

     Called by h_psi:
     h_psi:calbec :    581.49s CPU    584.63s WALL (    1279 calls)
     vloc_psi     :    680.24s CPU    688.17s WALL (    1279 calls)
     add_vuspsi   :    530.24s CPU    542.23s WALL (    1279 calls)

     General routines
     calbec       :    913.94s CPU    918.18s WALL (    1491 calls)
     fft          :     13.41s CPU     13.68s WALL (     660 calls)
     ffts         :     87.69s CPU     88.20s WALL (   35828 calls)
     fftw         :    771.65s CPU    780.19s WALL ( 1087254 calls)
     interpolate  :      1.16s CPU      1.16s WALL (      49 calls)
 
     Parallel routines
     fft_scatt_xy :    100.48s CPU    101.55s WALL ( 1123742 calls)
     fft_scatt_yz :    510.27s CPU    516.00s WALL ( 1123742 calls)
 
     PWSCF        :      1h38m CPU      1h41m WALL

 
   This run was terminated on:  22:55:51  18May2021            

=------------------------------------------------------------------------------=
   JOB DONE.
=------------------------------------------------------------------------------=
[1621392951.239758] [holy7c04101:148216:0]          mpool.c:43   UCX  WARN  object 0x4272000 was not returned to mpool ucp_requests
[1621392951.277940] [holy7c06207:238882:0]          mpool.c:43   UCX  WARN  object 0x2e44440 was not returned to mpool ucp_requests
[1621392951.258219] [holy7c04101:148215:0]          mpool.c:43   UCX  WARN  object 0x2fe7a80 was not returned to mpool ucp_requests
[1621392951.258096] [holy7c04101:148217:0]          mpool.c:43   UCX  WARN  object 0x36b3400 was not returned to mpool ucp_requests
[1621392951.269245] [holy7c04111:51267:0]          mpool.c:43   UCX  WARN  object 0x36770c0 was not returned to mpool ucp_requests
[1621392951.283606] [holy7c06109:182605:0]          mpool.c:43   UCX  WARN  object 0x3f87840 was not returned to mpool ucp_requests
[1621392951.287050] [holy7c06207:238883:0]          mpool.c:43   UCX  WARN  object 0x45062c0 was not returned to mpool ucp_requests
[1621392951.265715] [holy7c04111:51256:0]          mpool.c:43   UCX  WARN  object 0x36b5140 was not returned to mpool ucp_requests
[1621392951.270949] [holy7c04111:51258:0]          mpool.c:43   UCX  WARN  object 0x33b1e80 was not returned to mpool ucp_requests
[1621392951.271108] [holy7c04111:51257:0]          mpool.c:43   UCX  WARN  object 0x2e460c0 was not returned to mpool ucp_requests
[1621392951.271318] [holy7c04111:51265:0]          mpool.c:43   UCX  WARN  object 0x29b1e80 was not returned to mpool ucp_requests
[1621392951.272487] [holy7c04111:51264:0]          mpool.c:43   UCX  WARN  object 0x3865280 was not returned to mpool ucp_requests
[1621392951.272147] [holy7c04111:51266:0]          mpool.c:43   UCX  WARN  object 0x3ad4940 was not returned to mpool ucp_requests
[1621392951.272165] [holy7c04111:51266:0]          mpool.c:43   UCX  WARN  object 0x3adad00 was not returned to mpool ucp_requests
[1621392951.280771] [holy7c04111:51259:0]          mpool.c:43   UCX  WARN  object 0x482c540 was not returned to mpool ucp_requests
[1621392951.286890] [holy7c04205:35099:0]          mpool.c:43   UCX  WARN  object 0x298ce40 was not returned to mpool ucp_requests
[1621392951.287082] [holy7c04205:35101:0]          mpool.c:43   UCX  WARN  object 0x42de640 was not returned to mpool ucp_requests
[1621392951.298006] [holy7c04205:35109:0]          mpool.c:43   UCX  WARN  object 0x401a6c0 was not returned to mpool ucp_requests
[1621392951.296236] [holy7c04205:35107:0]          mpool.c:43   UCX  WARN  object 0x4e47300 was not returned to mpool ucp_requests
[1621392951.286104] [holy7c04205:35102:0]          mpool.c:43   UCX  WARN  object 0x33af400 was not returned to mpool ucp_requests
[1621392951.285243] [holy7c06109:182598:0]          mpool.c:43   UCX  WARN  object 0x3cb2f40 was not returned to mpool ucp_requests
[1621392951.290672] [holy7c06109:182607:0]          mpool.c:43   UCX  WARN  object 0x3497b00 was not returned to mpool ucp_requests
[1621392951.287900] [holy7c06109:182612:0]          mpool.c:43   UCX  WARN  object 0x46bb800 was not returned to mpool ucp_requests
[1621392951.294311] [holy7c06109:182597:0]          mpool.c:43   UCX  WARN  object 0x34da080 was not returned to mpool ucp_requests
[1621392951.294129] [holy7c06109:182599:0]          mpool.c:43   UCX  WARN  object 0x363f040 was not returned to mpool ucp_requests
[1621392951.302895] [holy7c06109:182613:0]          mpool.c:43   UCX  WARN  object 0x343a380 was not returned to mpool ucp_requests
[1621392951.301080] [holy7c04205:35100:0]          mpool.c:43   UCX  WARN  object 0x3005380 was not returned to mpool ucp_requests
[1621392951.303051] [holy7c04205:35108:0]          mpool.c:43   UCX  WARN  object 0x41982c0 was not returned to mpool ucp_requests
[1621392951.303497] [holy7c04205:35110:0]          mpool.c:43   UCX  WARN  object 0x3e983c0 was not returned to mpool ucp_requests
[1621392951.296190] [holy7c06109:182604:0]          mpool.c:43   UCX  WARN  object 0x3e9f840 was not returned to mpool ucp_requests
[1621392951.300659] [holy7c06109:182606:0]          mpool.c:43   UCX  WARN  object 0x450b540 was not returned to mpool ucp_requests
[1621392951.300686] [holy7c06109:182606:0]          mpool.c:43   UCX  WARN  object 0x450ed40 was not returned to mpool ucp_requests
[1621392951.293416] [holy7c06109:182596:0]          mpool.c:43   UCX  WARN  object 0x3c39540 was not returned to mpool ucp_requests
