
     Program PWSCF v.6.5 starts on 17May2021 at 18:15:50 

     This program is part of the open-source Quantum ESPRESSO suite
     for quantum simulation of materials; please cite
         "P. Giannozzi et al., J. Phys.:Condens. Matter 21 395502 (2009);
         "P. Giannozzi et al., J. Phys.:Condens. Matter 29 465901 (2017);
          URL http://www.quantum-espresso.org", 
     in publications or presentations arising from this work. More details at
     http://www.quantum-espresso.org/quote

     Parallel version (MPI), running on    80 processors

     MPI processes distributed on     5 nodes
     R & G space division:  proc/nbgrp/npool/nimage =      80
     Reading input from YBCO_BaO_cleave_1.0_sep.pwi
Warning: card &IONS ignored
Warning: card     ION_DYNAMICS = 'BFGS' ignored
Warning: card / ignored
Warning: card &CELL ignored
Warning: card     CELL_DYNAMICS = 'BFGS' ignored
Warning: card     PRESS_CONV_THR = 5 ignored
Warning: card / ignored

     Current dimensions of program PWSCF are:
     Max number of different atomic species (ntypx) = 10
     Max number of k-points (npk) =  40000
     Max angular momentum in pseudopotentials (lmaxx) =  3
     Message from routine volume:
     axis vectors are left-handed

     Subspace diagonalization in iterative solution of the eigenvalue problem:
     one sub-group per band group will be used
     scalapack distributed-memory algorithm (size of sub-group:  8*  8 procs)

     Message from routine setup:
     using ibrav=0 with symmetry is DISCOURAGED, use correct ibrav instead
 
     Parallelization info
     --------------------
     sticks:   dense  smooth     PW     G-vecs:    dense   smooth      PW
     Min         300     100     25               144060    27722    3639
     Max         301     101     26               144093    27745    3676
     Sum       24079    8031   2067             11526673  2218529  293173
 


     bravais-lattice index     =            0
     lattice parameter (alat)  =      20.5021  a.u.
     unit-cell volume          =   35329.4303 (a.u.)^3
     number of atoms/cell      =          224
     number of atomic types    =            5
     number of electrons       =      1830.00
     number of Kohn-Sham states=         1098
     kinetic-energy cutoff     =      60.0000  Ry
     charge density cutoff     =     720.0000  Ry
     convergence threshold     =      1.0E-08
     mixing beta               =       0.5000
     number of iterations used =           10  local-TF  mixing
     Exchange-correlation= SLA PW PBE PBE
                           (   1   4   3   4   0   0   0)

     celldm(1)=  20.502120  celldm(2)=   0.000000  celldm(3)=   0.000000
     celldm(4)=   0.000000  celldm(5)=   0.000000  celldm(6)=   0.000000

     crystal axes: (cart. coord. in units of alat)
               a(1) = (  -0.716599   0.697485   0.000000 )  
               a(2) = (   0.716599   0.697485   0.000000 )  
               a(3) = (   0.000000   0.000000   4.101087 )  

     reciprocal axes: (cart. coord. in units 2 pi/alat)
               b(1) = ( -0.697740  0.716861  0.000000 )  
               b(2) = (  0.697740  0.716861  0.000000 )  
               b(3) = (  0.000000  0.000000  0.243838 )  


     PseudoPot. # 1 for Ba read from file:
     ./pseudo/Ba.pbe-nsp-van.UPF
     MD5 check sum: 2b9c31dd849566dd297d80989662b7a0
     Pseudo is Ultrasoft + core correction, Zval = 10.0
     Generated by new atomic code, or converted to UPF format
     Using radial grid of  907 points,  6 beta functions with: 
                l(1) =   0
                l(2) =   0
                l(3) =   1
                l(4) =   1
                l(5) =   2
                l(6) =   2
     Q(r) pseudized with  6 coefficients,  rinner =    1.200   1.200   1.200
                                                       1.200   1.200

     PseudoPot. # 2 for Ca read from file:
     ./pseudo/Ca.pbe-nsp-van.UPF
     MD5 check sum: 6471098428ff4fa451746d08035ff179
     Pseudo is Ultrasoft + core correction, Zval = 10.0
     Generated by new atomic code, or converted to UPF format
     Using radial grid of  845 points,  6 beta functions with: 
                l(1) =   0
                l(2) =   0
                l(3) =   1
                l(4) =   1
                l(5) =   2
                l(6) =   2
     Q(r) pseudized with  6 coefficients,  rinner =    1.200   1.200   1.200
                                                       1.200   1.200

     PseudoPot. # 3 for Cu read from file:
     ./pseudo/Cu.pbe-n-van_ak.UPF
     MD5 check sum: 34e3282627ffb533726feb647e090d62
     Pseudo is Ultrasoft + core correction, Zval = 11.0
     Generated by new atomic code, or converted to UPF format
     Using radial grid of  867 points,  6 beta functions with: 
                l(1) =   0
                l(2) =   0
                l(3) =   1
                l(4) =   1
                l(5) =   2
                l(6) =   2
     Q(r) pseudized with  8 coefficients,  rinner =    1.400   1.400   1.400
                                                       1.400   1.400

     PseudoPot. # 4 for O  read from file:
     ./pseudo/O.pbe-van_ak.UPF
     MD5 check sum: 783ce7fe4c79b6a4916957118fed0856
     Pseudo is Ultrasoft, Zval =  6.0
     Generated by new atomic code, or converted to UPF format
     Using radial grid of  737 points,  4 beta functions with: 
                l(1) =   0
                l(2) =   0
                l(3) =   1
                l(4) =   1
     Q(r) pseudized with  8 coefficients,  rinner =    0.800   0.800   0.800


     PseudoPot. # 5 for Y  read from file:
     ./pseudo/Y.pbe-nsp-van.UPF
     MD5 check sum: 4412fed3ab108fed87a1b7d6a69a4a38
     Pseudo is Ultrasoft + core correction, Zval = 11.0
     Generated by new atomic code, or converted to UPF format
     Using radial grid of  885 points,  6 beta functions with: 
                l(1) =   0
                l(2) =   0
                l(3) =   1
                l(4) =   1
                l(5) =   2
                l(6) =   2
     Q(r) pseudized with  6 coefficients,  rinner =    1.200   1.200   1.200
                                                       1.200   1.200

     atomic species   valence    mass     pseudopotential
        Ba            10.00   137.32700     Ba( 1.00)
        Ca            10.00    40.07800     Ca( 1.00)
        Cu            11.00    63.54600     Cu( 1.00)
        O              6.00    15.99900     O ( 1.00)
        Y             11.00    88.90584     Y ( 1.00)

      4 Sym. Ops. (no inversion) found ( 3 have fractional translation)



   Cartesian axes

     site n.     atom                  positions (alat units)
         1           O   tau(   1) = (   0.3545921   0.8718562  -0.0077406  )
         2           O   tau(   2) = (   0.0037072   0.8718562  -0.0077406  )
         3           Cu  tau(   3) = (  -0.0002581   0.0006065   0.0080789  )
         4           Cu  tau(   4) = (  -0.0002581   0.3481364   0.0080789  )
         5           Cu  tau(   5) = (   0.3585574   0.3481364   0.0080789  )
         6           Cu  tau(   6) = (  -0.3580421   0.6980913   0.0080789  )
         7           Cu  tau(   7) = (   0.3577988   0.6971373   0.0086255  )
         8           Cu  tau(   8) = (   0.0005005   1.0465760   0.0086255  )
         9           Cu  tau(   9) = (  -0.3588016   0.3490903   0.0086255  )
        10           Cu  tau(  10) = (   0.0005005   0.6971373   0.0086255  )
        11           O   tau(  11) = (  -0.0001733   0.5225410  -0.0089757  )
        12           O   tau(  12) = (   0.3584726   0.5225410  -0.0089757  )
        13           O   tau(  13) = (  -0.0001733   1.2211724  -0.0089757  )
        14           O   tau(  14) = (  -0.3581278   0.5236867  -0.0089757  )
        15           O   tau(  15) = (  -0.3544557   0.8718562  -0.0105593  )
        16           O   tau(  16) = (  -0.0038445   0.1743714  -0.0105593  )
        17           O   tau(  17) = (   0.3588818   0.3486599   0.1817056  )
        18           O   tau(  18) = (  -0.0005825   0.3486599   0.1817056  )
        19           O   tau(  19) = (  -0.0005825   0.0000830   0.1817056  )
        20           O   tau(  20) = (  -0.3577167   0.6975677   0.1817056  )
        21           O   tau(  21) = (   0.3584283   0.6967843   0.1825784  )
        22           O   tau(  22) = (  -0.3581712   0.3494443   0.1825784  )
        23           O   tau(  23) = (  -0.0001290   0.6967843   0.1825784  )
        24           O   tau(  24) = (  -0.0001290   1.0469291   0.1825784  )
        25           Ba  tau(  25) = (   0.1791506   0.8718562   0.1908537  )
        26           Ba  tau(  26) = (   0.5374498   0.5231143   0.1919901  )
        27           Ba  tau(  27) = (  -0.1791506   0.5231143   0.1919901  )
        28           Ba  tau(  28) = (  -0.1793773   0.8718562   0.1931958  )
        29           Ba  tau(  29) = (  -0.1789238   0.1743714   0.1931958  )
        30           Ba  tau(  30) = (   0.1791506   0.5222101   0.1929368  )
        31           Ba  tau(  31) = (  -0.5374498   0.5240176   0.1929368  )
        32           Ba  tau(  32) = (   0.1791506   0.1743714   0.1992469  )
        33           Cu  tau(  33) = (  -0.3583426   0.3488452   0.3777458  )
        34           Cu  tau(  34) = (   0.3582559   0.6973834   0.3777458  )
        35           Cu  tau(  35) = (   0.0000433   0.6973834   0.3777458  )
        36           Cu  tau(  36) = (   0.0000433   1.0463299   0.3777458  )
        37           Cu  tau(  37) = (  -0.3586541   0.6975060   0.3775126  )
        38           Cu  tau(  38) = (   0.3579444   0.3487217   0.3775126  )
        39           Cu  tau(  39) = (   0.0003549   0.0000212   0.3775126  )
        40           Cu  tau(  40) = (   0.0003549   0.3487217   0.3775126  )
        41           O   tau(  41) = (  -0.0047976   0.1743714   0.3996864  )
        42           O   tau(  42) = (  -0.3535026   0.8718562   0.3996864  )
        43           O   tau(  43) = (  -0.5374498   0.6924605   0.3956991  )
        44           O   tau(  44) = (   0.1791506   0.3537672   0.3956991  )
        45           O   tau(  45) = (   0.3586385   0.8718562   0.4046840  )
        46           O   tau(  46) = (  -0.0003392   0.8718562   0.4046840  )
        47           O   tau(  47) = (  -0.0004857   0.5230571   0.4066611  )
        48           O   tau(  48) = (   0.3587850   0.5230571   0.4066611  )
        49           O   tau(  49) = (  -0.3578135   0.5231714   0.4066611  )
        50           O   tau(  50) = (  -0.0004857   1.2206562   0.4066611  )
        51           O   tau(  51) = (   0.1791506   1.0461604   0.4028931  )
        52           O   tau(  52) = (   0.1791506   0.6975521   0.4028931  )
        53           O   tau(  53) = (  -0.1792261   0.6967170   0.4025963  )
        54           O   tau(  54) = (  -0.1790731   0.3495106   0.4025963  )
        55           O   tau(  55) = (  -0.1792261   1.0469964   0.4025963  )
        56           O   tau(  56) = (   0.5375263   0.6967170   0.4025963  )
        57           Ca  tau(  57) = (   0.1791506   0.1743714   0.5358617  )
        58           Y   tau(  58) = (  -0.1811525   0.8718562   0.5373908  )
        59           Y   tau(  59) = (  -0.1771467   0.1743714   0.5373908  )
        60           Y   tau(  60) = (   0.1791506   0.8718562   0.5379568  )
        61           Y   tau(  61) = (   0.5374498   0.5231143   0.5384490  )
        62           Y   tau(  62) = (  -0.1791506   0.5231143   0.5384490  )
        63           Y   tau(  63) = (   0.1791506   0.5216598   0.5383310  )
        64           Y   tau(  64) = (  -0.5374498   0.5245688   0.5383310  )
        65           O   tau(  65) = (  -0.1787754   0.3493171   0.6712314  )
        66           O   tau(  66) = (   0.5378231   0.6969115   0.6712314  )
        67           O   tau(  67) = (  -0.1795239   1.0468019   0.6712314  )
        68           O   tau(  68) = (  -0.1795239   0.6969115   0.6712314  )
        69           O   tau(  69) = (   0.1791506   0.6972691   0.6718637  )
        70           O   tau(  70) = (   0.1791506   1.0464433   0.6718637  )
        71           O   tau(  71) = (  -0.0003880   1.2203935   0.6667490  )
        72           O   tau(  72) = (  -0.0003880   0.5233198   0.6667490  )
        73           O   tau(  73) = (   0.3586882   0.5233198   0.6667490  )
        74           O   tau(  74) = (  -0.3579112   0.5229087   0.6667490  )
        75           O   tau(  75) = (   0.3585850   0.8718562   0.6641940  )
        76           O   tau(  76) = (  -0.0002857   0.8718562   0.6641940  )
        77           O   tau(  77) = (   0.1791506   0.3535118   0.6756778  )
        78           O   tau(  78) = (  -0.5374498   0.6927158   0.6756778  )
        79           O   tau(  79) = (  -0.0043044   0.1743714   0.6710848  )
        80           O   tau(  80) = (  -0.3539948   0.8718562   0.6710848  )
        81           Cu  tau(  81) = (  -0.3586514   0.6973604   0.6974442  )
        82           Cu  tau(  82) = (   0.3579472   0.3488682   0.6974442  )
        83           Cu  tau(  83) = (   0.0003521  -0.0001254   0.6974442  )
        84           Cu  tau(  84) = (   0.0003521   0.3488682   0.6974442  )
        85           Cu  tau(  85) = (   0.0000083   1.0459401   0.6989015  )
        86           Cu  tau(  86) = (  -0.3583076   0.3484544   0.6989015  )
        87           Cu  tau(  87) = (   0.3582910   0.6977733   0.6989015  )
        88           Cu  tau(  88) = (   0.0000083   0.6977733   0.6989015  )
        89           Ba  tau(  89) = (   0.1791506   0.1743714   0.8671591  )
        90           Ba  tau(  90) = (  -0.5374498   0.5239908   0.8827639  )
        91           Ba  tau(  91) = (   0.1791506   0.5222377   0.8827639  )
        92           Ba  tau(  92) = (  -0.1785616   0.1743714   0.8784262  )
        93           Ba  tau(  93) = (  -0.1797386   0.8718562   0.8784262  )
        94           Ba  tau(  94) = (  -0.1791506   0.5231143   0.8841483  )
        95           Ba  tau(  95) = (   0.5374498   0.5231143   0.8841483  )
        96           Ba  tau(  96) = (   0.1791506   0.8718562   0.8844635  )
        97           O   tau(  97) = (   0.3607888   0.6975991   0.9037874  )
        98           O   tau(  98) = (  -0.3558097   0.3486286   0.9037874  )
        99           O   tau(  99) = (  -0.0024896   0.6975991   0.9037874  )
       100           O   tau( 100) = (  -0.0024896   1.0461143   0.9037874  )
       101           O   tau( 101) = (   0.3544087   0.3463252   0.9043663  )
       102           O   tau( 102) = (   0.0038906   0.3463252   0.9043663  )
       103           O   tau( 103) = (   0.0038906   0.0024177   0.9043663  )
       104           O   tau( 104) = (  -0.3621908   0.6999025   0.9043663  )
       105           O   tau( 105) = (   0.3314246   0.8718562   1.0783672  )
       106           O   tau( 106) = (   0.0268747   0.8718562   1.0783672  )
       107           Cu  tau( 107) = (  -0.0027882   0.0031818   1.0782086  )
       108           Cu  tau( 108) = (  -0.0027882   0.3455601   1.0782086  )
       109           Cu  tau( 109) = (   0.3610875   0.3455601   1.0782086  )
       110           Cu  tau( 110) = (  -0.3555111   0.7006675   1.0782086  )
       111           Cu  tau( 111) = (   0.3579684   0.6983604   1.0781976  )
       112           Cu  tau( 112) = (   0.0003318   1.0453529   1.0781976  )
       113           Cu  tau( 113) = (  -0.3586320   0.3478672   1.0781976  )
       114           Cu  tau( 114) = (   0.0003318   0.6983604   1.0781976  )
       115           O   tau( 115) = (  -0.0055718   0.5218801   1.0778989  )
       116           O   tau( 116) = (   0.3638720   0.5218801   1.0778989  )
       117           O   tau( 117) = (  -0.0055718   1.2218333   1.0778989  )
       118           O   tau( 118) = (  -0.3527284   0.5243475   1.0778989  )
       119           O   tau( 119) = (  -0.3170374   0.8718562   1.0783192  )
       120           O   tau( 120) = (  -0.0412618   0.1743714   1.0783192  )
       121           O   tau( 121) = (   0.3544105   0.3465040   1.2520362  )
       122           O   tau( 122) = (   0.0038887   0.3465040   1.2520362  )
       123           O   tau( 123) = (   0.0038887   0.0022389   1.2520362  )
       124           O   tau( 124) = (  -0.3621880   0.6997236   1.2520362  )
       125           O   tau( 125) = (   0.3607981   0.6973991   1.2525976  )
       126           O   tau( 126) = (  -0.3558014   0.3488295   1.2525976  )
       127           O   tau( 127) = (  -0.0024988   0.6973991   1.2525976  )
       128           O   tau( 128) = (  -0.0024988   1.0463143   1.2525976  )
       129           Ba  tau( 129) = (   0.1791506   0.8718562   1.2719528  )
       130           Ba  tau( 130) = (   0.5374498   0.5231143   1.2722763  )
       131           Ba  tau( 131) = (  -0.1791506   0.5231143   1.2722763  )
       132           Ba  tau( 132) = (  -0.1796732   0.8718562   1.2779763  )
       133           Ba  tau( 133) = (  -0.1786270   0.1743714   1.2779763  )
       134           Ba  tau( 134) = (   0.1791506   0.5222571   1.2737041  )
       135           Ba  tau( 135) = (  -0.5374498   0.5239706   1.2737041  )
       136           Ba  tau( 136) = (   0.1791506   0.1743714   1.2892268  )
       137           Cu  tau( 137) = (  -0.3583094   0.3484682   1.5496954  )
       138           Cu  tau( 138) = (   0.3582901   0.6977604   1.5496954  )
       139           Cu  tau( 139) = (   0.0000101   0.6977604   1.5496954  )
       140           Cu  tau( 140) = (   0.0000101   1.0459530   1.5496954  )
       141           Cu  tau( 141) = (  -0.3586477   0.6973567   1.5511158  )
       142           Cu  tau( 142) = (   0.3579518   0.3488710   1.5511158  )
       143           Cu  tau( 143) = (   0.0003484  -0.0001281   1.5511158  )
       144           Cu  tau( 144) = (   0.0003484   0.3488710   1.5511158  )
       145           O   tau( 145) = (  -0.0043173   0.1743714   1.5774208  )
       146           O   tau( 146) = (  -0.3539819   0.8718562   1.5774208  )
       147           O   tau( 147) = (  -0.5374498   0.6927305   1.5728896  )
       148           O   tau( 148) = (   0.1791506   0.3534971   1.5728896  )
       149           O   tau( 149) = (   0.3585795   0.8718562   1.5843310  )
       150           O   tau( 150) = (  -0.0002802   0.8718562   1.5843310  )
       151           O   tau( 151) = (  -0.0003853   0.5233134   1.5818349  )
       152           O   tau( 152) = (   0.3586855   0.5233134   1.5818349  )
       153           O   tau( 153) = (  -0.3579140   0.5229152   1.5818349  )
       154           O   tau( 154) = (  -0.0003853   1.2204000   1.5818349  )
       155           O   tau( 155) = (   0.1791506   1.0464553   1.5767083  )
       156           O   tau( 156) = (   0.1791506   0.6972571   1.5767083  )
       157           O   tau( 157) = (  -0.1795146   0.6969069   1.5773369  )
       158           O   tau( 158) = (  -0.1787846   0.3493208   1.5773369  )
       159           O   tau( 159) = (  -0.1795146   1.0468065   1.5773369  )
       160           O   tau( 160) = (   0.5378139   0.6969069   1.5773369  )
       161           Ca  tau( 161) = (   0.1791506   0.1743714   1.7126992  )
       162           Y   tau( 162) = (  -0.1811544   0.8718562   1.7111683  )
       163           Y   tau( 163) = (  -0.1771449   0.1743714   1.7111683  )
       164           Y   tau( 164) = (   0.1791506   0.8718562   1.7106051  )
       165           Y   tau( 165) = (   0.5374498   0.5231143   1.7101359  )
       166           Y   tau( 166) = (  -0.1791506   0.5231143   1.7101359  )
       167           Y   tau( 167) = (   0.1791506   0.5216524   1.7102567  )
       168           Y   tau( 168) = (  -0.5374498   0.5245761   1.7102567  )
       169           O   tau( 169) = (  -0.1790685   0.3495088   1.8459711  )
       170           O   tau( 170) = (   0.5375300   0.6967198   1.8459711  )
       171           O   tau( 171) = (  -0.1792307   1.0469936   1.8459711  )
       172           O   tau( 172) = (  -0.1792307   0.6967198   1.8459711  )
       173           O   tau( 173) = (   0.1791506   0.6975604   1.8456743  )
       174           O   tau( 174) = (   0.1791506   1.0461521   1.8456743  )
       175           O   tau( 175) = (  -0.0004848   1.2206534   1.8419100  )
       176           O   tau( 176) = (  -0.0004848   0.5230599   1.8419100  )
       177           O   tau( 177) = (   0.3587841   0.5230599   1.8419100  )
       178           O   tau( 178) = (  -0.3578144   0.5231687   1.8419100  )
       179           O   tau( 179) = (   0.3586468   0.8718562   1.8438483  )
       180           O   tau( 180) = (  -0.0003466   0.8718562   1.8438483  )
       181           O   tau( 181) = (   0.1791506   0.3537690   1.8528711  )
       182           O   tau( 182) = (  -0.5374498   0.6924586   1.8528711  )
       183           O   tau( 183) = (  -0.0047874   0.1743714   1.8488358  )
       184           O   tau( 184) = (  -0.3535118   0.8718562   1.8488358  )
       185           Cu  tau( 185) = (  -0.3586560   0.6975087   1.8710419  )
       186           Cu  tau( 186) = (   0.3579435   0.3487198   1.8710419  )
       187           Cu  tau( 187) = (   0.0003567   0.0000230   1.8710419  )
       188           Cu  tau( 188) = (   0.0003567   0.3487198   1.8710419  )
       189           Cu  tau( 189) = (   0.0000415   1.0463263   1.8708096  )
       190           Cu  tau( 190) = (  -0.3583407   0.3488406   1.8708096  )
       191           Cu  tau( 191) = (   0.3582587   0.6973871   1.8708096  )
       192           Cu  tau( 192) = (   0.0000415   0.6973871   1.8708096  )
       193           Ba  tau( 193) = (   0.1791506   0.1743714   2.0493150  )
       194           Ba  tau( 194) = (  -0.5374498   0.5240166   2.0556242  )
       195           Ba  tau( 195) = (   0.1791506   0.5222119   2.0556242  )
       196           Ba  tau( 196) = (  -0.1789220   0.1743714   2.0553679  )
       197           Ba  tau( 197) = (  -0.1793773   0.8718562   2.0553679  )
       198           Ba  tau( 198) = (  -0.1791506   0.5231143   2.0565782  )
       199           Ba  tau( 199) = (   0.5374498   0.5231143   2.0565782  )
       200           Ba  tau( 200) = (   0.1791506   0.8718562   2.0577063  )
       201           O   tau( 201) = (   0.3584302   0.6967870   2.0659760  )
       202           O   tau( 202) = (  -0.3581684   0.3494406   2.0659760  )
       203           O   tau( 203) = (  -0.0001309   0.6967870   2.0659760  )
       204           O   tau( 204) = (  -0.0001309   1.0469263   2.0659760  )
       205           O   tau( 205) = (   0.3588800   0.3486562   2.0668489  )
       206           O   tau( 206) = (  -0.0005807   0.3486562   2.0668489  )
       207           O   tau( 207) = (  -0.0005807   0.0000866   2.0668489  )
       208           O   tau( 208) = (  -0.3577186   0.6975714   2.0668489  )
       209           O   tau( 209) = (   0.3545921   0.8718562   2.2562794  )
       210           O   tau( 210) = (   0.0037081   0.8718562   2.2562794  )
       211           Cu  tau( 211) = (  -0.0002516   0.0006074   2.2404756  )
       212           Cu  tau( 212) = (  -0.0002516   0.3481345   2.2404756  )
       213           Cu  tau( 213) = (   0.3585509   0.3481345   2.2404756  )
       214           Cu  tau( 214) = (  -0.3580476   0.6980931   2.2404756  )
       215           Cu  tau( 215) = (   0.3577960   0.6971373   2.2399290  )
       216           Cu  tau( 216) = (   0.0005033   1.0465760   2.2399290  )
       217           Cu  tau( 217) = (  -0.3588035   0.3490903   2.2399290  )
       218           Cu  tau( 218) = (   0.0005033   0.6971373   2.2399290  )
       219           O   tau( 219) = (  -0.0001724   0.5225410   2.2575182  )
       220           O   tau( 220) = (   0.3584716   0.5225410   2.2575182  )
       221           O   tau( 221) = (  -0.0001724   1.2211724   2.2575182  )
       222           O   tau( 222) = (  -0.3581288   0.5236867   2.2575182  )
       223           O   tau( 223) = (  -0.3544640   0.8718562   2.2591082  )
       224           O   tau( 224) = (  -0.0038353   0.1743714   2.2591082  )

     number of k points=     4  Gaussian smearing, width (Ry)=  0.0100
                       cart. coord. in units 2pi/alat
        k(    1) = (   0.0000000   0.0000000   0.0000000), wk =   0.2222222
        k(    2) = (   0.2325801   0.2389537   0.0000000), wk =   0.8888889
        k(    3) = (   0.0000000   0.4779073   0.0000000), wk =   0.4444444
        k(    4) = (  -0.4651601  -0.0000000   0.0000000), wk =   0.4444444

     Dense  grid: 11526673 G-vectors     FFT dimensions: ( 180, 180, 720)

     Smooth grid:  2218529 G-vectors     FFT dimensions: ( 108, 108, 432)

     Estimated max dynamical RAM per process >       2.41 GB

     Estimated total dynamical RAM >     192.54 GB

     Initial potential from superposition of free atoms

     starting charge 1828.78422, renormalised to 1830.00000

     negative rho (up, down):  6.305E-01 0.000E+00
     Starting wfcs are 1602 randomized atomic wfcs

     total cpu time spent up to now is       56.5 secs

     Self-consistent Calculation

     iteration #  1     ecut=    60.00 Ry     beta= 0.50
     Davidson diagonalization with overlap
     ethr =  1.00E-02,  avg # of iterations =  2.0

     negative rho (up, down):  5.999E-01 0.000E+00

     total cpu time spent up to now is      151.6 secs

     total energy              =  -14912.97222400 Ry
     Harris-Foulkes estimate   =  -14943.26759229 Ry
     estimated scf accuracy    <     111.68196494 Ry

     iteration #  2     ecut=    60.00 Ry     beta= 0.50
     Davidson diagonalization with overlap
     ethr =  6.10E-03,  avg # of iterations =  2.0

     negative rho (up, down):  6.003E-01 0.000E+00

     total cpu time spent up to now is      246.7 secs

     total energy              =  -14923.05608661 Ry
     Harris-Foulkes estimate   =  -14926.89251706 Ry
     estimated scf accuracy    <      23.68388877 Ry

     iteration #  3     ecut=    60.00 Ry     beta= 0.50
     Davidson diagonalization with overlap
     ethr =  1.29E-03,  avg # of iterations =  2.0

     negative rho (up, down):  6.035E-01 0.000E+00

     total cpu time spent up to now is      338.0 secs

     total energy              =  -14924.63359559 Ry
     Harris-Foulkes estimate   =  -14925.64091156 Ry
     estimated scf accuracy    <      25.78762955 Ry

     iteration #  4     ecut=    60.00 Ry     beta= 0.50
     Davidson diagonalization with overlap
     ethr =  1.29E-03,  avg # of iterations =  1.0

     negative rho (up, down):  6.103E-01 0.000E+00

     total cpu time spent up to now is      424.6 secs

     total energy              =  -14924.72014391 Ry
     Harris-Foulkes estimate   =  -14925.15669553 Ry
     estimated scf accuracy    <       5.39827702 Ry

     iteration #  5     ecut=    60.00 Ry     beta= 0.50
     Davidson diagonalization with overlap
     ethr =  2.95E-04,  avg # of iterations =  4.8

     negative rho (up, down):  6.186E-01 0.000E+00

     total cpu time spent up to now is      527.5 secs

     total energy              =  -14924.67889756 Ry
     Harris-Foulkes estimate   =  -14925.00389853 Ry
     estimated scf accuracy    <      12.07580247 Ry

     iteration #  6     ecut=    60.00 Ry     beta= 0.50
     Davidson diagonalization with overlap
     ethr =  2.95E-04,  avg # of iterations =  3.5

     negative rho (up, down):  6.232E-01 0.000E+00

     total cpu time spent up to now is      624.3 secs

     total energy              =  -14924.74828410 Ry
     Harris-Foulkes estimate   =  -14924.82417380 Ry
     estimated scf accuracy    <       3.65282727 Ry

     iteration #  7     ecut=    60.00 Ry     beta= 0.50
     Davidson diagonalization with overlap
     ethr =  2.00E-04,  avg # of iterations = 11.0

     negative rho (up, down):  6.284E-01 0.000E+00

     total cpu time spent up to now is      752.0 secs

     total energy              =  -14924.76006506 Ry
     Harris-Foulkes estimate   =  -14924.80368526 Ry
     estimated scf accuracy    <       4.51280301 Ry

     iteration #  8     ecut=    60.00 Ry     beta= 0.50
     Davidson diagonalization with overlap
     ethr =  2.00E-04,  avg # of iterations =  4.8

     negative rho (up, down):  6.321E-01 0.000E+00

     total cpu time spent up to now is      851.4 secs

     total energy              =  -14924.72467631 Ry
     Harris-Foulkes estimate   =  -14924.78951210 Ry
     estimated scf accuracy    <       3.47293656 Ry

     iteration #  9     ecut=    60.00 Ry     beta= 0.50
     Davidson diagonalization with overlap
     ethr =  1.90E-04,  avg # of iterations =  2.2

     negative rho (up, down):  6.321E-01 0.000E+00

     total cpu time spent up to now is      940.8 secs

     total energy              =  -14924.69921911 Ry
     Harris-Foulkes estimate   =  -14924.74428855 Ry
     estimated scf accuracy    <       1.56962990 Ry

     iteration # 10     ecut=    60.00 Ry     beta= 0.50
     Davidson diagonalization with overlap
     ethr =  8.58E-05,  avg # of iterations = 14.8

     negative rho (up, down):  6.306E-01 0.000E+00

     total cpu time spent up to now is     1082.3 secs

     total energy              =  -14924.67269612 Ry
     Harris-Foulkes estimate   =  -14924.71303340 Ry
     estimated scf accuracy    <       0.75036023 Ry

     iteration # 11     ecut=    60.00 Ry     beta= 0.50
     Davidson diagonalization with overlap
     ethr =  4.10E-05,  avg # of iterations =  9.8

     negative rho (up, down):  6.293E-01 0.000E+00

     total cpu time spent up to now is     1204.0 secs

     total energy              =  -14924.67243988 Ry
     Harris-Foulkes estimate   =  -14924.68312849 Ry
     estimated scf accuracy    <       0.33035178 Ry

     iteration # 12     ecut=    60.00 Ry     beta= 0.50
     Davidson diagonalization with overlap
     ethr =  1.81E-05,  avg # of iterations =  8.8

     negative rho (up, down):  6.277E-01 0.000E+00

     total cpu time spent up to now is     1319.6 secs

     total energy              =  -14924.66997874 Ry
     Harris-Foulkes estimate   =  -14924.67532184 Ry
     estimated scf accuracy    <       0.22630475 Ry

     iteration # 13     ecut=    60.00 Ry     beta= 0.50
     Davidson diagonalization with overlap
     ethr =  1.24E-05,  avg # of iterations =  3.2

     negative rho (up, down):  6.264E-01 0.000E+00

     total cpu time spent up to now is     1413.5 secs

     total energy              =  -14924.66357643 Ry
     Harris-Foulkes estimate   =  -14924.67133575 Ry
     estimated scf accuracy    <       0.24173858 Ry

     iteration # 14     ecut=    60.00 Ry     beta= 0.50
     Davidson diagonalization with overlap
     ethr =  1.24E-05,  avg # of iterations =  6.8

     negative rho (up, down):  6.609E-01 0.000E+00

     total cpu time spent up to now is     1519.7 secs

     total energy              =  -14924.65498842 Ry
     Harris-Foulkes estimate   =  -14924.66463146 Ry
     estimated scf accuracy    <       0.22667378 Ry

     iteration # 15     ecut=    60.00 Ry     beta= 0.50
     Davidson diagonalization with overlap
     c_bands:  2 eigenvalues not converged
     c_bands:  3 eigenvalues not converged
     c_bands:  1 eigenvalues not converged
     ethr =  1.24E-05,  avg # of iterations = 18.8

     negative rho (up, down):  6.932E-01 0.000E+00

     total cpu time spent up to now is     1674.6 secs

     total energy              =  -14924.64854608 Ry
     Harris-Foulkes estimate   =  -14924.65600166 Ry
     estimated scf accuracy    <       0.20014287 Ry

     iteration # 16     ecut=    60.00 Ry     beta= 0.50
     Davidson diagonalization with overlap
     ethr =  1.09E-05,  avg # of iterations = 10.2

     negative rho (up, down):  7.234E-01 0.000E+00

     total cpu time spent up to now is     1798.2 secs

     total energy              =  -14924.63914104 Ry
     Harris-Foulkes estimate   =  -14924.64923569 Ry
     estimated scf accuracy    <       0.15884267 Ry

     iteration # 17     ecut=    60.00 Ry     beta= 0.50
     Davidson diagonalization with overlap
     ethr =  8.68E-06,  avg # of iterations = 11.0

     negative rho (up, down):  7.335E-01 0.000E+00

     total cpu time spent up to now is     1926.8 secs

     total energy              =  -14924.63641567 Ry
     Harris-Foulkes estimate   =  -14924.64100891 Ry
     estimated scf accuracy    <       0.08527835 Ry

     iteration # 18     ecut=    60.00 Ry     beta= 0.50
     Davidson diagonalization with overlap
     ethr =  4.66E-06,  avg # of iterations = 15.5

     negative rho (up, down):  7.277E-01 0.000E+00

     total cpu time spent up to now is     2070.4 secs

     total energy              =  -14924.63360039 Ry
     Harris-Foulkes estimate   =  -14924.63714492 Ry
     estimated scf accuracy    <       0.05572246 Ry

     iteration # 19     ecut=    60.00 Ry     beta= 0.50
     Davidson diagonalization with overlap
     ethr =  3.04E-06,  avg # of iterations = 13.5

     negative rho (up, down):  7.357E-01 0.000E+00

     total cpu time spent up to now is     2213.7 secs

     total energy              =  -14924.63243169 Ry
     Harris-Foulkes estimate   =  -14924.63432711 Ry
     estimated scf accuracy    <       0.02659680 Ry

     iteration # 20     ecut=    60.00 Ry     beta= 0.50
     Davidson diagonalization with overlap
     ethr =  1.45E-06,  avg # of iterations = 12.2

     negative rho (up, down):  6.911E-01 0.000E+00

     total cpu time spent up to now is     2358.1 secs

     total energy              =  -14924.63180908 Ry
     Harris-Foulkes estimate   =  -14924.63325090 Ry
     estimated scf accuracy    <       0.00608700 Ry

     iteration # 21     ecut=    60.00 Ry     beta= 0.50
     Davidson diagonalization with overlap
     c_bands:  2 eigenvalues not converged
     c_bands:  1 eigenvalues not converged
     c_bands:  1 eigenvalues not converged
     ethr =  3.33E-07,  avg # of iterations = 16.5

     negative rho (up, down):  6.505E-01 0.000E+00

     total cpu time spent up to now is     2510.1 secs

     total energy              =  -14924.63159193 Ry
     Harris-Foulkes estimate   =  -14924.63211101 Ry
     estimated scf accuracy    <       0.00662822 Ry

     iteration # 22     ecut=    60.00 Ry     beta= 0.50
     Davidson diagonalization with overlap
     c_bands:  1 eigenvalues not converged
     c_bands:  1 eigenvalues not converged
     c_bands:  1 eigenvalues not converged
     ethr =  3.33E-07,  avg # of iterations = 18.0

     negative rho (up, down):  6.382E-01 0.000E+00

     total cpu time spent up to now is     2669.8 secs

     total energy              =  -14924.63171511 Ry
     Harris-Foulkes estimate   =  -14924.63167132 Ry
     estimated scf accuracy    <       0.00342129 Ry

     iteration # 23     ecut=    60.00 Ry     beta= 0.50
     Davidson diagonalization with overlap
     c_bands:  2 eigenvalues not converged
     c_bands:  1 eigenvalues not converged
     ethr =  1.87E-07,  avg # of iterations = 14.8

     negative rho (up, down):  6.300E-01 0.000E+00

     total cpu time spent up to now is     2811.1 secs

     total energy              =  -14924.63173885 Ry
     Harris-Foulkes estimate   =  -14924.63175824 Ry
     estimated scf accuracy    <       0.00209231 Ry

     iteration # 24     ecut=    60.00 Ry     beta= 0.50
     Davidson diagonalization with overlap
     c_bands:  4 eigenvalues not converged
     c_bands:  1 eigenvalues not converged
     c_bands:  1 eigenvalues not converged
     ethr =  1.14E-07,  avg # of iterations = 20.0

     negative rho (up, down):  6.309E-01 0.000E+00

     total cpu time spent up to now is     2970.8 secs

     total energy              =  -14924.63178471 Ry
     Harris-Foulkes estimate   =  -14924.63179488 Ry
     estimated scf accuracy    <       0.00114486 Ry

     iteration # 25     ecut=    60.00 Ry     beta= 0.50
     Davidson diagonalization with overlap
     c_bands:  2 eigenvalues not converged
     ethr =  6.26E-08,  avg # of iterations =  6.5

     negative rho (up, down):  6.326E-01 0.000E+00

     total cpu time spent up to now is     3081.1 secs

     total energy              =  -14924.63180287 Ry
     Harris-Foulkes estimate   =  -14924.63181058 Ry
     estimated scf accuracy    <       0.00044198 Ry

     iteration # 26     ecut=    60.00 Ry     beta= 0.50
     Davidson diagonalization with overlap
     ethr =  2.42E-08,  avg # of iterations =  5.8

     negative rho (up, down):  6.346E-01 0.000E+00

     total cpu time spent up to now is     3187.0 secs

     total energy              =  -14924.63180809 Ry
     Harris-Foulkes estimate   =  -14924.63181308 Ry
     estimated scf accuracy    <       0.00015762 Ry

     iteration # 27     ecut=    60.00 Ry     beta= 0.50
     Davidson diagonalization with overlap
     ethr =  8.61E-09,  avg # of iterations =  1.8

     negative rho (up, down):  6.339E-01 0.000E+00

     total cpu time spent up to now is     3278.5 secs

     total energy              =  -14924.63181843 Ry
     Harris-Foulkes estimate   =  -14924.63180992 Ry
     estimated scf accuracy    <       0.00006378 Ry

     iteration # 28     ecut=    60.00 Ry     beta= 0.50
     Davidson diagonalization with overlap
     ethr =  3.49E-09,  avg # of iterations =  1.0

     negative rho (up, down):  6.331E-01 0.000E+00

     total cpu time spent up to now is     3369.2 secs

     total energy              =  -14924.63182824 Ry
     Harris-Foulkes estimate   =  -14924.63182093 Ry
     estimated scf accuracy    <       0.00004554 Ry

     iteration # 29     ecut=    60.00 Ry     beta= 0.50
     Davidson diagonalization with overlap
     ethr =  2.49E-09,  avg # of iterations =  1.0

     negative rho (up, down):  6.337E-01 0.000E+00

     total cpu time spent up to now is     3460.7 secs

     total energy              =  -14924.63182777 Ry
     Harris-Foulkes estimate   =  -14924.63183016 Ry
     estimated scf accuracy    <       0.00002113 Ry

     iteration # 30     ecut=    60.00 Ry     beta= 0.50
     Davidson diagonalization with overlap
     ethr =  1.15E-09,  avg # of iterations =  1.5

     negative rho (up, down):  6.338E-01 0.000E+00

     total cpu time spent up to now is     3549.5 secs

     total energy              =  -14924.63182821 Ry
     Harris-Foulkes estimate   =  -14924.63182845 Ry
     estimated scf accuracy    <       0.00001051 Ry

     iteration # 31     ecut=    60.00 Ry     beta= 0.50
     Davidson diagonalization with overlap
     ethr =  5.74E-10,  avg # of iterations =  1.0

     negative rho (up, down):  6.347E-01 0.000E+00

     total cpu time spent up to now is     3637.6 secs

     total energy              =  -14924.63182592 Ry
     Harris-Foulkes estimate   =  -14924.63182847 Ry
     estimated scf accuracy    <       0.00000523 Ry

     iteration # 32     ecut=    60.00 Ry     beta= 0.50
     Davidson diagonalization with overlap
     ethr =  2.86E-10,  avg # of iterations =  2.2

     negative rho (up, down):  6.349E-01 0.000E+00

     total cpu time spent up to now is     3731.0 secs

     total energy              =  -14924.63182549 Ry
     Harris-Foulkes estimate   =  -14924.63182621 Ry
     estimated scf accuracy    <       0.00000240 Ry

     iteration # 33     ecut=    60.00 Ry     beta= 0.50
     Davidson diagonalization with overlap
     ethr =  1.31E-10,  avg # of iterations =  2.2

     negative rho (up, down):  6.350E-01 0.000E+00

     total cpu time spent up to now is     3823.0 secs

     total energy              =  -14924.63182543 Ry
     Harris-Foulkes estimate   =  -14924.63182565 Ry
     estimated scf accuracy    <       0.00000061 Ry

     iteration # 34     ecut=    60.00 Ry     beta= 0.50
     Davidson diagonalization with overlap
     ethr =  3.35E-11,  avg # of iterations =  2.5

     negative rho (up, down):  6.351E-01 0.000E+00

     total cpu time spent up to now is     3919.6 secs

     total energy              =  -14924.63182522 Ry
     Harris-Foulkes estimate   =  -14924.63182546 Ry
     estimated scf accuracy    <       0.00000036 Ry

     iteration # 35     ecut=    60.00 Ry     beta= 0.50
     Davidson diagonalization with overlap
     ethr =  1.95E-11,  avg # of iterations =  1.0

     negative rho (up, down):  6.352E-01 0.000E+00

     total cpu time spent up to now is     4009.2 secs

     total energy              =  -14924.63182509 Ry
     Harris-Foulkes estimate   =  -14924.63182524 Ry
     estimated scf accuracy    <       0.00000024 Ry

     iteration # 36     ecut=    60.00 Ry     beta= 0.50
     Davidson diagonalization with overlap
     ethr =  1.31E-11,  avg # of iterations =  1.0

     negative rho (up, down):  6.353E-01 0.000E+00

     total cpu time spent up to now is     4098.7 secs

     total energy              =  -14924.63182500 Ry
     Harris-Foulkes estimate   =  -14924.63182510 Ry
     estimated scf accuracy    <       0.00000015 Ry

     iteration # 37     ecut=    60.00 Ry     beta= 0.50
     Davidson diagonalization with overlap
     ethr =  8.25E-12,  avg # of iterations =  1.0

     negative rho (up, down):  6.353E-01 0.000E+00

     total cpu time spent up to now is     4188.3 secs

     total energy              =  -14924.63182494 Ry
     Harris-Foulkes estimate   =  -14924.63182501 Ry
     estimated scf accuracy    <       0.00000004 Ry

     iteration # 38     ecut=    60.00 Ry     beta= 0.50
     Davidson diagonalization with overlap
     ethr =  1.94E-12,  avg # of iterations =  1.8

     negative rho (up, down):  6.353E-01 0.000E+00

     total cpu time spent up to now is     4280.3 secs

     total energy              =  -14924.63182491 Ry
     Harris-Foulkes estimate   =  -14924.63182494 Ry
     estimated scf accuracy    <       0.00000002 Ry

     iteration # 39     ecut=    60.00 Ry     beta= 0.50
     Davidson diagonalization with overlap
     ethr =  1.36E-12,  avg # of iterations =  1.0

     negative rho (up, down):  6.353E-01 0.000E+00

     total cpu time spent up to now is     4368.9 secs

     total energy              =  -14924.63182488 Ry
     Harris-Foulkes estimate   =  -14924.63182491 Ry
     estimated scf accuracy    <       0.00000001 Ry

     iteration # 40     ecut=    60.00 Ry     beta= 0.50
     Davidson diagonalization with overlap
     ethr =  5.60E-13,  avg # of iterations =  1.8

     negative rho (up, down):  6.353E-01 0.000E+00

     total cpu time spent up to now is     4457.2 secs

     End of self-consistent calculation

          k = 0.0000 0.0000 0.0000 (277337 PWs)   bands (ev):

   -37.9600 -37.9327 -37.9299 -37.9247 -37.9238 -37.9120 -37.9067 -37.7903
   -37.7476 -37.7440 -37.7402 -37.7393 -37.7280 -37.7224 -35.4974 -35.2534
   -23.1968 -23.0080 -22.9880 -22.9116 -22.9088 -22.8247 -22.7942 -22.6149
   -22.6123 -22.6015 -22.5041 -22.4906 -22.4892 -22.4853 -22.4750 -22.4724
   -22.4697 -22.4686 -22.4563 -22.4555 -22.4516 -22.4383 -22.4207 -22.3658
   -22.3523 -22.3347 -22.3196 -22.3053 -22.2740 -22.1554 -22.1388 -22.0465
   -18.5425 -18.5042 -18.4589 -18.4562 -18.4264 -18.3677 -18.3366 -18.2914
   -18.2719 -18.2637 -18.2591 -18.2577 -18.2517 -18.2473 -18.2442 -18.2430
   -18.2407 -18.2322 -18.2311 -18.2224 -18.2137 -18.0979 -18.0838 -18.0818
   -18.0704 -18.0606 -18.0585 -18.0540 -18.0523 -18.0457 -18.0331 -18.0264
   -18.0262 -18.0213 -18.0001 -17.9349 -17.9268 -17.8926 -17.8842 -17.8181
   -17.7630 -17.7509 -16.7568 -16.7279 -16.7202 -16.4986 -16.4950 -16.4824
   -15.2907 -15.1291 -14.7358 -14.6783 -14.6516 -14.6173 -14.6113 -14.6069
   -14.5977 -14.5931 -14.5694 -14.5398 -14.5312 -14.5248 -14.5198 -14.5122
   -14.4573 -14.4519 -14.4361 -14.3999 -14.3988 -14.3932 -14.3925 -14.3592
   -14.3571 -14.3489 -14.3394 -14.3259 -14.3238 -14.3123 -14.3097 -14.3011
   -14.2375 -14.2371 -14.2342 -14.2341 -14.2329 -14.2218 -14.2206 -14.2192
   -14.2188 -14.2059 -14.2042 -14.1796 -14.1718 -14.1697 -14.1438 -14.1219
   -14.1142 -14.1112 -14.0966 -14.0921 -14.0765 -14.0715 -14.0712 -14.0617
   -14.0535 -14.0411 -14.0231 -14.0214 -14.0168 -13.9791 -13.9756 -13.9681
   -13.9610 -13.9452 -13.9419 -13.9336 -13.9277 -13.9169 -13.9119 -13.9076
   -13.8575 -13.8477 -13.8404 -13.8396 -13.7898 -13.7803 -13.7513 -13.7059
   -13.6863 -13.6470 -13.6445 -13.6440 -13.6422 -13.6382 -13.6341 -13.6216
   -13.6112 -13.6032 -13.6026 -13.6022 -13.6021 -13.6010 -13.6005 -13.5996
   -13.5995 -13.5945 -13.5858 -13.5804 -13.5510 -13.5444 -13.5436 -13.5422
   -13.5307 -13.5304 -13.4913 -13.4897 -13.4737 -13.4678 -13.4618 -13.4445
   -13.3862 -13.3703 -13.3450 -13.3195 -13.2745 -13.2685 -13.2684 -13.1099
    -8.8686  -8.5958  -8.5737  -8.5603  -8.5422  -8.3587  -8.3573  -8.3324
    -8.3301  -8.3295  -8.3246  -8.2942  -8.2866  -8.2742  -8.2562  -8.2268
    -8.1455  -8.1005  -8.0637  -8.0599  -8.0508  -8.0478  -8.0469  -8.0363
    -8.0350  -8.0268  -8.0234  -7.9761  -7.9348  -7.9240  -7.8919  -7.8548
    -7.8396  -7.8285  -7.8244  -7.8163  -7.8123  -7.8105  -7.8053  -7.8017
    -7.7939  -7.7885  -7.7873  -7.7860  -7.7816  -7.7784  -7.7743  -7.7709
    -7.7673  -7.7636  -7.7608  -7.7598  -7.7474  -7.7187  -7.7134  -7.7025
    -7.6895  -7.6872  -7.6762  -7.6760  -7.6743  -7.6676  -7.6398  -7.6129
    -7.6003  -7.5978  -7.5721  -7.5625  -7.5590  -7.5021  -7.4774  -7.4626
    -7.4586  -7.4581  -7.4457  -7.4451  -7.4369  -7.4314  -7.4241  -7.4228
    -7.4185  -7.4112  -7.4105  -7.3546  -7.3229  -7.3095  -7.3060  -7.3040
    -7.2913  -7.2631  -7.2132  -7.1937  -7.1530  -7.1374  -7.0620  -7.0034
    -4.0393  -3.9339  -3.4891  -3.2521  -3.0458  -3.0085  -2.9974  -2.9029
    -2.8952  -2.8949  -2.8762  -2.8293  -2.8174  -2.8160  -2.8103  -2.8073
    -2.7835  -2.7661  -2.7545  -2.7165  -2.7101  -2.6377  -2.6363  -2.6293
    -2.5851  -2.5247  -2.5135  -2.5077  -2.5023  -2.3992  -2.3457  -2.2862
    -2.2860  -2.2775  -2.2744  -2.2654  -2.2417  -2.2367  -2.1121  -2.0981
    -2.0903  -2.0838  -2.0790  -2.0563  -2.0401  -2.0378  -2.0296  -2.0231
    -2.0200  -2.0108  -2.0020  -1.9718  -1.9295  -1.9239  -1.9227  -1.9136
    -1.8682  -1.8584  -1.8581  -1.8581  -1.8522  -1.8464  -1.8460  -1.8441
    -1.8433  -1.8426  -1.8390  -1.8315  -1.8315  -1.8300  -1.7836  -1.7732
    -1.7477  -1.7473  -1.7456  -1.7388  -1.7317  -1.7266  -1.7230  -1.7213
    -1.6961  -1.6785  -1.6574  -1.6484  -1.6482  -1.6476  -1.6464  -1.6460
    -1.6425  -1.6415  -1.6388  -1.6378  -1.6236  -1.5996  -1.5757  -1.5748
    -1.5738  -1.5577  -1.5438  -1.5431  -1.5419  -1.5335  -1.5312  -1.5270
    -1.4946  -1.4864  -1.4532  -1.4268  -1.4126  -1.3910  -1.3622  -1.3514
    -1.3423  -1.3419  -1.3308  -1.2823  -1.2757  -1.2722  -1.2691  -1.2644
    -1.2521  -1.2383  -1.2370  -1.2324  -1.2194  -1.2150  -1.2129  -1.2028
    -1.2018  -1.1881  -1.1809  -1.1649  -1.1370  -1.1164  -1.1122  -1.1047
    -1.0937  -1.0895  -1.0503  -0.9978  -0.9802  -0.9722  -0.9697  -0.9630
    -0.9617  -0.9425  -0.9323  -0.9225  -0.9175  -0.9133  -0.9103  -0.8975
    -0.8860  -0.8795  -0.8697  -0.8588  -0.8584  -0.8042  -0.7569  -0.7231
    -0.7213  -0.7208  -0.7130  -0.7128  -0.7077  -0.7055  -0.6815  -0.6782
    -0.6739  -0.6633  -0.6607  -0.6552  -0.6388  -0.6354  -0.6336  -0.6300
    -0.6127  -0.6051  -0.5975  -0.5793  -0.5716  -0.5680  -0.5644  -0.5582
    -0.5546  -0.5453  -0.5446  -0.5402  -0.5265  -0.5191  -0.5048  -0.4999
    -0.4889  -0.4859  -0.4702  -0.4599  -0.4590  -0.4458  -0.4360  -0.4162
    -0.4160  -0.4145  -0.4127  -0.3824  -0.3818  -0.3804  -0.3620  -0.3505
    -0.3465  -0.3436  -0.3422  -0.3419  -0.3415  -0.3373  -0.3256  -0.3242
    -0.3151  -0.3087  -0.2836  -0.2824  -0.2773  -0.2062  -0.2009  -0.1861
    -0.1833  -0.1796  -0.1694  -0.1655  -0.1574  -0.1497  -0.1486  -0.1367
    -0.1267  -0.0898  -0.0576  -0.0567  -0.0562  -0.0542  -0.0486  -0.0440
    -0.0419  -0.0402  -0.0399  -0.0349  -0.0280  -0.0142  -0.0130  -0.0019
     0.0049   0.0193   0.0288   0.0323   0.0337   0.0375   0.0432   0.0539
     0.0548   0.0556   0.0638   0.0764   0.0798   0.0818   0.0936   0.1103
     0.1184   0.1185   0.1208   0.1254   0.1347   0.1412   0.1473   0.1637
     0.1710   0.1727   0.1756   0.1769   0.1905   0.1925   0.1939   0.2072
     0.2372   0.2383   0.2541   0.2984   0.2994   0.3180   0.3248   0.3255
     0.3415   0.3947   0.4013   0.4125   0.4162   0.4482   0.4794   0.4810
     0.4874   0.4888   0.4919   0.4937   0.4964   0.5060   0.5129   0.5239
     0.5272   0.5299   0.5310   0.5318   0.5490   0.5530   0.5702   0.5717
     0.5790   0.6021   0.6042   0.6147   0.6341   0.6447   0.6469   0.6507
     0.6513   0.6656   0.6730   0.6816   0.6931   0.6934   0.6953   0.7198
     0.7229   0.7342   0.7376   0.7526   0.7543   0.7584   0.7626   0.7760
     0.7801   0.7817   0.7893   0.8046   0.8051   0.8083   0.8159   0.8169
     0.8188   0.8216   0.8387   0.8551   0.8573   0.8630   0.8664   0.8761
     0.8773   0.8871   0.8943   0.9002   0.9074   0.9097   0.9118   0.9242
     0.9353   0.9367   0.9371   0.9399   0.9503   0.9563   0.9594   0.9607
     0.9805   0.9917   1.0014   1.0183   1.0244   1.0404   1.0630   1.0723
     1.0744   1.0822   1.1143   1.1249   1.1512   1.1695   1.1996   1.2032
     1.2115   1.2162   1.2296   1.2314   1.2525   1.2644   1.2673   1.3098
     1.3282   1.3397   1.3427   1.3453   1.3468   1.3505   1.3520   1.3573
     1.3575   1.3608   1.3796   1.3866   1.4069   1.4201   1.4247   1.4280
     1.4292   1.4298   1.4408   1.4460   1.4482   1.4487   1.4729   1.4731
     1.4764   1.4764   1.4817   1.4843   1.4863   1.4877   1.4885   1.4911
     1.4939   1.4951   1.5004   1.5018   1.5067   1.5077   1.5131   1.5142
     1.5236   1.5332   1.5352   1.5483   1.5532   1.5631   1.5707   1.5837
     1.5870   1.5917   1.5935   1.5943   1.6020   1.6105   1.6116   1.6223
     1.6242   1.6253   1.6254   1.6296   1.6306   1.6346   1.6358   1.6472
     1.6474   1.6599   1.6606   1.6659   1.6698   1.6739   1.6763   1.6826
     1.6859   1.6866   1.6912   1.6947   1.7035   1.7325   1.7345   1.7377
     1.7451   1.7552   1.7645   1.7747   1.7839   1.7868   1.7895   1.7948
     1.8042   1.8060   1.8176   1.8252   1.8348   1.8424   1.8489   1.8729
     1.8904   1.9017   1.9094   1.9145   1.9221   1.9268   1.9296   1.9350
     1.9379   1.9431   1.9476   1.9501   1.9510   1.9524   1.9550   1.9577
     1.9597   1.9610   1.9668   1.9734   1.9791   1.9830   1.9860   2.0083
     2.0090   2.0211   2.0247   2.0312   2.0320   2.0376   2.0441   2.0496
     2.0609   2.0684   2.0842   2.0904   2.0955   2.0975   2.1033   2.1044
     2.1065   2.1111   2.1133   2.1217   2.1242   2.1294   2.1326   2.1392
     2.1760   2.1814   2.1850   2.1885   2.1948   2.1966   2.2120   2.2283
     2.2375   2.2493   2.2584   2.2730   2.2732   2.2742   2.2743   2.2757
     2.2758   2.2769   2.2863   2.2935   2.3077   2.3078   2.3085   2.3203
     2.3316   2.3399   2.3512   2.3527   2.3634   2.3796   2.3849   2.3891
     2.4179   2.4276   2.4307   2.4424   2.4467   2.4618   2.5463   2.5494
     2.5571   2.5793   2.5964   2.6192   2.6204   2.6301   2.6447   2.6460
     2.6535   2.6679   2.6688   2.6786   2.7009   2.7106   2.7417   2.7752
     2.7828   2.7886   2.7895   2.7967   2.8304   2.8730   2.9580   2.9594
     3.0633   3.1037   3.1086   3.1205   3.2293   3.2343   3.3704   3.3744
     3.3775   3.3811   3.3819   3.3844   3.3848   3.3877   3.4875   3.5136
     3.5199   3.5303   3.5374   3.5503   3.5586   3.5678   3.6861   3.7216
     3.7241   3.7310   3.7892   3.8078   3.8214   3.8300   3.8352   3.9052
     4.0375   4.0497   4.4894   4.6373   4.9378   4.9650   5.0149   5.1123
     5.3605   5.4289   5.5042   5.6056   5.9825   5.9889   6.0297   6.1955
     6.2903   6.4950   6.6291   6.7026   6.7073   6.7983   6.8286   6.8288
     6.8372   6.8384   6.8390   6.8410   6.8422   6.8434   6.8443   6.8470
     6.8793   6.9641   7.1765   7.1854   7.1984   7.2315   7.2488   7.2901
     7.2930   7.3208   7.3587   7.3879   7.4151   7.4206   7.4859   7.4954
     7.5197   7.5272   7.5361   7.5654   7.5720   7.6443   7.7842   7.7868
     7.8015   7.8300   7.8898   7.9442   8.0196   8.0252   8.0268   8.0486
     8.0549   8.0780   8.0836   8.0893   8.1037   8.1459   8.1741   8.1813
     8.1876   8.2288   8.2646   8.2775   8.2862   8.3136   8.3247   8.3314
     8.3475   8.4402   8.4849   8.4867   8.4904   8.4907   8.4988   8.5015
     8.5106   8.5143   8.5200   8.5304   8.6004   8.6544   8.7167   8.7710
     8.7903   8.8024   8.8132   8.8273   8.8283   8.8398   8.8737   8.9170
     8.9212   8.9488   8.9543   8.9625   8.9683   8.9932   8.9980   9.0103
     9.0219   9.0467   9.0502   9.0673   9.0702   9.0717   9.0747   9.0796
     9.0833   9.1074   9.1183   9.1298   9.1458   9.1562   9.1574   9.1931
     9.2038   9.2492   9.2549   9.2730   9.2869   9.2954   9.3078   9.3244
     9.3455   9.3578   9.3640   9.3660   9.3680   9.3773   9.3853   9.4033
     9.4308   9.4334   9.4584   9.4848   9.4856   9.5068   9.5235   9.5334
     9.5338   9.5401

          k = 0.2326 0.2390 0.0000 (277319 PWs)   bands (ev):

   -37.9599 -37.9322 -37.9306 -37.9247 -37.9241 -37.9104 -37.9078 -37.7902
   -37.7468 -37.7450 -37.7402 -37.7397 -37.7263 -37.7236 -35.4974 -35.2534
   -23.1960 -23.0068 -22.9906 -22.9121 -22.9110 -22.8159 -22.7996 -22.6124
   -22.5966 -22.5832 -22.5484 -22.5350 -22.4936 -22.4897 -22.4797 -22.4766
   -22.4646 -22.4559 -22.4513 -22.4426 -22.4203 -22.4092 -22.4070 -22.3800
   -22.3666 -22.3614 -22.3151 -22.2933 -22.2776 -22.1551 -22.1348 -22.0485
   -18.5078 -18.4727 -18.4563 -18.4320 -18.4247 -18.4045 -18.3716 -18.3406
   -18.3334 -18.3055 -18.2888 -18.2613 -18.2597 -18.2525 -18.2356 -18.2335
   -18.2298 -18.2235 -18.2199 -18.2024 -18.1426 -18.1282 -18.1084 -18.0910
   -18.0843 -18.0636 -18.0570 -18.0534 -18.0451 -18.0442 -18.0179 -18.0059
   -17.9806 -17.9743 -17.9348 -17.9277 -17.9182 -17.8873 -17.8760 -17.8423
   -17.8086 -17.7989 -16.7570 -16.7297 -16.7216 -16.5005 -16.4964 -16.4826
   -15.1903 -15.0332 -14.9216 -14.7822 -14.6874 -14.6352 -14.6228 -14.6092
   -14.5964 -14.5718 -14.5616 -14.5473 -14.5294 -14.5224 -14.4963 -14.4769
   -14.4521 -14.4333 -14.4246 -14.4009 -14.3941 -14.3885 -14.3861 -14.3655
   -14.3594 -14.3469 -14.3446 -14.3398 -14.3175 -14.3061 -14.2961 -14.2903
   -14.2864 -14.2647 -14.2549 -14.2377 -14.2271 -14.2251 -14.2017 -14.2005
   -14.1916 -14.1826 -14.1770 -14.1705 -14.1642 -14.1626 -14.1538 -14.1388
   -14.1337 -14.1221 -14.1187 -14.1113 -14.0728 -14.0632 -14.0555 -14.0496
   -14.0453 -14.0380 -14.0259 -14.0143 -13.9930 -13.9835 -13.9646 -13.9610
   -13.9472 -13.9388 -13.9297 -13.9256 -13.9101 -13.8902 -13.8854 -13.8755
   -13.8710 -13.8504 -13.8454 -13.8268 -13.8201 -13.8089 -13.7598 -13.6863
   -13.6820 -13.6642 -13.6501 -13.6496 -13.6445 -13.6417 -13.6384 -13.6281
   -13.6266 -13.6162 -13.6132 -13.6098 -13.5986 -13.5879 -13.5868 -13.5855
   -13.5843 -13.5673 -13.5630 -13.5585 -13.5564 -13.5550 -13.5544 -13.5474
   -13.5368 -13.5356 -13.5237 -13.5079 -13.4939 -13.4830 -13.4522 -13.4436
   -13.4094 -13.3832 -13.3446 -13.3140 -13.2950 -13.2740 -13.2432 -13.1562
    -8.7684  -8.5616  -8.5420  -8.4742  -8.4664  -8.4532  -8.3549  -8.3343
    -8.2731  -8.2703  -8.2663  -8.2572  -8.2471  -8.1987  -8.1684  -8.1670
    -8.1545  -8.1434  -8.1309  -8.1151  -8.1028  -8.0433  -7.9824  -7.9587
    -7.9457  -7.9438  -7.9166  -7.9027  -7.8893  -7.8722  -7.8554  -7.8524
    -7.8412  -7.8396  -7.8380  -7.8290  -7.8138  -7.8137  -7.8063  -7.8030
    -7.8010  -7.7920  -7.7894  -7.7865  -7.7861  -7.7723  -7.7719  -7.7674
    -7.7646  -7.7602  -7.7575  -7.7548  -7.7499  -7.7464  -7.7405  -7.7288
    -7.7215  -7.7140  -7.7095  -7.7027  -7.6936  -7.6768  -7.6647  -7.6523
    -7.6396  -7.6232  -7.5939  -7.5760  -7.5506  -7.5440  -7.5409  -7.5283
    -7.5282  -7.5007  -7.4878  -7.4797  -7.4612  -7.4522  -7.4393  -7.4150
    -7.4134  -7.4021  -7.3907  -7.3819  -7.3779  -7.3731  -7.3620  -7.3603
    -7.3492  -7.2928  -7.2451  -7.2081  -7.1738  -7.1243  -7.0998  -7.0435
    -3.8787  -3.7750  -3.4445  -3.3463  -3.3435  -3.1066  -3.0150  -2.9749
    -2.9634  -2.9536  -2.8972  -2.8920  -2.8278  -2.8038  -2.7776  -2.7722
    -2.7508  -2.7232  -2.7195  -2.6575  -2.6051  -2.6014  -2.6001  -2.5427
    -2.5381  -2.5349  -2.5336  -2.5255  -2.5023  -2.4270  -2.3622  -2.3466
    -2.2978  -2.2796  -2.2789  -2.2778  -2.2551  -2.2435  -2.2415  -2.2398
    -2.2296  -2.1688  -2.1571  -2.1438  -2.1263  -2.0875  -2.0050  -1.9981
    -1.9614  -1.9497  -1.9444  -1.9427  -1.9211  -1.9141  -1.9088  -1.8878
    -1.8857  -1.8734  -1.8637  -1.8634  -1.8567  -1.8493  -1.8478  -1.8293
    -1.8238  -1.8213  -1.8006  -1.7901  -1.7722  -1.7617  -1.7587  -1.7521
    -1.7440  -1.7387  -1.7356  -1.7326  -1.7295  -1.7285  -1.7228  -1.7095
    -1.6982  -1.6855  -1.6743  -1.6574  -1.6552  -1.6400  -1.6294  -1.6238
    -1.6045  -1.5971  -1.5814  -1.5739  -1.5719  -1.5702  -1.5678  -1.5597
    -1.5502  -1.5480  -1.5379  -1.5359  -1.5285  -1.5154  -1.4998  -1.4947
    -1.4818  -1.4653  -1.4610  -1.4375  -1.4299  -1.4212  -1.4064  -1.3985
    -1.3865  -1.3611  -1.3516  -1.3299  -1.3230  -1.3112  -1.2910  -1.2730
    -1.2562  -1.2356  -1.2266  -1.2142  -1.1989  -1.1923  -1.1674  -1.1633
    -1.1623  -1.1598  -1.1561  -1.1497  -1.1291  -1.1216  -1.1043  -1.0962
    -1.0775  -1.0554  -1.0374  -1.0221  -1.0117  -0.9977  -0.9533  -0.9486
    -0.9438  -0.9265  -0.9199  -0.8880  -0.8786  -0.8765  -0.8656  -0.8568
    -0.8405  -0.8287  -0.7981  -0.7956  -0.7755  -0.7571  -0.7533  -0.7388
    -0.7324  -0.7289  -0.7025  -0.7001  -0.6896  -0.6788  -0.6731  -0.6694
    -0.6500  -0.6445  -0.6417  -0.6365  -0.6359  -0.6322  -0.6315  -0.6210
    -0.6122  -0.6047  -0.5880  -0.5831  -0.5712  -0.5576  -0.5491  -0.5461
    -0.5358  -0.5272  -0.5128  -0.5100  -0.5019  -0.4990  -0.4908  -0.4807
    -0.4794  -0.4777  -0.4758  -0.4677  -0.4502  -0.4423  -0.4312  -0.4280
    -0.4225  -0.4075  -0.4013  -0.3847  -0.3753  -0.3718  -0.3694  -0.3628
    -0.3578  -0.3440  -0.3365  -0.3227  -0.3167  -0.3132  -0.3093  -0.2905
    -0.2892  -0.2844  -0.2815  -0.2680  -0.2659  -0.2654  -0.2558  -0.2507
    -0.2424  -0.2369  -0.2319  -0.2138  -0.2123  -0.2046  -0.2000  -0.1940
    -0.1886  -0.1796  -0.1686  -0.1634  -0.1257  -0.1081  -0.0992  -0.0961
    -0.0913  -0.0649  -0.0582  -0.0557  -0.0483  -0.0354  -0.0153  -0.0033
     0.0083   0.0184   0.0243   0.0327   0.0362   0.0445   0.0453   0.0560
     0.0639   0.0809   0.0952   0.1026   0.1080   0.1131   0.1239   0.1418
     0.1609   0.1654   0.1800   0.1883   0.1930   0.1950   0.2001   0.2117
     0.2218   0.2398   0.2499   0.2518   0.2737   0.2838   0.2918   0.2967
     0.3071   0.3162   0.3237   0.3295   0.3384   0.3412   0.3541   0.3813
     0.4023   0.4035   0.4157   0.4281   0.4317   0.4483   0.4676   0.4759
     0.4928   0.5001   0.5004   0.5046   0.5107   0.5181   0.5278   0.5370
     0.5433   0.5501   0.5536   0.5665   0.5708   0.5754   0.5816   0.5899
     0.5908   0.5930   0.6001   0.6079   0.6096   0.6150   0.6223   0.6238
     0.6336   0.6380   0.6386   0.6580   0.6675   0.6792   0.6854   0.6948
     0.6993   0.7008   0.7111   0.7184   0.7258   0.7381   0.7394   0.7460
     0.7521   0.7545   0.7665   0.7693   0.7717   0.7756   0.7767   0.7794
     0.7851   0.7912   0.8007   0.8160   0.8189   0.8241   0.8244   0.8437
     0.8560   0.8848   0.8942   0.8992   0.9088   0.9162   0.9199   0.9257
     0.9265   0.9327   0.9579   0.9684   0.9712   0.9822   1.0009   1.0057
     1.0442   1.0619   1.0662   1.0786   1.0926   1.0935   1.0977   1.1201
     1.1258   1.1330   1.1383   1.1432   1.1454   1.1507   1.1558   1.1627
     1.1674   1.1770   1.1940   1.2029   1.2283   1.2487   1.2541   1.2613
     1.2759   1.2780   1.2834   1.2954   1.3036   1.3101   1.3229   1.3299
     1.3358   1.3455   1.3508   1.3526   1.3540   1.3605   1.3616   1.3684
     1.3730   1.3752   1.3798   1.3870   1.3968   1.4015   1.4141   1.4196
     1.4335   1.4458   1.4537   1.4587   1.4673   1.4710   1.4759   1.4843
     1.4857   1.4918   1.4963   1.5005   1.5057   1.5153   1.5232   1.5300
     1.5350   1.5371   1.5414   1.5491   1.5580   1.5602   1.5656   1.5657
     1.5721   1.5744   1.5781   1.5846   1.5923   1.6005   1.6062   1.6083
     1.6178   1.6270   1.6300   1.6334   1.6416   1.6441   1.6471   1.6518
     1.6533   1.6547   1.6588   1.6632   1.6692   1.6756   1.6833   1.6951
     1.7071   1.7089   1.7174   1.7234   1.7319   1.7439   1.7531   1.7567
     1.7588   1.7603   1.7684   1.7824   1.7909   1.7956   1.7988   1.8165
     1.8209   1.8264   1.8282   1.8298   1.8363   1.8513   1.8662   1.8697
     1.8743   1.8833   1.8862   1.8942   1.9014   1.9028   1.9092   1.9161
     1.9187   1.9223   1.9235   1.9397   1.9441   1.9548   1.9576   1.9671
     1.9710   1.9777   1.9867   1.9941   1.9992   2.0052   2.0082   2.0166
     2.0224   2.0250   2.0261   2.0301   2.0322   2.0377   2.0421   2.0460
     2.0506   2.0513   2.0554   2.0655   2.0666   2.0697   2.0847   2.0910
     2.0929   2.0972   2.1000   2.1176   2.1224   2.1268   2.1328   2.1355
     2.1393   2.1442   2.1495   2.1536   2.1691   2.1832   2.1870   2.1938
     2.2057   2.2129   2.2299   2.2319   2.2594   2.2679   2.2693   2.2731
     2.2823   2.2903   2.3101   2.3197   2.3226   2.3340   2.3376   2.3763
     2.3880   2.3927   2.4058   2.4241   2.4272   2.4611   2.4694   2.4723
     2.4730   2.5062   2.5097   2.5126   2.5149   2.5182   2.5213   2.5604
     2.5682   2.5842   2.6015   2.6278   2.6285   2.6484   2.6623   2.6676
     2.7069   2.7073   2.7079   2.7333   2.7511   2.7700   2.8688   2.8723
     2.8740   2.8872   2.8909   2.9348   2.9386   2.9668   2.9697   3.0028
     3.0224   3.0555   3.1039   3.1607   3.1818   3.1990   3.2142   3.2217
     3.2274   3.2291   3.2373   3.2433   3.2502   3.2617   3.3164   3.3234
     3.3291   3.3355   3.3468   3.3606   3.3628   3.3747   3.4672   3.4894
     3.5080   3.5583   3.5815   3.6367   4.1794   4.2093   4.2639   4.3047
     4.3218   4.4130   4.4660   4.5624   4.7217   4.7472   4.8071   4.9082
     5.6276   5.6759   5.6838   5.7938   6.1274   6.2169   6.2218   6.2369
     6.2496   6.2701   6.2791   6.4075   6.5587   6.6377   6.7216   6.7251
     6.7489   6.7557   6.7619   6.7809   6.8636   6.8860   6.9392   6.9621
     7.0137   7.0142   7.0189   7.0854   7.1156   7.1466   7.2239   7.2296
     7.2427   7.2624   7.3371   7.3887   7.4193   7.4649   7.5073   7.5443
     7.5599   7.5816   7.6760   7.6876   7.7123   7.7506   7.7713   7.7772
     7.7967   7.8197   7.8423   7.8463   7.8838   7.9284   7.9360   7.9984
     8.0146   8.0340   8.0795   8.0883   8.1042   8.1149   8.1269   8.1403
     8.1760   8.1995   8.2178   8.2394   8.2639   8.2867   8.3216   8.3373
     8.3628   8.3794   8.3910   8.3967   8.4085   8.4165   8.4318   8.4649
     8.4854   8.6167   8.6283   8.6469   8.6562   8.6722   8.6906   8.7098
     8.7251   8.7573   8.8067   8.8146   8.8283   8.8486   8.8560   8.8668
     8.8745   8.8872   8.8992   8.9193   8.9323   8.9616   8.9801   8.9860
     9.0134   9.0424   9.0647   9.0765   9.1048   9.1131   9.1230   9.1265
     9.1544   9.1683   9.1719   9.1899   9.2177   9.2250   9.2396   9.2642
     9.2828   9.2876   9.3142   9.3278   9.3377   9.3512   9.3678   9.3820
     9.3959   9.4032   9.4248   9.4271   9.4337   9.4513   9.4557   9.4766
     9.4954   9.5155   9.5284   9.5333   9.5565   9.5811   9.5821   9.6109
     9.6446   9.6709

          k = 0.0000 0.4779 0.0000 (277213 PWs)   bands (ev):

   -37.9599 -37.9323 -37.9305 -37.9258 -37.9231 -37.9095 -37.9086 -37.7902
   -37.7467 -37.7451 -37.7412 -37.7388 -37.7253 -37.7244 -35.4974 -35.2534
   -23.1954 -23.0107 -22.9830 -22.9327 -22.8948 -22.8158 -22.7996 -22.6124
   -22.5773 -22.5639 -22.5475 -22.5370 -22.5341 -22.5235 -22.5007 -22.4874
   -22.4510 -22.4376 -22.4235 -22.4171 -22.4102 -22.4036 -22.3996 -22.3950
   -22.3816 -22.3678 -22.3240 -22.2990 -22.2679 -22.1525 -22.1351 -22.0491
   -18.5032 -18.4981 -18.4624 -18.4321 -18.4061 -18.4032 -18.3523 -18.3305
   -18.3275 -18.3152 -18.2956 -18.2698 -18.2584 -18.2516 -18.2425 -18.2365
   -18.2281 -18.2177 -18.1984 -18.1660 -18.1384 -18.1213 -18.1070 -18.1034
   -18.0874 -18.0796 -18.0754 -18.0724 -18.0579 -18.0471 -18.0452 -18.0205
   -17.9759 -17.9555 -17.9353 -17.9275 -17.9057 -17.8920 -17.8758 -17.8654
   -17.8000 -17.7634 -16.7570 -16.7299 -16.7205 -16.5006 -16.4954 -16.4825
   -15.1121 -14.9614 -14.9012 -14.8467 -14.7638 -14.7309 -14.7245 -14.6479
   -14.6234 -14.5840 -14.5222 -14.5180 -14.5014 -14.5010 -14.4768 -14.4688
   -14.4578 -14.4509 -14.4283 -14.4180 -14.4035 -14.3697 -14.3688 -14.3659
   -14.3624 -14.3438 -14.3365 -14.3277 -14.2927 -14.2896 -14.2891 -14.2845
   -14.2742 -14.2600 -14.2496 -14.2308 -14.2073 -14.1947 -14.1849 -14.1844
   -14.1825 -14.1758 -14.1724 -14.1675 -14.1603 -14.1561 -14.1480 -14.1452
   -14.1314 -14.1298 -14.1190 -14.1133 -14.1033 -14.0999 -14.0767 -14.0401
   -14.0348 -14.0283 -14.0160 -14.0118 -13.9999 -13.9855 -13.9682 -13.9408
   -13.9391 -13.9304 -13.9181 -13.9071 -13.9017 -13.8976 -13.8903 -13.8751
   -13.8699 -13.8621 -13.8457 -13.8364 -13.8357 -13.8037 -13.7772 -13.6774
   -13.6694 -13.6553 -13.6530 -13.6455 -13.6442 -13.6438 -13.6376 -13.6330
   -13.6285 -13.6146 -13.6104 -13.6022 -13.6003 -13.5985 -13.5960 -13.5955
   -13.5907 -13.5847 -13.5674 -13.5590 -13.5528 -13.5524 -13.5496 -13.5474
   -13.5416 -13.5416 -13.5127 -13.4906 -13.4744 -13.4568 -13.4462 -13.4421
   -13.4358 -13.4287 -13.3682 -13.3636 -13.2924 -13.2498 -13.2205 -13.2191
    -8.6305  -8.5478  -8.4716  -8.4625  -8.3620  -8.3487  -8.3312  -8.3082
    -8.2948  -8.2875  -8.2467  -8.1664  -8.1575  -8.1565  -8.1534  -8.1433
    -8.1429  -8.0994  -8.0833  -8.0717  -8.0709  -8.0467  -8.0393  -7.9922
    -7.9904  -7.9301  -7.9233  -7.9001  -7.8813  -7.8711  -7.8624  -7.8521
    -7.8477  -7.8409  -7.8375  -7.8263  -7.8226  -7.8181  -7.8147  -7.8071
    -7.7948  -7.7847  -7.7799  -7.7706  -7.7682  -7.7640  -7.7626  -7.7568
    -7.7566  -7.7544  -7.7489  -7.7430  -7.7387  -7.7244  -7.7185  -7.7139
    -7.7077  -7.6969  -7.6812  -7.6677  -7.6644  -7.6641  -7.6584  -7.6526
    -7.6512  -7.6509  -7.6453  -7.6403  -7.6378  -7.6257  -7.6066  -7.5935
    -7.5860  -7.5412  -7.5403  -7.5279  -7.5260  -7.4979  -7.4863  -7.4633
    -7.4252  -7.4149  -7.4086  -7.3867  -7.3740  -7.3664  -7.3594  -7.3590
    -7.3537  -7.3464  -7.3350  -7.2909  -7.2838  -7.1331  -7.0949  -7.0531
    -3.7123  -3.6093  -3.4292  -3.3712  -3.3443  -3.2907  -3.1968  -3.0546
    -2.9953  -2.9876  -2.9755  -2.9581  -2.8178  -2.8118  -2.7777  -2.7674
    -2.7509  -2.7426  -2.7333  -2.6273  -2.5682  -2.5681  -2.5677  -2.5675
    -2.5133  -2.5091  -2.4794  -2.4078  -2.3937  -2.3693  -2.3569  -2.3493
    -2.2969  -2.2958  -2.2614  -2.2411  -2.2269  -2.2222  -2.2207  -2.2129
    -2.1908  -2.1642  -2.1274  -2.0881  -2.0626  -2.0540  -2.0411  -2.0386
    -2.0358  -2.0073  -1.9889  -1.9702  -1.9482  -1.9241  -1.9214  -1.8975
    -1.8923  -1.8533  -1.8479  -1.8292  -1.8068  -1.7992  -1.7986  -1.7933
    -1.7875  -1.7758  -1.7729  -1.7689  -1.7615  -1.7547  -1.7520  -1.7507
    -1.7488  -1.7458  -1.7433  -1.7398  -1.7343  -1.7341  -1.7292  -1.7076
    -1.7053  -1.6975  -1.6941  -1.6894  -1.6823  -1.6782  -1.6682  -1.6666
    -1.6564  -1.6527  -1.6070  -1.6000  -1.5770  -1.5764  -1.5709  -1.5706
    -1.5552  -1.5505  -1.5440  -1.5398  -1.5376  -1.5237  -1.5205  -1.5179
    -1.5086  -1.4986  -1.4947  -1.4660  -1.4644  -1.4639  -1.4601  -1.4572
    -1.4378  -1.4314  -1.4016  -1.3932  -1.3755  -1.3655  -1.3579  -1.3454
    -1.3323  -1.3267  -1.2851  -1.2682  -1.2514  -1.2238  -1.2097  -1.1707
    -1.1691  -1.1683  -1.1569  -1.1547  -1.1507  -1.1487  -1.1327  -1.1280
    -1.1134  -1.0982  -1.0938  -1.0723  -1.0492  -1.0378  -0.9135  -0.8899
    -0.8596  -0.8482  -0.8159  -0.7926  -0.7827  -0.7818  -0.7645  -0.7548
    -0.7531  -0.7379  -0.7324  -0.7254  -0.6962  -0.6898  -0.6652  -0.6635
    -0.6599  -0.6530  -0.6471  -0.6392  -0.6330  -0.6321  -0.6307  -0.6247
    -0.6246  -0.6085  -0.5948  -0.5841  -0.5806  -0.5694  -0.5674  -0.5647
    -0.5587  -0.5515  -0.5481  -0.5440  -0.5376  -0.5278  -0.5237  -0.5185
    -0.4867  -0.4864  -0.4839  -0.4827  -0.4722  -0.4689  -0.4571  -0.4489
    -0.4429  -0.4393  -0.4368  -0.4291  -0.4246  -0.4211  -0.4179  -0.4156
    -0.4105  -0.4026  -0.3982  -0.3972  -0.3813  -0.3798  -0.3749  -0.3679
    -0.3540  -0.3427  -0.3332  -0.3128  -0.3088  -0.3069  -0.3041  -0.2905
    -0.2791  -0.2790  -0.2763  -0.2664  -0.2648  -0.2551  -0.2546  -0.2522
    -0.2488  -0.2221  -0.2153  -0.2053  -0.1991  -0.1972  -0.1890  -0.1869
    -0.1713  -0.1657  -0.1399  -0.1315  -0.1312  -0.1272  -0.1264  -0.1209
    -0.1056  -0.0898  -0.0849  -0.0814  -0.0773  -0.0737  -0.0704  -0.0664
    -0.0463  -0.0221  -0.0181  -0.0109   0.0029   0.0035   0.0062   0.0149
     0.0309   0.0339   0.0581   0.0743   0.0749   0.1116   0.1132   0.1233
     0.1246   0.1272   0.1304   0.1393   0.1507   0.1567   0.1637   0.1647
     0.1749   0.1793   0.2212   0.2527   0.2544   0.2732   0.2745   0.2754
     0.2959   0.3293   0.3521   0.3766   0.3802   0.3979   0.3998   0.4072
     0.4406   0.4512   0.4541   0.4564   0.4591   0.4599   0.4735   0.4755
     0.4801   0.4842   0.4843   0.4928   0.4952   0.5007   0.5086   0.5145
     0.5238   0.5437   0.5571   0.5710   0.5831   0.5838   0.5928   0.5970
     0.6018   0.6047   0.6051   0.6055   0.6104   0.6253   0.6307   0.6364
     0.6448   0.6577   0.6627   0.6693   0.6714   0.6732   0.6820   0.6836
     0.6924   0.6990   0.7083   0.7163   0.7290   0.7370   0.7567   0.7574
     0.7579   0.7583   0.7630   0.7638   0.7825   0.8038   0.8166   0.8300
     0.8302   0.8347   0.8368   0.8384   0.8392   0.8484   0.8514   0.8598
     0.8665   0.8721   0.8775   0.9124   0.9386   0.9486   0.9502   0.9535
     0.9738   0.9793   0.9857   0.9905   0.9969   0.9981   1.0069   1.0147
     1.0390   1.0537   1.0567   1.0640   1.0737   1.0740   1.0836   1.0886
     1.0943   1.1123   1.1149   1.1162   1.1389   1.1694   1.2028   1.2066
     1.2154   1.2160   1.2224   1.2226   1.2249   1.2340   1.2641   1.2734
     1.2786   1.2822   1.2979   1.3095   1.3104   1.3184   1.3198   1.3252
     1.3362   1.3432   1.3454   1.3488   1.3619   1.3629   1.3674   1.3705
     1.3824   1.3870   1.4016   1.4021   1.4088   1.4095   1.4432   1.4471
     1.4493   1.4512   1.4562   1.4635   1.4647   1.4654   1.4712   1.4727
     1.4745   1.4810   1.4841   1.4868   1.4906   1.4941   1.5041   1.5143
     1.5197   1.5200   1.5311   1.5414   1.5464   1.5615   1.5619   1.5678
     1.5691   1.5738   1.5814   1.5895   1.5904   1.6063   1.6066   1.6121
     1.6191   1.6245   1.6293   1.6354   1.6493   1.6556   1.6561   1.6616
     1.6621   1.6688   1.7005   1.7056   1.7094   1.7113   1.7122   1.7251
     1.7388   1.7471   1.7471   1.7534   1.7535   1.7649   1.7725   1.7760
     1.7761   1.7779   1.7835   1.7838   1.7874   1.7902   1.7985   1.8016
     1.8062   1.8079   1.8122   1.8162   1.8211   1.8216   1.8286   1.8405
     1.8415   1.8524   1.8554   1.8592   1.8664   1.8762   1.8794   1.8873
     1.8885   1.8982   1.9107   1.9121   1.9268   1.9319   1.9368   1.9434
     1.9518   1.9598   1.9699   1.9705   1.9786   1.9814   1.9885   1.9945
     1.9995   2.0057   2.0115   2.0143   2.0232   2.0309   2.0379   2.0424
     2.0478   2.0547   2.0554   2.0634   2.0814   2.0846   2.0903   2.0943
     2.0947   2.0953   2.1029   2.1058   2.1060   2.1125   2.1222   2.1250
     2.1329   2.1358   2.1419   2.1444   2.1675   2.1693   2.1801   2.1958
     2.2000   2.2035   2.2297   2.2335   2.2348   2.2413   2.2490   2.2538
     2.2699   2.2786   2.2865   2.2953   2.3060   2.3095   2.3130   2.3325
     2.3353   2.3440   2.3495   2.3528   2.3626   2.3665   2.3963   2.4059
     2.4435   2.4464   2.4562   2.4700   2.4844   2.4888   2.4925   2.4939
     2.4961   2.5067   2.5264   2.5623   2.6341   2.6442   2.6499   2.6631
     2.6720   2.6764   2.6764   2.6824   2.6988   2.7399   2.7663   2.7955
     2.7956   2.7963   2.7965   2.8090   2.9234   2.9466   3.0104   3.0150
     3.0217   3.0278   3.0978   3.1099   3.1203   3.1300   3.2287   3.2326
     3.2335   3.2369   3.2388   3.2436   3.2455   3.2474   3.3474   3.3533
     3.4095   3.4117   3.4172   3.4351   3.4564   3.5033   3.6580   3.7033
     3.8348   3.8503   3.8708   3.8882   4.0169   4.0281   4.1098   4.1198
     4.2730   4.3221   4.4962   4.5283   4.5382   4.5528   4.6253   4.7244
     5.7825   5.9665   6.0598   6.0789   6.1791   6.1816   6.1844   6.1855
     6.2532   6.3935   6.4005   6.4034   6.4070   6.4637   6.4944   6.5966
     6.6566   6.7283   6.8721   6.9451   6.9604   6.9695   6.9714   6.9798
     6.9861   6.9908   6.9943   7.0718   7.1066   7.1159   7.1627   7.1704
     7.1988   7.2428   7.2982   7.3078   7.3325   7.3447   7.3915   7.4049
     7.4290   7.5487   7.5586   7.5711   7.5717   7.5975   7.7613   7.7954
     7.8250   7.8326   7.8365   7.8459   7.8592   7.9135   7.9196   7.9615
     8.0044   8.0323   8.0549   8.0922   8.1047   8.1297   8.1299   8.1516
     8.1895   8.1976   8.2111   8.2495   8.2567   8.2861   8.3020   8.3337
     8.3381   8.3599   8.3806   8.3832   8.4222   8.4460   8.4500   8.5044
     8.5483   8.5661   8.5832   8.5882   8.6418   8.6596   8.6629   8.7002
     8.7014   8.7072   8.7254   8.7585   8.8311   8.8537   8.8778   8.8850
     8.9240   8.9439   8.9573   8.9635   9.0143   9.0150   9.0311   9.0361
     9.0383   9.0560   9.0656   9.0759   9.0914   9.1047   9.1099   9.1180
     9.1349   9.1464   9.1652   9.2345   9.2633   9.2748   9.2927   9.3070
     9.3110   9.3278   9.3641   9.3774   9.3854   9.4158   9.4173   9.4299
     9.4450   9.4707   9.4752   9.4971   9.5119   9.5436   9.5571   9.5755
     9.5869   9.5899   9.6271   9.6460   9.6691   9.6726   9.6857   9.7097
     9.7173   9.7309

          k =-0.4652-0.0000 0.0000 (277224 PWs)   bands (ev):

   -37.9599 -37.9330 -37.9295 -37.9258 -37.9234 -37.9099 -37.9082 -37.7902
   -37.7475 -37.7438 -37.7414 -37.7391 -37.7259 -37.7239 -35.4974 -35.2534
   -23.1954 -23.0051 -22.9918 -22.9298 -22.8910 -22.8259 -22.7930 -22.6125
   -22.5834 -22.5700 -22.5375 -22.5260 -22.5241 -22.5181 -22.5124 -22.5048
   -22.4350 -22.4329 -22.4278 -22.4216 -22.4196 -22.4144 -22.4001 -22.3884
   -22.3750 -22.3679 -22.3258 -22.2923 -22.2710 -22.1600 -22.1284 -22.0495
   -18.5389 -18.4661 -18.4604 -18.4349 -18.4114 -18.3724 -18.3638 -18.3348
   -18.3240 -18.2982 -18.2926 -18.2727 -18.2692 -18.2620 -18.2419 -18.2402
   -18.2329 -18.2041 -18.2023 -18.1593 -18.1339 -18.1234 -18.1161 -18.0981
   -18.0928 -18.0847 -18.0732 -18.0700 -18.0582 -18.0539 -18.0494 -18.0238
   -17.9801 -17.9486 -17.9278 -17.9271 -17.9181 -17.8842 -17.8836 -17.8586
   -17.8085 -17.7512 -16.7569 -16.7283 -16.7219 -16.4990 -16.4968 -16.4825
   -15.1055 -14.9520 -14.9178 -14.8480 -14.7818 -14.7244 -14.7240 -14.6396
   -14.5918 -14.5814 -14.5484 -14.5431 -14.5101 -14.4923 -14.4808 -14.4777
   -14.4644 -14.4328 -14.4216 -14.4158 -14.3983 -14.3926 -14.3714 -14.3579
   -14.3409 -14.3405 -14.3125 -14.2954 -14.2886 -14.2866 -14.2775 -14.2723
   -14.2695 -14.2650 -14.2618 -14.2387 -14.2316 -14.2219 -14.2177 -14.1968
   -14.1959 -14.1924 -14.1895 -14.1881 -14.1752 -14.1748 -14.1418 -14.1416
   -14.1200 -14.1099 -14.1020 -14.0995 -14.0872 -14.0679 -14.0611 -14.0472
   -14.0363 -14.0289 -14.0210 -14.0016 -13.9873 -13.9537 -13.9434 -13.9418
   -13.9409 -13.9405 -13.9326 -13.9264 -13.9181 -13.9123 -13.8853 -13.8792
   -13.8703 -13.8442 -13.8306 -13.8250 -13.8126 -13.8104 -13.7507 -13.7344
   -13.7011 -13.6656 -13.6549 -13.6534 -13.6484 -13.6472 -13.6433 -13.6291
   -13.6284 -13.6272 -13.6265 -13.6251 -13.6003 -13.5984 -13.5954 -13.5768
   -13.5758 -13.5737 -13.5731 -13.5645 -13.5422 -13.5407 -13.5398 -13.5356
   -13.5340 -13.5249 -13.4971 -13.4967 -13.4896 -13.4871 -13.4596 -13.4547
   -13.3868 -13.3789 -13.3738 -13.3487 -13.3227 -13.2949 -13.2494 -13.1713
    -8.6697  -8.5541  -8.4379  -8.3729  -8.3633  -8.3595  -8.3501  -8.3404
    -8.3247  -8.2887  -8.2343  -8.2295  -8.1441  -8.1248  -8.0952  -8.0843
    -8.0833  -8.0806  -8.0777  -8.0740  -8.0701  -8.0646  -8.0617  -8.0333
    -8.0138  -7.9336  -7.9232  -7.9100  -7.9019  -7.8651  -7.8605  -7.8458
    -7.8360  -7.8253  -7.8214  -7.8149  -7.8118  -7.8106  -7.8051  -7.7995
    -7.7931  -7.7839  -7.7802  -7.7741  -7.7693  -7.7685  -7.7658  -7.7619
    -7.7589  -7.7580  -7.7549  -7.7500  -7.7492  -7.7459  -7.7448  -7.7366
    -7.7354  -7.7314  -7.7313  -7.7234  -7.7209  -7.7059  -7.6944  -7.6829
    -7.6822  -7.6578  -7.6433  -7.6041  -7.5893  -7.5767  -7.5529  -7.5403
    -7.5327  -7.5235  -7.5128  -7.5039  -7.4997  -7.4907  -7.4634  -7.4607
    -7.4598  -7.4484  -7.4191  -7.4066  -7.3975  -7.3939  -7.3881  -7.3849
    -7.3747  -7.3492  -7.2495  -7.2465  -7.1947  -7.1667  -7.1186  -7.0665
    -3.7582  -3.6611  -3.3398  -3.2892  -3.2536  -3.2429  -3.2119  -3.2068
    -3.1472  -3.0192  -2.9911  -2.8968  -2.8887  -2.8637  -2.8569  -2.7135
    -2.6955  -2.6756  -2.6577  -2.6576  -2.6567  -2.6041  -2.5985  -2.5647
    -2.5374  -2.5228  -2.4963  -2.4847  -2.4322  -2.3537  -2.3278  -2.1915
    -2.1873  -2.1761  -2.1398  -2.1318  -2.1309  -2.1173  -2.1128  -2.1059
    -2.0961  -2.0941  -2.0926  -2.0861  -2.0760  -2.0574  -2.0506  -2.0314
    -2.0226  -2.0179  -1.9535  -1.9433  -1.9073  -1.9041  -1.8983  -1.8973
    -1.8893  -1.8747  -1.8734  -1.8538  -1.8514  -1.8472  -1.8465  -1.8199
    -1.8179  -1.8124  -1.8095  -1.8036  -1.7967  -1.7856  -1.7645  -1.7435
    -1.7414  -1.7396  -1.7393  -1.7362  -1.7248  -1.7227  -1.7085  -1.7060
    -1.6817  -1.6636  -1.6603  -1.6581  -1.6579  -1.6572  -1.6544  -1.6516
    -1.6480  -1.6427  -1.6319  -1.6309  -1.6199  -1.6142  -1.6079  -1.6044
    -1.5871  -1.5837  -1.5703  -1.5679  -1.5570  -1.5568  -1.5416  -1.5410
    -1.5317  -1.5216  -1.5200  -1.5076  -1.5015  -1.4927  -1.4908  -1.4770
    -1.4684  -1.4635  -1.4556  -1.4432  -1.4402  -1.4396  -1.4112  -1.3869
    -1.3813  -1.3774  -1.3678  -1.3392  -1.3275  -1.3231  -1.3175  -1.3129
    -1.2929  -1.2230  -1.1840  -1.1816  -1.1215  -1.1198  -1.0904  -1.0543
    -1.0312  -1.0231  -1.0103  -1.0019  -0.9817  -0.9784  -0.9741  -0.9548
    -0.9523  -0.9024  -0.8722  -0.8225  -0.8043  -0.7452  -0.7411  -0.7311
    -0.7271  -0.7264  -0.7178  -0.7151  -0.7109  -0.6902  -0.6853  -0.6838
    -0.6819  -0.6779  -0.6689  -0.6393  -0.6224  -0.6222  -0.6034  -0.6003
    -0.5986  -0.5923  -0.5868  -0.5692  -0.5577  -0.5403  -0.5291  -0.5237
    -0.5161  -0.5153  -0.5123  -0.5080  -0.4999  -0.4953  -0.4922  -0.4738
    -0.4677  -0.4576  -0.4539  -0.4537  -0.4508  -0.4454  -0.4325  -0.4264
    -0.4248  -0.4128  -0.4116  -0.3997  -0.3996  -0.3889  -0.3858  -0.3847
    -0.3730  -0.3711  -0.3673  -0.3578  -0.3555  -0.3526  -0.3496  -0.3480
    -0.3368  -0.3358  -0.3278  -0.3231  -0.3220  -0.3132  -0.2963  -0.2942
    -0.2933  -0.2798  -0.2754  -0.2725  -0.2693  -0.2612  -0.2486  -0.2469
    -0.2186  -0.2118  -0.2040  -0.2021  -0.1993  -0.1966  -0.1902  -0.1711
    -0.1653  -0.1615  -0.1458  -0.1273  -0.1231  -0.1122  -0.0996  -0.0961
    -0.0955  -0.0806  -0.0792  -0.0780  -0.0762  -0.0627  -0.0274  -0.0250
    -0.0165  -0.0141  -0.0103  -0.0029   0.0030   0.0075   0.0166   0.0320
     0.0378   0.0512   0.0563   0.0572   0.0609   0.0637   0.0793   0.0821
     0.0921   0.0936   0.1035   0.1063   0.1091   0.1170   0.1207   0.1286
     0.1321   0.1367   0.1444   0.1737   0.2046   0.2409   0.2723   0.2981
     0.3051   0.3067   0.3243   0.3317   0.3425   0.3756   0.3929   0.4037
     0.4079   0.4191   0.4533   0.4782   0.4844   0.4903   0.4921   0.4950
     0.4960   0.5044   0.5089   0.5230   0.5245   0.5351   0.5468   0.5506
     0.5560   0.5587   0.5607   0.5623   0.5691   0.5718   0.5784   0.5830
     0.5957   0.5989   0.6092   0.6111   0.6135   0.6185   0.6193   0.6251
     0.6276   0.6277   0.6356   0.6429   0.6616   0.6680   0.6694   0.6698
     0.6779   0.6867   0.6878   0.7090   0.7133   0.7135   0.7245   0.7298
     0.7312   0.7510   0.7523   0.7582   0.7630   0.7705   0.7850   0.7892
     0.7912   0.8037   0.8175   0.8247   0.8390   0.8537   0.8562   0.8757
     0.8768   0.8944   0.9053   0.9062   0.9166   0.9368   0.9529   0.9556
     0.9760   1.0005   1.0082   1.0101   1.0388   1.0438   1.0477   1.0483
[...]
     atom   56 type  4   force =    -0.00009319    0.00000737    0.00012440
     atom   57 type  2   force =     0.00000000    0.00000000   -0.00002593
     atom   58 type  5   force =     0.00033442    0.00000000   -0.00017242
     atom   59 type  5   force =    -0.00033442    0.00000000   -0.00017242
     atom   60 type  5   force =     0.00000000    0.00000000    0.00031649
     atom   61 type  5   force =     0.00000000    0.00000000   -0.00029167
     atom   62 type  5   force =     0.00000000    0.00000000   -0.00029167
     atom   63 type  5   force =     0.00000000    0.00006851   -0.00037135
     atom   64 type  5   force =     0.00000000   -0.00006851   -0.00037135
     atom   65 type  4   force =    -0.00026206    0.00008988    0.00036385
     atom   66 type  4   force =    -0.00026206   -0.00008988    0.00036385
     atom   67 type  4   force =     0.00026206    0.00008988    0.00036385
     atom   68 type  4   force =     0.00026206   -0.00008988    0.00036385
     atom   69 type  4   force =     0.00000000   -0.00024564   -0.00005945
     atom   70 type  4   force =     0.00000000    0.00024564   -0.00005945
     atom   71 type  4   force =    -0.00010866    0.00000938    0.00044840
     atom   72 type  4   force =    -0.00010866   -0.00000938    0.00044840
     atom   73 type  4   force =     0.00010866   -0.00000938    0.00044840
     atom   74 type  4   force =     0.00010866    0.00000938    0.00044840
     atom   75 type  4   force =     0.00020426    0.00000000    0.00027366
     atom   76 type  4   force =    -0.00020426    0.00000000    0.00027366
     atom   77 type  4   force =     0.00000000   -0.00036165    0.00104034
     atom   78 type  4   force =     0.00000000    0.00036165    0.00104034
     atom   79 type  4   force =     0.00015353    0.00000000    0.00004393
     atom   80 type  4   force =    -0.00015353    0.00000000    0.00004393
     atom   81 type  3   force =     0.00012796   -0.00009741   -0.00079386
     atom   82 type  3   force =     0.00012796    0.00009741   -0.00079386
     atom   83 type  3   force =    -0.00012796   -0.00009741   -0.00079386
     atom   84 type  3   force =    -0.00012796    0.00009741   -0.00079386
     atom   85 type  3   force =     0.00006362   -0.00006905   -0.00073669
     atom   86 type  3   force =    -0.00006362   -0.00006905   -0.00073669
     atom   87 type  3   force =    -0.00006362    0.00006905   -0.00073669
     atom   88 type  3   force =     0.00006362    0.00006905   -0.00073669
     atom   89 type  1   force =     0.00000000    0.00000000   -0.00171731
     atom   90 type  1   force =     0.00000000   -0.00031729   -0.00244874
     atom   91 type  1   force =     0.00000000    0.00031729   -0.00244874
     atom   92 type  1   force =    -0.00054409    0.00000000   -0.00168887
     atom   93 type  1   force =     0.00054409    0.00000000   -0.00168887
     atom   94 type  1   force =     0.00000000    0.00000000   -0.00236369
     atom   95 type  1   force =     0.00000000    0.00000000   -0.00236369
     atom   96 type  1   force =     0.00000000    0.00000000   -0.00171968
     atom   97 type  4   force =    -0.00016287   -0.00016758    0.00158150
     atom   98 type  4   force =    -0.00016287    0.00016758    0.00158150
     atom   99 type  4   force =     0.00016287   -0.00016758    0.00158150
     atom  100 type  4   force =     0.00016287    0.00016758    0.00158150
     atom  101 type  4   force =     0.00017763   -0.00042675    0.00226861
     atom  102 type  4   force =    -0.00017763   -0.00042675    0.00226861
     atom  103 type  4   force =    -0.00017763    0.00042675    0.00226861
     atom  104 type  4   force =     0.00017763    0.00042675    0.00226861
     atom  105 type  4   force =     0.00022030    0.00000000    0.00756621
     atom  106 type  4   force =    -0.00022030    0.00000000    0.00756621
     atom  107 type  3   force =    -0.00127262   -0.00065792   -0.00357901
     atom  108 type  3   force =    -0.00127262    0.00065792   -0.00357901
     atom  109 type  3   force =     0.00127262    0.00065792   -0.00357901
     atom  110 type  3   force =     0.00127262   -0.00065792   -0.00357901
     atom  111 type  3   force =    -0.00145511   -0.00027890   -0.00212490
     atom  112 type  3   force =     0.00145511    0.00027890   -0.00212490
     atom  113 type  3   force =    -0.00145511    0.00027890   -0.00212490
     atom  114 type  3   force =     0.00145511   -0.00027890   -0.00212490
     atom  115 type  4   force =     0.00041808   -0.00065634    0.00812631
     atom  116 type  4   force =    -0.00041808   -0.00065634    0.00812631
     atom  117 type  4   force =     0.00041808    0.00065634    0.00812631
     atom  118 type  4   force =    -0.00041808    0.00065634    0.00812631
     atom  119 type  4   force =     0.00193564    0.00000000    0.00810792
     atom  120 type  4   force =    -0.00193564    0.00000000    0.00810792
     atom  121 type  4   force =    -0.00459077   -0.00322525    0.00911752
     atom  122 type  4   force =     0.00459077   -0.00322525    0.00911752
     atom  123 type  4   force =     0.00459077    0.00322525    0.00911752
     atom  124 type  4   force =    -0.00459077    0.00322525    0.00911752
     atom  125 type  4   force =     0.00155173   -0.00115937    0.00547105
     atom  126 type  4   force =     0.00155173    0.00115937    0.00547105
     atom  127 type  4   force =    -0.00155173   -0.00115937    0.00547105
     atom  128 type  4   force =    -0.00155173    0.00115937    0.00547105
     atom  129 type  1   force =     0.00000000    0.00000000    0.00277920
     atom  130 type  1   force =     0.00000000    0.00000000    0.00367303
     atom  131 type  1   force =     0.00000000    0.00000000    0.00367303
     atom  132 type  1   force =     0.00070012    0.00000000    0.00797267
     atom  133 type  1   force =    -0.00070012    0.00000000    0.00797267
     atom  134 type  1   force =     0.00000000    0.00088229    0.00593552
     atom  135 type  1   force =     0.00000000   -0.00088229    0.00593552
     atom  136 type  1   force =     0.00000000    0.00000000    0.01900620
     atom  137 type  3   force =     0.00038122    0.00040281    0.00764402
     atom  138 type  3   force =     0.00038122   -0.00040281    0.00764402
     atom  139 type  3   force =    -0.00038122   -0.00040281    0.00764402
     atom  140 type  3   force =    -0.00038122    0.00040281    0.00764402
     atom  141 type  3   force =    -0.00349289    0.00424582    0.00231920
     atom  142 type  3   force =    -0.00349289   -0.00424582    0.00231920
     atom  143 type  3   force =     0.00349289    0.00424582    0.00231920
     atom  144 type  3   force =     0.00349289   -0.00424582    0.00231920
     atom  145 type  4   force =    -0.00102946    0.00000000   -0.00156246
     atom  146 type  4   force =     0.00102946    0.00000000   -0.00156246
     atom  147 type  4   force =     0.00000000   -0.00037331   -0.00339471
     atom  148 type  4   force =     0.00000000    0.00037331   -0.00339471
     atom  149 type  4   force =    -0.00023500    0.00000000   -0.00222772
     atom  150 type  4   force =     0.00023500    0.00000000   -0.00222772
     atom  151 type  4   force =    -0.00071446    0.00078109    0.00056739
     atom  152 type  4   force =     0.00071446    0.00078109    0.00056739
     atom  153 type  4   force =     0.00071446   -0.00078109    0.00056739
     atom  154 type  4   force =    -0.00071446   -0.00078109    0.00056739
     atom  155 type  4   force =     0.00000000   -0.00141558   -0.00048650
     atom  156 type  4   force =     0.00000000    0.00141558   -0.00048650
     atom  157 type  4   force =     0.00119138    0.00017694   -0.00020375
     atom  158 type  4   force =    -0.00119138   -0.00017694   -0.00020375
     atom  159 type  4   force =     0.00119138   -0.00017694   -0.00020375
     atom  160 type  4   force =    -0.00119138    0.00017694   -0.00020375
     atom  161 type  2   force =     0.00000000    0.00000000   -0.02569129
     atom  162 type  5   force =    -0.00014396    0.00000000   -0.02976369
     atom  163 type  5   force =     0.00014396    0.00000000   -0.02976369
     atom  164 type  5   force =     0.00000000    0.00000000   -0.02665532
     atom  165 type  5   force =     0.00000000    0.00000000   -0.02766690
     atom  166 type  5   force =     0.00000000    0.00000000   -0.02766690
     atom  167 type  5   force =     0.00000000   -0.00060970   -0.02862223
     atom  168 type  5   force =     0.00000000    0.00060970   -0.02862223
     atom  169 type  4   force =    -0.00018194    0.00003128    0.00270028
     atom  170 type  4   force =    -0.00018194   -0.00003128    0.00270028
     atom  171 type  4   force =     0.00018194    0.00003128    0.00270028
     atom  172 type  4   force =     0.00018194   -0.00003128    0.00270028
     atom  173 type  4   force =     0.00000000    0.00009566    0.00254176
     atom  174 type  4   force =     0.00000000   -0.00009566    0.00254176
     atom  175 type  4   force =    -0.00001523    0.00002804    0.00202093
     atom  176 type  4   force =    -0.00001523   -0.00002804    0.00202093
     atom  177 type  4   force =     0.00001523   -0.00002804    0.00202093
     atom  178 type  4   force =     0.00001523    0.00002804    0.00202093
     atom  179 type  4   force =    -0.00010121    0.00000000    0.00169815
     atom  180 type  4   force =     0.00010121    0.00000000    0.00169815
     atom  181 type  4   force =     0.00000000   -0.00027494    0.00285434
     atom  182 type  4   force =     0.00000000    0.00027494    0.00285434
     atom  183 type  4   force =     0.00023032    0.00000000    0.00244574
     atom  184 type  4   force =    -0.00023032    0.00000000    0.00244574
     atom  185 type  3   force =    -0.00001357    0.00018312    0.00113097
     atom  186 type  3   force =    -0.00001357   -0.00018312    0.00113097
     atom  187 type  3   force =     0.00001357    0.00018312    0.00113097
     atom  188 type  3   force =     0.00001357   -0.00018312    0.00113097
     atom  189 type  3   force =     0.00003260    0.00000782    0.00109442
     atom  190 type  3   force =    -0.00003260    0.00000782    0.00109442
     atom  191 type  3   force =    -0.00003260   -0.00000782    0.00109442
     atom  192 type  3   force =     0.00003260   -0.00000782    0.00109442
     atom  193 type  1   force =     0.00000000    0.00000000   -0.00069339
     atom  194 type  1   force =     0.00000000   -0.00006504   -0.00045415
     atom  195 type  1   force =     0.00000000    0.00006504   -0.00045415
     atom  196 type  1   force =     0.00020079    0.00000000   -0.00070307
     atom  197 type  1   force =    -0.00020079    0.00000000   -0.00070307
     atom  198 type  1   force =     0.00000000    0.00000000   -0.00060661
     atom  199 type  1   force =     0.00000000    0.00000000   -0.00060661
     atom  200 type  1   force =     0.00000000    0.00000000   -0.00060731
     atom  201 type  4   force =     0.00002101    0.00009451    0.00048274
     atom  202 type  4   force =     0.00002101   -0.00009451    0.00048274
     atom  203 type  4   force =    -0.00002101    0.00009451    0.00048274
     atom  204 type  4   force =    -0.00002101   -0.00009451    0.00048274
     atom  205 type  4   force =     0.00003057    0.00005292    0.00048582
     atom  206 type  4   force =    -0.00003057    0.00005292    0.00048582
     atom  207 type  4   force =    -0.00003057   -0.00005292    0.00048582
     atom  208 type  4   force =     0.00003057   -0.00005292    0.00048582
     atom  209 type  4   force =     0.00011185    0.00000000    0.00006702
     atom  210 type  4   force =    -0.00011185    0.00000000    0.00006702
     atom  211 type  3   force =     0.00008935   -0.00006866   -0.00025821
     atom  212 type  3   force =     0.00008935    0.00006866   -0.00025821
     atom  213 type  3   force =    -0.00008935    0.00006866   -0.00025821
     atom  214 type  3   force =    -0.00008935   -0.00006866   -0.00025821
     atom  215 type  3   force =    -0.00000886   -0.00002355   -0.00015418
     atom  216 type  3   force =     0.00000886    0.00002355   -0.00015418
     atom  217 type  3   force =    -0.00000886    0.00002355   -0.00015418
     atom  218 type  3   force =     0.00000886   -0.00002355   -0.00015418
     atom  219 type  4   force =    -0.00010393    0.00003912    0.00013874
     atom  220 type  4   force =     0.00010393    0.00003912    0.00013874
     atom  221 type  4   force =    -0.00010393   -0.00003912    0.00013874
     atom  222 type  4   force =     0.00010393   -0.00003912    0.00013874
     atom  223 type  4   force =    -0.00016794    0.00000000    0.00010769
     atom  224 type  4   force =     0.00016794    0.00000000    0.00010769

     Total force =     0.093445     Total SCF correction =     0.000468


     Computing stress (Cartesian axis) and pressure


     negative rho (up, down):  6.353E-01 0.000E+00
          total   stress  (Ry/bohr**3)                   (kbar)     P=       -6.39
  -0.00005357   0.00000000   0.00000000           -7.88        0.00        0.00
   0.00000000  -0.00003353   0.00000000            0.00       -4.93        0.00
   0.00000000   0.00000000  -0.00004314            0.00        0.00       -6.35

 
     init_run     :     53.76s CPU     55.14s WALL (       1 calls)
     electrons    :   4322.71s CPU   4400.65s WALL (       1 calls)
     forces       :     33.62s CPU     34.32s WALL (       1 calls)
     stress       :    393.74s CPU    396.21s WALL (       1 calls)

     Called by init_run:
     wfcinit      :     42.49s CPU     43.23s WALL (       1 calls)
     potinit      :      1.60s CPU      1.64s WALL (       1 calls)
     hinit0       :      2.80s CPU      2.84s WALL (       1 calls)

     Called by electrons:
     c_bands      :   3605.58s CPU   3643.70s WALL (      40 calls)
     sum_band     :    480.09s CPU    501.31s WALL (      40 calls)
     v_of_rho     :     10.81s CPU     10.93s WALL (      41 calls)
     newd         :     96.94s CPU    115.03s WALL (      41 calls)
     mix_rho      :    130.50s CPU    131.28s WALL (      40 calls)

     Called by c_bands:
     init_us_2    :     16.42s CPU     16.54s WALL (     332 calls)
     cegterg      :   3513.81s CPU   3550.09s WALL (     160 calls)

     Called by sum_band:
     sum_band:bec :      3.21s CPU      3.23s WALL (     160 calls)
     addusdens    :     75.42s CPU     93.78s WALL (      40 calls)

     Called by *egterg:
     h_psi        :   1354.85s CPU   1371.45s WALL (    1204 calls)
     s_psi        :    364.74s CPU    369.49s WALL (    1204 calls)
     g_psi        :      1.96s CPU      1.96s WALL (    1040 calls)
     cdiaghg      :    782.85s CPU    785.99s WALL (    1200 calls)

     Called by h_psi:
     h_psi:calbec :    444.37s CPU    446.05s WALL (    1204 calls)
     vloc_psi     :    540.77s CPU    546.95s WALL (    1204 calls)
     add_vuspsi   :    365.44s CPU    370.23s WALL (    1204 calls)

     General routines
     calbec       :    722.18s CPU    724.76s WALL (    1384 calls)
     fft          :     11.20s CPU     11.26s WALL (     556 calls)
     ffts         :     76.80s CPU     77.26s WALL (   33728 calls)
     fftw         :    600.34s CPU    607.01s WALL (  907896 calls)
     interpolate  :      0.97s CPU      0.98s WALL (      41 calls)
 
     Parallel routines
     fft_scatt_xy :     83.71s CPU     84.65s WALL (  942180 calls)
     fft_scatt_yz :    354.81s CPU    358.84s WALL (  942180 calls)
 
     PWSCF        :      1h20m CPU      1h21m WALL

 
   This run was terminated on:  19:37:18  17May2021            

=------------------------------------------------------------------------------=
   JOB DONE.
=------------------------------------------------------------------------------=
[1621294638.448161] [holy7c10111:47939:0]          mpool.c:43   UCX  WARN  object 0x3c2c740 was not returned to mpool ucp_requests
[1621294638.448741] [holy7c08607:39852:0]          mpool.c:43   UCX  WARN  object 0x456c100 was not returned to mpool ucp_requests
[1621294638.452167] [holy7c08304:11661:0]          mpool.c:43   UCX  WARN  object 0x409e9c0 was not returned to mpool ucp_requests
[1621294638.455091] [holy7c08304:11662:0]          mpool.c:43   UCX  WARN  object 0x320d540 was not returned to mpool ucp_requests
[1621294638.455391] [holy7c08304:11670:0]          mpool.c:43   UCX  WARN  object 0x2c6a100 was not returned to mpool ucp_requests
[1621294638.460650] [holy7c08304:11668:0]          mpool.c:43   UCX  WARN  object 0x2c09f00 was not returned to mpool ucp_requests
[1621294638.460488] [holy7c08608:266989:0]          mpool.c:43   UCX  WARN  object 0x361eb00 was not returned to mpool ucp_requests
[1621294638.464734] [holy7c08304:11671:0]          mpool.c:43   UCX  WARN  object 0x33e2c80 was not returned to mpool ucp_requests
[1621294638.464770] [holy7c08304:11669:0]          mpool.c:43   UCX  WARN  object 0x64f8140 was not returned to mpool ucp_requests
[1621294638.466583] [holy7c08304:11663:0]          mpool.c:43   UCX  WARN  object 0x2b02d40 was not returned to mpool ucp_requests
[1621294638.460537] [holy7c10111:47938:0]          mpool.c:43   UCX  WARN  object 0x43e0900 was not returned to mpool ucp_requests
[1621294638.460702] [holy7c10111:47945:0]          mpool.c:43   UCX  WARN  object 0x28c0c80 was not returned to mpool ucp_requests
[1621294638.461244] [holy7c10111:47946:0]          mpool.c:43   UCX  WARN  object 0x4682200 was not returned to mpool ucp_requests
[1621294638.462266] [holy7c10111:47937:0]          mpool.c:43   UCX  WARN  object 0x4327cc0 was not returned to mpool ucp_requests
[1621294638.464356] [holy7c10111:47948:0]          mpool.c:43   UCX  WARN  object 0x3f6a840 was not returned to mpool ucp_requests
[1621294638.463566] [holy7c10111:47947:0]          mpool.c:43   UCX  WARN  object 0x55091c0 was not returned to mpool ucp_requests
[1621294638.463305] [holy7c10111:47940:0]          mpool.c:43   UCX  WARN  object 0x3dc2640 was not returned to mpool ucp_requests
[1621294638.453384] [holy7c08607:39860:0]          mpool.c:43   UCX  WARN  object 0x66aef40 was not returned to mpool ucp_requests
[1621294638.460221] [holy7c08607:39853:0]          mpool.c:43   UCX  WARN  object 0x2b8f840 was not returned to mpool ucp_requests
[1621294638.458903] [holy7c08607:39851:0]          mpool.c:43   UCX  WARN  object 0x473b180 was not returned to mpool ucp_requests
[1621294638.461136] [holy7c08607:39858:0]          mpool.c:43   UCX  WARN  object 0x3eeb400 was not returned to mpool ucp_requests
[1621294638.462853] [holy7c08607:39850:0]          mpool.c:43   UCX  WARN  object 0x46e1e40 was not returned to mpool ucp_requests
[1621294638.462892] [holy7c08607:39861:0]          mpool.c:43   UCX  WARN  object 0x34afd40 was not returned to mpool ucp_requests
[1621294638.467230] [holy7c08607:39859:0]          mpool.c:43   UCX  WARN  object 0x343b340 was not returned to mpool ucp_requests
[1621294638.463146] [holy7c08608:266987:0]          mpool.c:43   UCX  WARN  object 0x41d0300 was not returned to mpool ucp_requests
[1621294638.473080] [holy7c08608:266995:0]          mpool.c:43   UCX  WARN  object 0x46e4840 was not returned to mpool ucp_requests
[1621294638.471219] [holy7c08608:266988:0]          mpool.c:43   UCX  WARN  object 0x2a99e40 was not returned to mpool ucp_requests
[1621294638.473392] [holy7c08608:266986:0]          mpool.c:43   UCX  WARN  object 0x35fef00 was not returned to mpool ucp_requests
[1621294638.474569] [holy7c08608:266997:0]          mpool.c:43   UCX  WARN  object 0x4a57f40 was not returned to mpool ucp_requests
[1621294638.477870] [holy7c08608:266996:0]          mpool.c:43   UCX  WARN  object 0x387d900 was not returned to mpool ucp_requests
[1621294638.477207] [holy7c08608:266994:0]          mpool.c:43   UCX  WARN  object 0x3743640 was not returned to mpool ucp_requests
