
     Program PWSCF v.6.5 starts on 21May2021 at 22:36:36 

     This program is part of the open-source Quantum ESPRESSO suite
     for quantum simulation of materials; please cite
         "P. Giannozzi et al., J. Phys.:Condens. Matter 21 395502 (2009);
         "P. Giannozzi et al., J. Phys.:Condens. Matter 29 465901 (2017);
          URL http://www.quantum-espresso.org", 
     in publications or presentations arising from this work. More details at
     http://www.quantum-espresso.org/quote

     Parallel version (MPI), running on    20 processors

     MPI processes distributed on    11 nodes
     R & G space division:  proc/nbgrp/npool/nimage =      20
     Reading input from CBCO_CuO_cleave_2.75_sep.pwi
Warning: card &IONS ignored
Warning: card     ION_DYNAMICS = 'BFGS' ignored
Warning: card / ignored
Warning: card &CELL ignored
Warning: card     CELL_DYNAMICS = 'BFGS' ignored
Warning: card     PRESS_CONV_THR = 5 ignored
Warning: card / ignored

     Current dimensions of program PWSCF are:
     Max number of different atomic species (ntypx) = 10
     Max number of k-points (npk) =  40000
     Max angular momentum in pseudopotentials (lmaxx) =  3

     Subspace diagonalization in iterative solution of the eigenvalue problem:
     one sub-group per band group will be used
     scalapack distributed-memory algorithm (size of sub-group:  4*  4 procs)

     Message from routine setup:
     using ibrav=0 with symmetry is DISCOURAGED, use correct ibrav instead
 
     Parallelization info
     --------------------
     sticks:   dense  smooth     PW     G-vecs:    dense   smooth      PW
     Min         149      50     14                74579    14362    2244
     Max         150      51     15                74618    14385    2291
     Sum        2991    1007    289              1491985   287417   45181
 


     bravais-lattice index     =            0
     lattice parameter (alat)  =       7.4270  a.u.
     unit-cell volume          =    4573.7972 (a.u.)^3
     number of atoms/cell      =           28
     number of atomic types    =            4
     number of electrons       =       227.00
     number of Kohn-Sham states=          137
     kinetic-energy cutoff     =      60.0000  Ry
     charge density cutoff     =     720.0000  Ry
     convergence threshold     =      1.0E-08
     mixing beta               =       0.5000
     number of iterations used =           10  local-TF  mixing
     Exchange-correlation= SLA PW PBE PBE
                           (   1   4   3   4   0   0   0)

     celldm(1)=   7.427040  celldm(2)=   0.000000  celldm(3)=   0.000000
     celldm(4)=   0.000000  celldm(5)=   0.000000  celldm(6)=   0.000000

     crystal axes: (cart. coord. in units of alat)
               a(1) = (   1.000000   0.000000   0.000000 )  
               a(2) = (   0.000000   0.947081   0.000000 )  
               a(3) = (   0.000000   0.000000  11.788063 )  

     reciprocal axes: (cart. coord. in units 2 pi/alat)
               b(1) = (  1.000000  0.000000  0.000000 )  
               b(2) = (  0.000000  1.055876  0.000000 )  
               b(3) = (  0.000000  0.000000  0.084832 )  


     PseudoPot. # 1 for Ba read from file:
     ./pseudo/Ba.pbe-nsp-van.UPF
     MD5 check sum: 2b9c31dd849566dd297d80989662b7a0
     Pseudo is Ultrasoft + core correction, Zval = 10.0
     Generated by new atomic code, or converted to UPF format
     Using radial grid of  907 points,  6 beta functions with: 
                l(1) =   0
                l(2) =   0
                l(3) =   1
                l(4) =   1
                l(5) =   2
                l(6) =   2
     Q(r) pseudized with  6 coefficients,  rinner =    1.200   1.200   1.200
                                                       1.200   1.200

     PseudoPot. # 2 for Ca read from file:
     ./pseudo/Ca.pbe-nsp-van.UPF
     MD5 check sum: 6471098428ff4fa451746d08035ff179
     Pseudo is Ultrasoft + core correction, Zval = 10.0
     Generated by new atomic code, or converted to UPF format
     Using radial grid of  845 points,  6 beta functions with: 
                l(1) =   0
                l(2) =   0
                l(3) =   1
                l(4) =   1
                l(5) =   2
                l(6) =   2
     Q(r) pseudized with  6 coefficients,  rinner =    1.200   1.200   1.200
                                                       1.200   1.200

     PseudoPot. # 3 for Cu read from file:
     ./pseudo/Cu.pbe-n-van_ak.UPF
     MD5 check sum: 34e3282627ffb533726feb647e090d62
     Pseudo is Ultrasoft + core correction, Zval = 11.0
     Generated by new atomic code, or converted to UPF format
     Using radial grid of  867 points,  6 beta functions with: 
                l(1) =   0
                l(2) =   0
                l(3) =   1
                l(4) =   1
                l(5) =   2
                l(6) =   2
     Q(r) pseudized with  8 coefficients,  rinner =    1.400   1.400   1.400
                                                       1.400   1.400

     PseudoPot. # 4 for O  read from file:
     ./pseudo/O.pbe-van_ak.UPF
     MD5 check sum: 783ce7fe4c79b6a4916957118fed0856
     Pseudo is Ultrasoft, Zval =  6.0
     Generated by new atomic code, or converted to UPF format
     Using radial grid of  737 points,  4 beta functions with: 
                l(1) =   0
                l(2) =   0
                l(3) =   1
                l(4) =   1
     Q(r) pseudized with  8 coefficients,  rinner =    0.800   0.800   0.800


     atomic species   valence    mass     pseudopotential
        Ba            10.00   137.32700     Ba( 1.00)
        Ca            10.00    40.07800     Ca( 1.00)
        Cu            11.00    63.54600     Cu( 1.00)
        O              6.00    15.99900     O ( 1.00)

      4 Sym. Ops. (no inversion) found



   Cartesian axes

     site n.     atom                  positions (alat units)
         1           O   tau(   1) = (   0.0000000   0.4735409  -0.0469745  )
         2           Cu  tau(   2) = (   0.0000000   0.0000000   0.0264565  )
         3           O   tau(   3) = (   0.0000000   0.0000000   0.5030914  )
         4           Ba  tau(   4) = (   0.5000000   0.4735409   0.5690292  )
         5           Cu  tau(   5) = (   0.0000000   0.0000000   1.0374254  )
         6           O   tau(   6) = (   0.5000000   0.0000000   1.0768099  )
         7           O   tau(   7) = (   0.0000000   0.4735409   1.1116985  )
         8           Ca  tau(   8) = (   0.5000000   0.4735409   1.4976260  )
         9           O   tau(   9) = (   0.0000000   0.4735409   1.8667529  )
        10           O   tau(  10) = (   0.5000000   0.0000000   1.9044124  )
        11           Cu  tau(  11) = (   0.0000000   0.0000000   1.9512546  )
        12           Ba  tau(  12) = (   0.5000000   0.4735409   2.4295764  )
        13           O   tau(  13) = (   0.0000000   0.0000000   2.5115362  )
        14           O   tau(  14) = (   0.0000000   0.4735409   2.9918528  )
        15           Cu  tau(  15) = (   0.0000000   0.0000000   2.9919088  )
        16           O   tau(  16) = (   0.0000000   0.0000000   4.1719750  )
        17           Ba  tau(  17) = (   0.5000000   0.4735409   4.2539271  )
        18           Cu  tau(  18) = (   0.0000000   0.0000000   4.7322311  )
        19           O   tau(  19) = (   0.5000000   0.0000000   4.7790733  )
        20           O   tau(  20) = (   0.0000000   0.4735409   4.8167277  )
        21           Ca  tau(  21) = (   0.5000000   0.4735409   5.1858647  )
        22           O   tau(  22) = (   0.0000000   0.4735409   5.5717897  )
        23           O   tau(  23) = (   0.5000000   0.0000000   5.6066783  )
        24           Cu  tau(  24) = (   0.0000000   0.0000000   5.6460654  )
        25           Ba  tau(  25) = (   0.5000000   0.4735409   6.1144590  )
        26           O   tau(  26) = (   0.0000000   0.0000000   6.1803867  )
        27           Cu  tau(  27) = (   0.0000000   0.0000000   6.6570266  )
        28           O   tau(  28) = (   0.0000000   0.4735409   6.7304449  )

     number of k points=    25  Gaussian smearing, width (Ry)=  0.0100
                       cart. coord. in units 2pi/alat
        k(    1) = (   0.0000000   0.0000000   0.0000000), wk =   0.0312500
        k(    2) = (   0.0000000   0.1319845   0.0000000), wk =   0.0625000
        k(    3) = (   0.0000000   0.2639689   0.0000000), wk =   0.0625000
        k(    4) = (   0.0000000   0.3959534   0.0000000), wk =   0.0625000
        k(    5) = (   0.0000000  -0.5279378   0.0000000), wk =   0.0312500
        k(    6) = (   0.1250000   0.0000000   0.0000000), wk =   0.0625000
        k(    7) = (   0.1250000   0.1319845   0.0000000), wk =   0.1250000
        k(    8) = (   0.1250000   0.2639689   0.0000000), wk =   0.1250000
        k(    9) = (   0.1250000   0.3959534   0.0000000), wk =   0.1250000
        k(   10) = (   0.1250000  -0.5279378   0.0000000), wk =   0.0625000
        k(   11) = (   0.2500000   0.0000000   0.0000000), wk =   0.0625000
        k(   12) = (   0.2500000   0.1319845   0.0000000), wk =   0.1250000
        k(   13) = (   0.2500000   0.2639689   0.0000000), wk =   0.1250000
        k(   14) = (   0.2500000   0.3959534   0.0000000), wk =   0.1250000
        k(   15) = (   0.2500000  -0.5279378   0.0000000), wk =   0.0625000
        k(   16) = (   0.3750000   0.0000000   0.0000000), wk =   0.0625000
        k(   17) = (   0.3750000   0.1319845   0.0000000), wk =   0.1250000
        k(   18) = (   0.3750000   0.2639689   0.0000000), wk =   0.1250000
        k(   19) = (   0.3750000   0.3959534   0.0000000), wk =   0.1250000
        k(   20) = (   0.3750000  -0.5279378   0.0000000), wk =   0.0625000
        k(   21) = (  -0.5000000   0.0000000   0.0000000), wk =   0.0312500
        k(   22) = (  -0.5000000   0.1319845   0.0000000), wk =   0.0625000
        k(   23) = (  -0.5000000   0.2639689   0.0000000), wk =   0.0625000
        k(   24) = (  -0.5000000   0.3959534   0.0000000), wk =   0.0625000
        k(   25) = (  -0.5000000  -0.5279378   0.0000000), wk =   0.0312500

     Dense  grid:  1491985 G-vectors     FFT dimensions: (  64,  64, 750)

     Smooth grid:   287417 G-vectors     FFT dimensions: (  40,  36, 432)

     Estimated max dynamical RAM per process >     475.81 MB

     Estimated total dynamical RAM >       9.29 GB

     Initial potential from superposition of free atoms

     starting charge  226.84630, renormalised to  227.00000

     negative rho (up, down):  3.422E-03 0.000E+00
     Starting wfcs are  195 randomized atomic wfcs

     total cpu time spent up to now is       12.2 secs

     Self-consistent Calculation

     iteration #  1     ecut=    60.00 Ry     beta= 0.50
     Davidson diagonalization with overlap
     ethr =  1.00E-02,  avg # of iterations =  2.0

     negative rho (up, down):  4.822E-04 0.000E+00

     total cpu time spent up to now is       30.1 secs

     total energy              =   -1840.73221237 Ry
     Harris-Foulkes estimate   =   -1845.36106237 Ry
     estimated scf accuracy    <      19.31105008 Ry

     iteration #  2     ecut=    60.00 Ry     beta= 0.50
     Davidson diagonalization with overlap
     ethr =  8.51E-03,  avg # of iterations =  2.0

     negative rho (up, down):  2.764E-04 0.000E+00

     total cpu time spent up to now is       49.0 secs

     total energy              =   -1842.44360146 Ry
     Harris-Foulkes estimate   =   -1843.35604118 Ry
     estimated scf accuracy    <       6.96503276 Ry

     iteration #  3     ecut=    60.00 Ry     beta= 0.50
     Davidson diagonalization with overlap
     ethr =  3.07E-03,  avg # of iterations =  1.1

     negative rho (up, down):  2.514E-04 0.000E+00

     total cpu time spent up to now is       66.3 secs

     total energy              =   -1842.77947689 Ry
     Harris-Foulkes estimate   =   -1843.02751928 Ry
     estimated scf accuracy    <       7.16932948 Ry

     iteration #  4     ecut=    60.00 Ry     beta= 0.50
     Davidson diagonalization with overlap
     ethr =  3.07E-03,  avg # of iterations =  1.0

     negative rho (up, down):  2.462E-04 0.000E+00

     total cpu time spent up to now is       84.0 secs

     total energy              =   -1842.83912064 Ry
     Harris-Foulkes estimate   =   -1842.90722413 Ry
     estimated scf accuracy    <       1.98233443 Ry

     iteration #  5     ecut=    60.00 Ry     beta= 0.50
     Davidson diagonalization with overlap
     ethr =  8.73E-04,  avg # of iterations =  1.1

     negative rho (up, down):  2.407E-04 0.000E+00

     total cpu time spent up to now is      100.9 secs

     total energy              =   -1842.81017920 Ry
     Harris-Foulkes estimate   =   -1842.87756362 Ry
     estimated scf accuracy    <       1.12530760 Ry

     iteration #  6     ecut=    60.00 Ry     beta= 0.50
     Davidson diagonalization with overlap
     ethr =  4.96E-04,  avg # of iterations =  2.1

     negative rho (up, down):  2.346E-04 0.000E+00

     total cpu time spent up to now is      119.6 secs

     total energy              =   -1842.79344734 Ry
     Harris-Foulkes estimate   =   -1842.83772252 Ry
     estimated scf accuracy    <       0.80521001 Ry

     iteration #  7     ecut=    60.00 Ry     beta= 0.50
     Davidson diagonalization with overlap
     ethr =  3.55E-04,  avg # of iterations =  4.7

     negative rho (up, down):  2.335E-04 0.000E+00

     total cpu time spent up to now is      141.2 secs

     total energy              =   -1842.79524242 Ry
     Harris-Foulkes estimate   =   -1842.80787675 Ry
     estimated scf accuracy    <       0.16475222 Ry

     iteration #  8     ecut=    60.00 Ry     beta= 0.50
     Davidson diagonalization with overlap
     ethr =  7.26E-05,  avg # of iterations =  7.7

     negative rho (up, down):  2.323E-04 0.000E+00

     total cpu time spent up to now is      168.1 secs

     total energy              =   -1842.79362468 Ry
     Harris-Foulkes estimate   =   -1842.80502742 Ry
     estimated scf accuracy    <       0.22204412 Ry

     iteration #  9     ecut=    60.00 Ry     beta= 0.50
     Davidson diagonalization with overlap
     ethr =  7.26E-05,  avg # of iterations =  1.6

     negative rho (up, down):  2.324E-04 0.000E+00

     total cpu time spent up to now is      185.2 secs

     total energy              =   -1842.79672503 Ry
     Harris-Foulkes estimate   =   -1842.80047789 Ry
     estimated scf accuracy    <       0.15093670 Ry

     iteration # 10     ecut=    60.00 Ry     beta= 0.50
     Davidson diagonalization with overlap
     ethr =  6.65E-05,  avg # of iterations =  1.1

     negative rho (up, down):  2.330E-04 0.000E+00

     total cpu time spent up to now is      201.7 secs

     total energy              =   -1842.79454184 Ry
     Harris-Foulkes estimate   =   -1842.79814309 Ry
     estimated scf accuracy    <       0.05898013 Ry

     iteration # 11     ecut=    60.00 Ry     beta= 0.50
     Davidson diagonalization with overlap
     ethr =  2.60E-05,  avg # of iterations =  5.1

     negative rho (up, down):  2.344E-04 0.000E+00

     total cpu time spent up to now is      223.8 secs

     total energy              =   -1842.79266467 Ry
     Harris-Foulkes estimate   =   -1842.79558366 Ry
     estimated scf accuracy    <       0.08666433 Ry

     iteration # 12     ecut=    60.00 Ry     beta= 0.50
     Davidson diagonalization with overlap
     ethr =  2.60E-05,  avg # of iterations =  5.0

     negative rho (up, down):  2.343E-04 0.000E+00

     total cpu time spent up to now is      244.9 secs

     total energy              =   -1842.79290875 Ry
     Harris-Foulkes estimate   =   -1842.79346157 Ry
     estimated scf accuracy    <       0.07376738 Ry

     iteration # 13     ecut=    60.00 Ry     beta= 0.50
     Davidson diagonalization with overlap
     ethr =  2.60E-05,  avg # of iterations =  1.0

     negative rho (up, down):  2.344E-04 0.000E+00

     total cpu time spent up to now is      261.3 secs

     total energy              =   -1842.79167156 Ry
     Harris-Foulkes estimate   =   -1842.79307354 Ry
     estimated scf accuracy    <       0.07837452 Ry

     iteration # 14     ecut=    60.00 Ry     beta= 0.50
     Davidson diagonalization with overlap
     ethr =  2.60E-05,  avg # of iterations =  1.6

     negative rho (up, down):  3.340E-04 0.000E+00

     total cpu time spent up to now is      277.5 secs

     total energy              =   -1842.79094230 Ry
     Harris-Foulkes estimate   =   -1842.79187788 Ry
     estimated scf accuracy    <       0.07791474 Ry

     iteration # 15     ecut=    60.00 Ry     beta= 0.50
     Davidson diagonalization with overlap
     ethr =  2.60E-05,  avg # of iterations =  1.5

     negative rho (up, down):  7.301E-03 0.000E+00

     total cpu time spent up to now is      293.9 secs

     total energy              =   -1842.78957683 Ry
     Harris-Foulkes estimate   =   -1842.79108382 Ry
     estimated scf accuracy    <       0.07829810 Ry

     iteration # 16     ecut=    60.00 Ry     beta= 0.50
     Davidson diagonalization with overlap
     ethr =  2.60E-05,  avg # of iterations =  4.0

     negative rho (up, down):  2.066E-02 0.000E+00

     total cpu time spent up to now is      315.2 secs

     total energy              =   -1842.78709738 Ry
     Harris-Foulkes estimate   =   -1842.78971780 Ry
     estimated scf accuracy    <       0.05703245 Ry

     iteration # 17     ecut=    60.00 Ry     beta= 0.50
     Davidson diagonalization with overlap
     ethr =  2.51E-05,  avg # of iterations =  7.3

     negative rho (up, down):  2.019E-02 0.000E+00

     total cpu time spent up to now is      340.1 secs

     total energy              =   -1842.78743569 Ry
     Harris-Foulkes estimate   =   -1842.78791382 Ry
     estimated scf accuracy    <       0.00645326 Ry

     iteration # 18     ecut=    60.00 Ry     beta= 0.50
     Davidson diagonalization with overlap
     ethr =  2.84E-06,  avg # of iterations =  7.6

     negative rho (up, down):  2.053E-02 0.000E+00

     total cpu time spent up to now is      364.6 secs

     total energy              =   -1842.78731647 Ry
     Harris-Foulkes estimate   =   -1842.78762730 Ry
     estimated scf accuracy    <       0.01066158 Ry

     iteration # 19     ecut=    60.00 Ry     beta= 0.50
     Davidson diagonalization with overlap
     c_bands:  1 eigenvalues not converged
     ethr =  2.84E-06,  avg # of iterations =  7.0

     negative rho (up, down):  1.256E-02 0.000E+00

     total cpu time spent up to now is      389.6 secs

     total energy              =   -1842.78677087 Ry
     Harris-Foulkes estimate   =   -1842.78736510 Ry
     estimated scf accuracy    <       0.00483128 Ry

     iteration # 20     ecut=    60.00 Ry     beta= 0.50
     Davidson diagonalization with overlap
     ethr =  2.13E-06,  avg # of iterations =  7.1

     negative rho (up, down):  3.222E-03 0.000E+00

     total cpu time spent up to now is      415.0 secs

     total energy              =   -1842.78663568 Ry
     Harris-Foulkes estimate   =   -1842.78685584 Ry
     estimated scf accuracy    <       0.00224245 Ry

     iteration # 21     ecut=    60.00 Ry     beta= 0.50
     Davidson diagonalization with overlap
     c_bands:  1 eigenvalues not converged
     c_bands:  2 eigenvalues not converged
     c_bands:  1 eigenvalues not converged
     c_bands:  1 eigenvalues not converged
     c_bands:  1 eigenvalues not converged
     ethr =  9.88E-07,  avg # of iterations = 11.0

     negative rho (up, down):  3.421E-03 0.000E+00

     total cpu time spent up to now is      446.0 secs

     total energy              =   -1842.78658442 Ry
     Harris-Foulkes estimate   =   -1842.78670502 Ry
     estimated scf accuracy    <       0.00154811 Ry

     iteration # 22     ecut=    60.00 Ry     beta= 0.50
     Davidson diagonalization with overlap
     c_bands:  1 eigenvalues not converged
     c_bands:  1 eigenvalues not converged
     ethr =  6.82E-07,  avg # of iterations =  6.9

     negative rho (up, down):  2.787E-03 0.000E+00

     total cpu time spent up to now is      470.6 secs

     total energy              =   -1842.78662198 Ry
     Harris-Foulkes estimate   =   -1842.78662009 Ry
     estimated scf accuracy    <       0.00056081 Ry

     iteration # 23     ecut=    60.00 Ry     beta= 0.50
     Davidson diagonalization with overlap
     c_bands:  1 eigenvalues not converged
     ethr =  2.47E-07,  avg # of iterations =  2.3

     negative rho (up, down):  1.389E-03 0.000E+00

     total cpu time spent up to now is      488.8 secs

     total energy              =   -1842.78665693 Ry
     Harris-Foulkes estimate   =   -1842.78663407 Ry
     estimated scf accuracy    <       0.00016122 Ry

     iteration # 24     ecut=    60.00 Ry     beta= 0.50
     Davidson diagonalization with overlap
     c_bands:  1 eigenvalues not converged
     c_bands:  1 eigenvalues not converged
     ethr =  7.10E-08,  avg # of iterations =  5.7

     negative rho (up, down):  9.872E-04 0.000E+00

     total cpu time spent up to now is      511.3 secs

     total energy              =   -1842.78668184 Ry
     Harris-Foulkes estimate   =   -1842.78666277 Ry
     estimated scf accuracy    <       0.00005692 Ry

     iteration # 25     ecut=    60.00 Ry     beta= 0.50
     Davidson diagonalization with overlap
     c_bands:  1 eigenvalues not converged
     ethr =  2.51E-08,  avg # of iterations =  5.3

     negative rho (up, down):  1.036E-03 0.000E+00

     total cpu time spent up to now is      532.8 secs

     total energy              =   -1842.78668561 Ry
     Harris-Foulkes estimate   =   -1842.78668430 Ry
     estimated scf accuracy    <       0.00003753 Ry

     iteration # 26     ecut=    60.00 Ry     beta= 0.50
     Davidson diagonalization with overlap
     ethr =  1.65E-08,  avg # of iterations =  1.6

     negative rho (up, down):  1.209E-03 0.000E+00

     total cpu time spent up to now is      549.7 secs

     total energy              =   -1842.78668631 Ry
     Harris-Foulkes estimate   =   -1842.78668651 Ry
     estimated scf accuracy    <       0.00000860 Ry

     iteration # 27     ecut=    60.00 Ry     beta= 0.50
     Davidson diagonalization with overlap
     ethr =  3.79E-09,  avg # of iterations =  2.4

     negative rho (up, down):  1.380E-03 0.000E+00

     total cpu time spent up to now is      568.3 secs

     total energy              =   -1842.78668616 Ry
     Harris-Foulkes estimate   =   -1842.78668663 Ry
     estimated scf accuracy    <       0.00001682 Ry

     iteration # 28     ecut=    60.00 Ry     beta= 0.50
     Davidson diagonalization with overlap
     ethr =  3.79E-09,  avg # of iterations =  1.0

     negative rho (up, down):  1.330E-03 0.000E+00

     total cpu time spent up to now is      585.3 secs

     total energy              =   -1842.78668624 Ry
     Harris-Foulkes estimate   =   -1842.78668638 Ry
     estimated scf accuracy    <       0.00000219 Ry

     iteration # 29     ecut=    60.00 Ry     beta= 0.50
     Davidson diagonalization with overlap
     ethr =  9.67E-10,  avg # of iterations =  1.8

     negative rho (up, down):  1.493E-03 0.000E+00

     total cpu time spent up to now is      602.9 secs

     total energy              =   -1842.78668609 Ry
     Harris-Foulkes estimate   =   -1842.78668643 Ry
     estimated scf accuracy    <       0.00000323 Ry

     iteration # 30     ecut=    60.00 Ry     beta= 0.50
     Davidson diagonalization with overlap
     ethr =  9.67E-10,  avg # of iterations =  1.0

     negative rho (up, down):  1.520E-03 0.000E+00

     total cpu time spent up to now is      620.4 secs

     total energy              =   -1842.78668610 Ry
     Harris-Foulkes estimate   =   -1842.78668616 Ry
     estimated scf accuracy    <       0.00000050 Ry

     iteration # 31     ecut=    60.00 Ry     beta= 0.50
     Davidson diagonalization with overlap
     ethr =  2.21E-10,  avg # of iterations =  2.0

     negative rho (up, down):  1.530E-03 0.000E+00

     total cpu time spent up to now is      638.2 secs

     total energy              =   -1842.78668608 Ry
     Harris-Foulkes estimate   =   -1842.78668611 Ry
     estimated scf accuracy    <       0.00000024 Ry

     iteration # 32     ecut=    60.00 Ry     beta= 0.50
     Davidson diagonalization with overlap
     ethr =  1.06E-10,  avg # of iterations =  1.6

     negative rho (up, down):  1.526E-03 0.000E+00

     total cpu time spent up to now is      654.4 secs

     total energy              =   -1842.78668609 Ry
     Harris-Foulkes estimate   =   -1842.78668609 Ry
     estimated scf accuracy    <       0.00000002 Ry

     iteration # 33     ecut=    60.00 Ry     beta= 0.50
     Davidson diagonalization with overlap
     ethr =  1.02E-11,  avg # of iterations =  3.5

     negative rho (up, down):  1.517E-03 0.000E+00

     total cpu time spent up to now is      677.3 secs

     total energy              =   -1842.78668610 Ry
     Harris-Foulkes estimate   =   -1842.78668609 Ry
     estimated scf accuracy    <       0.00000009 Ry

     iteration # 34     ecut=    60.00 Ry     beta= 0.50
     Davidson diagonalization with overlap
     ethr =  1.02E-11,  avg # of iterations =  1.0

     negative rho (up, down):  1.515E-03 0.000E+00

     total cpu time spent up to now is      693.6 secs

     total energy              =   -1842.78668611 Ry
     Harris-Foulkes estimate   =   -1842.78668610 Ry
     estimated scf accuracy    <       0.00000003 Ry

     iteration # 35     ecut=    60.00 Ry     beta= 0.50
     Davidson diagonalization with overlap
     ethr =  1.02E-11,  avg # of iterations =  1.0

     negative rho (up, down):  1.519E-03 0.000E+00

     total cpu time spent up to now is      710.1 secs

     End of self-consistent calculation

          k = 0.0000 0.0000 0.0000 ( 35977 PWs)   bands (ev):

   -35.9753 -35.9508 -23.1327 -23.1293 -22.9841 -22.9535 -17.4760 -17.4569
   -17.0269 -17.0167 -17.0039 -16.9900 -15.6730 -15.6639 -15.0184 -15.0134
   -15.0052 -14.9478 -14.9368 -14.5196 -14.5170 -14.3447 -14.3322 -14.2495
   -14.2092 -14.1934 -13.0327  -8.2652  -8.2624  -8.2261  -8.2230  -8.1902
    -8.1214  -8.0457  -8.0334  -8.0300  -7.9250  -7.8727  -7.7251  -2.6664
    -2.6663  -2.3439  -2.1952  -2.1914  -2.1675  -2.1632  -2.0381  -2.0213
    -1.9254  -1.9055  -1.8726  -1.8627  -1.5570  -1.5531  -1.2140  -0.7960
    -0.7940  -0.7175  -0.7159  -0.7114  -0.6877  -0.6657  -0.6455  -0.6289
    -0.6283  -0.6095  -0.6039  -0.6026  -0.6004  -0.5430  -0.5284  -0.3773
    -0.3737  -0.3515  -0.2780  -0.2592  -0.2491  -0.2424  -0.2372  -0.2345
    -0.1944  -0.1804  -0.1737  -0.1604  -0.1366  -0.1093  -0.0552  -0.0067
     0.1493   0.4374   0.5245   0.5434   0.5464   0.5867   0.6249   0.8228
     0.8269   0.9837   1.0069   1.0178   1.0341   1.1152   1.1380   1.1592
     1.1677   1.1855   1.1905   1.4503   1.4793   1.5271   1.6865   1.7016
     1.7391   1.8773   2.0002   2.0073   2.1063   2.1949   2.2070   4.6460
     4.8804   4.8883   5.7756   5.8659   6.3858   6.4132   6.4715   6.6615
     7.1832   7.6293   7.7738   7.8504   8.0545   8.1892   8.2406   8.3333
     8.7582

          k = 0.0000 0.1320 0.0000 ( 35963 PWs)   bands (ev):

   -35.9735 -35.9490 -23.1061 -23.1026 -22.9583 -22.9301 -17.4400 -17.4209
   -17.0889 -17.0625 -17.0246 -17.0016 -15.5839 -15.5752 -15.0237 -15.0197
   -14.9676 -14.9201 -14.9070 -14.5298 -14.5262 -14.3491 -14.3331 -14.2995
   -14.2390 -14.2375 -13.0929  -8.2646  -8.2613  -8.1910  -8.1783  -8.1752
    -8.1197  -8.0750  -8.0718  -7.9999  -7.9226  -7.8853  -7.7555  -2.7278
    -2.7261  -2.5649  -2.5481  -2.4666  -2.4497  -2.3211  -2.0159  -2.0008
    -1.9819  -1.9778  -1.9085  -1.8896  -1.7978  -1.6977  -1.6939  -1.0537
    -0.9795  -0.9595  -0.8941  -0.8915  -0.8056  -0.8010  -0.7545  -0.7524
    -0.6617  -0.6084  -0.5671  -0.5349  -0.5182  -0.4987  -0.4845  -0.4817
    -0.4590  -0.3556  -0.3519  -0.3491  -0.3426  -0.2729  -0.2559  -0.2352
    -0.2140  -0.2132  -0.1869  -0.1193  -0.0649  -0.0472  -0.0103   0.0228
     0.4125   0.6033   0.6432   0.7161   0.7402   0.7430   0.7877   0.7888
     0.8138   0.8271   0.8283   1.0723   1.0980   1.1187   1.1220   1.2197
     1.2279   1.2488   1.3319   1.4188   1.4643   1.5072   1.6201   1.6599
     1.6964   1.8694   1.8823   2.1804   2.2457   2.4837   2.4865   4.9642
     5.2557   5.2584   6.0945   6.1556   6.6720   6.7214   6.7507   6.9768
     7.4015   7.8049   7.9592   8.0683   8.2362   8.3787   8.4639   8.5876
     8.8577

          k = 0.0000 0.2640 0.0000 ( 35845 PWs)   bands (ev):

   -35.9691 -35.9446 -23.0402 -23.0367 -22.8948 -22.8725 -17.3485 -17.3292
   -17.2427 -17.2165 -17.0189 -16.9959 -15.3798 -15.3722 -15.0787 -15.0714
   -14.9133 -14.8357 -14.8324 -14.5190 -14.5126 -14.4150 -14.3765 -14.3702
   -14.3251 -14.2847 -13.2312  -8.2639  -8.2602  -8.1913  -8.1661  -8.1626
    -8.1163  -8.0579  -8.0548  -8.0296  -7.8848  -7.8196  -7.7864  -3.1864
    -3.1784  -3.0400  -3.0227  -2.7876  -2.7663  -2.7640  -2.6179  -2.6156
    -2.3245  -1.9570  -1.9463  -1.8737  -1.8532  -1.8426  -1.8375  -1.6001
    -1.3737  -1.2816  -1.1471  -1.1439  -1.0214  -1.0092  -0.9505  -0.9294
    -0.8951  -0.8865  -0.8716  -0.8370  -0.8334  -0.8318  -0.7481  -0.7157
    -0.5334  -0.3271  -0.3233  -0.2954  -0.2654  -0.2473  -0.2179  -0.2071
    -0.1319  -0.0955   0.0103   0.0425   0.2482   0.2503   0.3506   0.3691
     0.5950   0.6110   0.6166   0.7788   0.7878   0.8258   0.8278   0.8703
     0.8827   0.9349   0.9430   0.9790   1.0653   1.2119   1.2574   1.3141
     1.3493   1.4373   1.5238   1.5260   1.5872   1.6114   1.6259   1.6355
     1.6393   1.7269   1.8119   2.3257   2.6153   2.7125   2.7339   5.7252
     6.1493   6.1519   6.9064   6.9306   7.3198   7.5467   7.5528   7.8418
     8.0674   8.3082   8.4282   8.4873   8.5452   8.6758   8.8566   8.9266
     8.9487

          k = 0.0000 0.3960 0.0000 ( 35802 PWs)   bands (ev):

   -35.9647 -35.9402 -22.9720 -22.9686 -22.8293 -22.8134 -17.3794 -17.3531
   -17.2467 -17.2275 -17.0133 -16.9903 -15.2764 -15.2746 -15.0747 -15.0465
   -14.9350 -14.7692 -14.7137 -14.4767 -14.4725 -14.4595 -14.4546 -14.4312
   -14.3921 -14.3361 -13.3576  -8.2638  -8.2603  -8.2442  -8.2408  -8.1899
    -8.1395  -8.0966  -7.9295  -7.9263  -7.8725  -7.7626  -7.6826  -3.6442
    -3.6345  -3.5626  -3.4616  -3.4397  -3.3336  -3.3299  -2.7085  -2.7080
    -2.3546  -2.1855  -2.1599  -1.9818  -1.8869  -1.8811  -1.7555  -1.7463
    -1.6143  -1.4961  -1.4177  -1.4141  -1.2640  -1.2365  -1.2221  -1.1700
    -1.1503  -1.1291  -1.0971  -1.0814  -1.0673  -1.0334  -0.7841  -0.7363
    -0.5107  -0.3837  -0.3100  -0.3061  -0.2625  -0.2148  -0.2069  -0.1913
    -0.1632  -0.1396   0.1259   0.1584   0.4076   0.4195   0.5775   0.5808
     0.6003   0.6236   0.6813   0.7062   0.7240   0.7651   0.7977   0.7995
     0.8751   1.0384   1.2015   1.2653   1.2669   1.3511   1.3582   1.3614
     1.3697   1.4512   1.5335   1.6089   1.6099   1.7089   1.7624   1.8677
     2.0300   2.0335   2.0520   2.2905   2.5537   2.6182   2.7403   6.6181
     7.0951   7.0981   7.7819   7.8712   7.9733   8.3360   8.3402   8.4294
     8.6838   8.6972   8.7185   8.7463   8.8235   8.9713   9.0590   9.1083
     9.1934

          k = 0.0000-0.5279 0.0000 ( 35874 PWs)   bands (ev):

   -35.9628 -35.9384 -22.9431 -22.9396 -22.8015 -22.7884 -17.4315 -17.4051
   -17.2021 -17.1828 -17.0109 -16.9879 -15.3177 -15.3144 -15.0120 -14.9402
   -14.9370 -14.7491 -14.6539 -14.5166 -14.5134 -14.4614 -14.4200 -14.4110
   -14.4080 -14.3991 -13.4062  -8.2738  -8.2705  -8.2635  -8.2601  -8.1887
    -8.1703  -8.0998  -7.8919  -7.8736  -7.8704  -7.7095  -7.6380  -3.8404
    -3.8115  -3.8051  -3.6308  -3.6196  -3.5627  -3.5593  -2.7246  -2.7243
    -2.3646  -2.3096  -2.2871  -2.1177  -1.8519  -1.8486  -1.7121  -1.6712
    -1.6700  -1.5870  -1.5445  -1.5389  -1.3913  -1.3572  -1.3411  -1.2806
    -1.2396  -1.2088  -1.1743  -1.1713  -1.1461  -1.1185  -0.7674  -0.7017
    -0.4767  -0.4332  -0.3043  -0.3005  -0.2936  -0.2065  -0.1863  -0.1862
    -0.1691  -0.1211   0.0470   0.0626   0.4509   0.4595   0.4961   0.5068
     0.6509   0.6699   0.6746   0.7295   0.7806   0.7826   0.8479   0.9133
     0.9342   0.9535   1.1569   1.2843   1.3451   1.3609   1.3695   1.5238
     1.6329   1.6384   1.6468   1.6470   1.6550   1.6996   1.7061   2.1038
     2.1834   2.1916   2.1951   2.2301   2.3749   2.4648   2.6456   7.2537
     7.5065   7.5098   7.8355   8.1390   8.5176   8.5575   8.5954   8.6131
     8.6257   8.6347   8.8761   8.9476   8.9761   9.0693   9.1034   9.2306
     9.5894

          k = 0.1250 0.0000 0.0000 ( 35941 PWs)   bands (ev):

   -35.9742 -35.9497 -23.1147 -23.1112 -22.9665 -22.9384 -17.4428 -17.4235
   -17.1066 -17.0849 -17.0153 -16.9887 -15.5702 -15.5598 -15.0633 -15.0597
   -15.0334 -14.9520 -14.9420 -14.5286 -14.5258 -14.3545 -14.3431 -14.2697
   -14.2345 -14.2139 -13.1039  -8.2907  -8.2872  -8.1906  -8.1677  -8.1619
    -8.1608  -8.0009  -7.9976  -7.9783  -7.8748  -7.8417  -7.6987  -2.7098
    -2.7091  -2.4139  -2.2207  -2.2179  -2.1900  -2.1766  -2.1731  -2.1707
    -2.1348  -2.1315  -1.8380  -1.8246  -1.5549  -1.5510  -1.2416  -0.9929
    -0.9872  -0.8559  -0.8494  -0.8081  -0.8013  -0.7853  -0.6895  -0.6778
    -0.6758  -0.6345  -0.6297  -0.6287  -0.5688  -0.5597  -0.5276  -0.5059
    -0.4222  -0.3752  -0.2683  -0.2446  -0.2418  -0.1885  -0.1875  -0.1607
    -0.1492  -0.1445  -0.1286  -0.1155  -0.0610  -0.0426   0.0104   0.0923
     0.1515   0.4495   0.4589   0.4673   0.5516   0.6197   0.6680   0.8057
     0.8215   0.8627   0.8715   0.9966   1.0236   1.1299   1.1315   1.1410
     1.1998   1.2188   1.4703   1.5305   1.6192   1.6330   1.6537   1.6883
     1.6958   1.8767   1.9241   2.0074   2.0715   2.2307   2.2408   4.8082
     5.0601   5.0630   6.0116   6.0819   6.5878   6.6310   6.6631   6.8969
     7.3214   7.7726   7.9069   7.9980   8.2255   8.4067   8.4623   8.5539
     8.9085

          k = 0.1250 0.1320 0.0000 ( 35914 PWs)   bands (ev):

   -35.9724 -35.9479 -23.0888 -23.0854 -22.9416 -22.9156 -17.4078 -17.3885
   -17.1098 -17.0872 -17.0781 -17.0525 -15.4881 -15.4781 -15.0593 -15.0550
   -14.9937 -14.9200 -14.9105 -14.5299 -14.5265 -14.3550 -14.3439 -14.3127
   -14.2629 -14.2554 -13.1456  -8.3093  -8.3058  -8.2275  -8.2243  -8.1888
    -8.1653  -8.0639  -7.9629  -7.9626  -7.9596  -7.8059  -7.6544  -2.7652
    -2.7627  -2.5734  -2.5405  -2.4539  -2.4271  -2.3438  -2.1993  -2.1957
    -2.1622  -2.1486  -1.9760  -1.9718  -1.8099  -1.6883  -1.6861  -1.1843
    -1.1526  -1.0512  -1.0158  -1.0108  -0.9519  -0.9452  -0.8422  -0.8393
    -0.7606  -0.6321  -0.6170  -0.5698  -0.5467  -0.5286  -0.5225  -0.4785
    -0.4345  -0.4110  -0.3814  -0.3375  -0.3370  -0.2438  -0.2015  -0.1843
    -0.1728  -0.1689  -0.1017  -0.0868  -0.0408  -0.0103   0.1420   0.1823
     0.4318   0.6706   0.6904   0.7028   0.7381   0.7865   0.7936   0.8592
     0.8755   0.8980   0.9036   0.9378   0.9465   0.9677   0.9879   1.2438
     1.2556   1.2570   1.3201   1.3238   1.3729   1.5357   1.7202   1.9865
     2.0063   2.0563   2.1036   2.2456   2.2578   2.4888   2.4927   5.0908
     5.3978   5.4003   6.2823   6.3304   6.8405   6.9299   6.9412   7.2050
     7.5365   7.9460   8.0810   8.1931   8.3775   8.5282   8.6454   8.7596
     8.9136

          k = 0.1250 0.2640 0.0000 ( 35831 PWs)   bands (ev):

   -35.9680 -35.9435 -23.0250 -23.0215 -22.8800 -22.8595 -17.3194 -17.2997
   -17.2394 -17.2134 -17.0894 -17.0674 -15.3061 -15.2979 -15.0713 -15.0611
   -14.9209 -14.8334 -14.8280 -14.5138 -14.5087 -14.4185 -14.3928 -14.3872
   -14.3217 -14.2914 -13.2437  -8.3778  -8.3746  -8.2647  -8.2608  -8.2193
    -8.1884  -8.1206  -8.0568  -7.9538  -7.9506  -7.8035  -7.6514  -3.2114
    -3.2024  -3.0450  -3.0262  -2.7788  -2.7668  -2.7646  -2.6174  -2.6149
    -2.3646  -2.1490  -2.1411  -2.1126  -2.0968  -1.8689  -1.8446  -1.6132
    -1.3864  -1.3385  -1.3239  -1.2978  -1.2575  -1.2557  -1.0350  -1.0312
    -0.9772  -0.9332  -0.8962  -0.8599  -0.8437  -0.7837  -0.7442  -0.7233
    -0.6039  -0.4985  -0.4599  -0.3491  -0.3006  -0.1638  -0.1379  -0.1026
     0.0017   0.0927   0.1220   0.1558   0.3888   0.4095   0.4316   0.4409
     0.6601   0.6851   0.6998   0.7425   0.7514   0.8503   0.9319   0.9322
     0.9778   0.9792   1.0527   1.0556   1.1312   1.1403   1.1963   1.2094
     1.2835   1.2843   1.3359   1.5895   1.6017   1.6031   1.6817   2.0712
     2.1735   2.2044   2.2678   2.4453   2.6196   2.7237   2.7466   5.8023
     6.2102   6.2128   6.9889   7.0106   7.3811   7.7121   7.7158   8.0419
     8.2154   8.4299   8.4820   8.5267   8.5881   8.7099   8.7819   8.8281
     8.8868

          k = 0.1250 0.3960 0.0000 ( 35858 PWs)   bands (ev):

   -35.9636 -35.9391 -22.9591 -22.9556 -22.8165 -22.8018 -17.3743 -17.3479
   -17.2204 -17.2010 -17.0808 -17.0587 -15.2404 -15.2387 -15.0121 -14.9707
   -14.8967 -14.7546 -14.7048 -14.5068 -14.5062 -14.4589 -14.4464 -14.4251
   -14.3770 -14.3278 -13.3356  -8.4083  -8.4050  -8.2803  -8.2753  -8.2723
    -8.1921  -8.1161  -8.0576  -7.9988  -7.9956  -7.8419  -7.7238  -3.6869
    -3.6772  -3.5608  -3.4849  -3.4595  -3.3248  -3.3211  -2.7170  -2.7163
    -2.3858  -2.1380  -2.1319  -2.0463  -2.0202  -2.0150  -1.9811  -1.8479
    -1.6806  -1.6753  -1.5656  -1.5491  -1.5423  -1.4676  -1.2535  -1.2424
    -1.2095  -1.2050  -1.1446  -1.0970  -1.0954  -0.9743  -0.7843  -0.7434
    -0.6220  -0.5309  -0.4860  -0.3249  -0.2526  -0.1366  -0.1326  -0.0726
     0.0185   0.1127   0.3003   0.3355   0.5532   0.5617   0.5948   0.6152
     0.6851   0.7018   0.7100   0.7930   0.8091   0.8857   0.8915   0.8961
     1.0120   1.0666   1.2809   1.2895   1.3456   1.3631   1.3919   1.4491
     1.4685   1.5086   1.5160   1.8017   1.9969   1.9989   2.0013   2.0357
     2.1261   2.1529   2.2518   2.3915   2.5705   2.6778   2.7694   6.6269
     6.9589   6.9620   7.6328   7.7375   7.8480   8.3192   8.3227   8.4169
     8.5194   8.5668   8.7930   9.0049   9.0131   9.1324   9.1918   9.2276
     9.3278

          k = 0.1250-0.5279 0.0000 ( 35776 PWs)   bands (ev):

   -35.9618 -35.9373 -22.9311 -22.9276 -22.7896 -22.7775 -17.4258 -17.3994
   -17.1774 -17.1579 -17.0770 -17.0549 -15.2726 -15.2697 -14.9691 -14.8649
   -14.8628 -14.7229 -14.6391 -14.5498 -14.5485 -14.4383 -14.4201 -14.4120
   -14.4071 -14.3836 -13.3712  -8.4030  -8.3996  -8.2925  -8.2810  -8.2773
    -8.1938  -8.1150  -8.0331  -8.0299  -8.0218  -7.8655  -7.7865  -3.8757
    -3.8618  -3.8158  -3.6620  -3.6519  -3.5542  -3.5506  -2.7380  -2.7374
    -2.3913  -2.1713  -2.1627  -2.0778  -1.9573  -1.9465  -1.8835  -1.8740
    -1.8671  -1.8197  -1.7279  -1.7138  -1.6202  -1.5491  -1.3511  -1.3482
    -1.2882  -1.2854  -1.2354  -1.1894  -1.1876  -1.0445  -0.7721  -0.7168
    -0.6245  -0.5417  -0.4997  -0.3114  -0.2292  -0.1251  -0.1213  -0.0582
     0.0201   0.1035   0.2709   0.2858   0.5833   0.5862   0.6128   0.6203
     0.6477   0.6674   0.6942   0.7903   0.9141   0.9269   0.9525   0.9676
     0.9842   1.1173   1.1854   1.4076   1.4101   1.6340   1.6352   1.6486
     1.6513   1.6926   1.6971   1.9374   1.9946   2.0185   2.0895   2.1339
     2.1624   2.1660   2.2195   2.2450   2.4271   2.5717   2.6806   7.1184
     7.1799   7.1844   7.8307   7.9106   7.9248   8.0746   8.6224   8.7061
     8.8821   8.9596   8.9620   8.9761   9.1916   9.3311   9.3935   9.4147
     9.6522

          k = 0.2500 0.0000 0.0000 ( 35944 PWs)   bands (ev):

   -35.9716 -35.9471 -23.0704 -23.0669 -22.9235 -22.9014 -17.3584 -17.3384
   -17.2697 -17.2498 -17.0120 -16.9853 -15.3608 -15.3507 -15.1712 -15.1506
   -15.1052 -14.9678 -14.9617 -14.5431 -14.5397 -14.4003 -14.3873 -14.3065
   -14.2796 -14.2532 -13.2673  -8.2922  -8.2882  -8.1880  -8.1774  -8.0778
    -8.0746  -7.9203  -7.9169  -7.9009  -7.7686  -7.7647  -7.6336  -2.9091
    -2.9024  -2.7526  -2.6621  -2.5512  -2.5465  -2.3299  -2.1237  -2.1196
    -2.0387  -2.0369  -1.8546  -1.8200  -1.5516  -1.5477  -1.3220  -1.3203
    -1.2837  -1.1249  -1.1140  -1.1080  -1.0538  -1.0411  -0.9817  -0.8690
    -0.8672  -0.6841  -0.6659  -0.6480  -0.6453  -0.6038  -0.5822  -0.5766
    -0.5487  -0.3961  -0.2572  -0.2545  -0.2025  -0.1688  -0.1396  -0.1076
    -0.0256  -0.0172  -0.0138   0.0217   0.0256   0.1336   0.1457   0.1996
     0.2023   0.3134   0.3201   0.4129   0.5591   0.5628   0.6938   0.9224
     0.9274   0.9567   0.9605   0.9944   1.0404   1.0654   1.0736   1.1285
     1.1815   1.2480   1.4614   1.5113   1.5507   1.5889   1.6743   1.6763
     1.7909   1.9294   1.9545   2.0881   2.2141   2.3360   2.3529   5.2225
     5.5169   5.5191   6.6246   6.6723   7.0748   7.2136   7.2165   7.5568
     7.6979   8.1058   8.1767   8.3133   8.5023   8.5951   8.8811   8.9608
     9.2021

          k = 0.2500 0.1320 0.0000 ( 35895 PWs)   bands (ev):

   -35.9698 -35.9453 -23.0465 -23.0431 -22.9005 -22.8800 -17.3267 -17.3067
   -17.2631 -17.2430 -17.0779 -17.0514 -15.3057 -15.2973 -15.1307 -15.1044
   -15.0539 -14.9325 -14.9240 -14.5288 -14.5252 -14.3937 -14.3830 -14.3274
   -14.3082 -14.2895 -13.2696  -8.3599  -8.3565  -8.2285  -8.2148  -8.2118
    -8.1845  -8.0567  -7.9805  -7.8866  -7.8833  -7.7396  -7.5819  -2.9625
    -2.9527  -2.7900  -2.6932  -2.5428  -2.5378  -2.4615  -2.4606  -2.3654
    -2.3516  -2.2926  -1.9663  -1.9621  -1.8453  -1.7419  -1.7388  -1.3955
    -1.3600  -1.3471  -1.3076  -1.2852  -1.2727  -1.0998  -0.9737  -0.9730
    -0.9239  -0.9054  -0.7083  -0.6821  -0.6090  -0.5896  -0.5704  -0.5416
    -0.5201  -0.3785  -0.3641  -0.3260  -0.3174  -0.2531  -0.1825  -0.1576
    -0.1009  -0.0197   0.0045   0.0269   0.2044   0.2840   0.3901   0.4235
     0.4774   0.5650   0.5725   0.6601   0.6916   0.7509   0.8015   0.8581
     0.8648   1.0154   1.0200   1.0425   1.0555   1.0764   1.1372   1.1416
     1.1643   1.1786   1.2767   1.3853   1.3924   1.4124   1.8119   2.1731
     2.2526   2.3356   2.3394   2.4782   2.4976   2.5417   2.5493   5.4455
     5.7779   5.7802   6.7922   6.8250   7.2277   7.4708   7.4731   7.8370
     7.9197   8.2180   8.2747   8.4480   8.5716   8.6982   8.8278   8.8676
     8.9886

          k = 0.2500 0.2640 0.0000 ( 35885 PWs)   bands (ev):

   -35.9654 -35.9409 -22.9879 -22.9844 -22.8437 -22.8275 -17.2663 -17.2452
   -17.2358 -17.2149 -17.2139 -17.1891 -15.2056 -15.2023 -15.0197 -14.9689
   -14.9240 -14.8439 -14.8226 -14.5086 -14.5018 -14.4476 -14.4298 -14.3742
   -14.3230 -14.3105 -13.2754  -8.5798  -8.5766  -8.4186  -8.2772  -8.2733
    -8.2652  -8.1729  -8.1325  -8.0065  -8.0032  -7.8663  -7.6974  -3.3542
    -3.3378  -3.1295  -3.0864  -2.7829  -2.7784  -2.7545  -2.6531  -2.6476
    -2.6079  -2.5592  -2.5117  -2.5051  -2.2916  -1.8156  -1.8058  -1.7665
    -1.7605  -1.7021  -1.6620  -1.5232  -1.3492  -1.3281  -1.0883  -1.0828
    -1.0789  -1.0292  -0.9394  -0.9333  -0.9327  -0.8292  -0.8063  -0.7608
    -0.7312  -0.6285  -0.6078  -0.3565  -0.2169  -0.0595   0.0370   0.0632
     0.1991   0.2904   0.4097   0.4661   0.4753   0.4949   0.6146   0.6290
     0.7143   0.7881   0.8203   0.9003   0.9061   0.9353   1.0065   1.0105
     1.0856   1.0958   1.1451   1.1509   1.1747   1.2235   1.2377   1.2805
     1.3235   1.3581   1.4158   1.5189   1.5206   1.5347   1.9788   2.1824
     2.5884   2.6562   2.6668   2.9099   2.9172   3.0356   3.0398   6.0034
     6.3191   6.3217   7.1626   7.1941   7.4933   8.0049   8.0077   8.3344
     8.3879   8.5264   8.6090   8.6751   8.7037   8.8529   8.9711   8.9926
     9.0519

          k = 0.2500 0.3960 0.0000 ( 35860 PWs)   bands (ev):

   -35.9610 -35.9366 -22.9274 -22.9240 -22.7853 -22.7737 -17.3622 -17.3360
   -17.2288 -17.2088 -17.1517 -17.1311 -15.1575 -15.1565 -14.8982 -14.7942
   -14.7880 -14.7409 -14.6867 -14.5765 -14.5699 -14.4419 -14.4292 -14.4077
   -14.3427 -14.3149 -13.2810  -8.6999  -8.6965  -8.5545  -8.3632  -8.3273
    -8.3235  -8.2206  -8.2172  -8.1983  -8.1492  -8.0829  -7.9412  -3.8518
    -3.8373  -3.6265  -3.5829  -3.4846  -3.3038  -3.3000  -2.7918  -2.7884
    -2.6085  -2.5221  -2.4712  -2.4546  -2.2717  -2.1524  -2.1401  -2.0262
    -1.9974  -1.8153  -1.7851  -1.6619  -1.5376  -1.5272  -1.3386  -1.2631
    -1.1744  -1.1526  -1.1478  -1.1378  -1.1314  -0.9766  -0.9290  -0.8084
    -0.7915  -0.6829  -0.6525  -0.2477  -0.1050  -0.0126   0.1010   0.1148
     0.3490   0.5160   0.6261   0.6394   0.6461   0.6486   0.7664   0.8836
     0.8885   0.9296   0.9455   0.9704   0.9756   1.0814   1.1627   1.1801
     1.2895   1.2998   1.3395   1.3536   1.4141   1.4228   1.4713   1.4912
     1.5381   1.5411   1.8043   1.8778   1.9185   1.9217   1.9871   2.1083
     2.4695   2.4922   2.6633   3.1327   3.1377   3.2838   3.2853   6.4740
     6.5267   6.5330   7.2922   7.3606   7.6244   8.3755   8.4474   8.4713
     8.5886   8.6513   8.9509   9.1907   9.3180   9.3643   9.4031   9.4606
     9.5128

          k = 0.2500-0.5279 0.0000 ( 35892 PWs)   bands (ev):

   -35.9592 -35.9348 -22.9019 -22.8984 -22.7606 -22.7511 -17.4123 -17.3860
   -17.2233 -17.2032 -17.1124 -17.0919 -15.1544 -15.1527 -14.8567 -14.7156
   -14.7116 -14.6647 -14.6328 -14.6231 -14.6095 -14.4186 -14.4063 -14.4011
   -14.3796 -14.3502 -13.2829  -8.7001  -8.6967  -8.5761  -8.4148  -8.4116
    -8.3282  -8.2873  -8.2837  -8.2163  -8.2119  -8.1448  -8.1042  -4.0508
    -4.0360  -3.8460  -3.7786  -3.7348  -3.5314  -3.5277  -2.7984  -2.7956
    -2.5795  -2.4822  -2.4302  -2.4025  -2.3107  -2.2959  -2.2539  -2.1719
    -2.1343  -1.8398  -1.8100  -1.7158  -1.6134  -1.6022  -1.4310  -1.3565
    -1.2586  -1.2206  -1.2142  -1.1675  -1.1577  -0.9900  -0.9325  -0.8254
    -0.8157  -0.7013  -0.6558  -0.2062  -0.0775  -0.0017   0.1181   0.1533
     0.3800   0.5438   0.6666   0.6780   0.7357   0.7428   0.8341   0.8480
     0.8493   0.9538   0.9818   1.0452   1.0596   1.1435   1.1579   1.1685
     1.2366   1.5072   1.5341   1.5521   1.6150   1.6265   1.6373   1.6770
     1.6954   1.7060   1.7171   2.0104   2.0664   2.0943   2.0978   2.1832
     2.2466   2.2829   2.5819   3.1515   3.1572   3.3203   3.3232   6.4887
     6.4929   6.5712   7.2876   7.3331   7.9065   8.0607   8.7238   8.7975
     8.8508   9.1125   9.1758   9.1818   9.2953   9.4959   9.5406   9.6820
     9.7090

          k = 0.3750 0.0000 0.0000 ( 35878 PWs)   bands (ev):

   -35.9689 -35.9445 -23.0250 -23.0215 -22.8795 -22.8637 -17.4100 -17.3916
   -17.2630 -17.2416 -17.0087 -16.9820 -15.3862 -15.3840 -15.2420 -15.0165
   -14.9966 -14.9706 -14.9563 -14.5586 -14.5528 -14.4990 -14.4882 -14.3313
   -14.3081 -14.2780 -13.4193  -8.2747  -8.2706  -8.1752  -8.1558  -8.0127
    -8.0098  -7.8625  -7.8359  -7.8325  -7.6844  -7.6756  -7.5664  -3.2416
    -3.2304  -3.1155  -3.0494  -2.6700  -2.6686  -2.3813  -2.0496  -2.0435
    -1.9508  -1.9152  -1.8902  -1.8897  -1.5696  -1.5532  -1.5495  -1.4209
    -1.4161  -1.3703  -1.3666  -1.2852  -1.2813  -1.2763  -1.2313  -1.0690
    -1.0673  -0.8168  -0.7723  -0.6874  -0.6849  -0.6509  -0.6274  -0.5746
    -0.5708  -0.4460  -0.2701  -0.2673  -0.2156  -0.2012  -0.1658  -0.0871
     0.0053   0.0172   0.0525   0.0635   0.0667   0.0698   0.0893   0.1375
     0.1504   0.2991   0.3747   0.4406   0.7260   0.8324   0.8358   0.8445
     0.8512   0.8581   0.9971   1.0082   1.0957   1.1227   1.1577   1.2376
     1.3131   1.3842   1.3967   1.4525   1.4716   1.5140   1.5932   1.7596
     1.7652   1.9644   1.9962   2.1936   2.2811   2.4482   2.4807   5.8406
     6.1665   6.1687   7.3693   7.3976   7.5201   7.6589   7.6616   7.7521
     8.1102   8.1401   8.3442   8.4311   8.7764   8.9831   9.1020   9.1150
     9.1216

          k = 0.3750 0.1320 0.0000 ( 35915 PWs)   bands (ev):

   -35.9672 -35.9427 -23.0033 -22.9998 -22.8584 -22.8439 -17.4014 -17.3829
   -17.2341 -17.2126 -17.0729 -17.0464 -15.3381 -15.3363 -15.1833 -14.9777
   -14.9538 -14.9090 -14.8960 -14.5286 -14.5236 -14.4782 -14.4675 -14.3487
   -14.3263 -14.3157 -13.3878  -8.3316  -8.3280  -8.2123  -8.1765  -8.1747
    -8.1689  -8.0221  -7.9256  -7.9222  -7.8988  -7.7870  -7.6250  -3.3068
    -3.2921  -3.1585  -3.0837  -2.6693  -2.6675  -2.4438  -2.4256  -2.3628
    -2.2599  -2.2371  -1.9546  -1.9504  -1.8656  -1.8191  -1.8022  -1.6587
    -1.6505  -1.5918  -1.5618  -1.4547  -1.3141  -1.1416  -1.1304  -1.1137
    -1.0796  -1.0175  -0.7727  -0.7579  -0.6686  -0.6160  -0.6153  -0.6030
    -0.5611  -0.4106  -0.3834  -0.3116  -0.3046  -0.2706  -0.1827  -0.1597
    -0.1304   0.0885   0.1065   0.1120   0.3026   0.3127   0.4312   0.4367
     0.4434   0.5715   0.5995   0.6791   0.7813   0.8330   0.8535   0.8694
     0.8711   1.0002   1.0193   1.0216   1.1476   1.1727   1.1887   1.2671
     1.3356   1.3430   1.3969   1.4250   1.4372   1.4376   1.6265   2.1817
     2.2716   2.4145   2.4194   2.5743   2.5772   2.7464   2.7547   5.9971
     6.3150   6.3173   7.3933   7.4266   7.5279   7.7255   7.7283   7.8616
     8.1179   8.2008   8.5490   8.6401   8.7417   8.8971   8.9502   9.1570
     9.2659

          k = 0.3750 0.2640 0.0000 ( 35933 PWs)   bands (ev):

   -35.9628 -35.9383 -22.9500 -22.9465 -22.8066 -22.7951 -17.3811 -17.3624
   -17.2175 -17.1911 -17.1587 -17.1373 -15.2152 -15.2143 -15.0275 -14.8836
   -14.8553 -14.7613 -14.7446 -14.4976 -14.4851 -14.4604 -14.4518 -14.3927
   -14.3583 -14.3240 -13.3086  -8.6326  -8.6293  -8.4733  -8.3155  -8.3116
    -8.3077  -8.1891  -8.1856  -8.1596  -8.1529  -8.0651  -7.8962  -3.6337
    -3.6101  -3.3934  -3.3233  -2.8498  -2.8431  -2.7610  -2.7552  -2.7301
    -2.7196  -2.7167  -2.5888  -2.5865  -2.3507  -2.1398  -2.1268  -1.9624
    -1.9406  -1.6112  -1.5889  -1.4201  -1.3403  -1.3123  -1.2331  -1.2293
    -1.1873  -1.1353  -0.9926  -0.9879  -0.9854  -0.9045  -0.8849  -0.7317
    -0.7266  -0.6610  -0.6291  -0.3475  -0.1757   0.0061   0.1521   0.1946
     0.3352   0.3883   0.4824   0.5130   0.6616   0.6699   0.7228   0.7907
     0.8005   0.8596   0.8638   0.9288   1.0208   1.0533   1.0571   1.0594
     1.2614   1.2782   1.2885   1.3128   1.3589   1.3816   1.4052   1.4068
     1.4127   1.4272   1.4604   1.4645   1.4669   1.5042   1.9686   2.1582
     2.5858   2.6604   2.6793   3.3631   3.3640   3.4569   3.4582   6.2301
     6.3601   6.3619   7.2140   7.2526   7.5031   8.0592   8.0659   8.1655
     8.4464   8.5422   8.6972   9.0629   9.0854   9.1582   9.2061   9.3998
     9.4168

          k = 0.3750 0.3960 0.0000 ( 35913 PWs)   bands (ev):

   -35.9585 -35.9340 -22.8953 -22.8918 -22.7536 -22.7453 -17.3642 -17.3441
   -17.3435 -17.3184 -17.0795 -17.0581 -15.0788 -15.0788 -14.8424 -14.7927
   -14.7557 -14.6068 -14.5967 -14.5826 -14.5755 -14.4229 -14.4156 -14.3853
   -14.3245 -14.3226 -13.2245  -8.8984  -8.8950  -8.7505  -8.5650  -8.5633
    -8.5601  -8.3771  -8.3145  -8.3108  -8.2632  -8.1761  -8.1750  -4.1146
    -4.0929  -3.8344  -3.7827  -3.4718  -3.2830  -3.2792  -2.9761  -2.9693
    -2.8670  -2.8461  -2.6181  -2.6165  -2.4519  -2.4353  -2.3271  -2.1945
    -2.1730  -1.6310  -1.5842  -1.5789  -1.5463  -1.5427  -1.3384  -1.3135
    -1.3070  -1.2391  -1.2092  -1.1794  -1.1779  -1.1250  -1.0928  -0.7368
    -0.7349  -0.6599  -0.6075  -0.1964  -0.0371   0.0747   0.3129   0.3687
     0.5842   0.7730   0.8055   0.8366   0.8636   0.9262   0.9466   1.0008
     1.0032   1.1213   1.1405   1.1428   1.1707   1.2119   1.2314   1.3450
     1.4212   1.4231   1.5060   1.5149   1.5706   1.6305   1.6357   1.6917
     1.7173   1.7374   1.8143   1.8403   1.8431   1.9220   2.0142   2.1604
     2.4516   2.4889   2.6732   3.8728   3.8747   3.9478   3.9485   6.0499
     6.0581   6.1036   6.9622   6.9959   7.7392   8.2567   8.5978   8.6386
     8.6763   8.9663   9.0084   9.1266   9.1775   9.2239   9.2426   9.3321
     9.4301

          k = 0.3750-0.5279 0.0000 ( 35952 PWs)   bands (ev):

   -35.9567 -35.9322 -22.8723 -22.8688 -22.7312 -22.7243 -17.3990 -17.3727
   -17.3513 -17.3324 -17.0443 -17.0229 -15.0167 -15.0165 -14.7608 -14.7596
   -14.7226 -14.6211 -14.5986 -14.5384 -14.5355 -14.4132 -14.3983 -14.3931
   -14.3271 -14.3151 -13.1881  -8.9805  -8.9770  -8.8471  -8.7083  -8.7053
    -8.6280  -8.5062  -8.4239  -8.3405  -8.3366  -8.2042  -8.1878  -4.3204
    -4.2995  -4.0371  -3.9856  -3.7446  -3.5082  -3.5044  -2.9946  -2.9877
    -2.8765  -2.8488  -2.6124  -2.6107  -2.5579  -2.5416  -2.3075  -2.2790
    -2.2555  -1.7290  -1.6768  -1.6610  -1.5913  -1.5876  -1.3991  -1.3338
    -1.3172  -1.3036  -1.2998  -1.2722  -1.2660  -1.1541  -1.1036  -0.7205
    -0.7194  -0.6545  -0.5856  -0.1495  -0.0073   0.0883   0.3655   0.4589
     0.6565   0.9171   0.9241   0.9372   0.9413   0.9861   0.9907   0.9938
     1.0259   1.1776   1.1890   1.2384   1.2483   1.4261   1.4281   1.4392
     1.5138   1.5235   1.5740   1.6967   1.7013   1.7733   1.7734   1.8441
     1.8802   1.8987   2.0297   2.0309   2.0392   2.0648   2.0678   2.1316
     2.2080   2.2622   2.5912   4.0105   4.0116   4.0997   4.0998   5.8775
     5.8809   5.9541   6.8596   6.9133   7.9399   8.1163   8.7696   8.7916
     8.7942   8.9697   9.0146   9.0761   9.1722   9.3485   9.4889   9.5131
     9.5576

          k =-0.5000 0.0000 0.0000 ( 35878 PWs)   bands (ev):

   -35.9679 -35.9434 -23.0058 -23.0023 -22.8610 -22.8479 -17.4622 -17.4441
   -17.2213 -17.1993 -17.0073 -16.9806 -15.4442 -15.4409 -15.2861 -15.0431
   -15.0009 -14.7468 -14.7297 -14.6943 -14.6696 -14.5363 -14.5325 -14.3398
   -14.3153 -14.2830 -13.4791  -8.2644  -8.2603  -8.1627  -8.1451  -7.9896
    -7.9867  -7.8547  -7.7998  -7.7964  -7.6501  -7.6399  -7.5379  -3.3838
    -3.3725  -3.2598  -3.1981  -2.6944  -2.6935  -2.3921  -2.0175  -2.0067
    -1.9990  -1.9861  -1.7689  -1.7644  -1.6706  -1.5571  -1.5535  -1.5342
    -1.5266  -1.4611  -1.4494  -1.3832  -1.3791  -1.2985  -1.2947  -1.1523
    -1.1506  -0.8860  -0.8271  -0.7124  -0.6956  -0.6684  -0.6517  -0.5635
    -0.5605  -0.4580  -0.2754  -0.2727  -0.2473  -0.2265  -0.2208  -0.0959
    -0.0188   0.0205   0.0538   0.0638   0.0664   0.0689   0.0892   0.0922
     0.2068   0.2069   0.4170   0.4753   0.7818   0.7819   0.7969   0.7991
     0.9860   1.0005   1.0114   1.0272   1.0449   1.2203   1.2228   1.2313
     1.3158   1.3176   1.4267   1.4883   1.4996   1.5474   1.6041   1.7738
     1.7797   1.9663   1.9938   2.1990   2.2795   2.4797   2.5165   6.6218
     6.7033   6.9377   6.9401   6.9916   6.9938   7.8063   7.8697   8.0898
     8.1473   8.1563   8.6615   8.7169   8.7991   9.0634   9.0828   9.1836
     9.2574

          k =-0.5000 0.1320 0.0000 ( 35958 PWs)   bands (ev):

   -35.9661 -35.9416 -22.9851 -22.9816 -22.8407 -22.8287 -17.4530 -17.4348
   -17.1939 -17.1719 -17.0708 -17.0442 -15.3868 -15.3841 -15.2214 -15.0031
   -14.9610 -14.7083 -14.6912 -14.6340 -14.6104 -14.5146 -14.5107 -14.3553
   -14.3294 -14.3213 -13.4349  -8.3031  -8.2991  -8.1852  -8.1612  -8.1190
    -8.1161  -8.0030  -7.9994  -7.9741  -7.8631  -7.7724  -7.7408  -3.4554
    -3.4407  -3.3109  -3.2398  -2.7000  -2.6986  -2.4434  -2.3964  -2.3514
    -2.2027  -2.1822  -1.9491  -1.9450  -1.8860  -1.8668  -1.8126  -1.7745
    -1.7665  -1.6928  -1.6520  -1.4996  -1.3248  -1.2085  -1.2067  -1.1075
    -1.1063  -1.0363  -0.8094  -0.7951  -0.6885  -0.6364  -0.6284  -0.6265
    -0.5766  -0.4346  -0.3929  -0.3212  -0.2950  -0.2730  -0.1840  -0.1586
    -0.1461   0.1450   0.1773   0.1800   0.2150   0.2214   0.3685   0.3971
     0.5029   0.5515   0.6474   0.6952   0.7973   0.8398   0.8705   0.9199
     0.9394   0.9510   1.0334   1.0468   1.1537   1.2468   1.2574   1.2914
     1.3693   1.3924   1.4264   1.4919   1.5119   1.5121   1.5622   2.1767
     2.2742   2.4175   2.4219   2.5898   2.5903   2.7997   2.8086   6.6333
     6.7855   6.7879   6.8612   7.2924   7.2953   7.7854   7.8059   7.8417
     8.0840   8.2663   8.6371   8.9029   9.0279   9.1566   9.2552   9.3732
     9.3808

          k =-0.5000 0.2640 0.0000 ( 35936 PWs)   bands (ev):

   -35.9618 -35.9373 -22.9341 -22.9306 -22.7911 -22.7815 -17.4311 -17.4128
   -17.2142 -17.1877 -17.1227 -17.1008 -15.2348 -15.2335 -15.0475 -14.9074
   -14.8642 -14.6130 -14.5958 -14.5194 -14.5069 -14.4645 -14.4604 -14.4398
   -14.3934 -14.3191 -13.3225  -8.5716  -8.5680  -8.4202  -8.4173  -8.4159
    -8.2690  -8.2531  -8.2515  -8.2489  -8.1365  -8.1094  -8.0889  -3.7722
    -3.7478  -3.5390  -3.4677  -2.8767  -2.8720  -2.7839  -2.7750  -2.7268
    -2.7248  -2.7202  -2.5965  -2.5941  -2.3692  -2.2670  -2.2506  -2.0497
    -2.0237  -1.5314  -1.5026  -1.3669  -1.3069  -1.3047  -1.2991  -1.2677
    -1.2580  -1.2042  -1.0130  -1.0104  -1.0091  -0.9098  -0.8852  -0.7353
    -0.7314  -0.6764  -0.6324  -0.3434  -0.1605   0.0270   0.1914   0.2458
     0.3823   0.4263   0.5135   0.5254   0.7378   0.7414   0.7965   0.8102
     0.8109   0.8538   0.8780   0.8992   1.0611   1.0737   1.1043   1.1320
     1.2577   1.3503   1.3551   1.3770   1.3796   1.4001   1.4087   1.4452
     1.4662   1.5130   1.5186   1.5341   1.5382   1.7164   1.7319   2.1301
     2.5795   2.6544   2.6757   3.5021   3.5032   3.5895   3.5917   6.3293
     6.3575   6.3627   7.1615   7.1905   7.5322   7.9233   8.1020   8.1078
     8.5133   8.6526   8.8148   9.2325   9.2373   9.2486   9.2649   9.3896
     9.5509

          k =-0.5000 0.3960 0.0000 ( 35932 PWs)   bands (ev):

   -35.9574 -35.9329 -22.8819 -22.8784 -22.7403 -22.7334 -17.4096 -17.3911
   -17.3430 -17.3167 -17.0475 -17.0256 -15.0505 -15.0500 -14.8488 -14.8232
   -14.7502 -14.5871 -14.5653 -14.5184 -14.5023 -14.4162 -14.4113 -14.3670
   -14.3545 -14.3281 -13.2005  -8.9467  -8.9432  -8.8041  -8.7083  -8.7053
    -8.6074  -8.5149  -8.4043  -8.3310  -8.3269  -8.1934  -8.1887  -4.2466
    -4.2228  -3.9562  -3.9010  -3.4640  -3.2744  -3.2706  -3.0459  -3.0389
    -2.9387  -2.9318  -2.6338  -2.6329  -2.5540  -2.5364  -2.3353  -2.2534
    -2.2299  -1.6357  -1.5806  -1.5576  -1.4562  -1.4503  -1.4206  -1.3960
    -1.3095  -1.2320  -1.2285  -1.2058  -1.2030  -1.1854  -1.1645  -0.6952
    -0.6931  -0.6642  -0.5721  -0.1804  -0.0140   0.1056   0.4103   0.4765
     0.6813   0.8523   0.9156   0.9195   0.9258   1.0251   1.0269   1.0593
     1.0908   1.1312   1.2162   1.2175   1.2225   1.2276   1.2510   1.4207
     1.4730   1.5093   1.5336   1.5403   1.6198   1.6919   1.7029   1.8075
     1.8105   1.8223   1.8469   1.8573   1.8883   1.9458   2.0624   2.1034
     2.4386   2.4790   2.6730   4.1368   4.1426   4.1939   4.1941   5.8566
     5.8625   5.9111   6.8121   6.8603   7.9928   8.0108   8.5761   8.5963
     8.6452   9.0386   9.0406   9.1205   9.1929   9.2579   9.3218   9.3753
     9.5376

          k =-0.5000-0.5279 0.0000 ( 36012 PWs)   bands (ev):

   -35.9556 -35.9311 -22.8599 -22.8564 -22.7189 -22.7131 -17.4008 -17.3935
   -17.3822 -17.3673 -17.0141 -16.9923 -14.9509 -14.9493 -14.8048 -14.8027
   -14.6355 -14.6259 -14.6115 -14.4846 -14.4828 -14.4081 -14.3935 -14.3886
   -14.3235 -14.2860 -13.1465  -9.0927  -9.0892  -8.9564  -8.8244  -8.8214
    -8.7512  -8.6201  -8.5357  -8.3590  -8.3551  -8.2120  -8.2046  -4.4545
    -4.4315  -4.1548  -4.1019  -3.7388  -3.4986  -3.4949  -3.0781  -3.0711
    -2.9643  -2.9510  -2.6450  -2.6282  -2.6239  -2.6230  -2.3206  -2.3069
    -2.2984  -1.7461  -1.6946  -1.6699  -1.5252  -1.5157  -1.3852  -1.3730
    -1.3668  -1.3198  -1.3169  -1.3090  -1.3007  -1.2313  -1.1768  -0.6662
    -0.6642  -0.6540  -0.5429  -0.1329   0.0175   0.1210   0.4881   0.6001
     0.7791   0.9951   0.9976   1.0000   1.0042   1.0341   1.0421   1.1078
     1.2601   1.2629   1.2631   1.2811   1.3046   1.5007   1.5302   1.5503
     1.5627   1.6354   1.6543   1.6901   1.7263   1.7272   1.8236   1.8314
     2.0003   2.0036   2.0469   2.0579   2.0685   2.1002   2.1838   2.1972
     2.2404   2.2499   2.5951   4.3302   4.3354   4.4036   4.4043   5.6327
     5.6356   5.6980   6.6935   6.7603   7.9912   8.0861   8.6574   8.6861
     8.6995   8.7574   8.9676   9.0374   9.1173   9.1534   9.4834   9.4873
     9.4911

     the Fermi energy is     2.2294 ev

!    total energy              =   -1842.78668609 Ry
     Harris-Foulkes estimate   =   -1842.78668611 Ry
     estimated scf accuracy    <          7.2E-09 Ry

     The total energy is the sum of the following terms:

     one-electron contribution =  -25786.99738042 Ry
     hartree contribution      =   13043.87417159 Ry
     xc contribution           =    -621.62119782 Ry
     ewald contribution        =   11521.96946103 Ry
     smearing contrib. (-TS)   =      -0.01174046 Ry

     convergence has been achieved in  35 iterations

     negative rho (up, down):  1.519E-03 0.000E+00

     Forces acting on atoms (cartesian axes, Ry/au):

     atom    1 type  4   force =     0.00000000    0.00000000   -0.00037696
     atom    2 type  3   force =     0.00000000    0.00000000    0.00055939
     atom    3 type  4   force =     0.00000000    0.00000000   -0.00074055
     atom    4 type  1   force =     0.00000000    0.00000000   -0.00053742
     atom    5 type  3   force =     0.00000000    0.00000000    0.00043657
     atom    6 type  4   force =     0.00000000    0.00000000    0.00094131
     atom    7 type  4   force =     0.00000000    0.00000000    0.00114870
     atom    8 type  2   force =     0.00000000    0.00000000   -0.00279477
     atom    9 type  4   force =     0.00000000    0.00000000    0.00488482
     atom   10 type  4   force =     0.00000000    0.00000000    0.00419180
     atom   11 type  3   force =     0.00000000    0.00000000    0.00127164
     atom   12 type  1   force =     0.00000000    0.00000000    0.00947759
     atom   13 type  4   force =     0.00000000    0.00000000   -0.02001174
     atom   14 type  4   force =     0.00000000    0.00000000    0.03740307
     atom   15 type  3   force =     0.00000000    0.00000000   -0.03405676
     atom   16 type  4   force =     0.00000000    0.00000000    0.02849862
     atom   17 type  1   force =     0.00000000    0.00000000   -0.00650860
     atom   18 type  3   force =     0.00000000    0.00000000   -0.02124827
     atom   19 type  4   force =     0.00000000    0.00000000   -0.00129383
     atom   20 type  4   force =     0.00000000    0.00000000   -0.00207035
     atom   21 type  2   force =     0.00000000    0.00000000    0.00264312
     atom   22 type  4   force =     0.00000000    0.00000000   -0.00178941
     atom   23 type  4   force =     0.00000000    0.00000000   -0.00022892
     atom   24 type  3   force =     0.00000000    0.00000000   -0.00030578
     atom   25 type  1   force =     0.00000000    0.00000000    0.00038790
     atom   26 type  4   force =     0.00000000    0.00000000    0.00024490
     atom   27 type  3   force =     0.00000000    0.00000000   -0.00005472
     atom   28 type  4   force =     0.00000000    0.00000000   -0.00007134

     Total force =     0.066530     Total SCF correction =     0.000446


     Computing stress (Cartesian axis) and pressure


     negative rho (up, down):  1.519E-03 0.000E+00
          total   stress  (Ry/bohr**3)                   (kbar)     P=       -5.58
   0.00000846   0.00000000   0.00000000            1.24        0.00        0.00
   0.00000000  -0.00008779   0.00000000            0.00      -12.91        0.00
   0.00000000   0.00000000  -0.00003456            0.00        0.00       -5.08

 
     init_run     :     10.48s CPU     11.00s WALL (       1 calls)
     electrons    :    676.64s CPU    697.96s WALL (       1 calls)
     forces       :      3.94s CPU      4.13s WALL (       1 calls)
     stress       :     27.11s CPU     27.57s WALL (       1 calls)

     Called by init_run:
     wfcinit      :      7.73s CPU      7.90s WALL (       1 calls)
     potinit      :      0.61s CPU      0.62s WALL (       1 calls)
     hinit0       :      0.98s CPU      1.13s WALL (       1 calls)

     Called by electrons:
     c_bands      :    514.49s CPU    525.41s WALL (      35 calls)
     sum_band     :    106.19s CPU    111.82s WALL (      35 calls)
     v_of_rho     :      3.21s CPU      3.24s WALL (      36 calls)
     newd         :     29.75s CPU     34.41s WALL (      36 calls)
     mix_rho      :     23.36s CPU     23.55s WALL (      35 calls)

     Called by c_bands:
     init_us_2    :      3.65s CPU      3.67s WALL (    1825 calls)
     cegterg      :    486.91s CPU    497.17s WALL (     875 calls)

     Called by sum_band:
     sum_band:bec :      0.24s CPU      0.24s WALL (     875 calls)
     addusdens    :     23.05s CPU     27.86s WALL (      35 calls)

     Called by *egterg:
     h_psi        :    243.21s CPU    250.27s WALL (    3892 calls)
     s_psi        :     22.64s CPU     22.79s WALL (    3892 calls)
     g_psi        :      0.68s CPU      0.68s WALL (    2992 calls)
     cdiaghg      :    121.22s CPU    121.74s WALL (    3867 calls)

     Called by h_psi:
     h_psi:calbec :     29.36s CPU     30.49s WALL (    3892 calls)
     vloc_psi     :    189.62s CPU    192.29s WALL (    3892 calls)
     add_vuspsi   :     23.22s CPU     24.92s WALL (    3892 calls)

     General routines
     calbec       :     51.20s CPU     52.41s WALL (    4892 calls)
     fft          :      2.83s CPU      2.94s WALL (     491 calls)
     ffts         :     11.78s CPU     11.89s WALL (   16471 calls)
     fftw         :    223.25s CPU    226.33s WALL (  625029 calls)
     interpolate  :      0.23s CPU      0.24s WALL (      36 calls)
 
     Parallel routines
     fft_scatt_xy :     22.74s CPU     23.00s WALL (  641991 calls)
     fft_scatt_yz :    158.32s CPU    160.45s WALL (  641991 calls)
 
     PWSCF        :  11m58.98s CPU  12m21.87s WALL

 
   This run was terminated on:  22:48:58  21May2021            

=------------------------------------------------------------------------------=
   JOB DONE.
=------------------------------------------------------------------------------=
[1621651738.817332] [holy7c10203:10198:0]          mpool.c:43   UCX  WARN  object 0x32b8d00 was not returned to mpool ucp_requests
[1621651738.820118] [holy7c08310:244029:0]          mpool.c:43   UCX  WARN  object 0x28b1280 was not returned to mpool ucp_requests
[1621651738.822092] [holy7c08501:193750:0]          mpool.c:43   UCX  WARN  object 0x2a84380 was not returned to mpool ucp_requests
[1621651738.820781] [holy7c10209:199348:0]          mpool.c:43   UCX  WARN  object 0x464d880 was not returned to mpool ucp_requests
[1621651738.826191] [holy7c10107:33719:0]          mpool.c:43   UCX  WARN  object 0x31668c0 was not returned to mpool ucp_requests
[1621651738.826211] [holy7c10107:33719:0]          mpool.c:43   UCX  WARN  object 0x3166e00 was not returned to mpool ucp_requests
[1621651738.827511] [holy7c10207:96072:0]          mpool.c:43   UCX  WARN  object 0x289b9c0 was not returned to mpool ucp_requests
[1621651738.827531] [holy7c10207:96072:0]          mpool.c:43   UCX  WARN  object 0x289c0c0 was not returned to mpool ucp_requests
[1621651738.821784] [holy7c10209:199347:0]          mpool.c:43   UCX  WARN  object 0x37b0a00 was not returned to mpool ucp_requests
[1621651738.826842] [holy7c08501:193751:0]          mpool.c:43   UCX  WARN  object 0x2ba7a40 was not returned to mpool ucp_requests
