
     Program PWSCF v.6.5 starts on 21May2021 at 21:18:14 

     This program is part of the open-source Quantum ESPRESSO suite
     for quantum simulation of materials; please cite
         "P. Giannozzi et al., J. Phys.:Condens. Matter 21 395502 (2009);
         "P. Giannozzi et al., J. Phys.:Condens. Matter 29 465901 (2017);
          URL http://www.quantum-espresso.org", 
     in publications or presentations arising from this work. More details at
     http://www.quantum-espresso.org/quote

     Parallel version (MPI), running on    20 processors

     MPI processes distributed on     8 nodes
     R & G space division:  proc/nbgrp/npool/nimage =      20
     Reading input from CBCO_CuO_cleave_0.5_sep.pwi
Warning: card &IONS ignored
Warning: card     ION_DYNAMICS = 'BFGS' ignored
Warning: card / ignored
Warning: card &CELL ignored
Warning: card     CELL_DYNAMICS = 'BFGS' ignored
Warning: card     PRESS_CONV_THR = 5 ignored
Warning: card / ignored

     Current dimensions of program PWSCF are:
     Max number of different atomic species (ntypx) = 10
     Max number of k-points (npk) =  40000
     Max angular momentum in pseudopotentials (lmaxx) =  3

     Subspace diagonalization in iterative solution of the eigenvalue problem:
     one sub-group per band group will be used
     scalapack distributed-memory algorithm (size of sub-group:  4*  4 procs)

     Message from routine setup:
     using ibrav=0 with symmetry is DISCOURAGED, use correct ibrav instead
 
     Parallelization info
     --------------------
     sticks:   dense  smooth     PW     G-vecs:    dense   smooth      PW
     Min         149      50     14                70963    13664    2134
     Max         150      51     15                71000    13687    2179
     Sum        2991    1007    289              1419661   273473   42977
 


     bravais-lattice index     =            0
     lattice parameter (alat)  =       7.4270  a.u.
     unit-cell volume          =    4351.6708 (a.u.)^3
     number of atoms/cell      =           28
     number of atomic types    =            4
     number of electrons       =       227.00
     number of Kohn-Sham states=          137
     kinetic-energy cutoff     =      60.0000  Ry
     charge density cutoff     =     720.0000  Ry
     convergence threshold     =      1.0E-08
     mixing beta               =       0.5000
     number of iterations used =           10  local-TF  mixing
     Exchange-correlation= SLA PW PBE PBE
                           (   1   4   3   4   0   0   0)

     celldm(1)=   7.427040  celldm(2)=   0.000000  celldm(3)=   0.000000
     celldm(4)=   0.000000  celldm(5)=   0.000000  celldm(6)=   0.000000

     crystal axes: (cart. coord. in units of alat)
               a(1) = (   1.000000   0.000000   0.000000 )  
               a(2) = (   0.000000   0.947081   0.000000 )  
               a(3) = (   0.000000   0.000000  11.215576 )  

     reciprocal axes: (cart. coord. in units 2 pi/alat)
               b(1) = (  1.000000  0.000000  0.000000 )  
               b(2) = (  0.000000  1.055876  0.000000 )  
               b(3) = (  0.000000  0.000000  0.089162 )  


     PseudoPot. # 1 for Ba read from file:
     ./pseudo/Ba.pbe-nsp-van.UPF
     MD5 check sum: 2b9c31dd849566dd297d80989662b7a0
     Pseudo is Ultrasoft + core correction, Zval = 10.0
     Generated by new atomic code, or converted to UPF format
     Using radial grid of  907 points,  6 beta functions with: 
                l(1) =   0
                l(2) =   0
                l(3) =   1
                l(4) =   1
                l(5) =   2
                l(6) =   2
     Q(r) pseudized with  6 coefficients,  rinner =    1.200   1.200   1.200
                                                       1.200   1.200

     PseudoPot. # 2 for Ca read from file:
     ./pseudo/Ca.pbe-nsp-van.UPF
     MD5 check sum: 6471098428ff4fa451746d08035ff179
     Pseudo is Ultrasoft + core correction, Zval = 10.0
     Generated by new atomic code, or converted to UPF format
     Using radial grid of  845 points,  6 beta functions with: 
                l(1) =   0
                l(2) =   0
                l(3) =   1
                l(4) =   1
                l(5) =   2
                l(6) =   2
     Q(r) pseudized with  6 coefficients,  rinner =    1.200   1.200   1.200
                                                       1.200   1.200

     PseudoPot. # 3 for Cu read from file:
     ./pseudo/Cu.pbe-n-van_ak.UPF
     MD5 check sum: 34e3282627ffb533726feb647e090d62
     Pseudo is Ultrasoft + core correction, Zval = 11.0
     Generated by new atomic code, or converted to UPF format
     Using radial grid of  867 points,  6 beta functions with: 
                l(1) =   0
                l(2) =   0
                l(3) =   1
                l(4) =   1
                l(5) =   2
                l(6) =   2
     Q(r) pseudized with  8 coefficients,  rinner =    1.400   1.400   1.400
                                                       1.400   1.400

     PseudoPot. # 4 for O  read from file:
     ./pseudo/O.pbe-van_ak.UPF
     MD5 check sum: 783ce7fe4c79b6a4916957118fed0856
     Pseudo is Ultrasoft, Zval =  6.0
     Generated by new atomic code, or converted to UPF format
     Using radial grid of  737 points,  4 beta functions with: 
                l(1) =   0
                l(2) =   0
                l(3) =   1
                l(4) =   1
     Q(r) pseudized with  8 coefficients,  rinner =    0.800   0.800   0.800


     atomic species   valence    mass     pseudopotential
        Ba            10.00   137.32700     Ba( 1.00)
        Ca            10.00    40.07800     Ca( 1.00)
        Cu            11.00    63.54600     Cu( 1.00)
        O              6.00    15.99900     O ( 1.00)

      4 Sym. Ops. (no inversion) found



   Cartesian axes

     site n.     atom                  positions (alat units)
         1           O   tau(   1) = (   0.0000000   0.4735409  -0.0469745  )
         2           Cu  tau(   2) = (   0.0000000   0.0000000   0.0264565  )
         3           O   tau(   3) = (   0.0000000   0.0000000   0.5030914  )
         4           Ba  tau(   4) = (   0.5000000   0.4735409   0.5690292  )
         5           Cu  tau(   5) = (   0.0000000   0.0000000   1.0374254  )
         6           O   tau(   6) = (   0.5000000   0.0000000   1.0768099  )
         7           O   tau(   7) = (   0.0000000   0.4735409   1.1116985  )
         8           Ca  tau(   8) = (   0.5000000   0.4735409   1.4976260  )
         9           O   tau(   9) = (   0.0000000   0.4735409   1.8667529  )
        10           O   tau(  10) = (   0.5000000   0.0000000   1.9044124  )
        11           Cu  tau(  11) = (   0.0000000   0.0000000   1.9512546  )
        12           Ba  tau(  12) = (   0.5000000   0.4735409   2.4295764  )
        13           O   tau(  13) = (   0.0000000   0.0000000   2.5115362  )
        14           O   tau(  14) = (   0.0000000   0.4735409   2.9918528  )
        15           Cu  tau(  15) = (   0.0000000   0.0000000   2.9919088  )
        16           O   tau(  16) = (   0.0000000   0.0000000   3.5994880  )
        17           Ba  tau(  17) = (   0.5000000   0.4735409   3.6814401  )
        18           Cu  tau(  18) = (   0.0000000   0.0000000   4.1597441  )
        19           O   tau(  19) = (   0.5000000   0.0000000   4.2065863  )
        20           O   tau(  20) = (   0.0000000   0.4735409   4.2442406  )
        21           Ca  tau(  21) = (   0.5000000   0.4735409   4.6133777  )
        22           O   tau(  22) = (   0.0000000   0.4735409   4.9993027  )
        23           O   tau(  23) = (   0.5000000   0.0000000   5.0341913  )
        24           Cu  tau(  24) = (   0.0000000   0.0000000   5.0735784  )
        25           Ba  tau(  25) = (   0.5000000   0.4735409   5.5419720  )
        26           O   tau(  26) = (   0.0000000   0.0000000   5.6078996  )
        27           Cu  tau(  27) = (   0.0000000   0.0000000   6.0845396  )
        28           O   tau(  28) = (   0.0000000   0.4735409   6.1579579  )

     number of k points=    25  Gaussian smearing, width (Ry)=  0.0100
                       cart. coord. in units 2pi/alat
        k(    1) = (   0.0000000   0.0000000   0.0000000), wk =   0.0312500
        k(    2) = (   0.0000000   0.1319845   0.0000000), wk =   0.0625000
        k(    3) = (   0.0000000   0.2639689   0.0000000), wk =   0.0625000
        k(    4) = (   0.0000000   0.3959534   0.0000000), wk =   0.0625000
        k(    5) = (   0.0000000  -0.5279378   0.0000000), wk =   0.0312500
        k(    6) = (   0.1250000   0.0000000   0.0000000), wk =   0.0625000
        k(    7) = (   0.1250000   0.1319845   0.0000000), wk =   0.1250000
        k(    8) = (   0.1250000   0.2639689   0.0000000), wk =   0.1250000
        k(    9) = (   0.1250000   0.3959534   0.0000000), wk =   0.1250000
        k(   10) = (   0.1250000  -0.5279378   0.0000000), wk =   0.0625000
        k(   11) = (   0.2500000   0.0000000   0.0000000), wk =   0.0625000
        k(   12) = (   0.2500000   0.1319845   0.0000000), wk =   0.1250000
        k(   13) = (   0.2500000   0.2639689   0.0000000), wk =   0.1250000
        k(   14) = (   0.2500000   0.3959534   0.0000000), wk =   0.1250000
        k(   15) = (   0.2500000  -0.5279378   0.0000000), wk =   0.0625000
        k(   16) = (   0.3750000   0.0000000   0.0000000), wk =   0.0625000
        k(   17) = (   0.3750000   0.1319845   0.0000000), wk =   0.1250000
        k(   18) = (   0.3750000   0.2639689   0.0000000), wk =   0.1250000
        k(   19) = (   0.3750000   0.3959534   0.0000000), wk =   0.1250000
        k(   20) = (   0.3750000  -0.5279378   0.0000000), wk =   0.0625000
        k(   21) = (  -0.5000000   0.0000000   0.0000000), wk =   0.0312500
        k(   22) = (  -0.5000000   0.1319845   0.0000000), wk =   0.0625000
        k(   23) = (  -0.5000000   0.2639689   0.0000000), wk =   0.0625000
        k(   24) = (  -0.5000000   0.3959534   0.0000000), wk =   0.0625000
        k(   25) = (  -0.5000000  -0.5279378   0.0000000), wk =   0.0312500

     Dense  grid:  1419661 G-vectors     FFT dimensions: (  64,  64, 720)

     Smooth grid:   273473 G-vectors     FFT dimensions: (  40,  36, 432)

     Estimated max dynamical RAM per process >     453.21 MB

     Estimated total dynamical RAM >       8.85 GB

     Initial potential from superposition of free atoms

     starting charge  226.84630, renormalised to  227.00000

     negative rho (up, down):  3.437E-03 0.000E+00
     Starting wfcs are  195 randomized atomic wfcs

     total cpu time spent up to now is       10.1 secs

     Self-consistent Calculation

     iteration #  1     ecut=    60.00 Ry     beta= 0.50
     Davidson diagonalization with overlap
     ethr =  1.00E-02,  avg # of iterations =  2.0

     negative rho (up, down):  4.984E-04 0.000E+00

     total cpu time spent up to now is       25.5 secs

     total energy              =   -1840.87505045 Ry
     Harris-Foulkes estimate   =   -1845.32792281 Ry
     estimated scf accuracy    <      19.04923712 Ry

     iteration #  2     ecut=    60.00 Ry     beta= 0.50
     Davidson diagonalization with overlap
     ethr =  8.39E-03,  avg # of iterations =  2.0

     negative rho (up, down):  2.737E-04 0.000E+00

     total cpu time spent up to now is       40.7 secs

     total energy              =   -1842.50184281 Ry
     Harris-Foulkes estimate   =   -1843.27911336 Ry
     estimated scf accuracy    <       3.54967581 Ry

     iteration #  3     ecut=    60.00 Ry     beta= 0.50
     Davidson diagonalization with overlap
     ethr =  1.56E-03,  avg # of iterations =  2.0

     negative rho (up, down):  2.611E-04 0.000E+00

     total cpu time spent up to now is       56.3 secs

     total energy              =   -1842.81610005 Ry
     Harris-Foulkes estimate   =   -1843.01817025 Ry
     estimated scf accuracy    <       3.65800404 Ry

     iteration #  4     ecut=    60.00 Ry     beta= 0.50
     Davidson diagonalization with overlap
     ethr =  1.56E-03,  avg # of iterations =  1.0

     negative rho (up, down):  2.541E-04 0.000E+00

     total cpu time spent up to now is       70.1 secs

     total energy              =   -1842.88514754 Ry
     Harris-Foulkes estimate   =   -1842.94886981 Ry
     estimated scf accuracy    <       1.21786607 Ry

     iteration #  5     ecut=    60.00 Ry     beta= 0.50
     Davidson diagonalization with overlap
     ethr =  5.37E-04,  avg # of iterations =  1.3

     negative rho (up, down):  2.449E-04 0.000E+00

     total cpu time spent up to now is       84.2 secs

     total energy              =   -1842.86834963 Ry
     Harris-Foulkes estimate   =   -1842.90994182 Ry
     estimated scf accuracy    <       0.36226689 Ry

     iteration #  6     ecut=    60.00 Ry     beta= 0.50
     Davidson diagonalization with overlap
     ethr =  1.60E-04,  avg # of iterations =  6.4

     negative rho (up, down):  2.426E-04 0.000E+00

     total cpu time spent up to now is      104.9 secs

     total energy              =   -1842.88707655 Ry
     Harris-Foulkes estimate   =   -1842.89741599 Ry
     estimated scf accuracy    <       1.61556760 Ry

     iteration #  7     ecut=    60.00 Ry     beta= 0.50
     Davidson diagonalization with overlap
     ethr =  1.60E-04,  avg # of iterations =  1.4

     negative rho (up, down):  2.401E-04 0.000E+00

     total cpu time spent up to now is      119.3 secs

     total energy              =   -1842.87514731 Ry
     Harris-Foulkes estimate   =   -1842.89092383 Ry
     estimated scf accuracy    <       0.87731645 Ry

     iteration #  8     ecut=    60.00 Ry     beta= 0.50
     Davidson diagonalization with overlap
     ethr =  1.60E-04,  avg # of iterations =  1.0

     negative rho (up, down):  2.390E-04 0.000E+00

     total cpu time spent up to now is      133.2 secs

     total energy              =   -1842.87447472 Ry
     Harris-Foulkes estimate   =   -1842.88099573 Ry
     estimated scf accuracy    <       0.67745583 Ry

     iteration #  9     ecut=    60.00 Ry     beta= 0.50
     Davidson diagonalization with overlap
     ethr =  1.60E-04,  avg # of iterations =  1.0

     negative rho (up, down):  2.392E-04 0.000E+00

     total cpu time spent up to now is      146.9 secs

     total energy              =   -1842.87218660 Ry
     Harris-Foulkes estimate   =   -1842.87660736 Ry
     estimated scf accuracy    <       0.38472446 Ry

     iteration # 10     ecut=    60.00 Ry     beta= 0.50
     Davidson diagonalization with overlap
     ethr =  1.60E-04,  avg # of iterations =  1.0

     negative rho (up, down):  2.400E-04 0.000E+00

     total cpu time spent up to now is      160.7 secs

     total energy              =   -1842.87058584 Ry
     Harris-Foulkes estimate   =   -1842.87331853 Ry
     estimated scf accuracy    <       0.26622767 Ry

     iteration # 11     ecut=    60.00 Ry     beta= 0.50
     Davidson diagonalization with overlap
     ethr =  1.17E-04,  avg # of iterations =  1.8

     negative rho (up, down):  2.419E-04 0.000E+00

     total cpu time spent up to now is      175.3 secs

     total energy              =   -1842.86674449 Ry
     Harris-Foulkes estimate   =   -1842.87116409 Ry
     estimated scf accuracy    <       0.17690079 Ry

     iteration # 12     ecut=    60.00 Ry     beta= 0.50
     Davidson diagonalization with overlap
     ethr =  7.79E-05,  avg # of iterations =  4.5

     negative rho (up, down):  2.572E-04 0.000E+00

     total cpu time spent up to now is      193.0 secs

     total energy              =   -1842.86562238 Ry
     Harris-Foulkes estimate   =   -1842.86756251 Ry
     estimated scf accuracy    <       0.04242547 Ry

     iteration # 13     ecut=    60.00 Ry     beta= 0.50
     Davidson diagonalization with overlap
     ethr =  1.87E-05,  avg # of iterations =  7.3

     negative rho (up, down):  6.358E-04 0.000E+00

     total cpu time spent up to now is      214.2 secs

     total energy              =   -1842.86503720 Ry
     Harris-Foulkes estimate   =   -1842.86598509 Ry
     estimated scf accuracy    <       0.02895706 Ry

     iteration # 14     ecut=    60.00 Ry     beta= 0.50
     Davidson diagonalization with overlap
     ethr =  1.28E-05,  avg # of iterations =  2.0

     negative rho (up, down):  8.899E-03 0.000E+00

     total cpu time spent up to now is      228.9 secs

     total energy              =   -1842.86353676 Ry
     Harris-Foulkes estimate   =   -1842.86515734 Ry
     estimated scf accuracy    <       0.02417660 Ry

     iteration # 15     ecut=    60.00 Ry     beta= 0.50
     Davidson diagonalization with overlap
     ethr =  1.07E-05,  avg # of iterations =  6.5

     negative rho (up, down):  2.183E-02 0.000E+00

     total cpu time spent up to now is      249.1 secs

     total energy              =   -1842.86242356 Ry
     Harris-Foulkes estimate   =   -1842.86377265 Ry
     estimated scf accuracy    <       0.00682425 Ry

     iteration # 16     ecut=    60.00 Ry     beta= 0.50
     Davidson diagonalization with overlap
     ethr =  3.01E-06,  avg # of iterations =  9.2

     negative rho (up, down):  2.550E-02 0.000E+00

     total cpu time spent up to now is      273.8 secs

     total energy              =   -1842.86165448 Ry
     Harris-Foulkes estimate   =   -1842.86256286 Ry
     estimated scf accuracy    <       0.00645069 Ry

     iteration # 17     ecut=    60.00 Ry     beta= 0.50
     Davidson diagonalization with overlap
     ethr =  2.84E-06,  avg # of iterations =  7.7

     negative rho (up, down):  1.905E-02 0.000E+00

     total cpu time spent up to now is      296.1 secs

     total energy              =   -1842.86096194 Ry
     Harris-Foulkes estimate   =   -1842.86178147 Ry
     estimated scf accuracy    <       0.00438422 Ry

     iteration # 18     ecut=    60.00 Ry     beta= 0.50
     Davidson diagonalization with overlap
     ethr =  1.93E-06,  avg # of iterations =  6.4

     negative rho (up, down):  1.711E-02 0.000E+00

     total cpu time spent up to now is      316.4 secs

     total energy              =   -1842.86047923 Ry
     Harris-Foulkes estimate   =   -1842.86103956 Ry
     estimated scf accuracy    <       0.00218006 Ry

     iteration # 19     ecut=    60.00 Ry     beta= 0.50
     Davidson diagonalization with overlap
     ethr =  9.60E-07,  avg # of iterations =  7.7

     negative rho (up, down):  1.495E-02 0.000E+00

     total cpu time spent up to now is      338.9 secs

     total energy              =   -1842.86034983 Ry
     Harris-Foulkes estimate   =   -1842.86052736 Ry
     estimated scf accuracy    <       0.00110870 Ry

     iteration # 20     ecut=    60.00 Ry     beta= 0.50
     Davidson diagonalization with overlap
     c_bands:  1 eigenvalues not converged
     c_bands:  1 eigenvalues not converged
     ethr =  4.88E-07,  avg # of iterations =  7.4

     negative rho (up, down):  7.058E-03 0.000E+00

     total cpu time spent up to now is      360.5 secs

     total energy              =   -1842.86023282 Ry
     Harris-Foulkes estimate   =   -1842.86038452 Ry
     estimated scf accuracy    <       0.00041967 Ry

     iteration # 21     ecut=    60.00 Ry     beta= 0.50
     Davidson diagonalization with overlap
     c_bands:  1 eigenvalues not converged
     c_bands:  1 eigenvalues not converged
     ethr =  1.85E-07,  avg # of iterations =  7.8

     negative rho (up, down):  5.077E-03 0.000E+00

     total cpu time spent up to now is      382.6 secs

     total energy              =   -1842.86024181 Ry
     Harris-Foulkes estimate   =   -1842.86024514 Ry
     estimated scf accuracy    <       0.00023654 Ry

     iteration # 22     ecut=    60.00 Ry     beta= 0.50
     Davidson diagonalization with overlap
     c_bands:  1 eigenvalues not converged
     c_bands:  1 eigenvalues not converged
     ethr =  1.04E-07,  avg # of iterations =  5.4

     negative rho (up, down):  2.274E-03 0.000E+00

     total cpu time spent up to now is      401.2 secs

     total energy              =   -1842.86023469 Ry
     Harris-Foulkes estimate   =   -1842.86024922 Ry
     estimated scf accuracy    <       0.00012567 Ry

     iteration # 23     ecut=    60.00 Ry     beta= 0.50
     Davidson diagonalization with overlap
     c_bands:  1 eigenvalues not converged
     c_bands:  1 eigenvalues not converged
     ethr =  5.54E-08,  avg # of iterations =  7.8

     negative rho (up, down):  1.625E-03 0.000E+00

     total cpu time spent up to now is      423.1 secs

     total energy              =   -1842.86024869 Ry
     Harris-Foulkes estimate   =   -1842.86023858 Ry
     estimated scf accuracy    <       0.00004580 Ry

     iteration # 24     ecut=    60.00 Ry     beta= 0.50
     Davidson diagonalization with overlap
     c_bands:  1 eigenvalues not converged
     ethr =  2.02E-08,  avg # of iterations =  4.8

     negative rho (up, down):  1.671E-03 0.000E+00

     total cpu time spent up to now is      441.1 secs

     total energy              =   -1842.86025151 Ry
     Harris-Foulkes estimate   =   -1842.86024945 Ry
     estimated scf accuracy    <       0.00000832 Ry

     iteration # 25     ecut=    60.00 Ry     beta= 0.50
     Davidson diagonalization with overlap
     ethr =  3.66E-09,  avg # of iterations =  1.7

     negative rho (up, down):  1.500E-03 0.000E+00

     total cpu time spent up to now is      455.6 secs

     total energy              =   -1842.86025182 Ry
     Harris-Foulkes estimate   =   -1842.86025186 Ry
     estimated scf accuracy    <       0.00000668 Ry

     iteration # 26     ecut=    60.00 Ry     beta= 0.50
     Davidson diagonalization with overlap
     ethr =  2.94E-09,  avg # of iterations =  1.0

     negative rho (up, down):  1.548E-03 0.000E+00

     total cpu time spent up to now is      469.3 secs

     total energy              =   -1842.86025187 Ry
     Harris-Foulkes estimate   =   -1842.86025209 Ry
     estimated scf accuracy    <       0.00000112 Ry

     iteration # 27     ecut=    60.00 Ry     beta= 0.50
     Davidson diagonalization with overlap
     ethr =  4.94E-10,  avg # of iterations =  3.3

     negative rho (up, down):  1.545E-03 0.000E+00

     total cpu time spent up to now is      486.5 secs

     total energy              =   -1842.86025200 Ry
     Harris-Foulkes estimate   =   -1842.86025201 Ry
     estimated scf accuracy    <       0.00000086 Ry

     iteration # 28     ecut=    60.00 Ry     beta= 0.50
     Davidson diagonalization with overlap
     ethr =  3.80E-10,  avg # of iterations =  1.0

     negative rho (up, down):  1.516E-03 0.000E+00

     total cpu time spent up to now is      500.4 secs

     total energy              =   -1842.86025206 Ry
     Harris-Foulkes estimate   =   -1842.86025203 Ry
     estimated scf accuracy    <       0.00000028 Ry

     iteration # 29     ecut=    60.00 Ry     beta= 0.50
     Davidson diagonalization with overlap
     ethr =  1.24E-10,  avg # of iterations =  1.1

     negative rho (up, down):  1.525E-03 0.000E+00

     total cpu time spent up to now is      514.4 secs

     total energy              =   -1842.86025206 Ry
     Harris-Foulkes estimate   =   -1842.86025207 Ry
     estimated scf accuracy    <       0.00000007 Ry

     iteration # 30     ecut=    60.00 Ry     beta= 0.50
     Davidson diagonalization with overlap
     ethr =  3.21E-11,  avg # of iterations =  2.1

     negative rho (up, down):  1.519E-03 0.000E+00

     total cpu time spent up to now is      529.5 secs

     total energy              =   -1842.86025207 Ry
     Harris-Foulkes estimate   =   -1842.86025206 Ry
     estimated scf accuracy    <       0.00000006 Ry

     iteration # 31     ecut=    60.00 Ry     beta= 0.50
     Davidson diagonalization with overlap
     ethr =  2.81E-11,  avg # of iterations =  1.0

     negative rho (up, down):  1.520E-03 0.000E+00

     total cpu time spent up to now is      543.2 secs

     total energy              =   -1842.86025207 Ry
     Harris-Foulkes estimate   =   -1842.86025207 Ry
     estimated scf accuracy    <       0.00000005 Ry

     iteration # 32     ecut=    60.00 Ry     beta= 0.50
     Davidson diagonalization with overlap
     ethr =  2.15E-11,  avg # of iterations =  1.0

     negative rho (up, down):  1.521E-03 0.000E+00

     total cpu time spent up to now is      557.1 secs

     total energy              =   -1842.86025207 Ry
     Harris-Foulkes estimate   =   -1842.86025207 Ry
     estimated scf accuracy    <       0.00000002 Ry

     iteration # 33     ecut=    60.00 Ry     beta= 0.50
     Davidson diagonalization with overlap
     ethr =  8.37E-12,  avg # of iterations =  1.0

     negative rho (up, down):  1.531E-03 0.000E+00

     total cpu time spent up to now is      570.3 secs

     End of self-consistent calculation

          k = 0.0000 0.0000 0.0000 ( 34267 PWs)   bands (ev):

   -35.5954 -35.5791 -22.7764 -22.7747 -22.5548 -22.4619 -17.0983 -17.0836
   -16.6471 -16.6356 -16.6315 -16.6186 -15.3028 -15.2918 -14.6612 -14.6560
   -14.6365 -14.5760 -14.5631 -14.1656 -14.1639 -13.9768 -13.9694 -13.8374
   -13.8162 -13.7730 -13.0214  -7.9081  -7.9060  -7.8701  -7.8684  -7.7170
    -7.6772  -7.6755  -7.6704  -7.6099  -7.4636  -7.4400  -7.2817  -2.3132
    -2.3124  -1.9047  -1.8201  -1.8175  -1.7900  -1.7792  -1.6666  -1.6555
    -1.5495  -1.5305  -1.4921  -1.4824  -1.2041  -1.2019  -0.8754  -0.6250
    -0.4423  -0.4410  -0.3615  -0.3604  -0.3598  -0.3131  -0.2793  -0.2686
    -0.2680  -0.2520  -0.2485  -0.2473  -0.2461  -0.2335  -0.1682  -0.1423
    -0.0213  -0.0204   0.0881   0.1048   0.1118   0.1139   0.1154   0.1172
     0.1226   0.1430   0.1836   0.1865   0.2683   0.2911   0.3200   0.3371
     0.6869   0.7499   0.8206   0.8977   0.8992   0.9530   0.9909   1.1879
     1.1925   1.3546   1.3626   1.3833   1.3931   1.5056   1.5137   1.5273
     1.5364   1.5507   1.5576   1.8193   1.8332   1.9309   2.0505   2.0547
     2.1692   2.2033   2.2627   2.3289   2.3301   2.5494   2.5590   5.2260
     5.2351   5.6237   6.2011   6.3788   6.7709   6.7798   7.0895   7.1695
     7.9860   8.1029   8.2578   8.3140   8.5380   8.6353   8.6980   9.0900
     9.2524

          k = 0.0000 0.1320 0.0000 ( 34203 PWs)   bands (ev):

   -35.5936 -35.5773 -22.7498 -22.7480 -22.5292 -22.4377 -17.0622 -17.0476
   -16.7080 -16.6911 -16.6448 -16.6291 -15.2139 -15.2034 -14.6653 -14.6612
   -14.5902 -14.5494 -14.5340 -14.1754 -14.1733 -13.9802 -13.9734 -13.8910
   -13.8571 -13.8095 -13.0777  -7.9077  -7.9057  -7.8223  -7.8206  -7.7212
    -7.7177  -7.7144  -7.6673  -7.5644  -7.4890  -7.4218  -7.3197  -2.3727
    -2.3713  -2.1844  -2.1678  -2.0943  -2.0718  -1.8907  -1.6454  -1.6353
    -1.6285  -1.6263  -1.5324  -1.5135  -1.4749  -1.3326  -1.3182  -0.7963
    -0.6253  -0.6054  -0.5398  -0.5385  -0.5124  -0.4470  -0.4457  -0.3760
    -0.3618  -0.2917  -0.2313  -0.2021  -0.1765  -0.1590  -0.1383  -0.1315
    -0.1298   0.0002   0.0012   0.0130   0.0183   0.1287   0.1321   0.1389
     0.1419   0.1603   0.1635   0.1736   0.2819   0.2958   0.3629   0.3756
     0.8551   0.9546   1.0314   1.0737   1.0866   1.0955   1.0968   1.1523
     1.1672   1.1813   1.2001   1.4366   1.4537   1.4783   1.4854   1.5831
     1.6082   1.6183   1.7125   1.7910   1.8166   1.8942   1.9913   2.0146
     2.0427   2.0963   2.1437   2.5546   2.7193   2.8386   2.8469   5.6074
     5.6103   5.9396   6.5076   6.6102   7.0780   7.0838   7.4044   7.4770
     8.1604   8.2980   8.4670   8.5196   8.7418   8.8127   8.9471   9.2382
     9.3548

          k = 0.0000 0.2640 0.0000 ( 34079 PWs)   bands (ev):

   -35.5892 -35.5729 -22.6839 -22.6821 -22.4660 -22.3780 -16.9704 -16.9557
   -16.8620 -16.8452 -16.6391 -16.6235 -15.0118 -15.0030 -14.7168 -14.7099
   -14.5034 -14.4680 -14.4577 -14.1635 -14.1600 -14.0202 -14.0147 -14.0127
   -13.9448 -13.8692 -13.2051  -7.9072  -7.9052  -7.8099  -7.8081  -7.7167
    -7.7018  -7.7002  -7.6597  -7.5949  -7.4502  -7.4010  -7.3172  -2.8234
    -2.8177  -2.6635  -2.6287  -2.4736  -2.4124  -2.4111  -2.2647  -2.2632
    -1.9025  -1.5892  -1.5815  -1.5151  -1.4800  -1.4768  -1.4587  -1.2758
    -1.0061  -0.9191  -0.7919  -0.7904  -0.6601  -0.6441  -0.6240  -0.6065
    -0.5701  -0.5495  -0.5321  -0.4968  -0.4815  -0.4797  -0.4444  -0.3326
    -0.2927   0.0285   0.0295   0.0684   0.1008   0.1080   0.1319   0.1803
     0.1969   0.2377   0.3721   0.3868   0.6155   0.6240   0.7094   0.7190
     0.9694   0.9828   1.0231   1.1444   1.1513   1.1796   1.1813   1.2232
     1.2433   1.2507   1.3084   1.3380   1.3832   1.4771   1.5668   1.6797
     1.7591   1.7644   1.8825   1.8913   1.9125   1.9509   1.9695   1.9894
     1.9912   2.0950   2.2139   2.6688   3.0449   3.0635   3.3703   6.5027
     6.5043   6.6702   7.2932   7.3131   7.9017   7.9053   8.2483   8.3344
     8.6641   8.7781   8.8196   8.9010   9.0269   9.1530   9.3086   9.3224
     9.3562

          k = 0.0000 0.3960 0.0000 ( 34048 PWs)   bands (ev):

   -35.5848 -35.5685 -22.6157 -22.6139 -22.4007 -22.3165 -16.9984 -16.9815
   -16.8687 -16.8542 -16.6335 -16.6178 -14.9202 -14.9184 -14.6902 -14.6718
   -14.5023 -14.4061 -14.3184 -14.1215 -14.1062 -14.1003 -14.0929 -14.0760
   -14.0309 -13.9326 -13.3185  -7.9071  -7.9052  -7.8880  -7.8862  -7.7195
    -7.6842  -7.6506  -7.5734  -7.5717  -7.4708  -7.3289  -7.2071  -3.2888
    -3.2762  -3.2490  -3.0727  -3.0636  -2.9798  -2.9779  -2.3553  -2.3544
    -1.9324  -1.8278  -1.8032  -1.6465  -1.5220  -1.5162  -1.3810  -1.3643
    -1.2414  -1.1320  -1.0618  -1.0598  -0.9049  -0.8721  -0.8615  -0.8590
    -0.7911  -0.7563  -0.7376  -0.7234  -0.7062  -0.6336  -0.6310  -0.3502
    -0.2980  -0.0527   0.0454   0.0467   0.1133   0.1330   0.1449   0.1645
     0.1783   0.1891   0.4959   0.5148   0.7810   0.7925   0.9338   0.9374
     0.9650   0.9772   1.0485   1.0803   1.1186   1.1386   1.1517   1.1528
     1.1806   1.3444   1.5192   1.5879   1.6266   1.6600   1.7190   1.7305
     1.7365   1.7612   1.9176   1.9778   1.9789   1.9860   2.2110   2.2597
     2.3158   2.3838   2.3855   2.5785   2.9370   2.9603   3.6930   7.4250
     7.4500   7.4572   8.2406   8.2667   8.6752   8.6953   8.7304   9.0729
     9.0797   9.0939   9.0974   9.1265   9.3748   9.4609   9.4961   9.5258
     9.7141

          k = 0.0000-0.5279 0.0000 ( 34110 PWs)   bands (ev):

   -35.5830 -35.5667 -22.5868 -22.5850 -22.3730 -22.2904 -17.0505 -17.0336
   -16.8239 -16.8094 -16.6311 -16.6155 -14.9618 -14.9594 -14.5697 -14.5635
   -14.5488 -14.3913 -14.2528 -14.1525 -14.1322 -14.1091 -14.0864 -14.0576
   -14.0556 -13.9905 -13.3615  -7.9177  -7.9159  -7.9068  -7.9048  -7.7316
    -7.7062  -7.6465  -7.5175  -7.5158  -7.4973  -7.2764  -7.1597  -3.5321
    -3.4545  -3.4525  -3.2461  -3.2369  -3.2077  -3.2050  -2.3714  -2.3706
    -1.9520  -1.9434  -1.9314  -1.7803  -1.4882  -1.4828  -1.3384  -1.3019
    -1.2849  -1.2227  -1.1869  -1.1842  -1.0107  -0.9877  -0.9788  -0.9739
    -0.8967  -0.8238  -0.8211  -0.8194  -0.7811  -0.7157  -0.6388  -0.3157
    -0.2596  -0.1177   0.0510   0.0523   0.0777   0.1283   0.1590   0.1793
     0.1917   0.1941   0.4215   0.4353   0.8170   0.8222   0.8585   0.8703
     0.9967   1.0162   1.0271   1.1347   1.1358   1.1388   1.1456   1.2606
     1.3178   1.3313   1.4779   1.5888   1.7168   1.7367   1.7387   1.8002
     2.0150   2.0169   2.0183   2.0236   2.0273   2.0616   2.0684   2.2783
     2.4910   2.5042   2.5453   2.5471   2.7572   2.7844   3.7743   7.8323
     7.8618   7.8687   8.5390   8.8267   8.9407   8.9622   8.9957   9.0071
     9.0101   9.1352   9.3292   9.3477   9.3827   9.4541   9.8848  10.0051
    10.1238

          k = 0.1250 0.0000 0.0000 ( 34183 PWs)   bands (ev):

   -35.5944 -35.5780 -22.7584 -22.7566 -22.5374 -22.4462 -17.0649 -17.0502
   -16.7272 -16.7120 -16.6342 -16.6172 -15.2000 -15.1891 -14.7051 -14.7014
   -14.6561 -14.5826 -14.5683 -14.1746 -14.1728 -13.9877 -13.9811 -13.8572
   -13.8373 -13.8054 -13.0839  -7.9338  -7.9317  -7.8084  -7.8066  -7.7507
    -7.6837  -7.6448  -7.6430  -7.5439  -7.4155  -7.4092  -7.2540  -2.3561
    -2.3552  -1.9849  -1.8593  -1.8578  -1.8156  -1.8006  -1.7973  -1.7722
    -1.7585  -1.7489  -1.4590  -1.4475  -1.2020  -1.1998  -0.8989  -0.6742
    -0.6304  -0.5995  -0.4985  -0.4976  -0.4211  -0.4107  -0.4040  -0.3639
    -0.3235  -0.3224  -0.3072  -0.2638  -0.2540  -0.2107  -0.1811  -0.1546
    -0.0546  -0.0479   0.0806   0.1026   0.1082   0.1099   0.1222   0.1456
     0.2090   0.2103   0.2244   0.2307   0.3404   0.3568   0.4062   0.4354
     0.6228   0.7958   0.8085   0.8255   0.9164   0.9857   1.0389   1.1836
     1.1968   1.2235   1.2334   1.3700   1.3788   1.4889   1.4951   1.5195
     1.5476   1.6173   1.8114   1.8991   1.9424   2.0007   2.0062   2.0764
     2.1092   2.1570   2.2454   2.3121   2.3866   2.5857   2.5909   5.4108
     5.4144   5.8237   6.4297   6.5439   6.9879   6.9931   7.3010   7.3977
     8.1312   8.2321   8.4110   8.4906   8.7924   8.8044   8.9628   9.1798
     9.4682

          k = 0.1250 0.1320 0.0000 ( 34158 PWs)   bands (ev):

   -35.5925 -35.5762 -22.7325 -22.7307 -22.5125 -22.4225 -17.0299 -17.0152
   -16.7302 -16.7146 -16.6974 -16.6807 -15.1183 -15.1079 -14.7001 -14.6958
   -14.6075 -14.5521 -14.5372 -14.1757 -14.1738 -13.9904 -13.9857 -13.9054
   -13.8743 -13.8346 -13.1244  -7.9529  -7.9510  -7.8709  -7.8689  -7.7485
    -7.6845  -7.6303  -7.6067  -7.6050  -7.5058  -7.3711  -7.2117  -2.4097
    -2.4079  -2.1864  -2.1594  -2.0805  -2.0513  -1.9289  -1.8379  -1.8363
    -1.7863  -1.7536  -1.6226  -1.6203  -1.4844  -1.3257  -1.3139  -0.8675
    -0.7974  -0.7366  -0.6639  -0.6566  -0.5779  -0.5654  -0.5303  -0.4874
    -0.4854  -0.3685  -0.2725  -0.2583  -0.2366  -0.1952  -0.1717  -0.1249
    -0.0699  -0.0378  -0.0182   0.0178   0.0218   0.1406   0.1665   0.1733
     0.1954   0.2013   0.2209   0.2374   0.2957   0.3077   0.5132   0.5344
     0.8929   1.0320   1.0439   1.0586   1.0647   1.1278   1.1606   1.2233
     1.2426   1.2687   1.2842   1.3049   1.3166   1.3303   1.3541   1.6063
     1.6088   1.6382   1.6763   1.6778   1.7740   1.7915   2.0132   2.3394
     2.3534   2.3636   2.4780   2.6065   2.7321   2.8441   2.8516   5.7509
     5.7526   6.0835   6.6885   6.7505   7.2858   7.2892   7.6082   7.6999
     8.3034   8.4155   8.5963   8.6703   8.8929   8.9887   9.1475   9.2807
     9.3878

          k = 0.1250 0.2640 0.0000 ( 34093 PWs)   bands (ev):

   -35.5882 -35.5718 -22.6687 -22.6669 -22.4512 -22.3644 -16.9411 -16.9262
   -16.8588 -16.8422 -16.7099 -16.6946 -14.9397 -14.9322 -14.7061 -14.6971
   -14.5094 -14.4631 -14.4560 -14.1586 -14.1561 -14.0424 -14.0340 -14.0053
   -13.9430 -13.8781 -13.2173  -8.0217  -8.0200  -7.9080  -7.9060  -7.7875
    -7.7156  -7.6647  -7.6124  -7.5976  -7.5958  -7.3671  -7.2083  -2.8476
    -2.8411  -2.6669  -2.6336  -2.4669  -2.4129  -2.4116  -2.2641  -2.2626
    -1.9445  -1.7887  -1.7859  -1.7377  -1.7043  -1.5091  -1.4848  -1.2841
    -1.0275  -0.9791  -0.9700  -0.9358  -0.8772  -0.8621  -0.6873  -0.6775
    -0.6654  -0.6081  -0.5700  -0.5567  -0.4987  -0.4892  -0.4057  -0.3356
    -0.3116  -0.1375  -0.0924  -0.0206   0.0472   0.1924   0.2064   0.2165
     0.3609   0.4273   0.4949   0.5027   0.7484   0.7609   0.7998   0.8068
     1.0229   1.0376   1.0604   1.1092   1.1251   1.2117   1.3000   1.3090
     1.3281   1.3395   1.4028   1.4147   1.4377   1.4952   1.5715   1.5837
     1.6203   1.6442   1.6533   1.8851   1.9540   1.9554   2.0284   2.3431
     2.5452   2.5588   2.6849   2.8197   3.0507   3.0758   3.3673   6.5637
     6.5653   6.6842   7.3742   7.3897   8.0675   8.0695   8.4345   8.5297
     8.7816   8.8411   8.8632   8.9457   9.0788   9.1271   9.1694   9.2278
     9.3531

          k = 0.1250 0.3960 0.0000 ( 34104 PWs)   bands (ev):

   -35.5838 -35.5674 -22.6028 -22.6010 -22.3879 -22.3046 -16.9933 -16.9764
   -16.8423 -16.8277 -16.7013 -16.6860 -14.8847 -14.8831 -14.6180 -14.5966
   -14.4754 -14.3895 -14.3096 -14.1400 -14.1362 -14.1059 -14.0910 -14.0683
   -14.0147 -13.9254 -13.3009  -8.0522  -8.0504  -7.9195  -7.9175  -7.8436
    -7.7150  -7.6642  -7.6426  -7.6409  -7.6362  -7.4054  -7.2671  -3.3263
    -3.3180  -3.2453  -3.0991  -3.0876  -2.9712  -2.9693  -2.3636  -2.3627
    -1.9633  -1.7797  -1.7768  -1.7045  -1.6475  -1.6422  -1.6056  -1.4939
    -1.3190  -1.3143  -1.1921  -1.1791  -1.1654  -1.0964  -0.9489  -0.8646
    -0.8561  -0.8474  -0.8182  -0.7433  -0.7403  -0.6304  -0.5642  -0.3713
    -0.3478  -0.1821  -0.1154   0.0091   0.0837   0.2123   0.2193   0.2243
     0.3956   0.4622   0.6731   0.6933   0.9084   0.9167   0.9646   0.9858
     0.9987   1.0642   1.0697   1.1632   1.1808   1.2429   1.2447   1.2830
     1.3778   1.4038   1.5896   1.6531   1.6563   1.7255   1.7306   1.7539
     1.8278   1.8757   1.8895   2.0290   2.2888   2.3509   2.3526   2.4065
     2.4931   2.5070   2.6539   2.7391   2.9813   3.0215   3.6793   7.2286
     7.3141   7.3191   8.1065   8.1375   8.6661   8.6776   8.7095   8.8900
     8.9430   9.0665   9.3699   9.3897   9.5354   9.5783   9.6409   9.7076
     9.8297

          k = 0.1250-0.5279 0.0000 ( 34036 PWs)   bands (ev):

   -35.5819 -35.5656 -22.5748 -22.5730 -22.3612 -22.2794 -17.0449 -17.0280
   -16.7991 -16.7845 -16.6976 -16.6822 -14.9169 -14.9147 -14.5066 -14.4959
   -14.4901 -14.3642 -14.2356 -14.1793 -14.1660 -14.0917 -14.0847 -14.0578
   -14.0555 -13.9757 -13.3326  -8.0468  -8.0450  -7.9243  -7.9224  -7.8543
    -7.7149  -7.6770  -7.6756  -7.6625  -7.6250  -7.4294  -7.3115  -3.5337
    -3.5036  -3.4931  -3.2797  -3.2677  -3.2003  -3.1982  -2.3846  -2.3838
    -1.9691  -1.8136  -1.8071  -1.7419  -1.6003  -1.5876  -1.5091  -1.5030
    -1.4894  -1.4412  -1.3546  -1.3406  -1.2580  -1.1817  -1.0452  -0.9597
    -0.9330  -0.9316  -0.9109  -0.8362  -0.8334  -0.6672  -0.6002  -0.3535
    -0.3307  -0.1986  -0.1263   0.0268   0.1006   0.2241   0.2288   0.2329
     0.3998   0.4615   0.6444   0.6575   0.9417   0.9445   0.9653   0.9729
     1.0041   1.0196   1.0382   1.1388   1.2721   1.2792   1.3260   1.3512
     1.3831   1.4308   1.4538   1.7779   1.7818   1.9643   2.0076   2.0127
     2.0199   2.0288   2.0491   2.0523   2.3565   2.3616   2.4532   2.5146
     2.5164   2.5181   2.5268   2.5681   2.8531   2.8992   3.7547   7.4328
     7.5353   7.5396   8.2855   8.3248   8.6466   8.9351   9.0367   9.0954
     9.3159   9.3198   9.4938   9.6060   9.6803   9.7571   9.9768  10.0862
    10.1305

          k = 0.2500 0.0000 0.0000 ( 34204 PWs)   bands (ev):

   -35.5917 -35.5754 -22.7141 -22.7123 -22.4947 -22.4075 -16.9800 -16.9650
   -16.8910 -16.8766 -16.6309 -16.6139 -14.9953 -14.9882 -14.7980 -14.7852
   -14.7183 -14.5963 -14.5930 -14.1889 -14.1869 -14.0331 -14.0250 -13.9004
   -13.8827 -13.8621 -13.2261  -7.9353  -7.9332  -7.7798  -7.7217  -7.7200
    -7.6702  -7.5641  -7.5623  -7.4655  -7.3328  -7.3217  -7.1854  -2.5515
    -2.5485  -2.3568  -2.2879  -2.1945  -2.1928  -1.8957  -1.7457  -1.7419
    -1.6637  -1.6561  -1.4761  -1.4511  -1.1987  -1.1965  -0.9684  -0.9468
    -0.9182  -0.7551  -0.7538  -0.7442  -0.7200  -0.6614  -0.6586  -0.6042
    -0.5148  -0.5137  -0.3898  -0.3271  -0.2949  -0.2386  -0.2338  -0.2060
    -0.1948  -0.1724   0.0648   0.0955   0.0972   0.1467   0.2027   0.2037
     0.3394   0.3401   0.4086   0.4254   0.4297   0.4752   0.5126   0.5529
     0.5632   0.6723   0.6765   0.8689   0.9344   0.9499   1.0713   1.2861
     1.2910   1.3134   1.3199   1.3503   1.4183   1.4280   1.4281   1.5085
     1.5660   1.5897   1.7213   1.8874   1.8991   1.9879   2.0391   2.0442
     2.0673   2.3030   2.3191   2.4771   2.5356   2.6925   2.6999   5.8701
     5.8716   6.2715   7.0269   7.0555   7.5670   7.5701   7.8846   8.0264
     8.4925   8.5012   8.7155   8.9029   9.0911   9.1790   9.3165   9.5830
     9.6114

          k = 0.2500 0.1320 0.0000 ( 34143 PWs)   bands (ev):

   -35.5899 -35.5736 -22.6902 -22.6885 -22.4716 -22.3855 -16.9481 -16.9330
   -16.8844 -16.8700 -16.6970 -16.6800 -14.9425 -14.9369 -14.7528 -14.7369
   -14.6641 -14.5587 -14.5569 -14.1746 -14.1728 -14.0301 -14.0248 -13.9349
   -13.9116 -13.8799 -13.2324  -8.0036  -8.0018  -7.8588  -7.8568  -7.8120
    -7.6810  -7.6344  -7.5304  -7.5288  -7.5219  -7.3036  -7.1417  -2.6027
    -2.5978  -2.3946  -2.3196  -2.1859  -2.1839  -2.0909  -2.0867  -1.9833
    -1.9683  -1.8668  -1.6130  -1.6107  -1.5079  -1.3829  -1.3771  -1.0285
    -1.0065  -0.9888  -0.9535  -0.9069  -0.8950  -0.8210  -0.6627  -0.6156
    -0.6097  -0.5468  -0.4364  -0.3519  -0.3295  -0.2999  -0.2342  -0.1982
    -0.1950  -0.0191  -0.0135   0.0381   0.0529   0.1251   0.1847   0.1993
     0.2300   0.3123   0.3479   0.3505   0.5756   0.6214   0.7695   0.7896
     0.8707   0.9146   0.9262   1.0114   1.0590   1.1230   1.1829   1.2181
     1.2400   1.3783   1.3879   1.4215   1.4229   1.4421   1.4930   1.4985
     1.5314   1.5477   1.5739   1.7459   1.7473   1.8384   2.0269   2.4768
     2.6594   2.6852   2.7806   2.8554   2.8674   2.9015   2.9149   6.1314
     6.1328   6.4055   7.1812   7.2018   7.8258   7.8281   8.1626   8.3032
     8.6069   8.6191   8.8560   9.0288   9.0686   9.2127   9.2944   9.3159
     9.4325

          k = 0.2500 0.2640 0.0000 ( 34141 PWs)   bands (ev):

   -35.5856 -35.5692 -22.6315 -22.6298 -22.4150 -22.3314 -16.8859 -16.8702
   -16.8583 -16.8440 -16.8335 -16.8172 -14.8483 -14.8460 -14.6233 -14.5985
   -14.5337 -14.4678 -14.4498 -14.1513 -14.1483 -14.0819 -14.0727 -13.9854
   -13.9447 -13.8992 -13.2466  -8.2237  -8.2220  -7.9872  -7.9206  -7.9186
    -7.8237  -7.7190  -7.6602  -7.6502  -7.6484  -7.4278  -7.2605  -2.9876
    -2.9769  -2.7460  -2.7019  -2.4479  -2.4266  -2.4250  -2.2979  -2.2955
    -2.2210  -2.1803  -2.1547  -2.1500  -1.8660  -1.4482  -1.4406  -1.4089
    -1.4068  -1.3446  -1.2905  -1.1849  -1.0149  -0.9545  -0.7549  -0.7236
    -0.7209  -0.6709  -0.6330  -0.5830  -0.5798  -0.5636  -0.4348  -0.4135
    -0.3887  -0.3378  -0.2518   0.0073   0.0892   0.2970   0.3683   0.3807
     0.5576   0.6131   0.7790   0.8171   0.8364   0.8461   0.9677   0.9788
     1.0305   1.1488   1.1890   1.2683   1.2766   1.3284   1.3784   1.3864
     1.4407   1.4578   1.4702   1.4963   1.5380   1.6017   1.6156   1.6245
     1.6801   1.7107   1.7826   1.8736   1.8746   1.8829   2.1981   2.4603
     2.9984   3.0060   3.2750   3.2808   3.3347   3.4137   3.4216   6.6389
     6.6738   6.6764   7.5702   7.5871   8.3593   8.3610   8.7200   8.7565
     8.8576   8.9987   9.0656   9.0760   9.2715   9.3494   9.3953   9.4402
     9.4801

          k = 0.2500 0.3960 0.0000 ( 34116 PWs)   bands (ev):

   -35.5812 -35.5649 -22.5711 -22.5693 -22.3568 -22.2758 -16.9813 -16.9644
   -16.8496 -16.8348 -16.7735 -16.7586 -14.8027 -14.8014 -14.4602 -14.4293
   -14.4204 -14.3602 -14.2891 -14.2095 -14.2036 -14.0847 -14.0756 -14.0430
   -13.9762 -13.9147 -13.2577  -8.3437  -8.3420  -8.1202  -7.9708  -7.9690
    -7.9365  -7.8643  -7.8625  -7.7394  -7.6963  -7.6316  -7.4928  -3.4865
    -3.4763  -3.2646  -3.2011  -3.1609  -2.9503  -2.9484  -2.4363  -2.4349
    -2.2161  -2.1522  -2.1117  -2.0964  -1.8547  -1.7892  -1.7788  -1.6635
    -1.6202  -1.4565  -1.4292  -1.3283  -1.1872  -1.1601  -1.0190  -0.8797
    -0.8370  -0.7915  -0.7899  -0.7827  -0.7766  -0.6052  -0.5748  -0.5435
    -0.4450  -0.4121  -0.3237   0.1248   0.2148   0.3320   0.4106   0.4440
     0.7146   0.8422   0.9835   0.9962   1.0050   1.0171   1.0974   1.2531
     1.2597   1.2989   1.3166   1.3316   1.3375   1.4742   1.5189   1.5491
     1.5629   1.6788   1.6940   1.7358   1.7707   1.7796   1.8021   1.8650
     1.9114   1.9185   1.9397   2.1577   2.2368   2.2725   2.2743   2.4597
     2.8308   2.8387   3.5008   3.5074   3.5864   3.6576   3.6908   6.6848
     6.8805   6.8846   7.7211   7.7605   8.7805   8.8084   8.8321   8.9077
     9.0725   9.1655   9.6665   9.6872   9.7994   9.8041   9.8379   9.8998
     9.9921

          k = 0.2500-0.5279 0.0000 ( 34148 PWs)   bands (ev):

   -35.5794 -35.5631 -22.5456 -22.5438 -22.3322 -22.2523 -17.0314 -17.0145
   -16.8441 -16.8293 -16.7341 -16.7192 -14.7995 -14.7978 -14.3995 -14.3539
   -14.3513 -14.3044 -14.2464 -14.2344 -14.1946 -14.0920 -14.0521 -14.0498
   -14.0214 -13.9456 -13.2608  -8.3439  -8.3421  -8.1395  -8.0587  -8.0569
    -7.9307  -7.9288  -7.9241  -7.7971  -7.7377  -7.6913  -7.6205  -3.6865
    -3.6754  -3.5129  -3.3996  -3.3802  -3.1780  -3.1760  -2.4434  -2.4422
    -2.1858  -2.1148  -2.0688  -2.0422  -1.9486  -1.9347  -1.8413  -1.8114
    -1.7538  -1.4787  -1.4535  -1.3766  -1.2591  -1.2411  -1.1113  -0.9677
    -0.9210  -0.8639  -0.8572  -0.8048  -0.8015  -0.6264  -0.5848  -0.5517
    -0.4627  -0.4368  -0.3367   0.1666   0.2504   0.3402   0.4299   0.4785
     0.7436   0.8842   1.0378   1.0481   1.0900   1.0955   1.1765   1.2085
     1.2115   1.3311   1.3576   1.4155   1.4344   1.5172   1.5207   1.5440
     1.6488   1.7606   1.7637   1.9072   1.9138   1.9942   2.0010   2.0355
     2.0438   2.0530   2.0702   2.0801   2.4059   2.4483   2.4499   2.5092
     2.6079   2.6188   3.5171   3.5271   3.6422   3.6932   3.7385   6.6407
     6.8454   6.8481   7.6816   7.7328   8.7700   8.8597   9.1502   9.2769
     9.5319   9.5344   9.6790   9.8274   9.8675   9.9806  10.0517  10.0790
    10.1215

          k = 0.3750 0.0000 0.0000 ( 34140 PWs)   bands (ev):

   -35.5891 -35.5728 -22.6687 -22.6669 -22.4509 -22.3681 -17.0313 -17.0171
   -16.8846 -16.8693 -16.6276 -16.6106 -15.0302 -15.0283 -14.8253 -14.6452
   -14.6359 -14.5984 -14.5828 -14.2015 -14.1983 -14.1346 -14.1247 -13.9315
   -13.9166 -13.9011 -13.3553  -7.9179  -7.9158  -7.7769  -7.6568  -7.6551
    -7.6417  -7.4797  -7.4779  -7.4231  -7.2532  -7.2457  -7.1144  -2.8810
    -2.8767  -2.7278  -2.6776  -2.3157  -2.3148  -1.9358  -1.6684  -1.6653
    -1.5781  -1.5569  -1.5153  -1.5102  -1.2003  -1.1981  -1.1696  -1.0552
    -1.0510  -1.0079  -1.0063  -0.9001  -0.8981  -0.8945  -0.8717  -0.7807
    -0.7149  -0.7138  -0.4575  -0.4195  -0.4137  -0.3129  -0.2584  -0.2529
    -0.2186  -0.2160   0.0505   0.0826   0.0831   0.0843   0.1842   0.2128
     0.3864   0.4187   0.4191   0.4196   0.4343   0.4496   0.4522   0.5114
     0.5460   0.7327   0.7482   0.8686   1.1124   1.1547   1.1989   1.1998
     1.2148   1.2291   1.3563   1.3676   1.4277   1.5048   1.5142   1.6259
     1.6503   1.7598   1.7797   1.7845   1.8223   1.8954   1.9241   2.1285
     2.1353   2.3294   2.3602   2.5819   2.6060   2.8105   2.8234   6.5199
     6.5213   6.7499   7.7567   7.7829   8.0143   8.0159   8.4729   8.4943
     8.6697   8.7790   8.8801   9.2467   9.3414   9.4836   9.4974   9.5064
     9.5834

          k = 0.3750 0.1320 0.0000 ( 34185 PWs)   bands (ev):

   -35.5873 -35.5710 -22.6470 -22.6452 -22.4298 -22.3477 -17.0227 -17.0085
   -16.8555 -16.8402 -16.6920 -16.6750 -14.9824 -14.9807 -14.7638 -14.6059
   -14.5921 -14.5367 -14.5230 -14.1731 -14.1706 -14.1134 -14.1051 -13.9667
   -13.9441 -13.9071 -13.3323  -7.9752  -7.9734  -7.8204  -7.8185  -7.8065
    -7.6627  -7.5920  -7.5694  -7.5676  -7.4521  -7.3512  -7.1873  -2.9442
    -2.9376  -2.7707  -2.7139  -2.3147  -2.3137  -2.0588  -2.0463  -1.9504
    -1.8792  -1.8467  -1.6014  -1.5992  -1.5119  -1.4587  -1.4545  -1.2995
    -1.2969  -1.2112  -1.1763  -1.0662  -0.9719  -0.9050  -0.7839  -0.7739
    -0.7295  -0.6876  -0.5020  -0.4162  -0.4051  -0.3570  -0.2920  -0.2519
    -0.2514  -0.0482  -0.0416   0.0565   0.0663   0.1084   0.1839   0.1960
     0.2108   0.4254   0.4563   0.4600   0.6526   0.6739   0.7399   0.8012
     0.8095   0.9436   0.9700   1.0437   1.1589   1.1917   1.2231   1.2309
     1.2903   1.3398   1.3740   1.3757   1.4719   1.5431   1.5442   1.6660
     1.7027   1.7163   1.7443   1.7984   1.8022   1.8255   1.8836   2.4657
     2.7235   2.7666   2.8068   2.9427   2.9528   3.1133   3.1310   6.6684
     6.6700   6.7193   7.8033   7.8206   8.0798   8.0814   8.4799   8.5190
     8.8784   8.9100   9.0262   9.2223   9.3272   9.4464   9.5108   9.6507
     9.6921

          k = 0.3750 0.2640 0.0000 ( 34193 PWs)   bands (ev):

   -35.5830 -35.5667 -22.5937 -22.5919 -22.3781 -22.2977 -17.0023 -16.9881
   -16.8364 -16.8193 -16.7803 -16.7652 -14.8602 -14.8588 -14.6020 -14.5114
   -14.4877 -14.3867 -14.3729 -14.1359 -14.1301 -14.1023 -14.0976 -14.0076
   -13.9804 -13.9085 -13.2746  -8.2764  -8.2747  -8.0426  -7.9551  -7.9533
    -7.8768  -7.8328  -7.8309  -7.7405  -7.6635  -7.6162  -7.4592  -3.2653
    -3.2512  -3.0087  -2.9517  -2.4896  -2.4873  -2.4251  -2.3772  -2.3704
    -2.3651  -2.3630  -2.2353  -2.2338  -1.9116  -1.7733  -1.7625  -1.5932
    -1.5648  -1.2485  -1.2349  -1.1642  -0.9921  -0.9478  -0.8710  -0.8676
    -0.8383  -0.7654  -0.6789  -0.6345  -0.6328  -0.5587  -0.5202  -0.4870
    -0.3731  -0.3610  -0.2776   0.0314   0.1263   0.3747   0.4786   0.5287
     0.6922   0.7199   0.8376   0.8521   1.0138   1.0225   1.0868   1.1000
     1.1607   1.2260   1.2307   1.2839   1.3920   1.4192   1.4277   1.4416
     1.5853   1.6341   1.6422   1.6470   1.7140   1.7400   1.7427   1.7633
     1.7689   1.8022   1.8220   1.8354   1.8370   1.9091   2.1645   2.4298
     2.9969   3.0090   3.3340   3.7291   3.7321   3.8322   3.8391   6.5073
     6.7139   6.7162   7.6277   7.6402   8.4181   8.4216   8.8005   8.8370
     8.9750   9.3342   9.4255   9.4310   9.5421   9.6239   9.7576   9.8291
     9.8667

          k = 0.3750 0.3960 0.0000 ( 34177 PWs)   bands (ev):

   -35.5786 -35.5623 -22.5390 -22.5372 -22.3251 -22.2465 -16.9850 -16.9702
   -16.9630 -16.9465 -16.7009 -16.6857 -14.7246 -14.7236 -14.4400 -14.4214
   -14.3419 -14.2283 -14.2259 -14.2151 -14.2071 -14.0668 -14.0632 -14.0043
   -13.9524 -13.9260 -13.2128  -8.5422  -8.5404  -8.3172  -8.2072  -8.2055
    -8.1379  -7.9582  -7.9559  -7.9457  -7.8022  -7.7744  -7.6619  -3.7461
    -3.7318  -3.4549  -3.4066  -3.1666  -2.9296  -2.9277  -2.6180  -2.6163
    -2.4863  -2.4622  -2.2639  -2.2628  -2.0850  -2.0691  -1.8976  -1.8270
    -1.7978  -1.3313  -1.2326  -1.2166  -1.1930  -1.1908  -1.0327  -0.9514
    -0.9469  -0.8656  -0.8537  -0.8114  -0.7978  -0.7288  -0.7051  -0.5758
    -0.3812  -0.3781  -0.2645   0.1812   0.2843   0.4333   0.6444   0.6799
     0.9450   1.0967   1.1613   1.1788   1.2298   1.2709   1.3030   1.3653
     1.3713   1.4905   1.4985   1.5011   1.5403   1.5882   1.6002   1.7319
     1.7768   1.7859   1.8041   1.8953   1.9203   1.9698   1.9979   2.0025
     2.0234   2.0691   2.1053   2.1855   2.1944   2.1960   2.2805   2.4812
     2.8179   2.8324   3.5884   4.2435   4.2485   4.3182   4.3224   6.1510
     6.4107   6.4128   7.3479   7.3840   8.8125   8.9595   8.9937   9.0389
     9.3920   9.4378   9.5127   9.5373   9.5698   9.6412   9.6825   9.8080
     9.9359

          k = 0.3750-0.5279 0.0000 ( 34192 PWs)   bands (ev):

   -35.5768 -35.5605 -22.5160 -22.5142 -22.3028 -22.2250 -17.0180 -17.0012
   -16.9724 -16.9581 -16.6656 -16.6503 -14.6628 -14.6619 -14.3946 -14.3902
   -14.2942 -14.2602 -14.1626 -14.1508 -14.1408 -14.0852 -14.0441 -14.0418
   -13.9499 -13.9330 -13.1857  -8.6243  -8.6224  -8.4125  -8.3523  -8.3507
    -8.2140  -8.0833  -7.9837  -7.9818  -7.9500  -7.7874  -7.6806  -3.9524
    -3.9382  -3.6612  -3.6091  -3.4362  -3.1548  -3.1529  -2.6365  -2.6348
    -2.4955  -2.4669  -2.2581  -2.2570  -2.1914  -2.1744  -1.9121  -1.8812
    -1.8811  -1.4060  -1.3205  -1.3088  -1.2382  -1.2296  -1.1042  -0.9524
    -0.9479  -0.9471  -0.9407  -0.9017  -0.8932  -0.7523  -0.7200  -0.5848
    -0.3662  -0.3639  -0.2429   0.2257   0.3213   0.4446   0.6974   0.7699
     1.0170   1.2724   1.2787   1.2859   1.3063   1.3132   1.3557   1.3626
     1.3890   1.5506   1.5684   1.6070   1.6185   1.7823   1.7876   1.8234
     1.8247   1.8821   1.9376   1.9770   2.0501   2.0534   2.1167   2.1431
     2.1520   2.2675   2.2772   2.2881   2.3734   2.3853   2.3878   2.5439
     2.5728   2.5926   3.6262   4.3820   4.3901   4.4679   4.4717   5.9715
     6.2331   6.2346   7.2409   7.2996   8.6648   8.9651   9.1392   9.1709
     9.3638   9.3880   9.5425   9.7347   9.7722   9.7739   9.8558   9.9042
    10.0246

          k =-0.5000 0.0000 0.0000 ( 34130 PWs)   bands (ev):

   -35.5880 -35.5717 -22.6495 -22.6477 -22.4325 -22.3515 -17.0836 -17.0696
   -16.8425 -16.8270 -16.6262 -16.6092 -15.0875 -15.0847 -14.8661 -14.6706
   -14.6363 -14.3792 -14.3615 -14.3210 -14.3063 -14.1816 -14.1793 -13.9365
   -13.9297 -13.9139 -13.4050  -7.9076  -7.9055  -7.7695  -7.6336  -7.6320
    -7.6271  -7.4436  -7.4418  -7.4129  -7.2191  -7.2177  -7.0842  -3.0231
    -3.0189  -2.8734  -2.8268  -2.3405  -2.3396  -1.9429  -1.6477  -1.6300
    -1.6232  -1.6207  -1.3894  -1.3870  -1.2612  -1.2042  -1.2020  -1.1690
    -1.1641  -1.0935  -1.0906  -1.0081  -0.9978  -0.9211  -0.9135  -0.8165
    -0.7983  -0.7972  -0.5245  -0.4762  -0.4247  -0.3453  -0.2911  -0.2761
    -0.2073  -0.2038   0.0182   0.0453   0.0773   0.0790   0.1401   0.1955
     0.3605   0.4147   0.4194   0.4210   0.4417   0.4451   0.4539   0.4571
     0.5608   0.7754   0.7902   0.8473   1.0673   1.1493   1.1508   1.1789
     1.3524   1.3692   1.3849   1.3871   1.3986   1.5925   1.5994   1.6441
     1.6696   1.6706   1.6976   1.8628   1.8743   1.9358   1.9672   2.1440
     2.1491   2.3262   2.3625   2.5853   2.6032   2.8441   2.8568   7.0253
     7.2920   7.2937   7.3447   7.3461   8.2575   8.3050   8.4561   8.5402
     8.6503   9.0404   9.1165   9.4237   9.4450   9.4587   9.6417   9.6725
     9.8530

          k =-0.5000 0.1320 0.0000 ( 34202 PWs)   bands (ev):

   -35.5862 -35.5699 -22.6287 -22.6269 -22.4122 -22.3319 -17.0744 -17.0604
   -16.8151 -16.7996 -16.6898 -16.6729 -15.0304 -15.0280 -14.7999 -14.6302
   -14.5952 -14.3392 -14.3229 -14.2618 -14.2484 -14.1600 -14.1577 -13.9753
   -13.9513 -13.9174 -13.3710  -7.9465  -7.9445  -7.7892  -7.7630  -7.7614
    -7.6486  -7.6465  -7.6429  -7.5334  -7.4324  -7.3459  -7.2911  -3.0928
    -3.0863  -2.9243  -2.8707  -2.3457  -2.3448  -2.0405  -2.0161  -1.9462
    -1.8222  -1.7993  -1.5960  -1.5938  -1.5136  -1.5017  -1.4843  -1.4150
    -1.4122  -1.3144  -1.2724  -1.0972  -0.9641  -0.9615  -0.8541  -0.8530
    -0.7320  -0.7051  -0.5076  -0.4545  -0.4430  -0.3804  -0.3184  -0.2760
    -0.2719  -0.0686  -0.0571   0.0566   0.0742   0.1036   0.1844   0.1962
     0.2026   0.5132   0.5304   0.5322   0.5445   0.5905   0.6671   0.7673
     0.8197   0.9498   1.0218   1.0641   1.1724   1.1986   1.2461   1.2915
     1.2932   1.2986   1.4084   1.4201   1.4853   1.6283   1.6425   1.6497
     1.6754   1.7315   1.7580   1.8682   1.8841   1.8999   1.9266   2.4491
     2.7341   2.7707   2.8021   2.9581   2.9693   3.1653   3.1852   6.8697
     7.1397   7.1412   7.6461   7.6481   8.1360   8.1778   8.4591   8.5078
     8.7612   9.2863   9.3431   9.4878   9.5634   9.5899   9.7023   9.7862
     9.7935

          k =-0.5000 0.2640 0.0000 ( 34216 PWs)   bands (ev):

   -35.5819 -35.5656 -22.5778 -22.5760 -22.3626 -22.2836 -17.0524 -17.0383
   -16.8330 -16.8160 -16.7440 -16.7286 -14.8792 -14.8774 -14.6253 -14.5340
   -14.4905 -14.2395 -14.2272 -14.1564 -14.1514 -14.1101 -14.1079 -14.0506
   -14.0178 -13.9045 -13.2852  -8.2153  -8.2134  -8.0642  -8.0626  -7.9887
    -7.8964  -7.8944  -7.8226  -7.8152  -7.7287  -7.6487  -7.6085  -3.4038
    -3.3896  -3.1549  -3.0988  -2.5159  -2.5139  -2.4158  -2.3990  -2.3939
    -2.3713  -2.3692  -2.2431  -2.2416  -1.9263  -1.9005  -1.8852  -1.6819
    -1.6459  -1.1643  -1.1638  -1.1436  -0.9534  -0.9518  -0.9266  -0.9039
    -0.8973  -0.8267  -0.7032  -0.6587  -0.6570  -0.5496  -0.5179  -0.4880
    -0.3812  -0.3783  -0.2865   0.0409   0.1407   0.3999   0.5142   0.5942
     0.7413   0.7580   0.8673   0.8725   1.0855   1.1011   1.1514   1.1618
     1.1825   1.2026   1.2027   1.2430   1.4385   1.4436   1.4724   1.5015
     1.6095   1.7066   1.7093   1.7206   1.7580   1.7627   1.7709   1.7964
     1.8240   1.8940   1.8968   1.9080   1.9211   1.9372   1.9978   2.3921
     2.9896   3.0028   3.3258   3.8691   3.8716   3.9644   3.9725   6.4340
     6.7100   6.7115   7.5542   7.5780   8.4553   8.4587   8.8931   8.9410
     9.0691   9.5040   9.5834   9.6011   9.6300   9.6971   9.7312   9.8616
     9.9213

          k =-0.5000 0.3960 0.0000 ( 34176 PWs)   bands (ev):

   -35.5776 -35.5613 -22.5256 -22.5238 -22.3119 -22.2343 -17.0308 -17.0167
   -16.9620 -16.9451 -16.6686 -16.6532 -14.6957 -14.6947 -14.4656 -14.4501
   -14.3199 -14.2170 -14.2056 -14.1380 -14.1304 -14.0621 -14.0599 -13.9847
   -13.9576 -13.9488 -13.1936  -8.5904  -8.5886  -8.3711  -8.3523  -8.3506
    -8.1850  -8.0870  -7.9742  -7.9721  -7.9428  -7.7924  -7.6694  -3.8773
    -3.8618  -3.5757  -3.5276  -3.1593  -2.9211  -2.9191  -2.6877  -2.6861
    -2.5598  -2.5445  -2.2800  -2.2792  -2.1891  -2.1666  -1.9019  -1.8899
    -1.8495  -1.3492  -1.2224  -1.2145  -1.0968  -1.0914  -1.0691  -1.0379
    -1.0085  -0.8752  -0.8717  -0.8151  -0.8002  -0.7982  -0.7764  -0.5679
    -0.3422  -0.3406  -0.2360   0.1984   0.3067   0.4713   0.7510   0.7830
     1.0421   1.1791   1.2729   1.2844   1.2867   1.3632   1.3882   1.3945
     1.4401   1.5155   1.5781   1.5796   1.5858   1.5950   1.6286   1.7831
     1.7886   1.8290   1.9003   1.9283   2.0029   2.0366   2.0604   2.0723
     2.1469   2.1614   2.1636   2.1676   2.2082   2.2354   2.3277   2.4436
     2.8058   2.8223   3.5731   4.5114   4.5164   4.5623   4.5668   5.9363
     6.2150   6.2164   7.1994   7.2318   8.8263   8.8825   8.9385   8.9863
     9.4323   9.4438   9.5993   9.6073   9.6800   9.7162   9.7255   9.8769
     9.9070

          k =-0.5000-0.5279 0.0000 ( 34236 PWs)   bands (ev):

   -35.5758 -35.5595 -22.5036 -22.5018 -22.2905 -22.2135 -17.0220 -17.0126
   -17.0079 -16.9957 -16.6353 -16.6199 -14.5966 -14.5962 -14.4368 -14.4318
   -14.2640 -14.2507 -14.1177 -14.0988 -14.0961 -14.0743 -14.0391 -14.0368
   -13.9427 -13.9171 -13.1535  -8.7365  -8.7346  -8.5228  -8.4684  -8.4668
    -8.3322  -8.1981  -8.0616  -8.0021  -7.9999  -7.8087  -7.6871  -4.0856
    -4.0701  -3.7764  -3.7277  -3.4328  -3.1453  -3.1434  -2.7200  -2.7185
    -2.5852  -2.5660  -2.2810  -2.2701  -2.2693  -2.2562  -1.9585  -1.9166
    -1.8787  -1.4349  -1.3375  -1.3249  -1.1634  -1.1539  -1.0996  -1.0156
    -1.0079  -0.9665  -0.9648  -0.9171  -0.8965  -0.8294  -0.7901  -0.5749
    -0.3134  -0.3118  -0.2088   0.2432   0.3448   0.4847   0.8269   0.9087
     1.1395   1.3535   1.3590   1.3669   1.3709   1.4063   1.4148   1.4690
     1.5829   1.6310   1.6419   1.6420   1.6592   1.6809   1.8705   1.8875
     1.9097   1.9169   2.0580   2.0619   2.0761   2.1096   2.1924   2.2029
     2.2240   2.3450   2.3554   2.3574   2.4267   2.4356   2.4384   2.5488
     2.5712   2.5990   3.6036   4.7055   4.7151   4.7698   4.7733   5.7090
     5.9878   5.9892   7.0758   7.1359   8.6716   8.9236   9.0481   9.0661
     9.0701   9.1170   9.5102   9.5750   9.6044   9.7462   9.8768   9.9866
    10.0374

     the Fermi energy is     2.5835 ev

!    total energy              =   -1842.86025206 Ry
     Harris-Foulkes estimate   =   -1842.86025207 Ry
     estimated scf accuracy    <          5.1E-09 Ry

     The total energy is the sum of the following terms:

     one-electron contribution =  -29883.79465683 Ry
     hartree contribution      =   15095.32749005 Ry
     xc contribution           =    -621.68296896 Ry
     ewald contribution        =   13567.29932296 Ry
     smearing contrib. (-TS)   =      -0.00943928 Ry

     convergence has been achieved in  33 iterations

     negative rho (up, down):  1.531E-03 0.000E+00

     Forces acting on atoms (cartesian axes, Ry/au):

     atom    1 type  4   force =     0.00000000    0.00000000   -0.00021992
     atom    2 type  3   force =     0.00000000    0.00000000    0.00036157
     atom    3 type  4   force =     0.00000000    0.00000000   -0.00080020
     atom    4 type  1   force =     0.00000000    0.00000000   -0.00037205
     atom    5 type  3   force =     0.00000000    0.00000000    0.00052518
     atom    6 type  4   force =     0.00000000    0.00000000    0.00046767
     atom    7 type  4   force =     0.00000000    0.00000000    0.00075662
     atom    8 type  2   force =     0.00000000    0.00000000   -0.00173562
     atom    9 type  4   force =     0.00000000    0.00000000    0.00178504
     atom   10 type  4   force =     0.00000000    0.00000000    0.00161137
     atom   11 type  3   force =     0.00000000    0.00000000    0.00115602
     atom   12 type  1   force =     0.00000000    0.00000000    0.00635899
     atom   13 type  4   force =     0.00000000    0.00000000   -0.00733301
     atom   14 type  4   force =     0.00000000    0.00000000    0.01862702
     atom   15 type  3   force =     0.00000000    0.00000000    0.03355340
     atom   16 type  4   force =     0.00000000    0.00000000   -0.02968125
     atom   17 type  1   force =     0.00000000    0.00000000   -0.01547807
     atom   18 type  3   force =     0.00000000    0.00000000   -0.01168736
     atom   19 type  4   force =     0.00000000    0.00000000    0.00130597
     atom   20 type  4   force =     0.00000000    0.00000000   -0.00013574
     atom   21 type  2   force =     0.00000000    0.00000000    0.00137231
     atom   22 type  4   force =     0.00000000    0.00000000   -0.00081511
     atom   23 type  4   force =     0.00000000    0.00000000   -0.00011900
     atom   24 type  3   force =     0.00000000    0.00000000   -0.00049360
     atom   25 type  1   force =     0.00000000    0.00000000    0.00034581
     atom   26 type  4   force =     0.00000000    0.00000000    0.00062783
     atom   27 type  3   force =     0.00000000    0.00000000   -0.00009674
     atom   28 type  4   force =     0.00000000    0.00000000    0.00011288

     Total force =     0.053304     Total SCF correction =     0.000298


     Computing stress (Cartesian axis) and pressure


     negative rho (up, down):  1.531E-03 0.000E+00
          total   stress  (Ry/bohr**3)                   (kbar)     P=       -5.59
   0.00000440   0.00000000   0.00000000            0.65        0.00        0.00
   0.00000000  -0.00004417   0.00000000            0.00       -6.50        0.00
   0.00000000   0.00000000  -0.00007413            0.00        0.00      -10.91

 
     init_run     :      8.08s CPU      8.77s WALL (       1 calls)
     electrons    :    534.86s CPU    560.29s WALL (       1 calls)
     forces       :      3.42s CPU      3.77s WALL (       1 calls)
     stress       :     18.35s CPU     19.23s WALL (       1 calls)

     Called by init_run:
     wfcinit      :      5.74s CPU      5.94s WALL (       1 calls)
     potinit      :      0.58s CPU      0.60s WALL (       1 calls)
     hinit0       :      0.94s CPU      1.08s WALL (       1 calls)

     Called by electrons:
     c_bands      :    431.38s CPU    435.39s WALL (      33 calls)
     sum_band     :     70.24s CPU     82.09s WALL (      33 calls)
     v_of_rho     :      2.22s CPU      2.25s WALL (      34 calls)
     newd         :     16.29s CPU     25.93s WALL (      34 calls)
     mix_rho      :     15.08s CPU     15.23s WALL (      33 calls)

     Called by c_bands:
     init_us_2    :      3.34s CPU      3.36s WALL (    1725 calls)
     cegterg      :    407.22s CPU    410.86s WALL (     825 calls)

     Called by sum_band:
     sum_band:bec :      0.22s CPU      0.22s WALL (     825 calls)
     addusdens    :     17.67s CPU     28.74s WALL (      33 calls)

     Called by *egterg:
     h_psi        :    196.27s CPU    199.15s WALL (    3815 calls)
     s_psi        :     20.44s CPU     20.51s WALL (    3815 calls)
     g_psi        :      0.61s CPU      0.62s WALL (    2965 calls)
     cdiaghg      :    116.26s CPU    116.79s WALL (    3790 calls)

     Called by h_psi:
     h_psi:calbec :     23.51s CPU     23.66s WALL (    3815 calls)
     vloc_psi     :    150.85s CPU    153.41s WALL (    3815 calls)
     add_vuspsi   :     21.00s CPU     21.17s WALL (    3815 calls)

     General routines
     calbec       :     37.85s CPU     38.06s WALL (    4765 calls)
     fft          :      1.65s CPU      1.75s WALL (     465 calls)
     ffts         :      8.15s CPU      8.24s WALL (   14709 calls)
     fftw         :    169.81s CPU    172.68s WALL (  590917 calls)
     interpolate  :      0.13s CPU      0.14s WALL (      34 calls)
 
     Parallel routines
     fft_scatt_xy :     21.69s CPU     22.07s WALL (  606091 calls)
     fft_scatt_yz :    102.71s CPU    104.45s WALL (  606091 calls)
 
     PWSCF        :   9m25.54s CPU   9m53.38s WALL

 
   This run was terminated on:  21:28: 7  21May2021            

=------------------------------------------------------------------------------=
   JOB DONE.
=------------------------------------------------------------------------------=
[1621646887.965230] [holy7c04405:168567:0]          mpool.c:43   UCX  WARN  object 0x450f980 was not returned to mpool ucp_requests
[1621646887.971714] [holy7c04201:95307:0]          mpool.c:43   UCX  WARN  object 0x3a628c0 was not returned to mpool ucp_requests
[1621646887.973127] [holy7c04205:149614:0]          mpool.c:43   UCX  WARN  object 0x2cd86c0 was not returned to mpool ucp_requests
[1621646887.973151] [holy7c04205:149614:0]          mpool.c:43   UCX  WARN  object 0x2cd8880 was not returned to mpool ucp_requests
[1621646887.971743] [holy7c04405:168568:0]          mpool.c:43   UCX  WARN  object 0x3115980 was not returned to mpool ucp_requests
[1621646887.971759] [holy7c04405:168568:0]          mpool.c:43   UCX  WARN  object 0x3115d00 was not returned to mpool ucp_requests
[1621646887.973175] [holy7c04405:168566:0]          mpool.c:43   UCX  WARN  object 0x36df140 was not returned to mpool ucp_requests
[1621646887.973189] [holy7c04405:168566:0]          mpool.c:43   UCX  WARN  object 0x36df840 was not returned to mpool ucp_requests
[1621646887.971613] [holy7c04104:156362:0]          mpool.c:43   UCX  WARN  object 0x2b72a00 was not returned to mpool ucp_requests
[1621646887.974492] [holy7c04201:95306:0]          mpool.c:43   UCX  WARN  object 0x2de06c0 was not returned to mpool ucp_requests
