
     Program PWSCF v.6.5 starts on 21May2021 at 22:37:58 

     This program is part of the open-source Quantum ESPRESSO suite
     for quantum simulation of materials; please cite
         "P. Giannozzi et al., J. Phys.:Condens. Matter 21 395502 (2009);
         "P. Giannozzi et al., J. Phys.:Condens. Matter 29 465901 (2017);
          URL http://www.quantum-espresso.org", 
     in publications or presentations arising from this work. More details at
     http://www.quantum-espresso.org/quote

     Parallel version (MPI), running on    20 processors

     MPI processes distributed on    13 nodes
     R & G space division:  proc/nbgrp/npool/nimage =      20
     Reading input from CBCO_CuO_cleave_0.75_sep.pwi
Warning: card &IONS ignored
Warning: card     ION_DYNAMICS = 'BFGS' ignored
Warning: card / ignored
Warning: card &CELL ignored
Warning: card     CELL_DYNAMICS = 'BFGS' ignored
Warning: card     PRESS_CONV_THR = 5 ignored
Warning: card / ignored

     Current dimensions of program PWSCF are:
     Max number of different atomic species (ntypx) = 10
     Max number of k-points (npk) =  40000
     Max angular momentum in pseudopotentials (lmaxx) =  3

     Subspace diagonalization in iterative solution of the eigenvalue problem:
     one sub-group per band group will be used
     scalapack distributed-memory algorithm (size of sub-group:  4*  4 procs)

     Message from routine setup:
     using ibrav=0 with symmetry is DISCOURAGED, use correct ibrav instead
 
     Parallelization info
     --------------------
     sticks:   dense  smooth     PW     G-vecs:    dense   smooth      PW
     Min         149      50     14                71365    13742    2148
     Max         150      51     15                71404    13765    2191
     Sum        2991    1007    289              1427725   274999   43215
 


     bravais-lattice index     =            0
     lattice parameter (alat)  =       7.4270  a.u.
     unit-cell volume          =    4376.3515 (a.u.)^3
     number of atoms/cell      =           28
     number of atomic types    =            4
     number of electrons       =       227.00
     number of Kohn-Sham states=          137
     kinetic-energy cutoff     =      60.0000  Ry
     charge density cutoff     =     720.0000  Ry
     convergence threshold     =      1.0E-08
     mixing beta               =       0.5000
     number of iterations used =           10  local-TF  mixing
     Exchange-correlation= SLA PW PBE PBE
                           (   1   4   3   4   0   0   0)

     celldm(1)=   7.427040  celldm(2)=   0.000000  celldm(3)=   0.000000
     celldm(4)=   0.000000  celldm(5)=   0.000000  celldm(6)=   0.000000

     crystal axes: (cart. coord. in units of alat)
               a(1) = (   1.000000   0.000000   0.000000 )  
               a(2) = (   0.000000   0.947081   0.000000 )  
               a(3) = (   0.000000   0.000000  11.279186 )  

     reciprocal axes: (cart. coord. in units 2 pi/alat)
               b(1) = (  1.000000  0.000000  0.000000 )  
               b(2) = (  0.000000  1.055876  0.000000 )  
               b(3) = (  0.000000  0.000000  0.088659 )  


     PseudoPot. # 1 for Ba read from file:
     ./pseudo/Ba.pbe-nsp-van.UPF
     MD5 check sum: 2b9c31dd849566dd297d80989662b7a0
     Pseudo is Ultrasoft + core correction, Zval = 10.0
     Generated by new atomic code, or converted to UPF format
     Using radial grid of  907 points,  6 beta functions with: 
                l(1) =   0
                l(2) =   0
                l(3) =   1
                l(4) =   1
                l(5) =   2
                l(6) =   2
     Q(r) pseudized with  6 coefficients,  rinner =    1.200   1.200   1.200
                                                       1.200   1.200

     PseudoPot. # 2 for Ca read from file:
     ./pseudo/Ca.pbe-nsp-van.UPF
     MD5 check sum: 6471098428ff4fa451746d08035ff179
     Pseudo is Ultrasoft + core correction, Zval = 10.0
     Generated by new atomic code, or converted to UPF format
     Using radial grid of  845 points,  6 beta functions with: 
                l(1) =   0
                l(2) =   0
                l(3) =   1
                l(4) =   1
                l(5) =   2
                l(6) =   2
     Q(r) pseudized with  6 coefficients,  rinner =    1.200   1.200   1.200
                                                       1.200   1.200

     PseudoPot. # 3 for Cu read from file:
     ./pseudo/Cu.pbe-n-van_ak.UPF
     MD5 check sum: 34e3282627ffb533726feb647e090d62
     Pseudo is Ultrasoft + core correction, Zval = 11.0
     Generated by new atomic code, or converted to UPF format
     Using radial grid of  867 points,  6 beta functions with: 
                l(1) =   0
                l(2) =   0
                l(3) =   1
                l(4) =   1
                l(5) =   2
                l(6) =   2
     Q(r) pseudized with  8 coefficients,  rinner =    1.400   1.400   1.400
                                                       1.400   1.400

     PseudoPot. # 4 for O  read from file:
     ./pseudo/O.pbe-van_ak.UPF
     MD5 check sum: 783ce7fe4c79b6a4916957118fed0856
     Pseudo is Ultrasoft, Zval =  6.0
     Generated by new atomic code, or converted to UPF format
     Using radial grid of  737 points,  4 beta functions with: 
                l(1) =   0
                l(2) =   0
                l(3) =   1
                l(4) =   1
     Q(r) pseudized with  8 coefficients,  rinner =    0.800   0.800   0.800


     atomic species   valence    mass     pseudopotential
        Ba            10.00   137.32700     Ba( 1.00)
        Ca            10.00    40.07800     Ca( 1.00)
        Cu            11.00    63.54600     Cu( 1.00)
        O              6.00    15.99900     O ( 1.00)

      4 Sym. Ops. (no inversion) found



   Cartesian axes

     site n.     atom                  positions (alat units)
         1           O   tau(   1) = (   0.0000000   0.4735409  -0.0469745  )
         2           Cu  tau(   2) = (   0.0000000   0.0000000   0.0264565  )
         3           O   tau(   3) = (   0.0000000   0.0000000   0.5030914  )
         4           Ba  tau(   4) = (   0.5000000   0.4735409   0.5690292  )
         5           Cu  tau(   5) = (   0.0000000   0.0000000   1.0374254  )
         6           O   tau(   6) = (   0.5000000   0.0000000   1.0768099  )
         7           O   tau(   7) = (   0.0000000   0.4735409   1.1116985  )
         8           Ca  tau(   8) = (   0.5000000   0.4735409   1.4976260  )
         9           O   tau(   9) = (   0.0000000   0.4735409   1.8667529  )
        10           O   tau(  10) = (   0.5000000   0.0000000   1.9044124  )
        11           Cu  tau(  11) = (   0.0000000   0.0000000   1.9512546  )
        12           Ba  tau(  12) = (   0.5000000   0.4735409   2.4295764  )
        13           O   tau(  13) = (   0.0000000   0.0000000   2.5115362  )
        14           O   tau(  14) = (   0.0000000   0.4735409   2.9918528  )
        15           Cu  tau(  15) = (   0.0000000   0.0000000   2.9919088  )
        16           O   tau(  16) = (   0.0000000   0.0000000   3.6630976  )
        17           Ba  tau(  17) = (   0.5000000   0.4735409   3.7450498  )
        18           Cu  tau(  18) = (   0.0000000   0.0000000   4.2233538  )
        19           O   tau(  19) = (   0.5000000   0.0000000   4.2701959  )
        20           O   tau(  20) = (   0.0000000   0.4735409   4.3078503  )
        21           Ca  tau(  21) = (   0.5000000   0.4735409   4.6769874  )
        22           O   tau(  22) = (   0.0000000   0.4735409   5.0629123  )
        23           O   tau(  23) = (   0.5000000   0.0000000   5.0978010  )
        24           Cu  tau(  24) = (   0.0000000   0.0000000   5.1371881  )
        25           Ba  tau(  25) = (   0.5000000   0.4735409   5.6055817  )
        26           O   tau(  26) = (   0.0000000   0.0000000   5.6715093  )
        27           Cu  tau(  27) = (   0.0000000   0.0000000   6.1481493  )
        28           O   tau(  28) = (   0.0000000   0.4735409   6.2215676  )

     number of k points=    25  Gaussian smearing, width (Ry)=  0.0100
                       cart. coord. in units 2pi/alat
        k(    1) = (   0.0000000   0.0000000   0.0000000), wk =   0.0312500
        k(    2) = (   0.0000000   0.1319845   0.0000000), wk =   0.0625000
        k(    3) = (   0.0000000   0.2639689   0.0000000), wk =   0.0625000
        k(    4) = (   0.0000000   0.3959534   0.0000000), wk =   0.0625000
        k(    5) = (   0.0000000  -0.5279378   0.0000000), wk =   0.0312500
        k(    6) = (   0.1250000   0.0000000   0.0000000), wk =   0.0625000
        k(    7) = (   0.1250000   0.1319845   0.0000000), wk =   0.1250000
        k(    8) = (   0.1250000   0.2639689   0.0000000), wk =   0.1250000
        k(    9) = (   0.1250000   0.3959534   0.0000000), wk =   0.1250000
        k(   10) = (   0.1250000  -0.5279378   0.0000000), wk =   0.0625000
        k(   11) = (   0.2500000   0.0000000   0.0000000), wk =   0.0625000
        k(   12) = (   0.2500000   0.1319845   0.0000000), wk =   0.1250000
        k(   13) = (   0.2500000   0.2639689   0.0000000), wk =   0.1250000
        k(   14) = (   0.2500000   0.3959534   0.0000000), wk =   0.1250000
        k(   15) = (   0.2500000  -0.5279378   0.0000000), wk =   0.0625000
        k(   16) = (   0.3750000   0.0000000   0.0000000), wk =   0.0625000
        k(   17) = (   0.3750000   0.1319845   0.0000000), wk =   0.1250000
        k(   18) = (   0.3750000   0.2639689   0.0000000), wk =   0.1250000
        k(   19) = (   0.3750000   0.3959534   0.0000000), wk =   0.1250000
        k(   20) = (   0.3750000  -0.5279378   0.0000000), wk =   0.0625000
        k(   21) = (  -0.5000000   0.0000000   0.0000000), wk =   0.0312500
        k(   22) = (  -0.5000000   0.1319845   0.0000000), wk =   0.0625000
        k(   23) = (  -0.5000000   0.2639689   0.0000000), wk =   0.0625000
        k(   24) = (  -0.5000000   0.3959534   0.0000000), wk =   0.0625000
        k(   25) = (  -0.5000000  -0.5279378   0.0000000), wk =   0.0312500

     Dense  grid:  1427725 G-vectors     FFT dimensions: (  64,  64, 720)

     Smooth grid:   274999 G-vectors     FFT dimensions: (  40,  36, 432)

     Estimated max dynamical RAM per process >     455.52 MB

     Estimated total dynamical RAM >       8.90 GB

     Initial potential from superposition of free atoms

     starting charge  226.84630, renormalised to  227.00000

     negative rho (up, down):  3.451E-03 0.000E+00
     Starting wfcs are  195 randomized atomic wfcs

     total cpu time spent up to now is       12.2 secs

     Self-consistent Calculation

     iteration #  1     ecut=    60.00 Ry     beta= 0.50
     Davidson diagonalization with overlap
     ethr =  1.00E-02,  avg # of iterations =  2.0

     negative rho (up, down):  4.761E-04 0.000E+00

     total cpu time spent up to now is       28.8 secs

     total energy              =   -1840.84610281 Ry
     Harris-Foulkes estimate   =   -1845.32113890 Ry
     estimated scf accuracy    <      18.86405335 Ry

     iteration #  2     ecut=    60.00 Ry     beta= 0.50
     Davidson diagonalization with overlap
     ethr =  8.31E-03,  avg # of iterations =  2.0

     negative rho (up, down):  2.488E-04 0.000E+00

     total cpu time spent up to now is       44.4 secs

     total energy              =   -1842.47327524 Ry
     Harris-Foulkes estimate   =   -1843.26723323 Ry
     estimated scf accuracy    <       3.68503668 Ry

     iteration #  3     ecut=    60.00 Ry     beta= 0.50
     Davidson diagonalization with overlap
     ethr =  1.62E-03,  avg # of iterations =  2.0

     negative rho (up, down):  2.365E-04 0.000E+00

     total cpu time spent up to now is       60.2 secs

     total energy              =   -1842.79970984 Ry
     Harris-Foulkes estimate   =   -1843.01248836 Ry
     estimated scf accuracy    <       4.51786875 Ry

     iteration #  4     ecut=    60.00 Ry     beta= 0.50
     Davidson diagonalization with overlap
     ethr =  1.62E-03,  avg # of iterations =  1.0

     negative rho (up, down):  2.329E-04 0.000E+00

     total cpu time spent up to now is       74.2 secs

     total energy              =   -1842.87465287 Ry
     Harris-Foulkes estimate   =   -1842.93032683 Ry
     estimated scf accuracy    <       1.70238052 Ry

     iteration #  5     ecut=    60.00 Ry     beta= 0.50
     Davidson diagonalization with overlap
     ethr =  7.50E-04,  avg # of iterations =  1.0

     negative rho (up, down):  2.281E-04 0.000E+00

     total cpu time spent up to now is       88.6 secs

     total energy              =   -1842.85158462 Ry
     Harris-Foulkes estimate   =   -1842.89837017 Ry
     estimated scf accuracy    <       0.35544488 Ry

     iteration #  6     ecut=    60.00 Ry     beta= 0.50
     Davidson diagonalization with overlap
     ethr =  1.57E-04,  avg # of iterations =  5.4

     negative rho (up, down):  2.261E-04 0.000E+00

     total cpu time spent up to now is      108.5 secs

     total energy              =   -1842.86133673 Ry
     Harris-Foulkes estimate   =   -1842.88039120 Ry
     estimated scf accuracy    <       2.30985058 Ry

     iteration #  7     ecut=    60.00 Ry     beta= 0.50
     Davidson diagonalization with overlap
     ethr =  1.57E-04,  avg # of iterations =  2.4

     negative rho (up, down):  2.250E-04 0.000E+00

     total cpu time spent up to now is      124.1 secs

     total energy              =   -1842.85090635 Ry
     Harris-Foulkes estimate   =   -1842.86710051 Ry
     estimated scf accuracy    <       1.11602916 Ry

     iteration #  8     ecut=    60.00 Ry     beta= 0.50
     Davidson diagonalization with overlap
     ethr =  1.57E-04,  avg # of iterations =  1.1

     negative rho (up, down):  2.250E-04 0.000E+00

     total cpu time spent up to now is      138.7 secs

     total energy              =   -1842.84977169 Ry
     Harris-Foulkes estimate   =   -1842.85689665 Ry
     estimated scf accuracy    <       0.52047698 Ry

     iteration #  9     ecut=    60.00 Ry     beta= 0.50
     Davidson diagonalization with overlap
     ethr =  1.57E-04,  avg # of iterations =  1.0

     negative rho (up, down):  2.246E-04 0.000E+00

     total cpu time spent up to now is      152.9 secs

     total energy              =   -1842.84812438 Ry
     Harris-Foulkes estimate   =   -1842.85234757 Ry
     estimated scf accuracy    <       0.28906259 Ry

     iteration # 10     ecut=    60.00 Ry     beta= 0.50
     Davidson diagonalization with overlap
     ethr =  1.27E-04,  avg # of iterations =  2.1

     negative rho (up, down):  2.244E-04 0.000E+00

     total cpu time spent up to now is      169.7 secs

     total energy              =   -1842.84716323 Ry
     Harris-Foulkes estimate   =   -1842.84918477 Ry
     estimated scf accuracy    <       0.20307690 Ry

     iteration # 11     ecut=    60.00 Ry     beta= 0.50
     Davidson diagonalization with overlap
     ethr =  8.95E-05,  avg # of iterations =  2.4

     negative rho (up, down):  2.261E-04 0.000E+00

     total cpu time spent up to now is      191.3 secs

     total energy              =   -1842.84254137 Ry
     Harris-Foulkes estimate   =   -1842.84759847 Ry
     estimated scf accuracy    <       0.14711531 Ry

     iteration # 12     ecut=    60.00 Ry     beta= 0.50
     Davidson diagonalization with overlap
     ethr =  6.48E-05,  avg # of iterations =  5.2

     negative rho (up, down):  2.361E-04 0.000E+00

     total cpu time spent up to now is      219.1 secs

     total energy              =   -1842.84238893 Ry
     Harris-Foulkes estimate   =   -1842.84358505 Ry
     estimated scf accuracy    <       0.03836514 Ry

     iteration # 13     ecut=    60.00 Ry     beta= 0.50
     Davidson diagonalization with overlap
     ethr =  1.69E-05,  avg # of iterations =  6.1

     negative rho (up, down):  4.618E-04 0.000E+00

     total cpu time spent up to now is      253.7 secs

     total energy              =   -1842.84164222 Ry
     Harris-Foulkes estimate   =   -1842.84268468 Ry
     estimated scf accuracy    <       0.03216508 Ry

     iteration # 14     ecut=    60.00 Ry     beta= 0.50
     Davidson diagonalization with overlap
     c_bands:  1 eigenvalues not converged
     ethr =  1.42E-05,  avg # of iterations =  2.8

     negative rho (up, down):  9.329E-03 0.000E+00

     total cpu time spent up to now is      279.1 secs

     total energy              =   -1842.84021991 Ry
     Harris-Foulkes estimate   =   -1842.84183544 Ry
     estimated scf accuracy    <       0.03150404 Ry

     iteration # 15     ecut=    60.00 Ry     beta= 0.50
     Davidson diagonalization with overlap
     ethr =  1.39E-05,  avg # of iterations =  6.0

     negative rho (up, down):  1.926E-02 0.000E+00

     total cpu time spent up to now is      310.6 secs

     total energy              =   -1842.83918371 Ry
     Harris-Foulkes estimate   =   -1842.84038839 Ry
     estimated scf accuracy    <       0.01337110 Ry

     iteration # 16     ecut=    60.00 Ry     beta= 0.50
     Davidson diagonalization with overlap
     ethr =  5.89E-06,  avg # of iterations =  7.9

     negative rho (up, down):  2.428E-02 0.000E+00

     total cpu time spent up to now is      345.6 secs

     total energy              =   -1842.83858992 Ry
     Harris-Foulkes estimate   =   -1842.83933501 Ry
     estimated scf accuracy    <       0.00687162 Ry

     iteration # 17     ecut=    60.00 Ry     beta= 0.50
     Davidson diagonalization with overlap
     ethr =  3.03E-06,  avg # of iterations =  9.2

     negative rho (up, down):  1.974E-02 0.000E+00

     total cpu time spent up to now is      379.4 secs

     total energy              =   -1842.83796383 Ry
     Harris-Foulkes estimate   =   -1842.83870008 Ry
     estimated scf accuracy    <       0.00412154 Ry

     iteration # 18     ecut=    60.00 Ry     beta= 0.50
     Davidson diagonalization with overlap
     ethr =  1.82E-06,  avg # of iterations =  6.0

     negative rho (up, down):  1.759E-02 0.000E+00

     total cpu time spent up to now is      399.9 secs

     total energy              =   -1842.83725739 Ry
     Harris-Foulkes estimate   =   -1842.83804023 Ry
     estimated scf accuracy    <       0.00227334 Ry

     iteration # 19     ecut=    60.00 Ry     beta= 0.50
     Davidson diagonalization with overlap
     ethr =  1.00E-06,  avg # of iterations =  8.9

     negative rho (up, down):  1.601E-02 0.000E+00

     total cpu time spent up to now is      424.5 secs

     total energy              =   -1842.83711760 Ry
     Harris-Foulkes estimate   =   -1842.83730925 Ry
     estimated scf accuracy    <       0.00107641 Ry

     iteration # 20     ecut=    60.00 Ry     beta= 0.50
     Davidson diagonalization with overlap
     ethr =  4.74E-07,  avg # of iterations =  7.7

     negative rho (up, down):  8.804E-03 0.000E+00

     total cpu time spent up to now is      447.4 secs

     total energy              =   -1842.83701208 Ry
     Harris-Foulkes estimate   =   -1842.83714891 Ry
     estimated scf accuracy    <       0.00051681 Ry

     iteration # 21     ecut=    60.00 Ry     beta= 0.50
     Davidson diagonalization with overlap
     c_bands:  1 eigenvalues not converged
     ethr =  2.28E-07,  avg # of iterations =  7.5

     negative rho (up, down):  2.998E-03 0.000E+00

     total cpu time spent up to now is      469.8 secs

     total energy              =   -1842.83695520 Ry
     Harris-Foulkes estimate   =   -1842.83701987 Ry
     estimated scf accuracy    <       0.00009260 Ry

     iteration # 22     ecut=    60.00 Ry     beta= 0.50
     Davidson diagonalization with overlap
     c_bands:  2 eigenvalues not converged
     ethr =  4.08E-08,  avg # of iterations =  9.1

     negative rho (up, down):  2.347E-03 0.000E+00

     total cpu time spent up to now is      494.4 secs

     total energy              =   -1842.83698205 Ry
     Harris-Foulkes estimate   =   -1842.83696051 Ry
     estimated scf accuracy    <       0.00006039 Ry

     iteration # 23     ecut=    60.00 Ry     beta= 0.50
     Davidson diagonalization with overlap
     c_bands:  1 eigenvalues not converged
     ethr =  2.66E-08,  avg # of iterations =  4.5

     negative rho (up, down):  1.809E-03 0.000E+00

     total cpu time spent up to now is      513.0 secs

     total energy              =   -1842.83698849 Ry
     Harris-Foulkes estimate   =   -1842.83698393 Ry
     estimated scf accuracy    <       0.00001486 Ry

     iteration # 24     ecut=    60.00 Ry     beta= 0.50
     Davidson diagonalization with overlap
     ethr =  6.55E-09,  avg # of iterations =  5.4

     negative rho (up, down):  1.435E-03 0.000E+00

     total cpu time spent up to now is      532.6 secs

     total energy              =   -1842.83698929 Ry
     Harris-Foulkes estimate   =   -1842.83698920 Ry
     estimated scf accuracy    <       0.00000403 Ry

     iteration # 25     ecut=    60.00 Ry     beta= 0.50
     Davidson diagonalization with overlap
     ethr =  1.78E-09,  avg # of iterations =  3.4

     negative rho (up, down):  1.475E-03 0.000E+00

     total cpu time spent up to now is      550.0 secs

     total energy              =   -1842.83698951 Ry
     Harris-Foulkes estimate   =   -1842.83698974 Ry
     estimated scf accuracy    <       0.00000187 Ry

     iteration # 26     ecut=    60.00 Ry     beta= 0.50
     Davidson diagonalization with overlap
     ethr =  8.26E-10,  avg # of iterations =  1.3

     negative rho (up, down):  1.471E-03 0.000E+00

     total cpu time spent up to now is      564.5 secs

     total energy              =   -1842.83698957 Ry
     Harris-Foulkes estimate   =   -1842.83698960 Ry
     estimated scf accuracy    <       0.00000047 Ry

     iteration # 27     ecut=    60.00 Ry     beta= 0.50
     Davidson diagonalization with overlap
     ethr =  2.08E-10,  avg # of iterations =  2.6

     negative rho (up, down):  1.493E-03 0.000E+00

     total cpu time spent up to now is      580.8 secs

     total energy              =   -1842.83698957 Ry
     Harris-Foulkes estimate   =   -1842.83698962 Ry
     estimated scf accuracy    <       0.00000041 Ry

     iteration # 28     ecut=    60.00 Ry     beta= 0.50
     Davidson diagonalization with overlap
     ethr =  1.79E-10,  avg # of iterations =  1.0

     negative rho (up, down):  1.551E-03 0.000E+00

     total cpu time spent up to now is      595.0 secs

     total energy              =   -1842.83698949 Ry
     Harris-Foulkes estimate   =   -1842.83698958 Ry
     estimated scf accuracy    <       0.00000020 Ry

     iteration # 29     ecut=    60.00 Ry     beta= 0.50
     Davidson diagonalization with overlap
     ethr =  8.64E-11,  avg # of iterations =  1.0

     negative rho (up, down):  1.565E-03 0.000E+00

     total cpu time spent up to now is      608.9 secs

     total energy              =   -1842.83698947 Ry
     Harris-Foulkes estimate   =   -1842.83698949 Ry
     estimated scf accuracy    <       0.00000005 Ry

     iteration # 30     ecut=    60.00 Ry     beta= 0.50
     Davidson diagonalization with overlap
     ethr =  2.08E-11,  avg # of iterations =  2.2

     negative rho (up, down):  1.569E-03 0.000E+00

     total cpu time spent up to now is      624.7 secs

     total energy              =   -1842.83698947 Ry
     Harris-Foulkes estimate   =   -1842.83698948 Ry
     estimated scf accuracy    <       0.00000003 Ry

     iteration # 31     ecut=    60.00 Ry     beta= 0.50
     Davidson diagonalization with overlap
     ethr =  1.26E-11,  avg # of iterations =  1.2

     negative rho (up, down):  1.570E-03 0.000E+00

     total cpu time spent up to now is      642.6 secs

     total energy              =   -1842.83698947 Ry
     Harris-Foulkes estimate   =   -1842.83698947 Ry
     estimated scf accuracy    <       0.00000003 Ry

     iteration # 32     ecut=    60.00 Ry     beta= 0.50
     Davidson diagonalization with overlap
     ethr =  1.26E-11,  avg # of iterations =  1.0

     negative rho (up, down):  1.570E-03 0.000E+00

     total cpu time spent up to now is      660.4 secs

     total energy              =   -1842.83698947 Ry
     Harris-Foulkes estimate   =   -1842.83698947 Ry
     estimated scf accuracy    <       0.00000002 Ry

     iteration # 33     ecut=    60.00 Ry     beta= 0.50
     Davidson diagonalization with overlap
     ethr =  7.62E-12,  avg # of iterations =  1.0

     negative rho (up, down):  1.569E-03 0.000E+00

     total cpu time spent up to now is      678.0 secs

     total energy              =   -1842.83698947 Ry
     Harris-Foulkes estimate   =   -1842.83698947 Ry
     estimated scf accuracy    <       0.00000002 Ry

     iteration # 34     ecut=    60.00 Ry     beta= 0.50
     Davidson diagonalization with overlap
     ethr =  7.62E-12,  avg # of iterations =  1.0

     negative rho (up, down):  1.562E-03 0.000E+00

     total cpu time spent up to now is      698.3 secs

     total energy              =   -1842.83698948 Ry
     Harris-Foulkes estimate   =   -1842.83698947 Ry
     estimated scf accuracy    <       0.00000002 Ry

     iteration # 35     ecut=    60.00 Ry     beta= 0.50
     Davidson diagonalization with overlap
     ethr =  7.62E-12,  avg # of iterations =  1.0

     negative rho (up, down):  1.557E-03 0.000E+00

     total cpu time spent up to now is      712.7 secs

     total energy              =   -1842.83698949 Ry
     Harris-Foulkes estimate   =   -1842.83698948 Ry
     estimated scf accuracy    <       0.00000001 Ry

     iteration # 36     ecut=    60.00 Ry     beta= 0.50
     Davidson diagonalization with overlap
     ethr =  4.83E-12,  avg # of iterations =  1.0

     negative rho (up, down):  1.552E-03 0.000E+00

     total cpu time spent up to now is      726.4 secs

     End of self-consistent calculation

          k = 0.0000 0.0000 0.0000 ( 34429 PWs)   bands (ev):

   -35.6472 -35.6267 -22.8199 -22.8174 -22.6210 -22.5107 -17.1494 -17.1314
   -16.6990 -16.6876 -16.6794 -16.6662 -15.3516 -15.3388 -14.7043 -14.6988
   -14.6704 -14.6256 -14.6111 -14.2083 -14.2060 -14.0241 -14.0143 -13.8913
   -13.8648 -13.8508 -12.9207  -7.9518  -7.9489  -7.9134  -7.9112  -7.7742
    -7.7254  -7.7206  -7.7182  -7.6784  -7.5076  -7.5034  -7.3151  -2.3556
    -2.3546  -1.9586  -1.8673  -1.8633  -1.8436  -1.8345  -1.7153  -1.7011
    -1.6005  -1.5792  -1.5442  -1.5328  -1.2466  -1.2436  -0.9034  -0.5154
    -0.4849  -0.4832  -0.4037  -0.4021  -0.3630  -0.3463  -0.3263  -0.3212
    -0.3093  -0.3022  -0.2912  -0.2895  -0.2743  -0.2729  -0.2130  -0.1717
    -0.0644  -0.0628   0.0648   0.0673   0.0706   0.0730   0.0753   0.0802
     0.0841   0.0934   0.1403   0.1429   0.2070   0.2336   0.2702   0.2950
     0.5825   0.7689   0.7699   0.8549   0.8570   0.9055   0.9445   1.1412
     1.1464   1.3073   1.3200   1.3378   1.3494   1.4517   1.4675   1.4811
     1.4980   1.4988   1.5128   1.7747   1.7909   1.8763   2.0061   2.0126
     2.1005   2.2033   2.2159   2.3077   2.3369   2.5064   2.5180   5.1793
     5.1924   5.4528   6.1466   6.2939   6.7257   6.7351   6.9835   7.0888
     7.9372   8.0510   8.2007   8.2560   8.5013   8.5847   8.6516   9.0011
     9.1640

          k = 0.0000 0.1320 0.0000 ( 34389 PWs)   bands (ev):

   -35.6454 -35.6249 -22.7932 -22.7907 -22.5954 -22.4868 -17.1133 -17.0953
   -16.7599 -16.7386 -16.6966 -16.6771 -15.2627 -15.2503 -14.7095 -14.7043
   -14.6258 -14.5991 -14.5817 -14.2182 -14.2155 -14.0271 -14.0175 -13.9486
   -13.9061 -13.8813 -12.9777  -7.9513  -7.9485  -7.8656  -7.8633  -7.7739
    -7.7617  -7.7601  -7.7232  -7.6328  -7.5569  -7.4624  -7.3508  -2.4157
    -2.4139  -2.2354  -2.2168  -2.1427  -2.1225  -1.9442  -1.6937  -1.6807
    -1.6712  -1.6681  -1.5835  -1.5625  -1.4964  -1.3768  -1.3680  -0.7798
    -0.6671  -0.6465  -0.5826  -0.5807  -0.4909  -0.4887  -0.4266  -0.4261
    -0.4181  -0.3256  -0.2466  -0.2342  -0.2159  -0.2087  -0.1822  -0.1741
    -0.1718  -0.0429  -0.0412  -0.0322  -0.0265   0.0701   0.0779   0.0958
     0.0978   0.1025   0.1150   0.1622   0.2395   0.2558   0.3131   0.3304
     0.7794   0.9090   0.9769   1.0385   1.0516   1.0539   1.0928   1.1078
     1.1174   1.1327   1.1542   1.3924   1.4109   1.4336   1.4413   1.5399
     1.5651   1.5691   1.6654   1.7460   1.7750   1.8426   1.9441   1.9720
     2.0163   2.0980   2.1216   2.5137   2.6307   2.7961   2.8001   5.5634
     5.5678   5.7666   6.4533   6.5399   7.0333   7.0399   7.2938   7.4045
     8.1117   8.2486   8.4118   8.4618   8.6942   8.7794   8.9008   9.1767
     9.2267

          k = 0.0000 0.2640 0.0000 ( 34275 PWs)   bands (ev):

   -35.6410 -35.6205 -22.7273 -22.7249 -22.5321 -22.4277 -17.0217 -17.0036
   -16.9138 -16.8927 -16.6910 -16.6714 -15.0598 -15.0494 -14.7623 -14.7539
   -14.5586 -14.5128 -14.5018 -14.2066 -14.2022 -14.0754 -14.0601 -14.0564
   -13.9929 -13.9333 -13.1077  -7.9508  -7.9480  -7.8533  -7.8508  -7.7713
    -7.7452  -7.7429  -7.7184  -7.6633  -7.5182  -7.4270  -7.3598  -2.8690
    -2.8622  -2.7136  -2.6825  -2.4914  -2.4551  -2.4532  -2.3072  -2.3052
    -1.9518  -1.6367  -1.6268  -1.5564  -1.5281  -1.5250  -1.5086  -1.2951
    -1.0522  -0.9628  -0.8349  -0.8328  -0.7017  -0.6893  -0.6400  -0.6113
    -0.6010  -0.5797  -0.5502  -0.5241  -0.5217  -0.5153  -0.4882  -0.3842
    -0.3209  -0.0146  -0.0128   0.0265   0.0554   0.0650   0.1023   0.1277
     0.1621   0.2005   0.3254   0.3448   0.5680   0.5752   0.6652   0.6777
     0.9198   0.9372   0.9590   1.0980   1.1067   1.1373   1.1391   1.1834
     1.1990   1.2559   1.2684   1.2941   1.3577   1.4466   1.5217   1.6340
     1.7247   1.7569   1.8189   1.8443   1.8841   1.9175   1.9200   1.9467
     1.9492   2.0471   2.1520   2.6291   2.9957   3.0214   3.2083   6.4600
     6.4621   6.5147   7.2395   7.2630   7.8578   7.8620   8.1334   8.2715
     8.6155   8.7315   8.7837   8.8516   8.9844   9.1233   9.2564   9.2734
     9.2787

          k = 0.0000 0.3960 0.0000 ( 34242 PWs)   bands (ev):

   -35.6366 -35.6161 -22.6592 -22.6567 -22.4667 -22.3670 -17.0503 -17.0290
   -16.9200 -16.9020 -16.6853 -16.6658 -14.9636 -14.9613 -14.7424 -14.7193
   -14.5688 -14.4495 -14.3723 -14.1619 -14.1505 -14.1436 -14.1388 -14.1169
   -14.0738 -13.9927 -13.2249  -7.9507  -7.9480  -7.9314  -7.9289  -7.7788
    -7.7472  -7.7117  -7.6168  -7.6145  -7.4917  -7.3966  -7.2519  -3.3292
    -3.3202  -3.2683  -3.1238  -3.1169  -3.0226  -3.0199  -2.3977  -2.3967
    -1.9799  -1.8695  -1.8464  -1.6685  -1.5686  -1.5617  -1.4318  -1.4153
    -1.2882  -1.1769  -1.1050  -1.1024  -0.9404  -0.9140  -0.9038  -0.8843
    -0.8422  -0.8033  -0.7817  -0.7671  -0.7519  -0.6829  -0.5589  -0.4030
    -0.3123  -0.0776   0.0024   0.0044   0.0686   0.0948   0.1034   0.1282
     0.1405   0.1511   0.4481   0.4731   0.7318   0.7455   0.8910   0.8942
     0.9191   0.9344   1.0087   1.0312   1.0635   1.1086   1.1090   1.1106
     1.1936   1.3062   1.4727   1.5604   1.5822   1.6351   1.6707   1.6844
     1.6864   1.7214   1.8651   1.9296   1.9364   1.9438   2.1478   2.2029
     2.3138   2.3411   2.3435   2.5421   2.8904   2.9187   3.4482   7.3227
     7.4069   7.4100   8.1859   8.2134   8.6352   8.6519   8.6899   8.9469
     9.0274   9.0450   9.0450   9.0714   9.3034   9.4109   9.4412   9.4761
     9.6624

          k = 0.0000-0.5279 0.0000 ( 34286 PWs)   bands (ev):

   -35.6347 -35.6143 -22.6302 -22.6277 -22.4390 -22.3413 -17.1024 -17.0811
   -16.8752 -16.8573 -16.6830 -16.6634 -15.0050 -15.0019 -14.6253 -14.6181
   -14.6120 -14.4321 -14.3117 -14.1978 -14.1817 -14.1481 -14.1132 -14.0999
   -14.0978 -14.0536 -13.2694  -7.9611  -7.9586  -7.9503  -7.9476  -7.8012
    -7.7589  -7.7087  -7.5609  -7.5586  -7.5159  -7.3438  -7.2055  -3.5466
    -3.4981  -3.4953  -3.2975  -3.2901  -3.2511  -3.2482  -2.4138  -2.4128
    -1.9940  -1.9901  -1.9743  -1.8023  -1.5345  -1.5286  -1.3852  -1.3508
    -1.3369  -1.2677  -1.2306  -1.2269  -1.0621  -1.0351  -1.0232  -0.9773
    -0.9506  -0.8729  -0.8636  -0.8614  -0.8274  -0.7697  -0.5578  -0.3684
    -0.2738  -0.1347   0.0080   0.0100   0.0334   0.0883   0.1235   0.1372
     0.1445   0.1690   0.3723   0.3890   0.7718   0.7781   0.8129   0.8255
     0.9706   0.9848   0.9961   1.0760   1.0920   1.0937   1.1616   1.2100
     1.2640   1.2769   1.4252   1.5663   1.6677   1.6884   1.6892   1.7776
     1.9659   1.9676   1.9684   1.9698   1.9774   2.0149   2.0222   2.2737
     2.4446   2.4905   2.5027   2.5051   2.7105   2.7438   3.4932   7.7672
     7.8186   7.8237   8.4902   8.7332   8.8864   8.9146   8.9433   8.9608
     8.9611   9.0320   9.2847   9.2980   9.3229   9.4067   9.8177   9.9518
    10.0679

          k = 0.1250 0.0000 0.0000 ( 34399 PWs)   bands (ev):

   -35.6461 -35.6256 -22.8018 -22.7994 -22.6036 -22.4952 -17.1161 -17.0980
   -16.7790 -16.7601 -16.6862 -16.6648 -15.2487 -15.2358 -14.7492 -14.7445
   -14.6920 -14.6317 -14.6161 -14.2173 -14.2150 -14.0346 -14.0258 -13.9104
   -13.8874 -13.8791 -12.9865  -7.9774  -7.9745  -7.8519  -7.8494  -7.8113
    -7.7322  -7.6882  -7.6857  -7.6120  -7.4767  -7.4556  -7.2878  -2.3987
    -2.3975  -2.0413  -1.9037  -1.9019  -1.8634  -1.8489  -1.8446  -1.8268
    -1.8110  -1.8028  -1.5105  -1.4965  -1.2445  -1.2415  -0.9286  -0.6780
    -0.6746  -0.5419  -0.5400  -0.5124  -0.4694  -0.4622  -0.4585  -0.3664
    -0.3648  -0.3513  -0.3420  -0.3107  -0.2970  -0.2504  -0.2218  -0.1985
    -0.0976  -0.0950   0.0574   0.0657   0.0680   0.0766   0.0813   0.1276
     0.1652   0.1674   0.1794   0.1873   0.2804   0.2991   0.3539   0.3925
     0.5737   0.7544   0.7647   0.7749   0.8675   0.9398   0.9899   1.1323
     1.1493   1.1790   1.1874   1.3223   1.3364   1.4460   1.4529   1.4667
     1.5099   1.5742   1.7775   1.8518   1.9131   1.9555   1.9644   2.0237
     2.0429   2.1365   2.2463   2.2525   2.3672   2.5426   2.5500   5.3667
     5.3719   5.6373   6.3756   6.4712   6.9426   6.9493   7.1952   7.3205
     8.0822   8.1807   8.3518   8.4295   8.7435   8.7610   8.9016   9.0942
     9.3818

          k = 0.1250 0.1320 0.0000 ( 34364 PWs)   bands (ev):

   -35.6443 -35.6238 -22.7760 -22.7735 -22.5787 -22.4718 -17.0811 -17.0629
   -16.7819 -16.7626 -16.7493 -16.7284 -15.1669 -15.1545 -14.7446 -14.7392
   -14.6471 -14.6002 -14.5847 -14.2185 -14.2159 -14.0363 -14.0295 -13.9626
   -13.9234 -13.9047 -13.0268  -7.9963  -7.9938  -7.9144  -7.9117  -7.8098
    -7.7338  -7.6966  -7.6501  -7.6477  -7.5445  -7.4394  -7.2458  -2.4529
    -2.4505  -2.2387  -2.2086  -2.1282  -2.1010  -1.9844  -1.8821  -1.8804
    -1.8345  -1.8078  -1.6652  -1.6622  -1.5068  -1.3692  -1.3620  -0.8792
    -0.8400  -0.7554  -0.7064  -0.6980  -0.6197  -0.6166  -0.5304  -0.5285
    -0.4731  -0.3893  -0.3033  -0.3016  -0.2558  -0.2361  -0.2141  -0.1678
    -0.1132  -0.0886  -0.0633  -0.0253  -0.0227   0.0895   0.1194   0.1299
     0.1450   0.1566   0.1901   0.2057   0.2554   0.2698   0.4643   0.4895
     0.8197   0.9863   1.0038   1.0166   1.0509   1.0854   1.1125   1.1785
     1.1967   1.2188   1.2361   1.2582   1.2698   1.2847   1.3093   1.5635
     1.5667   1.5926   1.6330   1.6352   1.7332   1.7696   1.9990   2.3021
     2.3163   2.3334   2.4279   2.5654   2.6420   2.8014   2.8054   5.7078
     5.7102   5.9025   6.6341   6.6897   7.2413   7.2459   7.4977   7.6294
     8.2545   8.3658   8.5398   8.6103   8.8454   8.9503   9.0880   9.2200
     9.2798

          k = 0.1250 0.2640 0.0000 ( 34297 PWs)   bands (ev):

   -35.6399 -35.6194 -22.7121 -22.7097 -22.5172 -22.4144 -16.9924 -16.9740
   -16.9106 -16.8896 -16.7617 -16.7426 -14.9869 -14.9777 -14.7526 -14.7417
   -14.5645 -14.5091 -14.5000 -14.2017 -14.1983 -14.0906 -14.0778 -14.0582
   -13.9910 -13.9410 -13.1202  -8.0651  -8.0627  -7.9515  -7.9488  -7.8542
    -7.7725  -7.7193  -7.6472  -7.6410  -7.6384  -7.4360  -7.2431  -2.8935
    -2.8857  -2.7179  -2.6868  -2.4837  -2.4557  -2.4539  -2.3067  -2.3045
    -1.9969  -1.8331  -1.8290  -1.7840  -1.7586  -1.5514  -1.5289  -1.3043
    -1.0693  -1.0231  -1.0129  -0.9802  -0.9302  -0.9169  -0.7245  -0.7199
    -0.6851  -0.6146  -0.6072  -0.5460  -0.5319  -0.5104  -0.4462  -0.3897
    -0.3485  -0.1830  -0.1388  -0.0493  -0.0001   0.1536   0.1690   0.1918
     0.3148   0.3903   0.4456   0.4576   0.7040   0.7188   0.7523   0.7610
     0.9822   0.9954   1.0258   1.0663   1.0804   1.1778   1.2530   1.2599
     1.2869   1.2947   1.3621   1.3705   1.4006   1.4608   1.5163   1.5335
     1.5980   1.6038   1.6102   1.8630   1.9123   1.9130   2.0018   2.3196
     2.4988   2.5158   2.6238   2.7710   2.9994   3.0332   3.2082   6.5209
     6.5231   6.5415   7.3209   7.3400   8.0240   8.0266   8.3086   8.4694
     8.7350   8.7922   8.8248   8.8958   9.0304   9.0941   9.1237   9.1775
     9.2650

          k = 0.1250 0.3960 0.0000 ( 34292 PWs)   bands (ev):

   -35.6355 -35.6150 -22.6462 -22.6437 -22.4539 -22.3553 -17.0452 -17.0239
   -16.8936 -16.8755 -16.7531 -16.7340 -14.9280 -14.9259 -14.6720 -14.6439
   -14.5391 -14.4337 -14.3633 -14.1873 -14.1829 -14.1452 -14.1337 -14.1095
   -14.0578 -13.9850 -13.2056  -8.0955  -8.0931  -7.9631  -7.9603  -7.9120
    -7.7700  -7.7203  -7.6860  -7.6837  -7.6633  -7.4744  -7.3065  -3.3704
    -3.3621  -3.2633  -3.1489  -3.1396  -3.0139  -3.0112  -2.4061  -2.4050
    -2.0133  -1.8236  -1.8197  -1.7328  -1.6942  -1.6895  -1.6575  -1.5290
    -1.3638  -1.3589  -1.2408  -1.2237  -1.2163  -1.1446  -0.9658  -0.9133
    -0.8983  -0.8919  -0.8528  -0.7858  -0.7835  -0.6217  -0.5498  -0.4174
    -0.3785  -0.2227  -0.1623  -0.0197   0.0372   0.1750   0.1774   0.2110
     0.3452   0.4175   0.6244   0.6508   0.8669   0.8745   0.9195   0.9394
     1.0004   1.0188   1.0258   1.1162   1.1320   1.2004   1.2023   1.2385
     1.3346   1.3649   1.5891   1.6063   1.6088   1.6795   1.6871   1.7192
     1.7792   1.8295   1.8383   2.0122   2.2815   2.3082   2.3106   2.3545
     2.4469   2.4636   2.5968   2.6931   2.9303   2.9788   3.4389   7.1638
     7.2712   7.2754   8.0507   8.0840   8.6170   8.6342   8.6499   8.8208
     8.8873   8.9580   9.3240   9.3386   9.4648   9.5332   9.5740   9.6628
     9.7701

          k = 0.1250-0.5279 0.0000 ( 34244 PWs)   bands (ev):

   -35.6337 -35.6132 -22.6182 -22.6158 -22.4271 -22.3303 -17.0967 -17.0754
   -16.8505 -16.8324 -16.7493 -16.7302 -14.9601 -14.9572 -14.5826 -14.5441
   -14.5380 -14.4056 -14.2956 -14.2284 -14.2164 -14.1241 -14.1144 -14.1005
   -14.0974 -14.0385 -13.2382  -8.0902  -8.0877  -7.9678  -7.9652  -7.9237
    -7.7699  -7.7219  -7.7199  -7.7165  -7.6441  -7.4984  -7.3563  -3.5637
    -3.5475  -3.5218  -3.3308  -3.3213  -3.2431  -3.2404  -2.4271  -2.4260
    -2.0174  -1.8568  -1.8500  -1.7656  -1.6438  -1.6310  -1.5536  -1.5497
    -1.5426  -1.4924  -1.4014  -1.3912  -1.2996  -1.2284  -1.0633  -1.0129
    -0.9760  -0.9740  -0.9450  -0.8786  -0.8765  -0.6893  -0.5521  -0.3946
    -0.3675  -0.2375  -0.1741  -0.0031   0.0558   0.1860   0.1882   0.2216
     0.3494   0.4135   0.5954   0.6112   0.8979   0.9012   0.9252   0.9308
     0.9716   0.9918   1.0067   1.1267   1.2302   1.2371   1.2768   1.2984
     1.3327   1.3914   1.4226   1.7295   1.7335   1.9579   1.9630   1.9694
     1.9788   1.9960   2.0051   2.0087   2.3117   2.3189   2.4190   2.4731
     2.4734   2.4759   2.4899   2.5228   2.8004   2.8568   3.4778   7.4147
     7.4922   7.4977   8.2267   8.2726   8.5872   8.7861   8.9880   9.0480
     9.2718   9.2754   9.4347   9.5530   9.6170   9.6927   9.9153  10.0327
    10.0733

          k = 0.2500 0.0000 0.0000 ( 34384 PWs)   bands (ev):

   -35.6435 -35.6230 -22.7575 -22.7551 -22.5608 -22.4572 -17.0313 -17.0128
   -16.9426 -16.9248 -16.6829 -16.6615 -15.0419 -15.0328 -14.8460 -14.8301
   -14.7615 -14.6422 -14.6410 -14.2316 -14.2290 -14.0798 -14.0697 -13.9520
   -13.9372 -13.9226 -13.1376  -7.9789  -7.9760  -7.8366  -7.7650  -7.7628
    -7.7187  -7.6075  -7.6050  -7.5338  -7.4001  -7.3588  -7.2206  -2.5952
    -2.5911  -2.4131  -2.3352  -2.2379  -2.2353  -1.9526  -1.7953  -1.7914
    -1.7150  -1.7084  -1.5272  -1.4974  -1.2412  -1.2382  -1.0024  -0.9959
    -0.9632  -0.7991  -0.7968  -0.7826  -0.7156  -0.7131  -0.6666  -0.5683
    -0.5576  -0.5560  -0.3682  -0.3653  -0.3367  -0.2840  -0.2758  -0.2561
    -0.2298  -0.2069   0.0530   0.0553   0.0614   0.1308   0.1610   0.1688
     0.2961   0.2974   0.3550   0.3625   0.3683   0.4324   0.4937   0.5082
     0.5186   0.6276   0.6332   0.7798   0.8863   0.8903   1.0212   1.2416
     1.2454   1.2726   1.2755   1.3219   1.3699   1.3818   1.3857   1.4660
     1.5149   1.5531   1.7044   1.8396   1.8589   1.9284   1.9940   1.9956
     2.0521   2.2575   2.2707   2.4199   2.5086   2.6490   2.6597   5.8273
     5.8294   6.0724   6.9718   7.0051   7.5222   7.5269   7.7802   7.9634
     8.4391   8.4506   8.6575   8.8348   8.9281   9.0785   9.2667   9.5315
     9.5382

          k = 0.2500 0.1320 0.0000 ( 34351 PWs)   bands (ev):

   -35.6417 -35.6212 -22.7337 -22.7312 -22.5377 -22.4354 -16.9995 -16.9809
   -16.9360 -16.9181 -16.7489 -16.7275 -14.9883 -14.9811 -14.8022 -14.7822
   -14.7095 -14.6056 -14.6035 -14.2174 -14.2148 -14.0756 -14.0687 -13.9894
   -13.9599 -13.9451 -13.1417  -8.0470  -8.0446  -7.9023  -7.8995  -7.8716
    -7.7283  -7.6975  -7.5738  -7.5714  -7.5623  -7.3723  -7.1753  -2.6470
    -2.6406  -2.4506  -2.3659  -2.2294  -2.2265  -2.1392  -2.1348  -2.0348
    -2.0206  -1.9227  -1.6556  -1.6525  -1.5344  -1.4261  -1.4213  -1.0718
    -1.0487  -1.0290  -0.9870  -0.9590  -0.9456  -0.8098  -0.6633  -0.6596
    -0.6359  -0.5897  -0.4242  -0.3865  -0.3681  -0.3140  -0.2680  -0.2385
    -0.2342  -0.0632  -0.0553  -0.0055   0.0041   0.0763   0.1324   0.1557
     0.1872   0.2868   0.3072   0.3190   0.5267   0.5790   0.7206   0.7437
     0.8378   0.8736   0.8838   0.9696   1.0124   1.0775   1.1320   1.1739
     1.1890   1.3337   1.3411   1.3706   1.3791   1.4018   1.4503   1.4567
     1.4897   1.5010   1.5361   1.7023   1.7045   1.7756   2.0359   2.4597
     2.6044   2.6426   2.6992   2.8034   2.8207   2.8565   2.8653   6.0887
     6.0906   6.2306   7.1274   7.1530   7.7819   7.7853   8.0542   8.2446
     8.5512   8.5676   8.7961   8.9481   8.9671   9.1479   9.1896   9.2261
     9.3848

          k = 0.2500 0.2640 0.0000 ( 34331 PWs)   bands (ev):

   -35.6373 -35.6168 -22.6750 -22.6725 -22.4810 -22.3817 -16.9380 -16.9186
   -16.9093 -16.8913 -16.8853 -16.8648 -14.8920 -14.8891 -14.6773 -14.6445
   -14.5846 -14.5159 -14.4948 -14.1950 -14.1907 -14.1281 -14.1160 -14.0394
   -13.9929 -13.9597 -13.1510  -8.2670  -8.2647  -8.0539  -7.9641  -7.9614
    -7.8548  -7.7801  -7.7106  -7.6936  -7.6912  -7.4976  -7.2933  -3.0344
    -3.0213  -2.7993  -2.7515  -2.4706  -2.4678  -2.4616  -2.3410  -2.3376
    -2.2755  -2.2296  -2.1982  -2.1931  -1.9193  -1.4956  -1.4862  -1.4524
    -1.4494  -1.3814  -1.3351  -1.2097  -1.0481  -1.0021  -0.7848  -0.7683
    -0.7646  -0.7077  -0.6540  -0.6251  -0.6215  -0.5164  -0.4934  -0.4666
    -0.4286  -0.3703  -0.2859  -0.0338   0.0558   0.2584   0.3319   0.3563
     0.5129   0.5776   0.7320   0.7758   0.7924   0.8008   0.9270   0.9373
     1.0329   1.1056   1.1421   1.2231   1.2299   1.2717   1.3304   1.3349
     1.4043   1.4090   1.4310   1.4518   1.4877   1.5493   1.5655   1.5849
     1.6375   1.6698   1.7492   1.8303   1.8320   1.8388   2.2115   2.4385
     2.9531   2.9642   3.1642   3.2294   3.2365   3.3595   3.3692   6.5508
     6.6308   6.6329   7.5165   7.5339   8.3161   8.3183   8.6501   8.6718
     8.7154   8.9466   9.0174   9.0231   9.2187   9.2945   9.3434   9.3750
     9.3908

          k = 0.2500 0.3960 0.0000 ( 34334 PWs)   bands (ev):

   -35.6330 -35.6125 -22.6146 -22.6121 -22.4227 -22.3267 -17.0331 -17.0119
   -16.9014 -16.8831 -16.8247 -16.8063 -14.8457 -14.8440 -14.5261 -14.4743
   -14.4684 -14.4089 -14.3433 -14.2559 -14.2494 -14.1274 -14.1178 -14.0869
   -14.0207 -13.9733 -13.1582  -8.3871  -8.3847  -8.1882  -8.0143  -8.0117
    -7.9640  -7.9077  -7.9052  -7.7984  -7.7438  -7.7040  -7.5297  -3.5329
    -3.5208  -3.3048  -3.2492  -3.1893  -2.9930  -2.9903  -2.4794  -2.4774
    -2.2702  -2.1984  -2.1559  -2.1402  -1.9050  -1.8346  -1.8231  -1.7074
    -1.6679  -1.4979  -1.4706  -1.3525  -1.2274  -1.2063  -1.0434  -0.9310
    -0.8755  -0.8363  -0.8340  -0.8256  -0.8207  -0.6342  -0.5971  -0.5330
    -0.4891  -0.4435  -0.3536   0.0790   0.1820   0.2998   0.3865   0.4088
     0.6691   0.8052   0.9424   0.9550   0.9589   0.9704   1.0913   1.2062
     1.2121   1.2518   1.2697   1.2865   1.2918   1.4219   1.4754   1.5009
     1.5452   1.6313   1.6554   1.6857   1.7329   1.7420   1.7588   1.8154
     1.8630   1.8670   1.9343   2.1578   2.2281   2.2305   2.2356   2.4109
     2.7870   2.7973   3.3644   3.4537   3.4609   3.6068   3.6151   6.6854
     6.8376   6.8425   7.6649   7.7083   8.6333   8.7578   8.7653   8.8479
     8.9996   9.0942   9.5984   9.6386   9.7318   9.7503   9.7732   9.8439
     9.9327

          k = 0.2500-0.5279 0.0000 ( 34344 PWs)   bands (ev):

   -35.6311 -35.6107 -22.5890 -22.5866 -22.3981 -22.3035 -17.0832 -17.0620
   -16.8958 -16.8776 -16.7854 -16.7669 -14.8424 -14.8403 -14.4721 -14.3992
   -14.3958 -14.3472 -14.3000 -14.2885 -14.2599 -14.1129 -14.0948 -14.0917
   -14.0625 -14.0074 -13.1601  -8.3873  -8.3848  -8.2084  -8.1020  -8.0997
    -7.9742  -7.9716  -7.9451  -7.8537  -7.7945  -7.7513  -7.6683  -3.7324
    -3.7199  -3.5379  -3.4466  -3.4254  -3.2206  -3.2179  -2.4863  -2.4845
    -2.2387  -2.1609  -2.1131  -2.0868  -1.9935  -1.9789  -1.8912  -1.8542
    -1.8017  -1.5213  -1.4950  -1.4048  -1.3010  -1.2857  -1.1349  -1.0209
    -0.9608  -0.9077  -0.9021  -0.8498  -0.8447  -0.6469  -0.6028  -0.5493
    -0.5081  -0.4660  -0.3656   0.1204   0.2158   0.3096   0.4055   0.4438
     0.6996   0.8418   0.9895   1.0017   1.0483   1.0535   1.1609   1.1636
     1.1668   1.2828   1.3094   1.3699   1.3853   1.4740   1.4788   1.4999
     1.5899   1.7571   1.7916   1.8571   1.8654   1.9462   1.9545   1.9959
     2.0086   2.0225   2.0335   2.0519   2.3837   2.4057   2.4079   2.4717
     2.5640   2.5778   3.3914   3.4754   3.4832   3.6427   3.6516   6.6693
     6.8025   6.8060   7.6249   7.6805   8.6183   8.7702   9.0956   9.2235
     9.4883   9.4914   9.5799   9.7650   9.8198   9.9186   9.9258  10.0259
    10.0698

          k = 0.3750 0.0000 0.0000 ( 34362 PWs)   bands (ev):

   -35.6408 -35.6204 -22.7121 -22.7096 -22.5169 -22.4184 -17.0829 -17.0656
   -16.9358 -16.9168 -16.6796 -16.6581 -15.0735 -15.0711 -14.8796 -14.6908
   -14.6805 -14.6452 -14.6312 -14.2450 -14.2408 -14.1801 -14.1698 -13.9818
   -13.9704 -13.9521 -13.2772  -7.9614  -7.9586  -7.8285  -7.7001  -7.6979
    -7.6927  -7.5231  -7.5207  -7.4929  -7.3202  -7.2772  -7.1509  -2.9256
    -2.9194  -2.7827  -2.7247  -2.3584  -2.3571  -1.9971  -1.7188  -1.7164
    -1.6266  -1.6002  -1.5661  -1.5617  -1.2428  -1.2399  -1.2271  -1.0943
    -1.0934  -1.0530  -1.0507  -0.9536  -0.9502  -0.9475  -0.9064  -0.7576
    -0.7561  -0.6168  -0.4993  -0.4607  -0.3767  -0.3557  -0.3024  -0.2943
    -0.2621  -0.2586   0.0401   0.0425   0.0474   0.0758   0.1411   0.1807
     0.3328   0.3755   0.3772   0.3881   0.3929   0.3967   0.4162   0.4636
     0.4802   0.6621   0.6977   0.7839   1.0603   1.1519   1.1552   1.1659
     1.1674   1.1780   1.3116   1.3237   1.3758   1.4556   1.4714   1.5747
     1.6149   1.7104   1.7304   1.7459   1.7805   1.8425   1.8877   2.0822
     2.0864   2.2941   2.3060   2.5264   2.5736   2.7647   2.7841   6.4770
     6.4790   6.5959   7.7031   7.7350   7.9713   7.9735   8.3965   8.4260
     8.4765   8.6228   8.7682   9.1212   9.2930   9.4314   9.4484   9.4518
     9.5213

          k = 0.3750 0.1320 0.0000 ( 34383 PWs)   bands (ev):

   -35.6391 -35.6186 -22.6904 -22.6879 -22.4958 -22.3982 -17.0743 -17.0570
   -16.9068 -16.8878 -16.7439 -16.7225 -15.0256 -15.0235 -14.8195 -14.6519
   -14.6367 -14.5833 -14.5714 -14.2162 -14.2127 -14.1591 -14.1499 -14.0189
   -13.9901 -13.9660 -13.2500  -8.0187  -8.0161  -7.8645  -7.8613  -7.8603
    -7.7109  -7.6586  -7.6128  -7.6103  -7.4882  -7.4199  -7.2201  -2.9894
    -2.9805  -2.8256  -2.7599  -2.3575  -2.3561  -2.1101  -2.0958  -2.0049
    -1.9304  -1.9010  -1.6440  -1.6409  -1.5460  -1.5022  -1.4920  -1.3436
    -1.3397  -1.2638  -1.2267  -1.1178  -0.9974  -0.8472  -0.8250  -0.8148
    -0.7656  -0.7314  -0.4705  -0.4502  -0.4399  -0.3711  -0.3208  -0.2938
    -0.2920  -0.0936  -0.0825   0.0106   0.0193   0.0576   0.1302   0.1526
     0.1661   0.3992   0.4146   0.4237   0.6152   0.6294   0.7216   0.7561
     0.7645   0.8957   0.9232   1.0038   1.1097   1.1487   1.1761   1.1862
     1.2234   1.3221   1.3310   1.3332   1.4255   1.4953   1.4990   1.6132
     1.6601   1.6636   1.7064   1.7535   1.7555   1.7672   1.8710   2.4543
     2.6503   2.7246   2.7440   2.8945   2.9025   3.0660   3.0782   6.6061
     6.6266   6.6289   7.7496   7.7697   8.0369   8.0390   8.3862   8.4613
     8.5744   8.8405   8.9666   9.1362   9.2841   9.3213   9.4629   9.5972
     9.6462

          k = 0.3750 0.2640 0.0000 ( 34389 PWs)   bands (ev):

   -35.6347 -35.6142 -22.6371 -22.6346 -22.4441 -22.3485 -17.0540 -17.0366
   -16.8883 -16.8669 -16.8316 -16.8127 -14.9032 -14.9016 -14.6613 -14.5580
   -14.5334 -14.4338 -14.4207 -14.1806 -14.1729 -14.1464 -14.1404 -14.0615
   -14.0281 -13.9677 -13.1817  -8.3198  -8.3174  -8.1090  -7.9986  -7.9961
    -7.9065  -7.8762  -7.8737  -7.7999  -7.7133  -7.6850  -7.4920  -3.3127
    -3.2950  -3.0625  -2.9973  -2.5341  -2.5307  -2.4393  -2.4300  -2.4240
    -2.4082  -2.4060  -2.2779  -2.2759  -1.9695  -1.8203  -1.8074  -1.6413
    -1.6120  -1.2926  -1.2751  -1.1403  -1.0339  -0.9926  -0.9159  -0.9121
    -0.8765  -0.8094  -0.7099  -0.6774  -0.6748  -0.5763  -0.5563  -0.4898
    -0.4150  -0.4009  -0.3045  -0.0176   0.0965   0.3296   0.4419   0.5000
     0.6495   0.6823   0.7946   0.8129   0.9736   0.9804   1.0487   1.0939
     1.1164   1.1814   1.1849   1.2438   1.3430   1.3726   1.3795   1.3901
     1.5667   1.5863   1.5969   1.6011   1.6779   1.6912   1.7018   1.7200
     1.7259   1.7528   1.7765   1.7868   1.7909   1.8507   2.1811   2.4152
     2.9501   2.9675   3.1664   3.6821   3.6854   3.7809   3.7863   6.4848
     6.6711   6.6737   7.5739   7.5876   8.3740   8.3787   8.6404   8.7567
     8.8098   9.1678   9.3789   9.3850   9.4889   9.5692   9.6850   9.7678
     9.8003

          k = 0.3750 0.3960 0.0000 ( 34365 PWs)   bands (ev):

   -35.6304 -35.6099 -22.5825 -22.5800 -22.3911 -22.2978 -17.0367 -17.0185
   -17.0148 -16.9942 -16.7523 -16.7333 -14.7674 -14.7662 -14.4934 -14.4682
   -14.4026 -14.2761 -14.2751 -14.2590 -14.2547 -14.1100 -14.1053 -14.0548
   -13.9983 -13.9836 -13.1091  -8.5856  -8.5831  -8.3848  -8.2505  -8.2483
    -8.1654  -8.0117  -8.0009  -7.9986  -7.8433  -7.8278  -7.7154  -3.7937
    -3.7762  -3.5067  -3.4537  -3.1821  -2.9722  -2.9695  -2.6618  -2.6590
    -2.5397  -2.5141  -2.3066  -2.3051  -2.1321  -2.1138  -1.9504  -1.8737
    -1.8440  -1.3348  -1.2727  -1.2615  -1.2355  -1.2327  -1.0522  -0.9970
    -0.9913  -0.9127  -0.8990  -0.8602  -0.8518  -0.7869  -0.7587  -0.5038
    -0.4239  -0.4179  -0.2853   0.1327   0.2525   0.3941   0.6146   0.6514
     0.9012   1.0656   1.1190   1.1400   1.1857   1.2301   1.2723   1.3196
     1.3316   1.4445   1.4552   1.4577   1.4908   1.5392   1.5532   1.6812
     1.7347   1.7445   1.7794   1.8482   1.9060   1.9326   1.9523   1.9638
     1.9958   2.0237   2.0503   2.1513   2.1535   2.1709   2.2881   2.4472
     2.7732   2.7915   3.3497   4.1953   4.1997   4.2687   4.2717   6.1795
     6.3680   6.3706   7.2935   7.3325   8.6439   8.8467   8.9488   8.9666
     9.3108   9.3631   9.4575   9.4754   9.5011   9.5844   9.6208   9.7387
     9.8712

          k = 0.3750-0.5279 0.0000 ( 34392 PWs)   bands (ev):

   -35.6286 -35.6081 -22.5594 -22.5569 -22.3687 -22.2764 -17.0699 -17.0487
   -17.0241 -17.0066 -16.7170 -16.6980 -14.7054 -14.7043 -14.4419 -14.4371
   -14.3533 -14.3040 -14.2249 -14.2138 -14.2024 -14.1067 -14.0868 -14.0836
   -13.9939 -13.9908 -13.0776  -8.6677  -8.6652  -8.4808  -8.3956  -8.3934
    -8.2377  -8.1434  -8.0273  -8.0247  -7.9984  -7.8408  -7.7356  -3.9998
    -3.9827  -3.7109  -3.6563  -3.4541  -3.1974  -3.1947  -2.6802  -2.6774
    -2.5487  -2.5183  -2.3008  -2.2993  -2.2384  -2.2191  -1.9592  -1.9306
    -1.9266  -1.4249  -1.3624  -1.3497  -1.2799  -1.2733  -1.1207  -1.0011
    -0.9951  -0.9930  -0.9849  -0.9518  -0.9460  -0.8121  -0.7711  -0.5034
    -0.4088  -0.4048  -0.2634   0.1783   0.2874   0.4067   0.6671   0.7427
     0.9737   1.2311   1.2359   1.2586   1.2645   1.2657   1.3079   1.3145
     1.3600   1.5019   1.5183   1.5600   1.5711   1.7441   1.7479   1.7745
     1.8409   1.8426   1.8931   1.9188   2.0087   2.0106   2.0942   2.0981
     2.1326   2.2197   2.2472   2.2871   2.3407   2.3439   2.3666   2.4943
     2.5280   2.5527   3.3595   4.3331   4.3394   4.4192   4.4221   6.0122
     6.1902   6.1923   7.1868   7.2470   8.5247   8.8264   9.0929   9.1178
     9.3084   9.3415   9.4332   9.6530   9.7005   9.7064   9.8102   9.8204
     9.8483

          k =-0.5000 0.0000 0.0000 ( 34370 PWs)   bands (ev):

   -35.6398 -35.6193 -22.6930 -22.6905 -22.4984 -22.4021 -17.1352 -17.1181
   -16.8939 -16.8746 -16.6782 -16.6567 -15.1310 -15.1276 -14.9218 -14.7168
   -14.6812 -14.4227 -14.4101 -14.3698 -14.3509 -14.2245 -14.2216 -13.9875
   -13.9831 -13.9596 -13.3317  -7.9511  -7.9483  -7.8186  -7.6798  -7.6769
    -7.6747  -7.4870  -7.4845  -7.4835  -7.2861  -7.2465  -7.1214  -3.0677
    -3.0616  -2.9281  -2.8739  -2.3831  -2.3820  -2.0060  -1.6951  -1.6740
    -1.6728  -1.6726  -1.4404  -1.4392  -1.3221  -1.2467  -1.2438  -1.2154
    -1.2090  -1.1313  -1.1310  -1.0592  -1.0489  -0.9705  -0.9628  -0.8410
    -0.8395  -0.6335  -0.5669  -0.5168  -0.3836  -0.3809  -0.3425  -0.3207
    -0.2510  -0.2467   0.0164   0.0348   0.0372   0.0420   0.0943   0.1656
     0.3058   0.3759   0.3782   0.3908   0.3996   0.4025   0.4035   0.4040
     0.5135   0.6470   0.7416   0.7952   1.0878   1.1075   1.1100   1.1217
     1.2900   1.3248   1.3320   1.3428   1.3514   1.5444   1.5529   1.5852
     1.6270   1.6284   1.6789   1.8127   1.8260   1.8813   1.9222   2.0972
     2.1005   2.2946   2.3053   2.5327   2.5682   2.7975   2.8177   6.9587
     7.2491   7.2513   7.3021   7.3040   8.0242   8.2034   8.2609   8.4860
     8.5074   8.9796   9.0714   9.3155   9.3928   9.4096   9.5960   9.6044
     9.7438

          k =-0.5000 0.1320 0.0000 ( 34378 PWs)   bands (ev):

   -35.6380 -35.6175 -22.6722 -22.6697 -22.4782 -22.3825 -17.1260 -17.1088
   -16.8665 -16.8471 -16.7417 -16.7204 -15.0738 -15.0709 -14.8565 -14.6767
   -14.6404 -14.3833 -14.3715 -14.3102 -14.2928 -14.2028 -14.2000 -14.0267
   -13.9972 -13.9724 -13.2926  -7.9900  -7.9873  -7.8396  -7.8063  -7.8041
    -7.6984  -7.6901  -7.6869  -7.6035  -7.4993  -7.3761  -7.3269  -3.1380
    -3.1292  -2.9790  -2.9168  -2.3884  -2.3871  -2.0947  -2.0659  -2.0011
    -1.8732  -1.8522  -1.6386  -1.6356  -1.5624  -1.5473  -1.5061  -1.4592
    -1.4551  -1.3660  -1.3210  -1.1560  -1.0040  -0.8971  -0.8955  -0.8623
    -0.7789  -0.7503  -0.4967  -0.4845  -0.4554  -0.3953  -0.3487  -0.3181
    -0.3130  -0.1155  -0.0981   0.0070   0.0286   0.0527   0.1278   0.1530
     0.1590   0.4807   0.4884   0.4912   0.5172   0.5441   0.6483   0.7206
     0.7865   0.9006   0.9735   1.0154   1.1251   1.1547   1.2219   1.2349
     1.2509   1.2652   1.3605   1.3693   1.4366   1.5798   1.5976   1.5998
     1.6582   1.6895   1.7118   1.8175   1.8370   1.8454   1.8804   2.4413
     2.6576   2.7286   2.7419   2.9097   2.9178   3.1185   3.1321   6.8275
     7.0969   7.0989   7.6027   7.6055   8.0250   8.1240   8.3409   8.4029
     8.4587   9.2229   9.2734   9.4240   9.4582   9.5057   9.6397   9.7270
     9.7474

          k =-0.5000 0.2640 0.0000 ( 34396 PWs)   bands (ev):

   -35.6337 -35.6132 -22.6212 -22.6187 -22.4286 -22.3346 -17.1040 -17.0868
   -16.8850 -16.8636 -16.7953 -16.7762 -14.9224 -14.9203 -14.6836 -14.5810
   -14.5374 -14.2855 -14.2759 -14.2018 -14.1946 -14.1529 -14.1500 -14.1051
   -14.0646 -13.9630 -13.1940  -8.2587  -8.2562  -8.1075  -8.1053  -8.0538
    -7.9399  -7.9372  -7.8830  -7.8524  -7.7849  -7.6839  -7.6590  -3.4512
    -3.4332  -3.2086  -3.1439  -2.5607  -2.5579  -2.4510  -2.4473  -2.4298
    -2.4150  -2.4129  -2.2857  -2.2836  -1.9860  -1.9474  -1.9303  -1.7294
    -1.6940  -1.2101  -1.1874  -1.1159  -0.9961  -0.9939  -0.9716  -0.9477
    -0.9432  -0.8752  -0.7354  -0.7013  -0.6990  -0.5761  -0.5521  -0.4877
    -0.4239  -0.4205  -0.3092  -0.0109   0.1119   0.3526   0.4780   0.5600
     0.6981   0.7210   0.8246   0.8317   1.0486   1.0571   1.1214   1.1215
     1.1350   1.1614   1.1887   1.2026   1.3891   1.3960   1.4254   1.4543
     1.5642   1.6635   1.6677   1.6843   1.7088   1.7152   1.7248   1.7657
     1.7748   1.8421   1.8455   1.8583   1.8677   1.9460   1.9782   2.3819
     2.9424   2.9614   3.1590   3.8221   3.8247   3.9135   3.9191   6.4390
     6.6672   6.6691   7.4996   7.5254   8.4092   8.4153   8.6460   8.7851
     9.0142   9.3823   9.4479   9.5542   9.5648   9.6403   9.6447   9.7857
     9.8789

          k =-0.5000 0.3960 0.0000 ( 34384 PWs)   bands (ev):

   -35.6293 -35.6088 -22.5690 -22.5665 -22.3778 -22.2857 -17.0825 -17.0652
   -17.0139 -16.9926 -16.7201 -16.7009 -14.7385 -14.7374 -14.5162 -14.4975
   -14.3803 -14.2647 -14.2495 -14.1867 -14.1800 -14.1048 -14.1017 -14.0370
   -14.0075 -14.0035 -13.0882  -8.6338  -8.6313  -8.4388  -8.3956  -8.3934
    -8.2110  -8.1499  -8.0178  -8.0149  -7.9869  -7.8433  -7.7247  -3.9252
    -3.9062  -3.6281  -3.5740  -3.1744  -2.9637  -2.9609  -2.7314  -2.7288
    -2.6129  -2.5977  -2.3227  -2.3214  -2.2352  -2.2126  -1.9556  -1.9353
    -1.8985  -1.3462  -1.2662  -1.2524  -1.1411  -1.1349  -1.1059  -1.0816
    -1.0342  -0.9195  -0.9149  -0.8719  -0.8567  -0.8561  -0.8313  -0.4957
    -0.3848  -0.3826  -0.2542   0.1494   0.2755   0.4287   0.7172   0.7580
     0.9987   1.1480   1.2312   1.2392   1.2420   1.3366   1.3434   1.3476
     1.4166   1.4669   1.5350   1.5374   1.5378   1.5448   1.5771   1.7413
     1.7765   1.7856   1.8520   1.8765   1.9575   1.9972   2.0130   2.0263
     2.1192   2.1220   2.1406   2.1671   2.1715   2.1853   2.3311   2.4030
     2.7608   2.7816   3.3374   4.4630   4.4675   4.5133   4.5158   5.9701
     6.1724   6.1741   7.1454   7.1813   8.6816   8.7288   8.8933   8.9185
     9.3777   9.3787   9.4992   9.5386   9.6179   9.6330   9.6654   9.8146
     9.8612

          k =-0.5000-0.5279 0.0000 ( 34420 PWs)   bands (ev):

   -35.6275 -35.6071 -22.5470 -22.5445 -22.3564 -22.2651 -17.0737 -17.0644
   -17.0564 -17.0432 -16.6867 -16.6675 -14.6389 -14.6385 -14.4846 -14.4794
   -14.3122 -14.2948 -14.1977 -14.1643 -14.1491 -14.1003 -14.0819 -14.0788
   -13.9944 -13.9627 -13.0419  -8.7799  -8.7773  -8.5907  -8.5117  -8.5095
    -8.3573  -8.2574  -8.1114  -8.0457  -8.0427  -7.8595  -7.7428  -4.1333
    -4.1146  -3.8277  -3.7744  -3.4489  -3.1879  -3.1852  -2.7637  -2.7611
    -2.6383  -2.6184  -2.3266  -2.3127  -2.3115  -2.3027  -2.0033  -1.9662
    -1.9283  -1.4475  -1.3810  -1.3629  -1.2083  -1.1986  -1.1138  -1.0628
    -1.0520  -1.0091  -1.0068  -0.9730  -0.9568  -0.8895  -0.8434  -0.4925
    -0.3558  -0.3538  -0.2265   0.1954   0.3116   0.4432   0.7942   0.8841
     1.0965   1.3103   1.3162   1.3194   1.3227   1.3578   1.3665   1.4397
     1.5832   1.5879   1.5917   1.6095   1.6320   1.6555   1.8245   1.8450
     1.8662   1.8744   1.9997   2.0110   2.0354   2.0528   2.1444   2.1563
     2.2415   2.3119   2.3149   2.3346   2.3801   2.3881   2.4570   2.5037
     2.5317   2.5587   3.3410   4.6561   4.6639   4.7220   4.7240   5.7504
     5.9450   5.9468   7.0229   7.0835   8.5383   8.7684   9.0030   9.0113
     9.0167   9.0684   9.4349   9.4966   9.5095   9.6656   9.8215   9.9311
     9.9906

     the Fermi energy is     2.5409 ev

!    total energy              =   -1842.83698949 Ry
     Harris-Foulkes estimate   =   -1842.83698949 Ry
     estimated scf accuracy    <          3.7E-09 Ry

     The total energy is the sum of the following terms:

     one-electron contribution =  -29363.81954260 Ry
     hartree contribution      =   14834.96328413 Ry
     xc contribution           =    -621.64924394 Ry
     ewald contribution        =   13307.67876796 Ry
     smearing contrib. (-TS)   =      -0.01025504 Ry

     convergence has been achieved in  36 iterations

     negative rho (up, down):  1.552E-03 0.000E+00

     Forces acting on atoms (cartesian axes, Ry/au):

     atom    1 type  4   force =     0.00000000    0.00000000   -0.00022872
     atom    2 type  3   force =     0.00000000    0.00000000    0.00050823
     atom    3 type  4   force =     0.00000000    0.00000000   -0.00077833
     atom    4 type  1   force =     0.00000000    0.00000000   -0.00042154
     atom    5 type  3   force =     0.00000000    0.00000000    0.00054119
     atom    6 type  4   force =     0.00000000    0.00000000    0.00063872
     atom    7 type  4   force =     0.00000000    0.00000000    0.00092422
     atom    8 type  2   force =     0.00000000    0.00000000   -0.00212306
     atom    9 type  4   force =     0.00000000    0.00000000    0.00248903
     atom   10 type  4   force =     0.00000000    0.00000000    0.00230599
     atom   11 type  3   force =     0.00000000    0.00000000    0.00158752
     atom   12 type  1   force =     0.00000000    0.00000000    0.00768247
     atom   13 type  4   force =     0.00000000    0.00000000   -0.01132094
     atom   14 type  4   force =     0.00000000    0.00000000    0.02550826
     atom   15 type  3   force =     0.00000000    0.00000000    0.01584761
     atom   16 type  4   force =     0.00000000    0.00000000   -0.01210819
     atom   17 type  1   force =     0.00000000    0.00000000   -0.01702459
     atom   18 type  3   force =     0.00000000    0.00000000   -0.01578339
     atom   19 type  4   force =     0.00000000    0.00000000    0.00126251
     atom   20 type  4   force =     0.00000000    0.00000000   -0.00025507
     atom   21 type  2   force =     0.00000000    0.00000000    0.00171427
     atom   22 type  4   force =     0.00000000    0.00000000   -0.00106049
     atom   23 type  4   force =     0.00000000    0.00000000   -0.00017099
     atom   24 type  3   force =     0.00000000    0.00000000   -0.00047920
     atom   25 type  1   force =     0.00000000    0.00000000    0.00038060
     atom   26 type  4   force =     0.00000000    0.00000000    0.00051078
     atom   27 type  3   force =     0.00000000    0.00000000   -0.00021101
     atom   28 type  4   force =     0.00000000    0.00000000    0.00006412

     Total force =     0.042452     Total SCF correction =     0.000314


     Computing stress (Cartesian axis) and pressure


     negative rho (up, down):  1.552E-03 0.000E+00
          total   stress  (Ry/bohr**3)                   (kbar)     P=       -6.27
   0.00000386   0.00000000   0.00000000            0.57        0.00        0.00
   0.00000000  -0.00005894   0.00000000            0.00       -8.67        0.00
   0.00000000   0.00000000  -0.00007285            0.00        0.00      -10.72

 
     init_run     :      9.56s CPU      9.91s WALL (       1 calls)
     electrons    :    692.96s CPU    714.27s WALL (       1 calls)
     forces       :      3.74s CPU      3.92s WALL (       1 calls)
     stress       :     18.06s CPU     18.49s WALL (       1 calls)

     Called by init_run:
     wfcinit      :      6.52s CPU      6.67s WALL (       1 calls)
     potinit      :      0.65s CPU      0.67s WALL (       1 calls)
     hinit0       :      1.09s CPU      1.10s WALL (       1 calls)

     Called by electrons:
     c_bands      :    534.83s CPU    545.86s WALL (      36 calls)
     sum_band     :    109.82s CPU    115.39s WALL (      36 calls)
     v_of_rho     :      3.21s CPU      3.25s WALL (      37 calls)
     newd         :     27.95s CPU     32.54s WALL (      37 calls)
     mix_rho      :     17.13s CPU     17.32s WALL (      36 calls)

     Called by c_bands:
     init_us_2    :      3.58s CPU      3.60s WALL (    1875 calls)
     cegterg      :    506.43s CPU    516.81s WALL (     900 calls)

     Called by sum_band:
     sum_band:bec :      0.24s CPU      0.24s WALL (     900 calls)
     addusdens    :     22.92s CPU     27.64s WALL (      36 calls)

     Called by *egterg:
     h_psi        :    253.02s CPU    260.25s WALL (    4083 calls)
     s_psi        :     20.96s CPU     21.21s WALL (    4083 calls)
     g_psi        :      0.64s CPU      0.64s WALL (    3158 calls)
     cdiaghg      :    138.13s CPU    138.77s WALL (    4058 calls)

     Called by h_psi:
     h_psi:calbec :     26.78s CPU     27.93s WALL (    4083 calls)
     vloc_psi     :    203.46s CPU    206.26s WALL (    4083 calls)
     add_vuspsi   :     21.85s CPU     23.65s WALL (    4083 calls)

     General routines
     calbec       :     41.94s CPU     43.15s WALL (    5108 calls)
     fft          :      2.83s CPU      2.85s WALL (     504 calls)
     ffts         :      9.33s CPU      9.43s WALL (   15508 calls)
     fftw         :    241.18s CPU    244.43s WALL (  642224 calls)
     interpolate  :      0.16s CPU      0.16s WALL (      37 calls)
 
     Parallel routines
     fft_scatt_xy :     23.31s CPU     23.61s WALL (  658236 calls)
     fft_scatt_yz :    171.10s CPU    173.21s WALL (  658236 calls)
 
     PWSCF        :  12m 6.47s CPU  12m28.90s WALL

 
   This run was terminated on:  22:50:27  21May2021            

=------------------------------------------------------------------------------=
   JOB DONE.
=------------------------------------------------------------------------------=
[1621651827.394063] [holy7c12311:164244:0]          mpool.c:43   UCX  WARN  object 0x29b1780 was not returned to mpool ucp_requests
[1621651827.394077] [holy7c12311:164244:0]          mpool.c:43   UCX  WARN  object 0x29b2040 was not returned to mpool ucp_requests
[1621651827.394196] [holy7c12404:81842:0]          mpool.c:43   UCX  WARN  object 0x2a7ec40 was not returned to mpool ucp_requests
[1621651827.394461] [holy7c12407:186702:0]          mpool.c:43   UCX  WARN  object 0x298a940 was not returned to mpool ucp_requests
[1621651827.394476] [holy7c12407:186702:0]          mpool.c:43   UCX  WARN  object 0x298b040 was not returned to mpool ucp_requests
[1621651827.394530] [holy7c10608:189335:0]          mpool.c:43   UCX  WARN  object 0x2d17c80 was not returned to mpool ucp_requests
[1621651827.405433] [holy7c12301:16523:0]          mpool.c:43   UCX  WARN  object 0x2952b00 was not returned to mpool ucp_requests
[1621651827.405465] [holy7c12301:16523:0]          mpool.c:43   UCX  WARN  object 0x2953040 was not returned to mpool ucp_requests
[1621651827.402221] [holy7c12310:273822:0]          mpool.c:43   UCX  WARN  object 0x44bf9c0 was not returned to mpool ucp_requests
[1621651827.415036] [holy7c12102:21099:0]          mpool.c:43   UCX  WARN  object 0x2f8a4c0 was not returned to mpool ucp_requests
