
     Program PWSCF v.6.5 starts on 21May2021 at 11:36:16 

     This program is part of the open-source Quantum ESPRESSO suite
     for quantum simulation of materials; please cite
         "P. Giannozzi et al., J. Phys.:Condens. Matter 21 395502 (2009);
         "P. Giannozzi et al., J. Phys.:Condens. Matter 29 465901 (2017);
          URL http://www.quantum-espresso.org", 
     in publications or presentations arising from this work. More details at
     http://www.quantum-espresso.org/quote

     Parallel version (MPI), running on    20 processors

     MPI processes distributed on     3 nodes
     R & G space division:  proc/nbgrp/npool/nimage =      20
     Reading input from CBCO_BaO_cleave_5.0_sep.pwi
Warning: card &IONS ignored
Warning: card     ION_DYNAMICS = 'BFGS' ignored
Warning: card / ignored
Warning: card &CELL ignored
Warning: card     CELL_DYNAMICS = 'BFGS' ignored
Warning: card     PRESS_CONV_THR = 5 ignored
Warning: card / ignored

     Current dimensions of program PWSCF are:
     Max number of different atomic species (ntypx) = 10
     Max number of k-points (npk) =  40000
     Max angular momentum in pseudopotentials (lmaxx) =  3

     Subspace diagonalization in iterative solution of the eigenvalue problem:
     one sub-group per band group will be used
     scalapack distributed-memory algorithm (size of sub-group:  4*  4 procs)

     Message from routine setup:
     using ibrav=0 with symmetry is DISCOURAGED, use correct ibrav instead
 
     Parallelization info
     --------------------
     sticks:   dense  smooth     PW     G-vecs:    dense   smooth      PW
     Min         149      50     14                78203    15060    2352
     Max         150      51     15                78244    15085    2401
     Sum        2991    1007    289              1564483   301375   47365
 


     bravais-lattice index     =            0
     lattice parameter (alat)  =       7.4270  a.u.
     unit-cell volume          =    4795.9235 (a.u.)^3
     number of atoms/cell      =           28
     number of atomic types    =            4
     number of electrons       =       227.00
     number of Kohn-Sham states=          137
     kinetic-energy cutoff     =      60.0000  Ry
     charge density cutoff     =     720.0000  Ry
     convergence threshold     =      1.0E-08
     mixing beta               =       0.5000
     number of iterations used =           10  local-TF  mixing
     Exchange-correlation= SLA PW PBE PBE
                           (   1   4   3   4   0   0   0)

     celldm(1)=   7.427040  celldm(2)=   0.000000  celldm(3)=   0.000000
     celldm(4)=   0.000000  celldm(5)=   0.000000  celldm(6)=   0.000000

     crystal axes: (cart. coord. in units of alat)
               a(1) = (   1.000000   0.000000   0.000000 )  
               a(2) = (   0.000000   0.947081   0.000000 )  
               a(3) = (   0.000000   0.000000  12.360550 )  

     reciprocal axes: (cart. coord. in units 2 pi/alat)
               b(1) = (  1.000000  0.000000  0.000000 )  
               b(2) = (  0.000000  1.055876  0.000000 )  
               b(3) = (  0.000000  0.000000  0.080903 )  


     PseudoPot. # 1 for Ba read from file:
     ./pseudo/Ba.pbe-nsp-van.UPF
     MD5 check sum: 2b9c31dd849566dd297d80989662b7a0
     Pseudo is Ultrasoft + core correction, Zval = 10.0
     Generated by new atomic code, or converted to UPF format
     Using radial grid of  907 points,  6 beta functions with: 
                l(1) =   0
                l(2) =   0
                l(3) =   1
                l(4) =   1
                l(5) =   2
                l(6) =   2
     Q(r) pseudized with  6 coefficients,  rinner =    1.200   1.200   1.200
                                                       1.200   1.200

     PseudoPot. # 2 for Ca read from file:
     ./pseudo/Ca.pbe-nsp-van.UPF
     MD5 check sum: 6471098428ff4fa451746d08035ff179
     Pseudo is Ultrasoft + core correction, Zval = 10.0
     Generated by new atomic code, or converted to UPF format
     Using radial grid of  845 points,  6 beta functions with: 
                l(1) =   0
                l(2) =   0
                l(3) =   1
                l(4) =   1
                l(5) =   2
                l(6) =   2
     Q(r) pseudized with  6 coefficients,  rinner =    1.200   1.200   1.200
                                                       1.200   1.200

     PseudoPot. # 3 for Cu read from file:
     ./pseudo/Cu.pbe-n-van_ak.UPF
     MD5 check sum: 34e3282627ffb533726feb647e090d62
     Pseudo is Ultrasoft + core correction, Zval = 11.0
     Generated by new atomic code, or converted to UPF format
     Using radial grid of  867 points,  6 beta functions with: 
                l(1) =   0
                l(2) =   0
                l(3) =   1
                l(4) =   1
                l(5) =   2
                l(6) =   2
     Q(r) pseudized with  8 coefficients,  rinner =    1.400   1.400   1.400
                                                       1.400   1.400

     PseudoPot. # 4 for O  read from file:
     ./pseudo/O.pbe-van_ak.UPF
     MD5 check sum: 783ce7fe4c79b6a4916957118fed0856
     Pseudo is Ultrasoft, Zval =  6.0
     Generated by new atomic code, or converted to UPF format
     Using radial grid of  737 points,  4 beta functions with: 
                l(1) =   0
                l(2) =   0
                l(3) =   1
                l(4) =   1
     Q(r) pseudized with  8 coefficients,  rinner =    0.800   0.800   0.800


     atomic species   valence    mass     pseudopotential
        Ba            10.00   137.32700     Ba( 1.00)
        Ca            10.00    40.07800     Ca( 1.00)
        Cu            11.00    63.54600     Cu( 1.00)
        O              6.00    15.99900     O ( 1.00)

      4 Sym. Ops. (no inversion) found



   Cartesian axes

     site n.     atom                  positions (alat units)
         1           O   tau(   1) = (   0.0000000   0.4735409  -0.0469745  )
         2           Cu  tau(   2) = (   0.0000000   0.0000000   0.0264565  )
         3           O   tau(   3) = (   0.0000000   0.0000000   0.5030914  )
         4           Ba  tau(   4) = (   0.5000000   0.4735409   0.5690292  )
         5           Cu  tau(   5) = (   0.0000000   0.0000000   1.0374254  )
         6           O   tau(   6) = (   0.5000000   0.0000000   1.0768099  )
         7           O   tau(   7) = (   0.0000000   0.4735409   1.1116985  )
         8           Ca  tau(   8) = (   0.5000000   0.4735409   1.4976260  )
         9           O   tau(   9) = (   0.0000000   0.4735409   1.8667529  )
        10           O   tau(  10) = (   0.5000000   0.0000000   1.9044124  )
        11           Cu  tau(  11) = (   0.0000000   0.0000000   1.9512546  )
        12           Ba  tau(  12) = (   0.5000000   0.4735409   2.4295764  )
        13           O   tau(  13) = (   0.0000000   0.0000000   2.5115362  )
        14           O   tau(  14) = (   0.0000000   0.4735409   2.9918528  )
        15           Cu  tau(  15) = (   0.0000000   0.0000000   2.9919088  )
        16           O   tau(  16) = (   0.0000000   0.0000000   3.4722686  )
        17           Ba  tau(  17) = (   0.5000000   0.4735409   3.5542208  )
        18           Cu  tau(  18) = (   0.0000000   0.0000000   5.3047181  )
        19           O   tau(  19) = (   0.5000000   0.0000000   5.3515603  )
        20           O   tau(  20) = (   0.0000000   0.4735409   5.3892147  )
        21           Ca  tau(  21) = (   0.5000000   0.4735409   5.7583518  )
        22           O   tau(  22) = (   0.0000000   0.4735409   6.1442767  )
        23           O   tau(  23) = (   0.5000000   0.0000000   6.1791653  )
        24           Cu  tau(  24) = (   0.0000000   0.0000000   6.2185525  )
        25           Ba  tau(  25) = (   0.5000000   0.4735409   6.6869461  )
        26           O   tau(  26) = (   0.0000000   0.0000000   6.7528737  )
        27           Cu  tau(  27) = (   0.0000000   0.0000000   7.2295136  )
        28           O   tau(  28) = (   0.0000000   0.4735409   7.3029319  )

     number of k points=    25  Gaussian smearing, width (Ry)=  0.0100
                       cart. coord. in units 2pi/alat
        k(    1) = (   0.0000000   0.0000000   0.0000000), wk =   0.0312500
        k(    2) = (   0.0000000   0.1319845   0.0000000), wk =   0.0625000
        k(    3) = (   0.0000000   0.2639689   0.0000000), wk =   0.0625000
        k(    4) = (   0.0000000   0.3959534   0.0000000), wk =   0.0625000
        k(    5) = (   0.0000000  -0.5279378   0.0000000), wk =   0.0312500
        k(    6) = (   0.1250000   0.0000000   0.0000000), wk =   0.0625000
        k(    7) = (   0.1250000   0.1319845   0.0000000), wk =   0.1250000
        k(    8) = (   0.1250000   0.2639689   0.0000000), wk =   0.1250000
        k(    9) = (   0.1250000   0.3959534   0.0000000), wk =   0.1250000
        k(   10) = (   0.1250000  -0.5279378   0.0000000), wk =   0.0625000
        k(   11) = (   0.2500000   0.0000000   0.0000000), wk =   0.0625000
        k(   12) = (   0.2500000   0.1319845   0.0000000), wk =   0.1250000
        k(   13) = (   0.2500000   0.2639689   0.0000000), wk =   0.1250000
        k(   14) = (   0.2500000   0.3959534   0.0000000), wk =   0.1250000
        k(   15) = (   0.2500000  -0.5279378   0.0000000), wk =   0.0625000
        k(   16) = (   0.3750000   0.0000000   0.0000000), wk =   0.0625000
        k(   17) = (   0.3750000   0.1319845   0.0000000), wk =   0.1250000
        k(   18) = (   0.3750000   0.2639689   0.0000000), wk =   0.1250000
        k(   19) = (   0.3750000   0.3959534   0.0000000), wk =   0.1250000
        k(   20) = (   0.3750000  -0.5279378   0.0000000), wk =   0.0625000
        k(   21) = (  -0.5000000   0.0000000   0.0000000), wk =   0.0312500
        k(   22) = (  -0.5000000   0.1319845   0.0000000), wk =   0.0625000
        k(   23) = (  -0.5000000   0.2639689   0.0000000), wk =   0.0625000
        k(   24) = (  -0.5000000   0.3959534   0.0000000), wk =   0.0625000
        k(   25) = (  -0.5000000  -0.5279378   0.0000000), wk =   0.0312500

     Dense  grid:  1564483 G-vectors     FFT dimensions: (  64,  64, 800)

     Smooth grid:   301375 G-vectors     FFT dimensions: (  40,  36, 480)

     Estimated max dynamical RAM per process >     498.50 MB

     Estimated total dynamical RAM >       9.74 GB

     Initial potential from superposition of free atoms

     starting charge  226.84630, renormalised to  227.00000

     negative rho (up, down):  3.436E-03 0.000E+00
     Starting wfcs are  195 randomized atomic wfcs

     total cpu time spent up to now is       12.2 secs

     Self-consistent Calculation

     iteration #  1     ecut=    60.00 Ry     beta= 0.50
     Davidson diagonalization with overlap
     ethr =  1.00E-02,  avg # of iterations =  2.0

     negative rho (up, down):  4.898E-04 0.000E+00

     total cpu time spent up to now is       31.5 secs

     total energy              =   -1840.69403751 Ry
     Harris-Foulkes estimate   =   -1845.42774568 Ry
     estimated scf accuracy    <      22.29680356 Ry

     iteration #  2     ecut=    60.00 Ry     beta= 0.50
     Davidson diagonalization with overlap
     ethr =  9.82E-03,  avg # of iterations =  2.0

     negative rho (up, down):  2.702E-04 0.000E+00

     total cpu time spent up to now is       49.7 secs

     total energy              =   -1842.53402140 Ry
     Harris-Foulkes estimate   =   -1843.43264062 Ry
     estimated scf accuracy    <       5.88357215 Ry

     iteration #  3     ecut=    60.00 Ry     beta= 0.50
     Davidson diagonalization with overlap
     ethr =  2.59E-03,  avg # of iterations =  1.6

     negative rho (up, down):  2.520E-04 0.000E+00

     total cpu time spent up to now is       69.2 secs

     total energy              =   -1842.87501451 Ry
     Harris-Foulkes estimate   =   -1843.03170964 Ry
     estimated scf accuracy    <       4.88493767 Ry

     iteration #  4     ecut=    60.00 Ry     beta= 0.50
     Davidson diagonalization with overlap
     ethr =  2.15E-03,  avg # of iterations =  1.0

     negative rho (up, down):  2.454E-04 0.000E+00

     total cpu time spent up to now is       86.6 secs

     total energy              =   -1842.89531163 Ry
     Harris-Foulkes estimate   =   -1842.95770913 Ry
     estimated scf accuracy    <       2.47580666 Ry

     iteration #  5     ecut=    60.00 Ry     beta= 0.50
     Davidson diagonalization with overlap
     ethr =  1.09E-03,  avg # of iterations =  1.0

     negative rho (up, down):  2.382E-04 0.000E+00

     total cpu time spent up to now is      104.1 secs

     total energy              =   -1842.84886008 Ry
     Harris-Foulkes estimate   =   -1842.94658304 Ry
     estimated scf accuracy    <       3.60453984 Ry

     iteration #  6     ecut=    60.00 Ry     beta= 0.50
     Davidson diagonalization with overlap
     ethr =  1.09E-03,  avg # of iterations =  1.0

     negative rho (up, down):  2.332E-04 0.000E+00

     total cpu time spent up to now is      121.2 secs

     total energy              =   -1842.82653680 Ry
     Harris-Foulkes estimate   =   -1842.88061163 Ry
     estimated scf accuracy    <       1.27613964 Ry

     iteration #  7     ecut=    60.00 Ry     beta= 0.50
     Davidson diagonalization with overlap
     ethr =  5.62E-04,  avg # of iterations =  3.8

     negative rho (up, down):  2.310E-04 0.000E+00

     total cpu time spent up to now is      142.9 secs

     total energy              =   -1842.81770151 Ry
     Harris-Foulkes estimate   =   -1842.84284480 Ry
     estimated scf accuracy    <       0.55012808 Ry

     iteration #  8     ecut=    60.00 Ry     beta= 0.50
     Davidson diagonalization with overlap
     ethr =  2.42E-04,  avg # of iterations =  6.2

     negative rho (up, down):  2.309E-04 0.000E+00

     total cpu time spent up to now is      167.3 secs

     total energy              =   -1842.81046285 Ry
     Harris-Foulkes estimate   =   -1842.82677006 Ry
     estimated scf accuracy    <       0.41118783 Ry

     iteration #  9     ecut=    60.00 Ry     beta= 0.50
     Davidson diagonalization with overlap
     ethr =  1.81E-04,  avg # of iterations =  2.3

     negative rho (up, down):  2.344E-04 0.000E+00

     total cpu time spent up to now is      185.8 secs

     total energy              =   -1842.79958638 Ry
     Harris-Foulkes estimate   =   -1842.81564933 Ry
     estimated scf accuracy    <       0.39597020 Ry

     iteration # 10     ecut=    60.00 Ry     beta= 0.50
     Davidson diagonalization with overlap
     ethr =  1.74E-04,  avg # of iterations =  3.7

     negative rho (up, down):  2.387E-04 0.000E+00

     total cpu time spent up to now is      207.5 secs

     total energy              =   -1842.79411882 Ry
     Harris-Foulkes estimate   =   -1842.80365142 Ry
     estimated scf accuracy    <       0.23233660 Ry

     iteration # 11     ecut=    60.00 Ry     beta= 0.50
     Davidson diagonalization with overlap
     ethr =  1.02E-04,  avg # of iterations =  6.5

     negative rho (up, down):  1.428E-03 0.000E+00

     total cpu time spent up to now is      230.9 secs

     total energy              =   -1842.79291444 Ry
     Harris-Foulkes estimate   =   -1842.79691342 Ry
     estimated scf accuracy    <       0.09602583 Ry

     iteration # 12     ecut=    60.00 Ry     beta= 0.50
     Davidson diagonalization with overlap
     c_bands:  1 eigenvalues not converged
     ethr =  4.23E-05,  avg # of iterations =  7.6

     negative rho (up, down):  1.742E-03 0.000E+00

     total cpu time spent up to now is      257.3 secs

     total energy              =   -1842.79292450 Ry
     Harris-Foulkes estimate   =   -1842.79466911 Ry
     estimated scf accuracy    <       0.02533456 Ry

     iteration # 13     ecut=    60.00 Ry     beta= 0.50
     Davidson diagonalization with overlap
     ethr =  1.12E-05,  avg # of iterations =  7.2

     negative rho (up, down):  5.287E-03 0.000E+00

     total cpu time spent up to now is      283.5 secs

     total energy              =   -1842.79280463 Ry
     Harris-Foulkes estimate   =   -1842.79352608 Ry
     estimated scf accuracy    <       0.01390792 Ry

     iteration # 14     ecut=    60.00 Ry     beta= 0.50
     Davidson diagonalization with overlap
     ethr =  6.13E-06,  avg # of iterations =  6.0

     negative rho (up, down):  7.761E-03 0.000E+00

     total cpu time spent up to now is      307.8 secs

     total energy              =   -1842.79257332 Ry
     Harris-Foulkes estimate   =   -1842.79308181 Ry
     estimated scf accuracy    <       0.00997105 Ry

     iteration # 15     ecut=    60.00 Ry     beta= 0.50
     Davidson diagonalization with overlap
     ethr =  4.39E-06,  avg # of iterations =  4.9

     negative rho (up, down):  9.952E-04 0.000E+00

     total cpu time spent up to now is      329.2 secs

     total energy              =   -1842.79224498 Ry
     Harris-Foulkes estimate   =   -1842.79274607 Ry
     estimated scf accuracy    <       0.01305064 Ry

     iteration # 16     ecut=    60.00 Ry     beta= 0.50
     Davidson diagonalization with overlap
     ethr =  4.39E-06,  avg # of iterations =  5.8

     negative rho (up, down):  2.353E-04 0.000E+00

     total cpu time spent up to now is      352.4 secs

     total energy              =   -1842.79179399 Ry
     Harris-Foulkes estimate   =   -1842.79238809 Ry
     estimated scf accuracy    <       0.00908111 Ry

     iteration # 17     ecut=    60.00 Ry     beta= 0.50
     Davidson diagonalization with overlap
     ethr =  4.00E-06,  avg # of iterations =  5.7

     negative rho (up, down):  2.347E-04 0.000E+00

     total cpu time spent up to now is      375.5 secs

     total energy              =   -1842.79117788 Ry
     Harris-Foulkes estimate   =   -1842.79186561 Ry
     estimated scf accuracy    <       0.00806876 Ry

     iteration # 18     ecut=    60.00 Ry     beta= 0.50
     Davidson diagonalization with overlap
     ethr =  3.55E-06,  avg # of iterations =  7.3

     negative rho (up, down):  2.349E-04 0.000E+00

     total cpu time spent up to now is      401.9 secs

     total energy              =   -1842.79075289 Ry
     Harris-Foulkes estimate   =   -1842.79122167 Ry
     estimated scf accuracy    <       0.00718930 Ry

     iteration # 19     ecut=    60.00 Ry     beta= 0.50
     Davidson diagonalization with overlap
     ethr =  3.17E-06,  avg # of iterations =  4.2

     negative rho (up, down):  2.393E-04 0.000E+00

     total cpu time spent up to now is      423.0 secs

     total energy              =   -1842.79001934 Ry
     Harris-Foulkes estimate   =   -1842.79078734 Ry
     estimated scf accuracy    <       0.00437850 Ry

     iteration # 20     ecut=    60.00 Ry     beta= 0.50
     Davidson diagonalization with overlap
     c_bands:  1 eigenvalues not converged
     ethr =  1.93E-06,  avg # of iterations =  8.8

     negative rho (up, down):  2.409E-04 0.000E+00

     total cpu time spent up to now is      450.8 secs

     total energy              =   -1842.78987248 Ry
     Harris-Foulkes estimate   =   -1842.79009828 Ry
     estimated scf accuracy    <       0.00212529 Ry

     iteration # 21     ecut=    60.00 Ry     beta= 0.50
     Davidson diagonalization with overlap
     ethr =  9.36E-07,  avg # of iterations =  3.1

     negative rho (up, down):  2.397E-04 0.000E+00

     total cpu time spent up to now is      472.0 secs

     total energy              =   -1842.78981699 Ry
     Harris-Foulkes estimate   =   -1842.78992724 Ry
     estimated scf accuracy    <       0.00171884 Ry

     iteration # 22     ecut=    60.00 Ry     beta= 0.50
     Davidson diagonalization with overlap
     c_bands:  2 eigenvalues not converged
     ethr =  7.57E-07,  avg # of iterations =  5.8

     negative rho (up, down):  2.511E-04 0.000E+00

     total cpu time spent up to now is      494.9 secs

     total energy              =   -1842.78983423 Ry
     Harris-Foulkes estimate   =   -1842.78986078 Ry
     estimated scf accuracy    <       0.00141826 Ry

     iteration # 23     ecut=    60.00 Ry     beta= 0.50
     Davidson diagonalization with overlap
     ethr =  6.25E-07,  avg # of iterations =  6.0

     negative rho (up, down):  3.833E-04 0.000E+00

     total cpu time spent up to now is      519.3 secs

     total energy              =   -1842.78981816 Ry
     Harris-Foulkes estimate   =   -1842.78985301 Ry
     estimated scf accuracy    <       0.00086943 Ry

     iteration # 24     ecut=    60.00 Ry     beta= 0.50
     Davidson diagonalization with overlap
     ethr =  3.83E-07,  avg # of iterations =  3.3

     negative rho (up, down):  8.773E-04 0.000E+00

     total cpu time spent up to now is      539.0 secs

     total energy              =   -1842.78985540 Ry
     Harris-Foulkes estimate   =   -1842.78983036 Ry
     estimated scf accuracy    <       0.00055979 Ry

     iteration # 25     ecut=    60.00 Ry     beta= 0.50
     Davidson diagonalization with overlap
     ethr =  2.47E-07,  avg # of iterations =  3.6

     negative rho (up, down):  8.991E-04 0.000E+00

     total cpu time spent up to now is      561.1 secs

     total energy              =   -1842.78985773 Ry
     Harris-Foulkes estimate   =   -1842.78986994 Ry
     estimated scf accuracy    <       0.00017609 Ry

     iteration # 26     ecut=    60.00 Ry     beta= 0.50
     Davidson diagonalization with overlap
     ethr =  7.76E-08,  avg # of iterations =  2.0

     negative rho (up, down):  1.091E-03 0.000E+00

     total cpu time spent up to now is      579.8 secs

     total energy              =   -1842.78987812 Ry
     Harris-Foulkes estimate   =   -1842.78986483 Ry
     estimated scf accuracy    <       0.00009170 Ry

     iteration # 27     ecut=    60.00 Ry     beta= 0.50
     Davidson diagonalization with overlap
     ethr =  4.04E-08,  avg # of iterations =  3.4

     negative rho (up, down):  1.223E-03 0.000E+00

     total cpu time spent up to now is      599.6 secs

     total energy              =   -1842.78988017 Ry
     Harris-Foulkes estimate   =   -1842.78988239 Ry
     estimated scf accuracy    <       0.00003163 Ry

     iteration # 28     ecut=    60.00 Ry     beta= 0.50
     Davidson diagonalization with overlap
     ethr =  1.39E-08,  avg # of iterations =  1.0

     negative rho (up, down):  1.348E-03 0.000E+00

     total cpu time spent up to now is      617.2 secs

     total energy              =   -1842.78988095 Ry
     Harris-Foulkes estimate   =   -1842.78988143 Ry
     estimated scf accuracy    <       0.00001229 Ry

     iteration # 29     ecut=    60.00 Ry     beta= 0.50
     Davidson diagonalization with overlap
     ethr =  5.41E-09,  avg # of iterations =  1.0

     negative rho (up, down):  1.422E-03 0.000E+00

     total cpu time spent up to now is      635.1 secs

     total energy              =   -1842.78988120 Ry
     Harris-Foulkes estimate   =   -1842.78988153 Ry
     estimated scf accuracy    <       0.00000224 Ry

     iteration # 30     ecut=    60.00 Ry     beta= 0.50
     Davidson diagonalization with overlap
     ethr =  9.88E-10,  avg # of iterations =  3.0

     negative rho (up, down):  1.483E-03 0.000E+00

     total cpu time spent up to now is      654.9 secs

     total energy              =   -1842.78988119 Ry
     Harris-Foulkes estimate   =   -1842.78988136 Ry
     estimated scf accuracy    <       0.00000088 Ry

     iteration # 31     ecut=    60.00 Ry     beta= 0.50
     Davidson diagonalization with overlap
     ethr =  3.90E-10,  avg # of iterations =  2.7

     negative rho (up, down):  1.489E-03 0.000E+00

     total cpu time spent up to now is      673.6 secs

     total energy              =   -1842.78988122 Ry
     Harris-Foulkes estimate   =   -1842.78988125 Ry
     estimated scf accuracy    <       0.00000029 Ry

     iteration # 32     ecut=    60.00 Ry     beta= 0.50
     Davidson diagonalization with overlap
     ethr =  1.28E-10,  avg # of iterations =  2.0

     negative rho (up, down):  1.480E-03 0.000E+00

     total cpu time spent up to now is      690.9 secs

     total energy              =   -1842.78988125 Ry
     Harris-Foulkes estimate   =   -1842.78988124 Ry
     estimated scf accuracy    <       0.00000006 Ry

     iteration # 33     ecut=    60.00 Ry     beta= 0.50
     Davidson diagonalization with overlap
     ethr =  2.65E-11,  avg # of iterations =  3.1

     negative rho (up, down):  1.465E-03 0.000E+00

     total cpu time spent up to now is      712.6 secs

     total energy              =   -1842.78988128 Ry
     Harris-Foulkes estimate   =   -1842.78988126 Ry
     estimated scf accuracy    <       0.00000004 Ry

     iteration # 34     ecut=    60.00 Ry     beta= 0.50
     Davidson diagonalization with overlap
     ethr =  1.88E-11,  avg # of iterations =  1.0

     negative rho (up, down):  1.466E-03 0.000E+00

     total cpu time spent up to now is      730.4 secs

     total energy              =   -1842.78988128 Ry
     Harris-Foulkes estimate   =   -1842.78988129 Ry
     estimated scf accuracy    <       0.00000002 Ry

     iteration # 35     ecut=    60.00 Ry     beta= 0.50
     Davidson diagonalization with overlap
     ethr =  7.61E-12,  avg # of iterations =  1.1

     negative rho (up, down):  1.466E-03 0.000E+00

     total cpu time spent up to now is      747.3 secs

     End of self-consistent calculation

          k = 0.0000 0.0000 0.0000 ( 37745 PWs)   bands (ev):

   -36.0527 -35.8287 -25.1885 -23.2394 -23.2355 -23.0917 -17.5564 -17.3110
   -17.1037 -17.0925 -16.8958 -16.8741 -15.7654 -15.6209 -15.6025 -15.1213
   -15.1112 -15.0365 -14.7496 -14.6386 -14.6287 -14.6197 -14.4374 -14.3970
   -14.2956 -14.2597 -13.8617 -10.4844 -10.0057  -9.9359  -8.3720  -8.3647
    -8.3330  -8.3301  -8.2797  -8.1402  -8.1363  -8.1353  -7.9676  -2.7793
    -2.7772  -2.7598  -2.2800  -2.2681  -2.2374  -2.1268  -2.0732  -2.0078
    -1.9494  -1.9370  -1.8213  -1.8097  -1.6701  -1.6674  -1.6211  -1.4887
    -1.4556  -1.3529  -0.9077  -0.9057  -0.8601  -0.8286  -0.8239  -0.7995
    -0.7474  -0.7139  -0.7117  -0.7080  -0.7076  -0.6977  -0.6144  -0.5654
    -0.5439  -0.5108  -0.4858  -0.4848  -0.4380  -0.3508  -0.3500  -0.3481
    -0.3433  -0.3289  -0.2784  -0.2365  -0.1719  -0.1348  -0.0109   0.0400
     0.1778   0.2797   0.3477   0.4339   0.4344   0.4789   0.4857   0.5649
     0.7250   0.7895   0.8154   0.9026   0.9040   0.9274   0.9355   0.9597
     1.0503   1.0720   1.1056   1.3478   1.3610   1.5012   1.5783   1.5817
     1.5875   1.6543   1.6963   1.7123   1.7789   2.0807   2.0850   3.2174
     4.1814   4.7656   4.7691   5.3287   5.6022   5.9536   6.3036   6.3161
     6.4933   6.6843   6.9394   7.5299   7.6304   7.6736   7.7640   7.8408
     7.9577

          k = 0.0000 0.1320 0.0000 ( 37695 PWs)   bands (ev):

   -36.0509 -35.8269 -25.1677 -23.2127 -23.2088 -23.0663 -17.5203 -17.2746
   -17.1650 -17.1014 -16.9461 -16.8934 -15.6765 -15.5706 -15.5249 -15.1273
   -15.1096 -15.0090 -14.7232 -14.7011 -14.6384 -14.6211 -14.4413 -14.4133
   -14.3564 -14.2975 -13.8842 -10.4732  -9.9757  -9.9698  -8.3711  -8.3647
    -8.2852  -8.2823  -8.2780  -8.1819  -8.1781  -8.0902  -8.0160  -2.8381
    -2.8348  -2.7928  -2.6193  -2.5944  -2.5202  -2.3752  -2.2643  -2.1057
    -2.0933  -2.0919  -2.0567  -1.9906  -1.8798  -1.7309  -1.6621  -1.6080
    -1.4095  -1.3584  -1.1764  -1.0800  -1.0574  -1.0049  -1.0032  -0.9094
    -0.9092  -0.8050  -0.8050  -0.6444  -0.6070  -0.5974  -0.5950  -0.5935
    -0.5839  -0.4646  -0.4632  -0.4571  -0.4470  -0.3700  -0.3591  -0.3261
    -0.3255  -0.2971  -0.1770  -0.1758  -0.1068  -0.0930  -0.0451   0.0809
     0.1035   0.3452   0.4400   0.4939   0.5203   0.5970   0.6318   0.6318
     0.6696   0.6773   0.7261   0.7408   0.9638   0.9838   1.0086   1.0406
     1.0716   1.1168   1.2265   1.3289   1.3321   1.3982   1.4476   1.5420
     1.5660   1.6128   1.7593   1.9385   2.1760   2.3678   2.3751   3.4110
     4.5231   5.1435   5.1453   5.5700   5.9039   6.1455   6.6035   6.6179
     6.7550   6.8782   6.9784   7.4766   7.6382   7.7032   7.8593   8.0565
     8.1689

          k = 0.0000 0.2640 0.0000 ( 37591 PWs)   bands (ev):

   -36.0465 -35.8225 -25.1168 -23.1468 -23.1429 -23.0035 -17.4284 -17.3191
   -17.1829 -17.0984 -17.0957 -16.8878 -15.4744 -15.4442 -15.3725 -15.1785
   -15.1242 -14.9493 -14.8533 -14.6739 -14.6273 -14.5775 -14.5184 -14.4777
   -14.4500 -14.3503 -13.9412 -10.4392 -10.0655  -9.8806  -8.3702  -8.3648
    -8.2746  -8.2714  -8.2686  -8.1648  -8.1618  -8.1205  -7.9770  -3.3897
    -3.2784  -3.2646  -3.0922  -2.8793  -2.8758  -2.8053  -2.7414  -2.7308
    -2.7280  -2.3220  -2.0504  -2.0100  -1.9369  -1.9305  -1.8986  -1.6091
    -1.5682  -1.5319  -1.4516  -1.3402  -1.3182  -1.2549  -1.2541  -1.1042
    -1.0871  -1.0061  -0.9880  -0.9474  -0.9447  -0.8774  -0.8189  -0.7663
    -0.7467  -0.5673  -0.5277  -0.4363  -0.4349  -0.3581  -0.3343  -0.2498
    -0.1464  -0.0960  -0.0581   0.0049   0.1060   0.1494   0.1580   0.2501
     0.2509   0.3422   0.5074   0.6249   0.6340   0.6566   0.6851   0.7162
     0.7170   0.7723   0.8079   0.8178   0.8397   0.8824   1.0408   1.0434
     1.2398   1.2790   1.3091   1.3293   1.4455   1.5242   1.5262   1.5520
     1.5723   1.6896   1.9032   2.0304   2.5877   2.5940   2.9693   3.8964
     5.4387   5.7865   6.0385   6.0393   6.3678   6.8403   7.0324   7.3676
     7.4270   7.4445   7.4624   7.7567   7.9415   8.2039   8.3213   8.3923
     8.5136

          k = 0.0000 0.3960 0.0000 ( 37522 PWs)   bands (ev):

   -36.0421 -35.8180 -25.0646 -23.0787 -23.0748 -22.9388 -17.4555 -17.3266
   -17.2359 -17.0901 -17.0787 -16.8821 -15.3831 -15.3708 -15.3207 -15.1477
   -15.0278 -14.9906 -14.9302 -14.6627 -14.6544 -14.5679 -14.5473 -14.5473
   -14.3995 -14.3994 -14.0233 -10.3863 -10.1588  -9.7876  -8.3702  -8.3649
    -8.3510  -8.3466  -8.2676  -8.2116  -8.0363  -8.0333  -7.8570  -4.1117
    -3.7392  -3.7275  -3.5285  -3.4465  -3.4430  -3.2502  -2.8215  -2.8187
    -2.7729  -2.6829  -2.2612  -2.2493  -1.9894  -1.9471  -1.8992  -1.7901
    -1.7214  -1.6762  -1.5461  -1.5357  -1.5240  -1.4897  -1.3286  -1.3123
    -1.2923  -1.2696  -1.2033  -1.1934  -1.1734  -1.0505  -0.9285  -0.8365
    -0.7860  -0.7498  -0.6773  -0.4192  -0.4180  -0.3235  -0.3213  -0.3041
    -0.2488  -0.1578  -0.1189   0.0301   0.1406   0.1969   0.3145   0.4738
     0.4782   0.4965   0.5106   0.6189   0.6212   0.6867   0.6883   0.7306
     0.7754   0.8070   0.8704   0.8802   1.1664   1.1813   1.2623   1.2814
     1.3256   1.3295   1.4686   1.4865   1.5203   1.5261   1.6343   1.7667
     1.8638   1.9190   1.9205   1.9527   2.4826   2.4887   3.4867   4.4989
     5.4521   6.4626   6.9833   6.9860   6.9952   7.3269   7.7894   7.9507
     8.0063   8.0691   8.2324   8.2501   8.5684   8.6251   8.6476   8.6900
     8.8197

          k = 0.0000-0.5279 0.0000 ( 37586 PWs)   bands (ev):

   -36.0402 -35.8162 -25.0426 -23.0497 -23.0458 -22.9114 -17.5076 -17.2875
   -17.2817 -17.0877 -17.0340 -16.8797 -15.4249 -15.4160 -15.2829 -15.0433
   -14.9979 -14.9838 -14.9277 -14.7011 -14.6988 -14.5944 -14.5270 -14.5209
   -14.4369 -14.3244 -14.0857 -10.3483 -10.2098  -9.7479  -8.3807  -8.3763
    -8.3699  -8.3644  -8.2598  -8.2515  -7.9804  -7.9774  -7.8050  -4.3775
    -3.9171  -3.9075  -3.6994  -3.6770  -3.6694  -3.4196  -2.8376  -2.8348
    -2.8154  -2.7830  -2.3907  -2.3821  -1.9931  -1.9255  -1.9114  -1.8039
    -1.7712  -1.7264  -1.6490  -1.6423  -1.6371  -1.4570  -1.4450  -1.4282
    -1.3647  -1.2864  -1.2845  -1.2841  -1.2537  -1.1308  -0.9986  -0.9042
    -0.8266  -0.7249  -0.6693  -0.4135  -0.4123  -0.3880  -0.3416  -0.3091
    -0.2855  -0.1590  -0.1399  -0.0441   0.1073   0.2130   0.3528   0.3839
     0.3973   0.5605   0.5617   0.6631   0.6698   0.6713   0.7366   0.7825
     0.8358   0.8699   0.8945   0.9855   1.2792   1.2798   1.2995   1.3513
     1.4886   1.5598   1.5699   1.5744   1.6051   1.6509   1.7078   1.7445
     1.7988   1.8093   2.0804   2.0820   2.3051   2.3088   3.6654   4.8553
     5.2627   6.8753   7.0293   7.3983   7.4008   7.6419   7.9865   8.1810
     8.4258   8.5040   8.5412   8.5681   8.5743   8.6768   8.7346   8.8742
     8.8744

          k = 0.1250 0.0000 0.0000 ( 37695 PWs)   bands (ev):

   -36.0516 -35.8276 -25.1752 -23.2213 -23.2175 -23.0744 -17.5231 -17.2767
   -17.1838 -17.0912 -16.9778 -16.8727 -15.6713 -15.6371 -15.5127 -15.1673
   -15.1496 -15.0413 -14.7514 -14.6923 -14.6377 -14.6299 -14.4485 -14.4089
   -14.3154 -14.2990 -13.8700 -10.5067  -9.9500  -9.9129  -8.3975  -8.3911
    -8.3138  -8.2710  -8.2678  -8.1077  -8.1039  -8.0759  -7.9372  -2.8211
    -2.8200  -2.7777  -2.3242  -2.3039  -2.2836  -2.2588  -2.2436  -2.2073
    -1.9194  -1.9155  -1.8995  -1.8313  -1.7800  -1.6680  -1.6654  -1.5381
    -1.5179  -1.3832  -1.0897  -1.0551  -0.9638  -0.9618  -0.8958  -0.8474
    -0.8070  -0.7897  -0.7866  -0.7258  -0.7182  -0.7032  -0.6433  -0.6427
    -0.6131  -0.5823  -0.5244  -0.4609  -0.3580  -0.3554  -0.3452  -0.3441
    -0.2535  -0.2514  -0.2347  -0.1886  -0.1451  -0.1035  -0.0389   0.0896
     0.2542   0.3452   0.3455   0.3493   0.3633   0.4693   0.5090   0.6284
     0.7213   0.7359   0.7502   0.7787   0.9118   0.9583   1.0006   1.0073
     1.0299   1.0579   1.2152   1.3062   1.4409   1.4800   1.5310   1.5376
     1.6252   1.6504   1.7430   1.7879   1.9547   2.1215   2.1217   3.3788
     4.3789   4.9480   4.9493   5.5284   5.8402   6.1023   6.5172   6.5288
     6.7001   6.8433   7.0951   7.5105   7.6747   7.7606   7.8019   7.9889
     8.1284

          k = 0.1250 0.1320 0.0000 ( 37662 PWs)   bands (ev):

   -36.0498 -35.8258 -25.1549 -23.1955 -23.1916 -23.0497 -17.4880 -17.2413
   -17.1869 -17.1542 -16.9785 -16.9377 -15.6024 -15.5714 -15.4455 -15.1623
   -15.1367 -15.0117 -14.7358 -14.7158 -14.6388 -14.6268 -14.4518 -14.4271
   -14.3699 -14.3300 -13.8897 -10.4849 -10.1067  -9.8171  -8.4159  -8.4115
    -8.3347  -8.3290  -8.3080  -8.1700  -8.0698  -8.0662  -7.8974  -2.8749
    -2.8703  -2.8051  -2.6064  -2.5779  -2.4994  -2.3845  -2.3032  -2.2870
    -2.2539  -2.2457  -2.0872  -2.0860  -1.9085  -1.8743  -1.7441  -1.6683
    -1.5031  -1.3273  -1.2697  -1.1995  -1.1812  -1.1209  -1.1113  -1.0131
    -0.9503  -0.9500  -0.7804  -0.7579  -0.7230  -0.6708  -0.6603  -0.6291
    -0.5973  -0.4917  -0.4761  -0.4488  -0.4080  -0.3363  -0.2927  -0.2871
    -0.2502  -0.2181  -0.1656  -0.1451  -0.1368  -0.1152  -0.0041   0.0630
     0.2674   0.2957   0.4959   0.5518   0.5811   0.5940   0.6166   0.6699
     0.7453   0.7725   0.8057   0.8290   0.8334   0.8601   0.8753   1.0338
     1.1327   1.1440   1.2131   1.2134   1.2989   1.3574   1.4436   1.4727
     1.8902   1.9131   2.0230   2.1884   2.2782   2.3806   2.3818   3.5494
     4.7024   5.2868   5.2878   5.7041   6.0762   6.2721   6.7869   6.8227
     6.8907   6.9061   7.0955   7.4480   7.7838   7.8487   7.9798   8.1827
     8.3025

          k = 0.1250 0.2640 0.0000 ( 37577 PWs)   bands (ev):

   -36.0454 -35.8214 -25.1051 -23.1316 -23.1277 -22.9889 -17.3990 -17.3159
   -17.1665 -17.1531 -17.0950 -16.9602 -15.4594 -15.3998 -15.3295 -15.1669
   -15.0979 -14.9446 -14.8493 -14.6517 -14.6219 -14.5749 -14.5180 -14.4902
   -14.4738 -14.3645 -13.9379 -10.4376 -10.2465  -9.8031  -8.4847  -8.4810
    -8.3709  -8.3655  -8.3152  -8.2744  -8.0606  -8.0571  -7.8926  -3.3773
    -3.3006  -3.2844  -3.1042  -2.8801  -2.8763  -2.8072  -2.7455  -2.7301
    -2.7273  -2.3447  -2.2499  -2.2374  -2.1761  -1.9413  -1.9179  -1.8181
    -1.6505  -1.5482  -1.4463  -1.4306  -1.4270  -1.3387  -1.3231  -1.3034
    -1.1421  -1.1400  -1.0734  -1.0409  -0.9800  -0.9566  -0.8715  -0.8003
    -0.7146  -0.6571  -0.6182  -0.5158  -0.4212  -0.2837  -0.2571  -0.2030
    -0.1678  -0.0585  -0.0471   0.0273   0.1532   0.2799   0.3041   0.3109
     0.3660   0.5377   0.5721   0.5776   0.6384   0.7661   0.7688   0.7834
     0.8273   0.8481   0.8693   0.8891   0.9265   0.9587   0.9793   1.0527
     1.1527   1.1785   1.3032   1.3276   1.4869   1.4916   1.5205   1.5562
     2.0873   2.1061   2.2697   2.4680   2.5962   2.6210   2.9719   4.0131
     5.5582   5.6938   6.0996   6.1003   6.4944   6.9219   7.0463   7.1916
     7.4114   7.6047   7.6115   8.0065   8.1549   8.3259   8.3770   8.4492
     8.5689

          k = 0.1250 0.3960 0.0000 ( 37572 PWs)   bands (ev):

   -36.0410 -35.8170 -25.0542 -23.0657 -23.0618 -22.9261 -17.4504 -17.3001
   -17.2308 -17.1579 -17.0515 -16.9518 -15.3478 -15.3383 -15.3057 -15.0736
   -14.9698 -14.9681 -14.9059 -14.6442 -14.6360 -14.5992 -14.5429 -14.5412
   -14.4197 -14.3945 -14.0064 -10.3939 -10.3007  -9.8510  -8.5151  -8.5110
    -8.3826  -8.3772  -8.3652  -8.2756  -8.1056  -8.1024  -7.9330  -4.0976
    -3.7813  -3.7649  -3.5583  -3.4378  -3.4344  -3.2681  -2.8295  -2.8270
    -2.7821  -2.6240  -2.2417  -2.2313  -2.1127  -2.0734  -2.0606  -1.9073
    -1.7855  -1.7778  -1.6987  -1.6983  -1.6103  -1.5918  -1.5354  -1.3447
    -1.3350  -1.3138  -1.3051  -1.2658  -1.2264  -1.2073  -1.0249  -0.8588
    -0.7383  -0.7357  -0.7226  -0.5082  -0.4410  -0.2817  -0.2443  -0.2379
    -0.1579  -0.0453   0.0301   0.0320   0.2167   0.3183   0.4496   0.4586
     0.5090   0.6043   0.6206   0.7070   0.7505   0.7620   0.7834   0.7935
     0.9009   0.9296   0.9566   1.0856   1.2004   1.2414   1.2595   1.3043
     1.3147   1.4010   1.4436   1.5619   1.6486   1.7336   1.8866   1.8876
     2.0350   2.0560   2.2294   2.3731   2.5361   2.5830   3.4900   4.5746
     5.3626   6.3848   6.8502   6.8529   6.9998   7.1466   7.6553   7.8154
     7.8927   8.2101   8.2245   8.2788   8.4661   8.5167   8.7529   8.9145
     9.0157

          k = 0.1250-0.5279 0.0000 ( 37528 PWs)   bands (ev):

   -36.0392 -35.8151 -25.0327 -23.0377 -23.0338 -22.8996 -17.5019 -17.2819
   -17.2568 -17.1541 -17.0081 -16.9481 -15.3801 -15.3721 -15.2364 -15.0164
   -14.9490 -14.9421 -14.8713 -14.6830 -14.6821 -14.6287 -14.5238 -14.5208
   -14.4220 -14.3422 -14.0576 -10.3502 -10.3331  -9.8814  -8.5098  -8.5054
    -8.3873  -8.3820  -8.3749  -8.2744  -8.1399  -8.1369  -7.9592  -4.3653
    -3.9667  -3.9523  -3.7347  -3.6678  -3.6633  -3.4438  -2.8506  -2.8480
    -2.7968  -2.7201  -2.2720  -2.2613  -2.0680  -2.0356  -1.9956  -1.9758
    -1.9280  -1.9271  -1.8420  -1.6978  -1.6865  -1.6509  -1.5986  -1.4940
    -1.4268  -1.3959  -1.3855  -1.3142  -1.3006  -1.2461  -1.1155  -0.8682
    -0.7461  -0.7410  -0.7227  -0.4844  -0.4215  -0.2584  -0.2357  -0.2295
    -0.2132  -0.1539   0.0006   0.0531   0.1816   0.3068   0.4785   0.4997
     0.5077   0.5089   0.5589   0.7765   0.7794   0.8139   0.8162   0.8864
     0.9051   0.9548   1.0245   1.1234   1.3207   1.3880   1.4659   1.5594
     1.5689   1.5743   1.5923   1.7285   1.7865   1.8359   1.8958   1.9067
     2.0517   2.0529   2.0884   2.2127   2.4136   2.4731   3.6688   4.7970
     5.3641   6.5297   6.8207   7.0722   7.0745   7.5168   7.8468   8.0603
     8.1276   8.4082   8.5071   8.5844   8.6650   8.8540   8.8721   8.9877
     9.2503

          k = 0.2500 0.0000 0.0000 ( 37694 PWs)   bands (ev):

   -36.0490 -35.8249 -25.1428 -23.1770 -23.1731 -23.0321 -17.4380 -17.3475
   -17.1907 -17.1429 -17.0878 -16.8694 -15.7187 -15.4563 -15.3968 -15.2551
   -15.1801 -15.0676 -14.8160 -14.7608 -14.6519 -14.6482 -14.4959 -14.4307
   -14.3779 -14.3511 -13.8925 -10.5292  -9.8563  -9.8505  -8.3989  -8.3927
    -8.3378  -8.1846  -8.1815  -8.0270  -8.0231  -7.9924  -7.8616  -3.0152
    -3.0073  -2.8841  -2.6579  -2.6541  -2.6506  -2.3826  -2.2010  -2.1734
    -2.1147  -1.9395  -1.8924  -1.8524  -1.8166  -1.7049  -1.6647  -1.6620
    -1.5951  -1.5182  -1.3875  -1.2852  -1.2178  -1.2147  -1.1501  -1.1071
    -0.9813  -0.9780  -0.8254  -0.8252  -0.8182  -0.8172  -0.7275  -0.6996
    -0.6993  -0.6665  -0.6480  -0.4930  -0.4347  -0.3708  -0.3681  -0.2642
    -0.2608  -0.1253  -0.1237  -0.0385  -0.0264   0.0498   0.0686   0.0962
     0.1888   0.2110   0.2883   0.4062   0.4737   0.4759   0.5498   0.5898
     0.6598   0.8232   0.8505   0.8684   0.8830   0.9134   0.9552   1.0216
     1.0542   1.0990   1.1179   1.3831   1.4238   1.4249   1.5271   1.5796
     1.6437   1.8002   1.8137   1.9726   2.1797   2.2280   2.2411   3.7919
     4.9038   5.4059   5.4067   5.9176   6.4207   6.5778   6.6879   7.0666
     7.1060   7.1710   7.5099   7.8163   7.9816   8.0423   8.0768   8.2697
     8.4924

          k = 0.2500 0.1320 0.0000 ( 37671 PWs)   bands (ev):

   -36.0472 -35.8231 -25.1236 -23.1532 -23.1493 -23.0093 -17.4060 -17.3410
   -17.1608 -17.1539 -17.1339 -16.9353 -15.6574 -15.4039 -15.3619 -15.2082
   -15.1286 -15.0332 -14.8187 -14.7112 -14.6377 -14.6364 -14.4931 -14.4447
   -14.3951 -14.3929 -13.9059 -10.5051 -10.1377  -9.7448  -8.4666  -8.4626
    -8.3608  -8.3213  -8.3168  -8.1731  -7.9934  -7.9898  -7.8289  -3.0671
    -3.0520  -2.9150  -2.6531  -2.6462  -2.6439  -2.5475  -2.5312  -2.4318
    -2.3960  -2.3823  -2.1863  -2.0782  -2.0764  -1.9847  -1.8348  -1.7776
    -1.6373  -1.4818  -1.4605  -1.4498  -1.3603  -1.3330  -1.2439  -1.1933
    -1.0781  -1.0748  -1.0417  -0.9854  -0.8091  -0.7968  -0.6962  -0.6667
    -0.6197  -0.5777  -0.5106  -0.4718  -0.4702  -0.3679  -0.3125  -0.2561
    -0.2243  -0.1923  -0.1192  -0.1181   0.0553   0.1314   0.1691   0.2322
     0.3164   0.4579   0.4582   0.5017   0.5095   0.5928   0.6498   0.6722
     0.7543   0.7545   0.8601   0.8951   0.9333   0.9762   0.9765   1.0288
     1.0340   1.0767   1.2594   1.2806   1.2877   1.3907   1.4918   1.6318
     2.1812   2.2399   2.2521   2.3995   2.4220   2.4419   2.6559   3.9341
     5.1701   5.6671   5.6679   5.8519   6.5120   6.6976   6.7258   7.1235
     7.3611   7.3738   7.4457   7.8376   8.1476   8.1779   8.2244   8.4093
     8.6187

          k = 0.2500 0.2640 0.0000 ( 37627 PWs)   bands (ev):

   -36.0428 -35.8188 -25.0768 -23.0945 -23.0906 -22.9530 -17.3425 -17.3164
   -17.2903 -17.1321 -17.0783 -17.0665 -15.4925 -15.3108 -15.2965 -15.0728
   -15.0010 -14.9495 -14.8407 -14.6141 -14.6095 -14.5840 -14.5469 -14.4904
   -14.4744 -14.4013 -13.9321 -10.4586 -10.4226  -9.8499  -8.6866  -8.6830
    -8.5137  -8.3834  -8.3783  -8.2883  -8.1133  -8.1095  -7.9524  -3.4515
    -3.4091  -3.3366  -3.1999  -2.8966  -2.8903  -2.8362  -2.7659  -2.7606
    -2.7571  -2.6235  -2.6149  -2.6034  -2.3121  -2.2938  -1.9080  -1.8716
    -1.8674  -1.8470  -1.7997  -1.6585  -1.5452  -1.4604  -1.3970  -1.3419
    -1.2771  -1.1855  -1.1650  -1.1258  -1.0448  -1.0442  -0.9539  -0.8784
    -0.8170  -0.6994  -0.5660  -0.5328  -0.4960  -0.3500  -0.2859  -0.1115
    -0.0972   0.0927   0.1180   0.3168   0.3390   0.3673   0.4849   0.4878
     0.5167   0.5167   0.7269   0.7436   0.7935   0.8072   0.8275   0.9176
     0.9267   0.9758   0.9775   1.0032   1.0681   1.0900   1.1443   1.1621
     1.2188   1.2396   1.3688   1.3980   1.4103   1.4243   1.5869   1.6654
     2.5376   2.5376   2.8174   2.8421   2.9453   2.9874   3.1640   4.3432
     5.3731   5.8257   6.2099   6.2107   6.8208   6.9282   7.1090   7.3141
     7.5293   7.8962   7.8989   8.2499   8.2739   8.4236   8.5779   8.5907
     8.7544

          k = 0.2500 0.3960 0.0000 ( 37614 PWs)   bands (ev):

   -36.0384 -35.8144 -25.0289 -23.0341 -23.0301 -22.8951 -17.4383 -17.3059
   -17.2314 -17.2189 -17.1019 -16.9815 -15.2775 -15.2657 -15.2611 -14.9131
   -14.9001 -14.8632 -14.8620 -14.6772 -14.6132 -14.5817 -14.5301 -14.5284
   -14.4262 -14.3888 -13.9639 -10.6013 -10.3816 -10.0607  -8.8067  -8.8026
    -8.6437  -8.4337  -8.4291  -8.3272  -8.3232  -8.3070  -8.1713  -4.0687
    -3.9401  -3.9085  -3.6766  -3.4175  -3.4136  -3.3414  -2.8995  -2.8987
    -2.8172  -2.6049  -2.5768  -2.5678  -2.4559  -2.2548  -2.2387  -2.2111
    -2.0869  -1.9709  -1.8970  -1.8496  -1.7728  -1.6231  -1.5904  -1.5415
    -1.3358  -1.2718  -1.2554  -1.2506  -1.2352  -1.2149  -1.0306  -1.0198
    -0.8953  -0.8844  -0.5884  -0.5564  -0.3470  -0.3036  -0.2158  -0.0790
    -0.0341   0.2356   0.3106   0.3936   0.5284   0.5301   0.5706   0.6470
     0.7960   0.8427   0.8467   0.8559   0.8833   0.8843   1.0303   1.0543
     1.1076   1.1813   1.2064   1.2673   1.2843   1.3167   1.3338   1.3605
     1.3796   1.4384   1.4819   1.5794   1.6584   1.8083   1.8091   1.8593
     2.3695   2.3700   3.0450   3.0857   3.1936   3.3785   3.4899   4.6444
     5.1811   6.1767   6.4178   6.4196   6.8379   7.1211   7.2837   7.6215
     7.9959   8.3243   8.3568   8.3620   8.5246   8.7075   8.9667   9.2144
     9.2983

          k = 0.2500-0.5279 0.0000 ( 37612 PWs)   bands (ev):

   -36.0366 -35.8126 -25.0087 -23.0085 -23.0046 -22.8707 -17.4884 -17.3004
   -17.2685 -17.1919 -17.0966 -16.9419 -15.2627 -15.2576 -15.1171 -15.0067
   -14.8393 -14.8149 -14.7901 -14.6985 -14.6495 -14.6331 -14.5170 -14.5151
   -14.3920 -14.3498 -13.9877 -10.6297 -10.3561 -10.1783  -8.8069  -8.8024
    -8.6621  -8.5216  -8.5183  -8.3938  -8.3885  -8.3227  -8.2826  -4.3388
    -4.1393  -4.1091  -3.8681  -3.6450  -3.6412  -3.5349  -2.9067  -2.9066
    -2.8289  -2.5840  -2.5585  -2.5374  -2.4836  -2.3865  -2.3681  -2.2024
    -2.1963  -2.0400  -1.9647  -1.8883  -1.8661  -1.7011  -1.6832  -1.5819
    -1.4194  -1.3519  -1.3259  -1.2671  -1.2500  -1.1881  -1.0965  -1.0321
    -0.9439  -0.9106  -0.5857  -0.5544  -0.2749  -0.2578  -0.1245  -0.0660
     0.0091   0.2120   0.2706   0.3796   0.5793   0.6308   0.6352   0.6605
     0.7476   0.7819   0.8799   0.9671   0.9764   1.0536   1.0586   1.0588
     1.1073   1.2146   1.2978   1.3083   1.4268   1.4528   1.5149   1.5444
     1.5768   1.5911   1.6129   1.7016   1.7548   1.9721   1.9848   1.9855
     2.1477   2.1483   3.0642   3.1135   3.2310   3.4077   3.6629   4.5235
     5.5858   6.0974   6.3825   6.3837   6.5616   7.1016   7.2454   7.7290
     8.3567   8.5029   8.7328   8.8061   8.9382   9.0685   9.0811   9.1505
     9.2733

          k = 0.3750 0.0000 0.0000 ( 37640 PWs)   bands (ev):

   -36.0463 -35.8223 -25.1098 -23.1316 -23.1277 -22.9888 -17.4875 -17.3427
   -17.2872 -17.0895 -17.0845 -16.8661 -15.8033 -15.4924 -15.4845 -15.1255
   -15.0837 -15.0647 -14.9164 -14.7354 -14.6643 -14.6562 -14.5983 -14.4641
   -14.4234 -14.3868 -13.9225 -10.5256  -9.7981  -9.7827  -8.3813  -8.3752
    -8.3313  -8.1197  -8.1169  -7.9434  -7.9427  -7.9386  -7.7829  -3.3437
    -3.3310  -3.1929  -2.7908  -2.7802  -2.7791  -2.7201  -2.1211  -2.0740
    -2.0464  -1.9766  -1.9697  -1.9576  -1.8404  -1.7578  -1.7016  -1.6825
    -1.6662  -1.6636  -1.5679  -1.4693  -1.4535  -1.3506  -1.3425  -1.3020
    -1.1811  -1.1781  -1.0296  -0.9969  -0.9408  -0.8406  -0.8262  -0.7990
    -0.7079  -0.6913  -0.6783  -0.5276  -0.4896  -0.3836  -0.3809  -0.2778
    -0.2685  -0.1965  -0.0472  -0.0466  -0.0430  -0.0248  -0.0183   0.0644
     0.1572   0.2900   0.3888   0.4541   0.4609   0.5720   0.6558   0.7345
     0.7357   0.7553   0.7818   0.8763   0.8948   0.9341   1.0409   1.1102
     1.1500   1.1569   1.2953   1.3128   1.3298   1.4357   1.6514   1.6700
     1.7407   1.8336   1.8434   2.0875   2.1945   2.3441   2.3642   4.3638
     5.3727   6.0557   6.0563   6.1455   6.3156   7.1022   7.3001   7.5510
     7.5522   7.6122   7.9296   7.9970   8.1122   8.1799   8.7218   8.8550
     8.8991

          k = 0.3750 0.1320 0.0000 ( 37681 PWs)   bands (ev):

   -36.0445 -35.8205 -25.0919 -23.1099 -23.1060 -22.9679 -17.4789 -17.3136
   -17.2784 -17.1489 -17.0604 -16.9303 -15.7312 -15.4448 -15.4377 -15.0850
   -15.0248 -15.0210 -14.8849 -14.6877 -14.6361 -14.6331 -14.5783 -14.4560
   -14.4328 -14.4196 -13.9317 -10.5040 -10.0746  -9.7923  -8.4381  -8.4336
    -8.3571  -8.2831  -8.2792  -8.1231  -8.0324  -8.0285  -7.8767  -3.4069
    -3.3870  -3.2379  -2.8116  -2.7788  -2.7780  -2.7241  -2.5023  -2.4587
    -2.4175  -2.3281  -2.1239  -2.0668  -2.0649  -2.0511  -1.9281  -1.8657
    -1.7668  -1.7509  -1.7299  -1.6665  -1.5193  -1.3849  -1.3108  -1.2629
    -1.2560  -1.1884  -1.1321  -1.1164  -0.9198  -0.8711  -0.8177  -0.7183
    -0.7038  -0.5582  -0.5027  -0.4950  -0.4910  -0.3762  -0.2915  -0.2671
    -0.2325  -0.2313  -0.0107  -0.0086   0.0732   0.0963   0.2031   0.2477
     0.2933   0.3631   0.3999   0.5154   0.6256   0.6498   0.7439   0.7602
     0.7635   0.8417   0.8550   0.8944   0.9111   0.9302   1.0747   1.1462
     1.1559   1.2451   1.2933   1.3019   1.3437   1.4739   1.6786   1.7908
     2.2185   2.3038   2.3146   2.4885   2.5363   2.6610   2.8125   4.4917
     5.5157   5.7615   6.2053   6.2054   6.4694   7.1261   7.3474   7.5597
     7.6164   7.6186   7.8172   8.0349   8.2187   8.4362   8.6574   8.7735
     8.9076

          k = 0.3750 0.2640 0.0000 ( 37671 PWs)   bands (ev):

   -36.0402 -35.8162 -25.0480 -23.0566 -23.0527 -22.9164 -17.4586 -17.2934
   -17.2576 -17.2383 -17.0740 -16.9854 -15.5325 -15.3229 -15.3181 -14.9862
   -14.9186 -14.8893 -14.8161 -14.6146 -14.6001 -14.5684 -14.5660 -14.4665
   -14.4475 -14.4327 -13.9366 -10.5137 -10.4250 -10.0313  -8.7394  -8.7356
    -8.5711  -8.4180  -8.4136  -8.3025  -8.2957  -8.2913  -8.1530  -3.7267
    -3.6771  -3.4743  -3.3015  -3.0374  -2.9518  -2.9358  -2.8307  -2.8300
    -2.8210  -2.7194  -2.7011  -2.6984  -2.5856  -2.3040  -2.2290  -2.1771
    -2.0628  -1.7670  -1.7627  -1.6615  -1.6517  -1.5121  -1.3867  -1.3705
    -1.3327  -1.2863  -1.2444  -1.1966  -1.0994  -1.0973  -0.9634  -0.9350
    -0.8272  -0.7985  -0.6507  -0.4233  -0.3651  -0.3324  -0.2249  -0.0316
    -0.0021   0.2016   0.2305   0.3706   0.3709   0.3960   0.5570   0.5578
     0.6489   0.7245   0.7567   0.7789   0.8020   0.8691   0.9519   0.9770
     1.0343   1.0808   1.0829   1.1763   1.1779   1.2316   1.2374   1.3025
     1.3064   1.3222   1.3553   1.3735   1.4291   1.5673   1.6745   1.8630
     2.5377   2.5383   2.9916   3.2712   3.2880   3.3839   3.5728   4.7992
     5.0526   5.8016   6.2502   6.2522   6.9156   7.0992   7.1735   7.5518
     7.8396   7.9619   7.9636   8.1822   8.3902   8.6986   8.8417   8.9642
     9.0518

          k = 0.3750 0.3960 0.0000 ( 37657 PWs)   bands (ev):

   -36.0359 -35.8118 -25.0033 -23.0020 -22.9980 -22.8637 -17.4414 -17.4199
   -17.2380 -17.2024 -17.1588 -16.9057 -15.2594 -15.1877 -15.1859 -14.8897
   -14.8411 -14.8258 -14.7171 -14.6880 -14.6134 -14.5308 -14.5245 -14.5035
   -14.4085 -14.3472 -13.9228 -10.8180 -10.3894 -10.3143  -9.0052  -9.0009
    -8.8426  -8.6702  -8.6670  -8.4641  -8.4207  -8.4152  -8.3314  -4.2079
    -4.1486  -4.0383  -3.8893  -3.5039  -3.3946  -3.3929  -3.0808  -3.0784
    -2.9486  -2.7301  -2.7291  -2.7238  -2.6453  -2.5651  -2.4716  -2.4125
    -2.2850  -2.0381  -1.9341  -1.6749  -1.6576  -1.6558  -1.6396  -1.4313
    -1.4082  -1.3882  -1.3238  -1.3046  -1.2651  -1.2041  -1.1714  -0.9812
    -0.8513  -0.8439  -0.8159  -0.3450  -0.2687  -0.2109   0.0368   0.0443
     0.1721   0.4131   0.5387   0.5942   0.7056   0.7094   0.8156   0.8437
     0.8916   0.9483   1.0229   1.0346   1.0460   1.0765   1.1462   1.2178
     1.2688   1.3125   1.3173   1.3269   1.3423   1.4423   1.5094   1.5145
     1.5418   1.5835   1.6108   1.6800   1.7103   1.7318   1.7333   2.0907
     2.3578   2.3601   3.4744   3.7891   3.8054   3.8661   4.0462   4.3506
     5.3998   5.9439   5.9487   5.9834   6.7947   6.8275   6.9140   7.5200
     8.1328   8.5267   8.5580   8.6954   8.8901   9.0323   9.0773   9.1064
     9.1315

          k = 0.3750-0.5279 0.0000 ( 37708 PWs)   bands (ev):

   -36.0341 -35.8100 -24.9845 -22.9789 -22.9750 -22.8414 -17.4751 -17.4287
   -17.2553 -17.2274 -17.1234 -16.8704 -15.1262 -15.1259 -15.0039 -14.9852
   -14.8532 -14.7962 -14.7483 -14.6274 -14.6153 -14.5573 -14.5091 -14.5070
   -14.3830 -14.2947 -13.9149 -10.9280 -10.4539 -10.3562  -9.0872  -9.0826
    -8.9374  -8.8152  -8.8124  -8.5935  -8.4470  -8.4408  -8.3454  -4.4175
    -4.3550  -4.3050  -4.0865  -3.7085  -3.6197  -3.6181  -3.0994  -3.0968
    -2.9639  -2.7284  -2.7237  -2.7189  -2.6718  -2.6429  -2.5770  -2.4641
    -2.3512  -2.1443  -2.0047  -1.7747  -1.7608  -1.6927  -1.6779  -1.4406
    -1.4136  -1.4036  -1.4012  -1.3785  -1.3577  -1.1894  -1.1830  -1.0799
    -0.8382  -0.8294  -0.8165  -0.3330  -0.2344  -0.1676   0.0576   0.2001
     0.2742   0.4808   0.6153   0.6629   0.8153   0.8227   0.8475   0.9069
     0.9141   0.9534   1.0876   1.1260   1.1490   1.2321   1.3208   1.3282
     1.3286   1.3689   1.4088   1.4975   1.5498   1.5722   1.5900   1.6342
     1.6588   1.6826   1.7371   1.7733   1.8214   1.9189   1.9211   2.1137
     2.1173   2.2249   3.6104   3.9319   3.9518   4.0082   4.1330   4.1861
     5.7313   5.7696   5.7709   6.0165   6.5712   6.6815   6.8073   7.3480
     8.4717   8.6669   8.7088   8.8713   8.9292   8.9471   9.1463   9.1799
     9.2653

          k =-0.5000 0.0000 0.0000 ( 37590 PWs)   bands (ev):

   -36.0452 -35.8212 -25.0960 -23.1125 -23.1085 -22.9706 -17.5398 -17.3400
   -17.3007 -17.0832 -17.0457 -16.8647 -15.8423 -15.5487 -15.5408 -15.1609
   -15.0346 -14.9927 -14.8154 -14.7829 -14.6615 -14.6557 -14.6449 -14.5120
   -14.4392 -14.3982 -13.9382 -10.5186  -9.7735  -9.7617  -8.3710  -8.3649
    -8.3226  -8.0966  -8.0938  -7.9299  -7.9065  -7.9024  -7.7493  -3.4856
    -3.4733  -3.3338  -2.9452  -2.8058  -2.8039  -2.7173  -2.1141  -2.0743
    -2.0557  -2.0131  -2.0036  -1.8819  -1.8382  -1.7930  -1.7210  -1.6755
    -1.6685  -1.6675  -1.6493  -1.6293  -1.5958  -1.4608  -1.3667  -1.2637
    -1.2615  -1.2450  -1.1217  -1.0995  -1.0100  -0.8588  -0.8553  -0.8460
    -0.7416  -0.6876  -0.6687  -0.5427  -0.4733  -0.3889  -0.3862  -0.3162
    -0.3014  -0.2764  -0.0614  -0.0474  -0.0447  -0.0221  -0.0186   0.0342
     0.1247   0.3297   0.3490   0.4863   0.5168   0.6063   0.6589   0.6841
     0.6854   0.7137   0.9085   0.9328   0.9382   1.0556   1.1336   1.1699
     1.1716   1.2033   1.2063   1.2143   1.4048   1.4819   1.6873   1.7368
     1.8196   1.8365   1.8568   2.0921   2.1637   2.3770   2.3846   5.0006
     5.0088   6.2079   6.4240   6.8287   6.8298   6.8798   6.8812   7.4007
     7.7917   7.9919   8.0801   8.0904   8.2390   8.5365   8.6297   8.7661
     8.9905

          k =-0.5000 0.1320 0.0000 ( 37674 PWs)   bands (ev):

   -36.0435 -35.8194 -25.0785 -23.0917 -23.0877 -22.9505 -17.5306 -17.3307
   -17.2732 -17.1468 -17.0183 -16.9281 -15.7651 -15.4919 -15.4846 -15.1165
   -14.9968 -14.9520 -14.7818 -14.7236 -14.6367 -14.6234 -14.6227 -14.4779
   -14.4369 -14.4357 -13.9472 -10.4969  -9.9888  -9.8798  -8.4094  -8.4043
    -8.3424  -8.2260  -8.2233  -8.1096  -8.1051  -8.0508  -7.9633  -3.5551
    -3.5359  -3.3867  -2.9719  -2.8104  -2.8090  -2.7359  -2.4717  -2.4225
    -2.4116  -2.2743  -2.0830  -2.0745  -2.0615  -2.0593  -1.9736  -1.8967
    -1.8782  -1.8651  -1.8100  -1.7107  -1.5633  -1.4157  -1.3991  -1.3193
    -1.3173  -1.1977  -1.1652  -1.0457  -1.0244  -0.9078  -0.8703  -0.7416
    -0.7368  -0.5301  -0.5215  -0.4976  -0.4713  -0.3853  -0.2809  -0.2691
    -0.2502  -0.2380   0.0306   0.0632   0.0666   0.1109   0.1463   0.1670
     0.1985   0.3219   0.3835   0.5772   0.6164   0.6926   0.7449   0.7690
     0.8180   0.8345   0.8416   0.8425   0.9608   1.0681   1.0945   1.1684
     1.2416   1.2543   1.2790   1.4094   1.4392   1.4465   1.8068   1.8727
     2.2282   2.3056   2.3156   2.5065   2.5604   2.7152   2.8371   5.1138
     5.1179   5.6927   6.6168   6.6764   6.6777   7.1817   7.1832   7.3918
     7.7083   7.9394   7.9502   8.0277   8.3117   8.5546   8.6959   8.8137
     9.0706

          k =-0.5000 0.2640 0.0000 ( 37688 PWs)   bands (ev):

   -36.0392 -35.8151 -25.0360 -23.0407 -23.0367 -22.9010 -17.5086 -17.3084
   -17.2900 -17.2020 -17.0706 -16.9475 -15.5510 -15.3413 -15.3358 -15.0096
   -14.9082 -14.8560 -14.7022 -14.6183 -14.5842 -14.5800 -14.5738 -14.5117
   -14.4408 -14.3913 -13.9448 -10.4838 -10.4214 -10.1619  -8.6783  -8.6738
    -8.5271  -8.5244  -8.5237  -8.3593  -8.3538  -8.3324  -8.2823  -3.8648
    -3.8156  -3.6169  -3.2933  -3.1718  -2.9774  -2.9650  -2.8492  -2.8399
    -2.8308  -2.7239  -2.7098  -2.7060  -2.6191  -2.3658  -2.2966  -2.2921
    -2.1579  -1.8368  -1.7542  -1.6005  -1.5727  -1.4747  -1.4187  -1.4167
    -1.3653  -1.3045  -1.2519  -1.2229  -1.1245  -1.1221  -0.9643  -0.9527
    -0.8433  -0.8326  -0.6650  -0.3862  -0.3274  -0.2674  -0.1310  -0.0075
     0.0244   0.2407   0.2674   0.3086   0.4004   0.4048   0.6017   0.6464
     0.6486   0.7332   0.7333   0.7441   0.7926   0.9405   0.9869   1.0072
     1.0905   1.1147   1.1655   1.1698   1.2528   1.2617   1.2672   1.3015
     1.3285   1.3687   1.3845   1.4369   1.4603   1.5327   1.7950   1.9710
     2.5306   2.5317   2.9981   3.4113   3.4278   3.5183   3.6951   4.8171
     5.3773   5.4478   6.2463   6.2478   7.0156   7.0272   7.1046   7.7291
     7.9807   7.9960   8.0553   8.2341   8.6063   8.7448   8.9480   9.0734
     9.1378

          k =-0.5000 0.3960 0.0000 ( 37668 PWs)   bands (ev):

   -36.0348 -35.8107 -24.9926 -22.9885 -22.9845 -22.8505 -17.4871 -17.4190
   -17.2866 -17.1995 -17.1266 -16.8721 -15.2552 -15.1585 -15.1565 -14.9157
   -14.8345 -14.8094 -14.6787 -14.6179 -14.6026 -14.5271 -14.5251 -14.4688
   -14.4458 -14.2985 -13.9074 -10.8898 -10.4416 -10.3834  -9.0534  -9.0488
    -8.8982  -8.8152  -8.8124  -8.6000  -8.4374  -8.4314  -8.3452  -4.3375
    -4.2744  -4.0633  -3.9777  -3.6078  -3.3865  -3.3843  -3.1505  -3.1491
    -3.0115  -2.7494  -2.7450  -2.7439  -2.7370  -2.6575  -2.5656  -2.3937
    -2.3712  -2.1148  -1.9279  -1.6852  -1.6724  -1.5589  -1.5356  -1.5022
    -1.4769  -1.3646  -1.3362  -1.3312  -1.2615  -1.2482  -1.2121  -0.9575
    -0.9129  -0.8074  -0.8057  -0.2569  -0.2473  -0.1729   0.0730   0.2300
     0.2468   0.4989   0.6076   0.6268   0.8248   0.8476   0.8496   0.8562
     0.9248   0.9827   1.0702   1.1065   1.1116   1.1452   1.1942   1.2281
     1.3130   1.3582   1.3602   1.3770   1.3813   1.4886   1.5649   1.5670
     1.6059   1.6440   1.6711   1.6962   1.6994   1.7751   1.7946   2.2184
     2.3455   2.3490   3.4709   4.0563   4.0675   4.1129   4.1803   4.2808
     5.6448   5.7506   5.7528   5.8343   6.6433   6.7555   6.8498   7.3481
     8.3670   8.4732   8.5861   8.8703   8.8938   8.9795   9.0948   9.1023
     9.2339

          k =-0.5000-0.5279 0.0000 ( 37732 PWs)   bands (ev):

   -36.0330 -35.8089 -24.9744 -22.9665 -22.9626 -22.8292 -17.4783 -17.4696
   -17.2777 -17.2499 -17.0931 -16.8388 -15.0633 -15.0602 -15.0043 -14.9258
   -14.8936 -14.8188 -14.7257 -14.6244 -14.5625 -14.5055 -14.5021 -14.4920
   -14.4038 -14.2581 -13.8838 -11.0534 -10.5572 -10.3605  -9.1994  -9.1947
    -9.0488  -8.9313  -8.9285  -8.7068  -8.4657  -8.4587  -8.3613  -4.5464
    -4.4815  -4.3135  -4.1923  -3.8111  -3.6108  -3.6086  -3.1829  -3.1816
    -3.0403  -2.7628  -2.7506  -2.7383  -2.7355  -2.7327  -2.6580  -2.4421
    -2.4200  -2.2122  -1.9938  -1.7996  -1.7894  -1.6237  -1.6004  -1.4783
    -1.4462  -1.4317  -1.4299  -1.3623  -1.3603  -1.2385  -1.2257  -1.0726
    -0.9024  -0.7794  -0.7768  -0.2225  -0.2216  -0.1375   0.0958   0.3545
     0.3629   0.5911   0.7675   0.7780   0.8953   0.9057   0.9059   0.9633
     0.9758   1.0004   1.1544   1.1724   1.2060   1.3309   1.3758   1.4041
     1.4185   1.4503   1.4510   1.5087   1.5795   1.6180   1.6802   1.6904
     1.7363   1.7647   1.8136   1.8182   1.8921   1.8953   1.9642   2.0892
     2.0947   2.3577   3.5931   3.9442   4.2564   4.2718   4.3176   4.4703
     5.5244   5.5258   5.7591   6.0388   6.5158   6.6416   6.6634   7.1662
     8.5248   8.5829   8.6130   8.6190   8.8913   8.8956   9.0444   9.0555
     9.3041

     the Fermi energy is     2.1198 ev

!    total energy              =   -1842.78988128 Ry
     Harris-Foulkes estimate   =   -1842.78988129 Ry
     estimated scf accuracy    <          2.6E-09 Ry

     The total energy is the sum of the following terms:

     one-electron contribution =  -23625.89880500 Ry
     hartree contribution      =   11961.51103745 Ry
     xc contribution           =    -621.54781135 Ry
     ewald contribution        =   10443.15337550 Ry
     smearing contrib. (-TS)   =      -0.00767790 Ry

     convergence has been achieved in  35 iterations

     negative rho (up, down):  1.466E-03 0.000E+00

     Forces acting on atoms (cartesian axes, Ry/au):

     atom    1 type  4   force =     0.00000000    0.00000000   -0.00011586
     atom    2 type  3   force =     0.00000000    0.00000000    0.00033087
     atom    3 type  4   force =     0.00000000    0.00000000   -0.00075706
     atom    4 type  1   force =     0.00000000    0.00000000   -0.00034954
     atom    5 type  3   force =     0.00000000    0.00000000    0.00060302
     atom    6 type  4   force =     0.00000000    0.00000000    0.00026680
     atom    7 type  4   force =     0.00000000    0.00000000    0.00067414
     atom    8 type  2   force =     0.00000000    0.00000000   -0.00141475
     atom    9 type  4   force =     0.00000000    0.00000000    0.00113333
     atom   10 type  4   force =     0.00000000    0.00000000    0.00154052
     atom   11 type  3   force =     0.00000000    0.00000000   -0.00000833
     atom   12 type  1   force =     0.00000000    0.00000000   -0.00491629
     atom   13 type  4   force =     0.00000000    0.00000000    0.00755685
     atom   14 type  4   force =     0.00000000    0.00000000    0.02438031
     atom   15 type  3   force =     0.00000000    0.00000000   -0.03024566
     atom   16 type  4   force =     0.00000000    0.00000000    0.05655248
     atom   17 type  1   force =     0.00000000    0.00000000   -0.05288878
     atom   18 type  3   force =     0.00000000    0.00000000   -0.01625127
     atom   19 type  4   force =     0.00000000    0.00000000    0.01925751
     atom   20 type  4   force =     0.00000000    0.00000000    0.00849413
     atom   21 type  2   force =     0.00000000    0.00000000   -0.01856196
     atom   22 type  4   force =     0.00000000    0.00000000    0.00105177
     atom   23 type  4   force =     0.00000000    0.00000000    0.00288811
     atom   24 type  3   force =     0.00000000    0.00000000    0.00001025
     atom   25 type  1   force =     0.00000000    0.00000000    0.00010653
     atom   26 type  4   force =     0.00000000    0.00000000    0.00107491
     atom   27 type  3   force =     0.00000000    0.00000000   -0.00077454
     atom   28 type  4   force =     0.00000000    0.00000000    0.00036251

     Total force =     0.093039     Total SCF correction =     0.000220


     Computing stress (Cartesian axis) and pressure


     negative rho (up, down):  1.466E-03 0.000E+00
          total   stress  (Ry/bohr**3)                   (kbar)     P=       -7.98
  -0.00010320   0.00000000   0.00000000          -15.18        0.00        0.00
   0.00000000  -0.00003877   0.00000000            0.00       -5.70        0.00
   0.00000000   0.00000000  -0.00002077            0.00        0.00       -3.06

 
     init_run     :     10.56s CPU     11.19s WALL (       1 calls)
     electrons    :    702.67s CPU    735.06s WALL (       1 calls)
     forces       :      3.73s CPU      4.15s WALL (       1 calls)
     stress       :     28.82s CPU     29.94s WALL (       1 calls)

     Called by init_run:
     wfcinit      :      7.93s CPU      8.10s WALL (       1 calls)
     potinit      :      0.64s CPU      0.66s WALL (       1 calls)
     hinit0       :      1.09s CPU      1.11s WALL (       1 calls)

     Called by electrons:
     c_bands      :    555.43s CPU    560.16s WALL (      35 calls)
     sum_band     :     98.41s CPU    113.26s WALL (      35 calls)
     v_of_rho     :      3.43s CPU      3.47s WALL (      36 calls)
     newd         :     22.42s CPU     35.36s WALL (      36 calls)
     mix_rho      :     23.17s CPU     23.36s WALL (      35 calls)

     Called by c_bands:
     init_us_2    :      4.01s CPU      4.05s WALL (    1825 calls)
     cegterg      :    524.56s CPU    528.74s WALL (     875 calls)

     Called by sum_band:
     sum_band:bec :      0.25s CPU      0.25s WALL (     875 calls)
     addusdens    :     20.77s CPU     34.74s WALL (      35 calls)

     Called by *egterg:
     h_psi        :    265.13s CPU    268.33s WALL (    4163 calls)
     s_psi        :     24.97s CPU     25.07s WALL (    4163 calls)
     g_psi        :      0.71s CPU      0.72s WALL (    3263 calls)
     cdiaghg      :    125.28s CPU    125.78s WALL (    4138 calls)

     Called by h_psi:
     h_psi:calbec :     32.72s CPU     32.88s WALL (    4163 calls)
     vloc_psi     :    205.93s CPU    208.78s WALL (    4163 calls)
     add_vuspsi   :     25.34s CPU     25.52s WALL (    4163 calls)

     General routines
     calbec       :     52.66s CPU     52.92s WALL (    5163 calls)
     fft          :      3.00s CPU      3.01s WALL (     491 calls)
     ffts         :     12.34s CPU     12.44s WALL (   15777 calls)
     fftw         :    237.17s CPU    240.41s WALL (  625707 calls)
     interpolate  :      0.24s CPU      0.24s WALL (      36 calls)
 
     Parallel routines
     fft_scatt_xy :     25.76s CPU     26.13s WALL (  641975 calls)
     fft_scatt_yz :    162.39s CPU    164.54s WALL (  641975 calls)
 
     PWSCF        :  12m26.78s CPU  13m 1.40s WALL

 
   This run was terminated on:  11:49:18  21May2021            

=------------------------------------------------------------------------------=
   JOB DONE.
=------------------------------------------------------------------------------=
[1621612158.092615] [holy7c10107:262427:0]          mpool.c:43   UCX  WARN  object 0x3ec6f80 was not returned to mpool ucp_requests
[1621612158.099009] [holy7c06303:114107:0]          mpool.c:43   UCX  WARN  object 0x4153380 was not returned to mpool ucp_requests
[1621612158.108374] [holy7c04309:175941:0]          mpool.c:43   UCX  WARN  object 0x39791c0 was not returned to mpool ucp_requests
[1621612158.108185] [holy7c04309:175942:0]          mpool.c:43   UCX  WARN  object 0x2aeb740 was not returned to mpool ucp_requests
[1621612158.098868] [holy7c06303:114112:0]          mpool.c:43   UCX  WARN  object 0x2ada2c0 was not returned to mpool ucp_requests
[1621612158.101403] [holy7c06303:114111:0]          mpool.c:43   UCX  WARN  object 0x2e23a40 was not returned to mpool ucp_requests
[1621612158.101425] [holy7c06303:114111:0]          mpool.c:43   UCX  WARN  object 0x2e24140 was not returned to mpool ucp_requests
