
     Program PWSCF v.6.5 starts on 21May2021 at 22:28:44 

     This program is part of the open-source Quantum ESPRESSO suite
     for quantum simulation of materials; please cite
         "P. Giannozzi et al., J. Phys.:Condens. Matter 21 395502 (2009);
         "P. Giannozzi et al., J. Phys.:Condens. Matter 29 465901 (2017);
          URL http://www.quantum-espresso.org", 
     in publications or presentations arising from this work. More details at
     http://www.quantum-espresso.org/quote

     Parallel version (MPI), running on    20 processors

     MPI processes distributed on     9 nodes
     R & G space division:  proc/nbgrp/npool/nimage =      20
     Reading input from CBCO_Y_cleave_1.25_sep.pwi
Warning: card &IONS ignored
Warning: card     ION_DYNAMICS = 'BFGS' ignored
Warning: card / ignored
Warning: card &CELL ignored
Warning: card     CELL_DYNAMICS = 'BFGS' ignored
Warning: card     PRESS_CONV_THR = 5 ignored
Warning: card / ignored

     Current dimensions of program PWSCF are:
     Max number of different atomic species (ntypx) = 10
     Max number of k-points (npk) =  40000
     Max angular momentum in pseudopotentials (lmaxx) =  3

     Subspace diagonalization in iterative solution of the eigenvalue problem:
     one sub-group per band group will be used
     scalapack distributed-memory algorithm (size of sub-group:  4*  4 procs)

     Message from routine setup:
     using ibrav=0 with symmetry is DISCOURAGED, use correct ibrav instead
 
     Parallelization info
     --------------------
     sticks:   dense  smooth     PW     G-vecs:    dense   smooth      PW
     Min         149      50     14                72165    13894    2172
     Max         150      51     15                72202    13919    2217
     Sum        2991    1007    289              1443693   278079   43709
 


     bravais-lattice index     =            0
     lattice parameter (alat)  =       7.4270  a.u.
     unit-cell volume          =    4425.7129 (a.u.)^3
     number of atoms/cell      =           28
     number of atomic types    =            4
     number of electrons       =       227.00
     number of Kohn-Sham states=          137
     kinetic-energy cutoff     =      60.0000  Ry
     charge density cutoff     =     720.0000  Ry
     convergence threshold     =      1.0E-08
     mixing beta               =       0.5000
     number of iterations used =           10  local-TF  mixing
     Exchange-correlation= SLA PW PBE PBE
                           (   1   4   3   4   0   0   0)

     celldm(1)=   7.427040  celldm(2)=   0.000000  celldm(3)=   0.000000
     celldm(4)=   0.000000  celldm(5)=   0.000000  celldm(6)=   0.000000

     crystal axes: (cart. coord. in units of alat)
               a(1) = (   1.000000   0.000000   0.000000 )  
               a(2) = (   0.000000   0.947081   0.000000 )  
               a(3) = (   0.000000   0.000000  11.406405 )  

     reciprocal axes: (cart. coord. in units 2 pi/alat)
               b(1) = (  1.000000  0.000000  0.000000 )  
               b(2) = (  0.000000  1.055876  0.000000 )  
               b(3) = (  0.000000  0.000000  0.087670 )  


     PseudoPot. # 1 for Ba read from file:
     ./pseudo/Ba.pbe-nsp-van.UPF
     MD5 check sum: 2b9c31dd849566dd297d80989662b7a0
     Pseudo is Ultrasoft + core correction, Zval = 10.0
     Generated by new atomic code, or converted to UPF format
     Using radial grid of  907 points,  6 beta functions with: 
                l(1) =   0
                l(2) =   0
                l(3) =   1
                l(4) =   1
                l(5) =   2
                l(6) =   2
     Q(r) pseudized with  6 coefficients,  rinner =    1.200   1.200   1.200
                                                       1.200   1.200

     PseudoPot. # 2 for Ca read from file:
     ./pseudo/Ca.pbe-nsp-van.UPF
     MD5 check sum: 6471098428ff4fa451746d08035ff179
     Pseudo is Ultrasoft + core correction, Zval = 10.0
     Generated by new atomic code, or converted to UPF format
     Using radial grid of  845 points,  6 beta functions with: 
                l(1) =   0
                l(2) =   0
                l(3) =   1
                l(4) =   1
                l(5) =   2
                l(6) =   2
     Q(r) pseudized with  6 coefficients,  rinner =    1.200   1.200   1.200
                                                       1.200   1.200

     PseudoPot. # 3 for Cu read from file:
     ./pseudo/Cu.pbe-n-van_ak.UPF
     MD5 check sum: 34e3282627ffb533726feb647e090d62
     Pseudo is Ultrasoft + core correction, Zval = 11.0
     Generated by new atomic code, or converted to UPF format
     Using radial grid of  867 points,  6 beta functions with: 
                l(1) =   0
                l(2) =   0
                l(3) =   1
                l(4) =   1
                l(5) =   2
                l(6) =   2
     Q(r) pseudized with  8 coefficients,  rinner =    1.400   1.400   1.400
                                                       1.400   1.400

     PseudoPot. # 4 for O  read from file:
     ./pseudo/O.pbe-van_ak.UPF
     MD5 check sum: 783ce7fe4c79b6a4916957118fed0856
     Pseudo is Ultrasoft, Zval =  6.0
     Generated by new atomic code, or converted to UPF format
     Using radial grid of  737 points,  4 beta functions with: 
                l(1) =   0
                l(2) =   0
                l(3) =   1
                l(4) =   1
     Q(r) pseudized with  8 coefficients,  rinner =    0.800   0.800   0.800


     atomic species   valence    mass     pseudopotential
        Ba            10.00   137.32700     Ba( 1.00)
        Ca            10.00    40.07800     Ca( 1.00)
        Cu            11.00    63.54600     Cu( 1.00)
        O              6.00    15.99900     O ( 1.00)

      4 Sym. Ops. (no inversion) found



   Cartesian axes

     site n.     atom                  positions (alat units)
         1           O   tau(   1) = (   0.0000000   0.4735409  -0.0469745  )
         2           Cu  tau(   2) = (   0.0000000   0.0000000   0.0264565  )
         3           O   tau(   3) = (   0.0000000   0.0000000   0.5030914  )
         4           Ba  tau(   4) = (   0.5000000   0.4735409   0.5690292  )
         5           Cu  tau(   5) = (   0.0000000   0.0000000   1.0374254  )
         6           O   tau(   6) = (   0.5000000   0.0000000   1.0768099  )
         7           O   tau(   7) = (   0.0000000   0.4735409   1.1116985  )
         8           Ca  tau(   8) = (   0.5000000   0.4735409   1.4976260  )
         9           O   tau(   9) = (   0.0000000   0.4735409   1.8667529  )
        10           O   tau(  10) = (   0.5000000   0.0000000   1.9044124  )
        11           Cu  tau(  11) = (   0.0000000   0.0000000   1.9512546  )
        12           Ba  tau(  12) = (   0.5000000   0.4735409   2.4295764  )
        13           O   tau(  13) = (   0.0000000   0.0000000   2.5115362  )
        14           O   tau(  14) = (   0.0000000   0.4735409   2.9918528  )
        15           Cu  tau(  15) = (   0.0000000   0.0000000   2.9919088  )
        16           O   tau(  16) = (   0.0000000   0.0000000   3.4722686  )
        17           Ba  tau(  17) = (   0.5000000   0.4735409   3.5542208  )
        18           Cu  tau(  18) = (   0.0000000   0.0000000   4.0325248  )
        19           O   tau(  19) = (   0.5000000   0.0000000   4.0793669  )
        20           O   tau(  20) = (   0.0000000   0.4735409   4.1170213  )
        21           Ca  tau(  21) = (   0.5000000   0.4735409   4.4861584  )
        22           O   tau(  22) = (   0.0000000   0.4735409   5.1901317  )
        23           O   tau(  23) = (   0.5000000   0.0000000   5.2250203  )
        24           Cu  tau(  24) = (   0.0000000   0.0000000   5.2644074  )
        25           Ba  tau(  25) = (   0.5000000   0.4735409   5.7328010  )
        26           O   tau(  26) = (   0.0000000   0.0000000   5.7987286  )
        27           Cu  tau(  27) = (   0.0000000   0.0000000   6.2753686  )
        28           O   tau(  28) = (   0.0000000   0.4735409   6.3487869  )

     number of k points=    25  Gaussian smearing, width (Ry)=  0.0100
                       cart. coord. in units 2pi/alat
        k(    1) = (   0.0000000   0.0000000   0.0000000), wk =   0.0312500
        k(    2) = (   0.0000000   0.1319845   0.0000000), wk =   0.0625000
        k(    3) = (   0.0000000   0.2639689   0.0000000), wk =   0.0625000
        k(    4) = (   0.0000000   0.3959534   0.0000000), wk =   0.0625000
        k(    5) = (   0.0000000  -0.5279378   0.0000000), wk =   0.0312500
        k(    6) = (   0.1250000   0.0000000   0.0000000), wk =   0.0625000
        k(    7) = (   0.1250000   0.1319845   0.0000000), wk =   0.1250000
        k(    8) = (   0.1250000   0.2639689   0.0000000), wk =   0.1250000
        k(    9) = (   0.1250000   0.3959534   0.0000000), wk =   0.1250000
        k(   10) = (   0.1250000  -0.5279378   0.0000000), wk =   0.0625000
        k(   11) = (   0.2500000   0.0000000   0.0000000), wk =   0.0625000
        k(   12) = (   0.2500000   0.1319845   0.0000000), wk =   0.1250000
        k(   13) = (   0.2500000   0.2639689   0.0000000), wk =   0.1250000
        k(   14) = (   0.2500000   0.3959534   0.0000000), wk =   0.1250000
        k(   15) = (   0.2500000  -0.5279378   0.0000000), wk =   0.0625000
        k(   16) = (   0.3750000   0.0000000   0.0000000), wk =   0.0625000
        k(   17) = (   0.3750000   0.1319845   0.0000000), wk =   0.1250000
        k(   18) = (   0.3750000   0.2639689   0.0000000), wk =   0.1250000
        k(   19) = (   0.3750000   0.3959534   0.0000000), wk =   0.1250000
        k(   20) = (   0.3750000  -0.5279378   0.0000000), wk =   0.0625000
        k(   21) = (  -0.5000000   0.0000000   0.0000000), wk =   0.0312500
        k(   22) = (  -0.5000000   0.1319845   0.0000000), wk =   0.0625000
        k(   23) = (  -0.5000000   0.2639689   0.0000000), wk =   0.0625000
        k(   24) = (  -0.5000000   0.3959534   0.0000000), wk =   0.0625000
        k(   25) = (  -0.5000000  -0.5279378   0.0000000), wk =   0.0312500

     Dense  grid:  1443693 G-vectors     FFT dimensions: (  64,  64, 729)

     Smooth grid:   278079 G-vectors     FFT dimensions: (  40,  36, 432)

     Estimated max dynamical RAM per process >     460.71 MB

     Estimated total dynamical RAM >       9.00 GB

     Initial potential from superposition of free atoms

     starting charge  226.84630, renormalised to  227.00000

     negative rho (up, down):  3.477E-03 0.000E+00
     Starting wfcs are  195 randomized atomic wfcs

     total cpu time spent up to now is        9.6 secs

     Self-consistent Calculation

     iteration #  1     ecut=    60.00 Ry     beta= 0.50
     Davidson diagonalization with overlap
     ethr =  1.00E-02,  avg # of iterations =  2.0

     negative rho (up, down):  5.061E-04 0.000E+00

     total cpu time spent up to now is       25.0 secs

     total energy              =   -1840.97678906 Ry
     Harris-Foulkes estimate   =   -1845.29699441 Ry
     estimated scf accuracy    <      17.67093548 Ry

     iteration #  2     ecut=    60.00 Ry     beta= 0.50
     Davidson diagonalization with overlap
     ethr =  7.78E-03,  avg # of iterations =  2.0

     negative rho (up, down):  2.697E-04 0.000E+00

     total cpu time spent up to now is       40.2 secs

     total energy              =   -1842.53241575 Ry
     Harris-Foulkes estimate   =   -1843.19469038 Ry
     estimated scf accuracy    <       4.18441747 Ry

     iteration #  3     ecut=    60.00 Ry     beta= 0.50
     Davidson diagonalization with overlap
     ethr =  1.84E-03,  avg # of iterations =  2.0

     negative rho (up, down):  2.547E-04 0.000E+00

     total cpu time spent up to now is       55.1 secs

     total energy              =   -1842.79363284 Ry
     Harris-Foulkes estimate   =   -1842.94565201 Ry
     estimated scf accuracy    <       3.88941772 Ry

     iteration #  4     ecut=    60.00 Ry     beta= 0.50
     Davidson diagonalization with overlap
     ethr =  1.71E-03,  avg # of iterations =  1.0

     negative rho (up, down):  2.466E-04 0.000E+00

     total cpu time spent up to now is       69.0 secs

     total energy              =   -1842.78421178 Ry
     Harris-Foulkes estimate   =   -1842.88332993 Ry
     estimated scf accuracy    <       1.11427215 Ry

     iteration #  5     ecut=    60.00 Ry     beta= 0.50
     Davidson diagonalization with overlap
     ethr =  4.91E-04,  avg # of iterations =  3.7

     negative rho (up, down):  2.404E-04 0.000E+00

     total cpu time spent up to now is       85.9 secs

     total energy              =   -1842.77407427 Ry
     Harris-Foulkes estimate   =   -1842.82617972 Ry
     estimated scf accuracy    <       0.64552342 Ry

     iteration #  6     ecut=    60.00 Ry     beta= 0.50
     Davidson diagonalization with overlap
     ethr =  2.84E-04,  avg # of iterations =  5.6

     negative rho (up, down):  2.392E-04 0.000E+00

     total cpu time spent up to now is      105.4 secs

     total energy              =   -1842.79595099 Ry
     Harris-Foulkes estimate   =   -1842.80405455 Ry
     estimated scf accuracy    <       1.34595950 Ry

     iteration #  7     ecut=    60.00 Ry     beta= 0.50
     Davidson diagonalization with overlap
     ethr =  2.84E-04,  avg # of iterations =  1.4

     negative rho (up, down):  2.348E-04 0.000E+00

     total cpu time spent up to now is      119.6 secs

     total energy              =   -1842.78442869 Ry
     Harris-Foulkes estimate   =   -1842.80033402 Ry
     estimated scf accuracy    <       0.76373860 Ry

     iteration #  8     ecut=    60.00 Ry     beta= 0.50
     Davidson diagonalization with overlap
     ethr =  2.84E-04,  avg # of iterations =  1.6

     negative rho (up, down):  2.326E-04 0.000E+00

     total cpu time spent up to now is      134.1 secs

     total energy              =   -1842.77781234 Ry
     Harris-Foulkes estimate   =   -1842.79290166 Ry
     estimated scf accuracy    <       0.86747573 Ry

     iteration #  9     ecut=    60.00 Ry     beta= 0.50
     Davidson diagonalization with overlap
     ethr =  2.84E-04,  avg # of iterations =  2.7

     negative rho (up, down):  2.322E-04 0.000E+00

     total cpu time spent up to now is      149.8 secs

     total energy              =   -1842.77996253 Ry
     Harris-Foulkes estimate   =   -1842.78322980 Ry
     estimated scf accuracy    <       0.21921301 Ry

     iteration # 10     ecut=    60.00 Ry     beta= 0.50
     Davidson diagonalization with overlap
     ethr =  9.66E-05,  avg # of iterations =  6.1

     negative rho (up, down):  2.325E-04 0.000E+00

     total cpu time spent up to now is      169.6 secs

     total energy              =   -1842.77790029 Ry
     Harris-Foulkes estimate   =   -1842.78103536 Ry
     estimated scf accuracy    <       0.10021318 Ry

     iteration # 11     ecut=    60.00 Ry     beta= 0.50
     Davidson diagonalization with overlap
     ethr =  4.41E-05,  avg # of iterations =  3.4

     negative rho (up, down):  2.325E-04 0.000E+00

     total cpu time spent up to now is      186.2 secs

     total energy              =   -1842.77791378 Ry
     Harris-Foulkes estimate   =   -1842.77911726 Ry
     estimated scf accuracy    <       0.09398460 Ry

     iteration # 12     ecut=    60.00 Ry     beta= 0.50
     Davidson diagonalization with overlap
     ethr =  4.14E-05,  avg # of iterations =  1.1

     negative rho (up, down):  2.328E-04 0.000E+00

     total cpu time spent up to now is      200.0 secs

     total energy              =   -1842.77650600 Ry
     Harris-Foulkes estimate   =   -1842.77821306 Ry
     estimated scf accuracy    <       0.07231039 Ry

     iteration # 13     ecut=    60.00 Ry     beta= 0.50
     Davidson diagonalization with overlap
     ethr =  3.19E-05,  avg # of iterations =  3.1

     negative rho (up, down):  2.334E-04 0.000E+00

     total cpu time spent up to now is      216.0 secs

     total energy              =   -1842.77601450 Ry
     Harris-Foulkes estimate   =   -1842.77688584 Ry
     estimated scf accuracy    <       0.05566549 Ry

     iteration # 14     ecut=    60.00 Ry     beta= 0.50
     Davidson diagonalization with overlap
     ethr =  2.45E-05,  avg # of iterations =  1.3

     negative rho (up, down):  4.071E-04 0.000E+00

     total cpu time spent up to now is      230.1 secs

     total energy              =   -1842.77471328 Ry
     Harris-Foulkes estimate   =   -1842.77615446 Ry
     estimated scf accuracy    <       0.04421893 Ry

     iteration # 15     ecut=    60.00 Ry     beta= 0.50
     Davidson diagonalization with overlap
     ethr =  1.95E-05,  avg # of iterations =  3.8

     negative rho (up, down):  4.535E-03 0.000E+00

     total cpu time spent up to now is      246.8 secs

     total energy              =   -1842.77337435 Ry
     Harris-Foulkes estimate   =   -1842.77485224 Ry
     estimated scf accuracy    <       0.02953163 Ry

     iteration # 16     ecut=    60.00 Ry     beta= 0.50
     Davidson diagonalization with overlap
     ethr =  1.30E-05,  avg # of iterations =  7.0

     negative rho (up, down):  1.277E-02 0.000E+00

     total cpu time spent up to now is      267.1 secs

     total energy              =   -1842.77216609 Ry
     Harris-Foulkes estimate   =   -1842.77349526 Ry
     estimated scf accuracy    <       0.01642627 Ry

     iteration # 17     ecut=    60.00 Ry     beta= 0.50
     Davidson diagonalization with overlap
     ethr =  7.24E-06,  avg # of iterations =  8.4

     negative rho (up, down):  1.453E-02 0.000E+00

     total cpu time spent up to now is      289.8 secs

     total energy              =   -1842.77166526 Ry
     Harris-Foulkes estimate   =   -1842.77229802 Ry
     estimated scf accuracy    <       0.00827778 Ry

     iteration # 18     ecut=    60.00 Ry     beta= 0.50
     Davidson diagonalization with overlap
     c_bands:  1 eigenvalues not converged
     ethr =  3.65E-06,  avg # of iterations =  9.3

     negative rho (up, down):  8.006E-03 0.000E+00

     total cpu time spent up to now is      313.3 secs

     total energy              =   -1842.77135784 Ry
     Harris-Foulkes estimate   =   -1842.77177897 Ry
     estimated scf accuracy    <       0.00408196 Ry

     iteration # 19     ecut=    60.00 Ry     beta= 0.50
     Davidson diagonalization with overlap
     ethr =  1.80E-06,  avg # of iterations =  7.1

     negative rho (up, down):  1.604E-03 0.000E+00

     total cpu time spent up to now is      334.2 secs

     total energy              =   -1842.77129134 Ry
     Harris-Foulkes estimate   =   -1842.77140673 Ry
     estimated scf accuracy    <       0.00227354 Ry

     iteration # 20     ecut=    60.00 Ry     beta= 0.50
     Davidson diagonalization with overlap
     c_bands:  1 eigenvalues not converged
     c_bands:  1 eigenvalues not converged
     c_bands:  1 eigenvalues not converged
     c_bands:  1 eigenvalues not converged
     c_bands:  1 eigenvalues not converged
     c_bands:  2 eigenvalues not converged
     c_bands:  1 eigenvalues not converged
     ethr =  1.00E-06,  avg # of iterations = 11.3

     negative rho (up, down):  1.670E-03 0.000E+00

     total cpu time spent up to now is      360.3 secs

     total energy              =   -1842.77129308 Ry
     Harris-Foulkes estimate   =   -1842.77132475 Ry
     estimated scf accuracy    <       0.00145397 Ry

     iteration # 21     ecut=    60.00 Ry     beta= 0.50
     Davidson diagonalization with overlap
     c_bands:  1 eigenvalues not converged
     ethr =  6.41E-07,  avg # of iterations =  7.9

     negative rho (up, down):  1.004E-03 0.000E+00

     total cpu time spent up to now is      382.3 secs

     total energy              =   -1842.77129414 Ry
     Harris-Foulkes estimate   =   -1842.77132539 Ry
     estimated scf accuracy    <       0.00068314 Ry

     iteration # 22     ecut=    60.00 Ry     beta= 0.50
     Davidson diagonalization with overlap
     c_bands:  1 eigenvalues not converged
     ethr =  3.01E-07,  avg # of iterations =  5.2

     negative rho (up, down):  1.232E-03 0.000E+00

     total cpu time spent up to now is      400.8 secs

     total energy              =   -1842.77134534 Ry
     Harris-Foulkes estimate   =   -1842.77131641 Ry
     estimated scf accuracy    <       0.00013885 Ry

     iteration # 23     ecut=    60.00 Ry     beta= 0.50
     Davidson diagonalization with overlap
     c_bands:  1 eigenvalues not converged
     ethr =  6.12E-08,  avg # of iterations =  6.2

     negative rho (up, down):  1.125E-03 0.000E+00

     total cpu time spent up to now is      420.3 secs

     total energy              =   -1842.77135317 Ry
     Harris-Foulkes estimate   =   -1842.77135038 Ry
     estimated scf accuracy    <       0.00003821 Ry

     iteration # 24     ecut=    60.00 Ry     beta= 0.50
     Davidson diagonalization with overlap
     ethr =  1.68E-08,  avg # of iterations =  2.3

     negative rho (up, down):  1.203E-03 0.000E+00

     total cpu time spent up to now is      435.5 secs

     total energy              =   -1842.77135413 Ry
     Harris-Foulkes estimate   =   -1842.77135553 Ry
     estimated scf accuracy    <       0.00005073 Ry

     iteration # 25     ecut=    60.00 Ry     beta= 0.50
     Davidson diagonalization with overlap
     ethr =  1.68E-08,  avg # of iterations =  2.5

     negative rho (up, down):  1.465E-03 0.000E+00

     total cpu time spent up to now is      450.9 secs

     total energy              =   -1842.77135540 Ry
     Harris-Foulkes estimate   =   -1842.77135525 Ry
     estimated scf accuracy    <       0.00001739 Ry

     iteration # 26     ecut=    60.00 Ry     beta= 0.50
     Davidson diagonalization with overlap
     ethr =  7.66E-09,  avg # of iterations =  1.0

     negative rho (up, down):  1.540E-03 0.000E+00

     total cpu time spent up to now is      464.6 secs

     total energy              =   -1842.77135544 Ry
     Harris-Foulkes estimate   =   -1842.77135591 Ry
     estimated scf accuracy    <       0.00000288 Ry

     iteration # 27     ecut=    60.00 Ry     beta= 0.50
     Davidson diagonalization with overlap
     ethr =  1.27E-09,  avg # of iterations =  2.9

     negative rho (up, down):  1.513E-03 0.000E+00

     total cpu time spent up to now is      480.8 secs

     total energy              =   -1842.77135553 Ry
     Harris-Foulkes estimate   =   -1842.77135571 Ry
     estimated scf accuracy    <       0.00000173 Ry

     iteration # 28     ecut=    60.00 Ry     beta= 0.50
     Davidson diagonalization with overlap
     ethr =  7.62E-10,  avg # of iterations =  1.1

     negative rho (up, down):  1.488E-03 0.000E+00

     total cpu time spent up to now is      494.9 secs

     total energy              =   -1842.77135562 Ry
     Harris-Foulkes estimate   =   -1842.77135562 Ry
     estimated scf accuracy    <       0.00000085 Ry

     iteration # 29     ecut=    60.00 Ry     beta= 0.50
     Davidson diagonalization with overlap
     ethr =  3.75E-10,  avg # of iterations =  1.2

     negative rho (up, down):  1.461E-03 0.000E+00

     total cpu time spent up to now is      509.0 secs

     total energy              =   -1842.77135567 Ry
     Harris-Foulkes estimate   =   -1842.77135565 Ry
     estimated scf accuracy    <       0.00000052 Ry

     iteration # 30     ecut=    60.00 Ry     beta= 0.50
     Davidson diagonalization with overlap
     ethr =  2.31E-10,  avg # of iterations =  1.2

     negative rho (up, down):  1.465E-03 0.000E+00

     total cpu time spent up to now is      523.2 secs

     total energy              =   -1842.77135567 Ry
     Harris-Foulkes estimate   =   -1842.77135569 Ry
     estimated scf accuracy    <       0.00000016 Ry

     iteration # 31     ecut=    60.00 Ry     beta= 0.50
     Davidson diagonalization with overlap
     ethr =  7.01E-11,  avg # of iterations =  2.4

     negative rho (up, down):  1.491E-03 0.000E+00

     total cpu time spent up to now is      538.5 secs

     total energy              =   -1842.77135564 Ry
     Harris-Foulkes estimate   =   -1842.77135568 Ry
     estimated scf accuracy    <       0.00000007 Ry

     iteration # 32     ecut=    60.00 Ry     beta= 0.50
     Davidson diagonalization with overlap
     ethr =  3.19E-11,  avg # of iterations =  2.4

     negative rho (up, down):  1.497E-03 0.000E+00

     total cpu time spent up to now is      554.0 secs

     total energy              =   -1842.77135563 Ry
     Harris-Foulkes estimate   =   -1842.77135564 Ry
     estimated scf accuracy    <       0.00000007 Ry

     iteration # 33     ecut=    60.00 Ry     beta= 0.50
     Davidson diagonalization with overlap
     ethr =  2.92E-11,  avg # of iterations =  1.0

     negative rho (up, down):  1.497E-03 0.000E+00

     total cpu time spent up to now is      567.8 secs

     total energy              =   -1842.77135563 Ry
     Harris-Foulkes estimate   =   -1842.77135563 Ry
     estimated scf accuracy    <       0.00000002 Ry

     iteration # 34     ecut=    60.00 Ry     beta= 0.50
     Davidson diagonalization with overlap
     ethr =  7.75E-12,  avg # of iterations =  1.7

     negative rho (up, down):  1.495E-03 0.000E+00

     total cpu time spent up to now is      581.9 secs

     End of self-consistent calculation

          k = 0.0000 0.0000 0.0000 ( 34843 PWs)   bands (ev):

   -37.9768 -35.5752 -22.7799 -22.7409 -22.6757 -22.5199 -19.0280 -18.9828
   -18.9662 -17.0796 -16.6264 -16.6150 -15.4935 -15.2901 -15.0101 -14.8435
   -14.6601 -14.6373 -14.5608 -14.3686 -14.1702 -14.1643 -13.9707 -13.8119
   -13.7521 -13.6786 -13.6321  -7.9481  -7.9112  -7.8737  -7.7841  -7.7708
    -7.7562  -7.7009  -7.6808  -7.6138  -7.5877  -7.5647  -7.3986  -2.3187
    -2.3056  -2.2679  -2.1614  -2.0514  -1.8186  -1.7550  -1.6568  -1.5592
    -1.5422  -1.5272  -1.4721  -1.2223  -1.2090  -1.2029  -1.0807  -1.0401
    -0.8444  -0.7301  -0.6037  -0.4473  -0.4349  -0.4320  -0.3653  -0.3191
    -0.2974  -0.2534  -0.2382  -0.2333  -0.2299  -0.1977  -0.1954  -0.1725
    -0.1527  -0.0931  -0.0259   0.0017   0.1101   0.1104   0.1142   0.1359
     0.1419   0.1808   0.1848   0.1869   0.2285   0.3204   0.3225   0.3352
     0.4119   0.7663   0.8109   0.8932   0.9166   0.9726   1.0257   1.0275
     1.1114   1.1831   1.1982   1.3607   1.3802   1.4395   1.4854   1.5345
     1.5446   1.5702   1.6506   1.7324   1.8404   2.0466   2.0650   2.0976
     2.1540   2.1625   2.2151   2.2704   2.2861   2.5305   2.5472   4.2505
     5.2276   5.2784   5.8909   6.3129   6.5922   6.7747   6.7789   6.9779
     7.2220   7.5432   7.7438   7.9902   8.1601   8.2135   8.2409   8.2512
     8.4601

          k = 0.0000 0.1320 0.0000 ( 34781 PWs)   bands (ev):

   -37.9754 -35.5734 -22.7532 -22.7156 -22.6489 -22.4945 -19.0422 -18.9873
   -18.9644 -17.0434 -16.6875 -16.6240 -15.4391 -15.2015 -14.9584 -14.7898
   -14.6653 -14.6309 -14.5334 -14.3982 -14.1796 -14.1713 -13.9761 -13.8576
   -13.7987 -13.7113 -13.6896  -7.9465  -7.9108  -7.8259  -7.7550  -7.7358
    -7.7265  -7.7231  -7.7019  -7.6581  -7.6291  -7.5195  -7.4463  -2.4761
    -2.3772  -2.3407  -2.2710  -2.1540  -2.0439  -2.0153  -1.9287  -1.6648
    -1.6365  -1.6332  -1.6244  -1.5094  -1.4565  -1.3315  -1.2180  -1.1210
    -0.9835  -0.7527  -0.6578  -0.6170  -0.5447  -0.5221  -0.4850  -0.4496
    -0.4327  -0.3759  -0.3648  -0.3453  -0.3265  -0.1967  -0.1506  -0.1365
    -0.1305  -0.0552  -0.0149  -0.0045   0.0182   0.0200   0.1245   0.1337
     0.1413   0.1625   0.1941   0.1965   0.2523   0.2891   0.3808   0.4677
     0.6534   0.7198   0.8823   0.9586   1.0685   1.0904   1.1267   1.1334
     1.1515   1.1594   1.1997   1.4065   1.4428   1.4478   1.4807   1.5032
     1.5402   1.6230   1.6357   1.7097   1.8285   1.9627   1.9963   2.0675
     2.0699   2.0746   2.1529   2.4817   2.8070   2.8367   2.8760   4.4776
     5.6042   5.6355   6.1600   6.5817   6.7218   6.9890   7.0793   7.2092
     7.4885   7.5866   7.6886   8.1626   8.2266   8.2578   8.3403   8.5062
     8.7161

          k = 0.0000 0.2640 0.0000 ( 34663 PWs)   bands (ev):

   -37.9718 -35.5690 -22.6873 -22.6531 -22.5826 -22.4318 -19.0991 -18.9742
   -18.9601 -16.9513 -16.8418 -16.6184 -15.2913 -15.0018 -14.8645 -14.7141
   -14.6518 -14.6059 -14.4922 -14.4716 -14.1669 -14.1521 -14.0159 -13.9866
   -13.8972 -13.8024 -13.8017  -7.9432  -7.9104  -7.8134  -7.7694  -7.7527
    -7.7185  -7.7054  -7.6894  -7.6153  -7.6141  -7.5492  -7.4061  -2.9635
    -2.8224  -2.7094  -2.6498  -2.5894  -2.4172  -2.3900  -2.2698  -2.2563
    -2.2340  -1.9080  -1.6992  -1.5827  -1.4700  -1.4531  -1.3496  -1.2178
    -1.2082  -1.0285  -0.9570  -0.8820  -0.8243  -0.7957  -0.7583  -0.6885
    -0.6400  -0.6282  -0.5239  -0.5094  -0.5061  -0.4859  -0.4654  -0.4453
    -0.3046  -0.0975  -0.0532  -0.0113   0.0239   0.0475   0.1052   0.1750
     0.1914   0.2042   0.2328   0.3837   0.5741   0.6294   0.7093   0.7240
     0.8595   0.9158   0.9778   1.0063   1.1420   1.1716   1.1758   1.2054
     1.2084   1.2183   1.3220   1.3388   1.3770   1.3827   1.3957   1.6451
     1.6790   1.6922   1.7949   1.9152   1.9467   1.9849   1.9903   1.9913
     2.1195   2.1514   2.1868   2.5995   3.0516   3.0789   3.7144   4.9635
     6.4981   6.5212   6.7407   6.9605   7.2875   7.2886   7.3204   7.8996
     7.9695   8.1512   8.3257   8.3456   8.4255   8.6679   8.8046   8.8334
     9.0093

          k = 0.0000 0.3960 0.0000 ( 34610 PWs)   bands (ev):

   -37.9682 -35.5645 -22.6192 -22.5887 -22.5141 -22.3670 -19.1604 -18.9558
   -18.9552 -16.9781 -16.8497 -16.6127 -15.0907 -14.9232 -14.8929 -14.6788
   -14.6715 -14.4810 -14.4441 -14.4046 -14.1371 -14.0950 -14.0896 -14.0808
   -14.0373 -13.9459 -13.8742  -7.9378  -7.9103  -7.8916  -7.8600  -7.7977
    -7.7484  -7.6854  -7.6388  -7.5769  -7.4976  -7.4841  -7.2858  -3.4585
    -3.3276  -3.2774  -3.1327  -3.0478  -2.9841  -2.9662  -2.3606  -2.3487
    -2.2745  -2.0283  -1.7980  -1.7369  -1.7140  -1.5175  -1.3812  -1.3623
    -1.2004  -1.1599  -1.1446  -1.0938  -1.0638  -1.0339  -1.0161  -0.9419
    -0.9273  -0.8508  -0.8077  -0.7392  -0.7326  -0.6966  -0.5809  -0.5174
    -0.3241  -0.2175  -0.1052  -0.0007   0.0408   0.0653   0.1102   0.1368
     0.1650   0.1767   0.1782   0.5038   0.7932   0.8212   0.8899   0.9348
     0.9534   0.9599   0.9955   1.0365   1.0907   1.1151   1.1468   1.1491
     1.1688   1.3807   1.4622   1.5175   1.5310   1.6307   1.6378   1.7109
     1.7383   1.7593   1.9379   1.9950   2.0146   2.0759   2.1201   2.1821
     2.2648   2.3791   2.3880   2.5240   2.9459   2.9757   4.2721   5.5052
     6.9145   7.0476   7.3823   7.4460   7.4708   7.6085   8.2687   8.3486
     8.3804   8.6465   8.6959   8.7829   9.1017   9.1042   9.1700   9.2974
     9.4166

          k = 0.0000-0.5279 0.0000 ( 34682 PWs)   bands (ev):

   -37.9668 -35.5627 -22.5902 -22.5614 -22.4849 -22.3395 -19.1858 -18.9540
   -18.9470 -17.0302 -16.8047 -16.6104 -14.9654 -14.9336 -14.9038 -14.8510
   -14.5577 -14.4815 -14.2811 -14.2638 -14.2332 -14.1280 -14.1161 -14.0819
   -14.0611 -14.0531 -13.9097  -7.9299  -7.9212  -7.9099  -7.9000  -7.8268
    -7.7472  -7.6798  -7.6764  -7.5210  -7.4467  -7.4275  -7.2337  -3.7142
    -3.4922  -3.4562  -3.3253  -3.2264  -3.2041  -3.1924  -2.3767  -2.3657
    -2.2872  -2.1545  -1.9281  -1.8505  -1.5882  -1.4840  -1.4611  -1.3242
    -1.3037  -1.2452  -1.1970  -1.1895  -1.1788  -1.1293  -1.0435  -1.0365
    -1.0326  -0.9651  -0.9226  -0.8259  -0.8167  -0.7726  -0.6184  -0.5243
    -0.3180  -0.2896  -0.0852   0.0369   0.0381   0.0464   0.0713   0.1308
     0.1670   0.1703   0.1818   0.4333   0.7253   0.8258   0.8605   0.8686
     0.8715   1.0131   1.0672   1.0860   1.1298   1.1346   1.1505   1.2726
     1.3335   1.3865   1.4941   1.5847   1.6001   1.7394   1.7485   1.7817
     1.8351   1.9379   2.0242   2.0312   2.0564   2.0761   2.1864   2.2098
     2.2419   2.4949   2.5407   2.5491   2.7683   2.8028   4.4434   5.8058
     6.8301   6.9584   7.6799   7.6845   7.8581   7.9268   8.4022   8.4043
     8.7068   8.9465   8.9793   9.0178   9.1530   9.2551   9.2710   9.3240
     9.3583

          k = 0.1250 0.0000 0.0000 ( 34755 PWs)   bands (ev):

   -37.9760 -35.5741 -22.7619 -22.7239 -22.6575 -22.5027 -19.0358 -18.9819
   -18.9736 -17.0462 -16.7067 -16.6136 -15.4472 -15.1879 -14.9754 -14.8663
   -14.7057 -14.6706 -14.5660 -14.3934 -14.1791 -14.1727 -13.9826 -13.8353
   -13.8066 -13.7101 -13.6606  -7.9828  -7.9369  -7.8119  -7.8040  -7.7518
    -7.6995  -7.6940  -7.6483  -7.5840  -7.5548  -7.5039  -7.3682  -2.3618
    -2.3412  -2.3377  -2.1868  -2.1287  -1.8610  -1.8009  -1.7963  -1.7262
    -1.5588  -1.5193  -1.5168  -1.4422  -1.2069  -1.2008  -1.1192  -1.0612
    -0.8750  -0.8316  -0.6698  -0.6107  -0.5029  -0.4896  -0.4531  -0.4233
    -0.4204  -0.3696  -0.3279  -0.3038  -0.3014  -0.2566  -0.2040  -0.1860
    -0.1605  -0.1005  -0.0789  -0.0366   0.1031   0.1077   0.1139   0.1465
     0.2048   0.2058   0.2330   0.2852   0.2915   0.3619   0.3907   0.4330
     0.5564   0.6538   0.8024   0.8289   0.8820   0.9114   1.0279   1.1264
     1.1365   1.1989   1.2235   1.3583   1.3778   1.3782   1.4963   1.5303
     1.5463   1.6565   1.6961   1.8778   1.9578   1.9957   2.0312   2.1134
     2.1305   2.1868   2.2003   2.2258   2.3360   2.5820   2.5944   4.4373
     5.4080   5.4438   6.0649   6.4922   6.6974   6.9124   6.9891   7.1648
     7.4293   7.5594   7.6691   8.1116   8.1621   8.2598   8.2994   8.4868
     8.7387

          k = 0.1250 0.1320 0.0000 ( 34736 PWs)   bands (ev):

   -37.9746 -35.5723 -22.7360 -22.6992 -22.6315 -22.4780 -19.0442 -19.0001
   -18.9638 -17.0110 -16.7097 -16.6768 -15.3943 -15.1066 -14.9291 -14.8100
   -14.7001 -14.6535 -14.5361 -14.4183 -14.1801 -14.1715 -13.9884 -13.8718
   -13.8440 -13.7400 -13.7086  -7.9765  -7.9562  -7.8742  -7.8470  -7.8217
    -7.7359  -7.7218  -7.6106  -7.5976  -7.5386  -7.5175  -7.3273  -2.5008
    -2.4138  -2.3667  -2.2833  -2.1738  -2.1349  -2.0217  -1.9095  -1.8401
    -1.7710  -1.6753  -1.6272  -1.6248  -1.5284  -1.4418  -1.3337  -1.1577
    -1.0051  -0.9256  -0.7919  -0.6753  -0.6561  -0.6323  -0.5557  -0.5342
    -0.5015  -0.4900  -0.4742  -0.4039  -0.3548  -0.2549  -0.1947  -0.1527
    -0.1261  -0.1211  -0.0326  -0.0087   0.0232   0.0242   0.1087   0.1650
     0.1722   0.2004   0.2314   0.2393   0.2712   0.3013   0.5302   0.6978
     0.7282   0.7564   0.8860   0.9876   1.0452   1.0735   1.0799   1.1473
     1.1906   1.2333   1.2814   1.2961   1.3342   1.4438   1.4798   1.5193
     1.6036   1.6234   1.6677   1.6748   1.7813   1.8446   1.9730   2.1881
     2.3355   2.3624   2.5406   2.5676   2.8206   2.8437   2.8891   4.6073
     5.7466   5.7724   6.2803   6.7308   6.8047   7.0747   7.2847   7.4008
     7.4930   7.6568   7.7702   8.1340   8.3112   8.3742   8.4696   8.6592
     8.8762

          k = 0.1250 0.2640 0.0000 ( 34685 PWs)   bands (ev):

   -37.9710 -35.5679 -22.6722 -22.6386 -22.5673 -22.4171 -19.0973 -19.0006
   -18.9495 -16.9218 -16.8387 -16.6893 -15.2510 -14.9326 -14.8504 -14.7004
   -14.6622 -14.5905 -14.5012 -14.4661 -14.1624 -14.1458 -14.0377 -13.9792
   -13.9059 -13.8221 -13.8092  -8.0253  -7.9682  -7.9425  -7.9313  -7.9111
    -7.7534  -7.7386  -7.6972  -7.6012  -7.5296  -7.5086  -7.3217  -2.9901
    -2.8455  -2.6997  -2.6590  -2.5982  -2.4177  -2.3863  -2.2693  -2.2579
    -2.2546  -2.0924  -1.7907  -1.7453  -1.6460  -1.5013  -1.4784  -1.3746
    -1.2451  -1.0707  -1.0097  -0.9938  -0.9678  -0.8747  -0.8490  -0.8224
    -0.7543  -0.6825  -0.6642  -0.6192  -0.5558  -0.4907  -0.4880  -0.4755
    -0.3113  -0.1747  -0.1264  -0.0450  -0.0327   0.0676   0.1360   0.2101
     0.2667   0.3144   0.4047   0.5088   0.7133   0.7416   0.7763   0.7786
     0.8147   1.0299   1.0372   1.0976   1.1007   1.1159   1.2563   1.3163
     1.3355   1.3637   1.3906   1.4076   1.4309   1.4392   1.4946   1.5407
     1.6125   1.6563   1.7010   1.8536   1.9488   1.9650   2.0284   2.2233
     2.5340   2.5685   2.7030   2.7948   3.0624   3.0907   3.7152   5.0232
     6.5591   6.5830   6.7372   6.9933   7.1711   7.3478   7.3989   8.0639
     8.0888   8.1331   8.2445   8.5576   8.5998   8.7898   8.8655   8.9294
     9.0438

          k = 0.1250 0.3960 0.0000 ( 34670 PWs)   bands (ev):

   -37.9675 -35.5635 -22.6062 -22.5760 -22.5010 -22.3543 -19.1583 -18.9926
   -18.9344 -16.9729 -16.8232 -16.6807 -15.0567 -14.8882 -14.8631 -14.6654
   -14.5976 -14.4709 -14.4216 -14.3944 -14.1328 -14.1165 -14.0877 -14.0708
   -14.0211 -13.9482 -13.8687  -8.0557  -8.0136  -7.9619  -7.9490  -7.9227
    -7.7921  -7.7616  -7.7062  -7.6462  -7.5605  -7.5532  -7.3613  -3.4628
    -3.3625  -3.3176  -3.1527  -3.0765  -2.9757  -2.9593  -2.3689  -2.3536
    -2.2939  -2.0332  -1.8738  -1.7810  -1.6539  -1.6436  -1.5840  -1.4653
    -1.4051  -1.3680  -1.3123  -1.1812  -1.1390  -1.1045  -1.1003  -1.0082
    -0.9348  -0.8768  -0.8609  -0.8145  -0.8105  -0.7442  -0.7411  -0.5594
    -0.3614  -0.1964  -0.1652  -0.0571  -0.0186   0.1299   0.1955   0.2158
     0.2832   0.3388   0.4452   0.6783   0.7049   0.9122   0.9292   0.9701
     0.9956   1.0677   1.0941   1.1462   1.2004   1.2401   1.2508   1.2880
     1.3422   1.4575   1.5011   1.5676   1.5788   1.6628   1.7311   1.7681
     1.7742   1.8787   1.9670   2.0636   2.0824   2.3462   2.3556   2.3626
     2.4934   2.5346   2.6160   2.7262   3.0042   3.0238   4.2531   5.5089
     6.9174   6.9958   7.1289   7.3106   7.3456   7.6363   8.1398   8.2840
     8.3838   8.6663   8.6936   8.7654   8.9278   9.2304   9.3945   9.4278
     9.5647

          k = 0.1250-0.5279 0.0000 ( 34632 PWs)   bands (ev):

   -37.9660 -35.5617 -22.5783 -22.5496 -22.4729 -22.3277 -19.1837 -18.9892
   -18.9277 -17.0246 -16.7798 -16.6770 -14.9207 -14.8906 -14.8661 -14.8392
   -14.4852 -14.4426 -14.2768 -14.2632 -14.2131 -14.1487 -14.1029 -14.0646
   -14.0620 -14.0514 -13.8937  -8.0504  -8.0230  -7.9561  -7.9457  -7.9275
    -7.8037  -7.7664  -7.7149  -7.6804  -7.5866  -7.5784  -7.3866  -3.7103
    -3.5460  -3.5047  -3.3491  -3.2548  -3.2040  -3.1874  -2.3899  -2.3760
    -2.3078  -2.0654  -1.8113  -1.7503  -1.7340  -1.7078  -1.6009  -1.5067
    -1.4727  -1.4321  -1.3513  -1.3460  -1.2465  -1.2214  -1.1864  -1.0360
    -1.0313  -0.9365  -0.9318  -0.8886  -0.8786  -0.8388  -0.8382  -0.5763
    -0.3495  -0.2115  -0.1701  -0.0631   0.0038   0.1450   0.2148   0.2248
     0.3028   0.3153   0.4460   0.6552   0.7186   0.8796   0.9436   0.9667
     0.9669   1.0084   1.0385   1.2254   1.2455   1.2851   1.3161   1.3645
     1.3730   1.4893   1.5198   1.6037   1.7849   1.7897   1.8128   2.0190
     2.0430   2.0496   2.0519   2.2321   2.2528   2.3567   2.3947   2.4464
     2.4803   2.5116   2.5216   2.5686   2.8768   2.8859   4.4140   5.7591
     6.8704   6.9187   7.2205   7.5320   7.6162   7.7214   8.3253   8.3313
     8.5573   8.7325   9.0606   9.1927   9.2763   9.3253   9.3858   9.4012
     9.5509

          k = 0.2500 0.0000 0.0000 ( 34786 PWs)   bands (ev):

   -37.9741 -35.5715 -22.7176 -22.6821 -22.6128 -22.4605 -19.0723 -18.9795
   -18.9731 -16.9608 -16.8709 -16.6103 -15.3251 -14.9902 -14.9421 -14.9298
   -14.7873 -14.6966 -14.5900 -14.4687 -14.1933 -14.1833 -14.0314 -13.9439
   -13.8676 -13.7974 -13.7171  -8.0231  -7.9384  -7.7944  -7.7453  -7.7253
    -7.6252  -7.6224  -7.5676  -7.5103  -7.4729  -7.4197  -7.2926  -2.6654
    -2.5545  -2.4560  -2.3665  -2.1982  -2.1609  -2.0541  -2.0335  -1.7356
    -1.6367  -1.5105  -1.4601  -1.4533  -1.2301  -1.2036  -1.1973  -1.1222
    -1.1047  -0.9586  -0.9489  -0.8312  -0.7691  -0.7582  -0.7145  -0.6265
    -0.6225  -0.5195  -0.4941  -0.4915  -0.4611  -0.2956  -0.2606  -0.2394
    -0.2197  -0.1831  -0.1766  -0.0776   0.0782   0.0904   0.0946   0.1960
     0.2400   0.2786   0.3350   0.3864   0.3946   0.4624   0.4701   0.5583
     0.6510   0.6711   0.7581   0.9208   0.9550   0.9924   1.0517   1.1045
     1.2253   1.2575   1.2914   1.3192   1.3487   1.4017   1.4299   1.4635
     1.5886   1.6682   1.7508   1.8671   1.9048   2.0119   2.0523   2.0526
     2.1406   2.2287   2.2842   2.4006   2.5027   2.6899   2.7360   4.8687
     5.8655   5.8845   6.4097   6.7524   7.0563   7.1743   7.5141   7.5657
     7.6870   7.8099   8.0065   8.2906   8.3299   8.5128   8.6361   8.8197
     9.0400

          k = 0.2500 0.1320 0.0000 ( 34751 PWs)   bands (ev):

   -37.9727 -35.5697 -22.6937 -22.6592 -22.5888 -22.4376 -19.0703 -19.0160
   -18.9552 -16.9287 -16.8644 -16.6764 -15.2763 -14.9399 -14.9082 -14.8664
   -14.7381 -14.6516 -14.5546 -14.4815 -14.1791 -14.1686 -14.0296 -13.9473
   -13.9025 -13.8184 -13.7444  -8.0392  -8.0070  -7.8994  -7.8620  -7.8249
    -7.7652  -7.7199  -7.6014  -7.5340  -7.4682  -7.4410  -7.2590  -2.7371
    -2.6043  -2.4799  -2.3985  -2.2916  -2.1900  -2.1498  -2.0817  -2.0450
    -1.9452  -1.8574  -1.6980  -1.6177  -1.6096  -1.4443  -1.3868  -1.2957
    -1.1793  -1.1185  -1.0393  -0.9990  -0.9317  -0.8705  -0.8192  -0.6684
    -0.6213  -0.6046  -0.6023  -0.5225  -0.4426  -0.3429  -0.3248  -0.2322
    -0.2044  -0.1740  -0.0205   0.0117   0.0356   0.0622   0.1411   0.1979
     0.2033   0.2541   0.2784   0.3414   0.3448   0.5876   0.6364   0.7818
     0.8574   0.9063   0.9353   0.9511   1.0770   1.0997   1.1341   1.1874
     1.2293   1.2908   1.3171   1.3444   1.3907   1.4455   1.4890   1.5119
     1.5455   1.6225   1.6805   1.7379   1.7573   1.9083   2.0058   2.3276
     2.6168   2.6785   2.7903   2.8689   2.8832   2.9496   2.9635   4.9546
     6.1267   6.1466   6.5134   6.7861   7.2059   7.2621   7.3668   7.8228
     7.8913   7.9862   8.1266   8.3269   8.5055   8.6327   8.7791   8.9323
     9.1172

          k = 0.2500 0.2640 0.0000 ( 34733 PWs)   bands (ev):

   -37.9691 -35.5653 -22.6350 -22.6030 -22.5299 -22.3812 -19.0939 -19.0509
   -18.9357 -16.8643 -16.8404 -16.8130 -15.1453 -14.8507 -14.8377 -14.6955
   -14.5981 -14.5331 -14.5274 -14.4655 -14.1540 -14.1301 -14.0785 -13.9653
   -13.9335 -13.8753 -13.8175  -8.2272  -8.1637  -8.1340  -8.0001  -7.9238
    -7.9030  -7.7650  -7.7161  -7.6538  -7.5809  -7.5606  -7.3812  -3.1398
    -2.9828  -2.7402  -2.7313  -2.6307  -2.4464  -2.4309  -2.3773  -2.3019
    -2.2673  -2.2484  -2.1607  -2.1123  -2.0171  -1.6517  -1.5640  -1.4405
    -1.4114  -1.3473  -1.2914  -1.2258  -1.1743  -1.0267  -0.9615  -0.8551
    -0.7488  -0.7330  -0.7223  -0.6893  -0.6186  -0.5963  -0.5803  -0.5507
    -0.3882  -0.3390  -0.3242   0.0007   0.1182   0.1464   0.2391   0.3610
     0.4511   0.5669   0.5962   0.7049   0.7990   0.8126   0.8545   0.9706
     0.9815   1.0362   1.1409   1.1472   1.2662   1.2807   1.3289   1.3936
     1.4679   1.4760   1.5098   1.5495   1.5671   1.5735   1.6311   1.6458
     1.7054   1.7179   1.7372   1.8604   1.8689   1.9024   2.1433   2.3456
     2.9976   3.0278   3.1824   3.2823   3.4173   3.4336   3.7181   5.2001
     6.6011   6.6695   6.7007   6.8338   7.1209   7.5122   7.5988   8.1215
     8.2001   8.3552   8.4085   8.7439   8.9474   8.9968   9.0717   9.2467
     9.2723

          k = 0.2500 0.3960 0.0000 ( 34712 PWs)   bands (ev):

   -37.9656 -35.5609 -22.5746 -22.5452 -22.4693 -22.3233 -19.1533 -19.0465
   -18.9181 -16.9609 -16.8288 -16.7545 -14.9708 -14.8070 -14.7903 -14.6396
   -14.4686 -14.4296 -14.3654 -14.3601 -14.2032 -14.0862 -14.0822 -14.0325
   -13.9801 -13.9559 -13.8614  -8.3473  -8.2923  -8.2539  -8.0892  -7.9743
    -7.9729  -7.8677  -7.8429  -7.8390  -7.7453  -7.6963  -7.5935  -3.6026
    -3.4824  -3.3784  -3.2398  -3.1903  -2.9550  -2.9417  -2.4434  -2.4400
    -2.3944  -2.2743  -2.1271  -2.0619  -1.9885  -1.9687  -1.7946  -1.7274
    -1.5639  -1.5293  -1.4435  -1.3637  -1.3220  -1.1784  -1.0987  -1.0262
    -0.9949  -0.8576  -0.8078  -0.7922  -0.7885  -0.7858  -0.6995  -0.6934
    -0.5311  -0.4121  -0.3949   0.0944   0.1713   0.2630   0.3261   0.4388
     0.5888   0.7447   0.7873   0.8149   0.9893   1.0133   1.0193   1.1303
     1.2596   1.2992   1.3240   1.3350   1.4112   1.4598   1.4850   1.5295
     1.5343   1.5485   1.6162   1.6868   1.7064   1.7415   1.7882   1.8417
     1.8964   1.9292   2.0339   2.0800   2.2207   2.2678   2.2890   2.4152
     2.8297   2.8660   3.3997   3.5123   3.6501   3.6699   4.2014   5.5102
     6.4713   6.7694   6.8772   6.9435   7.0879   7.7518   7.7614   8.2322
     8.4226   8.7974   8.8659   8.9035   9.0479   9.2915   9.6872   9.7741
     9.7975

          k = 0.2500-0.5279 0.0000 ( 34740 PWs)   bands (ev):

   -37.9641 -35.5591 -22.5490 -22.5208 -22.4436 -22.2989 -19.1786 -19.0437
   -18.9108 -17.0111 -16.8233 -16.7149 -14.8127 -14.8038 -14.7797 -14.7709
   -14.3527 -14.3496 -14.2683 -14.2606 -14.2134 -14.1607 -14.0565 -14.0460
   -14.0396 -14.0260 -13.8605  -8.3474  -8.3106  -8.2530  -8.0920  -8.0622
    -8.0047  -7.9653  -7.9553  -7.9337  -7.7774  -7.7194  -7.6941  -3.7970
    -3.6846  -3.6339  -3.4453  -3.3841  -3.1827  -3.1700  -2.4480  -2.4179
    -2.4096  -2.2398  -2.1653  -2.0912  -2.0035  -1.9489  -1.9268  -1.8430
    -1.6768  -1.6185  -1.4786  -1.4023  -1.3500  -1.2519  -1.1835  -1.1250
    -1.0352  -0.9311  -0.8670  -0.8569  -0.8323  -0.8043  -0.7169  -0.6947
    -0.5444  -0.4399  -0.4186   0.1095   0.2097   0.2897   0.3570   0.4772
     0.6426   0.8021   0.8186   0.8974   1.0456   1.0914   1.1391   1.1973
     1.2166   1.2409   1.3569   1.4121   1.4703   1.4718   1.4928   1.5175
     1.6169   1.6271   1.7019   1.7624   1.8031   1.9222   1.9486   2.0040
     2.0432   2.0515   2.0882   2.2083   2.4031   2.4435   2.4613   2.4680
     2.6084   2.6535   3.4213   3.5326   3.6676   3.7048   4.3337   5.6486
     6.3667   6.7603   6.8419   6.9824   7.0411   7.7299   7.8324   8.2507
     8.7061   8.8238   9.1960   9.2984   9.4400   9.5296   9.6228   9.6688
     9.8543

          k = 0.3750 0.0000 0.0000 ( 34726 PWs)   bands (ev):

   -37.9722 -35.5688 -22.6721 -22.6393 -22.5669 -22.4172 -19.1171 -18.9772
   -18.9631 -17.0108 -16.8656 -16.6070 -15.1884 -15.0344 -15.0209 -14.9882
   -14.6430 -14.5997 -14.5865 -14.5717 -14.2056 -14.1833 -14.1454 -14.0405
   -13.9182 -13.9056 -13.7589  -8.0355  -7.9209  -7.7644  -7.7181  -7.6604
    -7.5755  -7.5682  -7.4832  -7.4335  -7.3872  -7.3728  -7.2138  -2.9900
    -2.8822  -2.7226  -2.6993  -2.3206  -2.2804  -2.2202  -1.8941  -1.6536
    -1.5735  -1.5544  -1.4920  -1.3685  -1.3589  -1.3253  -1.2052  -1.1996
    -1.1982  -1.1537  -1.0978  -1.0350  -1.0076  -0.9726  -0.8798  -0.8699
    -0.8139  -0.7197  -0.6964  -0.6377  -0.4953  -0.4225  -0.3925  -0.2664
    -0.2263  -0.2166  -0.1896  -0.1879   0.0775   0.0817   0.1204   0.1780
     0.2340   0.2691   0.3981   0.4141   0.4389   0.4511   0.4764   0.4872
     0.5446   0.7569   0.8361   0.9233   0.9777   1.1062   1.1763   1.1949
     1.2124   1.2417   1.3539   1.3609   1.3938   1.5174   1.5298   1.6385
     1.6761   1.6906   1.7311   1.7965   1.8206   1.9291   2.0968   2.1194
     2.1490   2.2585   2.3319   2.4938   2.6110   2.8142   2.8267   5.3793
     6.4090   6.5152   6.5458   6.7996   7.3803   7.4185   7.7813   8.0102
     8.0666   8.2934   8.3132   8.4874   8.6387   8.7272   8.8108   9.2123
     9.3412

          k = 0.3750 0.1320 0.0000 ( 34759 PWs)   bands (ev):

   -37.9707 -35.5670 -22.6504 -22.6183 -22.5452 -22.3962 -19.1138 -19.0154
   -18.9447 -17.0022 -16.8365 -16.6714 -15.1413 -14.9863 -14.9734 -14.9203
   -14.6034 -14.5833 -14.5371 -14.5296 -14.1770 -14.1618 -14.1204 -14.0238
   -13.9402 -13.9251 -13.7683  -8.0544  -7.9785  -7.8525  -7.8237  -7.7745
    -7.7405  -7.6995  -7.5729  -7.5584  -7.5126  -7.4784  -7.3071  -3.0663
    -2.9437  -2.7595  -2.7435  -2.3195  -2.2753  -2.2619  -2.1835  -2.0351
    -1.8582  -1.7912  -1.7016  -1.6062  -1.5986  -1.4971  -1.4740  -1.4446
    -1.4061  -1.3022  -1.2704  -1.1862  -1.0748  -1.0696  -0.9264  -0.7886
    -0.7815  -0.7656  -0.6796  -0.5956  -0.5256  -0.4059  -0.3897  -0.2669
    -0.2580  -0.2110  -0.0477   0.0043   0.0431   0.0959   0.1874   0.2013
     0.2184   0.2457   0.3332   0.4500   0.4622   0.5037   0.6766   0.7810
     0.7988   0.8701   0.9697   1.0802   1.1597   1.1685   1.2169   1.2203
     1.2617   1.3037   1.3391   1.3702   1.3808   1.5486   1.5647   1.6528
     1.6877   1.7240   1.7839   1.7934   1.8051   1.8846   2.0573   2.3023
     2.7498   2.7775   2.8120   2.9375   2.9927   3.0954   3.1534   5.4054
     6.4554   6.6637   6.6904   6.6981   7.2490   7.4994   7.8284   8.0756
     8.1150   8.2618   8.3547   8.5091   8.8446   8.9390   9.0032   9.2906
     9.4517

          k = 0.3750 0.2640 0.0000 ( 34779 PWs)   bands (ev):

   -37.9672 -35.5627 -22.5971 -22.5667 -22.4917 -22.3447 -19.1071 -19.0818
   -18.9235 -16.9818 -16.8158 -16.7614 -15.0203 -14.8642 -14.8517 -14.7306
   -14.5913 -14.5057 -14.4240 -14.3818 -14.1368 -14.1136 -14.1039 -13.9829
   -13.9693 -13.9450 -13.8114  -8.2799  -8.2234  -8.1852  -8.0425  -7.9585
    -7.9420  -7.8362  -7.8297  -7.8102  -7.7141  -7.6938  -7.5790  -3.4140
    -3.2588  -2.9834  -2.9703  -2.6160  -2.5655  -2.4911  -2.3776  -2.3711
    -2.3442  -2.3418  -2.2404  -2.2167  -2.2086  -1.9644  -1.7680  -1.6276
    -1.5483  -1.4685  -1.2686  -1.2247  -1.1359  -0.9987  -0.9298  -0.8845
    -0.8614  -0.8460  -0.8348  -0.7405  -0.6886  -0.6389  -0.6252  -0.6187
    -0.4762  -0.3637  -0.3457   0.0509   0.1887   0.2481   0.3557   0.4669
     0.6062   0.7017   0.7325   0.8331   0.8492   0.8807   1.0174   1.0349
     1.0632   1.1748   1.2272   1.2705   1.3071   1.3299   1.4209   1.4339
     1.5107   1.5501   1.6234   1.6500   1.6923   1.7096   1.7323   1.7567
     1.7801   1.8067   1.8361   1.8445   1.8811   2.1172   2.1715   2.2821
     2.9989   3.0255   3.6068   3.7137   3.7467   3.8259   3.8690   5.4489
     6.3182   6.5803   6.7099   6.7590   7.1199   7.6528   7.6755   8.2101
     8.4156   8.4239   8.4645   8.8437   9.2861   9.4230   9.4686   9.5481
     9.6103

          k = 0.3750 0.3960 0.0000 ( 34747 PWs)   bands (ev):

   -37.9637 -35.5584 -22.5425 -22.5139 -22.4370 -22.2919 -19.1482 -19.0961
   -18.9053 -16.9644 -16.9426 -16.6816 -14.8762 -14.7293 -14.7168 -14.6272
   -14.4709 -14.4118 -14.3071 -14.2237 -14.2172 -14.0698 -14.0695 -13.9770
   -13.9715 -13.9375 -13.8715  -8.5457  -8.4930  -8.4514  -8.2816  -8.2108
    -8.1212  -8.1163  -8.0303  -7.9610  -7.8727  -7.7978  -7.7267  -3.8775
    -3.7380  -3.4390  -3.4167  -3.3291  -2.9344  -2.9235  -2.6461  -2.6212
    -2.5329  -2.4616  -2.2690  -2.2687  -2.2292  -2.2129  -2.0786  -1.8326
    -1.7407  -1.6466  -1.2956  -1.2118  -1.1974  -1.1779  -1.1028  -1.0574
    -1.0306  -0.9501  -0.9343  -0.8576  -0.8566  -0.7844  -0.7714  -0.6846
    -0.6173  -0.3855  -0.3664   0.1852   0.3039   0.3411   0.5617   0.6719
     0.8336   0.9660   1.0195   1.1503   1.1818   1.2013   1.2558   1.2743
     1.3665   1.4438   1.4667   1.4945   1.5148   1.5272   1.5937   1.6251
     1.6420   1.7325   1.7759   1.8248   1.8793   1.9120   1.9199   1.9700
     2.0056   2.0210   2.0936   2.1790   2.1898   2.1988   2.4283   2.4981
     2.8202   2.8510   4.0500   4.1761   4.2623   4.3416   4.3463   5.5034
     5.8915   6.3996   6.4066   6.7928   7.0986   7.3867   7.8345   8.3041
     8.5759   8.9872   9.1014   9.1566   9.2370   9.4490   9.4884   9.5247
     9.5811

          k = 0.3750-0.5279 0.0000 ( 34780 PWs)   bands (ev):

   -37.9622 -35.5566 -22.5194 -22.4916 -22.4139 -22.2696 -19.1736 -19.0931
   -18.8979 -16.9977 -16.9519 -16.6462 -14.7893 -14.6702 -14.6679 -14.6549
   -14.3870 -14.2730 -14.2631 -14.2589 -14.1349 -14.0883 -14.0484 -14.0381
   -13.9953 -13.9667 -13.8451  -8.6278  -8.5881  -8.5324  -8.3681  -8.3559
    -8.2690  -8.2670  -8.0613  -7.9874  -7.9754  -7.8210  -7.7417  -4.0736
    -3.9442  -3.6685  -3.6244  -3.5682  -3.1596  -3.1495  -2.6518  -2.6398
    -2.5524  -2.4736  -2.3719  -2.2633  -2.2228  -2.2123  -2.1854  -1.9139
    -1.8358  -1.6698  -1.3529  -1.3033  -1.2572  -1.2334  -1.1743  -1.1265
    -1.0659  -0.9730  -0.9481  -0.9438  -0.9209  -0.8714  -0.7921  -0.7102
    -0.5845  -0.3711  -0.3562   0.2163   0.3270   0.3657   0.6312   0.7816
     0.9202   1.0914   1.1639   1.1934   1.2756   1.3143   1.3365   1.3526
     1.3722   1.4796   1.5648   1.5862   1.6051   1.6134   1.6927   1.7494
     1.7717   1.8322   1.8383   1.9016   1.9185   2.0338   2.0580   2.0625
     2.1502   2.1740   2.2304   2.2988   2.3801   2.3840   2.4988   2.5777
     2.6138   2.6657   4.1249   4.3081   4.4118   4.4833   4.4944   5.5479
     5.6921   6.2288   6.2333   6.9110   7.0626   7.2948   7.8924   8.3712
     8.6778   9.0419   9.1560   9.1774   9.3703   9.3799   9.4601   9.6599
     9.7866

          k =-0.5000 0.0000 0.0000 ( 34714 PWs)   bands (ev):

   -37.9714 -35.5677 -22.6530 -22.6214 -22.5476 -22.3990 -19.1362 -18.9762
   -18.9581 -17.0632 -16.8234 -16.6056 -15.1472 -15.0898 -15.0693 -14.9766
   -14.6598 -14.6586 -14.4997 -14.3834 -14.3100 -14.1882 -14.1785 -14.0864
   -13.9932 -13.9174 -13.7728  -8.0352  -7.9106  -7.7477  -7.7017  -7.6373
    -7.5606  -7.5508  -7.4471  -7.4007  -7.3604  -7.3505  -7.1801  -3.1183
    -3.0242  -2.8643  -2.8427  -2.3456  -2.3187  -2.2170  -1.8028  -1.6430
    -1.6060  -1.5903  -1.4622  -1.3909  -1.3662  -1.2985  -1.2531  -1.2372
    -1.2238  -1.2091  -1.2016  -1.1650  -1.0842  -0.9954  -0.9833  -0.9058
    -0.8920  -0.8032  -0.7823  -0.7063  -0.4958  -0.4883  -0.4510  -0.2852
    -0.2676  -0.2105  -0.2065  -0.1938   0.0722   0.0764   0.1100   0.1857
     0.2138   0.2677   0.3860   0.4138   0.4216   0.4391   0.4726   0.4834
     0.5375   0.7485   0.8424   0.8795   0.9619   1.1446   1.1613   1.1876
     1.3102   1.3778   1.4080   1.4127   1.4304   1.4651   1.6022   1.6194
     1.6645   1.6784   1.7528   1.8810   1.8962   1.9678   2.1152   2.1164
     2.1618   2.2395   2.3347   2.5007   2.6260   2.8380   2.8502   5.8092
     6.0632   6.9120   7.2876   7.3289   7.3291   7.3399   7.3552   7.5234
     8.2818   8.3217   8.5563   8.6084   8.7209   9.0219   9.0871   9.2335
     9.4668

          k =-0.5000 0.1320 0.0000 ( 34798 PWs)   bands (ev):

   -37.9699 -35.5659 -22.6322 -22.6011 -22.5268 -22.3788 -19.1328 -19.0141
   -18.9400 -17.0539 -16.7959 -16.6693 -15.0906 -15.0333 -15.0126 -14.9159
   -14.6518 -14.6194 -14.4595 -14.3422 -14.2521 -14.1659 -14.1568 -14.0546
   -13.9902 -13.9548 -13.7756  -8.0499  -7.9497  -7.7953  -7.7667  -7.7262
    -7.6831  -7.6807  -7.6500  -7.6152  -7.5450  -7.4799  -7.3933  -3.2017
    -3.0922  -2.9072  -2.8947  -2.3506  -2.3195  -2.2550  -2.1546  -2.0032
    -1.8032  -1.7544  -1.6891  -1.6369  -1.6008  -1.5935  -1.5034  -1.4945
    -1.4299  -1.4170  -1.2931  -1.2835  -1.1792  -1.0814  -0.9390  -0.8589
    -0.8428  -0.8153  -0.6873  -0.6330  -0.5463  -0.4421  -0.4212  -0.2817
    -0.2649  -0.2440  -0.0620   0.0056   0.0548   0.0973   0.1911   0.2036
     0.2378   0.2524   0.3477   0.4401   0.5251   0.5333   0.6087   0.7036
     0.7806   0.8664   0.9761   1.0801   1.1532   1.1772   1.2150   1.2897
     1.3010   1.3024   1.3430   1.4248   1.4301   1.5870   1.6190   1.6453
     1.7205   1.7520   1.7798   1.8870   1.8883   1.9319   2.1475   2.2777
     2.7591   2.7772   2.8316   2.9543   3.0135   3.1189   3.2067   5.7497
     6.1464   6.7360   7.1353   7.1805   7.2262   7.5622   7.6426   7.6756
     8.1870   8.2833   8.4907   8.7291   8.8432   9.2923   9.3278   9.4273
     9.5338

          k =-0.5000 0.2640 0.0000 ( 34772 PWs)   bands (ev):

   -37.9664 -35.5616 -22.5812 -22.5515 -22.4757 -22.3293 -19.1246 -19.0823
   -18.9185 -17.0319 -16.8125 -16.7249 -14.9586 -14.8828 -14.8632 -14.7362
   -14.6381 -14.5228 -14.3642 -14.2380 -14.1552 -14.1148 -14.1064 -14.0213
   -13.9856 -13.9764 -13.8051  -8.2188  -8.1843  -8.1155  -8.0678  -8.0009
    -7.9825  -7.9752  -7.9218  -7.8995  -7.7527  -7.7424  -7.6799  -3.5467
    -3.3972  -3.1281  -3.1063  -2.6068  -2.5854  -2.5166  -2.4036  -2.3840
    -2.3601  -2.3523  -2.2482  -2.2314  -2.2138  -2.0867  -1.8908  -1.6634
    -1.6273  -1.5730  -1.2365  -1.1523  -0.9922  -0.9582  -0.9509  -0.9434
    -0.9273  -0.8969  -0.8430  -0.7731  -0.7098  -0.6637  -0.6533  -0.6291
    -0.4798  -0.3841  -0.3547   0.0701   0.2091   0.2753   0.4287   0.5117
     0.6639   0.7429   0.7963   0.8629   0.8764   0.9516   1.0348   1.1008
     1.1369   1.1849   1.2003   1.2256   1.3481   1.3971   1.4508   1.4904
     1.5068   1.5566   1.6014   1.6998   1.7096   1.7144   1.7720   1.8486
     1.8587   1.8745   1.9013   1.9214   1.9394   1.9805   2.2240   2.3096
     2.9923   3.0171   3.6681   3.7993   3.8755   3.9489   4.0003   5.6026
     6.1399   6.4858   6.7056   6.7626   7.0956   7.5854   7.7261   8.2205
     8.4532   8.4621   8.8919   9.0191   9.1133   9.4833   9.5992   9.6000
     9.7721

          k =-0.5000 0.3960 0.0000 ( 34764 PWs)   bands (ev):

   -37.9629 -35.5573 -22.5290 -22.5008 -22.4235 -22.2787 -19.1458 -19.1164
   -18.9002 -17.0103 -16.9416 -16.6493 -14.8324 -14.7001 -14.6865 -14.6286
   -14.4800 -14.4287 -14.2827 -14.2095 -14.1280 -14.0665 -14.0567 -13.9850
   -13.9616 -13.9215 -13.8821  -8.5939  -8.5493  -8.4976  -8.3559  -8.3293
    -8.2706  -8.2650  -8.0519  -8.0035  -7.9772  -7.8115  -7.7350  -4.0120
    -3.8683  -3.5515  -3.5240  -3.3301  -2.9258  -2.9158  -2.7032  -2.6910
    -2.6072  -2.5304  -2.3637  -2.2853  -2.2608  -2.2250  -2.1745  -1.8707
    -1.8179  -1.6974  -1.2240  -1.2204  -1.1744  -1.1236  -1.0965  -1.0861
    -1.0341  -0.9872  -0.9278  -0.9230  -0.8766  -0.8134  -0.7715  -0.7599
    -0.5958  -0.3473  -0.3325   0.2120   0.3453   0.3748   0.6755   0.7664
     0.9386   1.0672   1.0985   1.2632   1.2886   1.3104   1.3764   1.3811
     1.3836   1.3978   1.4750   1.5720   1.5799   1.5828   1.6014   1.6459
     1.6912   1.7428   1.8459   1.8687   1.9395   1.9670   1.9954   1.9994
     2.0596   2.0828   2.1590   2.1671   2.2135   2.2821   2.3759   2.6232
     2.8090   2.8347   4.0787   4.3849   4.5207   4.5901   4.5959   5.5110
     5.6583   6.1990   6.2105   6.7951   7.0537   7.2364   7.8642   8.3548
     8.8907   8.9436   8.9931   9.0397   9.3570   9.4459   9.5031   9.6038
     9.6179

          k =-0.5000-0.5279 0.0000 ( 34796 PWs)   bands (ev):

   -37.9615 -35.5555 -22.5070 -22.4794 -22.4014 -22.2574 -19.1715 -19.1130
   -18.8929 -17.0015 -16.9922 -16.6158 -14.7807 -14.6259 -14.6023 -14.5983
   -14.4273 -14.2620 -14.2585 -14.2548 -14.0839 -14.0456 -14.0428 -14.0340
   -13.9861 -13.9213 -13.8583  -8.7399  -8.7008  -8.6440  -8.4797  -8.4720
    -8.3865  -8.3849  -8.1008  -8.0700  -8.0048  -7.8378  -7.7520  -4.2112
    -4.0763  -3.7568  -3.7290  -3.5928  -3.1501  -3.1408  -2.7235  -2.7229
    -2.6406  -2.5574  -2.4520  -2.2754  -2.2642  -2.2514  -2.2246  -1.9389
    -1.8960  -1.7209  -1.3384  -1.2842  -1.2462  -1.2060  -1.1582  -1.1311
    -1.0601  -1.0114  -0.9713  -0.9623  -0.9598  -0.8722  -0.8532  -0.7898
    -0.5531  -0.3185  -0.3073   0.2476   0.3712   0.3973   0.7626   0.9293
     1.0495   1.1472   1.3238   1.3521   1.3533   1.3551   1.3765   1.4211
     1.4551   1.5211   1.5447   1.6326   1.6458   1.6707   1.7684   1.8507
     1.8771   1.8831   1.9352   1.9702   2.0273   2.0658   2.0826   2.1286
     2.1547   2.2135   2.3515   2.3580   2.3742   2.4411   2.5491   2.5549
     2.5807   2.7811   4.1416   4.5725   4.7239   4.7911   4.8016   5.4284
     5.5174   5.9818   5.9834   6.8940   7.0543   7.1308   7.9126   8.6348
     8.7029   8.9016   8.9535   9.0518   9.1008   9.2040   9.3629   9.5789
     9.6893

     the Fermi energy is     2.5785 ev

!    total energy              =   -1842.77135562 Ry
     Harris-Foulkes estimate   =   -1842.77135563 Ry
     estimated scf accuracy    <          8.7E-09 Ry

     The total energy is the sum of the following terms:

     one-electron contribution =  -29780.92700423 Ry
     hartree contribution      =   15042.72863826 Ry
     xc contribution           =    -621.58744925 Ry
     ewald contribution        =   13517.02280928 Ry
     smearing contrib. (-TS)   =      -0.00834968 Ry

     convergence has been achieved in  34 iterations

     negative rho (up, down):  1.495E-03 0.000E+00

     Forces acting on atoms (cartesian axes, Ry/au):

     atom    1 type  4   force =     0.00000000    0.00000000   -0.00018940
     atom    2 type  3   force =     0.00000000    0.00000000    0.00022940
     atom    3 type  4   force =     0.00000000    0.00000000   -0.00076972
     atom    4 type  1   force =     0.00000000    0.00000000   -0.00029002
     atom    5 type  3   force =     0.00000000    0.00000000    0.00049222
     atom    6 type  4   force =     0.00000000    0.00000000   -0.00002397
     atom    7 type  4   force =     0.00000000    0.00000000    0.00032483
     atom    8 type  2   force =     0.00000000    0.00000000   -0.00059749
     atom    9 type  4   force =     0.00000000    0.00000000    0.00025085
     atom   10 type  4   force =     0.00000000    0.00000000    0.00030614
     atom   11 type  3   force =     0.00000000    0.00000000    0.00026161
     atom   12 type  1   force =     0.00000000    0.00000000    0.00010163
     atom   13 type  4   force =     0.00000000    0.00000000    0.00257330
     atom   14 type  4   force =     0.00000000    0.00000000    0.00257550
     atom   15 type  3   force =     0.00000000    0.00000000   -0.00417667
     atom   16 type  4   force =     0.00000000    0.00000000    0.00243037
     atom   17 type  1   force =     0.00000000    0.00000000   -0.01328797
     atom   18 type  3   force =     0.00000000    0.00000000    0.00259234
     atom   19 type  4   force =     0.00000000    0.00000000    0.04538856
     atom   20 type  4   force =     0.00000000    0.00000000    0.05141445
     atom   21 type  2   force =     0.00000000    0.00000000   -0.02866707
     atom   22 type  4   force =     0.00000000    0.00000000   -0.01602029
     atom   23 type  4   force =     0.00000000    0.00000000   -0.00949912
     atom   24 type  3   force =     0.00000000    0.00000000   -0.01829311
     atom   25 type  1   force =     0.00000000    0.00000000   -0.01645864
     atom   26 type  4   force =     0.00000000    0.00000000   -0.00056306
     atom   27 type  3   force =     0.00000000    0.00000000    0.00058650
     atom   28 type  4   force =     0.00000000    0.00000000   -0.00069120

     Total force =     0.081857     Total SCF correction =     0.000459


     Computing stress (Cartesian axis) and pressure


     negative rho (up, down):  1.495E-03 0.000E+00
          total   stress  (Ry/bohr**3)                   (kbar)     P=       -6.80
  -0.00000707   0.00000000   0.00000000           -1.04        0.00        0.00
   0.00000000   0.00001193   0.00000000            0.00        1.75        0.00
   0.00000000   0.00000000  -0.00014358            0.00        0.00      -21.12

 
     init_run     :      8.23s CPU      8.74s WALL (       1 calls)
     electrons    :    534.69s CPU    572.24s WALL (       1 calls)
     forces       :      3.53s CPU      3.91s WALL (       1 calls)
     stress       :     18.14s CPU     19.06s WALL (       1 calls)

     Called by init_run:
     wfcinit      :      5.81s CPU      5.94s WALL (       1 calls)
     potinit      :      0.59s CPU      0.62s WALL (       1 calls)
     hinit0       :      0.95s CPU      0.97s WALL (       1 calls)

     Called by electrons:
     c_bands      :    425.37s CPU    440.63s WALL (      34 calls)
     sum_band     :     74.12s CPU     86.46s WALL (      34 calls)
     v_of_rho     :      2.75s CPU      2.81s WALL (      35 calls)
     newd         :     17.98s CPU     27.98s WALL (      35 calls)
     mix_rho      :     14.82s CPU     14.98s WALL (      34 calls)

     Called by c_bands:
     init_us_2    :      3.43s CPU      3.49s WALL (    1775 calls)
     cegterg      :    400.48s CPU    415.17s WALL (     850 calls)

     Called by sum_band:
     sum_band:bec :      0.23s CPU      0.23s WALL (     850 calls)
     addusdens    :     18.03s CPU     29.62s WALL (      34 calls)

     Called by *egterg:
     h_psi        :    194.75s CPU    203.59s WALL (    3943 calls)
     s_psi        :     21.09s CPU     21.41s WALL (    3943 calls)
     g_psi        :      0.63s CPU      0.64s WALL (    3068 calls)
     cdiaghg      :    114.43s CPU    114.93s WALL (    3918 calls)

     Called by h_psi:
     h_psi:calbec :     23.42s CPU     24.55s WALL (    3943 calls)
     vloc_psi     :    148.10s CPU    150.58s WALL (    3943 calls)
     add_vuspsi   :     22.10s CPU     25.09s WALL (    3943 calls)

     General routines
     calbec       :     37.63s CPU     38.83s WALL (    4918 calls)
     fft          :      2.18s CPU      2.21s WALL (     478 calls)
     ffts         :      8.09s CPU      8.17s WALL (   13798 calls)
     fftw         :    170.52s CPU    173.32s WALL (  603542 calls)
     interpolate  :      0.15s CPU      0.16s WALL (      35 calls)
 
     Parallel routines
     fft_scatt_xy :     22.64s CPU     23.00s WALL (  617818 calls)
     fft_scatt_yz :    104.91s CPU    106.65s WALL (  617818 calls)
 
     PWSCF        :   9m25.49s CPU  10m 4.86s WALL

 
   This run was terminated on:  22:38:49  21May2021            

=------------------------------------------------------------------------------=
   JOB DONE.
=------------------------------------------------------------------------------=
[1621651129.345268] [holy7c04206:230861:0]          mpool.c:43   UCX  WARN  object 0x2ec8ec0 was not returned to mpool ucp_requests
[1621651129.349977] [holy7c04201:100355:0]          mpool.c:43   UCX  WARN  object 0x4632100 was not returned to mpool ucp_requests
[1621651129.350462] [holy7c04207:209510:0]          mpool.c:43   UCX  WARN  object 0x31f9a80 was not returned to mpool ucp_requests
[1621651129.350484] [holy7c04207:209510:0]          mpool.c:43   UCX  WARN  object 0x31f9e00 was not returned to mpool ucp_requests
[1621651129.351196] [holy7c04201:100354:0]          mpool.c:43   UCX  WARN  object 0x3cd4640 was not returned to mpool ucp_requests
[1621651129.348280] [holy7c04205:154618:0]          mpool.c:43   UCX  WARN  object 0x2d725c0 was not returned to mpool ucp_requests
[1621651129.348302] [holy7c04205:154618:0]          mpool.c:43   UCX  WARN  object 0x2d72e80 was not returned to mpool ucp_requests
[1621651129.347145] [holy7c04207:209511:0]          mpool.c:43   UCX  WARN  object 0x2ff0800 was not returned to mpool ucp_requests
[1621651129.347403] [holy7c04209:127392:0]          mpool.c:43   UCX  WARN  object 0x44ff340 was not returned to mpool ucp_requests
[1621651129.349645] [holy7c04104:161610:0]          mpool.c:43   UCX  WARN  object 0x2db9bc0 was not returned to mpool ucp_requests
