
     Program PWSCF v.6.5 starts on 21May2021 at 21:21:49 

     This program is part of the open-source Quantum ESPRESSO suite
     for quantum simulation of materials; please cite
         "P. Giannozzi et al., J. Phys.:Condens. Matter 21 395502 (2009);
         "P. Giannozzi et al., J. Phys.:Condens. Matter 29 465901 (2017);
          URL http://www.quantum-espresso.org", 
     in publications or presentations arising from this work. More details at
     http://www.quantum-espresso.org/quote

     Parallel version (MPI), running on    20 processors

     MPI processes distributed on     4 nodes
     R & G space division:  proc/nbgrp/npool/nimage =      20
     Reading input from CBCO_CuO_cleave_2.0_sep.pwi
Warning: card &IONS ignored
Warning: card     ION_DYNAMICS = 'BFGS' ignored
Warning: card / ignored
Warning: card &CELL ignored
Warning: card     CELL_DYNAMICS = 'BFGS' ignored
Warning: card     PRESS_CONV_THR = 5 ignored
Warning: card / ignored

     Current dimensions of program PWSCF are:
     Max number of different atomic species (ntypx) = 10
     Max number of k-points (npk) =  40000
     Max angular momentum in pseudopotentials (lmaxx) =  3

     Subspace diagonalization in iterative solution of the eigenvalue problem:
     one sub-group per band group will be used
     scalapack distributed-memory algorithm (size of sub-group:  4*  4 procs)

     Message from routine setup:
     using ibrav=0 with symmetry is DISCOURAGED, use correct ibrav instead
 
     Parallelization info
     --------------------
     sticks:   dense  smooth     PW     G-vecs:    dense   smooth      PW
     Min         149      50     14                73377    14130    2206
     Max         150      51     15                73416    14155    2249
     Sum        2991    1007    289              1467957   282791   44429
 


     bravais-lattice index     =            0
     lattice parameter (alat)  =       7.4270  a.u.
     unit-cell volume          =    4499.7550 (a.u.)^3
     number of atoms/cell      =           28
     number of atomic types    =            4
     number of electrons       =       227.00
     number of Kohn-Sham states=          137
     kinetic-energy cutoff     =      60.0000  Ry
     charge density cutoff     =     720.0000  Ry
     convergence threshold     =      1.0E-08
     mixing beta               =       0.5000
     number of iterations used =           10  local-TF  mixing
     Exchange-correlation= SLA PW PBE PBE
                           (   1   4   3   4   0   0   0)

     celldm(1)=   7.427040  celldm(2)=   0.000000  celldm(3)=   0.000000
     celldm(4)=   0.000000  celldm(5)=   0.000000  celldm(6)=   0.000000

     crystal axes: (cart. coord. in units of alat)
               a(1) = (   1.000000   0.000000   0.000000 )  
               a(2) = (   0.000000   0.947081   0.000000 )  
               a(3) = (   0.000000   0.000000  11.597234 )  

     reciprocal axes: (cart. coord. in units 2 pi/alat)
               b(1) = (  1.000000  0.000000  0.000000 )  
               b(2) = (  0.000000  1.055876  0.000000 )  
               b(3) = (  0.000000  0.000000  0.086227 )  


     PseudoPot. # 1 for Ba read from file:
     ./pseudo/Ba.pbe-nsp-van.UPF
     MD5 check sum: 2b9c31dd849566dd297d80989662b7a0
     Pseudo is Ultrasoft + core correction, Zval = 10.0
     Generated by new atomic code, or converted to UPF format
     Using radial grid of  907 points,  6 beta functions with: 
                l(1) =   0
                l(2) =   0
                l(3) =   1
                l(4) =   1
                l(5) =   2
                l(6) =   2
     Q(r) pseudized with  6 coefficients,  rinner =    1.200   1.200   1.200
                                                       1.200   1.200

     PseudoPot. # 2 for Ca read from file:
     ./pseudo/Ca.pbe-nsp-van.UPF
     MD5 check sum: 6471098428ff4fa451746d08035ff179
     Pseudo is Ultrasoft + core correction, Zval = 10.0
     Generated by new atomic code, or converted to UPF format
     Using radial grid of  845 points,  6 beta functions with: 
                l(1) =   0
                l(2) =   0
                l(3) =   1
                l(4) =   1
                l(5) =   2
                l(6) =   2
     Q(r) pseudized with  6 coefficients,  rinner =    1.200   1.200   1.200
                                                       1.200   1.200

     PseudoPot. # 3 for Cu read from file:
     ./pseudo/Cu.pbe-n-van_ak.UPF
     MD5 check sum: 34e3282627ffb533726feb647e090d62
     Pseudo is Ultrasoft + core correction, Zval = 11.0
     Generated by new atomic code, or converted to UPF format
     Using radial grid of  867 points,  6 beta functions with: 
                l(1) =   0
                l(2) =   0
                l(3) =   1
                l(4) =   1
                l(5) =   2
                l(6) =   2
     Q(r) pseudized with  8 coefficients,  rinner =    1.400   1.400   1.400
                                                       1.400   1.400

     PseudoPot. # 4 for O  read from file:
     ./pseudo/O.pbe-van_ak.UPF
     MD5 check sum: 783ce7fe4c79b6a4916957118fed0856
     Pseudo is Ultrasoft, Zval =  6.0
     Generated by new atomic code, or converted to UPF format
     Using radial grid of  737 points,  4 beta functions with: 
                l(1) =   0
                l(2) =   0
                l(3) =   1
                l(4) =   1
     Q(r) pseudized with  8 coefficients,  rinner =    0.800   0.800   0.800


     atomic species   valence    mass     pseudopotential
        Ba            10.00   137.32700     Ba( 1.00)
        Ca            10.00    40.07800     Ca( 1.00)
        Cu            11.00    63.54600     Cu( 1.00)
        O              6.00    15.99900     O ( 1.00)

      4 Sym. Ops. (no inversion) found



   Cartesian axes

     site n.     atom                  positions (alat units)
         1           O   tau(   1) = (   0.0000000   0.4735409  -0.0469745  )
         2           Cu  tau(   2) = (   0.0000000   0.0000000   0.0264565  )
         3           O   tau(   3) = (   0.0000000   0.0000000   0.5030914  )
         4           Ba  tau(   4) = (   0.5000000   0.4735409   0.5690292  )
         5           Cu  tau(   5) = (   0.0000000   0.0000000   1.0374254  )
         6           O   tau(   6) = (   0.5000000   0.0000000   1.0768099  )
         7           O   tau(   7) = (   0.0000000   0.4735409   1.1116985  )
         8           Ca  tau(   8) = (   0.5000000   0.4735409   1.4976260  )
         9           O   tau(   9) = (   0.0000000   0.4735409   1.8667529  )
        10           O   tau(  10) = (   0.5000000   0.0000000   1.9044124  )
        11           Cu  tau(  11) = (   0.0000000   0.0000000   1.9512546  )
        12           Ba  tau(  12) = (   0.5000000   0.4735409   2.4295764  )
        13           O   tau(  13) = (   0.0000000   0.0000000   2.5115362  )
        14           O   tau(  14) = (   0.0000000   0.4735409   2.9918528  )
        15           Cu  tau(  15) = (   0.0000000   0.0000000   2.9919088  )
        16           O   tau(  16) = (   0.0000000   0.0000000   3.9811460  )
        17           Ba  tau(  17) = (   0.5000000   0.4735409   4.0630981  )
        18           Cu  tau(  18) = (   0.0000000   0.0000000   4.5414021  )
        19           O   tau(  19) = (   0.5000000   0.0000000   4.5882443  )
        20           O   tau(  20) = (   0.0000000   0.4735409   4.6258987  )
        21           Ca  tau(  21) = (   0.5000000   0.4735409   4.9950357  )
        22           O   tau(  22) = (   0.0000000   0.4735409   5.3809607  )
        23           O   tau(  23) = (   0.5000000   0.0000000   5.4158493  )
        24           Cu  tau(  24) = (   0.0000000   0.0000000   5.4552364  )
        25           Ba  tau(  25) = (   0.5000000   0.4735409   5.9236300  )
        26           O   tau(  26) = (   0.0000000   0.0000000   5.9895576  )
        27           Cu  tau(  27) = (   0.0000000   0.0000000   6.4661976  )
        28           O   tau(  28) = (   0.0000000   0.4735409   6.5396159  )

     number of k points=    25  Gaussian smearing, width (Ry)=  0.0100
                       cart. coord. in units 2pi/alat
        k(    1) = (   0.0000000   0.0000000   0.0000000), wk =   0.0312500
        k(    2) = (   0.0000000   0.1319845   0.0000000), wk =   0.0625000
        k(    3) = (   0.0000000   0.2639689   0.0000000), wk =   0.0625000
        k(    4) = (   0.0000000   0.3959534   0.0000000), wk =   0.0625000
        k(    5) = (   0.0000000  -0.5279378   0.0000000), wk =   0.0312500
        k(    6) = (   0.1250000   0.0000000   0.0000000), wk =   0.0625000
        k(    7) = (   0.1250000   0.1319845   0.0000000), wk =   0.1250000
        k(    8) = (   0.1250000   0.2639689   0.0000000), wk =   0.1250000
        k(    9) = (   0.1250000   0.3959534   0.0000000), wk =   0.1250000
        k(   10) = (   0.1250000  -0.5279378   0.0000000), wk =   0.0625000
        k(   11) = (   0.2500000   0.0000000   0.0000000), wk =   0.0625000
        k(   12) = (   0.2500000   0.1319845   0.0000000), wk =   0.1250000
        k(   13) = (   0.2500000   0.2639689   0.0000000), wk =   0.1250000
        k(   14) = (   0.2500000   0.3959534   0.0000000), wk =   0.1250000
        k(   15) = (   0.2500000  -0.5279378   0.0000000), wk =   0.0625000
        k(   16) = (   0.3750000   0.0000000   0.0000000), wk =   0.0625000
        k(   17) = (   0.3750000   0.1319845   0.0000000), wk =   0.1250000
        k(   18) = (   0.3750000   0.2639689   0.0000000), wk =   0.1250000
        k(   19) = (   0.3750000   0.3959534   0.0000000), wk =   0.1250000
        k(   20) = (   0.3750000  -0.5279378   0.0000000), wk =   0.0625000
        k(   21) = (  -0.5000000   0.0000000   0.0000000), wk =   0.0312500
        k(   22) = (  -0.5000000   0.1319845   0.0000000), wk =   0.0625000
        k(   23) = (  -0.5000000   0.2639689   0.0000000), wk =   0.0625000
        k(   24) = (  -0.5000000   0.3959534   0.0000000), wk =   0.0625000
        k(   25) = (  -0.5000000  -0.5279378   0.0000000), wk =   0.0312500

     Dense  grid:  1467957 G-vectors     FFT dimensions: (  64,  64, 750)

     Smooth grid:   282791 G-vectors     FFT dimensions: (  40,  36, 432)

     Estimated max dynamical RAM per process >     468.50 MB

     Estimated total dynamical RAM >       9.15 GB

     Initial potential from superposition of free atoms

     starting charge  226.84630, renormalised to  227.00000

     negative rho (up, down):  3.449E-03 0.000E+00
     Starting wfcs are  195 randomized atomic wfcs

     total cpu time spent up to now is        9.7 secs

     Self-consistent Calculation

     iteration #  1     ecut=    60.00 Ry     beta= 0.50
     Davidson diagonalization with overlap
     ethr =  1.00E-02,  avg # of iterations =  2.0

     negative rho (up, down):  4.982E-04 0.000E+00

     total cpu time spent up to now is       25.7 secs

     total energy              =   -1840.73170208 Ry
     Harris-Foulkes estimate   =   -1845.34813062 Ry
     estimated scf accuracy    <      19.03483928 Ry

     iteration #  2     ecut=    60.00 Ry     beta= 0.50
     Davidson diagonalization with overlap
     ethr =  8.39E-03,  avg # of iterations =  2.0

     negative rho (up, down):  2.826E-04 0.000E+00

     total cpu time spent up to now is       41.1 secs

     total energy              =   -1842.42547780 Ry
     Harris-Foulkes estimate   =   -1843.34048168 Ry
     estimated scf accuracy    <       6.46333842 Ry

     iteration #  3     ecut=    60.00 Ry     beta= 0.50
     Davidson diagonalization with overlap
     ethr =  2.85E-03,  avg # of iterations =  1.2

     negative rho (up, down):  2.570E-04 0.000E+00

     total cpu time spent up to now is       55.5 secs

     total energy              =   -1842.76923969 Ry
     Harris-Foulkes estimate   =   -1843.01500085 Ry
     estimated scf accuracy    <       6.49833445 Ry

     iteration #  4     ecut=    60.00 Ry     beta= 0.50
     Davidson diagonalization with overlap
     ethr =  2.85E-03,  avg # of iterations =  1.0

     negative rho (up, down):  2.512E-04 0.000E+00

     total cpu time spent up to now is       69.6 secs

     total energy              =   -1842.83442418 Ry
     Harris-Foulkes estimate   =   -1842.89856647 Ry
     estimated scf accuracy    <       1.86250797 Ry

     iteration #  5     ecut=    60.00 Ry     beta= 0.50
     Davidson diagonalization with overlap
     ethr =  8.20E-04,  avg # of iterations =  1.0

     negative rho (up, down):  2.437E-04 0.000E+00

     total cpu time spent up to now is       84.0 secs

     total energy              =   -1842.80839002 Ry
     Harris-Foulkes estimate   =   -1842.87031846 Ry
     estimated scf accuracy    <       0.78272492 Ry

     iteration #  6     ecut=    60.00 Ry     beta= 0.50
     Davidson diagonalization with overlap
     ethr =  3.45E-04,  avg # of iterations =  2.6

     negative rho (up, down):  2.356E-04 0.000E+00

     total cpu time spent up to now is       99.9 secs

     total energy              =   -1842.80030230 Ry
     Harris-Foulkes estimate   =   -1842.83563610 Ry
     estimated scf accuracy    <       1.06377972 Ry

     iteration #  7     ecut=    60.00 Ry     beta= 0.50
     Davidson diagonalization with overlap
     ethr =  3.45E-04,  avg # of iterations =  2.2

     negative rho (up, down):  2.338E-04 0.000E+00

     total cpu time spent up to now is      115.2 secs

     total energy              =   -1842.79926562 Ry
     Harris-Foulkes estimate   =   -1842.81239282 Ry
     estimated scf accuracy    <       0.28197517 Ry

     iteration #  8     ecut=    60.00 Ry     beta= 0.50
     Davidson diagonalization with overlap
     ethr =  1.24E-04,  avg # of iterations =  6.6

     negative rho (up, down):  2.329E-04 0.000E+00

     total cpu time spent up to now is      136.2 secs

     total energy              =   -1842.79968499 Ry
     Harris-Foulkes estimate   =   -1842.80870076 Ry
     estimated scf accuracy    <       0.26392602 Ry

     iteration #  9     ecut=    60.00 Ry     beta= 0.50
     Davidson diagonalization with overlap
     ethr =  1.16E-04,  avg # of iterations =  1.4

     negative rho (up, down):  2.331E-04 0.000E+00

     total cpu time spent up to now is      150.9 secs

     total energy              =   -1842.80156173 Ry
     Harris-Foulkes estimate   =   -1842.80473237 Ry
     estimated scf accuracy    <       0.17678486 Ry

     iteration # 10     ecut=    60.00 Ry     beta= 0.50
     Davidson diagonalization with overlap
     ethr =  7.79E-05,  avg # of iterations =  1.6

     negative rho (up, down):  2.346E-04 0.000E+00

     total cpu time spent up to now is      165.6 secs

     total energy              =   -1842.79892658 Ry
     Harris-Foulkes estimate   =   -1842.80277894 Ry
     estimated scf accuracy    <       0.09672759 Ry

     iteration # 11     ecut=    60.00 Ry     beta= 0.50
     Davidson diagonalization with overlap
     ethr =  4.26E-05,  avg # of iterations =  4.1

     negative rho (up, down):  2.360E-04 0.000E+00

     total cpu time spent up to now is      182.9 secs

     total energy              =   -1842.79778858 Ry
     Harris-Foulkes estimate   =   -1842.79996645 Ry
     estimated scf accuracy    <       0.12625899 Ry

     iteration # 12     ecut=    60.00 Ry     beta= 0.50
     Davidson diagonalization with overlap
     ethr =  4.26E-05,  avg # of iterations =  2.3

     negative rho (up, down):  2.364E-04 0.000E+00

     total cpu time spent up to now is      198.4 secs

     total energy              =   -1842.79722253 Ry
     Harris-Foulkes estimate   =   -1842.79835719 Ry
     estimated scf accuracy    <       0.09498588 Ry

     iteration # 13     ecut=    60.00 Ry     beta= 0.50
     Davidson diagonalization with overlap
     ethr =  4.18E-05,  avg # of iterations =  2.0

     negative rho (up, down):  2.361E-04 0.000E+00

     total cpu time spent up to now is      213.4 secs

     total energy              =   -1842.79670205 Ry
     Harris-Foulkes estimate   =   -1842.79743821 Ry
     estimated scf accuracy    <       0.07821081 Ry

     iteration # 14     ecut=    60.00 Ry     beta= 0.50
     Davidson diagonalization with overlap
     ethr =  3.45E-05,  avg # of iterations =  2.1

     negative rho (up, down):  2.244E-03 0.000E+00

     total cpu time spent up to now is      228.5 secs

     total energy              =   -1842.79490632 Ry
     Harris-Foulkes estimate   =   -1842.79683739 Ry
     estimated scf accuracy    <       0.08500478 Ry

     iteration # 15     ecut=    60.00 Ry     beta= 0.50
     Davidson diagonalization with overlap
     ethr =  3.45E-05,  avg # of iterations =  2.6

     negative rho (up, down):  9.335E-03 0.000E+00

     total cpu time spent up to now is      244.2 secs

     total energy              =   -1842.79394557 Ry
     Harris-Foulkes estimate   =   -1842.79514222 Ry
     estimated scf accuracy    <       0.06044605 Ry

     iteration # 16     ecut=    60.00 Ry     beta= 0.50
     Davidson diagonalization with overlap
     ethr =  2.66E-05,  avg # of iterations =  4.9

     negative rho (up, down):  3.470E-02 0.000E+00

     total cpu time spent up to now is      262.6 secs

     total energy              =   -1842.79216947 Ry
     Harris-Foulkes estimate   =   -1842.79411931 Ry
     estimated scf accuracy    <       0.04359580 Ry

     iteration # 17     ecut=    60.00 Ry     beta= 0.50
     Davidson diagonalization with overlap
     ethr =  1.92E-05,  avg # of iterations =  8.8

     negative rho (up, down):  2.277E-02 0.000E+00

     total cpu time spent up to now is      286.6 secs

     total energy              =   -1842.79220667 Ry
     Harris-Foulkes estimate   =   -1842.79291415 Ry
     estimated scf accuracy    <       0.00518448 Ry

     iteration # 18     ecut=    60.00 Ry     beta= 0.50
     Davidson diagonalization with overlap
     ethr =  2.28E-06,  avg # of iterations =  9.5

     negative rho (up, down):  1.838E-02 0.000E+00

     total cpu time spent up to now is      310.9 secs

     total energy              =   -1842.79193709 Ry
     Harris-Foulkes estimate   =   -1842.79232582 Ry
     estimated scf accuracy    <       0.00266631 Ry

     iteration # 19     ecut=    60.00 Ry     beta= 0.50
     Davidson diagonalization with overlap
     ethr =  1.17E-06,  avg # of iterations =  2.6

     negative rho (up, down):  1.550E-02 0.000E+00

     total cpu time spent up to now is      326.7 secs

     total energy              =   -1842.79134819 Ry
     Harris-Foulkes estimate   =   -1842.79202169 Ry
     estimated scf accuracy    <       0.00471286 Ry

     iteration # 20     ecut=    60.00 Ry     beta= 0.50
     Davidson diagonalization with overlap
     c_bands:  1 eigenvalues not converged
     ethr =  1.17E-06,  avg # of iterations =  7.4

     negative rho (up, down):  4.250E-03 0.000E+00

     total cpu time spent up to now is      349.0 secs

     total energy              =   -1842.79109671 Ry
     Harris-Foulkes estimate   =   -1842.79141266 Ry
     estimated scf accuracy    <       0.00117785 Ry

     iteration # 21     ecut=    60.00 Ry     beta= 0.50
     Davidson diagonalization with overlap
     c_bands:  1 eigenvalues not converged
     c_bands:  1 eigenvalues not converged
     c_bands:  1 eigenvalues not converged
     c_bands:  1 eigenvalues not converged
     ethr =  5.19E-07,  avg # of iterations = 10.2

     negative rho (up, down):  5.043E-03 0.000E+00

     total cpu time spent up to now is      374.6 secs

     total energy              =   -1842.79108481 Ry
     Harris-Foulkes estimate   =   -1842.79115120 Ry
     estimated scf accuracy    <       0.00085242 Ry

     iteration # 22     ecut=    60.00 Ry     beta= 0.50
     Davidson diagonalization with overlap
     c_bands:  1 eigenvalues not converged
     ethr =  3.76E-07,  avg # of iterations =  6.0

     negative rho (up, down):  3.203E-03 0.000E+00

     total cpu time spent up to now is      394.5 secs

     total energy              =   -1842.79111044 Ry
     Harris-Foulkes estimate   =   -1842.79112326 Ry
     estimated scf accuracy    <       0.00062184 Ry

     iteration # 23     ecut=    60.00 Ry     beta= 0.50
     Davidson diagonalization with overlap
     c_bands:  1 eigenvalues not converged
     ethr =  2.74E-07,  avg # of iterations =  3.7

     negative rho (up, down):  7.813E-04 0.000E+00

     total cpu time spent up to now is      411.5 secs

     total energy              =   -1842.79115213 Ry
     Harris-Foulkes estimate   =   -1842.79112298 Ry
     estimated scf accuracy    <       0.00023287 Ry

     iteration # 24     ecut=    60.00 Ry     beta= 0.50
     Davidson diagonalization with overlap
     c_bands:  1 eigenvalues not converged
     c_bands:  1 eigenvalues not converged
     c_bands:  1 eigenvalues not converged
     ethr =  1.03E-07,  avg # of iterations =  7.3

     negative rho (up, down):  8.183E-04 0.000E+00

     total cpu time spent up to now is      432.9 secs

     total energy              =   -1842.79116455 Ry
     Harris-Foulkes estimate   =   -1842.79115791 Ry
     estimated scf accuracy    <       0.00006891 Ry

     iteration # 25     ecut=    60.00 Ry     beta= 0.50
     Davidson diagonalization with overlap
     c_bands:  1 eigenvalues not converged
     ethr =  3.04E-08,  avg # of iterations =  4.2

     negative rho (up, down):  7.674E-04 0.000E+00

     total cpu time spent up to now is      450.5 secs

     total energy              =   -1842.79116761 Ry
     Harris-Foulkes estimate   =   -1842.79116682 Ry
     estimated scf accuracy    <       0.00005666 Ry

     iteration # 26     ecut=    60.00 Ry     beta= 0.50
     Davidson diagonalization with overlap
     ethr =  2.50E-08,  avg # of iterations =  1.9

     negative rho (up, down):  1.292E-03 0.000E+00

     total cpu time spent up to now is      465.5 secs

     total energy              =   -1842.79116742 Ry
     Harris-Foulkes estimate   =   -1842.79116835 Ry
     estimated scf accuracy    <       0.00003156 Ry

     iteration # 27     ecut=    60.00 Ry     beta= 0.50
     Davidson diagonalization with overlap
     ethr =  1.39E-08,  avg # of iterations =  1.1

     negative rho (up, down):  1.383E-03 0.000E+00

     total cpu time spent up to now is      480.0 secs

     total energy              =   -1842.79116778 Ry
     Harris-Foulkes estimate   =   -1842.79116812 Ry
     estimated scf accuracy    <       0.00002029 Ry

     iteration # 28     ecut=    60.00 Ry     beta= 0.50
     Davidson diagonalization with overlap
     ethr =  8.94E-09,  avg # of iterations =  1.0

     negative rho (up, down):  1.480E-03 0.000E+00

     total cpu time spent up to now is      494.1 secs

     total energy              =   -1842.79116797 Ry
     Harris-Foulkes estimate   =   -1842.79116794 Ry
     estimated scf accuracy    <       0.00001036 Ry

     iteration # 29     ecut=    60.00 Ry     beta= 0.50
     Davidson diagonalization with overlap
     ethr =  4.56E-09,  avg # of iterations =  1.2

     negative rho (up, down):  1.434E-03 0.000E+00

     total cpu time spent up to now is      508.4 secs

     total energy              =   -1842.79116809 Ry
     Harris-Foulkes estimate   =   -1842.79116809 Ry
     estimated scf accuracy    <       0.00000731 Ry

     iteration # 30     ecut=    60.00 Ry     beta= 0.50
     Davidson diagonalization with overlap
     ethr =  3.22E-09,  avg # of iterations =  1.1

     negative rho (up, down):  1.439E-03 0.000E+00

     total cpu time spent up to now is      522.8 secs

     total energy              =   -1842.79116809 Ry
     Harris-Foulkes estimate   =   -1842.79116816 Ry
     estimated scf accuracy    <       0.00000218 Ry

     iteration # 31     ecut=    60.00 Ry     beta= 0.50
     Davidson diagonalization with overlap
     ethr =  9.62E-10,  avg # of iterations =  2.1

     negative rho (up, down):  1.462E-03 0.000E+00

     total cpu time spent up to now is      538.1 secs

     total energy              =   -1842.79116811 Ry
     Harris-Foulkes estimate   =   -1842.79116814 Ry
     estimated scf accuracy    <       0.00000017 Ry

     iteration # 32     ecut=    60.00 Ry     beta= 0.50
     Davidson diagonalization with overlap
     ethr =  7.54E-11,  avg # of iterations =  3.7

     negative rho (up, down):  1.495E-03 0.000E+00

     total cpu time spent up to now is      556.4 secs

     total energy              =   -1842.79116808 Ry
     Harris-Foulkes estimate   =   -1842.79116813 Ry
     estimated scf accuracy    <       0.00000017 Ry

     iteration # 33     ecut=    60.00 Ry     beta= 0.50
     Davidson diagonalization with overlap
     ethr =  7.54E-11,  avg # of iterations =  1.0

     negative rho (up, down):  1.491E-03 0.000E+00

     total cpu time spent up to now is      570.6 secs

     total energy              =   -1842.79116808 Ry
     Harris-Foulkes estimate   =   -1842.79116808 Ry
     estimated scf accuracy    <       0.00000003 Ry

     iteration # 34     ecut=    60.00 Ry     beta= 0.50
     Davidson diagonalization with overlap
     ethr =  1.50E-11,  avg # of iterations =  1.4

     negative rho (up, down):  1.497E-03 0.000E+00

     total cpu time spent up to now is      585.4 secs

     total energy              =   -1842.79116807 Ry
     Harris-Foulkes estimate   =   -1842.79116808 Ry
     estimated scf accuracy    <       0.00000003 Ry

     iteration # 35     ecut=    60.00 Ry     beta= 0.50
     Davidson diagonalization with overlap
     ethr =  1.32E-11,  avg # of iterations =  1.0

     negative rho (up, down):  1.493E-03 0.000E+00

     total cpu time spent up to now is      599.7 secs

     total energy              =   -1842.79116808 Ry
     Harris-Foulkes estimate   =   -1842.79116808 Ry
     estimated scf accuracy    <       0.00000003 Ry

     iteration # 36     ecut=    60.00 Ry     beta= 0.50
     Davidson diagonalization with overlap
     ethr =  1.32E-11,  avg # of iterations =  1.0

     negative rho (up, down):  1.492E-03 0.000E+00

     total cpu time spent up to now is      613.3 secs

     End of self-consistent calculation

          k = 0.0000 0.0000 0.0000 ( 35431 PWs)   bands (ev):

   -35.8605 -35.8355 -23.0187 -23.0153 -22.8677 -22.8102 -17.3613 -17.3414
   -16.9121 -16.9017 -16.8886 -16.8747 -15.5587 -15.5484 -14.9045 -14.8990
   -14.8904 -14.8334 -14.8214 -14.4057 -14.4031 -14.2303 -14.2175 -14.1320
   -14.0942 -14.0773 -12.9284  -8.1512  -8.1476  -8.1121  -8.1091  -8.0409
    -8.0058  -7.9290  -7.9194  -7.9161  -7.7846  -7.7562  -7.5860  -2.5526
    -2.5523  -2.2235  -2.0790  -2.0768  -2.0531  -2.0488  -1.9236  -1.9064
    -1.8108  -1.7901  -1.7578  -1.7472  -1.4433  -1.4393  -1.1005  -0.6822
    -0.6801  -0.6039  -0.6034  -0.5979  -0.5731  -0.5507  -0.5312  -0.5135
    -0.5132  -0.4950  -0.4888  -0.4866  -0.4865  -0.4310  -0.4143  -0.2634
    -0.2599  -0.2489  -0.1621  -0.1452  -0.1349  -0.1284  -0.1235  -0.1207
    -0.0815  -0.0672  -0.0596  -0.0480  -0.0209   0.0066   0.0592   0.1070
     0.2649   0.5509   0.6318   0.6573   0.6603   0.7010   0.7392   0.9371
     0.9414   1.0985   1.1213   1.1322   1.1486   1.2307   1.2530   1.2739
     1.2836   1.3015   1.3063   1.5653   1.5933   1.6430   1.8013   1.8155
     1.8557   1.9886   2.1116   2.1267   2.2193   2.3087   2.3215   4.8088
     4.9944   5.0067   5.9070   5.9992   6.5153   6.5301   6.6284   6.8017
     7.6846   7.7467   7.9316   7.9758   8.2853   8.3114   8.3639   8.4543
     8.8883

          k = 0.0000 0.1320 0.0000 ( 35365 PWs)   bands (ev):

   -35.8586 -35.8336 -22.9921 -22.9886 -22.8420 -22.7867 -17.3253 -17.3053
   -16.9740 -16.9471 -16.9098 -16.8862 -15.4696 -15.4597 -14.9097 -14.9052
   -14.8524 -14.8058 -14.7916 -14.4159 -14.4123 -14.2345 -14.2186 -14.1833
   -14.1234 -14.1211 -12.9881  -8.1506  -8.1468  -8.0643  -8.0612  -8.0414
    -8.0042  -7.9610  -7.9578  -7.8833  -7.8060  -7.7448  -7.6171  -2.6139
    -2.6121  -2.4499  -2.4324  -2.3519  -2.3349  -2.2018  -1.9014  -1.8859
    -1.8681  -1.8640  -1.7939  -1.7742  -1.6845  -1.5825  -1.5794  -0.9401
    -0.8655  -0.8452  -0.7802  -0.7776  -0.6915  -0.6872  -0.6396  -0.6378
    -0.5446  -0.4979  -0.4525  -0.4203  -0.4031  -0.3870  -0.3708  -0.3679
    -0.3478  -0.2417  -0.2381  -0.2349  -0.2284  -0.1571  -0.1420  -0.1194
    -0.1002  -0.0995  -0.0745  -0.0064   0.0479   0.0664   0.1042   0.1368
     0.5259   0.7131   0.7588   0.8288   0.8541   0.8569   0.9026   0.9040
     0.9280   0.9385   0.9444   1.1868   1.2123   1.2320   1.2371   1.3338
     1.3435   1.3638   1.4491   1.5338   1.5783   1.6223   1.7348   1.7740
     1.8114   1.9814   1.9957   2.3011   2.3626   2.5977   2.6005   5.1363
     5.3697   5.3730   6.2210   6.2821   6.8220   6.8375   6.9151   7.1184
     7.9000   7.9233   8.1072   8.1928   8.4426   8.4996   8.5789   8.7086
     8.9794

          k = 0.0000 0.2640 0.0000 ( 35261 PWs)   bands (ev):

   -35.8542 -35.8292 -22.9262 -22.9227 -22.7785 -22.7290 -17.2338 -17.2136
   -17.1277 -17.1011 -16.9041 -16.8806 -15.2656 -15.2571 -14.9646 -14.9567
   -14.7966 -14.7203 -14.7180 -14.4051 -14.3988 -14.3003 -14.2623 -14.2560
   -14.2086 -14.1690 -13.1254  -8.1499  -8.1461  -8.0521  -8.0488  -8.0408
    -8.0007  -7.9440  -7.9408  -7.9130  -7.7682  -7.6827  -7.6455  -3.0722
    -3.0642  -2.9254  -2.9066  -2.6744  -2.6524  -2.6501  -2.5041  -2.5017
    -2.2049  -1.8427  -1.8315  -1.7593  -1.7387  -1.7280  -1.7220  -1.4858
    -1.2586  -1.1673  -1.0332  -1.0300  -0.9070  -0.8948  -0.8361  -0.8149
    -0.7807  -0.7753  -0.7572  -0.7219  -0.7180  -0.7174  -0.6354  -0.6006
    -0.4249  -0.2132  -0.2095  -0.1816  -0.1508  -0.1332  -0.1028  -0.0911
    -0.0185   0.0187   0.1239   0.1559   0.3625   0.3654   0.4646   0.4831
     0.7092   0.7250   0.7335   0.8931   0.9027   0.9397   0.9418   0.9850
     0.9969   1.0520   1.0581   1.0937   1.1794   1.3271   1.3419   1.4284
     1.4882   1.5508   1.6378   1.6401   1.7021   1.7208   1.7405   1.7494
     1.7531   1.8416   1.9271   2.4416   2.7388   2.8261   2.8530   5.9085
     6.2631   6.2658   7.0218   7.0476   7.6196   7.6618   7.6808   7.9858
     8.4144   8.4562   8.5575   8.5984   8.6884   8.7926   8.9756   9.0416
     9.0603

          k = 0.0000 0.3960 0.0000 ( 35206 PWs)   bands (ev):

   -35.8498 -35.8248 -22.8580 -22.8546 -22.7129 -22.6697 -17.2645 -17.2377
   -17.1320 -17.1120 -16.8985 -16.8749 -15.1624 -15.1605 -14.9594 -14.9309
   -14.8178 -14.6539 -14.5984 -14.3628 -14.3572 -14.3459 -14.3403 -14.3178
   -14.2771 -14.2208 -13.2509  -8.1498  -8.1461  -8.1302  -8.1268  -8.0395
    -8.0228  -7.9809  -7.8155  -7.8124  -7.7371  -7.6460  -7.5412  -3.5301
    -3.5205  -3.4494  -3.3454  -3.3257  -3.2198  -3.2161  -2.5947  -2.5941
    -2.2347  -2.0713  -2.0457  -1.8671  -1.7727  -1.7664  -1.6411  -1.6308
    -1.4987  -1.3818  -1.3037  -1.3001  -1.1493  -1.1218  -1.1075  -1.0553
    -1.0394  -1.0140  -0.9829  -0.9673  -0.9533  -0.9167  -0.6725  -0.6210
    -0.4021  -0.2701  -0.1961  -0.1923  -0.1473  -0.1009  -0.0930  -0.0752
    -0.0491  -0.0257   0.2403   0.2741   0.5222   0.5357   0.6916   0.6949
     0.7147   0.7375   0.7962   0.8210   0.8391   0.8831   0.9115   0.9134
     0.9927   1.1554   1.3150   1.3784   1.3812   1.4653   1.4715   1.4765
     1.4842   1.5615   1.6484   1.7240   1.7242   1.8090   1.8849   1.9802
     2.1438   2.1473   2.1616   2.3977   2.6717   2.7300   2.8804   6.7968
     7.2090   7.2121   7.9446   7.9911   8.2317   8.4499   8.4552   8.5448
     8.8123   8.8151   8.8339   8.8629   9.0024   9.1703   9.1965   9.2499
     9.4270

          k = 0.0000-0.5279 0.0000 ( 35270 PWs)   bands (ev):

   -35.8480 -35.8230 -22.8291 -22.8256 -22.6852 -22.6446 -17.3165 -17.2897
   -17.0873 -17.0673 -16.8961 -16.8726 -15.2037 -15.2003 -14.8933 -14.8247
   -14.8229 -14.6337 -14.5382 -14.4027 -14.3975 -14.3465 -14.3077 -14.2975
   -14.2942 -14.2833 -13.2991  -8.1599  -8.1565  -8.1495  -8.1458  -8.0535
    -8.0383  -7.9843  -7.7597  -7.7570  -7.7565  -7.5930  -7.4964  -3.7271
    -3.6975  -3.6914  -3.5146  -3.5054  -3.4489  -3.4455  -2.6108  -2.6103
    -2.2447  -2.1954  -2.1731  -2.0028  -1.7378  -1.7339  -1.5965  -1.5570
    -1.5545  -1.4727  -1.4304  -1.4249  -1.2763  -1.2425  -1.2265  -1.1658
    -1.1290  -1.0928  -1.0605  -1.0575  -1.0317  -1.0021  -0.6565  -0.5863
    -0.3679  -0.3197  -0.1904  -0.1867  -0.1786  -0.0927  -0.0724  -0.0702
    -0.0549  -0.0072   0.1617   0.1791   0.5655   0.5751   0.6103   0.6217
     0.7653   0.7877   0.7885   0.8449   0.8945   0.8965   0.9655   1.0296
     1.0491   1.0709   1.2700   1.3969   1.4594   1.4761   1.4836   1.6342
     1.7480   1.7536   1.7609   1.7613   1.7699   1.8136   1.8202   2.2147
     2.2698   2.3054   2.3089   2.3398   2.4931   2.5700   2.8054   7.3803
     7.6204   7.6240   8.0509   8.3102   8.6510   8.6868   8.7215   8.7282
     8.7441   8.7501   9.0358   9.0795   9.0912   9.1897   9.4391   9.4728
     9.7167

          k = 0.1250 0.0000 0.0000 ( 35357 PWs)   bands (ev):

   -35.8594 -35.8344 -23.0007 -22.9973 -22.8502 -22.7950 -17.3281 -17.3079
   -16.9918 -16.9695 -16.9004 -16.8733 -15.4558 -15.4445 -14.9493 -14.9452
   -14.9182 -14.8378 -14.8266 -14.4148 -14.4119 -14.2401 -14.2285 -14.1522
   -14.1197 -14.0977 -12.9989  -8.1767  -8.1728  -8.0530  -8.0484  -8.0470
    -8.0393  -7.8870  -7.8836  -7.8618  -7.7348  -7.7252  -7.5595  -2.5959
    -2.5951  -2.2948  -2.1064  -2.1033  -2.0747  -2.0606  -2.0585  -2.0548
    -2.0204  -2.0169  -1.7233  -1.7091  -1.4412  -1.4372  -1.1278  -0.8788
    -0.8731  -0.7418  -0.7358  -0.6920  -0.6860  -0.6709  -0.5770  -0.5639
    -0.5619  -0.5189  -0.5156  -0.5145  -0.4542  -0.4487  -0.4130  -0.3946
    -0.3071  -0.2646  -0.1534  -0.1309  -0.1280  -0.0799  -0.0753  -0.0476
    -0.0351  -0.0307  -0.0177  -0.0011   0.0547   0.0731   0.1264   0.2050
     0.2702   0.5627   0.5726   0.5773   0.6637   0.7344   0.7823   0.9204
     0.9374   0.9769   0.9856   1.1116   1.1381   1.2442   1.2469   1.2550
     1.3156   1.3359   1.5851   1.6450   1.7330   1.7480   1.7677   1.8044
     1.8104   1.9898   2.0362   2.1209   2.1900   2.3446   2.3548   4.9776
     5.1741   5.1783   6.1397   6.2091   6.7295   6.7472   6.8234   7.0375
     7.8145   7.8901   8.0703   8.1240   8.4392   8.5313   8.5789   8.6838
     9.0533

          k = 0.1250 0.1320 0.0000 ( 35338 PWs)   bands (ev):

   -35.8576 -35.8325 -22.9748 -22.9714 -22.8252 -22.7722 -17.2931 -17.2729
   -16.9950 -16.9718 -16.9632 -16.9371 -15.3738 -15.3628 -14.9453 -14.9405
   -14.8782 -14.8058 -14.7951 -14.4161 -14.4126 -14.2406 -14.2296 -14.1964
   -14.1473 -14.1389 -13.0404  -8.1953  -8.1918  -8.1135  -8.1098  -8.0495
    -8.0392  -7.9476  -7.8489  -7.8457  -7.8224  -7.6893  -7.5156  -2.6513
    -2.6487  -2.4579  -2.4248  -2.3389  -2.3123  -2.2262  -2.0850  -2.0812
    -2.0467  -2.0330  -1.8623  -1.8580  -1.6965  -1.5740  -1.5710  -1.0701
    -1.0384  -0.9370  -0.9023  -0.8964  -0.8365  -0.8307  -0.7283  -0.7254
    -0.6446  -0.5181  -0.5028  -0.4600  -0.4341  -0.4148  -0.4104  -0.3649
    -0.3195  -0.2966  -0.2667  -0.2236  -0.2231  -0.1281  -0.0875  -0.0701
    -0.0587  -0.0542   0.0111   0.0267   0.0716   0.1012   0.2565   0.2961
     0.5465   0.7827   0.8045   0.8161   0.8527   0.9006   0.9061   0.9743
     0.9899   1.0122   1.0198   1.0526   1.0606   1.0817   1.1037   1.3588
     1.3695   1.3714   1.4340   1.4377   1.4898   1.6489   1.8354   2.1006
     2.1204   2.1693   2.2211   2.3627   2.3746   2.6027   2.6067   5.2629
     5.5117   5.5144   6.4052   6.4530   7.0273   7.0456   7.0938   7.3467
     8.0099   8.0640   8.2342   8.3180   8.5621   8.6495   8.7599   8.8859
     9.0335

          k = 0.1250 0.2640 0.0000 ( 35247 PWs)   bands (ev):

   -35.8532 -35.8282 -22.9110 -22.9076 -22.7636 -22.7159 -17.2047 -17.1842
   -17.1245 -17.0980 -16.9746 -16.9520 -15.1918 -15.1830 -14.9570 -14.9462
   -14.8043 -14.7179 -14.7136 -14.3999 -14.3949 -14.3039 -14.2784 -14.2727
   -14.2054 -14.1759 -13.1379  -8.2639  -8.2606  -8.1507  -8.1467  -8.1027
    -8.0380  -8.0050  -7.9177  -7.8398  -7.8366  -7.6868  -7.5128  -3.0972
    -3.0881  -2.9304  -2.9100  -2.6656  -2.6530  -2.6508  -2.5036  -2.5010
    -2.2457  -2.0348  -2.0271  -1.9967  -1.9813  -1.7546  -1.7302  -1.4985
    -1.2713  -1.2244  -1.2101  -1.1837  -1.1426  -1.1402  -0.9212  -0.9173
    -0.8640  -0.8188  -0.7840  -0.7455  -0.7298  -0.6678  -0.6311  -0.6081
    -0.4933  -0.3849  -0.3452  -0.2339  -0.1886  -0.0493  -0.0242   0.0114
     0.1154   0.2069   0.2364   0.2689   0.5029   0.5235   0.5460   0.5559
     0.7751   0.7989   0.8146   0.8578   0.8669   0.9651   1.0465   1.0478
     1.0916   1.0934   1.1669   1.1696   1.2378   1.2610   1.3108   1.3245
     1.3976   1.3985   1.4444   1.6990   1.7153   1.7169   1.8018   2.1825
     2.2888   2.3183   2.3849   2.5613   2.7416   2.8373   2.8655   5.9748
     6.3240   6.3267   7.1041   7.1262   7.7258   7.8265   7.8313   8.1863
     8.4973   8.5628   8.6219   8.6416   8.7266   8.8294   8.8963   8.9456
     9.0279

          k = 0.1250 0.3960 0.0000 ( 35256 PWs)   bands (ev):

   -35.8488 -35.8238 -22.8451 -22.8416 -22.7002 -22.6581 -17.2593 -17.2325
   -17.1057 -17.0855 -16.9660 -16.9434 -15.1265 -15.1246 -14.8961 -14.8551
   -14.7802 -14.6393 -14.5895 -14.3920 -14.3915 -14.3454 -14.3321 -14.3116
   -14.2618 -14.2126 -13.2291  -8.2943  -8.2910  -8.1644  -8.1605  -8.1583
    -8.0416  -8.0006  -7.9203  -7.8848  -7.8816  -7.7252  -7.5842  -3.5727
    -3.5631  -3.4474  -3.3687  -3.3456  -3.2110  -3.2073  -2.6032  -2.6024
    -2.2664  -2.0239  -2.0179  -1.9316  -1.9044  -1.9005  -1.8665  -1.7332
    -1.5664  -1.5610  -1.4511  -1.4335  -1.4272  -1.3532  -1.1409  -1.1273
    -1.0956  -1.0911  -1.0325  -0.9831  -0.9816  -0.8569  -0.6717  -0.6283
    -0.5117  -0.4177  -0.3711  -0.2096  -0.1408  -0.0228  -0.0188   0.0412
     0.1332   0.2271   0.4148   0.4509   0.6673   0.6762   0.7097   0.7309
     0.8020   0.8162   0.8244   0.9076   0.9239   1.0002   1.0054   1.0118
     1.1295   1.1822   1.3959   1.4036   1.4600   1.4772   1.5059   1.5608
     1.5814   1.6234   1.6302   1.9007   2.1108   2.1137   2.1158   2.1471
     2.2407   2.2666   2.3680   2.5034   2.6911   2.7895   2.9039   6.7754
     7.0729   7.0762   7.7997   7.8585   8.0799   8.4331   8.4372   8.5368
     8.6424   8.6878   9.0708   9.1247   9.1292   9.2949   9.3387   9.4170
     9.5243

          k = 0.1250-0.5279 0.0000 ( 35232 PWs)   bands (ev):

   -35.8469 -35.8219 -22.8171 -22.8137 -22.6733 -22.6337 -17.3109 -17.2841
   -17.0626 -17.0424 -16.9622 -16.9396 -15.1586 -15.1556 -14.8504 -14.7495
   -14.7487 -14.6075 -14.5233 -14.4345 -14.4338 -14.3233 -14.3082 -14.2981
   -14.2933 -14.2679 -13.2645  -8.2890  -8.2856  -8.1756  -8.1670  -8.1632
    -8.0432  -7.9995  -7.9191  -7.9159  -7.8867  -7.7489  -7.6452  -3.7616
    -3.7478  -3.7027  -3.5458  -3.5377  -3.4404  -3.4367  -2.6242  -2.6235
    -2.2715  -2.0572  -2.0487  -1.9632  -1.8432  -1.8323  -1.7666  -1.7594
    -1.7528  -1.7051  -1.6131  -1.5991  -1.5050  -1.4349  -1.2389  -1.2326
    -1.1742  -1.1715  -1.1234  -1.0755  -1.0738  -0.9269  -0.6602  -0.6018
    -0.5137  -0.4288  -0.3846  -0.1961  -0.1174  -0.0113  -0.0075   0.0554
     0.1352   0.2181   0.3856   0.4020   0.6974   0.7008   0.7268   0.7342
     0.7623   0.7833   0.8109   0.9080   1.0286   1.0407   1.0675   1.0825
     1.1003   1.2353   1.2978   1.5228   1.5243   1.7492   1.7496   1.7628
     1.7665   1.8064   1.8110   2.0320   2.1091   2.1291   2.2004   2.2504
     2.2762   2.2798   2.3293   2.3506   2.5514   2.6786   2.8297   7.2134
     7.2937   7.2988   7.9649   8.0476   8.1247   8.2397   8.7539   8.8258
     9.0692   9.0745   9.1280   9.2286   9.3179   9.4510   9.5771   9.6143
     9.7840

          k = 0.2500 0.0000 0.0000 ( 35374 PWs)   bands (ev):

   -35.8567 -35.8317 -22.9564 -22.9529 -22.8072 -22.7580 -17.2436 -17.2228
   -17.1549 -17.1345 -16.8970 -16.8700 -15.2465 -15.2360 -15.0564 -15.0356
   -14.9899 -14.8524 -14.8477 -14.4292 -14.4258 -14.2859 -14.2726 -14.1898
   -14.1647 -14.1370 -13.1612  -8.1782  -8.1741  -8.0724  -8.0274  -7.9638
    -7.9606  -7.8063  -7.8029  -7.7843  -7.6482  -7.6298  -7.4943  -2.7951
    -2.7886  -2.6370  -2.5465  -2.4372  -2.4326  -2.2107  -2.0080  -2.0051
    -1.9242  -1.9221  -1.7398  -1.7050  -1.4378  -1.4339  -1.2076  -1.2056
    -1.1691  -1.0090  -0.9998  -0.9943  -0.9382  -0.9265  -0.8670  -0.7551
    -0.7533  -0.5697  -0.5571  -0.5341  -0.5298  -0.4894  -0.4687  -0.4624
    -0.4327  -0.2946  -0.1435  -0.1407  -0.0893  -0.0549  -0.0274   0.0031
     0.0924   0.0968   0.1001   0.1370   0.1413   0.2456   0.2643   0.3141
     0.3162   0.4271   0.4342   0.5243   0.6735   0.6777   0.8072   1.0369
     1.0418   1.0710   1.0747   1.1099   1.1556   1.1802   1.1882   1.2443
     1.2968   1.3633   1.5750   1.6265   1.6646   1.7042   1.7885   1.7908
     1.9052   2.0438   2.0694   2.2021   2.3295   2.4500   2.4668   5.3929
     5.6307   5.6330   6.7449   6.7898   7.2973   7.3279   7.3594   7.6962
     8.1012   8.2249   8.3541   8.4306   8.6054   8.7366   9.0677   9.1469
     9.3159

          k = 0.2500 0.1320 0.0000 ( 35315 PWs)   bands (ev):

   -35.8549 -35.8299 -22.9326 -22.9291 -22.7841 -22.7365 -17.2119 -17.1910
   -17.1483 -17.1277 -16.9630 -16.9361 -15.1914 -15.1828 -15.0157 -14.9891
   -14.9385 -14.8170 -14.8099 -14.4149 -14.4114 -14.2794 -14.2688 -14.2118
   -14.1925 -14.1729 -13.1635  -8.2459  -8.2425  -8.1126  -8.1007  -8.0975
    -8.0352  -7.9406  -7.8405  -7.7726  -7.7693  -7.6229  -7.4435  -2.8483
    -2.8387  -2.6744  -2.5774  -2.4288  -2.4239  -2.3464  -2.3462  -2.2500
    -2.2365  -2.1743  -1.8525  -1.8483  -1.7313  -1.6278  -1.6242  -1.2807
    -1.2461  -1.2328  -1.1921  -1.1707  -1.1576  -0.9852  -0.8597  -0.8589
    -0.8092  -0.7911  -0.5942  -0.5682  -0.4959  -0.4783  -0.4577  -0.4286
    -0.4093  -0.2643  -0.2501  -0.2111  -0.2030  -0.1374  -0.0692  -0.0436
     0.0112   0.0942   0.1178   0.1405   0.3186   0.3966   0.5050   0.5386
     0.5920   0.6786   0.6866   0.7737   0.8064   0.8654   0.9140   0.9721
     0.9790   1.1304   1.1344   1.1572   1.1706   1.1909   1.2515   1.2557
     1.2790   1.2943   1.3910   1.5000   1.5064   1.5292   1.9249   2.2886
     2.3693   2.4493   2.4549   2.5926   2.6126   2.6557   2.6634   5.6093
     5.8918   5.8941   6.9084   6.9408   7.5297   7.5872   7.5900   7.9772
     8.2454   8.3397   8.4527   8.5651   8.6837   8.8347   8.9430   8.9875
     9.1680

          k = 0.2500 0.2640 0.0000 ( 35309 PWs)   bands (ev):

   -35.8506 -35.8256 -22.8739 -22.8704 -22.7273 -22.6839 -17.1515 -17.1296
   -17.1211 -17.0996 -17.0990 -17.0737 -15.0915 -15.0882 -14.9037 -14.8534
   -14.8087 -14.7283 -14.7082 -14.3946 -14.3879 -14.3333 -14.3155 -14.2593
   -14.2066 -14.1951 -13.1696  -8.4658  -8.4626  -8.3020  -8.1632  -8.1593
    -8.1251  -8.0234  -8.0169  -7.8925  -7.8892  -7.7495  -7.5593  -3.2398
    -3.2234  -3.0146  -2.9703  -2.6689  -2.6646  -2.6415  -2.5392  -2.5338
    -2.4928  -2.4438  -2.3977  -2.3912  -2.1725  -1.7013  -1.6911  -1.6524
    -1.6466  -1.5875  -1.5460  -1.4081  -1.2349  -1.2137  -0.9745  -0.9691
    -0.9648  -0.9146  -0.8262  -0.8211  -0.8188  -0.7141  -0.6911  -0.6460
    -0.6184  -0.5183  -0.4921  -0.2412  -0.1053   0.0553   0.1500   0.1769
     0.3130   0.4034   0.5244   0.5806   0.5896   0.6082   0.7287   0.7427
     0.8313   0.9023   0.9355   1.0146   1.0213   1.0487   1.1218   1.1248
     1.2002   1.2104   1.2557   1.2683   1.2892   1.3380   1.3532   1.3928
     1.4376   1.4713   1.5317   1.6326   1.6345   1.6451   2.0937   2.2933
     2.7123   2.7696   2.7854   3.0241   3.0316   3.1499   3.1549   6.1403
     6.4330   6.4356   7.2896   7.3124   7.8271   8.1189   8.1218   8.4504
     8.5103   8.6709   8.7865   8.8158   8.9599   8.9688   9.0871   9.1152
     9.1688

          k = 0.2500 0.3960 0.0000 ( 35278 PWs)   bands (ev):

   -35.8462 -35.8212 -22.8135 -22.8100 -22.6689 -22.6300 -17.2473 -17.2206
   -17.1141 -17.0934 -17.0369 -17.0156 -15.0436 -15.0424 -14.7803 -14.6792
   -14.6736 -14.6248 -14.5715 -14.4622 -14.4549 -14.3281 -14.3151 -14.2940
   -14.2272 -14.1998 -13.1753  -8.5859  -8.5826  -8.4378  -8.2252  -8.2133
    -8.2095  -8.1066  -8.1032  -8.0481  -8.0337  -7.9662  -7.8021  -3.7375
    -3.7230  -3.5120  -3.4669  -3.3716  -3.1900  -3.1862  -2.6779  -2.6745
    -2.4927  -2.4070  -2.3570  -2.3405  -2.1530  -2.0382  -2.0254  -1.9119
    -1.8813  -1.7009  -1.6706  -1.5473  -1.4239  -1.4125  -1.2260  -1.1477
    -1.0618  -1.0384  -1.0338  -1.0238  -1.0180  -0.8609  -0.8139  -0.6938
    -0.6781  -0.5664  -0.5443  -0.1322   0.0077   0.1020   0.2142   0.2277
     0.4634   0.6294   0.7406   0.7536   0.7602   0.7635   0.8838   0.9983
     1.0035   1.0441   1.0610   1.0846   1.0898   1.1970   1.2769   1.2944
     1.4061   1.4148   1.4540   1.4686   1.5291   1.5374   1.5838   1.6057
     1.6536   1.6555   1.8946   2.0022   2.0324   2.0355   2.0964   2.2177
     2.5841   2.6052   2.8015   3.2469   3.2524   3.3981   3.4002   6.5623
     6.6402   6.6458   7.4244   7.4833   7.8695   8.5090   8.5630   8.5916
     8.7467   8.7944   9.3111   9.3254   9.4326   9.4943   9.5317   9.5835
     9.6269

          k = 0.2500-0.5279 0.0000 ( 35312 PWs)   bands (ev):

   -35.8444 -35.8194 -22.7879 -22.7844 -22.6443 -22.6072 -17.2974 -17.2706
   -17.1085 -17.0878 -16.9977 -16.9764 -15.0405 -15.0386 -14.7379 -14.6015
   -14.5973 -14.5496 -14.5157 -14.5091 -14.4936 -14.3067 -14.2924 -14.2874
   -14.2643 -14.2346 -13.1772  -8.5861  -8.5827  -8.4593  -8.3008  -8.2976
    -8.1923  -8.1733  -8.1696  -8.0956  -8.0670  -8.0293  -7.9619  -3.9366
    -3.9217  -3.7320  -3.6626  -3.6214  -3.4176  -3.4139  -2.6845  -2.6818
    -2.4634  -2.3675  -2.3159  -2.2883  -2.1965  -2.1812  -2.1356  -2.0576
    -2.0176  -1.7253  -1.6955  -1.6014  -1.4996  -1.4879  -1.3182  -1.2409
    -1.1464  -1.1066  -1.1007  -1.0531  -1.0437  -0.8743  -0.8174  -0.7111
    -0.7020  -0.5847  -0.5479  -0.0907   0.0355   0.1130   0.2315   0.2662
     0.4945   0.6576   0.7812   0.7935   0.8497   0.8567   0.9511   0.9621
     0.9639   1.0689   1.0975   1.1601   1.1746   1.2610   1.2722   1.2824
     1.3530   1.6233   1.6485   1.6669   1.7260   1.7408   1.7518   1.7911
     1.8101   1.8200   1.8321   2.0981   2.1779   2.2082   2.2116   2.2930
     2.3613   2.3935   2.7325   3.2659   3.2718   3.4346   3.4378   6.6013
     6.6063   6.6492   7.3984   7.4552   8.0631   8.2619   8.8523   8.9773
     9.1674   9.2562   9.2899   9.2974   9.4629   9.6110   9.6720   9.7977
     9.8685

          k = 0.3750 0.0000 0.0000 ( 35310 PWs)   bands (ev):

   -35.8541 -35.8291 -22.9110 -22.9075 -22.7632 -22.7202 -17.2953 -17.2762
   -17.1482 -17.1261 -16.8937 -16.8666 -15.2722 -15.2699 -15.1253 -14.9008
   -14.8825 -14.8553 -14.8420 -14.4446 -14.4387 -14.3847 -14.3735 -14.2152
   -14.1932 -14.1620 -13.3121  -8.1607  -8.1565  -8.0599  -8.0054  -7.8988
    -7.8958  -7.7456  -7.7220  -7.7185  -7.5679  -7.5382  -7.4268  -3.1274
    -3.1166  -3.0005  -2.9342  -2.5561  -2.5546  -2.2616  -1.9341  -1.9289
    -1.8361  -1.8009  -1.7753  -1.7753  -1.4538  -1.4394  -1.4357  -1.3060
    -1.3010  -1.2561  -1.2523  -1.1702  -1.1658  -1.1617  -1.1164  -0.9551
    -0.9534  -0.7022  -0.6585  -0.5768  -0.5693  -0.5357  -0.5123  -0.4607
    -0.4571  -0.3479  -0.1563  -0.1535  -0.1025  -0.0890  -0.0526   0.0208
     0.1206   0.1401   0.1682   0.1775   0.1805   0.1851   0.2030   0.2530
     0.2641   0.4128   0.4897   0.5535   0.8399   0.9468   0.9504   0.9601
     0.9651   0.9732   1.1111   1.1223   1.2105   1.2383   1.2724   1.3532
     1.4279   1.4989   1.5120   1.5665   1.5866   1.6288   1.7084   1.8741
     1.8797   2.0793   2.1105   2.3084   2.3945   2.5623   2.5942   5.9962
     6.2804   6.2826   7.4848   7.5196   7.6652   7.7743   7.7762   8.0819
     8.2382   8.2757   8.5066   8.5764   9.1008   9.1339   9.2170   9.2370
     9.2395

          k = 0.3750 0.1320 0.0000 ( 35339 PWs)   bands (ev):

   -35.8523 -35.8273 -22.8893 -22.8858 -22.7421 -22.7002 -17.2867 -17.2675
   -17.1193 -17.0971 -16.9580 -16.9310 -15.2242 -15.2222 -15.0665 -14.8621
   -14.8397 -14.7936 -14.7817 -14.4147 -14.4096 -14.3639 -14.3528 -14.2337
   -14.2104 -14.1995 -13.2809  -8.2177  -8.2140  -8.0966  -8.0625  -8.0592
    -8.0205  -7.9057  -7.8116  -7.8082  -7.7597  -7.6703  -7.4868  -3.1925
    -3.1782  -3.0435  -2.9684  -2.5554  -2.5536  -2.3281  -2.3103  -2.2453
    -2.1449  -2.1219  -1.8408  -1.8366  -1.7511  -1.7046  -1.6884  -1.5446
    -1.5367  -1.4772  -1.4455  -1.3392  -1.1991  -1.0276  -1.0164  -0.9993
    -0.9650  -0.9031  -0.6587  -0.6441  -0.5540  -0.5047  -0.5030  -0.4900
    -0.4530  -0.2964  -0.2699  -0.1970  -0.1897  -0.1551  -0.0696  -0.0458
    -0.0180   0.2034   0.2201   0.2272   0.4167   0.4277   0.5429   0.5496
     0.5586   0.6859   0.7147   0.7935   0.8944   0.9471   0.9680   0.9828
     0.9864   1.1148   1.1332   1.1356   1.2625   1.2873   1.3034   1.3836
     1.4505   1.4579   1.5121   1.5406   1.5517   1.5519   1.7404   2.2949
     2.3893   2.5286   2.5333   2.6885   2.6920   2.8607   2.8690   6.1341
     6.4289   6.4313   7.5244   7.5489   7.6886   7.8394   7.8423   8.1568
     8.2430   8.3695   8.6818   8.7772   9.0078   9.0517   9.1268   9.2739
     9.3874

          k = 0.3750 0.2640 0.0000 ( 35367 PWs)   bands (ev):

   -35.8480 -35.8230 -22.8360 -22.8325 -22.6903 -22.6514 -17.2664 -17.2470
   -17.1026 -17.0757 -17.0439 -17.0219 -15.1013 -15.1002 -14.9104 -14.7681
   -14.7410 -14.6457 -14.6303 -14.3834 -14.3711 -14.3464 -14.3378 -14.2778
   -14.2417 -14.2085 -13.2027  -8.5186  -8.5153  -8.3568  -8.1976  -8.1940
    -8.1750  -8.0751  -8.0716  -8.0373  -8.0108  -7.9484  -7.7580  -3.5192
    -3.4958  -3.2785  -3.2077  -2.7356  -2.7293  -2.6454  -2.6409  -2.6171
    -2.6058  -2.6029  -2.4750  -2.4726  -2.2310  -2.0255  -2.0118  -1.8481
    -1.8246  -1.4968  -1.4746  -1.3052  -1.2266  -1.1976  -1.1188  -1.1149
    -1.0733  -1.0204  -0.8816  -0.8746  -0.8715  -0.7900  -0.7695  -0.6178
    -0.6130  -0.5516  -0.5125  -0.2320  -0.0639   0.1212   0.2649   0.3092
     0.4494   0.5016   0.5963   0.6263   0.7756   0.7838   0.8380   0.9059
     0.9154   0.9742   0.9782   1.0424   1.1356   1.1675   1.1716   1.1744
     1.3760   1.3923   1.3990   1.4282   1.4735   1.4944   1.5195   1.5210
     1.5269   1.5427   1.5757   1.5782   1.5797   1.6196   2.0820   2.2686
     2.7077   2.7738   2.7984   3.4773   3.4786   3.5716   3.5726   6.3151
     6.4737   6.4759   7.3431   7.3688   7.7423   8.1773   8.1802   8.3680
     8.5690   8.6974   9.0301   9.1774   9.2095   9.2845   9.3416   9.5233
     9.5418

          k = 0.3750 0.3960 0.0000 ( 35343 PWs)   bands (ev):

   -35.8437 -35.8186 -22.7813 -22.7779 -22.6372 -22.6014 -17.2494 -17.2287
   -17.2286 -17.2030 -16.9648 -16.9427 -14.9649 -14.9647 -14.7255 -14.6775
   -14.6400 -14.4908 -14.4823 -14.4681 -14.4607 -14.3090 -14.3017 -14.2712
   -14.2095 -14.2068 -13.1196  -8.7844  -8.7810  -8.6339  -8.4493  -8.4462
    -8.4267  -8.2604  -8.2005  -8.1967  -8.1218  -8.0598  -8.0281  -4.0002
    -3.9786  -3.7197  -3.6670  -3.3588  -3.1692  -3.1654  -2.8621  -2.8556
    -2.7525  -2.7308  -2.5042  -2.5026  -2.3376  -2.3198  -2.2074  -2.0802
    -2.0566  -1.5168  -1.4696  -1.4643  -1.4325  -1.4289  -1.2262  -1.1995
    -1.1928  -1.1237  -1.0964  -1.0650  -1.0639  -1.0097  -0.9776  -0.6233
    -0.6211  -0.5518  -0.4904  -0.0808   0.0758   0.1900   0.4269   0.4814
     0.6986   0.8866   0.9196   0.9505   0.9783   1.0400   1.0627   1.1157
     1.1186   1.2360   1.2550   1.2569   1.2853   1.3268   1.3464   1.4604
     1.5357   1.5373   1.6198   1.6294   1.6860   1.7448   1.7511   1.8073
     1.8322   1.8502   1.9142   1.9541   1.9571   2.0276   2.1318   2.2736
     2.5666   2.6018   2.8078   3.9877   3.9890   4.0622   4.0627   6.1532
     6.1718   6.1873   7.0752   7.1140   7.9458   8.4100   8.7431   8.7556
     8.9046   9.0866   9.1481   9.2438   9.2970   9.3565   9.3670   9.4566
     9.6243

          k = 0.3750-0.5279 0.0000 ( 35336 PWs)   bands (ev):

   -35.8419 -35.8168 -22.7583 -22.7548 -22.6149 -22.5804 -17.2841 -17.2573
   -17.2366 -17.2169 -16.9295 -16.9074 -14.9026 -14.9026 -14.6457 -14.6455
   -14.6041 -14.5062 -14.4819 -14.4222 -14.4214 -14.3012 -14.2844 -14.2794
   -14.2118 -14.1994 -13.0836  -8.8665  -8.8630  -8.7304  -8.5944  -8.5913
    -8.4910  -8.3895  -8.2832  -8.2265  -8.2224  -8.0726  -8.0541  -4.2060
    -4.1852  -3.9224  -3.8699  -3.6316  -3.3944  -3.3906  -2.8805  -2.8740
    -2.7619  -2.7336  -2.4985  -2.4968  -2.4437  -2.4260  -2.1875  -2.1648
    -2.1390  -1.6148  -1.5624  -1.5467  -1.4774  -1.4735  -1.2875  -1.2182
    -1.2026  -1.1908  -1.1856  -1.1580  -1.1523  -1.0385  -0.9883  -0.6070
    -0.6056  -0.5468  -0.4685  -0.0339   0.1059   0.2036   0.4794   0.5716
     0.7710   1.0313   1.0381   1.0516   1.0565   1.1006   1.1054   1.1067
     1.1428   1.2922   1.3046   1.3530   1.3632   1.5424   1.5431   1.5531
     1.6308   1.6382   1.6896   1.8106   1.8150   1.8877   1.8892   1.9364
     1.9949   2.0129   2.1324   2.1440   2.1484   2.1798   2.1912   2.2434
     2.3227   2.3731   2.7341   4.1251   4.1263   4.2139   4.2142   5.9906
     5.9947   6.0312   6.9720   7.0297   8.0752   8.2955   8.8852   8.9093
     9.0094   9.1005   9.1317   9.2352   9.3463   9.4645   9.6039   9.6287
     9.6886

          k =-0.5000 0.0000 0.0000 ( 35302 PWs)   bands (ev):

   -35.8530 -35.8280 -22.8919 -22.8884 -22.7446 -22.7043 -17.3475 -17.3287
   -17.1065 -17.0838 -16.8923 -16.8653 -15.3302 -15.3267 -15.1692 -14.9276
   -14.8868 -14.6315 -14.6158 -14.5795 -14.5544 -14.4224 -14.4186 -14.2239
   -14.2004 -14.1671 -13.3714  -8.1504  -8.1462  -8.0475  -7.9946  -7.8756
    -7.8727  -7.7377  -7.6859  -7.6824  -7.5336  -7.5031  -7.3982  -3.2696
    -3.2587  -3.1449  -3.0830  -2.5806  -2.5796  -2.2723  -1.9029  -1.8913
    -1.8844  -1.8719  -1.6541  -1.6499  -1.5545  -1.4433  -1.4396  -1.4199
    -1.4121  -1.3459  -1.3345  -1.2688  -1.2637  -1.1838  -1.1795  -1.0385
    -1.0367  -0.7713  -0.7132  -0.5965  -0.5840  -0.5538  -0.5366  -0.4497
    -0.4470  -0.3615  -0.1617  -0.1589  -0.1364  -0.1116  -0.1078   0.0103
     0.0964   0.1455   0.1695   0.1802   0.1809   0.1829   0.2032   0.2059
     0.3174   0.3232   0.5323   0.5884   0.8957   0.8978   0.9108   0.9138
     1.1010   1.1157   1.1253   1.1412   1.1595   1.3373   1.3379   1.3463
     1.4297   1.4315   1.5411   1.6029   1.6152   1.6627   1.7193   1.8884
     1.8941   2.0813   2.1080   2.3140   2.3922   2.5939   2.6296   6.7519
     6.8321   7.0516   7.0541   7.1054   7.1077   7.9827   8.0148   8.2661
     8.2746   8.4020   8.7841   8.9291   9.0920   9.1784   9.1982   9.3315
     9.3921

          k =-0.5000 0.1320 0.0000 ( 35362 PWs)   bands (ev):

   -35.8512 -35.8262 -22.8711 -22.8676 -22.7244 -22.6850 -17.3383 -17.3194
   -17.0791 -17.0564 -16.9558 -16.9289 -15.2729 -15.2700 -15.1045 -14.8876
   -14.8469 -14.5928 -14.5772 -14.5193 -14.4955 -14.4007 -14.3969 -14.2404
   -14.2136 -14.2053 -13.3277  -8.1891  -8.1851  -8.0699  -8.0110  -8.0050
    -8.0021  -7.8890  -7.8854  -7.8571  -7.7466  -7.6352  -7.6013  -3.3411
    -3.3268  -3.1960  -3.1247  -2.5861  -2.5847  -2.3262  -2.2811  -2.2350
    -2.0878  -2.0674  -1.8354  -1.8313  -1.7714  -1.7521  -1.6990  -1.6603
    -1.6527  -1.5782  -1.5359  -1.3839  -1.2098  -1.0946  -1.0928  -0.9938
    -0.9911  -0.9219  -0.6954  -0.6812  -0.5733  -0.5270  -0.5146  -0.5125
    -0.4706  -0.3204  -0.2800  -0.2061  -0.1801  -0.1578  -0.0713  -0.0448
    -0.0328   0.2629   0.2911   0.2938   0.3284   0.3367   0.4802   0.5125
     0.6126   0.6684   0.7629   0.8086   0.9106   0.9539   0.9848   1.0345
     1.0533   1.0653   1.1483   1.1613   1.2687   1.3634   1.3719   1.4059
     1.4833   1.5066   1.5405   1.6066   1.6273   1.6276   1.6774   2.2890
     2.3921   2.5315   2.5357   2.7038   2.7053   2.9140   2.9227   6.6800
     6.8994   6.9019   7.0617   7.4064   7.4097   7.9022   7.9283   8.1078
     8.2081   8.5016   8.9740   9.0198   9.1531   9.2722   9.3811   9.4957
     9.5082

          k =-0.5000 0.2640 0.0000 ( 35376 PWs)   bands (ev):

   -35.8469 -35.8219 -22.8201 -22.8166 -22.6747 -22.6378 -17.3163 -17.2974
   -17.0992 -17.0723 -17.0079 -16.9853 -15.1209 -15.1194 -14.9304 -14.7920
   -14.7498 -14.4974 -14.4819 -14.4051 -14.3929 -14.3506 -14.3465 -14.3245
   -14.2766 -14.2036 -13.2165  -8.4576  -8.4540  -8.3062  -8.3033  -8.2996
    -8.1391  -8.1352  -8.1347  -8.1258  -8.0210  -7.9635  -7.9506  -3.6578
    -3.6336  -3.4241  -3.3524  -2.7626  -2.7580  -2.6684  -2.6607  -2.6130
    -2.6109  -2.6072  -2.4827  -2.4802  -2.2494  -2.1527  -2.1355  -1.9354
    -1.9075  -1.4169  -1.3883  -1.2528  -1.1931  -1.1908  -1.1843  -1.1531
    -1.1436  -1.0890  -0.9023  -0.8979  -0.8953  -0.7948  -0.7695  -0.6214
    -0.6175  -0.5677  -0.5156  -0.2278  -0.0487   0.1422   0.3040   0.3610
     0.4968   0.5398   0.6273   0.6391   0.8516   0.8557   0.9123   0.9243
     0.9258   0.9675   0.9933   1.0125   1.1763   1.1882   1.2193   1.2463
     1.3687   1.4643   1.4691   1.4899   1.4941   1.5145   1.5207   1.5603
     1.5817   1.6279   1.6332   1.6489   1.6529   1.8306   1.8459   2.2401
     2.7007   2.7678   2.7948   3.6167   3.6174   3.7041   3.7061   6.3927
     6.4709   6.4722   7.2735   7.3038   7.7177   8.1858   8.2160   8.2229
     8.7768   8.8272   8.9657   9.3472   9.3626   9.3787   9.3830   9.5212
     9.6718

          k =-0.5000 0.3960 0.0000 ( 35336 PWs)   bands (ev):

   -35.8426 -35.8176 -22.7679 -22.7644 -22.6240 -22.5895 -17.2948 -17.2757
   -17.2280 -17.2013 -16.9327 -16.9101 -14.9363 -14.9361 -14.7334 -14.7079
   -14.6332 -14.4724 -14.4506 -14.4025 -14.3882 -14.3023 -14.2976 -14.2520
   -14.2401 -14.2120 -13.0958  -8.8327  -8.8292  -8.6875  -8.5943  -8.5913
    -8.4696  -8.3982  -8.2646  -8.2170  -8.2129  -8.0735  -8.0432  -4.1321
    -4.1084  -3.8414  -3.7854  -3.3510  -3.1606  -3.1568  -2.9318  -2.9253
    -2.8243  -2.8165  -2.5200  -2.5189  -2.4398  -2.4207  -2.2154  -2.1393
    -2.1134  -1.5213  -1.4664  -1.4434  -1.3420  -1.3361  -1.3065  -1.2818
    -1.1991  -1.1185  -1.1144  -1.0908  -1.0868  -1.0710  -1.0494  -0.5815
    -0.5793  -0.5564  -0.4553  -0.0647   0.0989   0.2212   0.5246   0.5892
     0.7958   0.9661   1.0299   1.0341   1.0401   1.1399   1.1411   1.1722
     1.2068   1.2470   1.3305   1.3328   1.3364   1.3415   1.3665   1.5354
     1.5872   1.6258   1.6494   1.6511   1.7351   1.8063   1.8184   1.9166
     1.9214   1.9246   1.9620   1.9715   1.9965   2.0655   2.1784   2.2158
     2.5536   2.5919   2.8064   4.2519   4.2569   4.3081   4.3083   5.9630
     5.9764   5.9911   6.9271   6.9734   8.1433   8.1862   8.6910   8.7109
     8.8910   9.1530   9.2068   9.2324   9.3222   9.3780   9.4372   9.5088
     9.6556

          k =-0.5000-0.5279 0.0000 ( 35396 PWs)   bands (ev):

   -35.8408 -35.8158 -22.7459 -22.7424 -22.6026 -22.5692 -17.2861 -17.2786
   -17.2668 -17.2519 -16.8994 -16.8768 -14.8368 -14.8355 -14.6896 -14.6886
   -14.5208 -14.5049 -14.4967 -14.3706 -14.3668 -14.2960 -14.2797 -14.2748
   -14.2086 -14.1702 -13.0426  -8.9788  -8.9752  -8.8397  -8.7104  -8.7074
    -8.6138  -8.5035  -8.3953  -8.2450  -8.2409  -8.0894  -8.0618  -4.3401
    -4.3171  -4.0402  -3.9863  -3.6258  -3.3849  -3.3811  -2.9640  -2.9575
    -2.8499  -2.8357  -2.5308  -2.5122  -2.5101  -2.5090  -2.2065  -2.1868
    -2.1819  -1.6318  -1.5805  -1.5558  -1.4108  -1.4015  -1.2706  -1.2644
    -1.2527  -1.2060  -1.2030  -1.1932  -1.1853  -1.1157  -1.0614  -0.5525
    -0.5503  -0.5464  -0.4261  -0.0172   0.1306   0.2365   0.6023   0.7130
     0.8937   1.1094   1.1127   1.1142   1.1182   1.1488   1.1569   1.2240
     1.3756   1.3772   1.3785   1.3961   1.4199   1.6156   1.6445   1.6646
     1.6767   1.7527   1.7716   1.7817   1.8400   1.8414   1.9379   1.9470
     2.1141   2.1176   2.1603   2.1725   2.1735   2.2085   2.2985   2.3197
     2.3518   2.3612   2.7353   4.4452   4.4499   4.5177   4.5184   5.7457
     5.7495   5.7750   6.8079   6.8741   8.1366   8.2554   8.7637   8.8005
     8.8139   8.8609   9.1030   9.1685   9.2662   9.2769   9.6027   9.6466
     9.7845

     the Fermi energy is     2.3432 ev

!    total energy              =   -1842.79116808 Ry
     Harris-Foulkes estimate   =   -1842.79116808 Ry
     estimated scf accuracy    <          1.7E-09 Ry

     The total energy is the sum of the following terms:

     one-electron contribution =  -27011.08791812 Ry
     hartree contribution      =   13656.88088097 Ry
     xc contribution           =    -621.61959936 Ry
     ewald contribution        =   12133.04714207 Ry
     smearing contrib. (-TS)   =      -0.01167364 Ry

     convergence has been achieved in  36 iterations

     negative rho (up, down):  1.492E-03 0.000E+00

     Forces acting on atoms (cartesian axes, Ry/au):

     atom    1 type  4   force =     0.00000000    0.00000000   -0.00036224
     atom    2 type  3   force =     0.00000000    0.00000000    0.00049190
     atom    3 type  4   force =     0.00000000    0.00000000   -0.00072975
     atom    4 type  1   force =     0.00000000    0.00000000   -0.00053080
     atom    5 type  3   force =     0.00000000    0.00000000    0.00044227
     atom    6 type  4   force =     0.00000000    0.00000000    0.00092510
     atom    7 type  4   force =     0.00000000    0.00000000    0.00114787
     atom    8 type  2   force =     0.00000000    0.00000000   -0.00276810
     atom    9 type  4   force =     0.00000000    0.00000000    0.00468246
     atom   10 type  4   force =     0.00000000    0.00000000    0.00404894
     atom   11 type  3   force =     0.00000000    0.00000000    0.00129661
     atom   12 type  1   force =     0.00000000    0.00000000    0.00930235
     atom   13 type  4   force =     0.00000000    0.00000000   -0.01931872
     atom   14 type  4   force =     0.00000000    0.00000000    0.03724426
     atom   15 type  3   force =     0.00000000    0.00000000   -0.03025373
     atom   16 type  4   force =     0.00000000    0.00000000    0.02699162
     atom   17 type  1   force =     0.00000000    0.00000000   -0.00979467
     atom   18 type  3   force =     0.00000000    0.00000000   -0.02129611
     atom   19 type  4   force =     0.00000000    0.00000000   -0.00076698
     atom   20 type  4   force =     0.00000000    0.00000000   -0.00167234
     atom   21 type  2   force =     0.00000000    0.00000000    0.00251353
     atom   22 type  4   force =     0.00000000    0.00000000   -0.00170528
     atom   23 type  4   force =     0.00000000    0.00000000   -0.00020545
     atom   24 type  3   force =     0.00000000    0.00000000   -0.00025364
     atom   25 type  1   force =     0.00000000    0.00000000    0.00038865
     atom   26 type  4   force =     0.00000000    0.00000000    0.00026118
     atom   27 type  3   force =     0.00000000    0.00000000   -0.00002610
     atom   28 type  4   force =     0.00000000    0.00000000   -0.00005282

     Total force =     0.064065     Total SCF correction =     0.000147


     Computing stress (Cartesian axis) and pressure


     negative rho (up, down):  1.492E-03 0.000E+00
          total   stress  (Ry/bohr**3)                   (kbar)     P=       -5.77
   0.00000808   0.00000000   0.00000000            1.19        0.00        0.00
   0.00000000  -0.00008505   0.00000000            0.00      -12.51        0.00
   0.00000000   0.00000000  -0.00004072            0.00        0.00       -5.99

 
     init_run     :      8.30s CPU      8.90s WALL (       1 calls)
     electrons    :    558.10s CPU    603.57s WALL (       1 calls)
     forces       :      3.55s CPU      3.96s WALL (       1 calls)
     stress       :     21.65s CPU     22.65s WALL (       1 calls)

     Called by init_run:
     wfcinit      :      5.92s CPU      6.06s WALL (       1 calls)
     potinit      :      0.61s CPU      0.63s WALL (       1 calls)
     hinit0       :      0.92s CPU      0.95s WALL (       1 calls)

     Called by electrons:
     c_bands      :    441.78s CPU    459.57s WALL (      36 calls)
     sum_band     :     77.88s CPU     92.99s WALL (      36 calls)
     v_of_rho     :      2.72s CPU      2.76s WALL (      37 calls)
     newd         :     17.89s CPU     30.56s WALL (      37 calls)
     mix_rho      :     18.12s CPU     18.31s WALL (      36 calls)

     Called by c_bands:
     init_us_2    :      3.76s CPU      3.82s WALL (    1875 calls)
     cegterg      :    417.01s CPU    434.13s WALL (     900 calls)

     Called by sum_band:
     sum_band:bec :      0.25s CPU      0.26s WALL (     900 calls)
     addusdens    :     20.02s CPU     34.32s WALL (      36 calls)

     Called by *egterg:
     h_psi        :    211.66s CPU    221.48s WALL (    3817 calls)
     s_psi        :     22.50s CPU     22.88s WALL (    3817 calls)
     g_psi        :      0.67s CPU      0.68s WALL (    2892 calls)
     cdiaghg      :    108.00s CPU    108.46s WALL (    3792 calls)

     Called by h_psi:
     h_psi:calbec :     24.91s CPU     26.12s WALL (    3817 calls)
     vloc_psi     :    162.08s CPU    164.89s WALL (    3817 calls)
     add_vuspsi   :     23.39s CPU     26.62s WALL (    3817 calls)

     General routines
     calbec       :     38.17s CPU     39.46s WALL (    4842 calls)
     fft          :      2.12s CPU      2.16s WALL (     504 calls)
     ffts         :      9.81s CPU      9.91s WALL (   16674 calls)
     fftw         :    185.76s CPU    188.95s WALL (  639838 calls)
     interpolate  :      0.18s CPU      0.18s WALL (      37 calls)
 
     Parallel routines
     fft_scatt_xy :     23.56s CPU     23.91s WALL (  657016 calls)
     fft_scatt_yz :    116.31s CPU    118.28s WALL (  657016 calls)
 
     PWSCF        :   9m52.39s CPU  10m39.95s WALL

 
   This run was terminated on:  21:32:29  21May2021            

=------------------------------------------------------------------------------=
   JOB DONE.
=------------------------------------------------------------------------------=
[1621647149.736669] [holy7c04210:182895:0]          mpool.c:43   UCX  WARN  object 0x4043d80 was not returned to mpool ucp_requests
[1621647149.745276] [holy7c08606:228570:0]          mpool.c:43   UCX  WARN  object 0x3e17f40 was not returned to mpool ucp_requests
[1621647149.737319] [holy7c04210:182897:0]          mpool.c:43   UCX  WARN  object 0x3b52800 was not returned to mpool ucp_requests
[1621647149.737337] [holy7c04210:182897:0]          mpool.c:43   UCX  WARN  object 0x3b529c0 was not returned to mpool ucp_requests
[1621647149.751456] [holy7c04101:192456:0]          mpool.c:43   UCX  WARN  object 0x46d28c0 was not returned to mpool ucp_requests
[1621647149.744196] [holy7c08606:228569:0]          mpool.c:43   UCX  WARN  object 0x2a33500 was not returned to mpool ucp_requests
[1621647149.741559] [holy7c04104:156673:0]          mpool.c:43   UCX  WARN  object 0x45e35c0 was not returned to mpool ucp_requests
[1621647149.741582] [holy7c04104:156673:0]          mpool.c:43   UCX  WARN  object 0x45e3b00 was not returned to mpool ucp_requests
[1621647149.754135] [holy7c04101:192457:0]          mpool.c:43   UCX  WARN  object 0x3df1740 was not returned to mpool ucp_requests
