
     Program PWSCF v.6.5 starts on 21May2021 at 22:31:56 

     This program is part of the open-source Quantum ESPRESSO suite
     for quantum simulation of materials; please cite
         "P. Giannozzi et al., J. Phys.:Condens. Matter 21 395502 (2009);
         "P. Giannozzi et al., J. Phys.:Condens. Matter 29 465901 (2017);
          URL http://www.quantum-espresso.org", 
     in publications or presentations arising from this work. More details at
     http://www.quantum-espresso.org/quote

     Parallel version (MPI), running on    20 processors

     MPI processes distributed on    11 nodes
     R & G space division:  proc/nbgrp/npool/nimage =      20
     Reading input from CBCO_Y_cleave_0.75_sep.pwi
Warning: card &IONS ignored
Warning: card     ION_DYNAMICS = 'BFGS' ignored
Warning: card / ignored
Warning: card &CELL ignored
Warning: card     CELL_DYNAMICS = 'BFGS' ignored
Warning: card     PRESS_CONV_THR = 5 ignored
Warning: card / ignored

     Current dimensions of program PWSCF are:
     Max number of different atomic species (ntypx) = 10
     Max number of k-points (npk) =  40000
     Max angular momentum in pseudopotentials (lmaxx) =  3

     Subspace diagonalization in iterative solution of the eigenvalue problem:
     one sub-group per band group will be used
     scalapack distributed-memory algorithm (size of sub-group:  4*  4 procs)

     Message from routine setup:
     using ibrav=0 with symmetry is DISCOURAGED, use correct ibrav instead
 
     Parallelization info
     --------------------
     sticks:   dense  smooth     PW     G-vecs:    dense   smooth      PW
     Min         149      50     14                71365    13742    2148
     Max         150      51     15                71404    13765    2191
     Sum        2991    1007    289              1427725   274999   43215
 


     bravais-lattice index     =            0
     lattice parameter (alat)  =       7.4270  a.u.
     unit-cell volume          =    4376.3515 (a.u.)^3
     number of atoms/cell      =           28
     number of atomic types    =            4
     number of electrons       =       227.00
     number of Kohn-Sham states=          137
     kinetic-energy cutoff     =      60.0000  Ry
     charge density cutoff     =     720.0000  Ry
     convergence threshold     =      1.0E-08
     mixing beta               =       0.5000
     number of iterations used =           10  local-TF  mixing
     Exchange-correlation= SLA PW PBE PBE
                           (   1   4   3   4   0   0   0)

     celldm(1)=   7.427040  celldm(2)=   0.000000  celldm(3)=   0.000000
     celldm(4)=   0.000000  celldm(5)=   0.000000  celldm(6)=   0.000000

     crystal axes: (cart. coord. in units of alat)
               a(1) = (   1.000000   0.000000   0.000000 )  
               a(2) = (   0.000000   0.947081   0.000000 )  
               a(3) = (   0.000000   0.000000  11.279186 )  

     reciprocal axes: (cart. coord. in units 2 pi/alat)
               b(1) = (  1.000000  0.000000  0.000000 )  
               b(2) = (  0.000000  1.055876  0.000000 )  
               b(3) = (  0.000000  0.000000  0.088659 )  


     PseudoPot. # 1 for Ba read from file:
     ./pseudo/Ba.pbe-nsp-van.UPF
     MD5 check sum: 2b9c31dd849566dd297d80989662b7a0
     Pseudo is Ultrasoft + core correction, Zval = 10.0
     Generated by new atomic code, or converted to UPF format
     Using radial grid of  907 points,  6 beta functions with: 
                l(1) =   0
                l(2) =   0
                l(3) =   1
                l(4) =   1
                l(5) =   2
                l(6) =   2
     Q(r) pseudized with  6 coefficients,  rinner =    1.200   1.200   1.200
                                                       1.200   1.200

     PseudoPot. # 2 for Ca read from file:
     ./pseudo/Ca.pbe-nsp-van.UPF
     MD5 check sum: 6471098428ff4fa451746d08035ff179
     Pseudo is Ultrasoft + core correction, Zval = 10.0
     Generated by new atomic code, or converted to UPF format
     Using radial grid of  845 points,  6 beta functions with: 
                l(1) =   0
                l(2) =   0
                l(3) =   1
                l(4) =   1
                l(5) =   2
                l(6) =   2
     Q(r) pseudized with  6 coefficients,  rinner =    1.200   1.200   1.200
                                                       1.200   1.200

     PseudoPot. # 3 for Cu read from file:
     ./pseudo/Cu.pbe-n-van_ak.UPF
     MD5 check sum: 34e3282627ffb533726feb647e090d62
     Pseudo is Ultrasoft + core correction, Zval = 11.0
     Generated by new atomic code, or converted to UPF format
     Using radial grid of  867 points,  6 beta functions with: 
                l(1) =   0
                l(2) =   0
                l(3) =   1
                l(4) =   1
                l(5) =   2
                l(6) =   2
     Q(r) pseudized with  8 coefficients,  rinner =    1.400   1.400   1.400
                                                       1.400   1.400

     PseudoPot. # 4 for O  read from file:
     ./pseudo/O.pbe-van_ak.UPF
     MD5 check sum: 783ce7fe4c79b6a4916957118fed0856
     Pseudo is Ultrasoft, Zval =  6.0
     Generated by new atomic code, or converted to UPF format
     Using radial grid of  737 points,  4 beta functions with: 
                l(1) =   0
                l(2) =   0
                l(3) =   1
                l(4) =   1
     Q(r) pseudized with  8 coefficients,  rinner =    0.800   0.800   0.800


     atomic species   valence    mass     pseudopotential
        Ba            10.00   137.32700     Ba( 1.00)
        Ca            10.00    40.07800     Ca( 1.00)
        Cu            11.00    63.54600     Cu( 1.00)
        O              6.00    15.99900     O ( 1.00)

      4 Sym. Ops. (no inversion) found



   Cartesian axes

     site n.     atom                  positions (alat units)
         1           O   tau(   1) = (   0.0000000   0.4735409  -0.0469745  )
         2           Cu  tau(   2) = (   0.0000000   0.0000000   0.0264565  )
         3           O   tau(   3) = (   0.0000000   0.0000000   0.5030914  )
         4           Ba  tau(   4) = (   0.5000000   0.4735409   0.5690292  )
         5           Cu  tau(   5) = (   0.0000000   0.0000000   1.0374254  )
         6           O   tau(   6) = (   0.5000000   0.0000000   1.0768099  )
         7           O   tau(   7) = (   0.0000000   0.4735409   1.1116985  )
         8           Ca  tau(   8) = (   0.5000000   0.4735409   1.4976260  )
         9           O   tau(   9) = (   0.0000000   0.4735409   1.8667529  )
        10           O   tau(  10) = (   0.5000000   0.0000000   1.9044124  )
        11           Cu  tau(  11) = (   0.0000000   0.0000000   1.9512546  )
        12           Ba  tau(  12) = (   0.5000000   0.4735409   2.4295764  )
        13           O   tau(  13) = (   0.0000000   0.0000000   2.5115362  )
        14           O   tau(  14) = (   0.0000000   0.4735409   2.9918528  )
        15           Cu  tau(  15) = (   0.0000000   0.0000000   2.9919088  )
        16           O   tau(  16) = (   0.0000000   0.0000000   3.4722686  )
        17           Ba  tau(  17) = (   0.5000000   0.4735409   3.5542208  )
        18           Cu  tau(  18) = (   0.0000000   0.0000000   4.0325248  )
        19           O   tau(  19) = (   0.5000000   0.0000000   4.0793669  )
        20           O   tau(  20) = (   0.0000000   0.4735409   4.1170213  )
        21           Ca  tau(  21) = (   0.5000000   0.4735409   4.4861584  )
        22           O   tau(  22) = (   0.0000000   0.4735409   5.0629123  )
        23           O   tau(  23) = (   0.5000000   0.0000000   5.0978010  )
        24           Cu  tau(  24) = (   0.0000000   0.0000000   5.1371881  )
        25           Ba  tau(  25) = (   0.5000000   0.4735409   5.6055817  )
        26           O   tau(  26) = (   0.0000000   0.0000000   5.6715093  )
        27           Cu  tau(  27) = (   0.0000000   0.0000000   6.1481493  )
        28           O   tau(  28) = (   0.0000000   0.4735409   6.2215676  )

     number of k points=    25  Gaussian smearing, width (Ry)=  0.0100
                       cart. coord. in units 2pi/alat
        k(    1) = (   0.0000000   0.0000000   0.0000000), wk =   0.0312500
        k(    2) = (   0.0000000   0.1319845   0.0000000), wk =   0.0625000
        k(    3) = (   0.0000000   0.2639689   0.0000000), wk =   0.0625000
        k(    4) = (   0.0000000   0.3959534   0.0000000), wk =   0.0625000
        k(    5) = (   0.0000000  -0.5279378   0.0000000), wk =   0.0312500
        k(    6) = (   0.1250000   0.0000000   0.0000000), wk =   0.0625000
        k(    7) = (   0.1250000   0.1319845   0.0000000), wk =   0.1250000
        k(    8) = (   0.1250000   0.2639689   0.0000000), wk =   0.1250000
        k(    9) = (   0.1250000   0.3959534   0.0000000), wk =   0.1250000
        k(   10) = (   0.1250000  -0.5279378   0.0000000), wk =   0.0625000
        k(   11) = (   0.2500000   0.0000000   0.0000000), wk =   0.0625000
        k(   12) = (   0.2500000   0.1319845   0.0000000), wk =   0.1250000
        k(   13) = (   0.2500000   0.2639689   0.0000000), wk =   0.1250000
        k(   14) = (   0.2500000   0.3959534   0.0000000), wk =   0.1250000
        k(   15) = (   0.2500000  -0.5279378   0.0000000), wk =   0.0625000
        k(   16) = (   0.3750000   0.0000000   0.0000000), wk =   0.0625000
        k(   17) = (   0.3750000   0.1319845   0.0000000), wk =   0.1250000
        k(   18) = (   0.3750000   0.2639689   0.0000000), wk =   0.1250000
        k(   19) = (   0.3750000   0.3959534   0.0000000), wk =   0.1250000
        k(   20) = (   0.3750000  -0.5279378   0.0000000), wk =   0.0625000
        k(   21) = (  -0.5000000   0.0000000   0.0000000), wk =   0.0312500
        k(   22) = (  -0.5000000   0.1319845   0.0000000), wk =   0.0625000
        k(   23) = (  -0.5000000   0.2639689   0.0000000), wk =   0.0625000
        k(   24) = (  -0.5000000   0.3959534   0.0000000), wk =   0.0625000
        k(   25) = (  -0.5000000  -0.5279378   0.0000000), wk =   0.0312500

     Dense  grid:  1427725 G-vectors     FFT dimensions: (  64,  64, 720)

     Smooth grid:   274999 G-vectors     FFT dimensions: (  40,  36, 432)

     Estimated max dynamical RAM per process >     455.52 MB

     Estimated total dynamical RAM >       8.90 GB

     Initial potential from superposition of free atoms

     starting charge  226.84630, renormalised to  227.00000

     negative rho (up, down):  3.508E-03 0.000E+00
     Starting wfcs are  195 randomized atomic wfcs

     total cpu time spent up to now is        9.6 secs

     Self-consistent Calculation

     iteration #  1     ecut=    60.00 Ry     beta= 0.50
     Davidson diagonalization with overlap
     ethr =  1.00E-02,  avg # of iterations =  2.0

     negative rho (up, down):  4.975E-04 0.000E+00

     total cpu time spent up to now is       25.1 secs

     total energy              =   -1840.99284330 Ry
     Harris-Foulkes estimate   =   -1845.30642545 Ry
     estimated scf accuracy    <      17.80012418 Ry

     iteration #  2     ecut=    60.00 Ry     beta= 0.50
     Davidson diagonalization with overlap
     ethr =  7.84E-03,  avg # of iterations =  2.0

     negative rho (up, down):  2.549E-04 0.000E+00

     total cpu time spent up to now is       40.4 secs

     total energy              =   -1842.53412049 Ry
     Harris-Foulkes estimate   =   -1843.21684328 Ry
     estimated scf accuracy    <       3.41112375 Ry

     iteration #  3     ecut=    60.00 Ry     beta= 0.50
     Davidson diagonalization with overlap
     ethr =  1.50E-03,  avg # of iterations =  2.0

     negative rho (up, down):  2.435E-04 0.000E+00

     total cpu time spent up to now is       56.0 secs

     total energy              =   -1842.84992611 Ry
     Harris-Foulkes estimate   =   -1842.98575910 Ry
     estimated scf accuracy    <       3.32556793 Ry

     iteration #  4     ecut=    60.00 Ry     beta= 0.50
     Davidson diagonalization with overlap
     ethr =  1.47E-03,  avg # of iterations =  1.0

     negative rho (up, down):  2.383E-04 0.000E+00

     total cpu time spent up to now is       69.9 secs

     total energy              =   -1842.84961581 Ry
     Harris-Foulkes estimate   =   -1842.92503904 Ry
     estimated scf accuracy    <       0.95445961 Ry

     iteration #  5     ecut=    60.00 Ry     beta= 0.50
     Davidson diagonalization with overlap
     ethr =  4.20E-04,  avg # of iterations =  2.0

     negative rho (up, down):  2.329E-04 0.000E+00

     total cpu time spent up to now is       84.9 secs

     total energy              =   -1842.84417434 Ry
     Harris-Foulkes estimate   =   -1842.89168748 Ry
     estimated scf accuracy    <       1.51024520 Ry

     iteration #  6     ecut=    60.00 Ry     beta= 0.50
     Davidson diagonalization with overlap
     ethr =  4.20E-04,  avg # of iterations =  1.9

     negative rho (up, down):  2.315E-04 0.000E+00

     total cpu time spent up to now is       99.8 secs

     total energy              =   -1842.85452594 Ry
     Harris-Foulkes estimate   =   -1842.86355859 Ry
     estimated scf accuracy    <       1.21232266 Ry

     iteration #  7     ecut=    60.00 Ry     beta= 0.50
     Davidson diagonalization with overlap
     ethr =  4.20E-04,  avg # of iterations =  1.3

     negative rho (up, down):  2.290E-04 0.000E+00

     total cpu time spent up to now is      114.1 secs

     total energy              =   -1842.84822276 Ry
     Harris-Foulkes estimate   =   -1842.85872841 Ry
     estimated scf accuracy    <       0.72394951 Ry

     iteration #  8     ecut=    60.00 Ry     beta= 0.50
     Davidson diagonalization with overlap
     ethr =  3.19E-04,  avg # of iterations =  3.8

     negative rho (up, down):  2.274E-04 0.000E+00

     total cpu time spent up to now is      131.1 secs

     total energy              =   -1842.84301442 Ry
     Harris-Foulkes estimate   =   -1842.85381387 Ry
     estimated scf accuracy    <       0.76441865 Ry

     iteration #  9     ecut=    60.00 Ry     beta= 0.50
     Davidson diagonalization with overlap
     ethr =  3.19E-04,  avg # of iterations =  2.9

     negative rho (up, down):  2.270E-04 0.000E+00

     total cpu time spent up to now is      147.3 secs

     total energy              =   -1842.84238154 Ry
     Harris-Foulkes estimate   =   -1842.84717425 Ry
     estimated scf accuracy    <       0.18177346 Ry

     iteration # 10     ecut=    60.00 Ry     beta= 0.50
     Davidson diagonalization with overlap
     ethr =  8.01E-05,  avg # of iterations =  8.4

     negative rho (up, down):  2.269E-04 0.000E+00

     total cpu time spent up to now is      170.4 secs

     total energy              =   -1842.84097545 Ry
     Harris-Foulkes estimate   =   -1842.84389751 Ry
     estimated scf accuracy    <       0.09324923 Ry

     iteration # 11     ecut=    60.00 Ry     beta= 0.50
     Davidson diagonalization with overlap
     ethr =  4.11E-05,  avg # of iterations =  3.8

     negative rho (up, down):  2.271E-04 0.000E+00

     total cpu time spent up to now is      187.3 secs

     total energy              =   -1842.84064292 Ry
     Harris-Foulkes estimate   =   -1842.84173997 Ry
     estimated scf accuracy    <       0.09625175 Ry

     iteration # 12     ecut=    60.00 Ry     beta= 0.50
     Davidson diagonalization with overlap
     ethr =  4.11E-05,  avg # of iterations =  1.0

     negative rho (up, down):  2.277E-04 0.000E+00

     total cpu time spent up to now is      201.0 secs

     total energy              =   -1842.83934787 Ry
     Harris-Foulkes estimate   =   -1842.84090890 Ry
     estimated scf accuracy    <       0.07497667 Ry

     iteration # 13     ecut=    60.00 Ry     beta= 0.50
     Davidson diagonalization with overlap
     ethr =  3.30E-05,  avg # of iterations =  2.1

     negative rho (up, down):  5.201E-04 0.000E+00

     total cpu time spent up to now is      216.2 secs

     total energy              =   -1842.83793366 Ry
     Harris-Foulkes estimate   =   -1842.83961118 Ry
     estimated scf accuracy    <       0.04753153 Ry

     iteration # 14     ecut=    60.00 Ry     beta= 0.50
     Davidson diagonalization with overlap
     ethr =  2.09E-05,  avg # of iterations =  4.0

     negative rho (up, down):  6.865E-03 0.000E+00

     total cpu time spent up to now is      233.2 secs

     total energy              =   -1842.83659119 Ry
     Harris-Foulkes estimate   =   -1842.83809420 Ry
     estimated scf accuracy    <       0.02257618 Ry

     iteration # 15     ecut=    60.00 Ry     beta= 0.50
     Davidson diagonalization with overlap
     ethr =  9.95E-06,  avg # of iterations =  8.4

     negative rho (up, down):  9.466E-03 0.000E+00

     total cpu time spent up to now is      256.0 secs

     total energy              =   -1842.83596398 Ry
     Harris-Foulkes estimate   =   -1842.83676530 Ry
     estimated scf accuracy    <       0.01850610 Ry

     iteration # 16     ecut=    60.00 Ry     beta= 0.50
     Davidson diagonalization with overlap
     ethr =  8.15E-06,  avg # of iterations =  3.8

     negative rho (up, down):  2.090E-02 0.000E+00

     total cpu time spent up to now is      272.9 secs

     total energy              =   -1842.83481680 Ry
     Harris-Foulkes estimate   =   -1842.83604230 Ry
     estimated scf accuracy    <       0.01499178 Ry

     iteration # 17     ecut=    60.00 Ry     beta= 0.50
     Davidson diagonalization with overlap
     ethr =  6.60E-06,  avg # of iterations =  8.8

     negative rho (up, down):  1.848E-02 0.000E+00

     total cpu time spent up to now is      296.5 secs

     total energy              =   -1842.83446162 Ry
     Harris-Foulkes estimate   =   -1842.83502654 Ry
     estimated scf accuracy    <       0.00570281 Ry

     iteration # 18     ecut=    60.00 Ry     beta= 0.50
     Davidson diagonalization with overlap
     ethr =  2.51E-06,  avg # of iterations =  8.5

     negative rho (up, down):  1.526E-02 0.000E+00

     total cpu time spent up to now is      319.3 secs

     total energy              =   -1842.83419141 Ry
     Harris-Foulkes estimate   =   -1842.83452629 Ry
     estimated scf accuracy    <       0.00199922 Ry

     iteration # 19     ecut=    60.00 Ry     beta= 0.50
     Davidson diagonalization with overlap
     c_bands:  1 eigenvalues not converged
     ethr =  8.81E-07,  avg # of iterations =  7.6

     negative rho (up, down):  3.872E-03 0.000E+00

     total cpu time spent up to now is      341.0 secs

     total energy              =   -1842.83391955 Ry
     Harris-Foulkes estimate   =   -1842.83422354 Ry
     estimated scf accuracy    <       0.00122088 Ry

     iteration # 20     ecut=    60.00 Ry     beta= 0.50
     Davidson diagonalization with overlap
     c_bands:  2 eigenvalues not converged
     ethr =  5.38E-07,  avg # of iterations =  9.4

     negative rho (up, down):  9.658E-04 0.000E+00

     total cpu time spent up to now is      365.8 secs

     total energy              =   -1842.83392188 Ry
     Harris-Foulkes estimate   =   -1842.83394414 Ry
     estimated scf accuracy    <       0.00078682 Ry

     iteration # 21     ecut=    60.00 Ry     beta= 0.50
     Davidson diagonalization with overlap
     c_bands:  1 eigenvalues not converged
     ethr =  3.47E-07,  avg # of iterations =  5.2

     negative rho (up, down):  1.724E-03 0.000E+00

     total cpu time spent up to now is      384.8 secs

     total energy              =   -1842.83396219 Ry
     Harris-Foulkes estimate   =   -1842.83393186 Ry
     estimated scf accuracy    <       0.00026466 Ry

     iteration # 22     ecut=    60.00 Ry     beta= 0.50
     Davidson diagonalization with overlap
     ethr =  1.17E-07,  avg # of iterations =  3.9

     negative rho (up, down):  1.197E-03 0.000E+00

     total cpu time spent up to now is      401.9 secs

     total energy              =   -1842.83398805 Ry
     Harris-Foulkes estimate   =   -1842.83397182 Ry
     estimated scf accuracy    <       0.00012623 Ry

     iteration # 23     ecut=    60.00 Ry     beta= 0.50
     Davidson diagonalization with overlap
     ethr =  5.56E-08,  avg # of iterations =  4.2

     negative rho (up, down):  1.134E-03 0.000E+00

     total cpu time spent up to now is      419.5 secs

     total energy              =   -1842.83399377 Ry
     Harris-Foulkes estimate   =   -1842.83399030 Ry
     estimated scf accuracy    <       0.00003154 Ry

     iteration # 24     ecut=    60.00 Ry     beta= 0.50
     Davidson diagonalization with overlap
     c_bands:  1 eigenvalues not converged
     ethr =  1.39E-08,  avg # of iterations =  4.3

     negative rho (up, down):  1.294E-03 0.000E+00

     total cpu time spent up to now is      436.9 secs

     total energy              =   -1842.83399437 Ry
     Harris-Foulkes estimate   =   -1842.83399575 Ry
     estimated scf accuracy    <       0.00002663 Ry

     iteration # 25     ecut=    60.00 Ry     beta= 0.50
     Davidson diagonalization with overlap
     ethr =  1.17E-08,  avg # of iterations =  1.1

     negative rho (up, down):  1.414E-03 0.000E+00

     total cpu time spent up to now is      451.0 secs

     total energy              =   -1842.83399535 Ry
     Harris-Foulkes estimate   =   -1842.83399520 Ry
     estimated scf accuracy    <       0.00000510 Ry

     iteration # 26     ecut=    60.00 Ry     beta= 0.50
     Davidson diagonalization with overlap
     ethr =  2.25E-09,  avg # of iterations =  2.0

     negative rho (up, down):  1.391E-03 0.000E+00

     total cpu time spent up to now is      465.9 secs

     total energy              =   -1842.83399541 Ry
     Harris-Foulkes estimate   =   -1842.83399558 Ry
     estimated scf accuracy    <       0.00000172 Ry

     iteration # 27     ecut=    60.00 Ry     beta= 0.50
     Davidson diagonalization with overlap
     ethr =  7.58E-10,  avg # of iterations =  3.0

     negative rho (up, down):  1.480E-03 0.000E+00

     total cpu time spent up to now is      482.2 secs

     total energy              =   -1842.83399538 Ry
     Harris-Foulkes estimate   =   -1842.83399556 Ry
     estimated scf accuracy    <       0.00000074 Ry

     iteration # 28     ecut=    60.00 Ry     beta= 0.50
     Davidson diagonalization with overlap
     ethr =  3.28E-10,  avg # of iterations =  1.4

     negative rho (up, down):  1.478E-03 0.000E+00

     total cpu time spent up to now is      496.4 secs

     total energy              =   -1842.83399540 Ry
     Harris-Foulkes estimate   =   -1842.83399541 Ry
     estimated scf accuracy    <       0.00000024 Ry

     iteration # 29     ecut=    60.00 Ry     beta= 0.50
     Davidson diagonalization with overlap
     ethr =  1.07E-10,  avg # of iterations =  2.5

     negative rho (up, down):  1.507E-03 0.000E+00

     total cpu time spent up to now is      512.1 secs

     total energy              =   -1842.83399537 Ry
     Harris-Foulkes estimate   =   -1842.83399542 Ry
     estimated scf accuracy    <       0.00000009 Ry

     iteration # 30     ecut=    60.00 Ry     beta= 0.50
     Davidson diagonalization with overlap
     ethr =  3.84E-11,  avg # of iterations =  2.6

     negative rho (up, down):  1.518E-03 0.000E+00

     total cpu time spent up to now is      528.4 secs

     total energy              =   -1842.83399535 Ry
     Harris-Foulkes estimate   =   -1842.83399537 Ry
     estimated scf accuracy    <       0.00000005 Ry

     iteration # 31     ecut=    60.00 Ry     beta= 0.50
     Davidson diagonalization with overlap
     ethr =  2.32E-11,  avg # of iterations =  1.0

     negative rho (up, down):  1.514E-03 0.000E+00

     total cpu time spent up to now is      542.5 secs

     total energy              =   -1842.83399536 Ry
     Harris-Foulkes estimate   =   -1842.83399535 Ry
     estimated scf accuracy    <       0.00000002 Ry

     iteration # 32     ecut=    60.00 Ry     beta= 0.50
     Davidson diagonalization with overlap
     ethr =  9.27E-12,  avg # of iterations =  1.0

     negative rho (up, down):  1.511E-03 0.000E+00

     total cpu time spent up to now is      556.6 secs

     total energy              =   -1842.83399536 Ry
     Harris-Foulkes estimate   =   -1842.83399536 Ry
     estimated scf accuracy    <       0.00000001 Ry

     iteration # 33     ecut=    60.00 Ry     beta= 0.50
     Davidson diagonalization with overlap
     ethr =  4.80E-12,  avg # of iterations =  1.6

     negative rho (up, down):  1.516E-03 0.000E+00

     total cpu time spent up to now is      570.6 secs

     End of self-consistent calculation

          k = 0.0000 0.0000 0.0000 ( 34429 PWs)   bands (ev):

   -37.1749 -35.5382 -22.7430 -22.6643 -22.6249 -22.4818 -18.2615 -18.1897
   -18.1765 -17.0426 -16.5894 -16.5780 -15.2612 -15.2526 -15.0094 -14.8021
   -14.6233 -14.6046 -14.5239 -14.1443 -14.1333 -14.1323 -13.9338 -13.7752
   -13.7042 -13.7017 -13.5886  -7.8743  -7.8368  -7.8235  -7.7697  -7.7545
    -7.6626  -7.6614  -7.6439  -7.5746  -7.5260  -7.4998  -7.3604  -2.2818
    -2.2730  -2.2202  -1.9769  -1.8411  -1.7818  -1.7182  -1.6200  -1.5801
    -1.4903  -1.4350  -1.4076  -1.2910  -1.1721  -1.1713  -1.0314  -0.9987
    -0.8009  -0.6364  -0.5583  -0.4104  -0.4009  -0.3285  -0.2927  -0.2633
    -0.2366  -0.2165  -0.2002  -0.1991  -0.1968  -0.1805  -0.1644  -0.1317
    -0.1098  -0.0461   0.0110   0.0297   0.1468   0.1469   0.1473   0.1783
     0.1974   0.2217   0.2265   0.2340   0.2557   0.3251   0.3576   0.3722
     0.4585   0.8211   0.8490   0.9301   0.9469   1.0089   1.0361   1.2300
     1.2317   1.2547   1.2812   1.3981   1.4206   1.4403   1.5338   1.5727
     1.5832   1.5867   1.6444   1.7859   1.8801   2.0371   2.0842   2.1610
     2.2069   2.2123   2.2204   2.3148   2.3289   2.5675   2.5843   4.9846
     5.2645   5.3825   5.9744   6.3987   6.8090   6.8233   7.0341   7.2877
     7.7333   8.0278   8.0928   8.2385   8.3419   8.4888   8.5712   8.6060
     8.6655

          k = 0.0000 0.1320 0.0000 ( 34389 PWs)   bands (ev):

   -37.1734 -35.5364 -22.7164 -22.6375 -22.5996 -22.4564 -18.2691 -18.2004
   -18.1747 -17.0065 -16.6505 -16.5870 -15.2036 -15.1645 -14.9598 -14.7488
   -14.6284 -14.5992 -14.4966 -14.1727 -14.1428 -14.1402 -13.9393 -13.8206
   -13.7498 -13.7349 -13.6464  -7.8739  -7.8221  -7.7890  -7.7532  -7.7216
    -7.6861  -7.6608  -7.6169  -7.6165  -7.5469  -7.4808  -7.4078  -2.3434
    -2.3304  -2.3116  -2.2002  -2.1156  -2.0062  -1.9539  -1.8092  -1.6207
    -1.5997  -1.5963  -1.5933  -1.4726  -1.3270  -1.2812  -1.2659  -1.0687
    -0.9376  -0.6872  -0.6114  -0.5798  -0.5078  -0.4919  -0.4419  -0.4127
    -0.3775  -0.3572  -0.3168  -0.2898  -0.1583  -0.1425  -0.1125  -0.0996
    -0.0983  -0.0088   0.0153   0.0324   0.0487   0.0552   0.1676   0.1706
     0.1728   0.2072   0.2353   0.2359   0.2815   0.3263   0.4177   0.4381
     0.7682   0.8681   0.9405   1.0028   1.1065   1.1273   1.1319   1.1559
     1.1970   1.2369   1.3256   1.3890   1.4570   1.4975   1.5080   1.5501
     1.5857   1.6594   1.6801   1.7590   1.8687   2.0146   2.0395   2.0408
     2.1210   2.1238   2.1533   2.5360   2.8469   2.8682   2.9212   5.3018
     5.6410   5.6976   6.2364   6.6396   7.0957   7.1173   7.3327   7.5691
     7.9209   8.1434   8.2055   8.3305   8.4021   8.5464   8.7662   8.8058
     8.8352

          k = 0.0000 0.2640 0.0000 ( 34275 PWs)   bands (ev):

   -37.1697 -35.5320 -22.6505 -22.5714 -22.5370 -22.3937 -18.3218 -18.1904
   -18.1702 -16.9144 -16.8049 -16.5814 -15.0522 -14.9650 -14.8595 -14.6772
   -14.6093 -14.5887 -14.4347 -14.2687 -14.1300 -14.1229 -13.9790 -13.9477
   -13.8405 -13.8259 -13.7621  -7.8735  -7.8200  -7.7765  -7.7502  -7.7074
    -7.6685  -7.6665  -7.6397  -7.6002  -7.5099  -7.5053  -7.3673  -2.8254
    -2.7829  -2.6623  -2.6527  -2.5511  -2.3804  -2.3643  -2.2329  -2.2259
    -2.1876  -1.7150  -1.6346  -1.5459  -1.4259  -1.4162  -1.3403  -1.2556
    -1.0566  -0.9783  -0.9128  -0.8362  -0.7692  -0.7583  -0.7296  -0.6075
    -0.5989  -0.5922  -0.4973  -0.4868  -0.4700  -0.4490  -0.4410  -0.2937
    -0.2601  -0.0511  -0.0144   0.0340   0.0607   0.0763   0.1423   0.2020
     0.2328   0.2579   0.3558   0.4223   0.6655   0.7175   0.7396   0.7470
     0.8973   0.9636   1.0164   1.0667   1.1813   1.2127   1.2157   1.2184
     1.2377   1.2600   1.3211   1.3480   1.3668   1.4213   1.5353   1.6871
     1.7307   1.7388   1.8443   1.9683   1.9868   2.0204   2.0218   2.0413
     2.0815   2.1596   2.2419   2.6537   3.0885   3.1021   3.7628   5.9367
     6.5348   6.5517   6.8293   7.3575   7.7146   7.9364   8.0231   8.0594
     8.2114   8.4002   8.5672   8.7061   8.7969   8.8736   8.9643   9.0849
     9.1331

          k = 0.0000 0.3960 0.0000 ( 34242 PWs)   bands (ev):

   -37.1661 -35.5276 -22.5823 -22.5029 -22.4724 -22.3289 -18.3862 -18.1665
   -18.1658 -16.9411 -16.8127 -16.5757 -14.8863 -14.8741 -14.8497 -14.6349
   -14.5042 -14.4519 -14.4099 -14.3490 -14.0993 -14.0624 -14.0574 -14.0436
   -13.9741 -13.9635 -13.8353  -7.8735  -7.8547  -7.8160  -7.7868  -7.7473
    -7.7461  -7.6448  -7.5990  -7.5401  -7.4706  -7.3870  -7.2469  -3.4077
    -3.2407  -3.2001  -3.1290  -3.0110  -2.9472  -2.9391  -2.3237  -2.3164
    -2.2278  -1.9727  -1.7598  -1.7027  -1.5694  -1.4805  -1.3248  -1.2519
    -1.2262  -1.1078  -1.0857  -1.0279  -0.9912  -0.9865  -0.9834  -0.9010
    -0.8734  -0.8118  -0.7659  -0.7028  -0.7022  -0.6593  -0.5998  -0.3363
    -0.2831  -0.1713  -0.0578  -0.0014   0.0777   0.0937   0.1735   0.1912
     0.2080   0.2196   0.3383   0.5411   0.8301   0.8954   0.9378   0.9736
     0.9789   1.0020   1.0070   1.0617   1.1045   1.1363   1.1766   1.1836
     1.1991   1.4253   1.5004   1.5684   1.6378   1.6684   1.7165   1.7180
     1.7774   1.7966   1.9796   2.0321   2.0588   2.1172   2.1432   2.1721
     2.3032   2.4160   2.4195   2.5727   2.9824   2.9942   4.3211   6.6124
     7.4458   7.4846   7.5085   7.7734   7.9058   8.3092   8.3966   8.6671
     8.7301   8.8944   9.0813   9.1387   9.1524   9.1925   9.2938   9.4354
     9.4706

          k = 0.0000-0.5279 0.0000 ( 34286 PWs)   bands (ev):

   -37.1646 -35.5257 -22.5534 -22.4739 -22.4450 -22.3015 -18.4132 -18.1639
   -18.1557 -16.9933 -16.7678 -16.5734 -14.9285 -14.9071 -14.6879 -14.6195
   -14.5208 -14.4418 -14.2918 -14.2247 -14.1881 -14.1093 -14.0792 -14.0556
   -14.0242 -14.0233 -13.8691  -7.8844  -7.8731  -7.8164  -7.8079  -7.7876
    -7.7446  -7.6399  -7.6358  -7.4842  -7.4141  -7.3359  -7.1947  -3.6700
    -3.4193  -3.3639  -3.3145  -3.1896  -3.1673  -3.1671  -2.3399  -2.3332
    -2.2406  -2.1004  -1.8903  -1.8373  -1.4622  -1.4434  -1.3439  -1.2634
    -1.2094  -1.1920  -1.1543  -1.1495  -1.1355  -1.1016  -1.0151  -0.9920
    -0.9805  -0.9236  -0.8799  -0.7890  -0.7854  -0.7352  -0.6498  -0.3299
    -0.2715  -0.2493  -0.0544   0.0114   0.0833   0.0996   0.1681   0.1981
     0.2136   0.2189   0.2845   0.4702   0.7850   0.8634   0.8901   0.9060
     0.9201   0.9995   1.0535   1.1081   1.1389   1.1666   1.1808   1.3567
     1.3895   1.4337   1.5442   1.6324   1.7326   1.7778   1.7853   1.8145
     1.8496   2.0189   2.0611   2.0680   2.0836   2.1131   2.1704   2.2384
     2.2839   2.5345   2.5775   2.5808   2.8045   2.8172   4.4948   7.0086
     7.6811   7.7541   7.7708   7.8951   7.9828   8.3331   8.8387   8.9351
     9.0309   9.0548   9.1165   9.2176   9.2487   9.3522   9.3715   9.4663
     9.5849

          k = 0.1250 0.0000 0.0000 ( 34399 PWs)   bands (ev):

   -37.1740 -35.5371 -22.7250 -22.6461 -22.6078 -22.4646 -18.2665 -18.1887
   -18.1874 -17.0092 -16.6697 -16.5766 -15.2102 -15.1510 -14.9772 -14.8250
   -14.6689 -14.6396 -14.5291 -14.1673 -14.1423 -14.1411 -13.9458 -13.7975
   -13.7595 -13.7343 -13.6169  -7.9001  -7.8614  -7.7969  -7.7750  -7.7003
    -7.6907  -7.6114  -7.5944  -7.5418  -7.4698  -7.4654  -7.3300  -2.3246
    -2.3074  -2.2617  -2.0291  -1.9463  -1.8241  -1.7632  -1.7594  -1.6894
    -1.5982  -1.5556  -1.4052  -1.3775  -1.1700  -1.1692  -1.0707  -1.0194
    -0.8313  -0.7631  -0.6206  -0.5666  -0.4661  -0.4222  -0.4004  -0.3655
    -0.3330  -0.3135  -0.2910  -0.2746  -0.2487  -0.2191  -0.1743  -0.1476
    -0.1176  -0.0766  -0.0331   0.0021   0.1400   0.1403   0.1618   0.2080
     0.2315   0.2427   0.2708   0.3084   0.3578   0.4066   0.4282   0.4705
     0.5369   0.8261   0.8432   0.8588   0.9454   0.9549   1.0741   1.1288
     1.2363   1.2620   1.3003   1.3326   1.4155   1.4267   1.5345   1.5548
     1.5846   1.6554   1.7962   1.9242   2.0125   2.0346   2.0954   2.1113
     2.1713   2.1727   2.2438   2.2868   2.3793   2.6189   2.6224   5.2135
     5.4448   5.5330   6.1513   6.5667   7.0118   7.0260   7.2158   7.4926
     7.9189   8.1251   8.1762   8.3513   8.4149   8.4892   8.7029   8.8222
     8.9015

          k = 0.1250 0.1320 0.0000 ( 34364 PWs)   bands (ev):

   -37.1725 -35.5353 -22.6991 -22.6202 -22.5831 -22.4399 -18.2711 -18.2121
   -18.1760 -16.9741 -16.6727 -16.6398 -15.1554 -15.0698 -14.9312 -14.7690
   -14.6632 -14.6246 -14.4992 -14.1907 -14.1432 -14.1406 -13.9516 -13.8349
   -13.7954 -13.7647 -13.6650  -7.9194  -7.8561  -7.8373  -7.8351  -7.7325
    -7.7208  -7.6695  -7.5737  -7.5580  -7.5045  -7.4268  -7.2889  -2.3796
    -2.3566  -2.3386  -2.1995  -2.1030  -2.0057  -1.9738  -1.9329  -1.8032
    -1.7335  -1.6311  -1.6037  -1.5903  -1.5635  -1.3311  -1.2616  -1.1043
    -0.9635  -0.8604  -0.7542  -0.6345  -0.6009  -0.5761  -0.5313  -0.4973
    -0.4600  -0.4520  -0.4406  -0.3124  -0.2250  -0.2125  -0.1552  -0.1202
    -0.0984  -0.0791   0.0090   0.0309   0.0537   0.0613   0.1727   0.2019
     0.2067   0.2529   0.2715   0.2791   0.3020   0.3388   0.5675   0.6838
     0.7587   0.9272   1.0126   1.0644   1.0885   1.1036   1.1500   1.1860
     1.1965   1.2716   1.3214   1.3343   1.3740   1.4354   1.4818   1.5299
     1.6408   1.6525   1.7091   1.7312   1.8251   1.8333   2.0331   2.2578
     2.3868   2.4261   2.5361   2.6119   2.8593   2.8742   2.9352   5.4646
     5.7834   5.8244   6.3558   6.7842   7.2788   7.3215   7.5037   7.7632
     8.0548   8.1591   8.2617   8.3460   8.5261   8.6583   8.8209   8.9246
     9.0397

          k = 0.1250 0.2640 0.0000 ( 34297 PWs)   bands (ev):

   -37.1689 -35.5309 -22.6353 -22.5561 -22.5224 -22.3790 -18.3197 -18.2177
   -18.1599 -16.8849 -16.8018 -16.6523 -15.0099 -14.8957 -14.8419 -14.6635
   -14.6206 -14.5785 -14.4292 -14.2740 -14.1255 -14.1167 -14.0008 -13.9400
   -13.8522 -13.8465 -13.7687  -7.9884  -7.9186  -7.8743  -7.8546  -7.8245
    -7.7516  -7.6967  -7.6557  -7.5643  -7.4959  -7.4192  -7.2831  -2.8435
    -2.8059  -2.6664  -2.6516  -2.5598  -2.3809  -2.3617  -2.2323  -2.2245
    -2.2028  -1.9303  -1.7536  -1.7009  -1.5902  -1.5387  -1.4356  -1.3674
    -1.0943  -0.9689  -0.9496  -0.9462  -0.9243  -0.8282  -0.8182  -0.8112
    -0.7109  -0.6457  -0.6332  -0.5905  -0.5159  -0.4602  -0.4492  -0.3232
    -0.2737  -0.1604  -0.0814  -0.0046   0.0157   0.0842   0.1998   0.2497
     0.2980   0.4392   0.4639   0.5463   0.7731   0.7834   0.8201   0.8538
     0.9127   1.0561   1.0678   1.0862   1.1493   1.1833   1.3385   1.3549
     1.3670   1.3863   1.4327   1.4388   1.4527   1.4598   1.4895   1.5896
     1.6543   1.6942   1.7490   1.8262   1.9859   1.9937   2.0797   2.2837
     2.5837   2.6437   2.7110   2.8387   3.0993   3.1122   3.7636   5.9979
     6.5958   6.6120   6.8119   7.4359   7.8355   7.8789   8.1006   8.1769
     8.2930   8.5529   8.6785   8.7754   8.8447   8.9368   9.0042   9.0923
     9.1681

          k = 0.1250 0.3960 0.0000 ( 34292 PWs)   bands (ev):

   -37.1653 -35.5265 -22.5693 -22.4899 -22.4597 -22.3163 -18.3838 -18.2085
   -18.1410 -16.9360 -16.7862 -16.6437 -14.8514 -14.8417 -14.8159 -14.5610
   -14.4831 -14.4325 -14.3950 -14.3465 -14.0959 -14.0788 -14.0616 -14.0335
   -13.9719 -13.9537 -13.8299  -8.0188  -7.9506  -7.9009  -7.8858  -7.8306
    -7.7592  -7.7480  -7.6634  -7.6093  -7.5405  -7.4529  -7.3227  -3.4000
    -3.2815  -3.2409  -3.1513  -3.0397  -2.9388  -2.9313  -2.3320  -2.3220
    -2.2438  -1.9418  -1.7537  -1.7436  -1.6434  -1.6065  -1.5416  -1.4357
    -1.3194  -1.2895  -1.2482  -1.1379  -1.1156  -1.0663  -1.0580  -0.9608
    -0.9108  -0.8338  -0.8234  -0.7954  -0.7667  -0.7146  -0.7028  -0.3941
    -0.3210  -0.1810  -0.1278  -0.0083   0.0266   0.1559   0.2364   0.2541
     0.3018   0.4828   0.5497   0.7174   0.7505   0.9494   0.9631   1.0145
     1.0830   1.0949   1.1113   1.2069   1.2334   1.2427   1.2781   1.3116
     1.3516   1.5087   1.5809   1.6038   1.6537   1.7000   1.7680   1.7836
     1.8238   1.9196   2.0138   2.0479   2.1069   2.3831   2.3872   2.4136
     2.5339   2.5983   2.6482   2.7677   3.0346   3.0458   4.3039   6.5459
     7.1879   7.3477   7.3833   7.6902   8.0005   8.1795   8.4429   8.6892
     8.7121   8.8749   8.9730   9.0560   9.1520   9.3876   9.4667   9.5695
     9.6017

          k = 0.1250-0.5279 0.0000 ( 34244 PWs)   bands (ev):

   -37.1638 -35.5247 -22.5414 -22.4619 -22.4332 -22.2897 -18.4108 -18.2046
   -18.1323 -16.9876 -16.7428 -16.6400 -14.8838 -14.8632 -14.6476 -14.6042
   -14.4483 -14.4032 -14.2898 -14.2246 -14.1680 -14.1118 -14.0923 -14.0335
   -14.0251 -14.0214 -13.8529  -8.0135  -7.9457  -7.9102  -7.8906  -7.8228
    -7.7642  -7.7636  -7.6691  -7.6434  -7.5736  -7.4739  -7.3480  -3.6626
    -3.4679  -3.4151  -3.3424  -3.2179  -3.1671  -3.1602  -2.3530  -2.3441
    -2.2592  -2.0057  -1.7741  -1.7101  -1.5963  -1.5790  -1.5613  -1.4686
    -1.4193  -1.3915  -1.3252  -1.3125  -1.2600  -1.1505  -1.1400  -1.0107
    -0.9877  -0.8995  -0.8930  -0.8720  -0.8296  -0.8074  -0.8017  -0.4098
    -0.3052  -0.1840  -0.1452  -0.0165   0.0498   0.1814   0.2502   0.2622
     0.3084   0.4859   0.5306   0.6922   0.7649   0.9380   0.9814   0.9964
     1.0038   1.0251   1.0761   1.1591   1.3001   1.3465   1.3646   1.3920
     1.4231   1.5349   1.5673   1.7360   1.8179   1.8265   1.8709   2.0559
     2.0768   2.0800   2.0888   2.2102   2.2749   2.3937   2.4236   2.5201
     2.5298   2.5485   2.5528   2.6079   2.8924   2.9219   4.4686   6.7815
     7.2854   7.5689   7.5844   7.8210   7.9123   8.3639   8.4627   8.8761
     9.0011   9.1094   9.1845   9.3508   9.3618   9.4271   9.5900   9.6147
     9.8228

          k = 0.2500 0.0000 0.0000 ( 34384 PWs)   bands (ev):

   -37.1720 -35.5345 -22.6807 -22.6015 -22.5658 -22.4224 -18.3022 -18.1889
   -18.1863 -16.9239 -16.8339 -16.5733 -15.0822 -14.9533 -14.9350 -14.8869
   -14.7504 -14.6840 -14.5529 -14.2387 -14.1564 -14.1527 -13.9938 -13.8957
   -13.8297 -13.8240 -13.6733  -7.9098  -7.9004  -7.7901  -7.6967  -7.6884
    -7.6109  -7.5307  -7.5173  -7.4602  -7.3953  -7.3805  -7.2544  -2.5217
    -2.5126  -2.4407  -2.3192  -2.1613  -2.1121  -2.0634  -1.8572  -1.6987
    -1.5999  -1.4849  -1.4230  -1.3866  -1.1885  -1.1667  -1.1657  -1.0792
    -1.0409  -0.9135  -0.9080  -0.7482  -0.7214  -0.6797  -0.6235  -0.6125
    -0.5899  -0.4826  -0.4651  -0.4401  -0.4168  -0.2576  -0.2430  -0.2025
    -0.1910  -0.1440  -0.1337  -0.0077   0.1271   0.1273   0.2321   0.2511
     0.2719   0.3295   0.3719   0.4110   0.4502   0.5010   0.5092   0.5959
     0.6782   0.7083   0.8684   0.9307   0.9654   1.0494   1.0932   1.1520
     1.2667   1.3285   1.3505   1.3562   1.3713   1.4181   1.4681   1.5024
     1.6276   1.6808   1.8022   1.9192   1.9594   2.0740   2.0929   2.1053
     2.1126   2.2532   2.3378   2.4635   2.5434   2.7269   2.7537   5.7584
     5.9022   5.9349   6.5142   7.0926   7.4365   7.6027   7.6952   8.0215
     8.2022   8.2582   8.3376   8.5398   8.6835   8.8282   8.9215   9.0671
     9.0811

          k = 0.2500 0.1320 0.0000 ( 34351 PWs)   bands (ev):

   -37.1706 -35.5327 -22.6568 -22.5776 -22.5429 -22.3995 -18.2994 -18.2286
   -18.1657 -16.8918 -16.8275 -16.6394 -15.0331 -14.9030 -14.8982 -14.8237
   -14.7012 -14.6427 -14.5175 -14.2495 -14.1422 -14.1382 -13.9925 -13.8992
   -13.8646 -13.8457 -13.7007  -7.9702  -7.9270  -7.8880  -7.8251  -7.7229
    -7.7162  -7.7063  -7.5608  -7.4971  -7.4284  -7.3564  -7.2207  -2.5804
    -2.5634  -2.4676  -2.3524  -2.1533  -2.1460  -2.0964  -2.0534  -2.0448
    -1.9082  -1.8788  -1.6536  -1.5809  -1.5786  -1.3783  -1.3171  -1.2448
    -1.1097  -1.0224  -0.9740  -0.9439  -0.8869  -0.8327  -0.8260  -0.6167
    -0.5821  -0.5680  -0.4972  -0.4646  -0.3952  -0.3055  -0.2863  -0.2089
    -0.1674  -0.1424   0.0165   0.0412   0.0751   0.1064   0.1834   0.2266
     0.2416   0.2917   0.3744   0.3780   0.4618   0.6332   0.6830   0.8203
     0.9447   0.9546   0.9910   1.0142   1.0984   1.1168   1.2256   1.2451
     1.2864   1.2964   1.3265   1.3694   1.4277   1.4827   1.5260   1.5365
     1.5838   1.6688   1.6718   1.7774   1.8096   1.8819   2.0543   2.3822
     2.7063   2.7268   2.8168   2.9060   2.9235   2.9650   3.0093   5.8851
     6.1634   6.1793   6.5893   7.2434   7.5864   7.8597   7.9097   8.0894
     8.2706   8.2834   8.4906   8.6584   8.8227   8.8524   8.9819   9.1438
     9.2034

          k = 0.2500 0.2640 0.0000 ( 34331 PWs)   bands (ev):

   -37.1669 -35.5283 -22.5981 -22.5188 -22.4866 -22.3432 -18.3166 -18.2730
   -18.1421 -16.8274 -16.8035 -16.7760 -14.9023 -14.8189 -14.8138 -14.6533
   -14.5611 -14.5298 -14.4284 -14.2982 -14.1172 -14.1010 -14.0416 -13.9239
   -13.9026 -13.8866 -13.7749  -8.1903  -8.1214  -8.0520  -7.9302  -7.8869
    -7.8114  -7.7629  -7.6716  -7.6169  -7.5489  -7.4729  -7.3427  -2.9731
    -2.9436  -2.7503  -2.6919  -2.5898  -2.3942  -2.3571  -2.3245  -2.2650
    -2.2416  -2.1991  -2.1235  -2.0678  -2.0238  -1.5810  -1.4487  -1.4033
    -1.3742  -1.3145  -1.2385  -1.2062  -1.0964  -0.9779  -0.9136  -0.8081
    -0.7237  -0.6861  -0.6737  -0.6195  -0.5553  -0.5482  -0.5370  -0.5114
    -0.3510  -0.3163  -0.2935   0.0407   0.1473   0.1678   0.3180   0.4004
     0.4846   0.6273   0.7052   0.7914   0.8369   0.8431   0.8925   1.0078
     1.0120   1.1733   1.2099   1.2785   1.3069   1.3122   1.3389   1.4309
     1.4875   1.5058   1.5287   1.5488   1.5951   1.6192   1.6688   1.6911
     1.7456   1.7522   1.7607   1.8089   1.9058   1.9211   2.1945   2.3959
     3.0345   3.0512   3.2882   3.3192   3.4309   3.4704   3.7668   6.1455
     6.6711   6.7070   6.7342   7.6115   7.6359   8.0474   8.3916   8.4034
     8.5449   8.7735   8.7811   8.8552   9.0724   9.1377   9.1707   9.3407
     9.3535

          k = 0.2500 0.3960 0.0000 ( 34334 PWs)   bands (ev):

   -37.1633 -35.5239 -22.5377 -22.4582 -22.4288 -22.2853 -18.3779 -18.2702
   -18.1195 -16.9239 -16.7918 -16.7176 -14.7702 -14.7637 -14.7299 -14.4466
   -14.3957 -14.3861 -14.3771 -14.3215 -14.1663 -14.0594 -14.0492 -13.9948
   -13.9773 -13.9197 -13.8225  -8.3104  -8.2426  -8.1790  -8.0457  -7.9372
    -7.8571  -7.8339  -7.8308  -7.7508  -7.7400  -7.6343  -7.5525  -3.4637
    -3.4360  -3.3272  -3.2461  -3.1532  -2.9181  -2.9122  -2.4037  -2.3692
    -2.3427  -2.2058  -2.0882  -2.0178  -1.9740  -1.8601  -1.7501  -1.6736
    -1.5545  -1.5175  -1.3983  -1.3437  -1.2454  -1.1211  -1.0486  -0.9774
    -0.9450  -0.8183  -0.7599  -0.7552  -0.7480  -0.7031  -0.6583  -0.6342
    -0.4937  -0.3881  -0.3734   0.1373   0.2133   0.2757   0.3921   0.4835
     0.6135   0.8135   0.8505   0.9664   1.0264   1.0390   1.0576   1.2536
     1.2990   1.3247   1.3399   1.3721   1.4501   1.4849   1.5296   1.5717
     1.5813   1.6205   1.6757   1.7024   1.7429   1.7828   1.8258   1.8573
     1.9354   1.9678   2.0816   2.1299   2.1766   2.3047   2.3138   2.4581
     2.8666   2.8858   3.5055   3.5491   3.6662   3.7067   4.2577   6.3392
     6.5641   6.9142   6.9635   7.7046   7.7987   8.1440   8.7381   8.8043
     8.8476   8.9591   8.9789   9.0475   9.1255   9.5884   9.7283   9.8606
     9.8782

          k = 0.2500-0.5279 0.0000 ( 34344 PWs)   bands (ev):

   -37.1618 -35.5221 -22.5122 -22.4326 -22.4043 -22.2609 -18.4048 -18.2670
   -18.1101 -16.9741 -16.7863 -16.6780 -14.7669 -14.7495 -14.5719 -14.5449
   -14.3158 -14.3112 -14.2849 -14.2226 -14.1765 -14.1152 -14.0552 -14.0196
   -14.0155 -13.9795 -13.8192  -8.3105  -8.2429  -8.1968  -8.0531  -8.0253
    -7.9524  -7.8971  -7.8930  -7.8511  -7.7752  -7.6695  -7.6484  -3.6860
    -3.6346  -3.5627  -3.4485  -3.3471  -3.1458  -3.1404  -2.4111  -2.3825
    -2.3384  -2.1549  -2.0518  -2.0287  -1.9621  -1.9293  -1.9059  -1.7934
    -1.7063  -1.5700  -1.4304  -1.3626  -1.3054  -1.2014  -1.1383  -1.0637
    -0.9851  -0.8933  -0.8392  -0.8197  -0.7674  -0.7201  -0.6705  -0.6445
    -0.5071  -0.4124  -0.4021   0.1530   0.2495   0.3064   0.4196   0.5259
     0.6536   0.8697   0.9529   0.9900   1.0835   1.1286   1.1548   1.2425
     1.2532   1.2922   1.4003   1.4284   1.4884   1.5395   1.5422   1.5738
     1.6096   1.7464   1.7521   1.7893   1.8650   1.9591   2.0021   2.0410
     2.0718   2.0886   2.1251   2.2519   2.3644   2.4804   2.4899   2.5018
     2.6453   2.6687   3.5256   3.5695   3.6882   3.7416   4.3965   6.3710
     6.4782   6.8787   6.9286   7.7674   7.9864   8.0525   8.7714   8.8833
     8.9703   9.0173   9.2666   9.5299   9.5660   9.6604   9.8524   9.8742
     9.9173

          k = 0.3750 0.0000 0.0000 ( 34362 PWs)   bands (ev):

   -37.1701 -35.5318 -22.6352 -22.5558 -22.5228 -22.3792 -18.3517 -18.1838
   -18.1745 -16.9738 -16.8287 -16.5700 -15.0088 -14.9978 -14.9937 -14.8873
   -14.6054 -14.5921 -14.5546 -14.3452 -14.1684 -14.1539 -14.1055 -13.9912
   -13.9482 -13.8686 -13.7150  -7.9255  -7.8838  -7.7621  -7.6658  -7.6235
    -7.5550  -7.4670  -7.4463  -7.3748  -7.3342  -7.3178  -7.1756  -2.8526
    -2.8447  -2.7254  -2.6618  -2.2838  -2.2573  -2.1716  -1.7270  -1.6167
    -1.5344  -1.4721  -1.4552  -1.3827  -1.3251  -1.2521  -1.1683  -1.1668
    -1.1528  -1.1094  -1.0141  -0.9709  -0.9644  -0.8553  -0.8332  -0.8146
    -0.8087  -0.6828  -0.6668  -0.5740  -0.4878  -0.3890  -0.3728  -0.2188
    -0.1868  -0.1843  -0.1466  -0.0881   0.1142   0.1144   0.2171   0.2207
     0.2873   0.3466   0.4507   0.4531   0.4770   0.4781   0.5033   0.5281
     0.5850   0.7965   0.8948   0.9293   0.9892   1.1655   1.2318   1.2416
     1.2750   1.2851   1.3973   1.4003   1.4867   1.5558   1.5753   1.6817
     1.6834   1.7030   1.7846   1.8443   1.8585   1.9670   2.0760   2.1523
     2.1929   2.2809   2.3879   2.5619   2.6552   2.8449   2.8517   6.3782
     6.5519   6.5637   6.8424   7.4394   7.8184   8.0469   8.0503   8.1212
     8.4417   8.5219   8.6773   8.8025   8.8612   9.0887   9.1240   9.3744
     9.4960

          k = 0.3750 0.1320 0.0000 ( 34383 PWs)   bands (ev):

   -37.1686 -35.5300 -22.6135 -22.5341 -22.5017 -22.3582 -18.3478 -18.2275
   -18.1511 -16.9652 -16.7995 -16.6345 -14.9522 -14.9495 -14.9409 -14.8336
   -14.5647 -14.5472 -14.4940 -14.3425 -14.1401 -14.1321 -14.0814 -13.9749
   -13.9559 -13.9030 -13.7247  -7.9451  -7.9414  -7.8437  -7.7868  -7.7013
    -7.6928  -7.6500  -7.5360  -7.5146  -7.4666  -7.4042  -7.2688  -2.9191
    -2.9060  -2.7641  -2.7058  -2.2826  -2.2531  -2.1830  -2.0670  -1.9977
    -1.8211  -1.8084  -1.6583  -1.5693  -1.5674  -1.4361  -1.4009  -1.3802
    -1.3008  -1.2655  -1.2017  -1.1484  -1.0900  -1.0251  -0.8808  -0.7510
    -0.7417  -0.6419  -0.6150  -0.5354  -0.4829  -0.3689  -0.3634  -0.2524
    -0.2211  -0.1905  -0.0106   0.0329   0.0833   0.1354   0.2260   0.2297
     0.2710   0.2850   0.4836   0.4893   0.5015   0.5979   0.7150   0.8057
     0.8380   0.9244   1.0117   1.1247   1.1690   1.2056   1.2357   1.2747
     1.3234   1.3576   1.4071   1.4109   1.4861   1.5861   1.6110   1.6657
     1.7018   1.7640   1.7972   1.8305   1.8423   1.9278   2.0076   2.3564
     2.7898   2.8106   2.8857   2.9819   3.0408   3.1196   3.1934   6.3824
     6.7008   6.7212   6.7617   7.3759   7.8655   8.1008   8.1124   8.1381
     8.5302   8.5462   8.8301   8.9730   9.0271   9.0381   9.2745   9.3617
     9.5403

          k = 0.3750 0.2640 0.0000 ( 34389 PWs)   bands (ev):

   -37.1650 -35.5257 -22.5602 -22.4807 -22.4502 -22.3067 -18.3393 -18.3001
   -18.1249 -16.9448 -16.7788 -16.7244 -14.8274 -14.8257 -14.7944 -14.6719
   -14.4687 -14.4354 -14.3509 -14.3425 -14.0998 -14.0844 -14.0669 -13.9766
   -13.9441 -13.9211 -13.7685  -8.2431  -8.1731  -8.1109  -7.9834  -7.9216
    -7.8450  -7.8207  -7.7993  -7.7168  -7.7091  -7.6319  -7.5392  -3.2452
    -3.2204  -2.9867  -2.9457  -2.5755  -2.4544  -2.4523  -2.3729  -2.3342
    -2.3159  -2.3075  -2.2034  -2.1889  -2.1606  -1.8110  -1.7308  -1.5846
    -1.5142  -1.4953  -1.2107  -1.1581  -1.0745  -0.9486  -0.8839  -0.8448
    -0.8277  -0.7928  -0.7469  -0.6996  -0.6377  -0.6017  -0.5940  -0.5677
    -0.4388  -0.3272  -0.3241   0.0886   0.1914   0.2965   0.4301   0.5056
     0.6292   0.7409   0.7903   0.8729   0.8757   1.0321   1.0562   1.0628
     1.1463   1.2201   1.2713   1.3219   1.3792   1.4512   1.4703   1.4897
     1.5063   1.6121   1.6695   1.6898   1.6907   1.7433   1.7760   1.7947
     1.8151   1.8229   1.8748   1.8779   1.8853   2.1153   2.1664   2.3340
     3.0358   3.0486   3.6947   3.7642   3.7965   3.8459   3.9073   6.2555
     6.4555   6.7467   6.7877   7.4736   7.6912   8.1491   8.4523   8.5227
     8.6951   8.8820   8.9364   9.0230   9.4109   9.4659   9.5601   9.6695
     9.6991

          k = 0.3750 0.3960 0.0000 ( 34365 PWs)   bands (ev):

   -37.1614 -35.5214 -22.5056 -22.4260 -22.3974 -22.2539 -18.3718 -18.3267
   -18.1018 -16.9275 -16.9056 -16.6446 -14.6924 -14.6864 -14.6374 -14.4292
   -14.3868 -14.3733 -14.3197 -14.1866 -14.1802 -14.0492 -14.0330 -13.9938
   -13.9394 -13.8842 -13.8319  -8.5088  -8.4407  -8.3786  -8.2415  -8.1739
    -8.1081  -8.0162  -7.9244  -7.9184  -7.8242  -7.7969  -7.6772  -3.7145
    -3.6951  -3.4355  -3.3996  -3.2883  -2.8975  -2.8930  -2.5844  -2.5447
    -2.5191  -2.4239  -2.2321  -2.2046  -2.1662  -2.1117  -2.0408  -1.7943
    -1.7812  -1.5988  -1.2285  -1.1621  -1.1549  -1.1502  -1.0841  -0.9632
    -0.9188  -0.9109  -0.8615  -0.8342  -0.8193  -0.7740  -0.7463  -0.6470
    -0.5717  -0.3486  -0.3394   0.2249   0.3342   0.3640   0.6189   0.7175
     0.8717   1.0343   1.0704   1.2030   1.2190   1.2645   1.3196   1.3749
     1.4054   1.4476   1.5218   1.5315   1.5444   1.5982   1.6326   1.7052
     1.7428   1.7835   1.8169   1.8529   1.8785   1.9289   1.9601   2.0098
     2.0459   2.0644   2.1331   2.2245   2.2273   2.2276   2.4512   2.4733
     2.8570   2.8713   4.1418   4.2505   4.3043   4.3588   4.3835   5.9312
     6.2095   6.4435   6.4808   7.4241   7.8407   8.2340   8.7477   8.8430
     9.0243   9.0571   9.2320   9.3129   9.4571   9.5345   9.5602   9.6086
     9.7082

          k = 0.3750-0.5279 0.0000 ( 34392 PWs)   bands (ev):

   -37.1599 -35.5196 -22.4825 -22.4029 -22.3751 -22.2317 -18.3989 -18.3234
   -18.0924 -16.9607 -16.9149 -16.6092 -14.6310 -14.6211 -14.5478 -14.4326
   -14.3501 -14.2793 -14.2359 -14.2209 -14.0981 -14.0422 -14.0266 -14.0115
   -14.0077 -13.9206 -13.8026  -8.5909  -8.5227  -8.4730  -8.3295  -8.3190
    -8.2554  -8.1697  -7.9728  -7.9501  -7.9000  -7.8202  -7.6924  -3.9193
    -3.8967  -3.6444  -3.6231  -3.5288  -3.1227  -3.1189  -2.6029  -2.5541
    -2.5370  -2.4351  -2.2264  -2.2146  -2.1982  -2.1648  -2.1471  -1.8792
    -1.8744  -1.6211  -1.2989  -1.2520  -1.2336  -1.1891  -1.1424  -1.0432
    -0.9556  -0.9111  -0.9070  -0.8936  -0.8807  -0.8339  -0.8154  -0.6723
    -0.5395  -0.3343  -0.3265   0.2570   0.3629   0.3861   0.6826   0.8202
     0.9588   1.1624   1.2219   1.3133   1.3207   1.3537   1.3553   1.3970
     1.4303   1.5159   1.5814   1.6058   1.6526   1.6835   1.7911   1.8123
     1.8195   1.8772   1.8804   1.9200   1.9717   2.0739   2.0858   2.1027
     2.1881   2.2178   2.2801   2.3360   2.4138   2.4170   2.5411   2.6142
     2.6237   2.6307   4.2254   4.3856   4.4565   4.5044   4.5309   5.7459
     6.1484   6.2658   6.3189   7.3322   8.1054   8.1750   8.7492   8.8219
     9.0132   9.1668   9.3055   9.3415   9.4194   9.5570   9.5979   9.8300
     9.8646

          k =-0.5000 0.0000 0.0000 ( 34370 PWs)   bands (ev):

   -37.1692 -35.5307 -22.6161 -22.5365 -22.5046 -22.3610 -18.3731 -18.1828
   -18.1671 -17.0262 -16.7865 -16.5686 -15.0576 -15.0444 -15.0269 -14.8170
   -14.6211 -14.5034 -14.4175 -14.3444 -14.2732 -14.1509 -14.1499 -14.0349
   -14.0259 -13.8807 -13.7289  -7.9264  -7.8736  -7.7462  -7.6481  -7.6004
    -7.5368  -7.4521  -7.4102  -7.3383  -7.3221  -7.2847  -7.1420  -2.9883
    -2.9850  -2.8667  -2.8056  -2.3087  -2.2911  -2.1696  -1.6422  -1.6058
    -1.5691  -1.5311  -1.3831  -1.3346  -1.3294  -1.3147  -1.1930  -1.1819
    -1.1722  -1.1703  -1.1294  -1.1279  -1.0406  -0.9467  -0.9126  -0.8565
    -0.8363  -0.7663  -0.7518  -0.6408  -0.5037  -0.4543  -0.4258  -0.2306
    -0.1804  -0.1727  -0.1696  -0.1508   0.1089   0.1091   0.1791   0.2289
     0.2754   0.3535   0.4408   0.4507   0.4528   0.4761   0.5002   0.5251
     0.5835   0.8049   0.8801   0.9197   0.9402   1.1815   1.1920   1.2375
     1.4147   1.4188   1.4402   1.4455   1.5148   1.5746   1.6390   1.6681
     1.7014   1.7102   1.7973   1.8690   1.9177   2.0050   2.0674   2.1685
     2.2023   2.2671   2.3922   2.5647   2.6736   2.8596   2.8877   6.9514
     6.9814   6.9870   7.3245   7.3601   7.3767   7.3995   8.0685   8.3183
     8.4950   8.5940   9.0810   9.0916   9.0977   9.1402   9.1998   9.5038
     9.6081

          k =-0.5000 0.1320 0.0000 ( 34378 PWs)   bands (ev):

   -37.1677 -35.5290 -22.5953 -22.5157 -22.4844 -22.3408 -18.3691 -18.2258
   -18.1445 -17.0170 -16.7590 -16.6323 -14.9986 -14.9869 -14.9572 -14.7713
   -14.5809 -14.4640 -14.4090 -14.3034 -14.2153 -14.1287 -14.1278 -14.0243
   -14.0035 -13.9181 -13.7320  -7.9410  -7.9127  -7.7916  -7.7298  -7.6727
    -7.6667  -7.6132  -7.5756  -7.5356  -7.4993  -7.4407  -7.3548  -3.0609
    -3.0542  -2.9117  -2.8575  -2.3137  -2.2930  -2.1913  -2.0266  -1.9653
    -1.7693  -1.7650  -1.6484  -1.5639  -1.5623  -1.4957  -1.4665  -1.4468
    -1.3801  -1.3428  -1.2557  -1.2300  -1.1963  -1.0411  -0.8951  -0.8220
    -0.8114  -0.6519  -0.6341  -0.5714  -0.5021  -0.4050  -0.3985  -0.2473
    -0.2448  -0.2379  -0.0250   0.0333   0.0939   0.1360   0.2280   0.2318
     0.2758   0.3606   0.3896   0.5620   0.5646   0.5915   0.6544   0.7285
     0.8195   0.9237   1.0263   1.1115   1.1313   1.2160   1.2338   1.3269
     1.3358   1.3531   1.4601   1.4705   1.5653   1.6431   1.6707   1.6856
     1.7639   1.7911   1.7943   1.8519   1.9250   1.9691   2.0947   2.3315
     2.7969   2.8048   2.9046   3.0002   3.0602   3.1520   3.2467   6.7654
     6.7723   7.1028   7.1722   7.2087   7.6794   7.7107   8.1334   8.2243
     8.5171   8.5534   9.0540   9.1859   9.3279   9.3447   9.4750   9.5908
     9.7181

          k =-0.5000 0.2640 0.0000 ( 34396 PWs)   bands (ev):

   -37.1642 -35.5246 -22.5443 -22.4647 -22.4349 -22.2914 -18.3595 -18.3001
   -18.1178 -16.9949 -16.7755 -16.6879 -14.8462 -14.8355 -14.7713 -14.6453
   -14.4848 -14.3930 -14.3715 -14.2000 -14.1184 -14.0779 -14.0762 -14.0214
   -13.9847 -13.9262 -13.7623  -8.1819  -8.1050  -8.0715  -8.0310  -7.9685
    -7.9260  -7.8720  -7.8627  -7.8418  -7.7411  -7.7094  -7.6306  -3.3812
    -3.3588  -3.1225  -3.0906  -2.5664  -2.4797  -2.4741  -2.3976  -2.3472
    -2.3257  -2.3234  -2.2113  -2.2017  -2.1666  -1.9304  -1.8523  -1.6276
    -1.6093  -1.5803  -1.1387  -1.0870  -0.9955  -0.9213  -0.9133  -0.8905
    -0.8794  -0.8168  -0.7769  -0.7251  -0.6543  -0.6268  -0.6221  -0.5820
    -0.4426  -0.3472  -0.3320   0.1071   0.2076   0.3331   0.4939   0.5497
     0.6808   0.7807   0.8554   0.9000   0.9031   1.0947   1.1216   1.1379
     1.1634   1.2231   1.2381   1.2498   1.4240   1.4713   1.5099   1.5397
     1.5852   1.6211   1.6661   1.7237   1.7468   1.7648   1.8090   1.8587
     1.8767   1.8924   1.9075   1.9588   1.9843   2.0230   2.2557   2.2765
     3.0291   3.0405   3.7284   3.8901   3.9134   3.9712   4.0380   6.2516
     6.3910   6.7423   6.7583   7.4879   7.6225   8.1503   8.4901   8.5513
     8.7046   8.9750   9.0716   9.1787   9.6344   9.6469   9.6526   9.8546
     9.9123

          k =-0.5000 0.3960 0.0000 ( 34384 PWs)   bands (ev):

   -37.1606 -35.5203 -22.4921 -22.4125 -22.3842 -22.2407 -18.3688 -18.3499
   -18.0947 -16.9734 -16.9047 -16.6123 -14.6632 -14.6549 -14.5976 -14.4371
   -14.3886 -14.3840 -14.2940 -14.1727 -14.0908 -14.0296 -14.0259 -14.0201
   -13.9249 -13.8721 -13.8406  -8.5570  -8.4877  -8.4340  -8.3190  -8.2906
    -8.2568  -8.1670  -7.9546  -7.9432  -7.9371  -7.8110  -7.6835  -3.8457
    -3.8266  -3.5459  -3.5135  -3.2891  -2.8889  -2.8851  -2.6541  -2.6065
    -2.5926  -2.4935  -2.2484  -2.2316  -2.2101  -2.1783  -2.1318  -1.8626
    -1.8300  -1.6489  -1.1870  -1.1556  -1.1547  -1.0597  -1.0206  -1.0002
    -0.9512  -0.9434  -0.9174  -0.8757  -0.8396  -0.8095  -0.7342  -0.7224
    -0.5507  -0.3104  -0.3026   0.2507   0.3619   0.4133   0.7272   0.8141
     0.9789   1.1436   1.1499   1.3164   1.3286   1.3597   1.3796   1.4258
     1.4377   1.4442   1.5734   1.6090   1.6116   1.6184   1.6400   1.7612
     1.7844   1.8247   1.8959   1.9003   1.9232   1.9720   2.0368   2.0464
     2.1014   2.1207   2.1956   2.1959   2.2568   2.3252   2.4207   2.5796
     2.8455   2.8568   4.1528   4.4855   4.5581   4.6130   4.6276   5.7194
     6.1468   6.2474   6.2526   7.2736   7.9340   8.1660   8.7874   8.8857
     8.9690   9.0699   9.1847   9.4078   9.4831   9.4952   9.6192   9.6797
     9.7809

          k =-0.5000-0.5279 0.0000 ( 34420 PWs)   bands (ev):

   -37.1591 -35.5185 -22.4701 -22.3905 -22.3629 -22.2194 -18.3965 -18.3460
   -18.0853 -16.9645 -16.9553 -16.5788 -14.5655 -14.5616 -14.5405 -14.3905
   -14.3825 -14.2766 -14.2202 -14.2179 -14.0470 -14.0203 -14.0059 -14.0038
   -13.9989 -13.8846 -13.8130  -8.7030  -8.6346  -8.5851  -8.4413  -8.4351
    -8.3729  -8.2890  -8.0496  -7.9704  -7.9553  -7.8373  -7.7005  -4.0510
    -4.0307  -3.7505  -3.7177  -3.5515  -3.1132  -3.1099  -2.6866  -2.6297
    -2.6243  -2.5203  -2.3006  -2.2385  -2.2220  -2.2192  -2.1780  -1.9418
    -1.8982  -1.6709  -1.3012  -1.2685  -1.2002  -1.1236  -1.0883  -1.0310
    -0.9756  -0.9718  -0.9344  -0.9293  -0.9171  -0.8822  -0.8348  -0.7520
    -0.5078  -0.2816  -0.2759   0.2871   0.3953   0.4308   0.8092   0.9563
     1.0996   1.2318   1.3932   1.4066   1.4152   1.4168   1.4460   1.4478
     1.4789   1.5566   1.6107   1.6113   1.6828   1.7111   1.8784   1.8934
     1.9301   1.9843   1.9999   2.0061   2.0239   2.1040   2.1072   2.1687
     2.1995   2.2515   2.3883   2.3887   2.4238   2.4779   2.5905   2.5925
     2.6023   2.7430   4.2309   4.6751   4.7623   4.8197   4.8301   5.4879
     6.0203   6.0232   6.0930   7.1685   8.1105   8.1717   8.8179   8.8429
     9.0184   9.0677   9.1179   9.1423   9.3459   9.4196   9.5138   9.6174
     9.8299

     the Fermi energy is     2.6154 ev

!    total energy              =   -1842.83399535 Ry
     Harris-Foulkes estimate   =   -1842.83399536 Ry
     estimated scf accuracy    <          4.2E-09 Ry

     The total energy is the sum of the following terms:

     one-electron contribution =  -30219.99882124 Ry
     hartree contribution      =   15262.90897994 Ry
     xc contribution           =    -621.64212027 Ry
     ewald contribution        =   13735.90637939 Ry
     smearing contrib. (-TS)   =      -0.00841318 Ry

     convergence has been achieved in  33 iterations

     negative rho (up, down):  1.516E-03 0.000E+00

     Forces acting on atoms (cartesian axes, Ry/au):

     atom    1 type  4   force =     0.00000000    0.00000000   -0.00017208
     atom    2 type  3   force =     0.00000000    0.00000000    0.00033087
     atom    3 type  4   force =     0.00000000    0.00000000   -0.00076021
     atom    4 type  1   force =     0.00000000    0.00000000   -0.00029340
     atom    5 type  3   force =     0.00000000    0.00000000    0.00053108
     atom    6 type  4   force =     0.00000000    0.00000000   -0.00001505
     atom    7 type  4   force =     0.00000000    0.00000000    0.00033658
     atom    8 type  2   force =     0.00000000    0.00000000   -0.00059494
     atom    9 type  4   force =     0.00000000    0.00000000    0.00022100
     atom   10 type  4   force =     0.00000000    0.00000000    0.00024118
     atom   11 type  3   force =     0.00000000    0.00000000    0.00030179
     atom   12 type  1   force =     0.00000000    0.00000000    0.00015118
     atom   13 type  4   force =     0.00000000    0.00000000    0.00206028
     atom   14 type  4   force =     0.00000000    0.00000000    0.00162988
     atom   15 type  3   force =     0.00000000    0.00000000   -0.00253043
     atom   16 type  4   force =     0.00000000    0.00000000    0.00074910
     atom   17 type  1   force =     0.00000000    0.00000000   -0.00874697
     atom   18 type  3   force =     0.00000000    0.00000000    0.00100842
     atom   19 type  4   force =     0.00000000    0.00000000    0.03138799
     atom   20 type  4   force =     0.00000000    0.00000000    0.03570926
     atom   21 type  2   force =     0.00000000    0.00000000    0.00766623
     atom   22 type  4   force =     0.00000000    0.00000000   -0.02272405
     atom   23 type  4   force =     0.00000000    0.00000000   -0.01812669
     atom   24 type  3   force =     0.00000000    0.00000000   -0.01378513
     atom   25 type  1   force =     0.00000000    0.00000000   -0.01444272
     atom   26 type  4   force =     0.00000000    0.00000000    0.00015334
     atom   27 type  3   force =     0.00000000    0.00000000   -0.00011637
     atom   28 type  4   force =     0.00000000    0.00000000   -0.00017015

     Total force =     0.060464     Total SCF correction =     0.000313


     Computing stress (Cartesian axis) and pressure


     negative rho (up, down):  1.516E-03 0.000E+00
          total   stress  (Ry/bohr**3)                   (kbar)     P=       -6.45
  -0.00001154   0.00000000   0.00000000           -1.70        0.00        0.00
   0.00000000   0.00000199   0.00000000            0.00        0.29        0.00
   0.00000000   0.00000000  -0.00012198            0.00        0.00      -17.94

 
     init_run     :      8.45s CPU      8.73s WALL (       1 calls)
     electrons    :    536.29s CPU    561.03s WALL (       1 calls)
     forces       :      3.57s CPU      3.82s WALL (       1 calls)
     stress       :     20.14s CPU     20.87s WALL (       1 calls)

     Called by init_run:
     wfcinit      :      5.83s CPU      5.93s WALL (       1 calls)
     potinit      :      0.61s CPU      0.62s WALL (       1 calls)
     hinit0       :      0.94s CPU      0.95s WALL (       1 calls)

     Called by electrons:
     c_bands      :    422.41s CPU    432.24s WALL (      33 calls)
     sum_band     :     75.13s CPU     83.50s WALL (      33 calls)
     v_of_rho     :      2.31s CPU      2.34s WALL (      34 calls)
     newd         :     21.21s CPU     27.67s WALL (      34 calls)
     mix_rho      :     15.79s CPU     15.94s WALL (      33 calls)

     Called by c_bands:
     init_us_2    :      3.27s CPU      3.29s WALL (    1725 calls)
     cegterg      :    398.76s CPU    407.99s WALL (     825 calls)

     Called by sum_band:
     sum_band:bec :      0.22s CPU      0.22s WALL (     825 calls)
     addusdens    :     18.94s CPU     26.66s WALL (      33 calls)

     Called by *egterg:
     h_psi        :    192.19s CPU    198.55s WALL (    3812 calls)
     s_psi        :     19.42s CPU     19.54s WALL (    3812 calls)
     g_psi        :      0.59s CPU      0.60s WALL (    2962 calls)
     cdiaghg      :    112.15s CPU    112.58s WALL (    3787 calls)

     Called by h_psi:
     h_psi:calbec :     22.82s CPU     23.83s WALL (    3812 calls)
     vloc_psi     :    148.56s CPU    150.84s WALL (    3812 calls)
     add_vuspsi   :     19.94s CPU     21.53s WALL (    3812 calls)

     General routines
     calbec       :     38.69s CPU     39.76s WALL (    4762 calls)
     fft          :      1.82s CPU      1.83s WALL (     465 calls)
     ffts         :      8.42s CPU      8.50s WALL (   14885 calls)
     fftw         :    170.26s CPU    172.83s WALL (  588433 calls)
     interpolate  :      0.14s CPU      0.14s WALL (      34 calls)
 
     Parallel routines
     fft_scatt_xy :     21.20s CPU     21.48s WALL (  603783 calls)
     fft_scatt_yz :    106.11s CPU    107.71s WALL (  603783 calls)
 
     PWSCF        :   9m29.32s CPU   9m55.36s WALL

 
   This run was terminated on:  22:41:52  21May2021            

=------------------------------------------------------------------------------=
   JOB DONE.
=------------------------------------------------------------------------------=
[1621651312.315531] [holy7c06602:22007:0]          mpool.c:43   UCX  WARN  object 0x39bdf00 was not returned to mpool ucp_requests
[1621651312.314677] [holy7c06602:22008:0]          mpool.c:43   UCX  WARN  object 0x45af480 was not returned to mpool ucp_requests
[1621651312.315835] [holy7c06601:44646:0]          mpool.c:43   UCX  WARN  object 0x45ad940 was not returned to mpool ucp_requests
[1621651312.315856] [holy7c06601:44646:0]          mpool.c:43   UCX  WARN  object 0x45ae040 was not returned to mpool ucp_requests
[1621651312.320175] [holy7c06412:44871:0]          mpool.c:43   UCX  WARN  object 0x3087900 was not returned to mpool ucp_requests
[1621651312.320199] [holy7c06412:44871:0]          mpool.c:43   UCX  WARN  object 0x3087c80 was not returned to mpool ucp_requests
[1621651312.321590] [holy7c06409:264523:0]          mpool.c:43   UCX  WARN  object 0x2efd140 was not returned to mpool ucp_requests
[1621651312.321616] [holy7c06409:264523:0]          mpool.c:43   UCX  WARN  object 0x2efd4c0 was not returned to mpool ucp_requests
[1621651312.322843] [holy7c06501:263765:0]          mpool.c:43   UCX  WARN  object 0x4545940 was not returned to mpool ucp_requests
[1621651312.320463] [holy7c06409:264524:0]          mpool.c:43   UCX  WARN  object 0x30d4a00 was not returned to mpool ucp_requests
