
     Program PWSCF v.6.5 starts on 20May2021 at 20:26:42 

     This program is part of the open-source Quantum ESPRESSO suite
     for quantum simulation of materials; please cite
         "P. Giannozzi et al., J. Phys.:Condens. Matter 21 395502 (2009);
         "P. Giannozzi et al., J. Phys.:Condens. Matter 29 465901 (2017);
          URL http://www.quantum-espresso.org", 
     in publications or presentations arising from this work. More details at
     http://www.quantum-espresso.org/quote

     Parallel version (MPI), running on    20 processors

     MPI processes distributed on     2 nodes
     R & G space division:  proc/nbgrp/npool/nimage =      20
     Reading input from CBCO_112_20vac_NOcleave_0sep.pwi

     Current dimensions of program PWSCF are:
     Max number of different atomic species (ntypx) = 10
     Max number of k-points (npk) =  40000
     Max angular momentum in pseudopotentials (lmaxx) =  3

     Subspace diagonalization in iterative solution of the eigenvalue problem:
     one sub-group per band group will be used
     scalapack distributed-memory algorithm (size of sub-group:  4*  4 procs)

     Message from routine setup:
     using ibrav=0 with symmetry is DISCOURAGED, use correct ibrav instead
 
     Parallelization info
     --------------------
     sticks:   dense  smooth     PW     G-vecs:    dense   smooth      PW
     Min         150      49     14                70534    13544    2118
     Max         151      50     15                70557    13582    2163
     Sum        3007     999    293              1410975   271277   42827
 


     bravais-lattice index     =            0
     lattice parameter (alat)  =       7.1727  a.u.
     unit-cell volume          =    4323.8363 (a.u.)^3
     number of atoms/cell      =           28
     number of atomic types    =            4
     number of electrons       =       227.00
     number of Kohn-Sham states=          137
     kinetic-energy cutoff     =      60.0000  Ry
     charge density cutoff     =     720.0000  Ry
     convergence threshold     =      1.0E-08
     mixing beta               =       0.5000
     number of iterations used =           10  local-TF  mixing
     Exchange-correlation= SLA PW PBE PBE
                           (   1   4   3   4   0   0   0)
     nstep                     =          300


     celldm(1)=   7.172744  celldm(2)=   0.000000  celldm(3)=   0.000000
     celldm(4)=   0.000000  celldm(5)=   0.000000  celldm(6)=   0.000000

     crystal axes: (cart. coord. in units of alat)
               a(1) = (   1.000000   0.000000   0.000000 )  
               a(2) = (   0.000000   1.018583   0.000000 )  
               a(3) = (   0.000000   0.000000  11.503157 )  

     reciprocal axes: (cart. coord. in units 2 pi/alat)
               b(1) = (  1.000000  0.000000  0.000000 )  
               b(2) = (  0.000000  0.981756  0.000000 )  
               b(3) = (  0.000000  0.000000  0.086933 )  


     PseudoPot. # 1 for Ba read from file:
     ./pseudo/Ba.pbe-nsp-van.UPF
     MD5 check sum: 2b9c31dd849566dd297d80989662b7a0
     Pseudo is Ultrasoft + core correction, Zval = 10.0
     Generated by new atomic code, or converted to UPF format
     Using radial grid of  907 points,  6 beta functions with: 
                l(1) =   0
                l(2) =   0
                l(3) =   1
                l(4) =   1
                l(5) =   2
                l(6) =   2
     Q(r) pseudized with  6 coefficients,  rinner =    1.200   1.200   1.200
                                                       1.200   1.200

     PseudoPot. # 2 for Ca read from file:
     ./pseudo/Ca.pbe-nsp-van.UPF
     MD5 check sum: 6471098428ff4fa451746d08035ff179
     Pseudo is Ultrasoft + core correction, Zval = 10.0
     Generated by new atomic code, or converted to UPF format
     Using radial grid of  845 points,  6 beta functions with: 
                l(1) =   0
                l(2) =   0
                l(3) =   1
                l(4) =   1
                l(5) =   2
                l(6) =   2
     Q(r) pseudized with  6 coefficients,  rinner =    1.200   1.200   1.200
                                                       1.200   1.200

     PseudoPot. # 3 for Cu read from file:
     ./pseudo/Cu.pbe-n-van_ak.UPF
     MD5 check sum: 34e3282627ffb533726feb647e090d62
     Pseudo is Ultrasoft + core correction, Zval = 11.0
     Generated by new atomic code, or converted to UPF format
     Using radial grid of  867 points,  6 beta functions with: 
                l(1) =   0
                l(2) =   0
                l(3) =   1
                l(4) =   1
                l(5) =   2
                l(6) =   2
     Q(r) pseudized with  8 coefficients,  rinner =    1.400   1.400   1.400
                                                       1.400   1.400

     PseudoPot. # 4 for O  read from file:
     ./pseudo/O.pbe-van_ak.UPF
     MD5 check sum: 783ce7fe4c79b6a4916957118fed0856
     Pseudo is Ultrasoft, Zval =  6.0
     Generated by new atomic code, or converted to UPF format
     Using radial grid of  737 points,  4 beta functions with: 
                l(1) =   0
                l(2) =   0
                l(3) =   1
                l(4) =   1
     Q(r) pseudized with  8 coefficients,  rinner =    0.800   0.800   0.800


     atomic species   valence    mass     pseudopotential
        Ba            10.00   137.32700     Ba( 1.00)
        Ca            10.00    40.07800     Ca( 1.00)
        Cu            11.00    63.54600     Cu( 1.00)
        O              6.00    15.99900     O ( 1.00)

      4 Sym. Ops. (no inversion) found



   Cartesian axes

     site n.     atom                  positions (alat units)
         1           Cu  tau(   1) = (   0.0000000   0.0000000   0.0000000  )
         2           O   tau(   2) = (   0.0000000   0.5092906   0.0000000  )
         3           O   tau(   3) = (   0.0000000   0.0000000   0.4912199  )
         4           Ba  tau(   4) = (   0.5000010   0.5092906   0.5767441  )
         5           Cu  tau(   5) = (   0.0000000   0.0000000   1.0769743  )
         6           O   tau(   6) = (   0.0000000   0.5092906   1.1393983  )
         7           O   tau(   7) = (   0.5000010   0.0000000   1.1432685  )
         8           Ca  tau(   8) = (   0.5000010   0.5092906   1.5519071  )
         9           O   tau(   9) = (   0.5000010   0.0000000   1.9605457  )
        10           O   tau(  10) = (   0.0000000   0.5092906   1.9644132  )
        11           Cu  tau(  11) = (   0.0000000   0.0000000   2.0268399  )
        12           Ba  tau(  12) = (   0.5000010   0.5092906   2.5270701  )
        13           O   tau(  13) = (   0.0000000   0.0000000   2.6125943  )
        14           Cu  tau(  14) = (   0.0000000   0.0000000   3.1038116  )
        15           O   tau(  15) = (   0.0000000   0.5092906   3.1038116  )
        16           O   tau(  16) = (   0.0000000   0.0000000   3.5950314  )
        17           Ba  tau(  17) = (   0.5000010   0.5092906   3.6805556  )
        18           Cu  tau(  18) = (   0.0000000   0.0000000   4.1807858  )
        19           O   tau(  19) = (   0.0000000   0.5092906   4.2432125  )
        20           O   tau(  20) = (   0.5000010   0.0000000   4.2470801  )
        21           Ca  tau(  21) = (   0.5000010   0.5092906   4.6557186  )
        22           O   tau(  22) = (   0.5000010   0.0000000   5.0643572  )
        23           O   tau(  23) = (   0.0000000   0.5092906   5.0682274  )
        24           Cu  tau(  24) = (   0.0000000   0.0000000   5.1306515  )
        25           Ba  tau(  25) = (   0.5000010   0.5092906   5.6308817  )
        26           O   tau(  26) = (   0.0000000   0.0000000   5.7164058  )
        27           Cu  tau(  27) = (   0.0000000   0.0000000   6.2076257  )
        28           O   tau(  28) = (   0.0000000   0.5092906   6.2076257  )

     number of k points=    25  Gaussian smearing, width (Ry)=  0.0100
                       cart. coord. in units 2pi/alat
        k(    1) = (   0.0000000   0.0000000   0.0000000), wk =   0.0312500
        k(    2) = (   0.0000000   0.1227195   0.0000000), wk =   0.0625000
        k(    3) = (   0.0000000   0.2454391   0.0000000), wk =   0.0625000
        k(    4) = (   0.0000000   0.3681586   0.0000000), wk =   0.0625000
        k(    5) = (   0.0000000  -0.4908782   0.0000000), wk =   0.0312500
        k(    6) = (   0.1250000   0.0000000   0.0000000), wk =   0.0625000
        k(    7) = (   0.1250000   0.1227195   0.0000000), wk =   0.1250000
        k(    8) = (   0.1250000   0.2454391   0.0000000), wk =   0.1250000
        k(    9) = (   0.1250000   0.3681586   0.0000000), wk =   0.1250000
        k(   10) = (   0.1250000  -0.4908782   0.0000000), wk =   0.0625000
        k(   11) = (   0.2500000   0.0000000   0.0000000), wk =   0.0625000
        k(   12) = (   0.2500000   0.1227195   0.0000000), wk =   0.1250000
        k(   13) = (   0.2500000   0.2454391   0.0000000), wk =   0.1250000
        k(   14) = (   0.2500000   0.3681586   0.0000000), wk =   0.1250000
        k(   15) = (   0.2500000  -0.4908782   0.0000000), wk =   0.0625000
        k(   16) = (   0.3750000   0.0000000   0.0000000), wk =   0.0625000
        k(   17) = (   0.3750000   0.1227195   0.0000000), wk =   0.1250000
        k(   18) = (   0.3750000   0.2454391   0.0000000), wk =   0.1250000
        k(   19) = (   0.3750000   0.3681586   0.0000000), wk =   0.1250000
        k(   20) = (   0.3750000  -0.4908782   0.0000000), wk =   0.0625000
        k(   21) = (  -0.5000000   0.0000000   0.0000000), wk =   0.0312500
        k(   22) = (  -0.5000000   0.1227195   0.0000000), wk =   0.0625000
        k(   23) = (  -0.5000000   0.2454391   0.0000000), wk =   0.0625000
        k(   24) = (  -0.5000000   0.3681586   0.0000000), wk =   0.0625000
        k(   25) = (  -0.5000000  -0.4908782   0.0000000), wk =   0.0312500

     Dense  grid:  1410975 G-vectors     FFT dimensions: (  64,  64, 720)

     Smooth grid:   271277 G-vectors     FFT dimensions: (  36,  40, 432)

     Estimated max dynamical RAM per process >     459.95 MB

     Estimated total dynamical RAM >       8.98 GB

     Initial potential from superposition of free atoms

     starting charge  226.84630, renormalised to  227.00000

     negative rho (up, down):  3.558E-03 0.000E+00
     Starting wfcs are  195 randomized atomic wfcs

     total cpu time spent up to now is       11.1 secs

     Self-consistent Calculation

     iteration #  1     ecut=    60.00 Ry     beta= 0.50
     Davidson diagonalization with overlap
     ethr =  1.00E-02,  avg # of iterations =  2.0

     negative rho (up, down):  4.576E-04 0.000E+00

     total cpu time spent up to now is       25.5 secs

     total energy              =   -1840.91662563 Ry
     Harris-Foulkes estimate   =   -1845.39085510 Ry
     estimated scf accuracy    <      19.60528439 Ry

     iteration #  2     ecut=    60.00 Ry     beta= 0.50
     Davidson diagonalization with overlap
     ethr =  8.64E-03,  avg # of iterations =  1.9

     negative rho (up, down):  2.534E-04 0.000E+00

     total cpu time spent up to now is       39.5 secs

     total energy              =   -1842.56954191 Ry
     Harris-Foulkes estimate   =   -1843.25846458 Ry
     estimated scf accuracy    <       3.13617778 Ry

     iteration #  3     ecut=    60.00 Ry     beta= 0.50
     Davidson diagonalization with overlap
     ethr =  1.38E-03,  avg # of iterations =  2.0

     negative rho (up, down):  2.431E-04 0.000E+00

     total cpu time spent up to now is       54.0 secs

     total energy              =   -1842.86848680 Ry
     Harris-Foulkes estimate   =   -1843.00632235 Ry
     estimated scf accuracy    <       2.03077562 Ry

     iteration #  4     ecut=    60.00 Ry     beta= 0.50
     Davidson diagonalization with overlap
     ethr =  8.95E-04,  avg # of iterations =  1.0

     negative rho (up, down):  2.388E-04 0.000E+00

     total cpu time spent up to now is       67.0 secs

     total energy              =   -1842.87375729 Ry
     Harris-Foulkes estimate   =   -1842.94345672 Ry
     estimated scf accuracy    <       0.35768578 Ry

     iteration #  5     ecut=    60.00 Ry     beta= 0.50
     Davidson diagonalization with overlap
     ethr =  1.58E-04,  avg # of iterations =  6.0

     negative rho (up, down):  2.355E-04 0.000E+00

     total cpu time spent up to now is       86.0 secs

     total energy              =   -1842.91377993 Ry
     Harris-Foulkes estimate   =   -1842.93762200 Ry
     estimated scf accuracy    <       3.75909463 Ry

     iteration #  6     ecut=    60.00 Ry     beta= 0.50
     Davidson diagonalization with overlap
     ethr =  1.58E-04,  avg # of iterations =  1.5

     negative rho (up, down):  2.322E-04 0.000E+00

     total cpu time spent up to now is       99.4 secs

     total energy              =   -1842.88398000 Ry
     Harris-Foulkes estimate   =   -1842.92010194 Ry
     estimated scf accuracy    <       2.57770582 Ry

     iteration #  7     ecut=    60.00 Ry     beta= 0.50
     Davidson diagonalization with overlap
     ethr =  1.58E-04,  avg # of iterations =  1.5

     negative rho (up, down):  2.304E-04 0.000E+00

     total cpu time spent up to now is      112.7 secs

     total energy              =   -1842.88801808 Ry
     Harris-Foulkes estimate   =   -1842.89796721 Ry
     estimated scf accuracy    <       0.85096942 Ry

     iteration #  8     ecut=    60.00 Ry     beta= 0.50
     Davidson diagonalization with overlap
     ethr =  1.58E-04,  avg # of iterations =  1.0

     negative rho (up, down):  2.309E-04 0.000E+00

     total cpu time spent up to now is      125.5 secs

     total energy              =   -1842.88581604 Ry
     Harris-Foulkes estimate   =   -1842.89163473 Ry
     estimated scf accuracy    <       0.26101021 Ry

     iteration #  9     ecut=    60.00 Ry     beta= 0.50
     Davidson diagonalization with overlap
     ethr =  1.15E-04,  avg # of iterations =  1.8

     negative rho (up, down):  2.314E-04 0.000E+00

     total cpu time spent up to now is      139.0 secs

     total energy              =   -1842.88475470 Ry
     Harris-Foulkes estimate   =   -1842.88767648 Ry
     estimated scf accuracy    <       0.27069014 Ry

     iteration # 10     ecut=    60.00 Ry     beta= 0.50
     Davidson diagonalization with overlap
     ethr =  1.15E-04,  avg # of iterations =  1.0

     negative rho (up, down):  2.323E-04 0.000E+00

     total cpu time spent up to now is      151.7 secs

     total energy              =   -1842.88001081 Ry
     Harris-Foulkes estimate   =   -1842.88542188 Ry
     estimated scf accuracy    <       0.24071549 Ry

     iteration # 11     ecut=    60.00 Ry     beta= 0.50
     Davidson diagonalization with overlap
     ethr =  1.06E-04,  avg # of iterations =  3.6

     negative rho (up, down):  3.629E-04 0.000E+00

     total cpu time spent up to now is      166.8 secs

     total energy              =   -1842.87690538 Ry
     Harris-Foulkes estimate   =   -1842.88088473 Ry
     estimated scf accuracy    <       0.11292578 Ry

     iteration # 12     ecut=    60.00 Ry     beta= 0.50
     Davidson diagonalization with overlap
     ethr =  4.97E-05,  avg # of iterations =  4.5

     negative rho (up, down):  2.472E-03 0.000E+00

     total cpu time spent up to now is      182.7 secs

     total energy              =   -1842.87608377 Ry
     Harris-Foulkes estimate   =   -1842.87784172 Ry
     estimated scf accuracy    <       0.01768162 Ry

     iteration # 13     ecut=    60.00 Ry     beta= 0.50
     Davidson diagonalization with overlap
     c_bands:  1 eigenvalues not converged
     ethr =  7.79E-06,  avg # of iterations = 10.3

     negative rho (up, down):  1.423E-02 0.000E+00

     total cpu time spent up to now is      204.6 secs

     total energy              =   -1842.87481621 Ry
     Harris-Foulkes estimate   =   -1842.87652362 Ry
     estimated scf accuracy    <       0.03058149 Ry

     iteration # 14     ecut=    60.00 Ry     beta= 0.50
     Davidson diagonalization with overlap
     ethr =  7.79E-06,  avg # of iterations =  7.9

     negative rho (up, down):  3.057E-02 0.000E+00

     total cpu time spent up to now is      224.1 secs

     total energy              =   -1842.87305308 Ry
     Harris-Foulkes estimate   =   -1842.87510018 Ry
     estimated scf accuracy    <       0.01045132 Ry

     iteration # 15     ecut=    60.00 Ry     beta= 0.50
     Davidson diagonalization with overlap
     c_bands:  1 eigenvalues not converged
     ethr =  4.60E-06,  avg # of iterations =  9.2

     negative rho (up, down):  3.355E-02 0.000E+00

     total cpu time spent up to now is      245.3 secs

     total energy              =   -1842.87231056 Ry
     Harris-Foulkes estimate   =   -1842.87317783 Ry
     estimated scf accuracy    <       0.00643524 Ry

     iteration # 16     ecut=    60.00 Ry     beta= 0.50
     Davidson diagonalization with overlap
     ethr =  2.83E-06,  avg # of iterations =  8.1

     negative rho (up, down):  2.870E-02 0.000E+00

     total cpu time spent up to now is      264.8 secs

     total energy              =   -1842.87087145 Ry
     Harris-Foulkes estimate   =   -1842.87239520 Ry
     estimated scf accuracy    <       0.00526969 Ry

     iteration # 17     ecut=    60.00 Ry     beta= 0.50
     Davidson diagonalization with overlap
     c_bands:  1 eigenvalues not converged
     ethr =  2.32E-06,  avg # of iterations = 10.1

     negative rho (up, down):  3.077E-02 0.000E+00

     total cpu time spent up to now is      286.7 secs

     total energy              =   -1842.87007554 Ry
     Harris-Foulkes estimate   =   -1842.87097022 Ry
     estimated scf accuracy    <       0.00736944 Ry

     iteration # 18     ecut=    60.00 Ry     beta= 0.50
     Davidson diagonalization with overlap
     ethr =  2.32E-06,  avg # of iterations =  9.2

     negative rho (up, down):  2.131E-02 0.000E+00

     total cpu time spent up to now is      308.5 secs

     total energy              =   -1842.86969224 Ry
     Harris-Foulkes estimate   =   -1842.87022117 Ry
     estimated scf accuracy    <       0.00124789 Ry

     iteration # 19     ecut=    60.00 Ry     beta= 0.50
     Davidson diagonalization with overlap
     ethr =  5.50E-07,  avg # of iterations =  6.5

     negative rho (up, down):  1.113E-02 0.000E+00

     total cpu time spent up to now is      327.0 secs

     total energy              =   -1842.86945220 Ry
     Harris-Foulkes estimate   =   -1842.86973311 Ry
     estimated scf accuracy    <       0.00125472 Ry

     iteration # 20     ecut=    60.00 Ry     beta= 0.50
     Davidson diagonalization with overlap
     ethr =  5.50E-07,  avg # of iterations =  7.4

     negative rho (up, down):  4.602E-03 0.000E+00

     total cpu time spent up to now is      346.2 secs

     total energy              =   -1842.86939601 Ry
     Harris-Foulkes estimate   =   -1842.86946825 Ry
     estimated scf accuracy    <       0.00043734 Ry

     iteration # 21     ecut=    60.00 Ry     beta= 0.50
     Davidson diagonalization with overlap
     c_bands:  1 eigenvalues not converged
     ethr =  1.93E-07,  avg # of iterations = 10.0

     negative rho (up, down):  2.686E-03 0.000E+00

     total cpu time spent up to now is      368.2 secs

     total energy              =   -1842.86940150 Ry
     Harris-Foulkes estimate   =   -1842.86940413 Ry
     estimated scf accuracy    <       0.00004339 Ry

     iteration # 22     ecut=    60.00 Ry     beta= 0.50
     Davidson diagonalization with overlap
     c_bands:  1 eigenvalues not converged
     c_bands:  2 eigenvalues not converged
     ethr =  1.91E-08,  avg # of iterations =  9.1

     negative rho (up, down):  1.528E-03 0.000E+00

     total cpu time spent up to now is      388.6 secs

     total energy              =   -1842.86941594 Ry
     Harris-Foulkes estimate   =   -1842.86940306 Ry
     estimated scf accuracy    <       0.00000947 Ry

     iteration # 23     ecut=    60.00 Ry     beta= 0.50
     Davidson diagonalization with overlap
     c_bands:  1 eigenvalues not converged
     ethr =  4.17E-09,  avg # of iterations =  9.2

     negative rho (up, down):  1.510E-03 0.000E+00

     total cpu time spent up to now is      409.9 secs

     total energy              =   -1842.86941614 Ry
     Harris-Foulkes estimate   =   -1842.86941681 Ry
     estimated scf accuracy    <       0.00000361 Ry

     iteration # 24     ecut=    60.00 Ry     beta= 0.50
     Davidson diagonalization with overlap
     ethr =  1.59E-09,  avg # of iterations =  1.7

     negative rho (up, down):  1.495E-03 0.000E+00

     total cpu time spent up to now is      423.6 secs

     total energy              =   -1842.86941662 Ry
     Harris-Foulkes estimate   =   -1842.86941642 Ry
     estimated scf accuracy    <       0.00000104 Ry

     iteration # 25     ecut=    60.00 Ry     beta= 0.50
     Davidson diagonalization with overlap
     ethr =  4.57E-10,  avg # of iterations =  2.8

     negative rho (up, down):  1.497E-03 0.000E+00

     total cpu time spent up to now is      439.4 secs

     total energy              =   -1842.86941687 Ry
     Harris-Foulkes estimate   =   -1842.86941678 Ry
     estimated scf accuracy    <       0.00000087 Ry

     iteration # 26     ecut=    60.00 Ry     beta= 0.50
     Davidson diagonalization with overlap
     ethr =  3.83E-10,  avg # of iterations =  1.1

     negative rho (up, down):  1.504E-03 0.000E+00

     total cpu time spent up to now is      452.5 secs

     total energy              =   -1842.86941688 Ry
     Harris-Foulkes estimate   =   -1842.86941689 Ry
     estimated scf accuracy    <       0.00000024 Ry

     iteration # 27     ecut=    60.00 Ry     beta= 0.50
     Davidson diagonalization with overlap
     ethr =  1.04E-10,  avg # of iterations =  1.6

     negative rho (up, down):  1.508E-03 0.000E+00

     total cpu time spent up to now is      465.9 secs

     total energy              =   -1842.86941687 Ry
     Harris-Foulkes estimate   =   -1842.86941689 Ry
     estimated scf accuracy    <       0.00000007 Ry

     iteration # 28     ecut=    60.00 Ry     beta= 0.50
     Davidson diagonalization with overlap
     ethr =  3.10E-11,  avg # of iterations =  2.9

     negative rho (up, down):  1.507E-03 0.000E+00

     total cpu time spent up to now is      480.6 secs

     total energy              =   -1842.86941688 Ry
     Harris-Foulkes estimate   =   -1842.86941688 Ry
     estimated scf accuracy    <       0.00000004 Ry

     iteration # 29     ecut=    60.00 Ry     beta= 0.50
     Davidson diagonalization with overlap
     ethr =  1.88E-11,  avg # of iterations =  1.1

     negative rho (up, down):  1.513E-03 0.000E+00

     total cpu time spent up to now is      493.1 secs

     End of self-consistent calculation

          k = 0.0000 0.0000 0.0000 ( 33829 PWs)   bands (ev):

   -35.3339 -35.3339 -22.3004 -22.3004 -22.2204 -22.1987 -16.8267 -16.8263
   -16.3897 -16.3897 -16.3721 -16.3721 -15.0035 -14.9999 -14.3776 -14.3046
   -14.2962 -14.2056 -14.2056 -13.7104 -13.7103 -13.5836 -13.5835 -13.5339
   -13.5331 -13.5274 -13.3826  -7.4312  -7.4250  -7.4038  -7.3680  -7.3680
    -7.3365  -7.2760  -7.2532  -7.2261  -7.2260  -7.1414  -7.1027  -2.0530
    -1.7660  -1.7659  -1.4990  -1.4989  -1.4444  -1.4435  -1.4117  -1.4100
    -1.3636  -1.3599  -1.1341  -1.1308  -0.7532  -0.6352  -0.5880  -0.4822
    -0.4822  -0.3719  -0.1480  -0.1480  -0.0684  -0.0684  -0.0651  -0.0639
    -0.0213  -0.0213   0.0415   0.0640   0.0640   0.1120   0.1813   0.2051
     0.2907   0.2908   0.3046   0.3053   0.3938   0.3952   0.3990   0.4026
     0.4163   0.4396   0.4442   0.4444   0.4886   0.4886   0.8588   0.8788
     0.8976   1.0703   1.1045   1.1573   1.1682   1.3763   1.3830   1.3844
     1.3851   1.5675   1.6404   1.6506   1.6508   1.7237   1.7848   1.8150
     1.8184   1.8294   1.8371   2.0641   2.1425   2.1644   2.2506   2.2519
     2.2572   2.2699   2.3209   2.3471   2.3783   2.4802   2.4912   5.2092
     5.2119   6.0795   6.4178   6.6570   7.1270   7.1321   7.5015   7.7311
     7.9325   7.9909   8.3789   8.5629   8.5816   8.7892   8.8571   9.0932
     9.4744

          k = 0.0000 0.1227 0.0000 ( 33882 PWs)   bands (ev):

   -35.3327 -35.3327 -22.2809 -22.2809 -22.2010 -22.1797 -16.7931 -16.7928
   -16.4619 -16.4619 -16.3705 -16.3705 -14.9054 -14.9023 -14.3430 -14.3124
   -14.3047 -14.1996 -14.1996 -13.7204 -13.7191 -13.6141 -13.6090 -13.5747
   -13.5559 -13.5557 -13.4417  -7.4424  -7.4375  -7.4185  -7.3476  -7.3467
    -7.3351  -7.2661  -7.2328  -7.1902  -7.1902  -7.1068  -7.0671  -2.0921
    -1.8482  -1.8474  -1.6631  -1.6504  -1.6471  -1.6377  -1.4700  -1.4699
    -1.3866  -1.3842  -1.1927  -1.1131  -1.0748  -0.9285  -0.9163  -0.7716
    -0.7314  -0.4187  -0.3225  -0.3185  -0.2711  -0.2710  -0.1932  -0.1816
    -0.0745  -0.0745  -0.0397  -0.0321  -0.0140   0.0053   0.0385   0.2041
     0.2564   0.2577   0.2693   0.2694   0.3290   0.3578   0.3850   0.3862
     0.4282   0.4827   0.4829   0.4835   0.5736   0.5754   1.0347   1.0679
     1.0705   1.2508   1.2854   1.3165   1.3201   1.3872   1.3913   1.4530
     1.4942   1.5028   1.5029   1.6539   1.7248   1.7414   1.8028   1.8308
     1.8562   1.8827   2.0210   2.0298   2.1041   2.1345   2.1939   2.2149
     2.2500   2.3153   2.4149   2.6088   2.6890   2.7050   2.9440   5.5081
     5.5088   6.3699   6.6846   6.8408   7.3788   7.3824   7.7763   7.8966
     8.1456   8.1636   8.5579   8.7053   8.7743   8.9988   9.0493   9.2697
     9.5544

          k = 0.0000 0.2454 0.0000 ( 33972 PWs)   bands (ev):

   -35.3297 -35.3297 -22.2329 -22.2329 -22.1532 -22.1330 -16.7074 -16.7072
   -16.6131 -16.6131 -16.3667 -16.3667 -14.6747 -14.6725 -14.3684 -14.3642
   -14.2479 -14.1939 -14.1916 -13.7850 -13.7608 -13.6973 -13.6601 -13.6396
   -13.5831 -13.5824 -13.5773  -7.4415  -7.4377  -7.4254  -7.3270  -7.3258
    -7.3226  -7.2515  -7.2062  -7.1009  -7.1009  -7.0207  -6.9781  -2.3667
    -2.2862  -2.2685  -2.1620  -2.0637  -1.9127  -1.9127  -1.8978  -1.6333
    -1.6331  -1.3875  -1.3875  -1.3070  -1.3027  -1.2924  -1.0897  -1.0061
    -0.7550  -0.7063  -0.6596  -0.5482  -0.5169  -0.5153  -0.4587  -0.4129
    -0.3323  -0.2900  -0.2636  -0.2494  -0.2256  -0.2255  -0.1859  -0.0215
    -0.0215   0.1694   0.2009   0.2189   0.3534   0.4375   0.4424   0.4469
     0.4472   0.5365   0.6367   0.6459   0.7941   0.7999   1.1793   1.1920
     1.1990   1.2292   1.2411   1.3763   1.4564   1.5425   1.5576   1.5622
     1.5637   1.6111   1.7231   1.7453   1.8136   1.8907   1.8946   1.8961
     1.9447   2.0373   2.0526   2.1152   2.1692   2.2254   2.2550   2.2589
     2.2638   2.3591   2.5103   2.7682   3.1428   3.1483   3.8239   6.2646
     6.2646   7.0469   7.3781   7.3928   8.0447   8.0537   8.3992   8.5014
     8.6779   8.7384   8.8540   9.0220   9.1255   9.3113   9.4220   9.6941
     9.7783

          k = 0.0000 0.3682 0.0000 ( 33938 PWs)   bands (ev):

   -35.3267 -35.3267 -22.1837 -22.1837 -22.1041 -22.0852 -16.7436 -16.7436
   -16.6132 -16.6131 -16.3628 -16.3628 -14.5055 -14.5042 -14.3972 -14.3786
   -14.2095 -14.1966 -14.1182 -13.9176 -13.8498 -13.7519 -13.7329 -13.6921
   -13.6827 -13.5717 -13.5715  -7.4142  -7.4102  -7.4042  -7.3324  -7.3320
    -7.2980  -7.2514  -7.2028  -7.0071  -7.0070  -6.9305  -6.8848  -2.8429
    -2.7073  -2.7004  -2.5819  -2.5602  -2.4744  -2.4743  -1.9998  -1.7386
    -1.7386  -1.5756  -1.2890  -1.2641  -1.2640  -1.2601  -1.1702  -1.1630
    -0.8944  -0.7814  -0.7687  -0.7676  -0.7613  -0.7191  -0.7156  -0.6406
    -0.5450  -0.5024  -0.4278  -0.4073  -0.4034  -0.4034  -0.3801  -0.2339
    -0.2339   0.1139   0.1656   0.1918   0.1981   0.4471   0.4481   0.4831
     0.4831   0.5574   0.6493   0.6569   0.9247   0.9343   1.1430   1.2227
     1.2701   1.2913   1.4106   1.4109   1.4288   1.4293   1.4815   1.5524
     1.5528   1.6946   1.8451   1.8757   1.9502   2.0136   2.0517   2.0788
     2.1330   2.1702   2.2378   2.2574   2.2621   2.3582   2.3590   2.4707
     2.5684   2.6107   2.6107   2.7536   3.2625   3.2682   4.4405   7.1791
     7.1792   7.7029   8.2090   8.2267   8.6953   8.8408   8.8516   8.9971
     9.0474   9.2262   9.3282   9.5244   9.5519   9.5600   9.5886   9.5887
     9.8926

          k = 0.0000-0.4909 0.0000 ( 33874 PWs)   bands (ev):

   -35.3254 -35.3254 -22.1629 -22.1629 -22.0834 -22.0651 -16.7932 -16.7932
   -16.5713 -16.5712 -16.3612 -16.3612 -14.5465 -14.5421 -14.3358 -14.2995
   -14.1110 -14.1021 -14.0929 -14.0536 -13.9042 -13.8365 -13.7861 -13.7093
   -13.6885 -13.5575 -13.5572  -7.3929  -7.3749  -7.3722  -7.3588  -7.3588
    -7.2712  -7.2682  -7.2095  -6.9668  -6.9668  -6.8918  -6.8447  -3.0521
    -2.8745  -2.8713  -2.7483  -2.7364  -2.6858  -2.6848  -2.0179  -1.7547
    -1.7547  -1.6861  -1.3893  -1.3694  -1.1664  -1.1661  -1.0306  -1.0220
    -0.9667  -0.9261  -0.9248  -0.8855  -0.8588  -0.8331  -0.7606  -0.7286
    -0.6242  -0.5923  -0.5071  -0.4840  -0.4840  -0.4147  -0.3982  -0.3090
    -0.3089   0.0858   0.1087   0.1441   0.2111   0.4669   0.4669   0.4933
     0.4934   0.5612   0.5652   0.5783   0.9453   0.9872   1.0648   1.2279
     1.2959   1.3168   1.3416   1.3422   1.4911   1.5432   1.5432   1.6131
     1.6149   1.6765   1.8703   1.8723   1.9734   1.9737   2.1552   2.1667
     2.1907   2.2273   2.2477   2.2623   2.3907   2.5270   2.5914   2.5935
     2.5937   2.6285   2.7510   2.7510   3.2196   3.2259   4.6438   7.7222
     7.7222   8.0827   8.4741   8.7974   8.8572   8.8840   8.9219   9.1469
     9.1574   9.3040   9.3997   9.5318   9.5320   9.5390   9.7834   9.9153
    10.2556

          k = 0.1250 0.0000 0.0000 ( 33815 PWs)   bands (ev):

   -35.3324 -35.3324 -22.2779 -22.2779 -22.1975 -22.1771 -16.7911 -16.7909
   -16.4471 -16.4471 -16.3878 -16.3878 -14.9062 -14.9036 -14.3976 -14.2942
   -14.2937 -14.2399 -14.2398 -13.7151 -13.7147 -13.6300 -13.6251 -13.5731
   -13.5349 -13.5345 -13.3933  -7.4582  -7.4575  -7.4159  -7.4007  -7.3280
    -7.3280  -7.2363  -7.2235  -7.2235  -7.2141  -7.1262  -7.1034  -2.0787
    -1.8936  -1.8911  -1.7472  -1.7251  -1.7112  -1.7039  -1.4176  -1.4169
    -1.3421  -1.3384  -1.0553  -1.0466  -0.7981  -0.6640  -0.6274  -0.5281
    -0.5281  -0.4361  -0.2606  -0.2605  -0.1989  -0.1793  -0.1784  -0.1640
    -0.0084   0.0160   0.0484   0.0652   0.0652   0.0992   0.1689   0.2215
     0.2653   0.2695   0.3324   0.3324   0.3353   0.3801   0.4327   0.4510
     0.4789   0.4809   0.4821   0.4821   0.5413   0.5571   0.8026   0.8388
     0.8441   1.1386   1.1502   1.2351   1.2443   1.3422   1.3471   1.3785
     1.3883   1.4128   1.4436   1.6239   1.6601   1.6712   1.7954   1.8042
     1.8325   1.8450   1.9699   2.0592   2.1491   2.1818   2.1916   2.2161
     2.2572   2.2899   2.3948   2.4021   2.4283   2.4751   2.5533   5.3828
     5.3836   6.3443   6.6991   6.8443   7.3694   7.3716   7.7442   7.9003
     8.1630   8.1848   8.5590   8.7873   8.8286   9.0516   9.1265   9.3007
     9.6732

          k = 0.1250 0.1227 0.0000 ( 33883 PWs)   bands (ev):

   -35.3311 -35.3311 -22.2592 -22.2592 -22.1788 -22.1588 -16.7586 -16.7584
   -16.4662 -16.4662 -16.4357 -16.4357 -14.8137 -14.8116 -14.3580 -14.3015
   -14.2998 -14.2237 -14.2234 -13.7211 -13.7210 -13.6497 -13.6495 -13.6164
   -13.5519 -13.5516 -13.4439  -7.4499  -7.4498  -7.4328  -7.4327  -7.4120
    -7.4069  -7.3211  -7.3172  -7.1303  -7.1303  -7.0268  -7.0181  -2.1127
    -1.9326  -1.9264  -1.7530  -1.7286  -1.7156  -1.6942  -1.6312  -1.6306
    -1.6113  -1.6064  -1.2040  -1.0812  -1.0381  -0.9509  -0.9045  -0.7870
    -0.7589  -0.4663  -0.4532  -0.4162  -0.3826  -0.3702  -0.3310  -0.3233
    -0.1590  -0.1440  -0.0752  -0.0084  -0.0043   0.0654   0.1491   0.1811
     0.1922   0.2457   0.2479   0.2510   0.2823   0.2997   0.3996   0.4129
     0.4212   0.4718   0.5565   0.5648   0.7014   0.7157   1.0353   1.0512
     1.0702   1.2498   1.3438   1.4027   1.4159   1.4486   1.4517   1.4878
     1.4891   1.5097   1.5333   1.5410   1.5775   1.6170   1.6209   1.7704
     1.8991   1.8991   1.9184   1.9597   1.9710   2.0702   2.2563   2.5082
     2.5490   2.5710   2.6500   2.7245   2.7251   2.7328   2.9847   5.6474
     5.6476   6.5725   6.9161   7.0019   7.6078   7.6111   8.0123   8.0680
     8.3378   8.3928   8.7298   8.9126   8.9514   9.2129   9.2521   9.4471
     9.6436

          k = 0.1250 0.2454 0.0000 ( 33900 PWs)   bands (ev):

   -35.3282 -35.3282 -22.2131 -22.2131 -22.1329 -22.1139 -16.6756 -16.6755
   -16.6083 -16.6083 -16.4347 -16.4347 -14.5973 -14.5958 -14.3447 -14.3382
   -14.2551 -14.1928 -14.1902 -13.7661 -13.7547 -13.7203 -13.6995 -13.6715
   -13.5739 -13.5734 -13.5656  -7.5214  -7.5213  -7.4596  -7.4257  -7.4162
    -7.4161  -7.3508  -7.3395  -7.0821  -7.0821  -6.9825  -6.9632  -2.3805
    -2.3152  -2.2762  -2.1692  -2.0597  -1.9101  -1.8981  -1.8981  -1.7376
    -1.7364  -1.6502  -1.6427  -1.6151  -1.6027  -1.2745  -1.0445  -0.9941
    -0.7865  -0.7660  -0.7525  -0.6867  -0.6755  -0.6666  -0.6142  -0.5119
    -0.4055  -0.2968  -0.2713  -0.2412  -0.2395  -0.1725  -0.1345  -0.0407
    -0.0393   0.1221   0.2093   0.2361   0.2503   0.2930   0.4438   0.4961
     0.5451   0.5676   0.7713   0.7854   0.9850   1.0145   1.0680   1.2652
     1.2787   1.3512   1.3515   1.4651   1.4665   1.4691   1.6345   1.6538
     1.6652   1.6867   1.6927   1.7073   1.7925   1.7962   1.8343   1.8570
     1.9088   1.9330   1.9483   1.9695   2.2313   2.2322   2.3210   2.5198
     2.8327   2.8458   2.9849   3.0269   3.1521   3.1604   3.8315   6.3517
     6.3518   7.0840   7.5024   7.5035   8.2252   8.2381   8.5790   8.7276
     8.8504   8.8601   9.0227   9.1369   9.1872   9.3457   9.3841   9.4353
     9.5322

          k = 0.1250 0.3682 0.0000 ( 33939 PWs)   bands (ev):

   -35.3252 -35.3252 -22.1659 -22.1659 -22.0859 -22.0680 -16.7366 -16.7366
   -16.5846 -16.5845 -16.4289 -16.4289 -14.4622 -14.4607 -14.3436 -14.3212
   -14.1701 -14.1640 -14.1032 -13.8813 -13.8319 -13.7534 -13.7394 -13.7177
   -13.7001 -13.5690 -13.5690  -7.5157  -7.5157  -7.4482  -7.4143  -7.3952
    -7.3951  -7.3309  -7.3272  -7.1193  -7.1193  -7.0156  -7.0019  -2.8418
    -2.7503  -2.7313  -2.6074  -2.5822  -2.4626  -2.4626  -2.0128  -1.7815
    -1.7810  -1.6310  -1.6229  -1.5510  -1.4961  -1.4485  -1.1986  -1.1901
    -1.0928  -1.0839  -0.9714  -0.9527  -0.8270  -0.7707  -0.7128  -0.6118
    -0.5916  -0.4867  -0.4506  -0.3608  -0.3578  -0.2786  -0.2626  -0.2546
    -0.2517   0.0707   0.1972   0.2269   0.2388   0.2987   0.4545   0.5192
     0.5363   0.5498   0.8945   0.9118   1.0061   1.1787   1.1817   1.3227
     1.3353   1.3463   1.4234   1.4392   1.5192   1.5238   1.6089   1.6575
     1.6589   1.7691   1.8337   1.8369   1.9297   2.0260   2.0339   2.0677
     2.0788   2.2515   2.2530   2.3541   2.3575   2.5478   2.5896   2.5896
     2.8945   2.9028   3.0764   3.1086   3.2927   3.3054   4.4287   7.1868
     7.1869   7.4885   8.1667   8.1898   8.7016   8.7765   8.7789   8.9769
     9.0692   9.3348   9.3475   9.4491   9.5446   9.6534   9.7563   9.8065
    10.0484

          k = 0.1250-0.4909 0.0000 ( 33894 PWs)   bands (ev):

   -35.3240 -35.3240 -22.1460 -22.1460 -22.0660 -22.0487 -16.7856 -16.7856
   -16.5442 -16.5442 -16.4265 -16.4264 -14.4978 -14.4937 -14.2919 -14.2584
   -14.0674 -14.0398 -14.0325 -14.0262 -13.8819 -13.8339 -13.7617 -13.7451
   -13.7266 -13.5596 -13.5595  -7.4811  -7.4811  -7.4059  -7.3964  -7.3943
    -7.3911  -7.3365  -7.3201  -7.1576  -7.1575  -7.0505  -7.0437  -3.0488
    -2.9221  -2.9119  -2.7799  -2.7637  -2.6830  -2.6828  -2.0353  -1.7922
    -1.7919  -1.5837  -1.5761  -1.5753  -1.4160  -1.3962  -1.2920  -1.2914
    -1.2198  -1.2136  -1.1111  -1.0652  -0.8840  -0.8029  -0.7611  -0.6834
    -0.5947  -0.5569  -0.5377  -0.4087  -0.4071  -0.3321  -0.3314  -0.2824
    -0.2593   0.0566   0.1878   0.2159   0.2406   0.3000   0.4556   0.5317
     0.5393   0.5413   0.8709   0.8741   1.0485   1.1642   1.2244   1.2310
     1.3436   1.3511   1.4564   1.4574   1.5654   1.5889   1.6336   1.6376
     1.6549   1.7789   1.9128   1.9224   1.9329   2.1669   2.1767   2.1785
     2.1996   2.2253   2.3887   2.5760   2.5768   2.5768   2.7358   2.7358
     2.8718   2.8775   3.0558   3.0766   3.2691   3.2854   4.6235   7.6186
     7.6217   7.6305   8.4362   8.4639   8.6348   8.9360   8.9438   8.9441
     9.0771   9.4006   9.4787   9.6110   9.9273   9.9995  10.0506  10.1065
    10.4031

          k = 0.2500 0.0000 0.0000 ( 33864 PWs)   bands (ev):

   -35.3287 -35.3287 -22.2225 -22.2224 -22.1409 -22.1240 -16.7006 -16.7005
   -16.6050 -16.6050 -16.3831 -16.3831 -14.6774 -14.6766 -14.4804 -14.3723
   -14.3707 -14.2384 -14.2325 -13.7682 -13.7570 -13.7537 -13.7055 -13.6346
   -13.5323 -13.5323 -13.4096  -7.5263  -7.5032  -7.5011  -7.3790  -7.2442
    -7.2441  -7.2280  -7.2280  -7.1762  -7.1369  -7.1163  -7.0996  -2.4385
    -2.4325  -2.3340  -2.3019  -2.0010  -1.7792  -1.7792  -1.3412  -1.3408
    -1.2730  -1.2697  -1.1293  -1.1209  -0.9301  -0.7528  -0.7363  -0.6848
    -0.6612  -0.6612  -0.5678  -0.4921  -0.4918  -0.4059  -0.4048  -0.3350
    -0.2346  -0.1815  -0.0307  -0.0111   0.0722   0.0722   0.1440   0.2179
     0.2821   0.3097   0.3777   0.3777   0.4525   0.4666   0.4667   0.4825
     0.5179   0.5370   0.5896   0.6107   0.6928   0.7743   0.7870   0.8678
     0.8727   1.1284   1.1601   1.2109   1.2710   1.2782   1.3097   1.3235
     1.3958   1.4002   1.5454   1.5603   1.7030   1.7033   1.7151   1.7252
     1.8136   1.8796   1.9993   2.0437   2.0615   2.0653   2.0779   2.1730
     2.2043   2.2359   2.2928   2.5802   2.5840   2.7571   2.7818   5.8229
     5.8230   6.8599   7.4303   7.4426   8.0012   8.0049   8.4092   8.4195
     8.6742   8.8048   9.0263   9.1803   9.3506   9.6189   9.6746   9.6765
     9.6960

          k = 0.2500 0.1227 0.0000 ( 33922 PWs)   bands (ev):

   -35.3275 -35.3275 -22.2056 -22.2056 -22.1242 -22.1075 -16.6707 -16.6706
   -16.6013 -16.6013 -16.4476 -16.4476 -14.5995 -14.5982 -14.4326 -14.3454
   -14.3418 -14.2200 -14.2136 -13.7781 -13.7759 -13.7525 -13.7092 -13.6553
   -13.5384 -13.5384 -13.4426  -7.5514  -7.5505  -7.5443  -7.4260  -7.4257
    -7.4165  -7.3713  -7.3233  -7.1212  -7.1211  -7.0125  -7.0084  -2.4644
    -2.4551  -2.3438  -2.3066  -2.0024  -1.8026  -1.8024  -1.5942  -1.5893
    -1.5547  -1.5399  -1.2500  -1.1640  -1.1221  -1.0298  -0.9382  -0.9051
    -0.8291  -0.7661  -0.7428  -0.7043  -0.6975  -0.5292  -0.5159  -0.3551
    -0.3013  -0.2544  -0.1903  -0.1825  -0.0930  -0.0563  -0.0406   0.1228
     0.1636   0.2121   0.2129   0.2227   0.2903   0.3553   0.5214   0.5326
     0.6564   0.6729   0.7330   0.7745   0.9163   1.0165   1.0179   1.0823
     1.1102   1.1523   1.3102   1.3142   1.3519   1.3640   1.4764   1.5010
     1.5190   1.5777   1.6233   1.6360   1.6772   1.6832   1.7580   1.7652
     1.7974   1.8230   1.8836   1.9744   1.9829   2.0178   2.2278   2.4950
     2.6698   2.6806   2.8315   2.9033   2.9583   3.0483   3.1503   6.0321
     6.0321   6.9321   7.5388   7.5422   8.1827   8.1905   8.5826   8.6649
     8.8575   8.9576   9.1604   9.2024   9.2979   9.4491   9.4863   9.5592
     9.6010

          k = 0.2500 0.2454 0.0000 ( 33921 PWs)   bands (ev):

   -35.3246 -35.3246 -22.1644 -22.1644 -22.0830 -22.0671 -16.6110 -16.6110
   -16.5940 -16.5939 -16.5693 -16.5693 -14.4296 -14.4275 -14.3279 -14.2829
   -14.2477 -14.1765 -14.1686 -13.8311 -13.8297 -13.7233 -13.7157 -13.7062
   -13.5490 -13.5488 -13.5351  -7.7317  -7.7317  -7.6447  -7.6422  -7.4515
    -7.4514  -7.4216  -7.3721  -7.2052  -7.2052  -7.0923  -7.0853  -2.6526
    -2.6319  -2.4671  -2.4104  -2.0865  -2.0792  -2.0783  -2.0021  -2.0012
    -1.9195  -1.8358  -1.8357  -1.6787  -1.6785  -1.2648  -1.1817  -1.1817
    -1.1051  -1.0868  -0.9980  -0.9184  -0.7448  -0.7033  -0.6514  -0.5087
    -0.4861  -0.4379  -0.4358  -0.3368  -0.3026  -0.2044  -0.1955  -0.0894
    -0.0894  -0.0702  -0.0379   0.2537   0.3420   0.4063   0.6510   0.6843
     0.8167   0.8834   0.9186   1.0541   1.0751   1.3041   1.3213   1.3880
     1.4272   1.4466   1.4718   1.4992   1.5254   1.5515   1.6128   1.6551
     1.7479   1.7518   1.7938   1.8467   1.8507   1.8953   1.9224   1.9349
     1.9551   1.9862   2.0268   2.0291   2.1577   2.1577   2.3938   2.5526
     3.1341   3.1378   3.4837   3.4873   3.6041   3.6151   3.8554   6.5789
     6.5789   6.9753   7.7925   7.8077   8.5027   8.5075   8.9368   8.9838
     9.0706   9.1221   9.3347   9.4090   9.4183   9.4430   9.6488   9.7658
     9.7945

          k = 0.2500 0.3682 0.0000 ( 33941 PWs)   bands (ev):

   -35.3216 -35.3216 -22.1223 -22.1223 -22.0411 -22.0259 -16.7200 -16.7200
   -16.5742 -16.5742 -16.5121 -16.5120 -14.3557 -14.3541 -14.2302 -14.1935
   -14.0926 -14.0825 -14.0508 -13.8536 -13.8530 -13.7834 -13.7692 -13.7071
   -13.6692 -13.5550 -13.5550  -7.8045  -7.8045  -7.7202  -7.6977  -7.4527
    -7.4526  -7.4399  -7.4175  -7.4128  -7.4124  -7.2739  -7.2717  -3.0258
    -2.9979  -2.8422  -2.7659  -2.6507  -2.4311  -2.4310  -2.1950  -2.1949
    -2.1166  -2.1008  -1.9753  -1.7375  -1.7374  -1.5539  -1.5195  -1.4403
    -1.3630  -1.1712  -0.9740  -0.9334  -0.8202  -0.7758  -0.7388  -0.6740
    -0.5738  -0.5729  -0.5615  -0.4512  -0.4218  -0.3217  -0.3065  -0.2963
    -0.2906  -0.0993  -0.0894   0.3098   0.4089   0.4186   0.6769   0.7135
     0.8716   1.0080   1.0615   1.3171   1.3298   1.4284   1.4419   1.4862
     1.5038   1.5881   1.6042   1.6468   1.6881   1.7278   1.8164   1.8532
     1.9058   1.9443   1.9499   1.9672   1.9900   2.0491   2.1010   2.1182
     2.1380   2.2289   2.3358   2.3538   2.3748   2.5292   2.5293   2.5738
     3.2193   3.2230   3.8518   3.8535   3.9696   3.9772   4.3912   6.8479
     7.0584   7.0601   7.8660   7.8974   8.6097   8.6101   9.0336   9.1368
     9.3113   9.4643   9.7684   9.8520   9.9069  10.0921  10.1371  10.1790
    10.2141

          k = 0.2500-0.4909 0.0000 ( 33990 PWs)   bands (ev):

   -35.3204 -35.3204 -22.1046 -22.1046 -22.0234 -22.0086 -16.7675 -16.7675
   -16.5706 -16.5706 -16.4755 -16.4755 -14.3702 -14.3670 -14.1813 -14.1591
   -14.0045 -13.9558 -13.8841 -13.8828 -13.8467 -13.8389 -13.8325 -13.8100
   -13.7051 -13.5574 -13.5574  -7.7675  -7.7674  -7.6736  -7.6337  -7.5875
    -7.5769  -7.5755  -7.4723  -7.4388  -7.4385  -7.3676  -7.3144  -3.1992
    -3.1660  -3.0347  -2.9400  -2.8580  -2.6636  -2.6636  -2.2047  -2.2037
    -2.1306  -2.0944  -1.9749  -1.7443  -1.7442  -1.6849  -1.6471  -1.5342
    -1.4588  -1.1752  -0.9746  -0.9326  -0.8668  -0.8322  -0.7887  -0.7475
    -0.5958  -0.5905  -0.5904  -0.5092  -0.4459  -0.3707  -0.3698  -0.3357
    -0.3136  -0.1039  -0.0985   0.3273   0.4263   0.4303   0.6860   0.7222
     0.8837   1.0376   1.2308   1.3435   1.3490   1.4917   1.4932   1.4962
     1.6157   1.6291   1.6318   1.6757   1.7738   1.7904   1.8016   1.8051
     1.8717   2.0158   2.0762   2.0803   2.0884   2.1664   2.2006   2.2313
     2.2593   2.2787   2.3604   2.5497   2.5527   2.5619   2.6854   2.6854
     3.1751   3.1794   3.9459   3.9477   4.0654   4.0755   4.5604   6.7633
     7.1664   7.1672   7.8228   7.8647   8.8856   8.8858   9.0505   9.2792
     9.3126   9.5202   9.9619  10.1389  10.2631  10.2660  10.2682  10.2861
    10.2871

          k = 0.3750 0.0000 0.0000 ( 33754 PWs)   bands (ev):

   -35.3250 -35.3250 -22.1653 -22.1653 -22.0827 -22.0695 -16.7418 -16.7418
   -16.6016 -16.6015 -16.3785 -16.3785 -14.5971 -14.5350 -14.5343 -14.3840
   -14.3687 -14.2363 -14.1922 -13.8987 -13.8308 -13.8238 -13.7895 -13.6888
   -13.5247 -13.5242 -13.4157  -7.5765  -7.5148  -7.5143  -7.3504  -7.2954
    -7.2954  -7.2218  -7.1507  -7.1224  -7.1224  -7.0320  -7.0133  -2.8897
    -2.8879  -2.7708  -2.7613  -2.0136  -1.8063  -1.8063  -1.3157  -1.3008
    -1.2270  -1.2266  -1.1527  -1.1506  -1.0455  -0.9543  -0.8848  -0.8722
    -0.8671  -0.8241  -0.8238  -0.7419  -0.7415  -0.6325  -0.6324  -0.4071
    -0.2773  -0.2737  -0.1629  -0.1440   0.0853   0.0853   0.1263   0.1930
     0.2265   0.3098   0.3968   0.3968   0.4397   0.4461   0.4461   0.4810
     0.5243   0.5606   0.5812   0.7106   0.7133   0.7662   0.7677   0.9248
     0.9462   1.0646   1.1570   1.1640   1.2863   1.3798   1.3971   1.4270
     1.4437   1.4848   1.5048   1.5529   1.7320   1.7363   1.7706   1.7959
     1.8746   1.9489   1.9835   2.0215   2.0299   2.0623   2.0839   2.1812
     2.1883   2.1905   2.3023   2.5801   2.6351   2.8541   2.8831   6.4834
     6.4834   7.2503   8.3099   8.3147   8.3710   8.3715   9.1097   9.1232
     9.2082   9.2944   9.4329   9.4384   9.4997   9.5004   9.7218   9.8117
    10.0685

          k = 0.3750 0.1227 0.0000 ( 33918 PWs)   bands (ev):

   -35.3238 -35.3238 -22.1506 -22.1505 -22.0679 -22.0549 -16.7359 -16.7359
   -16.5748 -16.5748 -16.4408 -16.4408 -14.5369 -14.4872 -14.4861 -14.3149
   -14.2969 -14.2027 -14.1634 -13.8688 -13.8554 -13.8546 -13.7779 -13.6821
   -13.5223 -13.5219 -13.4341  -7.5925  -7.5590  -7.5589  -7.4276  -7.4274
    -7.4214  -7.3406  -7.3143  -7.1951  -7.1951  -7.0902  -7.0834  -2.9351
    -2.9321  -2.7991  -2.7871  -2.0260  -1.8282  -1.8281  -1.5201  -1.5053
    -1.4498  -1.4253  -1.2853  -1.2520  -1.2093  -1.1125  -1.0810  -1.0744
    -1.0309  -1.0161  -1.0110  -1.0044  -0.8703  -0.7632  -0.6694  -0.3920
    -0.3488  -0.3400  -0.2218  -0.2180  -0.1340  -0.1274  -0.1266   0.0959
     0.1199   0.1539   0.1568   0.2051   0.2854   0.4677   0.5537   0.5792
     0.7232   0.7383   0.7552   0.9155   0.9482   1.0285   1.0512   1.0603
     1.1544   1.1860   1.2707   1.2752   1.4500   1.4582   1.4729   1.5308
     1.5509   1.6120   1.6449   1.6462   1.8154   1.8288   1.8346   1.8437
     1.8894   1.9016   2.0075   2.0742   2.0844   2.1171   2.1202   2.4109
     2.6735   2.6784   2.8449   2.9358   3.0217   3.1677   3.2718   6.6323
     6.6324   7.1107   8.2300   8.2344   8.3157   8.3162   8.9754   9.0357
     9.3071   9.4536   9.5155   9.5872   9.6105   9.6295   9.7994   9.9147
     9.9191

          k = 0.3750 0.2454 0.0000 ( 33975 PWs)   bands (ev):

   -35.3209 -35.3209 -22.1145 -22.1144 -22.0319 -22.0192 -16.7219 -16.7219
   -16.5777 -16.5777 -16.5069 -16.5068 -14.3755 -14.3647 -14.3582 -14.1578
   -14.1293 -14.1237 -14.0993 -13.9328 -13.9304 -13.7915 -13.7353 -13.6685
   -13.5231 -13.5230 -13.5004  -7.8107  -7.8107  -7.7338  -7.7156  -7.4996
    -7.4978  -7.4930  -7.4375  -7.4374  -7.4090  -7.3230  -7.2969  -3.1245
    -3.1161  -2.9242  -2.9025  -2.1290  -2.1099  -2.0904  -2.0165  -2.0036
    -1.9010  -1.7904  -1.7900  -1.7089  -1.7088  -1.5422  -1.5360  -1.4036
    -1.3884  -1.2095  -1.0248  -0.9974  -0.7296  -0.7139  -0.6375  -0.5828
    -0.5668  -0.5082  -0.5069  -0.4146  -0.4051  -0.2554  -0.2522  -0.1551
    -0.1542  -0.0735  -0.0694   0.3312   0.4229   0.5899   0.7997   0.8317
     0.9616   0.9964   1.0378   1.2192   1.2910   1.3384   1.3828   1.3880
     1.4372   1.4481   1.5658   1.5853   1.5971   1.6095   1.8155   1.8666
     1.9208   1.9228   1.9635   1.9688   1.9766   1.9795   2.0242   2.0373
     2.0466   2.0635   2.0905   2.1107   2.1479   2.1562   2.3501   2.4504
     3.1290   3.1331   3.7851   3.8104   3.8309   3.9425   3.9868   6.6946
     6.8497   6.8515   7.8842   7.8859   8.2855   8.2862   9.2012   9.2014
     9.5339   9.7698   9.8885   9.9032   9.9612   9.9885  10.0350  10.0760
    10.0863

          k = 0.3750 0.3682 0.0000 ( 34028 PWs)   bands (ev):

   -35.3180 -35.3180 -22.0777 -22.0777 -21.9953 -21.9829 -16.7128 -16.7128
   -16.6956 -16.6956 -16.4337 -16.4336 -14.2409 -14.2389 -14.1489 -14.1023
   -14.0753 -13.9881 -13.9561 -13.9412 -13.9346 -13.7299 -13.7186 -13.6670
   -13.6333 -13.5371 -13.5371  -8.0095  -8.0095  -7.9432  -7.8939  -7.7638
    -7.7637  -7.7055  -7.6034  -7.5270  -7.4925  -7.4913  -7.3457  -3.4442
    -3.4292  -3.1890  -3.1542  -2.6506  -2.4042  -2.4042  -2.3647  -2.3646
    -2.3006  -2.2969  -2.0080  -1.8529  -1.8421  -1.7508  -1.7503  -1.6073
    -1.5898  -1.2113  -0.9101  -0.8894  -0.8197  -0.8160  -0.7160  -0.7071
    -0.6643  -0.6636  -0.5922  -0.5567  -0.5009  -0.4547  -0.3811  -0.3632
    -0.3599  -0.0313  -0.0308   0.4193   0.5296   0.6281   0.8927   0.9609
     1.1627   1.2740   1.3307   1.5168   1.5349   1.5482   1.5911   1.5991
     1.6076   1.6971   1.7661   1.7787   1.8542   1.8599   1.9361   2.0580
     2.0970   2.1043   2.1488   2.1552   2.1925   2.2204   2.2830   2.2830
     2.3075   2.3405   2.3720   2.3788   2.3954   2.4519   2.4520   2.6298
     3.2115   3.2176   4.3382   4.4761   4.4765   4.5626   4.5642   6.2497
     6.7111   6.7121   7.5160   7.5407   8.7740   8.7742   9.3173   9.4759
     9.6932   9.7467   9.8441   9.8740   9.9862  10.0749  10.1208  10.2243
    10.2317

          k = 0.3750-0.4909 0.0000 ( 34074 PWs)   bands (ev):

   -35.3168 -35.3168 -22.0623 -22.0623 -21.9799 -21.9677 -16.7497 -16.7497
   -16.7005 -16.7005 -16.4014 -16.4014 -14.2171 -14.2154 -14.0788 -14.0746
   -13.9574 -13.9555 -13.9232 -13.8693 -13.8183 -13.8013 -13.7388 -13.7346
   -13.6567 -13.5496 -13.5496  -8.0439  -8.0439  -7.9483  -7.9408  -7.9275
    -7.9273  -7.9207  -7.7302  -7.5374  -7.4983  -7.4961  -7.3531  -3.6023
    -3.5847  -3.3396  -3.2992  -2.8785  -2.6366  -2.6366  -2.4307  -2.4307
    -2.3589  -2.3586  -2.0208  -1.9558  -1.9428  -1.7455  -1.7455  -1.6760
    -1.6562  -1.2043  -0.9065  -0.8967  -0.8440  -0.8439  -0.8057  -0.7452
    -0.7435  -0.6973  -0.5943  -0.5888  -0.5647  -0.5254  -0.4385  -0.4376
    -0.3590  -0.0058  -0.0056   0.4402   0.5559   0.6384   0.9217   1.0037
     1.2076   1.4500   1.4546   1.5532   1.5611   1.6625   1.6773   1.6828
     1.7162   1.7804   1.8116   1.8434   1.9565   2.0112   2.0126   2.1088
     2.1186   2.1231   2.1523   2.1999   2.2953   2.3099   2.3771   2.3778
     2.4978   2.5019   2.5190   2.5596   2.5613   2.6181   2.6181   2.6420
     3.1676   3.1753   4.4689   4.6993   4.6995   4.7778   4.7804   6.0659
     6.5801   6.5806   7.3735   7.4259   9.1530   9.1632   9.1960   9.4918
     9.7023   9.7035   9.7504   9.8685  10.0787  10.0868  10.1112  10.1735
    10.3462

          k =-0.5000 0.0000 0.0000 ( 33842 PWs)   bands (ev):

   -35.3235 -35.3235 -22.1412 -22.1411 -22.0580 -22.0464 -16.7941 -16.7941
   -16.5575 -16.5575 -16.3765 -16.3765 -14.6509 -14.5840 -14.5769 -14.2653
   -14.2291 -14.2288 -14.1788 -13.9839 -13.8854 -13.8380 -13.8376 -13.7257
   -13.5209 -13.5200 -13.4161  -7.5853  -7.5057  -7.5050  -7.3336  -7.3294
    -7.3294  -7.2429  -7.1844  -7.0768  -7.0768  -6.9868  -6.9689  -3.0618
    -3.0605  -2.9429  -2.9361  -2.0054  -1.8108  -1.8108  -1.4009  -1.3875
    -1.1445  -1.1438  -1.1008  -1.0529  -1.0065  -1.0006  -1.0003  -0.9776
    -0.9757  -0.9190  -0.9170  -0.8802  -0.8801  -0.7509  -0.7504  -0.4537
    -0.2683  -0.2517  -0.2250  -0.2000   0.0925   0.0925   0.1217   0.2025
     0.2142   0.2308   0.4065   0.4066   0.4296   0.4310   0.4310   0.4755
     0.5078   0.5287   0.5732   0.6876   0.6883   0.8406   0.8489   0.8495
     0.8625   1.0554   1.0863   1.1644   1.2790   1.4278   1.4310   1.4789
     1.5062   1.5895   1.6298   1.6324   1.7308   1.7309   1.7429   1.7525
     1.8924   1.9239   1.9239   2.0075   2.0368   2.1490   2.2005   2.2006
     2.2599   2.2696   2.2810   2.5265   2.6172   2.8137   2.8788   7.2145
     7.2146   7.4061   7.5840   7.5842   8.9917   9.0134   9.0912   9.0979
     9.4346   9.4346   9.8127   9.8290   9.9505  10.0276  10.0388  10.1244
    10.2381

          k =-0.5000 0.1227 0.0000 ( 33882 PWs)   bands (ev):

   -35.3223 -35.3223 -22.1273 -22.1273 -22.0441 -22.0326 -16.7877 -16.7877
   -16.5323 -16.5322 -16.4378 -16.4378 -14.5850 -14.5280 -14.5202 -14.2238
   -14.1643 -14.1640 -14.1452 -13.9489 -13.8747 -13.8743 -13.8544 -13.7045
   -13.5155 -13.5147 -13.4291  -7.5924  -7.5184  -7.5180  -7.4456  -7.4456
    -7.3727  -7.3502  -7.2908  -7.2519  -7.2518  -7.1641  -7.1395  -3.1159
    -3.1135  -2.9799  -2.9703  -2.0287  -1.8414  -1.8413  -1.4404  -1.4069
    -1.3128  -1.3116  -1.2970  -1.2859  -1.2851  -1.2662  -1.2202  -1.2200
    -1.2107  -1.1041  -1.0325  -1.0323  -0.9397  -0.8808  -0.7185  -0.4246
    -0.3482  -0.3482  -0.2044  -0.1885  -0.1806  -0.1672  -0.1465   0.0920
     0.1042   0.1206   0.1206   0.2068   0.2829   0.5286   0.5519   0.5945
     0.6498   0.7865   0.7874   0.8689   0.8766   1.0117   1.0735   1.1172
     1.1248   1.1340   1.2536   1.3234   1.4528   1.5192   1.5256   1.5872
     1.5943   1.6020   1.6514   1.6559   1.7995   1.8374   1.8547   1.8747
     1.9509   1.9681   1.9735   2.2144   2.2154   2.2429   2.2525   2.3478
     2.6608   2.6649   2.8123   2.8837   2.9986   3.1531   3.2817   7.1442
     7.4239   7.4240   7.4486   7.4487   8.4539   8.4834   9.2034   9.2197
     9.7406   9.7945   9.9774  10.0107  10.0226  10.0416  10.0982  10.1112
    10.1122

          k =-0.5000 0.2454 0.0000 ( 33990 PWs)   bands (ev):

   -35.3194 -35.3194 -22.0934 -22.0934 -22.0104 -21.9990 -16.7723 -16.7723
   -16.5734 -16.5734 -16.4681 -16.4681 -14.4047 -14.3770 -14.3640 -14.1206
   -14.0635 -14.0379 -14.0379 -13.9498 -13.9495 -13.8590 -13.7783 -13.6575
   -13.5124 -13.5118 -13.4846  -7.7124  -7.7124  -7.6973  -7.6971  -7.6751
    -7.6570  -7.5747  -7.5329  -7.5010  -7.4813  -7.4806  -7.3224  -3.3178
    -3.3108  -3.1192  -3.1013  -2.1299  -2.0985  -2.0770  -2.0093  -1.9770
    -1.8755  -1.7721  -1.7711  -1.7155  -1.7152  -1.6903  -1.6742  -1.5271
    -1.4905  -1.2387  -1.0600  -1.0459  -0.7505  -0.7347  -0.6279  -0.6007
    -0.5917  -0.4760  -0.4746  -0.4253  -0.4162  -0.2642  -0.2521  -0.1975
    -0.1975  -0.0885  -0.0883   0.3605   0.4510   0.6700   0.8816   0.8870
     1.0386   1.0523   1.0751   1.2018   1.2984   1.3177   1.3664   1.3753
     1.4905   1.5190   1.5788   1.6272   1.7152   1.7160   1.8234   1.8452
     1.8496   1.8540   1.9769   1.9994   2.0009   2.0648   2.0857   2.1140
     2.1223   2.1425   2.2016   2.2292   2.2331   2.2792   2.3046   2.3316
     3.1225   3.1266   3.8069   3.8804   3.8852   4.0221   4.0576   6.5566
     6.9923   6.9929   7.7832   7.8065   8.1542   8.1571   9.4360   9.5943
     9.7053   9.9919  10.0006  10.0046  10.0493  10.0501  10.0695  10.1741
    10.2201

          k =-0.5000 0.3682 0.0000 ( 34054 PWs)   bands (ev):

   -35.3165 -35.3165 -22.0590 -22.0590 -21.9760 -21.9649 -16.7572 -16.7571
   -16.6951 -16.6951 -16.3991 -16.3991 -14.1884 -14.1848 -14.1302 -14.0863
   -14.0862 -14.0208 -13.9849 -13.8706 -13.8706 -13.7534 -13.7045 -13.6282
   -13.6165 -13.5295 -13.5295  -8.0262  -8.0261  -7.9655  -7.9624  -7.9624
    -7.9338  -7.9076  -7.7554  -7.5805  -7.5136  -7.5123  -7.3509  -3.6368
    -3.6242  -3.3757  -3.3479  -2.6385  -2.4096  -2.4095  -2.3734  -2.3732
    -2.3308  -2.3223  -2.0086  -1.9728  -1.9411  -1.7543  -1.7543  -1.6953
    -1.6440  -1.2571  -0.9599  -0.9507  -0.8295  -0.8288  -0.7266  -0.6825
    -0.6777  -0.6299  -0.6122  -0.5990  -0.4772  -0.4692  -0.4074  -0.4074
    -0.3764  -0.0053  -0.0053   0.4539   0.5652   0.7075   1.0160   1.0798
     1.2830   1.3934   1.4308   1.5413   1.5464   1.5595   1.6544   1.6879
     1.6926   1.7072   1.7691   1.8058   1.9379   1.9695   2.0055   2.1314
     2.1359   2.1543   2.1612   2.1956   2.1988   2.2600   2.3848   2.3848
     2.3897   2.3900   2.4011   2.4039   2.4659   2.5316   2.5521   2.5671
     3.2058   3.2128   4.3115   4.6761   4.6763   4.7598   4.7603   6.0196
     6.5276   6.5280   7.3776   7.3965   8.9717   8.9717   9.3363   9.5051
     9.6699   9.7337   9.9396   9.9565   9.9729   9.9736  10.0507  10.0924
    10.1042

          k =-0.5000-0.4909 0.0000 ( 34076 PWs)   bands (ev):

   -35.3153 -35.3153 -22.0446 -22.0446 -21.9617 -21.9505 -16.7509 -16.7509
   -16.7424 -16.7424 -16.3688 -16.3688 -14.1282 -14.1282 -14.0640 -14.0640
   -14.0075 -14.0035 -13.8485 -13.8215 -13.8215 -13.8188 -13.6884 -13.6804
   -13.6428 -13.5436 -13.5436  -8.1562  -8.1562  -8.0831  -8.0614  -8.0614
    -8.0604  -8.0374  -7.8421  -7.5919  -7.5231  -7.5205  -7.3603  -3.7938
    -3.7792  -3.5180  -3.4861  -2.8690  -2.6249  -2.6249  -2.4733  -2.4732
    -2.4070  -2.4045  -2.0675  -2.0299  -2.0203  -1.7528  -1.7404  -1.7403
    -1.6959  -1.2539  -0.9335  -0.9328  -0.9219  -0.9184  -0.7139  -0.7106
    -0.6963  -0.6910  -0.6875  -0.6710  -0.5520  -0.5326  -0.4834  -0.4834
    -0.3381   0.0281   0.0281   0.4756   0.5916   0.7168   1.0616   1.1528
     1.3489   1.5209   1.5768   1.5860   1.6506   1.7159   1.7324   1.7565
     1.7596   1.8259   1.8550   1.8601   1.9345   2.0029   2.1134   2.1902
     2.2346   2.2448   2.2673   2.2927   2.2979   2.3400   2.4787   2.4788
     2.5613   2.5614   2.5682   2.5683   2.6389   2.6914   2.6915   2.7238
     3.1637   3.1728   4.4263   4.9609   4.9610   5.0353   5.0353   5.8035
     6.3246   6.3247   7.2116   7.2669   9.1902   9.3693   9.3864   9.4941
     9.5039   9.5721   9.8254   9.8600   9.8882   9.9097  10.0222  10.0649
    10.1126

     the Fermi energy is     2.7231 ev

!    total energy              =   -1842.86941687 Ry
     Harris-Foulkes estimate   =   -1842.86941688 Ry
     estimated scf accuracy    <          6.4E-09 Ry

     The total energy is the sum of the following terms:

     one-electron contribution =  -30820.75702713 Ry
     hartree contribution      =   15566.21696273 Ry
     xc contribution           =    -621.69616985 Ry
     ewald contribution        =   14033.37620612 Ry
     smearing contrib. (-TS)   =      -0.00938875 Ry

     convergence has been achieved in  29 iterations

     negative rho (up, down):  1.513E-03 0.000E+00

     Forces acting on atoms (cartesian axes, Ry/au):

     atom    1 type  3   force =     0.00000000    0.00000000    0.02403181
     atom    2 type  4   force =     0.00000000    0.00000000   -0.02390405
     atom    3 type  4   force =     0.00000000    0.00000000    0.01928370
     atom    4 type  1   force =     0.00000000    0.00000000   -0.01015440
     atom    5 type  3   force =     0.00000000    0.00000000   -0.00218042
     atom    6 type  4   force =     0.00000000    0.00000000   -0.00452166
     atom    7 type  4   force =     0.00000000    0.00000000   -0.00144644
     atom    8 type  2   force =     0.00000000    0.00000000    0.00214789
     atom    9 type  4   force =     0.00000000    0.00000000   -0.00171374
     atom   10 type  4   force =     0.00000000    0.00000000   -0.00271693
     atom   11 type  3   force =     0.00000000    0.00000000    0.00188096
     atom   12 type  1   force =     0.00000000    0.00000000    0.00035163
     atom   13 type  4   force =     0.00000000    0.00000000   -0.00119914
     atom   14 type  3   force =     0.00000000    0.00000000    0.00000591
     atom   15 type  4   force =     0.00000000    0.00000000   -0.00000929
     atom   16 type  4   force =     0.00000000    0.00000000    0.00117481
     atom   17 type  1   force =     0.00000000    0.00000000   -0.00036787
     atom   18 type  3   force =     0.00000000    0.00000000   -0.00167449
     atom   19 type  4   force =     0.00000000    0.00000000    0.00270391
     atom   20 type  4   force =     0.00000000    0.00000000    0.00170441
     atom   21 type  2   force =     0.00000000    0.00000000   -0.00217196
     atom   22 type  4   force =     0.00000000    0.00000000    0.00143653
     atom   23 type  4   force =     0.00000000    0.00000000    0.00450367
     atom   24 type  3   force =     0.00000000    0.00000000    0.00217025
     atom   25 type  1   force =     0.00000000    0.00000000    0.01013815
     atom   26 type  4   force =     0.00000000    0.00000000   -0.01931062
     atom   27 type  3   force =     0.00000000    0.00000000   -0.02404801
     atom   28 type  4   force =     0.00000000    0.00000000    0.02388539

     Total force =     0.057810     Total SCF correction =     0.000380


     Computing stress (Cartesian axis) and pressure


     negative rho (up, down):  1.513E-03 0.000E+00
          total   stress  (Ry/bohr**3)                   (kbar)     P=       -8.30
   0.00001720   0.00000000   0.00000000            2.53        0.00        0.00
   0.00000000  -0.00015670   0.00000000            0.00      -23.05        0.00
   0.00000000   0.00000000  -0.00002976            0.00        0.00       -4.38


     BFGS Geometry Optimization

     number of scf cycles    =   1
     number of bfgs steps    =   0

     enthalpy new            =   -1842.8694168684 Ry

     new trust radius        =       0.0515195794 bohr
     new conv_thr            =       0.0000000100 Ry

     new unit-cell volume =   4305.54412 a.u.^3 (   638.01581 Ang^3 )
     density =      3.42060 g/cm^3

CELL_PARAMETERS (angstrom)
   3.797284315   0.000000000   0.000000000
   0.000000000   3.851039937   0.000000000
   0.000000000   0.000000000  43.629506404

ATOMIC_POSITIONS (angstrom)
Cu            0.0000000000        0.0000000000        0.0127076248
O             0.0000000000        1.9255171427       -0.0126400688
O             0.0000000000        0.0000000000        1.8733099302
Ba            1.8986459227        1.9255171427        2.1821220620
Cu            0.0000000000        0.0000000000        4.0836261552
O             0.0000000000        1.9255171427        4.3191518935
O             1.8986459227        0.0000000000        4.3354570894
Ca            1.8986459227        1.9255171427        5.8872539087
O             1.8986459227        0.0000000000        7.4351081343
O             0.0000000000        1.9255171427        7.4492467449
Cu            0.0000000000        0.0000000000        7.6884517675
Ba            1.8986459227        1.9255171427        9.5849306663
O             0.0000000000        0.0000000000        9.9084891673
Cu            0.0000000000        0.0000000000       11.7722294097
O             0.0000000000        1.9255171427       11.7722213714
O             0.0000000000        0.0000000000       13.6359605256
Ba            1.8986459227        1.9255171427       13.9595233045
Cu            0.0000000000        0.0000000000       15.8561199699
O             0.0000000000        1.9255171427       16.0952089322
O             1.8986459227        0.0000000000       16.1093494906
Ca            1.8986459227        1.9255171427       17.6571959254
O             1.8986459227        0.0000000000       19.2090002329
O             0.0000000000        1.9255171427       19.2253011574
Cu            0.0000000000        0.0000000000       19.4608310241
Ba            1.8986459227        1.9255171427       21.3623319016
O             0.0000000000        0.0000000000       21.6711383982
Cu            0.0000000000        0.0000000000       23.5317463693
O             0.0000000000        1.9255171427       23.5570927629


     NEW-OLD atomic charge density approx. for the potential

     negative rho (up, down):  2.579E-03 0.000E+00
     extrapolated charge  226.03624, renormalised to  227.00000

     total cpu time spent up to now is      527.0 secs

     Self-consistent Calculation

     iteration #  1     ecut=    60.00 Ry     beta= 0.50
     Davidson diagonalization with overlap
     c_bands:  4 eigenvalues not converged
     c_bands:  2 eigenvalues not converged
     c_bands:  2 eigenvalues not converged
     c_bands:  1 eigenvalues not converged
     c_bands:  2 eigenvalues not converged
     c_bands:  2 eigenvalues not converged
     c_bands:  3 eigenvalues not converged
     c_bands:  2 eigenvalues not converged
     c_bands:  2 eigenvalues not converged
     ethr =  1.00E-06,  avg # of iterations = 17.4

     negative rho (up, down):  1.744E-04 0.000E+00

     total cpu time spent up to now is      585.3 secs

     total energy              =   -1787.78338311 Ry
     Harris-Foulkes estimate   =   -1984.05893262 Ry
     estimated scf accuracy    <    1304.55949911 Ry

     iteration #  2     ecut=    60.00 Ry     beta= 0.50
     Davidson diagonalization with overlap
     ethr =  1.00E-02,  avg # of iterations =  4.4

     negative rho (up, down):  1.827E-04 0.000E+00

     total cpu time spent up to now is      611.9 secs

     total energy              =   -1845.04880588 Ry
     Harris-Foulkes estimate   =   -1855.74606797 Ry
     estimated scf accuracy    <     279.23922733 Ry

     iteration #  3     ecut=    60.00 Ry     beta= 0.50
     Davidson diagonalization with overlap
     ethr =  1.00E-02,  avg # of iterations =  2.0

     negative rho (up, down):  1.896E-04 0.000E+00

     total cpu time spent up to now is      626.0 secs

     total energy              =   -1846.23944376 Ry
     Harris-Foulkes estimate   =   -1848.69944412 Ry
     estimated scf accuracy    <      77.76337464 Ry

     iteration #  4     ecut=    60.00 Ry     beta= 0.50
     Davidson diagonalization with overlap
     ethr =  1.00E-02,  avg # of iterations =  1.1

     negative rho (up, down):  1.993E-04 0.000E+00

     total cpu time spent up to now is      639.1 secs

     total energy              =   -1845.17475969 Ry
     Harris-Foulkes estimate   =   -1846.60299725 Ry
     estimated scf accuracy    <      60.17691631 Ry

     iteration #  5     ecut=    60.00 Ry     beta= 0.50
     Davidson diagonalization with overlap
     ethr =  1.00E-02,  avg # of iterations =  1.0

     negative rho (up, down):  2.068E-04 0.000E+00

     total cpu time spent up to now is      652.8 secs

     total energy              =   -1844.44970836 Ry
     Harris-Foulkes estimate   =   -1845.37555965 Ry
     estimated scf accuracy    <      28.05288749 Ry

     iteration #  6     ecut=    60.00 Ry     beta= 0.50
     Davidson diagonalization with overlap
     ethr =  1.00E-02,  avg # of iterations =  1.0

     negative rho (up, down):  2.115E-04 0.000E+00

     total cpu time spent up to now is      665.7 secs

     total energy              =   -1843.99903421 Ry
     Harris-Foulkes estimate   =   -1844.52668026 Ry
     estimated scf accuracy    <      24.50131455 Ry

     iteration #  7     ecut=    60.00 Ry     beta= 0.50
     Davidson diagonalization with overlap
     ethr =  1.00E-02,  avg # of iterations =  1.0

     negative rho (up, down):  2.185E-04 0.000E+00

     total cpu time spent up to now is      678.9 secs

     total energy              =   -1843.48106953 Ry
     Harris-Foulkes estimate   =   -1844.07037941 Ry
     estimated scf accuracy    <      18.62845571 Ry

     iteration #  8     ecut=    60.00 Ry     beta= 0.50
     Davidson diagonalization with overlap
     ethr =  8.21E-03,  avg # of iterations =  1.0

     negative rho (up, down):  2.214E-04 0.000E+00

     total cpu time spent up to now is      692.0 secs

     total energy              =   -1843.33145470 Ry
     Harris-Foulkes estimate   =   -1843.55090323 Ry
     estimated scf accuracy    <      15.86218921 Ry

     iteration #  9     ecut=    60.00 Ry     beta= 0.50
     Davidson diagonalization with overlap
     ethr =  6.99E-03,  avg # of iterations =  1.0

     negative rho (up, down):  2.218E-04 0.000E+00

     total cpu time spent up to now is      705.0 secs

     total energy              =   -1843.24567067 Ry
     Harris-Foulkes estimate   =   -1843.34951463 Ry
     estimated scf accuracy    <      14.94990875 Ry

     iteration # 10     ecut=    60.00 Ry     beta= 0.50
     Davidson diagonalization with overlap
     ethr =  6.59E-03,  avg # of iterations =  1.0

     negative rho (up, down):  2.221E-04 0.000E+00

     total cpu time spent up to now is      717.9 secs

     total energy              =   -1843.16353032 Ry
     Harris-Foulkes estimate   =   -1843.26251370 Ry
     estimated scf accuracy    <      14.97992301 Ry

     iteration # 11     ecut=    60.00 Ry     beta= 0.50
     Davidson diagonalization with overlap
     ethr =  6.59E-03,  avg # of iterations =  1.0

     negative rho (up, down):  2.224E-04 0.000E+00

     total cpu time spent up to now is      730.8 secs

     total energy              =   -1843.10474276 Ry
     Harris-Foulkes estimate   =   -1843.17085513 Ry
     estimated scf accuracy    <      10.69544954 Ry

     iteration # 12     ecut=    60.00 Ry     beta= 0.50
     Davidson diagonalization with overlap
     ethr =  4.71E-03,  avg # of iterations =  1.0

     negative rho (up, down):  4.437E-03 0.000E+00

     total cpu time spent up to now is      743.8 secs

     total energy              =   -1842.46008936 Ry
     Harris-Foulkes estimate   =   -1843.10871563 Ry
     estimated scf accuracy    <       8.17385981 Ry

     iteration # 13     ecut=    60.00 Ry     beta= 0.50
     Davidson diagonalization with overlap
     ethr =  3.60E-03,  avg # of iterations =  2.9

     negative rho (up, down):  2.458E-03 0.000E+00

     total cpu time spent up to now is      758.5 secs

     total energy              =   -1841.85674123 Ry
     Harris-Foulkes estimate   =   -1843.54750505 Ry
     estimated scf accuracy    <      39.45874021 Ry

     iteration # 14     ecut=    60.00 Ry     beta= 0.50
     Davidson diagonalization with overlap
     ethr =  3.60E-03,  avg # of iterations =  1.6

     negative rho (up, down):  1.630E-02 0.000E+00

     total cpu time spent up to now is      772.1 secs

     total energy              =   -1842.90676771 Ry
     Harris-Foulkes estimate   =   -1842.92337275 Ry
     estimated scf accuracy    <       2.90284224 Ry

     iteration # 15     ecut=    60.00 Ry     beta= 0.50
     Davidson diagonalization with overlap
     ethr =  1.28E-03,  avg # of iterations =  4.0

     negative rho (up, down):  3.023E-02 0.000E+00

     total cpu time spent up to now is      787.8 secs

     total energy              =   -1842.79443277 Ry
     Harris-Foulkes estimate   =   -1842.92141700 Ry
     estimated scf accuracy    <       3.15994700 Ry

     iteration # 16     ecut=    60.00 Ry     beta= 0.50
     Davidson diagonalization with overlap
     ethr =  1.28E-03,  avg # of iterations =  3.4

     negative rho (up, down):  2.801E-02 0.000E+00

     total cpu time spent up to now is      803.1 secs

     total energy              =   -1842.90279100 Ry
     Harris-Foulkes estimate   =   -1842.91743597 Ry
     estimated scf accuracy    <       4.28234213 Ry

     iteration # 17     ecut=    60.00 Ry     beta= 0.50
     Davidson diagonalization with overlap
     ethr =  1.28E-03,  avg # of iterations =  1.0

     negative rho (up, down):  2.235E-02 0.000E+00

     total cpu time spent up to now is      816.1 secs

     total energy              =   -1842.88064561 Ry
     Harris-Foulkes estimate   =   -1842.90487915 Ry
     estimated scf accuracy    <       2.81854401 Ry

     iteration # 18     ecut=    60.00 Ry     beta= 0.50
     Davidson diagonalization with overlap
     ethr =  1.24E-03,  avg # of iterations =  1.2

     negative rho (up, down):  1.761E-02 0.000E+00

     total cpu time spent up to now is      829.4 secs

     total energy              =   -1842.87285005 Ry
     Harris-Foulkes estimate   =   -1842.88638605 Ry
     estimated scf accuracy    <       0.83465022 Ry

     iteration # 19     ecut=    60.00 Ry     beta= 0.50
     Davidson diagonalization with overlap
     ethr =  3.68E-04,  avg # of iterations =  5.3

     negative rho (up, down):  1.374E-02 0.000E+00

     total cpu time spent up to now is      846.3 secs

     total energy              =   -1842.87463088 Ry
     Harris-Foulkes estimate   =   -1842.87754716 Ry
     estimated scf accuracy    <       0.06802164 Ry

     iteration # 20     ecut=    60.00 Ry     beta= 0.50
     Davidson diagonalization with overlap
     ethr =  3.00E-05,  avg # of iterations = 10.1

     negative rho (up, down):  1.269E-02 0.000E+00

     total cpu time spent up to now is      869.9 secs

     total energy              =   -1842.87519308 Ry
     Harris-Foulkes estimate   =   -1842.87649377 Ry
     estimated scf accuracy    <       0.04238003 Ry

     iteration # 21     ecut=    60.00 Ry     beta= 0.50
     Davidson diagonalization with overlap
     ethr =  1.87E-05,  avg # of iterations =  1.6

     negative rho (up, down):  1.123E-02 0.000E+00

     total cpu time spent up to now is      884.1 secs

     total energy              =   -1842.87533892 Ry
     Harris-Foulkes estimate   =   -1842.87578746 Ry
     estimated scf accuracy    <       0.00565789 Ry

     iteration # 22     ecut=    60.00 Ry     beta= 0.50
     Davidson diagonalization with overlap
     c_bands:  1 eigenvalues not converged
     ethr =  2.49E-06,  avg # of iterations =  8.7

     negative rho (up, down):  9.973E-03 0.000E+00

     total cpu time spent up to now is      905.5 secs

     total energy              =   -1842.87537062 Ry
     Harris-Foulkes estimate   =   -1842.87555970 Ry
     estimated scf accuracy    <       0.00324880 Ry

     iteration # 23     ecut=    60.00 Ry     beta= 0.50
     Davidson diagonalization with overlap
     c_bands:  1 eigenvalues not converged
     ethr =  1.43E-06,  avg # of iterations =  5.4

     negative rho (up, down):  9.202E-03 0.000E+00

     total cpu time spent up to now is      922.5 secs

     total energy              =   -1842.87535963 Ry
     Harris-Foulkes estimate   =   -1842.87546574 Ry
     estimated scf accuracy    <       0.00369639 Ry

     iteration # 24     ecut=    60.00 Ry     beta= 0.50
     Davidson diagonalization with overlap
     c_bands:  1 eigenvalues not converged
     ethr =  1.43E-06,  avg # of iterations =  4.8

     negative rho (up, down):  7.961E-03 0.000E+00

     total cpu time spent up to now is      938.8 secs

     total energy              =   -1842.87529052 Ry
     Harris-Foulkes estimate   =   -1842.87539161 Ry
     estimated scf accuracy    <       0.00079507 Ry

     iteration # 25     ecut=    60.00 Ry     beta= 0.50
     Davidson diagonalization with overlap
     ethr =  3.50E-07,  avg # of iterations =  6.4

     negative rho (up, down):  7.243E-03 0.000E+00

     total cpu time spent up to now is      956.8 secs

     total energy              =   -1842.87526433 Ry
     Harris-Foulkes estimate   =   -1842.87533211 Ry
     estimated scf accuracy    <       0.00310206 Ry

     iteration # 26     ecut=    60.00 Ry     beta= 0.50
     Davidson diagonalization with overlap
     ethr =  3.50E-07,  avg # of iterations =  3.8

     negative rho (up, down):  6.611E-03 0.000E+00

     total cpu time spent up to now is      972.0 secs

     total energy              =   -1842.87524789 Ry
     Harris-Foulkes estimate   =   -1842.87527882 Ry
     estimated scf accuracy    <       0.00074130 Ry

     iteration # 27     ecut=    60.00 Ry     beta= 0.50
     Davidson diagonalization with overlap
     ethr =  3.27E-07,  avg # of iterations =  4.8

     negative rho (up, down):  5.560E-03 0.000E+00

     total cpu time spent up to now is      988.4 secs

     total energy              =   -1842.87520636 Ry
     Harris-Foulkes estimate   =   -1842.87525123 Ry
     estimated scf accuracy    <       0.00029274 Ry

     iteration # 28     ecut=    60.00 Ry     beta= 0.50
     Davidson diagonalization with overlap
     c_bands:  1 eigenvalues not converged
     ethr =  1.29E-07,  avg # of iterations =  6.9

     negative rho (up, down):  5.015E-03 0.000E+00

     total cpu time spent up to now is     1006.6 secs

     total energy              =   -1842.87518198 Ry
     Harris-Foulkes estimate   =   -1842.87520945 Ry
     estimated scf accuracy    <       0.00016404 Ry

     iteration # 29     ecut=    60.00 Ry     beta= 0.50
     Davidson diagonalization with overlap
     c_bands:  1 eigenvalues not converged
     ethr =  7.23E-08,  avg # of iterations =  4.6

     negative rho (up, down):  3.789E-03 0.000E+00

     total cpu time spent up to now is     1022.7 secs

     total energy              =   -1842.87514737 Ry
     Harris-Foulkes estimate   =   -1842.87518406 Ry
     estimated scf accuracy    <       0.00007996 Ry

     iteration # 30     ecut=    60.00 Ry     beta= 0.50
     Davidson diagonalization with overlap
     c_bands:  1 eigenvalues not converged
     c_bands:  1 eigenvalues not converged
     c_bands:  1 eigenvalues not converged
     ethr =  3.52E-08,  avg # of iterations =  7.6

     negative rho (up, down):  2.380E-03 0.000E+00

     total cpu time spent up to now is     1041.7 secs

     total energy              =   -1842.87512348 Ry
     Harris-Foulkes estimate   =   -1842.87514837 Ry
     estimated scf accuracy    <       0.00007607 Ry

     iteration # 31     ecut=    60.00 Ry     beta= 0.50
     Davidson diagonalization with overlap
     ethr =  3.35E-08,  avg # of iterations =  7.2

     negative rho (up, down):  1.908E-03 0.000E+00

     total cpu time spent up to now is     1060.3 secs

     total energy              =   -1842.87512056 Ry
     Harris-Foulkes estimate   =   -1842.87512474 Ry
     estimated scf accuracy    <       0.00001527 Ry

     iteration # 32     ecut=    60.00 Ry     beta= 0.50
     Davidson diagonalization with overlap
     ethr =  6.73E-09,  avg # of iterations =  1.5

     negative rho (up, down):  1.689E-03 0.000E+00

     total cpu time spent up to now is     1073.8 secs

     total energy              =   -1842.87512022 Ry
     Harris-Foulkes estimate   =   -1842.87512100 Ry
     estimated scf accuracy    <       0.00000238 Ry

     iteration # 33     ecut=    60.00 Ry     beta= 0.50
     Davidson diagonalization with overlap
     ethr =  1.05E-09,  avg # of iterations =  2.1

     negative rho (up, down):  1.608E-03 0.000E+00

     total cpu time spent up to now is     1087.7 secs

     total energy              =   -1842.87512020 Ry
     Harris-Foulkes estimate   =   -1842.87512033 Ry
     estimated scf accuracy    <       0.00000095 Ry

     iteration # 34     ecut=    60.00 Ry     beta= 0.50
     Davidson diagonalization with overlap
     ethr =  4.20E-10,  avg # of iterations =  2.0

     negative rho (up, down):  1.573E-03 0.000E+00

     total cpu time spent up to now is     1101.6 secs

     total energy              =   -1842.87512024 Ry
     Harris-Foulkes estimate   =   -1842.87512025 Ry
     estimated scf accuracy    <       0.00000045 Ry

     iteration # 35     ecut=    60.00 Ry     beta= 0.50
     Davidson diagonalization with overlap
     ethr =  1.99E-10,  avg # of iterations =  1.2

     negative rho (up, down):  1.540E-03 0.000E+00

     total cpu time spent up to now is     1114.8 secs

     total energy              =   -1842.87512028 Ry
     Harris-Foulkes estimate   =   -1842.87512026 Ry
     estimated scf accuracy    <       0.00000008 Ry

     iteration # 36     ecut=    60.00 Ry     beta= 0.50
     Davidson diagonalization with overlap
     ethr =  3.48E-11,  avg # of iterations =  2.9

     negative rho (up, down):  1.541E-03 0.000E+00

     total cpu time spent up to now is     1130.7 secs

     total energy              =   -1842.87512029 Ry
     Harris-Foulkes estimate   =   -1842.87512029 Ry
     estimated scf accuracy    <       0.00000004 Ry

     iteration # 37     ecut=    60.00 Ry     beta= 0.50
     Davidson diagonalization with overlap
     ethr =  1.71E-11,  avg # of iterations =  1.1

     negative rho (up, down):  1.531E-03 0.000E+00

     total cpu time spent up to now is     1143.7 secs

     total energy              =   -1842.87512030 Ry
     Harris-Foulkes estimate   =   -1842.87512029 Ry
     estimated scf accuracy    <       0.00000002 Ry

     iteration # 38     ecut=    60.00 Ry     beta= 0.50
     Davidson diagonalization with overlap
     ethr =  1.02E-11,  avg # of iterations =  1.0

     negative rho (up, down):  1.533E-03 0.000E+00

     total cpu time spent up to now is     1156.7 secs

     total energy              =   -1842.87512030 Ry
     Harris-Foulkes estimate   =   -1842.87512030 Ry
     estimated scf accuracy    <       0.00000002 Ry

     iteration # 39     ecut=    60.00 Ry     beta= 0.50
     Davidson diagonalization with overlap
     ethr =  6.87E-12,  avg # of iterations =  1.0

     negative rho (up, down):  1.526E-03 0.000E+00

     total cpu time spent up to now is     1169.2 secs

     End of self-consistent calculation

          k = 0.0000 0.0000 0.0000 ( 33829 PWs)   bands (ev):

   -35.2962 -35.2962 -22.3009 -22.3009 -22.1918 -22.1696 -16.8039 -16.8035
   -16.3513 -16.3513 -16.3379 -16.3379 -15.0007 -14.9970 -14.3792 -14.2847
   -14.2782 -14.2238 -14.2238 -13.6991 -13.6991 -13.5761 -13.5760 -13.5642
   -13.5641 -13.5101 -13.3681  -7.4316  -7.4295  -7.3818  -7.3599  -7.3599
[...]
    -0.7553  -0.6219  -0.6218  -0.4742  -0.3369  -0.2930  -0.1568  -0.1502
    -0.1224  -0.1197  -0.0679   0.0448   0.1754   0.1754   0.2792   0.2848
     0.3248   0.5119   0.5120   0.5300   0.5391   0.5452   0.6064   0.6197
     0.6621   0.8473   0.8729   0.9874   1.1035   1.2438   1.2927   1.2928
     1.3320   1.3495   1.4552   1.4640   1.6081   1.6221   1.6499   1.7246
     1.7764   1.8585   1.8961   1.9031   1.9367   2.0103   2.0430   2.2230
     2.2459   2.3672   2.5080   2.6695   2.7317   2.9082   2.9181   6.6128
     6.6130   6.9481   7.8775   7.8822   8.1076   8.1083   8.5755   8.5957
     8.7699   8.8677   9.4326   9.4455   9.6034   9.6037   9.6198   9.6892
     9.8067

          k = 0.3622 0.1275 0.0000 ( 33797 PWs)   bands (ev):

   -35.4688 -35.4687 -22.5525 -22.5525 -22.3002 -22.2887 -16.9039 -16.9038
   -16.7383 -16.7382 -16.5732 -16.5731 -14.8893 -14.8879 -14.8278 -14.5106
   -14.4985 -14.4436 -14.4193 -14.0795 -14.0788 -14.0281 -14.0058 -13.8881
   -13.8451 -13.8360 -13.6481  -7.8807  -7.8806  -7.7784  -7.7258  -7.7257
    -7.5844  -7.4751  -7.4750  -7.4652  -7.4342  -7.2095  -7.1992  -2.8469
    -2.8449  -2.6606  -2.6291  -2.2217  -2.2217  -2.0920  -1.9403  -1.9339
    -1.7678  -1.7516  -1.5848  -1.5083  -1.5083  -1.3761  -1.3618  -1.3170
    -1.2050  -1.2037  -1.0963  -1.0788  -1.0068  -0.9165  -0.8058  -0.6911
    -0.6871  -0.5769  -0.5727  -0.4270  -0.4050  -0.3112  -0.3011  -0.1606
    -0.1596   0.0504   0.0511   0.1393   0.1718   0.2116   0.2879   0.2884
     0.3492   0.3612   0.5472   0.5487   0.6111   0.7748   0.7803   0.8969
     0.9071   1.0173   1.0752   1.0795   1.2613   1.2619   1.2973   1.3413
     1.3755   1.4424   1.4680   1.4687   1.6469   1.6483   1.6911   1.7570
     1.8081   1.8294   1.8671   1.9005   1.9068   1.9431   2.0133   2.4532
     2.8483   2.8592   3.0129   3.0508   3.0884   3.2220   3.2771   6.7616
     6.7619   6.8442   7.9248   7.9292   8.1733   8.1734   8.6009   8.6150
     9.0148   9.0473   9.3373   9.4333   9.5720   9.6132   9.6850   9.7796
     9.8349

          k = 0.3622 0.2549 0.0000 ( 33815 PWs)   bands (ev):

   -35.4644 -35.4643 -22.4992 -22.4992 -22.2485 -22.2374 -16.8835 -16.8834
   -16.7176 -16.7174 -16.6632 -16.6631 -14.7665 -14.7662 -14.6344 -14.4143
   -14.4022 -14.2939 -14.2713 -14.0395 -14.0379 -14.0064 -14.0050 -13.8825
   -13.8816 -13.8332 -13.6925  -8.1820  -8.1820  -7.9252  -7.8954  -7.8606
    -7.8605  -7.7383  -7.7382  -7.6731  -7.5865  -7.4669  -7.4665  -3.1641
    -3.1582  -2.9016  -2.8676  -2.5033  -2.3935  -2.3928  -2.2734  -2.2732
    -2.2472  -2.2465  -2.1426  -2.1424  -2.0773  -1.6724  -1.6675  -1.5208
    -1.4947  -1.4145  -1.1549  -1.1330  -0.9333  -0.8604  -0.8186  -0.7926
    -0.7660  -0.7619  -0.6663  -0.5917  -0.5406  -0.5402  -0.4852  -0.3777
    -0.3753  -0.2689  -0.2610   0.1303   0.2140   0.3935   0.5550   0.5748
     0.7858   0.8187   0.8791   0.9319   0.9427   1.1149   1.1155   1.1665
     1.2645   1.3035   1.3303   1.3512   1.5065   1.5092   1.5369   1.5444
     1.7066   1.7305   1.7464   1.7592   1.7959   1.8338   1.8557   1.8602
     1.8656   1.9026   1.9112   1.9361   1.9446   1.9758   2.2551   2.4284
     3.0940   3.1002   3.8045   3.8312   3.8540   3.9540   3.9824   6.4828
     6.8070   6.8085   7.7497   7.7539   8.5123   8.5144   8.9384   8.9517
     9.3636   9.5238   9.5268   9.6360   9.6730   9.7516   9.8684   9.9513
    10.0207

          k = 0.3622 0.3824 0.0000 ( 33777 PWs)   bands (ev):

   -35.4601 -35.4600 -22.4446 -22.4445 -22.1955 -22.1848 -16.8662 -16.8661
   -16.8444 -16.8443 -16.5834 -16.5833 -14.6315 -14.6314 -14.3755 -14.3217
   -14.3072 -14.1310 -14.1236 -14.1209 -14.1125 -13.9720 -13.9719 -13.8808
   -13.8728 -13.7777 -13.7582  -8.4478  -8.4478  -8.1788  -8.1724  -8.1129
    -8.1128  -7.8655  -7.8631  -7.8594  -7.7560  -7.7104  -7.5625  -3.6451
    -3.6363  -3.3639  -3.3084  -3.2100  -2.8366  -2.8365  -2.5233  -2.5233
    -2.3757  -2.3501  -2.1712  -2.1710  -2.0822  -1.9862  -1.9756  -1.7360
    -1.7256  -1.5080  -1.1608  -1.1189  -1.1001  -1.0995  -1.0372  -0.8523
    -0.8516  -0.8294  -0.7627  -0.7560  -0.6993  -0.6699  -0.5862  -0.5834
    -0.4890  -0.2879  -0.2872   0.2688   0.3628   0.4371   0.6888   0.7570
     1.0333   1.1363   1.1874   1.2663   1.2682   1.3354   1.3765   1.4586
     1.4688   1.5610   1.5918   1.5933   1.6602   1.6788   1.7150   1.8223
     1.8623   1.8807   1.8852   1.9575   2.0270   2.0500   2.0870   2.1037
     2.1177   2.1500   2.1837   2.2158   2.2873   2.2875   2.3174   2.5503
     2.9140   2.9231   4.2586   4.3478   4.3744   4.4373   4.4538   6.0431
     6.5038   6.5051   7.4704   7.5012   9.0793   9.0900   9.1269   9.2402
     9.5550   9.5839   9.6224   9.6442   9.7518   9.7659   9.7969   9.9648
    10.0690

          k = 0.3622-0.5099 0.0000 ( 33784 PWs)   bands (ev):

   -35.4583 -35.4582 -22.4215 -22.4215 -22.1732 -22.1626 -16.8995 -16.8994
   -16.8536 -16.8535 -16.5480 -16.5479 -14.5702 -14.5701 -14.2892 -14.2886
   -14.1780 -14.1715 -14.1561 -14.0376 -14.0357 -13.9877 -13.9506 -13.9505
   -13.8967 -13.8043 -13.7176  -8.5299  -8.5299  -8.2790  -8.2580  -8.2580
    -8.2536  -8.0210  -7.8892  -7.8887  -7.8498  -7.7405  -7.5783  -3.8528
    -3.8419  -3.5957  -3.5068  -3.4489  -3.0618  -3.0617  -2.5419  -2.5419
    -2.3938  -2.3556  -2.1656  -2.1652  -2.0940  -2.0814  -2.0806  -1.8204
    -1.8052  -1.5308  -1.2379  -1.2163  -1.1659  -1.1350  -1.1009  -0.8708
    -0.8516  -0.8489  -0.8460  -0.8456  -0.7805  -0.7640  -0.6129  -0.6058
    -0.4578  -0.2735  -0.2731   0.3050   0.4010   0.4510   0.7443   0.8405
     1.1032   1.2741   1.3592   1.3747   1.3798   1.4079   1.4177   1.4564
     1.4699   1.6376   1.6836   1.6966   1.7274   1.8450   1.8459   1.8769
     1.8986   1.9812   1.9934   2.0696   2.1373   2.1481   2.1793   2.2485
     2.2520   2.2915   2.3708   2.3926   2.4036   2.4778   2.4782   2.6132
     2.6696   2.6830   4.3518   4.4886   4.5300   4.5843   4.6018   5.8493
     6.3264   6.3270   7.3635   7.4233   8.9822   9.1610   9.2380   9.3084
     9.4785   9.4859   9.8062   9.8795   9.8868   9.9008   9.9531  10.0565
    10.1021

          k =-0.4829 0.0000 0.0000 ( 33762 PWs)   bands (ev):

   -35.4695 -35.4694 -22.5551 -22.5550 -22.3024 -22.2921 -16.9649 -16.9648
   -16.7253 -16.7251 -16.5073 -16.5072 -14.9965 -14.9919 -14.9335 -14.5793
   -14.5473 -14.3080 -14.2525 -14.2124 -14.2120 -14.0910 -14.0866 -13.9343
   -13.8201 -13.8193 -13.6512  -7.8133  -7.8127  -7.7592  -7.5394  -7.5394
    -7.5277  -7.3492  -7.3492  -7.2700  -7.2479  -7.0858  -7.0706  -2.9266
    -2.9259  -2.7537  -2.7357  -2.2479  -2.2478  -2.0890  -1.5459  -1.5429
    -1.5081  -1.5081  -1.2684  -1.2683  -1.2502  -1.1832  -1.1113  -1.1111
    -1.1093  -1.0835  -1.0674  -1.0669  -0.9621  -0.8873  -0.8848  -0.7985
    -0.7892  -0.7054  -0.7053  -0.5441  -0.3990  -0.3388  -0.1755  -0.1636
    -0.1102  -0.1064  -0.0720  -0.0308   0.1701   0.1701   0.2378   0.2734
     0.3075   0.5115   0.5117   0.5301   0.5369   0.5402   0.5730   0.6048
     0.6642   0.8953   0.9034   0.9767   1.0427   1.2422   1.2428   1.3201
     1.4689   1.4851   1.5048   1.5072   1.5939   1.6998   1.6999   1.7486
     1.7623   1.7626   1.8761   1.9784   1.9785   2.0590   2.0737   2.2404
     2.2582   2.3565   2.5115   2.6619   2.7465   2.9398   2.9584   7.0831
     7.3852   7.3858   7.4376   7.4376   8.3759   8.3856   8.6505   8.6599
     9.1437   9.1782   9.5613   9.5650   9.5651   9.7408   9.7845   9.9306
    10.0337

          k =-0.4829 0.1275 0.0000 ( 33830 PWs)   bands (ev):

   -35.4677 -35.4676 -22.5343 -22.5343 -22.2822 -22.2719 -16.9557 -16.9556
   -16.6977 -16.6976 -16.5711 -16.5710 -14.9382 -14.9351 -14.8601 -14.5372
   -14.5081 -14.2651 -14.2141 -14.1544 -14.1541 -14.0688 -14.0652 -13.9049
   -13.8575 -13.8568 -13.6548  -7.8519  -7.8518  -7.7748  -7.6688  -7.6688
    -7.5555  -7.5522  -7.5504  -7.4020  -7.3583  -7.3027  -7.2797  -2.9951
    -2.9936  -2.8077  -2.7854  -2.2529  -2.2528  -2.1043  -1.9104  -1.9008
    -1.7160  -1.6925  -1.5768  -1.5030  -1.5029  -1.4058  -1.4049  -1.3660
    -1.3192  -1.3190  -1.2044  -1.1847  -1.0045  -0.9494  -0.8221  -0.7611
    -0.7610  -0.5888  -0.5887  -0.4664  -0.4210  -0.3468  -0.3380  -0.1844
    -0.1831   0.0337   0.0384   0.1545   0.1709   0.2140   0.2884   0.2900
     0.3431   0.4651   0.4698   0.6229   0.6230   0.6920   0.7161   0.8715
     0.8904   1.0215   1.0959   1.1334   1.2201   1.2715   1.2910   1.3871
     1.3891   1.4539   1.5238   1.5308   1.6922   1.7345   1.7447   1.7565
     1.8181   1.8575   1.8619   1.9850   1.9867   2.0258   2.0355   2.4261
     2.8559   2.8632   3.0201   3.0679   3.1073   3.2727   3.3317   6.8810
     7.2331   7.2332   7.7401   7.7406   8.2757   8.2952   8.5789   8.5990
     9.3943   9.4143   9.5944   9.6833   9.7353   9.7568   9.8332   9.9172
     9.9780

          k =-0.4829 0.2549 0.0000 ( 33820 PWs)   bands (ev):

   -35.4634 -35.4633 -22.4833 -22.4833 -22.2326 -22.2225 -16.9336 -16.9336
   -16.7143 -16.7142 -16.6267 -16.6266 -14.7857 -14.7846 -14.6557 -14.4366
   -14.4146 -14.1558 -14.1184 -14.0573 -14.0572 -14.0174 -14.0159 -13.9241
   -13.9235 -13.8337 -13.6868  -8.1209  -8.1208  -7.9700  -7.9699  -7.8944
    -7.8218  -7.8016  -7.8016  -7.7135  -7.6804  -7.6120  -7.5162  -3.3021
    -3.2968  -3.0441  -3.0152  -2.4945  -2.4188  -2.4185  -2.2864  -2.2863
    -2.2629  -2.2623  -2.1504  -2.1502  -2.0849  -1.8019  -1.7870  -1.5882
    -1.5416  -1.5001  -1.0753  -1.0493  -0.8900  -0.8605  -0.8603  -0.8253
    -0.7926  -0.7449  -0.7234  -0.6196  -0.5658  -0.5655  -0.4916  -0.3864
    -0.3760  -0.2865  -0.2859   0.1478   0.2253   0.4490   0.6108   0.6159
     0.8308   0.8551   0.9475   0.9598   0.9632   1.1925   1.1971   1.2016
     1.2783   1.2893   1.2937   1.3101   1.5044   1.5565   1.5846   1.6044
     1.7198   1.7200   1.8054   1.8092   1.8339   1.8688   1.8712   1.9263
     1.9424   1.9841   2.0146   2.0159   2.0393   2.0630   2.1112   2.3730
     3.0871   3.0938   3.8256   3.9714   3.9750   4.0853   4.1114   6.3609
     6.8030   6.8037   7.6752   7.6930   8.5502   8.5520   9.0723   9.1808
     9.4206   9.6967   9.6994   9.7249   9.7737   9.9229   9.9766   9.9818
    10.0317

          k =-0.4829 0.3824 0.0000 ( 33780 PWs)   bands (ev):

   -35.4591 -35.4589 -22.4311 -22.4311 -22.1819 -22.1720 -16.9121 -16.9120
   -16.8434 -16.8433 -16.5511 -16.5510 -14.6024 -14.6022 -14.3890 -14.3487
   -14.3194 -14.1117 -14.1117 -14.0371 -14.0210 -13.9687 -13.9687 -13.8640
   -13.8638 -13.7912 -13.7643  -8.4960  -8.4960  -8.2580  -8.2580  -8.2399
    -8.2145  -8.0177  -7.8796  -7.8793  -7.8475  -7.7693  -7.5657  -3.7752
    -3.7667  -3.4729  -3.4323  -3.2138  -2.8280  -2.8280  -2.5931  -2.5930
    -2.4383  -2.4274  -2.1875  -2.1875  -2.0977  -2.0969  -2.0655  -1.8050
    -1.7396  -1.5672  -1.1262  -1.1254  -1.0657  -0.9987  -0.9983  -0.9415
    -0.9330  -0.8083  -0.7792  -0.7782  -0.6763  -0.6688  -0.6681  -0.6537
    -0.4697  -0.2495  -0.2494   0.2911   0.3833   0.4973   0.7919   0.8525
     1.1347   1.2540   1.2634   1.3759   1.3849   1.4066   1.4383   1.4932
     1.4983   1.5761   1.6700   1.6706   1.6818   1.7094   1.7658   1.8593
     1.8636   1.9321   1.9625   2.0106   2.0973   2.1117   2.1220   2.1728
     2.1789   2.1943   2.2568   2.2571   2.3136   2.3494   2.4133   2.4970
     2.9023   2.9127   4.2617   4.6149   4.6219   4.6805   4.6967   5.8226
     6.3080   6.3087   7.3207   7.3495   9.0292   9.0363   9.1469   9.2716
     9.5481   9.5525   9.6898   9.8149   9.8475   9.8595   9.8991   9.9791
    10.0079

          k =-0.4829-0.5099 0.0000 ( 33876 PWs)   bands (ev):

   -35.4573 -35.4572 -22.4091 -22.4091 -22.1605 -22.1507 -16.9032 -16.9031
   -16.8941 -16.8940 -16.5176 -16.5175 -14.5046 -14.5046 -14.3299 -14.3286
   -14.1570 -14.1569 -14.1568 -13.9874 -13.9838 -13.9450 -13.9448 -13.9227
   -13.8237 -13.8235 -13.7374  -8.6420  -8.6420  -8.3887  -8.3741  -8.3741
    -8.3668  -8.1422  -7.9396  -7.9079  -7.9070  -7.7862  -7.5827  -3.9843
    -3.9743  -3.6835  -3.6286  -3.4727  -3.0523  -3.0522  -2.6255  -2.6255
    -2.4686  -2.4509  -2.1916  -2.1776  -2.1775  -2.1533  -2.0974  -1.8764
    -1.8043  -1.5883  -1.2419  -1.2379  -1.1156  -1.0641  -1.0588  -0.9138
    -0.9129  -0.8735  -0.8734  -0.8448  -0.7815  -0.7656  -0.6999  -0.6796
    -0.4253  -0.2207  -0.2206   0.3297   0.4229   0.5100   0.8669   0.9698
     1.2322   1.3597   1.4529   1.4607   1.4706   1.4768   1.5077   1.5227
     1.5467   1.7308   1.7416   1.7563   1.7902   1.7972   1.9410   1.9846
     1.9981   2.0111   2.1057   2.1260   2.1635   2.1881   2.2511   2.2669
     2.3043   2.3233   2.4493   2.4493   2.5132   2.5375   2.5408   2.6461
     2.6613   2.6657   4.3533   4.8130   4.8295   4.8832   4.8986   5.5903
     6.0811   6.0813   7.1960   7.2625   8.9906   9.1344   9.1455   9.1898
     9.2200   9.2736   9.6550   9.7011   9.8384   9.8914  10.0037  10.0998
    10.3571

     the Fermi energy is     2.6763 ev

!    total energy              =   -1842.90350019 Ry
     Harris-Foulkes estimate   =   -1842.90350019 Ry
     estimated scf accuracy    <          3.9E-11 Ry

     The total energy is the sum of the following terms:

     one-electron contribution =  -30975.73796912 Ry
     hartree contribution      =   15642.01372455 Ry
     xc contribution           =    -621.84707623 Ry
     ewald contribution        =   14112.67583544 Ry
     smearing contrib. (-TS)   =      -0.00801483 Ry

     convergence has been achieved in  35 iterations

     negative rho (up, down):  1.519E-03 0.000E+00

     Forces acting on atoms (cartesian axes, Ry/au):

     atom    1 type  3   force =     0.00000000    0.00000000    0.00038695
     atom    2 type  4   force =     0.00000000    0.00000000   -0.00014847
     atom    3 type  4   force =     0.00000000    0.00000000   -0.00076335
     atom    4 type  1   force =     0.00000000    0.00000000   -0.00028367
     atom    5 type  3   force =     0.00000000    0.00000000    0.00055316
     atom    6 type  4   force =     0.00000000    0.00000000    0.00034113
     atom    7 type  4   force =     0.00000000    0.00000000   -0.00002817
     atom    8 type  2   force =     0.00000000    0.00000000   -0.00059837
     atom    9 type  4   force =     0.00000000    0.00000000    0.00016944
     atom   10 type  4   force =     0.00000000    0.00000000    0.00027474
     atom   11 type  3   force =     0.00000000    0.00000000    0.00024008
     atom   12 type  1   force =     0.00000000    0.00000000    0.00028610
     atom   13 type  4   force =     0.00000000    0.00000000    0.00086732
     atom   14 type  3   force =     0.00000000    0.00000000    0.00000218
     atom   15 type  4   force =     0.00000000    0.00000000   -0.00000411
     atom   16 type  4   force =     0.00000000    0.00000000   -0.00087389
     atom   17 type  1   force =     0.00000000    0.00000000   -0.00028130
     atom   18 type  3   force =     0.00000000    0.00000000   -0.00023752
     atom   19 type  4   force =     0.00000000    0.00000000   -0.00027406
     atom   20 type  4   force =     0.00000000    0.00000000   -0.00016836
     atom   21 type  2   force =     0.00000000    0.00000000    0.00059749
     atom   22 type  4   force =     0.00000000    0.00000000    0.00002534
     atom   23 type  4   force =     0.00000000    0.00000000   -0.00034261
     atom   24 type  3   force =     0.00000000    0.00000000   -0.00055151
     atom   25 type  1   force =     0.00000000    0.00000000    0.00028381
     atom   26 type  4   force =     0.00000000    0.00000000    0.00076047
     atom   27 type  3   force =     0.00000000    0.00000000   -0.00039024
     atom   28 type  4   force =     0.00000000    0.00000000    0.00015743

     Total force =     0.002287     Total SCF correction =     0.000023


     Computing stress (Cartesian axis) and pressure


     negative rho (up, down):  1.519E-03 0.000E+00
          total   stress  (Ry/bohr**3)                   (kbar)     P=        0.20
   0.00000410   0.00000000   0.00000000            0.60        0.00        0.00
   0.00000000   0.00000150   0.00000000            0.00        0.22        0.00
   0.00000000   0.00000000  -0.00000156            0.00        0.00       -0.23

 
     init_run     :     18.53s CPU     19.55s WALL (       2 calls)
     electrons    :  10462.41s CPU  11091.96s WALL (      18 calls)
     update_pot   :     65.34s CPU     65.96s WALL (      16 calls)
     forces       :     78.43s CPU     85.92s WALL (      18 calls)
     stress       :    418.06s CPU    436.37s WALL (      18 calls)

     Called by init_run:
     wfcinit      :     10.89s CPU     11.12s WALL (       2 calls)
     potinit      :      2.19s CPU      2.22s WALL (       2 calls)
     hinit0       :      3.72s CPU      3.88s WALL (       2 calls)

     Called by electrons:
     c_bands      :   8351.77s CPU   8453.04s WALL (     690 calls)
     sum_band     :   1413.31s CPU   1699.39s WALL (     690 calls)
     v_of_rho     :     50.65s CPU     51.32s WALL (     708 calls)
     newd         :    337.60s CPU    579.85s WALL (     708 calls)
     mix_rho      :    314.20s CPU    317.55s WALL (     690 calls)

     Called by c_bands:
     init_us_2    :     71.47s CPU     71.90s WALL (   35450 calls)
     cegterg      :   7838.85s CPU   7932.86s WALL (   17289 calls)

     Called by sum_band:
     sum_band:bec :      4.58s CPU      4.63s WALL (   17250 calls)
     addusdens    :    365.87s CPU    637.26s WALL (     690 calls)

     Called by *egterg:
     h_psi        :   4010.50s CPU   4079.66s WALL (   72277 calls)
     s_psi        :    446.38s CPU    448.66s WALL (   72277 calls)
     g_psi        :     14.59s CPU     14.71s WALL (   54938 calls)
     cdiaghg      :   1604.05s CPU   1610.26s WALL (   71789 calls)

     Called by h_psi:
     h_psi:calbec :    502.57s CPU    506.94s WALL (   72277 calls)
     vloc_psi     :   3038.06s CPU   3092.96s WALL (   72277 calls)
     add_vuspsi   :    447.76s CPU    453.78s WALL (   72277 calls)

     General routines
     calbec       :    746.39s CPU    751.79s WALL (   91777 calls)
     fft          :     41.79s CPU     42.17s WALL (    9634 calls)
     ffts         :    173.19s CPU    174.82s WALL (  306232 calls)
     fftw         :   3426.66s CPU   3487.62s WALL (12871526 calls)
     interpolate  :      3.25s CPU      3.28s WALL (     708 calls)
 
     Parallel routines
     fft_scatt_xy :    484.70s CPU    493.01s WALL (13187392 calls)
     fft_scatt_yz :   2094.39s CPU   2131.39s WALL (13187392 calls)
 
     PWSCF        :      3h 4m CPU      3h15m WALL

 
   This run was terminated on:  23:41:59  20May2021            

=------------------------------------------------------------------------------=
   JOB DONE.
=------------------------------------------------------------------------------=
[1621568519.470263] [holy7c02501:226752:0]          mpool.c:43   UCX  WARN  object 0x29fa940 was not returned to mpool ucp_requests
[1621568519.470203] [holy7c02501:226756:0]          mpool.c:43   UCX  WARN  object 0x2b97780 was not returned to mpool ucp_requests
[1621568519.470000] [holy7c02501:226760:0]          mpool.c:43   UCX  WARN  object 0x4526740 was not returned to mpool ucp_requests
[1621568519.470025] [holy7c02501:226760:0]          mpool.c:43   UCX  WARN  object 0x4526900 was not returned to mpool ucp_requests
[1621568519.470184] [holy7c02502:204975:0]          mpool.c:43   UCX  WARN  object 0x2f78e80 was not returned to mpool ucp_requests
[1621568519.470213] [holy7c02502:204975:0]          mpool.c:43   UCX  WARN  object 0x2f793c0 was not returned to mpool ucp_requests
[1621568519.481944] [holy7c02501:226761:0]          mpool.c:43   UCX  WARN  object 0x47a8480 was not returned to mpool ucp_requests
[1621568519.482046] [holy7c02501:226751:0]          mpool.c:43   UCX  WARN  object 0x3ef1000 was not returned to mpool ucp_requests
[1621568519.482076] [holy7c02501:226751:0]          mpool.c:43   UCX  WARN  object 0x3ef1700 was not returned to mpool ucp_requests
