
     Program PWSCF v.6.5 starts on 21May2021 at 21:18:58 

     This program is part of the open-source Quantum ESPRESSO suite
     for quantum simulation of materials; please cite
         "P. Giannozzi et al., J. Phys.:Condens. Matter 21 395502 (2009);
         "P. Giannozzi et al., J. Phys.:Condens. Matter 29 465901 (2017);
          URL http://www.quantum-espresso.org", 
     in publications or presentations arising from this work. More details at
     http://www.quantum-espresso.org/quote

     Parallel version (MPI), running on    20 processors

     MPI processes distributed on    15 nodes
     R & G space division:  proc/nbgrp/npool/nimage =      20
     Reading input from CBCO_CuO_cleave_1.5_sep.pwi
Warning: card &IONS ignored
Warning: card     ION_DYNAMICS = 'BFGS' ignored
Warning: card / ignored
Warning: card &CELL ignored
Warning: card     CELL_DYNAMICS = 'BFGS' ignored
Warning: card     PRESS_CONV_THR = 5 ignored
Warning: card / ignored

     Current dimensions of program PWSCF are:
     Max number of different atomic species (ntypx) = 10
     Max number of k-points (npk) =  40000
     Max angular momentum in pseudopotentials (lmaxx) =  3

     Subspace diagonalization in iterative solution of the eigenvalue problem:
     one sub-group per band group will be used
     scalapack distributed-memory algorithm (size of sub-group:  4*  4 procs)

     Message from routine setup:
     using ibrav=0 with symmetry is DISCOURAGED, use correct ibrav instead
 
     Parallelization info
     --------------------
     sticks:   dense  smooth     PW     G-vecs:    dense   smooth      PW
     Min         149      50     14                72573    13974    2182
     Max         150      51     15                72612    13999    2227
     Sum        2991    1007    289              1451873   279687   43947
 


     bravais-lattice index     =            0
     lattice parameter (alat)  =       7.4270  a.u.
     unit-cell volume          =    4450.3936 (a.u.)^3
     number of atoms/cell      =           28
     number of atomic types    =            4
     number of electrons       =       227.00
     number of Kohn-Sham states=          137
     kinetic-energy cutoff     =      60.0000  Ry
     charge density cutoff     =     720.0000  Ry
     convergence threshold     =      1.0E-08
     mixing beta               =       0.5000
     number of iterations used =           10  local-TF  mixing
     Exchange-correlation= SLA PW PBE PBE
                           (   1   4   3   4   0   0   0)

     celldm(1)=   7.427040  celldm(2)=   0.000000  celldm(3)=   0.000000
     celldm(4)=   0.000000  celldm(5)=   0.000000  celldm(6)=   0.000000

     crystal axes: (cart. coord. in units of alat)
               a(1) = (   1.000000   0.000000   0.000000 )  
               a(2) = (   0.000000   0.947081   0.000000 )  
               a(3) = (   0.000000   0.000000  11.470015 )  

     reciprocal axes: (cart. coord. in units 2 pi/alat)
               b(1) = (  1.000000  0.000000  0.000000 )  
               b(2) = (  0.000000  1.055876  0.000000 )  
               b(3) = (  0.000000  0.000000  0.087184 )  


     PseudoPot. # 1 for Ba read from file:
     ./pseudo/Ba.pbe-nsp-van.UPF
     MD5 check sum: 2b9c31dd849566dd297d80989662b7a0
     Pseudo is Ultrasoft + core correction, Zval = 10.0
     Generated by new atomic code, or converted to UPF format
     Using radial grid of  907 points,  6 beta functions with: 
                l(1) =   0
                l(2) =   0
                l(3) =   1
                l(4) =   1
                l(5) =   2
                l(6) =   2
     Q(r) pseudized with  6 coefficients,  rinner =    1.200   1.200   1.200
                                                       1.200   1.200

     PseudoPot. # 2 for Ca read from file:
     ./pseudo/Ca.pbe-nsp-van.UPF
     MD5 check sum: 6471098428ff4fa451746d08035ff179
     Pseudo is Ultrasoft + core correction, Zval = 10.0
     Generated by new atomic code, or converted to UPF format
     Using radial grid of  845 points,  6 beta functions with: 
                l(1) =   0
                l(2) =   0
                l(3) =   1
                l(4) =   1
                l(5) =   2
                l(6) =   2
     Q(r) pseudized with  6 coefficients,  rinner =    1.200   1.200   1.200
                                                       1.200   1.200

     PseudoPot. # 3 for Cu read from file:
     ./pseudo/Cu.pbe-n-van_ak.UPF
     MD5 check sum: 34e3282627ffb533726feb647e090d62
     Pseudo is Ultrasoft + core correction, Zval = 11.0
     Generated by new atomic code, or converted to UPF format
     Using radial grid of  867 points,  6 beta functions with: 
                l(1) =   0
                l(2) =   0
                l(3) =   1
                l(4) =   1
                l(5) =   2
                l(6) =   2
     Q(r) pseudized with  8 coefficients,  rinner =    1.400   1.400   1.400
                                                       1.400   1.400

     PseudoPot. # 4 for O  read from file:
     ./pseudo/O.pbe-van_ak.UPF
     MD5 check sum: 783ce7fe4c79b6a4916957118fed0856
     Pseudo is Ultrasoft, Zval =  6.0
     Generated by new atomic code, or converted to UPF format
     Using radial grid of  737 points,  4 beta functions with: 
                l(1) =   0
                l(2) =   0
                l(3) =   1
                l(4) =   1
     Q(r) pseudized with  8 coefficients,  rinner =    0.800   0.800   0.800


     atomic species   valence    mass     pseudopotential
        Ba            10.00   137.32700     Ba( 1.00)
        Ca            10.00    40.07800     Ca( 1.00)
        Cu            11.00    63.54600     Cu( 1.00)
        O              6.00    15.99900     O ( 1.00)

      4 Sym. Ops. (no inversion) found



   Cartesian axes

     site n.     atom                  positions (alat units)
         1           O   tau(   1) = (   0.0000000   0.4735409  -0.0469745  )
         2           Cu  tau(   2) = (   0.0000000   0.0000000   0.0264565  )
         3           O   tau(   3) = (   0.0000000   0.0000000   0.5030914  )
         4           Ba  tau(   4) = (   0.5000000   0.4735409   0.5690292  )
         5           Cu  tau(   5) = (   0.0000000   0.0000000   1.0374254  )
         6           O   tau(   6) = (   0.5000000   0.0000000   1.0768099  )
         7           O   tau(   7) = (   0.0000000   0.4735409   1.1116985  )
         8           Ca  tau(   8) = (   0.5000000   0.4735409   1.4976260  )
         9           O   tau(   9) = (   0.0000000   0.4735409   1.8667529  )
        10           O   tau(  10) = (   0.5000000   0.0000000   1.9044124  )
        11           Cu  tau(  11) = (   0.0000000   0.0000000   1.9512546  )
        12           Ba  tau(  12) = (   0.5000000   0.4735409   2.4295764  )
        13           O   tau(  13) = (   0.0000000   0.0000000   2.5115362  )
        14           O   tau(  14) = (   0.0000000   0.4735409   2.9918528  )
        15           Cu  tau(  15) = (   0.0000000   0.0000000   2.9919088  )
        16           O   tau(  16) = (   0.0000000   0.0000000   3.8539266  )
        17           Ba  tau(  17) = (   0.5000000   0.4735409   3.9358788  )
        18           Cu  tau(  18) = (   0.0000000   0.0000000   4.4141828  )
        19           O   tau(  19) = (   0.5000000   0.0000000   4.4610249  )
        20           O   tau(  20) = (   0.0000000   0.4735409   4.4986793  )
        21           Ca  tau(  21) = (   0.5000000   0.4735409   4.8678164  )
        22           O   tau(  22) = (   0.0000000   0.4735409   5.2537414  )
        23           O   tau(  23) = (   0.5000000   0.0000000   5.2886300  )
        24           Cu  tau(  24) = (   0.0000000   0.0000000   5.3280171  )
        25           Ba  tau(  25) = (   0.5000000   0.4735409   5.7964107  )
        26           O   tau(  26) = (   0.0000000   0.0000000   5.8623383  )
        27           Cu  tau(  27) = (   0.0000000   0.0000000   6.3389783  )
        28           O   tau(  28) = (   0.0000000   0.4735409   6.4123966  )

     number of k points=    25  Gaussian smearing, width (Ry)=  0.0100
                       cart. coord. in units 2pi/alat
        k(    1) = (   0.0000000   0.0000000   0.0000000), wk =   0.0312500
        k(    2) = (   0.0000000   0.1319845   0.0000000), wk =   0.0625000
        k(    3) = (   0.0000000   0.2639689   0.0000000), wk =   0.0625000
        k(    4) = (   0.0000000   0.3959534   0.0000000), wk =   0.0625000
        k(    5) = (   0.0000000  -0.5279378   0.0000000), wk =   0.0312500
        k(    6) = (   0.1250000   0.0000000   0.0000000), wk =   0.0625000
        k(    7) = (   0.1250000   0.1319845   0.0000000), wk =   0.1250000
        k(    8) = (   0.1250000   0.2639689   0.0000000), wk =   0.1250000
        k(    9) = (   0.1250000   0.3959534   0.0000000), wk =   0.1250000
        k(   10) = (   0.1250000  -0.5279378   0.0000000), wk =   0.0625000
        k(   11) = (   0.2500000   0.0000000   0.0000000), wk =   0.0625000
        k(   12) = (   0.2500000   0.1319845   0.0000000), wk =   0.1250000
        k(   13) = (   0.2500000   0.2639689   0.0000000), wk =   0.1250000
        k(   14) = (   0.2500000   0.3959534   0.0000000), wk =   0.1250000
        k(   15) = (   0.2500000  -0.5279378   0.0000000), wk =   0.0625000
        k(   16) = (   0.3750000   0.0000000   0.0000000), wk =   0.0625000
        k(   17) = (   0.3750000   0.1319845   0.0000000), wk =   0.1250000
        k(   18) = (   0.3750000   0.2639689   0.0000000), wk =   0.1250000
        k(   19) = (   0.3750000   0.3959534   0.0000000), wk =   0.1250000
        k(   20) = (   0.3750000  -0.5279378   0.0000000), wk =   0.0625000
        k(   21) = (  -0.5000000   0.0000000   0.0000000), wk =   0.0312500
        k(   22) = (  -0.5000000   0.1319845   0.0000000), wk =   0.0625000
        k(   23) = (  -0.5000000   0.2639689   0.0000000), wk =   0.0625000
        k(   24) = (  -0.5000000   0.3959534   0.0000000), wk =   0.0625000
        k(   25) = (  -0.5000000  -0.5279378   0.0000000), wk =   0.0312500

     Dense  grid:  1451873 G-vectors     FFT dimensions: (  64,  64, 729)

     Smooth grid:   279687 G-vectors     FFT dimensions: (  40,  36, 432)

     Estimated max dynamical RAM per process >     463.32 MB

     Estimated total dynamical RAM >       9.05 GB

     Initial potential from superposition of free atoms

     starting charge  226.84630, renormalised to  227.00000

     negative rho (up, down):  3.464E-03 0.000E+00
     Starting wfcs are  195 randomized atomic wfcs

     total cpu time spent up to now is       10.1 secs

     Self-consistent Calculation

     iteration #  1     ecut=    60.00 Ry     beta= 0.50
     Davidson diagonalization with overlap
     ethr =  1.00E-02,  avg # of iterations =  2.0

     negative rho (up, down):  4.955E-04 0.000E+00

     total cpu time spent up to now is       25.8 secs

     total energy              =   -1840.75768615 Ry
     Harris-Foulkes estimate   =   -1845.33451263 Ry
     estimated scf accuracy    <      18.76552888 Ry

     iteration #  2     ecut=    60.00 Ry     beta= 0.50
     Davidson diagonalization with overlap
     ethr =  8.27E-03,  avg # of iterations =  2.0

     negative rho (up, down):  2.743E-04 0.000E+00

     total cpu time spent up to now is       41.5 secs

     total energy              =   -1842.41479952 Ry
     Harris-Foulkes estimate   =   -1843.31171419 Ry
     estimated scf accuracy    <       5.80450759 Ry

     iteration #  3     ecut=    60.00 Ry     beta= 0.50
     Davidson diagonalization with overlap
     ethr =  2.56E-03,  avg # of iterations =  1.4

     negative rho (up, down):  2.537E-04 0.000E+00

     total cpu time spent up to now is       56.1 secs

     total energy              =   -1842.76735957 Ry
     Harris-Foulkes estimate   =   -1843.00819613 Ry
     estimated scf accuracy    <       6.00594265 Ry

     iteration #  4     ecut=    60.00 Ry     beta= 0.50
     Davidson diagonalization with overlap
     ethr =  2.56E-03,  avg # of iterations =  1.0

     negative rho (up, down):  2.490E-04 0.000E+00

     total cpu time spent up to now is       70.1 secs

     total energy              =   -1842.84060566 Ry
     Harris-Foulkes estimate   =   -1842.89820414 Ry
     estimated scf accuracy    <       1.94772219 Ry

     iteration #  5     ecut=    60.00 Ry     beta= 0.50
     Davidson diagonalization with overlap
     ethr =  8.58E-04,  avg # of iterations =  1.0

     negative rho (up, down):  2.410E-04 0.000E+00

     total cpu time spent up to now is       84.3 secs

     total energy              =   -1842.81596756 Ry
     Harris-Foulkes estimate   =   -1842.87281210 Ry
     estimated scf accuracy    <       0.47507062 Ry

     iteration #  6     ecut=    60.00 Ry     beta= 0.50
     Davidson diagonalization with overlap
     ethr =  2.09E-04,  avg # of iterations =  4.8

     negative rho (up, down):  2.343E-04 0.000E+00

     total cpu time spent up to now is      103.1 secs

     total energy              =   -1842.81485875 Ry
     Harris-Foulkes estimate   =   -1842.84256114 Ry
     estimated scf accuracy    <       1.39197428 Ry

     iteration #  7     ecut=    60.00 Ry     beta= 0.50
     Davidson diagonalization with overlap
     ethr =  2.09E-04,  avg # of iterations =  1.8

     negative rho (up, down):  2.318E-04 0.000E+00

     total cpu time spent up to now is      118.3 secs

     total energy              =   -1842.80954741 Ry
     Harris-Foulkes estimate   =   -1842.82405443 Ry
     estimated scf accuracy    <       0.60153937 Ry

     iteration #  8     ecut=    60.00 Ry     beta= 0.50
     Davidson diagonalization with overlap
     ethr =  2.09E-04,  avg # of iterations =  1.0

     negative rho (up, down):  2.313E-04 0.000E+00

     total cpu time spent up to now is      132.3 secs

     total energy              =   -1842.80972503 Ry
     Harris-Foulkes estimate   =   -1842.81729537 Ry
     estimated scf accuracy    <       0.38450091 Ry

     iteration #  9     ecut=    60.00 Ry     beta= 0.50
     Davidson diagonalization with overlap
     ethr =  1.69E-04,  avg # of iterations =  1.4

     negative rho (up, down):  2.319E-04 0.000E+00

     total cpu time spent up to now is      147.1 secs

     total energy              =   -1842.80983794 Ry
     Harris-Foulkes estimate   =   -1842.81317272 Ry
     estimated scf accuracy    <       0.15459650 Ry

     iteration # 10     ecut=    60.00 Ry     beta= 0.50
     Davidson diagonalization with overlap
     ethr =  6.81E-05,  avg # of iterations =  6.6

     negative rho (up, down):  2.332E-04 0.000E+00

     total cpu time spent up to now is      167.9 secs

     total energy              =   -1842.80853053 Ry
     Harris-Foulkes estimate   =   -1842.81117282 Ry
     estimated scf accuracy    <       0.10525754 Ry

     iteration # 11     ecut=    60.00 Ry     beta= 0.50
     Davidson diagonalization with overlap
     ethr =  4.64E-05,  avg # of iterations =  3.1

     negative rho (up, down):  2.360E-04 0.000E+00

     total cpu time spent up to now is      184.3 secs

     total energy              =   -1842.80580777 Ry
     Harris-Foulkes estimate   =   -1842.80930092 Ry
     estimated scf accuracy    <       0.11470405 Ry

     iteration # 12     ecut=    60.00 Ry     beta= 0.50
     Davidson diagonalization with overlap
     ethr =  4.64E-05,  avg # of iterations =  3.7

     negative rho (up, down):  2.359E-04 0.000E+00

     total cpu time spent up to now is      201.2 secs

     total energy              =   -1842.80537015 Ry
     Harris-Foulkes estimate   =   -1842.80645187 Ry
     estimated scf accuracy    <       0.06745264 Ry

     iteration # 13     ecut=    60.00 Ry     beta= 0.50
     Davidson diagonalization with overlap
     ethr =  2.97E-05,  avg # of iterations =  2.0

     negative rho (up, down):  5.221E-04 0.000E+00

     total cpu time spent up to now is      216.3 secs

     total energy              =   -1842.80412463 Ry
     Harris-Foulkes estimate   =   -1842.80560539 Ry
     estimated scf accuracy    <       0.05562195 Ry

     iteration # 14     ecut=    60.00 Ry     beta= 0.50
     Davidson diagonalization with overlap
     ethr =  2.45E-05,  avg # of iterations =  3.6

     negative rho (up, down):  9.300E-03 0.000E+00

     total cpu time spent up to now is      233.2 secs

     total energy              =   -1842.80296775 Ry
     Harris-Foulkes estimate   =   -1842.80430796 Ry
     estimated scf accuracy    <       0.05364577 Ry

     iteration # 15     ecut=    60.00 Ry     beta= 0.50
     Davidson diagonalization with overlap
     ethr =  2.36E-05,  avg # of iterations =  5.7

     negative rho (up, down):  1.071E-02 0.000E+00

     total cpu time spent up to now is      252.6 secs

     total energy              =   -1842.80243708 Ry
     Harris-Foulkes estimate   =   -1842.80320520 Ry
     estimated scf accuracy    <       0.04368109 Ry

     iteration # 16     ecut=    60.00 Ry     beta= 0.50
     Davidson diagonalization with overlap
     ethr =  1.92E-05,  avg # of iterations =  2.3

     negative rho (up, down):  2.000E-02 0.000E+00

     total cpu time spent up to now is      267.8 secs

     total energy              =   -1842.80093313 Ry
     Harris-Foulkes estimate   =   -1842.80257730 Ry
     estimated scf accuracy    <       0.01971981 Ry

     iteration # 17     ecut=    60.00 Ry     beta= 0.50
     Davidson diagonalization with overlap
     ethr =  8.69E-06,  avg # of iterations =  8.6

     negative rho (up, down):  1.915E-02 0.000E+00

     total cpu time spent up to now is      291.8 secs

     total energy              =   -1842.80073881 Ry
     Harris-Foulkes estimate   =   -1842.80136233 Ry
     estimated scf accuracy    <       0.00975693 Ry

     iteration # 18     ecut=    60.00 Ry     beta= 0.50
     Davidson diagonalization with overlap
     ethr =  4.30E-06,  avg # of iterations =  5.1

     negative rho (up, down):  1.778E-02 0.000E+00

     total cpu time spent up to now is      310.6 secs

     total energy              =   -1842.80043097 Ry
     Harris-Foulkes estimate   =   -1842.80084661 Ry
     estimated scf accuracy    <       0.00381261 Ry

     iteration # 19     ecut=    60.00 Ry     beta= 0.50
     Davidson diagonalization with overlap
     ethr =  1.68E-06,  avg # of iterations =  8.3

     negative rho (up, down):  1.440E-02 0.000E+00

     total cpu time spent up to now is      333.5 secs

     total energy              =   -1842.79982374 Ry
     Harris-Foulkes estimate   =   -1842.80048908 Ry
     estimated scf accuracy    <       0.00304243 Ry

     iteration # 20     ecut=    60.00 Ry     beta= 0.50
     Davidson diagonalization with overlap
     ethr =  1.34E-06,  avg # of iterations =  8.0

     negative rho (up, down):  8.208E-03 0.000E+00

     total cpu time spent up to now is      357.0 secs

     total energy              =   -1842.79966491 Ry
     Harris-Foulkes estimate   =   -1842.79988668 Ry
     estimated scf accuracy    <       0.00126161 Ry

     iteration # 21     ecut=    60.00 Ry     beta= 0.50
     Davidson diagonalization with overlap
     ethr =  5.56E-07,  avg # of iterations =  6.6

     negative rho (up, down):  4.709E-03 0.000E+00

     total cpu time spent up to now is      378.3 secs

     total energy              =   -1842.79964752 Ry
     Harris-Foulkes estimate   =   -1842.79968655 Ry
     estimated scf accuracy    <       0.00035136 Ry

     iteration # 22     ecut=    60.00 Ry     beta= 0.50
     Davidson diagonalization with overlap
     c_bands:  1 eigenvalues not converged
     ethr =  1.55E-07,  avg # of iterations =  5.6

     negative rho (up, down):  2.068E-03 0.000E+00

     total cpu time spent up to now is      397.8 secs

     total energy              =   -1842.79965271 Ry
     Harris-Foulkes estimate   =   -1842.79965524 Ry
     estimated scf accuracy    <       0.00014590 Ry

     iteration # 23     ecut=    60.00 Ry     beta= 0.50
     Davidson diagonalization with overlap
     c_bands:  1 eigenvalues not converged
     c_bands:  1 eigenvalues not converged
     ethr =  6.43E-08,  avg # of iterations =  8.0

     negative rho (up, down):  1.956E-03 0.000E+00

     total cpu time spent up to now is      420.5 secs

     total energy              =   -1842.79968275 Ry
     Harris-Foulkes estimate   =   -1842.79965967 Ry
     estimated scf accuracy    <       0.00004932 Ry

     iteration # 24     ecut=    60.00 Ry     beta= 0.50
     Davidson diagonalization with overlap
     c_bands:  1 eigenvalues not converged
     ethr =  2.17E-08,  avg # of iterations =  4.0

     negative rho (up, down):  1.471E-03 0.000E+00

     total cpu time spent up to now is      438.2 secs

     total energy              =   -1842.79969157 Ry
     Harris-Foulkes estimate   =   -1842.79968500 Ry
     estimated scf accuracy    <       0.00004214 Ry

     iteration # 25     ecut=    60.00 Ry     beta= 0.50
     Davidson diagonalization with overlap
     ethr =  1.86E-08,  avg # of iterations =  4.2

     negative rho (up, down):  1.286E-03 0.000E+00

     total cpu time spent up to now is      455.5 secs

     total energy              =   -1842.79969421 Ry
     Harris-Foulkes estimate   =   -1842.79969230 Ry
     estimated scf accuracy    <       0.00001460 Ry

     iteration # 26     ecut=    60.00 Ry     beta= 0.50
     Davidson diagonalization with overlap
     ethr =  6.43E-09,  avg # of iterations =  1.8

     negative rho (up, down):  1.392E-03 0.000E+00

     total cpu time spent up to now is      470.5 secs

     total energy              =   -1842.79969461 Ry
     Harris-Foulkes estimate   =   -1842.79969479 Ry
     estimated scf accuracy    <       0.00000598 Ry

     iteration # 27     ecut=    60.00 Ry     beta= 0.50
     Davidson diagonalization with overlap
     ethr =  2.64E-09,  avg # of iterations =  1.9

     negative rho (up, down):  1.395E-03 0.000E+00

     total cpu time spent up to now is      485.6 secs

     total energy              =   -1842.79969495 Ry
     Harris-Foulkes estimate   =   -1842.79969500 Ry
     estimated scf accuracy    <       0.00000446 Ry

     iteration # 28     ecut=    60.00 Ry     beta= 0.50
     Davidson diagonalization with overlap
     ethr =  1.97E-09,  avg # of iterations =  1.0

     negative rho (up, down):  1.391E-03 0.000E+00

     total cpu time spent up to now is      499.7 secs

     total energy              =   -1842.79969502 Ry
     Harris-Foulkes estimate   =   -1842.79969505 Ry
     estimated scf accuracy    <       0.00000341 Ry

     iteration # 29     ecut=    60.00 Ry     beta= 0.50
     Davidson diagonalization with overlap
     ethr =  1.50E-09,  avg # of iterations =  1.0

     negative rho (up, down):  1.441E-03 0.000E+00

     total cpu time spent up to now is      514.0 secs

     total energy              =   -1842.79969491 Ry
     Harris-Foulkes estimate   =   -1842.79969505 Ry
     estimated scf accuracy    <       0.00000204 Ry

     iteration # 30     ecut=    60.00 Ry     beta= 0.50
     Davidson diagonalization with overlap
     ethr =  8.98E-10,  avg # of iterations =  1.2

     negative rho (up, down):  1.471E-03 0.000E+00

     total cpu time spent up to now is      528.2 secs

     total energy              =   -1842.79969489 Ry
     Harris-Foulkes estimate   =   -1842.79969495 Ry
     estimated scf accuracy    <       0.00000035 Ry

     iteration # 31     ecut=    60.00 Ry     beta= 0.50
     Davidson diagonalization with overlap
     ethr =  1.53E-10,  avg # of iterations =  3.1

     negative rho (up, down):  1.488E-03 0.000E+00

     total cpu time spent up to now is      544.8 secs

     total energy              =   -1842.79969488 Ry
     Harris-Foulkes estimate   =   -1842.79969491 Ry
     estimated scf accuracy    <       0.00000022 Ry

     iteration # 32     ecut=    60.00 Ry     beta= 0.50
     Davidson diagonalization with overlap
     ethr =  9.89E-11,  avg # of iterations =  1.2

     negative rho (up, down):  1.518E-03 0.000E+00

     total cpu time spent up to now is      559.1 secs

     total energy              =   -1842.79969483 Ry
     Harris-Foulkes estimate   =   -1842.79969488 Ry
     estimated scf accuracy    <       0.00000010 Ry

     iteration # 33     ecut=    60.00 Ry     beta= 0.50
     Davidson diagonalization with overlap
     ethr =  4.30E-11,  avg # of iterations =  2.5

     negative rho (up, down):  1.521E-03 0.000E+00

     total cpu time spent up to now is      574.7 secs

     total energy              =   -1842.79969483 Ry
     Harris-Foulkes estimate   =   -1842.79969483 Ry
     estimated scf accuracy    <       0.00000008 Ry

     iteration # 34     ecut=    60.00 Ry     beta= 0.50
     Davidson diagonalization with overlap
     ethr =  3.42E-11,  avg # of iterations =  1.0

     negative rho (up, down):  1.528E-03 0.000E+00

     total cpu time spent up to now is      588.8 secs

     total energy              =   -1842.79969482 Ry
     Harris-Foulkes estimate   =   -1842.79969483 Ry
     estimated scf accuracy    <       0.00000003 Ry

     iteration # 35     ecut=    60.00 Ry     beta= 0.50
     Davidson diagonalization with overlap
     ethr =  1.19E-11,  avg # of iterations =  1.3

     negative rho (up, down):  1.532E-03 0.000E+00

     total cpu time spent up to now is      602.7 secs

     End of self-consistent calculation

          k = 0.0000 0.0000 0.0000 ( 35029 PWs)   bands (ev):

   -35.7811 -35.7560 -22.9418 -22.9385 -22.7819 -22.6961 -17.2822 -17.2616
   -16.8328 -16.8221 -16.8091 -16.7953 -15.4806 -15.4686 -14.8271 -14.8213
   -14.8063 -14.7553 -14.7417 -14.3291 -14.3264 -14.1521 -14.1393 -14.0432
   -14.0132 -13.9967 -12.8772  -8.0741  -8.0703  -8.0352  -8.0322  -7.9265
    -7.9167  -7.8425  -7.8425  -7.8392  -7.6748  -7.6700  -7.4782  -2.4760
    -2.4754  -2.1310  -1.9979  -1.9966  -1.9749  -1.9702  -1.8451  -1.8277
    -1.7321  -1.7104  -1.6784  -1.6667  -1.3668  -1.3629  -1.0206  -0.6056
    -0.6034  -0.5324  -0.5262  -0.5218  -0.4943  -0.4690  -0.4532  -0.4344
    -0.4331  -0.4172  -0.4121  -0.4099  -0.4022  -0.3598  -0.3370  -0.2022
    -0.1863  -0.1833  -0.0801  -0.0647  -0.0572  -0.0514  -0.0471  -0.0442
    -0.0055   0.0056   0.0178   0.0277   0.0609   0.0894   0.1382   0.1819
     0.3609   0.6312   0.7024   0.7339   0.7369   0.7787   0.8176   1.0148
     1.0198   1.1775   1.1987   1.2105   1.2264   1.3118   1.3331   1.3526
     1.3641   1.3805   1.3863   1.6451   1.6702   1.7261   1.8801   1.8923
     1.9405   2.0661   2.1773   2.2060   2.2878   2.3854   2.3987   4.9751
     5.0713   5.0990   5.9975   6.0988   6.5977   6.6095   6.7451   6.9077
     7.8191   7.8857   8.0594   8.0712   8.3801   8.4467   8.5318   8.5842
     8.9798

          k = 0.0000 0.1320 0.0000 ( 34975 PWs)   bands (ev):

   -35.7792 -35.7542 -22.9151 -22.9118 -22.7562 -22.6726 -17.2462 -17.2255
   -16.8944 -16.8677 -16.8304 -16.8068 -15.3915 -15.3800 -14.8326 -14.8274
   -14.7670 -14.7279 -14.7119 -14.3392 -14.3357 -14.1557 -14.1410 -14.0983
   -14.0404 -14.0398 -12.9362  -8.0736  -8.0697  -7.9874  -7.9844  -7.9260
    -7.9157  -7.8841  -7.8808  -7.7968  -7.7198  -7.6347  -7.5104  -2.5371
    -2.5351  -2.3700  -2.3512  -2.2729  -2.2553  -2.1115  -1.8230  -1.8072
    -1.7916  -1.7875  -1.7152  -1.6943  -1.6061  -1.5032  -1.5000  -0.8633
    -0.7884  -0.7674  -0.7035  -0.7010  -0.6141  -0.6103  -0.5591  -0.5586
    -0.4602  -0.4306  -0.3738  -0.3413  -0.3249  -0.3145  -0.2943  -0.2913
    -0.2791  -0.1647  -0.1616  -0.1572  -0.1509  -0.0753  -0.0618  -0.0379
    -0.0238  -0.0231  -0.0006   0.0688   0.1235   0.1423   0.1827   0.2125
     0.6104   0.7877   0.8393   0.9074   0.9308   0.9336   0.9822   0.9832
     1.0059   1.0136   1.0247   1.2654   1.2896   1.3093   1.3160   1.4123
     1.4261   1.4424   1.5314   1.6140   1.6551   1.7028   1.8141   1.8509
     1.8913   2.0486   2.0641   2.3860   2.4493   2.6746   2.6774   5.3195
     5.4466   5.4518   6.3079   6.3731   6.9060   6.9160   7.0423   7.2252
     7.9943   8.0988   8.2558   8.2808   8.5697   8.6575   8.7098   8.7940
     9.0607

          k = 0.0000 0.2640 0.0000 ( 34841 PWs)   bands (ev):

   -35.7748 -35.7498 -22.8493 -22.8459 -22.6928 -22.6146 -17.1547 -17.1338
   -17.0481 -17.0218 -16.8248 -16.8011 -15.1876 -15.1778 -14.8871 -14.8785
   -14.7106 -14.6409 -14.6376 -14.3282 -14.3222 -14.2179 -14.1847 -14.1788
   -14.1270 -14.0856 -13.0719  -8.0729  -8.0692  -7.9752  -7.9718  -7.9245
    -7.9122  -7.8670  -7.8640  -7.8267  -7.6818  -7.5784  -7.5348  -2.9945
    -2.9865  -2.8464  -2.8238  -2.5960  -2.5758  -2.5735  -2.4276  -2.4251
    -2.1147  -1.7646  -1.7530  -1.6811  -1.6600  -1.6499  -1.6418  -1.4066
    -1.1794  -1.0885  -0.9563  -0.9533  -0.8288  -0.8164  -0.7577  -0.7357
    -0.7027  -0.7026  -0.6786  -0.6448  -0.6414  -0.6328  -0.5614  -0.5203
    -0.3643  -0.1363  -0.1330  -0.1026  -0.0723  -0.0561  -0.0232  -0.0095
     0.0576   0.0939   0.2012   0.2315   0.4405   0.4447   0.5419   0.5595
     0.7880   0.8051   0.8148   0.9712   0.9811   1.0164   1.0186   1.0633
     1.0742   1.1368   1.1383   1.1717   1.2573   1.3839   1.4054   1.5066
     1.6016   1.6249   1.7079   1.7179   1.7820   1.7919   1.8167   1.8260
     1.8296   1.9196   2.0078   2.5181   2.8362   2.9022   2.9464   6.0974
     6.3396   6.3423   7.1022   7.1287   7.7315   7.7397   7.8340   8.0933
     8.4960   8.6021   8.6700   8.6954   8.8650   8.8715   9.0503   9.1214
     9.1467

          k = 0.0000 0.3960 0.0000 ( 34822 PWs)   bands (ev):

   -35.7704 -35.7454 -22.7811 -22.7778 -22.6272 -22.5549 -17.1848 -17.1582
   -17.0528 -17.0322 -16.8191 -16.7955 -15.0855 -15.0833 -14.8789 -14.8507
   -14.7314 -14.5750 -14.5166 -14.2851 -14.2777 -14.2678 -14.2629 -14.2395
   -14.1986 -14.1386 -13.1956  -8.0728  -8.0692  -8.0533  -8.0500  -7.9374
    -7.9184  -7.8955  -7.7386  -7.7355  -7.6351  -7.5597  -7.4298  -3.4525
    -3.4432  -3.3717  -3.2625  -3.2476  -3.1432  -3.1396  -2.5182  -2.5173
    -2.1437  -1.9933  -1.9685  -1.7864  -1.6950  -1.6880  -1.5628  -1.5502
    -1.4182  -1.3032  -1.2268  -1.2233  -1.0701  -1.0429  -1.0290  -0.9760
    -0.9672  -0.9342  -0.9054  -0.8900  -0.8760  -0.8323  -0.6007  -0.5405
    -0.3424  -0.1925  -0.1192  -0.1158  -0.0671  -0.0242  -0.0163   0.0064
     0.0247   0.0513   0.3190   0.3526   0.6011   0.6157   0.7687   0.7722
     0.7927   0.8141   0.8764   0.9004   0.9201   0.9701   0.9882   0.9902
     1.0784   1.2288   1.3865   1.4533   1.4586   1.5430   1.5454   1.5557
     1.5617   1.6292   1.7284   1.8017   1.8041   1.8644   1.9798   2.0603
     2.2204   2.2238   2.2331   2.4593   2.7558   2.8036   3.0228   6.9735
     7.2857   7.2888   8.0378   8.0741   8.4238   8.5279   8.5338   8.6516
     8.8921   8.9025   8.9137   8.9424   9.1135   9.2662   9.2964   9.3392
     9.5331

          k = 0.0000-0.5279 0.0000 ( 34886 PWs)   bands (ev):

   -35.7686 -35.7436 -22.7522 -22.7488 -22.5995 -22.5297 -17.2368 -17.2103
   -17.0082 -16.9875 -16.8168 -16.7931 -15.1268 -15.1232 -14.8032 -14.7454
   -14.7443 -14.5550 -14.4564 -14.3250 -14.3164 -14.2687 -14.2291 -14.2203
   -14.2177 -14.2013 -13.2431  -8.0829  -8.0796  -8.0725  -8.0688  -7.9666
    -7.9188  -7.8984  -7.6827  -7.6796  -7.6560  -7.5067  -7.3847  -3.6496
    -3.6205  -3.6142  -3.4318  -3.4272  -3.3723  -3.3688  -2.5343  -2.5335
    -2.1536  -2.1176  -2.0960  -1.9217  -1.6602  -1.6554  -1.5157  -1.4793
    -1.4735  -1.3941  -1.3533  -1.3480  -1.1966  -1.1638  -1.1481  -1.0861
    -1.0570  -1.0106  -0.9840  -0.9810  -0.9537  -0.9186  -0.5867  -0.5058
    -0.3077  -0.2428  -0.1135  -0.1101  -0.0989  -0.0186   0.0043   0.0114
     0.0208   0.0699   0.2408   0.2595   0.6439   0.6539   0.6879   0.7001
     0.8437   0.8650   0.8739   0.9273   0.9711   0.9732   1.0509   1.1069
     1.1285   1.1501   1.3396   1.4707   1.5378   1.5563   1.5612   1.7015
     1.8285   1.8337   1.8384   1.8394   1.8491   1.8907   1.8977   2.2923
     2.2959   2.3820   2.3854   2.4112   2.5768   2.6362   2.9821   7.5102
     7.6971   7.7010   8.2306   8.4527   8.7403   8.7754   8.8080   8.8176
     8.8263   8.8298   9.1461   9.1600   9.1694   9.2729   9.5912   9.7484
     9.8051

          k = 0.1250 0.0000 0.0000 ( 34971 PWs)   bands (ev):

   -35.7800 -35.7549 -22.9238 -22.9204 -22.7644 -22.6809 -17.2489 -17.2281
   -16.9125 -16.8900 -16.8207 -16.7939 -15.3777 -15.3649 -14.8722 -14.8675
   -14.8331 -14.7599 -14.7467 -14.3381 -14.3352 -14.1620 -14.1504 -14.0630
   -14.0397 -14.0170 -12.9468  -8.0996  -8.0958  -7.9745  -7.9705  -7.9643
    -7.9207  -7.8100  -7.8068  -7.7756  -7.6391  -7.6256  -7.4516  -2.5193
    -2.5182  -2.2052  -2.0286  -2.0254  -1.9949  -1.9797  -1.9787  -1.9725
    -1.9420  -1.9378  -1.6440  -1.6289  -1.3648  -1.3608  -1.0476  -0.8012
    -0.7956  -0.6645  -0.6597  -0.6095  -0.6040  -0.5923  -0.5049  -0.4873
    -0.4852  -0.4387  -0.4387  -0.4369  -0.3840  -0.3737  -0.3354  -0.3224
    -0.2276  -0.1962  -0.0740  -0.0544  -0.0515  -0.0158  -0.0023   0.0285
     0.0422   0.0461   0.0575   0.0750   0.1361   0.1557   0.2107   0.2788
     0.3687   0.6399   0.6484   0.6532   0.7407   0.8128   0.8609   0.9994
     1.0179   1.0544   1.0631   1.1911   1.2156   1.3221   1.3279   1.3320
     1.3942   1.4220   1.6632   1.7233   1.8085   1.8274   1.8443   1.8878
     1.8895   2.0604   2.1144   2.1905   2.2682   2.4213   2.4315   5.1603
     5.2510   5.2608   6.2282   6.3008   6.8136   6.8257   6.9464   7.1432
     7.9630   8.0169   8.2072   8.2282   8.6120   8.6311   8.6938   8.7925
     9.1618

          k = 0.1250 0.1320 0.0000 ( 34962 PWs)   bands (ev):

   -35.7782 -35.7531 -22.8979 -22.8946 -22.7394 -22.6579 -17.2140 -17.1931
   -16.9157 -16.8923 -16.8836 -16.8577 -15.2956 -15.2834 -14.8680 -14.8626
   -14.7925 -14.7278 -14.7152 -14.3394 -14.3360 -14.1626 -14.1523 -14.1113
   -14.0639 -14.0574 -12.9880  -8.1183  -8.1149  -8.0365  -8.0328  -7.9649
    -7.9196  -7.8618  -7.7720  -7.7689  -7.7133  -7.6029  -7.4084  -2.5744
    -2.5717  -2.3769  -2.3435  -2.2593  -2.2329  -2.1401  -2.0071  -2.0036
    -1.9666  -1.9514  -1.7857  -1.7816  -1.6178  -1.4954  -1.4915  -0.9924
    -0.9609  -0.8591  -0.8261  -0.8182  -0.7551  -0.7523  -0.6516  -0.6487
    -0.5631  -0.4422  -0.4250  -0.3946  -0.3594  -0.3389  -0.3356  -0.2885
    -0.2400  -0.2182  -0.1878  -0.1468  -0.1460  -0.0468  -0.0092   0.0071
     0.0189   0.0249   0.0846   0.1027   0.1462   0.1715   0.3348   0.3717
     0.6359   0.8598   0.8816   0.8930   0.9310   0.9796   0.9834   1.0530
     1.0687   1.0903   1.1011   1.1310   1.1397   1.1592   1.1835   1.4389
     1.4463   1.4515   1.5110   1.5145   1.5759   1.7173   1.9112   2.1782
     2.1972   2.2432   2.3009   2.4435   2.4611   2.6797   2.6835   5.4496
     5.5885   5.5915   6.4902   6.5392   7.1143   7.1235   7.2305   7.4531
     8.1357   8.2118   8.3905   8.4097   8.7180   8.7821   8.8410   8.9773
     9.1133

          k = 0.1250 0.2640 0.0000 ( 34855 PWs)   bands (ev):

   -35.7738 -35.7487 -22.8341 -22.8307 -22.6779 -22.6014 -17.1255 -17.1044
   -17.0449 -17.0187 -16.8953 -16.8725 -15.1140 -15.1043 -14.8791 -14.8675
   -14.7180 -14.6383 -14.6337 -14.3231 -14.3184 -14.2234 -14.2009 -14.1930
   -14.1242 -14.0925 -13.0844  -8.1870  -8.1838  -8.0737  -8.0699  -8.0165
    -7.9239  -7.9143  -7.8101  -7.7629  -7.7597  -7.6003  -7.4057  -3.0194
    -3.0103  -2.8513  -2.8274  -2.5874  -2.5763  -2.5741  -2.4271  -2.4244
    -2.1569  -1.9572  -1.9503  -1.9160  -1.9002  -1.6764  -1.6525  -1.4186
    -1.1924  -1.1468  -1.1335  -1.1054  -1.0636  -1.0584  -0.8444  -0.8405
    -0.7878  -0.7407  -0.7094  -0.6676  -0.6530  -0.5860  -0.5561  -0.5278
    -0.4253  -0.3077  -0.2665  -0.1550  -0.1163   0.0288   0.0518   0.0887
     0.1928   0.2830   0.3151   0.3435   0.5802   0.6000   0.6242   0.6344
     0.8548   0.8755   0.8944   0.9383   0.9462   1.0476   1.1251   1.1280
     1.1681   1.1708   1.2438   1.2469   1.3055   1.3489   1.3915   1.3973
     1.4750   1.4763   1.5175   1.7704   1.7918   1.7934   1.8862   2.2483
     2.3688   2.3949   2.4698   2.6414   2.8367   2.9136   2.9575   6.1523
     6.4005   6.4032   7.1842   7.2066   7.9002   7.9045   7.9556   8.2931
     8.6063   8.6570   8.7097   8.7496   8.8734   8.9103   8.9736   9.0252
     9.1103

          k = 0.1250 0.3960 0.0000 ( 34872 PWs)   bands (ev):

   -35.7694 -35.7443 -22.7682 -22.7648 -22.6145 -22.5433 -17.1797 -17.1531
   -17.0266 -17.0057 -16.8867 -16.8639 -15.0496 -15.0475 -14.8138 -14.7749
   -14.6957 -14.5602 -14.5077 -14.3142 -14.3120 -14.2673 -14.2550 -14.2331
   -14.1831 -14.1304 -13.1743  -8.2174  -8.2141  -8.0855  -8.0814  -8.0757
    -7.9235  -7.9136  -7.8156  -7.8079  -7.8048  -7.6388  -7.4754  -3.4951
    -3.4857  -3.3694  -3.2861  -3.2677  -3.1345  -3.1309  -2.5266  -2.5256
    -2.1761  -1.9467  -1.9411  -1.8523  -1.8235  -1.8221  -1.7879  -1.6529
    -1.4887  -1.4832  -1.3723  -1.3531  -1.3477  -1.2744  -1.0661  -1.0472
    -1.0189  -1.0141  -0.9578  -0.9064  -0.9047  -0.7710  -0.5984  -0.5486
    -0.4447  -0.3418  -0.2918  -0.1303  -0.0700   0.0540   0.0578   0.1179
     0.2127   0.3029   0.4938   0.5293   0.7445   0.7535   0.7889   0.8104
     0.8854   0.8944   0.9020   0.9865   1.0028   1.0782   1.0820   1.0949
     1.2163   1.2542   1.4755   1.4811   1.5351   1.5546   1.5802   1.6292
     1.6548   1.7022   1.7082   1.9580   2.1872   2.1900   2.1915   2.2243
     2.3192   2.3428   2.4509   2.5767   2.7813   2.8630   3.0352   6.9146
     7.1497   7.1532   7.8984   7.9427   8.2840   8.5099   8.5144   8.6329
     8.7329   8.7730   9.1943   9.2077   9.2379   9.3863   9.4249   9.5212
     9.6225

          k = 0.1250-0.5279 0.0000 ( 34840 PWs)   bands (ev):

   -35.7675 -35.7425 -22.7402 -22.7368 -22.5876 -22.5188 -17.2312 -17.2046
   -16.9835 -16.9626 -16.8829 -16.8601 -15.0817 -15.0785 -14.7603 -14.6712
   -14.6694 -14.5289 -14.4414 -14.3569 -14.3524 -14.2453 -14.2289 -14.2214
   -14.2169 -14.1859 -13.2091  -8.2121  -8.2088  -8.0900  -8.0889  -8.0863
    -7.9246  -7.9129  -7.8422  -7.8391  -7.7852  -7.6625  -7.5338  -3.6840
    -3.6705  -3.6253  -3.4633  -3.4593  -3.3638  -3.3602  -2.5476  -2.5466
    -2.1808  -1.9799  -1.9717  -1.8832  -1.7661  -1.7547  -1.6833  -1.6809
    -1.6751  -1.6258  -1.5338  -1.5203  -1.4254  -1.3563  -1.1644  -1.1513
    -1.0974  -1.0947  -1.0489  -0.9989  -0.9972  -0.8402  -0.5886  -0.5224
    -0.4454  -0.3537  -0.3050  -0.1167  -0.0470   0.0653   0.0690   0.1316
     0.2152   0.2946   0.4645   0.4820   0.7747   0.7785   0.8039   0.8108
     0.8413   0.8631   0.8942   0.9944   1.1067   1.1173   1.1473   1.1622
     1.1840   1.3099   1.3647   1.6019   1.6026   1.8278   1.8295   1.8405
     1.8464   1.8832   1.8877   2.0599   2.1870   2.2017   2.2808   2.3328
     2.3528   2.3563   2.4013   2.4152   2.6464   2.7467   2.9901   7.2923
     7.3705   7.3762   8.0643   8.1326   8.3079   8.4013   8.8446   8.9097
     9.1488   9.1523   9.2465   9.4069   9.4072   9.5363   9.7118   9.8095
     9.8800

          k = 0.2500 0.0000 0.0000 ( 34980 PWs)   bands (ev):

   -35.7773 -35.7523 -22.8795 -22.8761 -22.7215 -22.6437 -17.1644 -17.1430
   -17.0758 -17.0549 -16.8174 -16.7906 -15.1686 -15.1578 -14.9768 -14.9566
   -14.9059 -14.7723 -14.7696 -14.3526 -14.3491 -14.2075 -14.1946 -14.1018
   -14.0853 -14.0565 -13.1070  -8.1012  -8.0972  -7.9883  -7.9076  -7.8869
    -7.8838  -7.7294  -7.7261  -7.6978  -7.5622  -7.5226  -7.3860  -2.7179
    -2.7119  -2.5555  -2.4663  -2.3601  -2.3560  -2.1205  -1.9267  -1.9264
    -1.8458  -1.8425  -1.6605  -1.6259  -1.3614  -1.3575  -1.1267  -1.1266
    -1.0904  -0.9269  -0.9225  -0.9177  -0.8563  -0.8476  -0.7879  -0.6785
    -0.6766  -0.4970  -0.4909  -0.4573  -0.4495  -0.4112  -0.3928  -0.3846
    -0.3512  -0.2505  -0.0671  -0.0641  -0.0165   0.0218   0.0460   0.0750
     0.1739   0.1767   0.1870   0.2186   0.2229   0.3190   0.3524   0.3918
     0.3941   0.5041   0.5112   0.6063   0.7528   0.7569   0.8869   1.1154
     1.1196   1.1492   1.1520   1.1913   1.2360   1.2583   1.2658   1.3267
     1.3775   1.4410   1.6442   1.7067   1.7410   1.7851   1.8667   1.8689
     1.9775   2.1231   2.1479   2.2817   2.4054   2.5269   2.5430   5.5859
     5.7074   5.7098   6.8285   6.8710   7.3928   7.4051   7.4999   7.7988
     8.2809   8.3073   8.5093   8.5593   8.6827   8.8431   9.1439   9.3172
     9.3965

          k = 0.2500 0.1320 0.0000 ( 34937 PWs)   bands (ev):

   -35.7755 -35.7505 -22.8556 -22.8523 -22.6984 -22.6221 -17.1327 -17.1112
   -17.0691 -17.0482 -16.8834 -16.8567 -15.1138 -15.1050 -14.9355 -14.9098
   -14.8546 -14.7369 -14.7316 -14.3383 -14.3348 -14.2014 -14.1915 -14.1294
   -14.1074 -14.0916 -13.1096  -8.1690  -8.1657  -8.0285  -8.0230  -8.0206
    -7.9158  -7.8554  -7.7314  -7.6957  -7.6925  -7.5364  -7.3366  -2.7709
    -2.7618  -2.5929  -2.4969  -2.3517  -2.3472  -2.2681  -2.2664  -2.1696
    -2.1562  -2.0862  -1.7760  -1.7718  -1.6517  -1.5496  -1.5460  -1.2014
    -1.1695  -1.1547  -1.1117  -1.0919  -1.0779  -0.9063  -0.7825  -0.7817
    -0.7312  -0.7127  -0.5172  -0.4917  -0.4250  -0.4063  -0.3825  -0.3524
    -0.3398  -0.1869  -0.1734  -0.1318  -0.1249  -0.0563   0.0068   0.0334
     0.0829   0.1710   0.1927   0.2170   0.3971   0.4695   0.5862   0.6175
     0.6787   0.7553   0.7636   0.8511   0.8853   0.9460   0.9945   1.0494
     1.0577   1.2089   1.2129   1.2367   1.2499   1.2712   1.3288   1.3335
     1.3587   1.3740   1.4616   1.5784   1.5832   1.6150   1.9927   2.3646
     2.4539   2.5251   2.5374   2.6711   2.6922   2.7329   2.7406   5.7907
     5.9683   5.9707   6.9892   7.0210   7.6566   7.6641   7.7336   8.0795
     8.3908   8.4261   8.6261   8.6757   8.7619   8.9358   9.0239   9.0702
     9.2536

          k = 0.2500 0.2640 0.0000 ( 34895 PWs)   bands (ev):

   -35.7712 -35.7461 -22.7969 -22.7936 -22.6416 -22.5693 -17.0721 -17.0497
   -17.0419 -17.0203 -17.0195 -16.9943 -15.0145 -15.0110 -14.8207 -14.7735
   -14.7267 -14.6480 -14.6284 -14.3175 -14.3112 -14.2551 -14.2382 -14.1781
   -14.1256 -14.1111 -13.1160  -8.3889  -8.3857  -8.2159  -8.0862  -8.0825
    -8.0165  -7.9332  -7.9031  -7.8156  -7.8123  -7.6629  -7.4530  -3.1617
    -3.1456  -2.9350  -2.8882  -2.5920  -2.5881  -2.5636  -2.4624  -2.4573
    -2.4128  -2.3632  -2.3206  -2.3144  -2.0831  -1.6232  -1.6126  -1.5752
    -1.5701  -1.5085  -1.4651  -1.3276  -1.1580  -1.1339  -0.8978  -0.8917
    -0.8874  -0.8359  -0.7509  -0.7458  -0.7420  -0.6340  -0.6102  -0.5683
    -0.5438  -0.4507  -0.4113  -0.1611  -0.0349   0.1341   0.2242   0.2533
     0.3905   0.4769   0.6031   0.6580   0.6673   0.6833   0.8058   0.8190
     0.9151   0.9810   1.0145   1.0940   1.1005   1.1286   1.2015   1.2031
     1.2788   1.2884   1.3287   1.3502   1.3605   1.4167   1.4331   1.4690
     1.5148   1.5487   1.6167   1.7090   1.7112   1.7195   2.1648   2.3596
     2.8092   2.8455   2.8804   3.1020   3.1099   3.2282   3.2350   6.2758
     6.5097   6.5123   7.3749   7.3950   8.1005   8.1954   8.1985   8.5309
     8.5894   8.7730   8.8699   8.8977   9.0564   9.1311   9.1643   9.1997
     9.2470

          k = 0.2500 0.3960 0.0000 ( 34882 PWs)   bands (ev):

   -35.7668 -35.7418 -22.7365 -22.7332 -22.5832 -22.5151 -17.1676 -17.1411
   -17.0348 -17.0137 -16.9577 -16.9360 -14.9668 -14.9653 -14.6921 -14.6005
   -14.5957 -14.5435 -14.4895 -14.3839 -14.3762 -14.2504 -14.2383 -14.2146
   -14.1478 -14.1177 -13.1218  -8.5090  -8.5057  -8.3515  -8.1363  -8.1329
    -8.1190  -8.0297  -8.0263  -7.9501  -7.9272  -7.8794  -7.6944  -3.6596
    -3.6452  -3.4330  -3.3850  -3.2942  -3.1135  -3.1098  -2.6010  -2.5979
    -2.4112  -2.3275  -2.2795  -2.2632  -2.0645  -1.9604  -1.9474  -1.8337
    -1.8002  -1.6226  -1.5928  -1.4671  -1.3468  -1.3339  -1.1503  -1.0668
    -0.9866  -0.9608  -0.9567  -0.9468  -0.9414  -0.7792  -0.7335  -0.6154
    -0.6024  -0.4877  -0.4783  -0.0519   0.0810   0.1803   0.2895   0.3018
     0.5421   0.7031   0.8187   0.8314   0.8368   0.8426   0.9688   1.0770
     1.0828   1.1228   1.1406   1.1620   1.1673   1.2794   1.3542   1.3726
     1.4843   1.4917   1.5322   1.5485   1.6075   1.6162   1.6568   1.6845
     1.7333   1.7340   1.9324   2.0864   2.1091   2.1119   2.1673   2.2853
     2.6625   2.6803   2.9425   3.3250   3.3314   3.4763   3.4796   6.6212
     6.7167   6.7225   7.5156   7.5684   8.1125   8.6079   8.6411   8.6797
     8.8390   8.9000   9.4048   9.5096   9.5449   9.5859   9.6244   9.6923
     9.7071

          k = 0.2500-0.5279 0.0000 ( 34904 PWs)   bands (ev):

   -35.7650 -35.7400 -22.7110 -22.7076 -22.5586 -22.4923 -17.2177 -17.1912
   -17.0293 -17.0081 -16.9185 -16.8968 -14.9637 -14.9615 -14.6477 -14.5240
   -14.5198 -14.4712 -14.4319 -14.4314 -14.4109 -14.2272 -14.2157 -14.2110
   -14.1858 -14.1530 -13.1236  -8.5092  -8.5058  -8.3727  -8.2239  -8.2208
    -8.0964  -8.0927  -8.0897  -8.0099  -7.9473  -7.9455  -7.8492  -3.8586
    -3.8440  -3.6535  -3.5807  -3.5437  -3.3411  -3.3374  -2.6077  -2.6051
    -2.3810  -2.2887  -2.2380  -2.2108  -2.1187  -2.1031  -2.0481  -1.9796
    -1.9357  -1.6469  -1.6176  -1.5211  -1.4225  -1.4100  -1.2424  -1.1593
    -1.0715  -1.0296  -1.0239  -0.9753  -0.9667  -0.7924  -0.7373  -0.6333
    -0.6260  -0.5048  -0.4836  -0.0105   0.1097   0.1913   0.3071   0.3396
     0.5734   0.7324   0.8598   0.8730   0.9268   0.9334   1.0354   1.0394
     1.0420   1.1490   1.1778   1.2395   1.2542   1.3474   1.3501   1.3590
     1.4375   1.6987   1.7268   1.7427   1.7878   1.8186   1.8295   1.8687
     1.8874   1.8973   1.9101   2.1147   2.2585   2.2848   2.2881   2.3663
     2.4395   2.4650   2.8999   3.3440   3.3509   3.5127   3.5170   6.6668
     6.6821   6.6944   7.4797   7.5404   8.2304   8.4445   8.9432   9.0679
     9.3633   9.3665   9.3683   9.4611   9.5819   9.6900   9.7674   9.8807
     9.9448

          k = 0.3750 0.0000 0.0000 ( 34922 PWs)   bands (ev):

   -35.7747 -35.7497 -22.8341 -22.8307 -22.6775 -22.6057 -17.2161 -17.1964
   -17.0690 -17.0465 -16.8141 -16.7873 -15.1953 -15.1928 -15.0380 -14.8204
   -14.8050 -14.7757 -14.7629 -14.3675 -14.3617 -14.3066 -14.2952 -14.1285
   -14.1136 -14.0822 -13.2560  -8.0836  -8.0797  -7.9763  -7.8848  -7.8219
    -7.8189  -7.6587  -7.6450  -7.6417  -7.4820  -7.4332  -7.3181  -3.0498
    -3.0400  -2.9206  -2.8546  -2.4794  -2.4778  -2.1702  -1.8529  -1.8503
    -1.7571  -1.7233  -1.6968  -1.6956  -1.3717  -1.3630  -1.3592  -1.2241
    -1.2214  -1.1783  -1.1747  -1.0903  -1.0848  -1.0829  -1.0365  -0.8784
    -0.8766  -0.6238  -0.5819  -0.5119  -0.4884  -0.4554  -0.4323  -0.3841
    -0.3808  -0.3158  -0.0799  -0.0770  -0.0299  -0.0153   0.0226   0.0895
     0.2013   0.2464   0.2494   0.2548   0.2569   0.2639   0.2795   0.3322
     0.3409   0.4950   0.5685   0.6324   0.9207   1.0254   1.0292   1.0409
     1.0424   1.0551   1.1882   1.1998   1.2831   1.3194   1.3503   1.4347
     1.5049   1.5781   1.5924   1.6417   1.6639   1.7081   1.7842   1.9530
     1.9580   2.1596   2.1877   2.3884   2.4687   2.6398   2.6696   6.1734
     6.3569   6.3593   7.5653   7.6014   7.8156   7.8518   7.8544   8.2496
     8.3249   8.4049   8.6261   8.7373   9.1750   9.2966   9.3154   9.3169
     9.3589

          k = 0.3750 0.1320 0.0000 ( 34945 PWs)   bands (ev):

   -35.7729 -35.7479 -22.8124 -22.8090 -22.6564 -22.5857 -17.2075 -17.1878
   -17.0400 -17.0175 -16.8784 -16.8517 -15.1473 -15.1452 -14.9790 -14.7818
   -14.7619 -14.7138 -14.7027 -14.3379 -14.3329 -14.2858 -14.2748 -14.1540
   -14.1239 -14.1191 -13.2255  -8.1407  -8.1372  -8.0124  -7.9855  -7.9823
    -7.9005  -7.8199  -7.7347  -7.7314  -7.6520  -7.5839  -7.3803  -3.1147
    -3.1015  -2.9634  -2.8888  -2.4787  -2.4768  -2.2469  -2.2297  -2.1592
    -2.0648  -2.0415  -1.7643  -1.7602  -1.6714  -1.6267  -1.6097  -1.4672
    -1.4603  -1.3981  -1.3635  -1.2579  -1.1200  -0.9506  -0.9394  -0.9211
    -0.8859  -0.8265  -0.5817  -0.5674  -0.4768  -0.4336  -0.4304  -0.4136
    -0.3911  -0.2188  -0.1951  -0.1181  -0.1099  -0.0747   0.0055   0.0310
     0.0548   0.2819   0.2961   0.3068   0.4941   0.5060   0.6181   0.6287
     0.6376   0.7650   0.7942   0.8738   0.9745   1.0245   1.0465   1.0608
     1.0691   1.1967   1.2099   1.2123   1.3367   1.3660   1.3796   1.4672
     1.5297   1.5362   1.5901   1.6221   1.6294   1.6301   1.8100   2.3678
     2.4770   2.6055   2.6107   2.7664   2.7713   2.9388   2.9473   6.2815
     6.5055   6.5079   7.6095   7.6325   7.8560   7.9161   7.9194   8.2962
     8.3453   8.5613   8.7885   8.8783   9.1050   9.1500   9.3421   9.3697
     9.4703

          k = 0.3750 0.2640 0.0000 ( 34983 PWs)   bands (ev):

   -35.7686 -35.7435 -22.7591 -22.7557 -22.6046 -22.5367 -17.1872 -17.1673
   -17.0229 -16.9962 -16.9647 -16.9423 -15.0245 -15.0232 -14.8228 -14.6881
   -14.6624 -14.5654 -14.5515 -14.3056 -14.2941 -14.2692 -14.2611 -14.1980
   -14.1605 -14.1224 -13.1488  -8.4417  -8.4385  -8.2707  -8.1206  -8.1171
    -8.0667  -7.9982  -7.9948  -7.9532  -7.8917  -7.8617  -7.6516  -3.4409
    -3.4183  -3.1988  -3.1274  -2.6582  -2.6525  -2.5638  -2.5625  -2.5394
    -2.5292  -2.5262  -2.3984  -2.3960  -2.1399  -1.9475  -1.9332  -1.7700
    -1.7438  -1.4187  -1.3971  -1.2261  -1.1497  -1.1190  -1.0410  -1.0370
    -0.9956  -0.9407  -0.8085  -0.7982  -0.7949  -0.7109  -0.6885  -0.5424
    -0.5364  -0.4862  -0.4296  -0.1515   0.0068   0.2007   0.3383   0.3873
     0.5273   0.5761   0.6732   0.7013   0.8527   0.8605   0.9182   0.9868
     0.9936   1.0533   1.0562   1.1205   1.2144   1.2454   1.2502   1.2546
     1.4545   1.4689   1.4755   1.5037   1.5530   1.5699   1.5942   1.5982
     1.6041   1.6220   1.6544   1.6564   1.6588   1.7016   2.1491   2.3358
     2.8017   2.8496   2.8934   3.5551   3.5574   3.6504   3.6517   6.3806
     6.5503   6.5528   7.4314   7.4496   7.9915   8.2555   8.2576   8.5228
     8.6544   8.8259   9.2283   9.2560   9.3213   9.3796   9.4495   9.6109
     9.6349

          k = 0.3750 0.3960 0.0000 ( 34949 PWs)   bands (ev):

   -35.7643 -35.7392 -22.7044 -22.7010 -22.5516 -22.4865 -17.1702 -17.1491
   -17.1490 -17.1236 -16.8855 -16.8630 -14.8883 -14.8876 -14.6404 -14.5979
   -14.5569 -14.4097 -14.4042 -14.3885 -14.3828 -14.2320 -14.2251 -14.1901
   -14.1274 -14.1270 -13.0674  -8.7075  -8.7042  -8.5476  -8.3724  -8.3694
    -8.3207  -8.1739  -8.1234  -8.1198  -8.0118  -7.9763  -7.9090  -3.9220
    -3.9007  -3.6405  -3.5861  -3.2814  -3.0927  -3.0890  -2.7848  -2.7793
    -2.6736  -2.6501  -2.4275  -2.4258  -2.2596  -2.2406  -2.1166  -2.0020
    -1.9756  -1.4384  -1.3916  -1.3851  -1.3559  -1.3523  -1.1514  -1.1219
    -1.1153  -1.0433  -1.0204  -0.9870  -0.9853  -0.9290  -0.8969  -0.5480
    -0.5445  -0.4897  -0.4070  -0.0003   0.1496   0.2695   0.5039   0.5544
     0.7769   0.9620   0.9968   1.0267   1.0572   1.1156   1.1446   1.1943
     1.1997   1.3150   1.3328   1.3343   1.3635   1.4064   1.4256   1.5420
     1.6136   1.6151   1.6930   1.7103   1.7676   1.8229   1.8303   1.8865
     1.9119   1.9165   1.9634   2.0306   2.0338   2.0926   2.2137   2.3439
     2.6460   2.6763   2.9418   4.0666   4.0679   4.1405   4.1408   6.1929
     6.2480   6.2528   7.1549   7.1963   8.1644   8.5409   8.8234   8.8344
     9.0717   9.1767   9.2595   9.3263   9.3752   9.4401   9.4599   9.5533
     9.7199

          k = 0.3750-0.5279 0.0000 ( 34968 PWs)   bands (ev):

   -35.7625 -35.7374 -22.6814 -22.6780 -22.5292 -22.4654 -17.2044 -17.1779
   -17.1574 -17.1372 -16.8502 -16.8278 -14.8260 -14.8255 -14.5681 -14.5663
   -14.5151 -14.4280 -14.3967 -14.3437 -14.3403 -14.2217 -14.2077 -14.2030
   -14.1312 -14.1201 -13.0321  -8.7896  -8.7862  -8.6440  -8.5175  -8.5145
    -8.3869  -8.3032  -8.1732  -8.1495  -8.1454  -7.9891  -7.9329  -4.1278
    -4.1073  -3.8433  -3.7889  -3.5542  -3.3179  -3.3142  -2.8032  -2.7977
    -2.6830  -2.6532  -2.4218  -2.4200  -2.3658  -2.3464  -2.0964  -2.0868
    -2.0578  -1.5359  -1.4847  -1.4683  -1.4003  -1.3962  -1.2137  -1.1367
    -1.1240  -1.1147  -1.1083  -1.0800  -1.0749  -0.9571  -0.9077  -0.5316
    -0.5291  -0.4856  -0.3849   0.0465   0.1804   0.2832   0.5564   0.6449
     0.8495   1.1086   1.1150   1.1299   1.1360   1.1790   1.1791   1.1846
     1.2268   1.3711   1.3849   1.4314   1.4423   1.6202   1.6279   1.6297
     1.7163   1.7169   1.7715   1.8874   1.8914   1.9572   1.9658   1.9695
     2.0703   2.0910   2.1818   2.2205   2.2244   2.2460   2.2788   2.3291
     2.4014   2.4439   2.8879   4.2036   4.2060   4.2917   4.2926   6.0505
     6.0707   6.0737   7.0502   7.1110   8.2063   8.4616   8.9645   8.9878
     9.1407   9.2066   9.2114   9.3870   9.4776   9.5483   9.6835   9.7094
     9.7866

          k =-0.5000 0.0000 0.0000 ( 34926 PWs)   bands (ev):

   -35.7736 -35.7486 -22.8149 -22.8115 -22.6589 -22.5897 -17.2683 -17.2489
   -17.0272 -17.0042 -16.8127 -16.7859 -15.2532 -15.2496 -15.0817 -14.8474
   -14.8086 -14.5515 -14.5380 -14.5005 -14.4760 -14.3457 -14.3419 -14.1374
   -14.1210 -14.0875 -13.3146  -8.0734  -8.0693  -7.9642  -7.8736  -7.7987
    -7.7958  -7.6506  -7.6089  -7.6056  -7.4477  -7.3990  -7.2893  -3.1920
    -3.1822  -3.0652  -3.0035  -2.5039  -2.5027  -2.1807  -1.8242  -1.8100
    -1.8057  -1.7947  -1.5742  -1.5714  -1.4714  -1.3669  -1.3632  -1.3420
    -1.3341  -1.2633  -1.2553  -1.1904  -1.1833  -1.1045  -1.0988  -0.9618
    -0.9600  -0.6925  -0.6364  -0.5160  -0.5148  -0.4749  -0.4563  -0.3741
    -0.3719  -0.3340  -0.0853  -0.0823  -0.0650  -0.0353  -0.0329   0.0774
     0.1766   0.2474   0.2510   0.2574   0.2615   0.2638   0.2802   0.2824
     0.3918   0.4127   0.6116   0.6654   0.9774   0.9787   0.9875   0.9938
     1.1772   1.1957   1.2022   1.2187   1.2346   1.4156   1.4248   1.4252
     1.5063   1.5082   1.6125   1.6817   1.6950   1.7431   1.7979   1.9674
     1.9723   2.1618   2.1852   2.3943   2.4655   2.6716   2.7045   6.8028
     7.1119   7.1282   7.1308   7.1820   7.1845   8.0642   8.1193   8.3475
     8.3578   8.6824   8.8780   9.0318   9.2580   9.2780   9.3319   9.4380
     9.4971

          k =-0.5000 0.1320 0.0000 ( 34958 PWs)   bands (ev):

   -35.7718 -35.7468 -22.7941 -22.7908 -22.6387 -22.5704 -17.2591 -17.2397
   -16.9998 -16.9768 -16.8762 -16.8495 -15.1959 -15.1928 -15.0169 -14.8074
   -14.7685 -14.5128 -14.4994 -14.4404 -14.4173 -14.3240 -14.3202 -14.1608
   -14.1271 -14.1256 -13.2716  -8.1121  -8.1083  -7.9865  -7.9281  -7.9252
    -7.8903  -7.8121  -7.8085  -7.7701  -7.6607  -7.5304  -7.4929  -3.2634
    -3.2502  -3.1162  -3.0453  -2.5094  -2.5079  -2.2414  -2.2003  -2.1514
    -2.0077  -1.9879  -1.7589  -1.7548  -1.6927  -1.6737  -1.6192  -1.5829
    -1.5760  -1.4992  -1.4547  -1.3017  -1.1302  -1.0179  -1.0160  -0.9170
    -0.9109  -0.8457  -0.6183  -0.6045  -0.4940  -0.4554  -0.4380  -0.4350
    -0.4178  -0.2425  -0.2069  -0.1260  -0.1003  -0.0781   0.0028   0.0319
     0.0422   0.3487   0.3678   0.3705   0.4043   0.4161   0.5533   0.5921
     0.6847   0.7540   0.8427   0.8862   0.9912   1.0311   1.0668   1.1140
     1.1302   1.1449   1.2281   1.2397   1.3426   1.4479   1.4504   1.4825
     1.5601   1.5843   1.6105   1.6856   1.7074   1.7077   1.7559   2.3602
     2.4805   2.6086   2.6126   2.7817   2.7849   2.9920   3.0009   6.7190
     6.9760   6.9786   7.3251   7.4833   7.4883   7.9839   8.0177   8.2431
     8.3041   8.7653   9.1027   9.1865   9.2439   9.3548   9.4737   9.5767
     9.6022

          k =-0.5000 0.2640 0.0000 ( 34964 PWs)   bands (ev):

   -35.7675 -35.7425 -22.7432 -22.7398 -22.5891 -22.5230 -17.2372 -17.2176
   -17.0196 -16.9928 -16.9286 -16.9058 -15.0441 -15.0422 -14.8432 -14.7119
   -14.6704 -14.4170 -14.4040 -14.3272 -14.3160 -14.2739 -14.2700 -14.2439
   -14.1957 -14.1175 -13.1623  -8.3806  -8.3772  -8.2293  -8.2264  -8.2139
    -8.0621  -8.0582  -8.0478  -8.0149  -7.9370  -7.8470  -7.8441  -3.5795
    -3.5562  -3.3445  -3.2726  -2.6851  -2.6808  -2.5867  -2.5825  -2.5363
    -2.5341  -2.5296  -2.4062  -2.4036  -2.1580  -2.0747  -2.0567  -1.8574
    -1.8266  -1.3383  -1.3107  -1.1765  -1.1165  -1.1141  -1.1043  -1.0745
    -1.0655  -1.0086  -0.8311  -0.8216  -0.8187  -0.7148  -0.6879  -0.5448
    -0.5408  -0.5046  -0.4323  -0.1472   0.0221   0.2220   0.3769   0.4403
     0.5749   0.6145   0.7039   0.7150   0.9284   0.9335   0.9933   1.0013
     1.0053   1.0437   1.0734   1.0904   1.2562   1.2666   1.2981   1.3251
     1.4460   1.5415   1.5460   1.5662   1.5737   1.5915   1.5980   1.6403
     1.6592   1.7076   1.7126   1.7278   1.7325   1.9022   1.9132   2.3070
     2.7937   2.8436   2.8895   3.6950   3.6959   3.7830   3.7848   6.4188
     6.5469   6.5486   7.3563   7.3853   7.9519   8.2929   8.3014   8.4096
     8.8650   9.0579   9.0917   9.4261   9.4399   9.4692   9.4784   9.6140
     9.7538

          k =-0.5000 0.3960 0.0000 ( 34948 PWs)   bands (ev):

   -35.7632 -35.7381 -22.6910 -22.6876 -22.5383 -22.4746 -17.2157 -17.1959
   -17.1484 -17.1219 -16.8534 -16.8305 -14.8595 -14.8591 -14.6522 -14.6280
   -14.5458 -14.3938 -14.3729 -14.3214 -14.3101 -14.2257 -14.2212 -14.1722
   -14.1557 -14.1322 -13.0442  -8.7558  -8.7524  -8.6013  -8.5174  -8.5145
    -8.3641  -8.3117  -8.1559  -8.1400  -8.1360  -7.9902  -7.9221  -4.0538
    -4.0305  -3.7622  -3.7050  -3.2735  -3.0841  -3.0804  -2.8545  -2.8490
    -2.7458  -2.7353  -2.4433  -2.4421  -2.3619  -2.3410  -2.1240  -2.0615
    -2.0321  -1.4431  -1.3890  -1.3660  -1.2644  -1.2583  -1.2285  -1.2044
    -1.1270  -1.0418  -1.0372  -1.0107  -1.0035  -0.9919  -0.9691  -0.5050
    -0.5026  -0.4951  -0.3723   0.0159   0.1727   0.3012   0.6023   0.6623
     0.8743   1.0422   1.1076   1.1126   1.1178   1.2183   1.2191   1.2450
     1.2894   1.3288   1.4086   1.4126   1.4133   1.4181   1.4463   1.6146
     1.6642   1.7093   1.7183   1.7320   1.8166   1.8846   1.8980   1.9574
     1.9980   2.0014   2.0398   2.0493   2.0672   2.1443   2.2574   2.2830
     2.6331   2.6666   2.9376   4.3322   4.3353   4.3858   4.3863   5.9997
     6.0527   6.0551   7.0073   7.0511   8.3121   8.3404   8.7686   8.7886
     9.0872   9.2345   9.3136   9.3349   9.4235   9.4636   9.5192   9.6144
     9.7354

          k =-0.5000-0.5279 0.0000 ( 35004 PWs)   bands (ev):

   -35.7614 -35.7364 -22.6690 -22.6656 -22.5169 -22.4542 -17.2069 -17.1989
   -17.1871 -17.1725 -16.8201 -16.7972 -14.7597 -14.7590 -14.6112 -14.6099
   -14.4420 -14.4187 -14.4083 -14.2928 -14.2853 -14.2165 -14.2029 -14.1984
   -14.1289 -14.0906 -12.9921  -8.9018  -8.8984  -8.7535  -8.6335  -8.6306
    -8.5089  -8.4171  -8.2855  -8.1680  -8.1639  -8.0061  -7.9406  -4.2618
    -4.2392  -3.9610  -3.9057  -3.5483  -3.3084  -3.3046  -2.8867  -2.8812
    -2.7714  -2.7549  -2.4530  -2.4334  -2.4322  -2.4321  -2.1288  -2.1005
    -2.0952  -1.5531  -1.5032  -1.4781  -1.3327  -1.3236  -1.1948  -1.1919
    -1.1753  -1.1295  -1.1265  -1.1115  -1.1038  -1.0343  -0.9807  -0.4857
    -0.4760  -0.4737  -0.3434   0.0632   0.2051   0.3166   0.6799   0.7865
     0.9724   1.1869   1.1920   1.1924   1.1951   1.2275   1.2362   1.3072
     1.4552   1.4556   1.4586   1.4758   1.5001   1.6950   1.7223   1.7424
     1.7535   1.7980   1.8394   1.8578   1.9165   1.9193   2.0160   2.0268
     2.1908   2.1944   2.2294   2.2364   2.2534   2.2784   2.3771   2.4106
     2.4232   2.4258   2.8832   4.5251   4.5290   4.5954   4.5961   5.7956
     5.8252   5.8265   6.8874   6.9521   8.2559   8.4093   8.8494   8.8782
     8.8914   8.9366   9.2186   9.2734   9.3500   9.4104   9.6832   9.7611
     9.8631

     the Fermi energy is     2.4200 ev

!    total energy              =   -1842.79969481 Ry
     Harris-Foulkes estimate   =   -1842.79969482 Ry
     estimated scf accuracy    <          3.7E-09 Ry

     The total energy is the sum of the following terms:

     one-electron contribution =  -27903.94473068 Ry
     hartree contribution      =   14103.97035092 Ry
     xc contribution           =    -621.61967029 Ry
     ewald contribution        =   12578.80582375 Ry
     smearing contrib. (-TS)   =      -0.01146851 Ry

     convergence has been achieved in  35 iterations

     negative rho (up, down):  1.532E-03 0.000E+00

     Forces acting on atoms (cartesian axes, Ry/au):

     atom    1 type  4   force =     0.00000000    0.00000000   -0.00032242
     atom    2 type  3   force =     0.00000000    0.00000000    0.00047919
     atom    3 type  4   force =     0.00000000    0.00000000   -0.00073600
     atom    4 type  1   force =     0.00000000    0.00000000   -0.00050599
     atom    5 type  3   force =     0.00000000    0.00000000    0.00046264
     atom    6 type  4   force =     0.00000000    0.00000000    0.00087304
     atom    7 type  4   force =     0.00000000    0.00000000    0.00111252
     atom    8 type  2   force =     0.00000000    0.00000000   -0.00264010
     atom    9 type  4   force =     0.00000000    0.00000000    0.00414304
     atom   10 type  4   force =     0.00000000    0.00000000    0.00367162
     atom   11 type  3   force =     0.00000000    0.00000000    0.00143915
     atom   12 type  1   force =     0.00000000    0.00000000    0.00907591
     atom   13 type  4   force =     0.00000000    0.00000000   -0.01785139
     atom   14 type  4   force =     0.00000000    0.00000000    0.03579717
     atom   15 type  3   force =     0.00000000    0.00000000   -0.02130591
     atom   16 type  4   force =     0.00000000    0.00000000    0.02078094
     atom   17 type  1   force =     0.00000000    0.00000000   -0.01331957
     atom   18 type  3   force =     0.00000000    0.00000000   -0.02082903
     atom   19 type  4   force =     0.00000000    0.00000000   -0.00003020
     atom   20 type  4   force =     0.00000000    0.00000000   -0.00111320
     atom   21 type  2   force =     0.00000000    0.00000000    0.00233437
     atom   22 type  4   force =     0.00000000    0.00000000   -0.00155295
     atom   23 type  4   force =     0.00000000    0.00000000   -0.00019497
     atom   24 type  3   force =     0.00000000    0.00000000   -0.00039363
     atom   25 type  1   force =     0.00000000    0.00000000    0.00039090
     atom   26 type  4   force =     0.00000000    0.00000000    0.00029608
     atom   27 type  3   force =     0.00000000    0.00000000   -0.00004397
     atom   28 type  4   force =     0.00000000    0.00000000   -0.00001721

     Total force =     0.056852     Total SCF correction =     0.000273


     Computing stress (Cartesian axis) and pressure


     negative rho (up, down):  1.532E-03 0.000E+00
          total   stress  (Ry/bohr**3)                   (kbar)     P=       -6.02
   0.00000690   0.00000000   0.00000000            1.01        0.00        0.00
   0.00000000  -0.00007973   0.00000000            0.00      -11.73        0.00
   0.00000000   0.00000000  -0.00004996            0.00        0.00       -7.35

 
     init_run     :      8.69s CPU      9.07s WALL (       1 calls)
     electrons    :    571.53s CPU    592.63s WALL (       1 calls)
     forces       :      3.62s CPU      3.81s WALL (       1 calls)
     stress       :     20.62s CPU     21.06s WALL (       1 calls)

     Called by init_run:
     wfcinit      :      5.96s CPU      6.11s WALL (       1 calls)
     potinit      :      0.62s CPU      0.63s WALL (       1 calls)
     hinit0       :      1.04s CPU      1.07s WALL (       1 calls)

     Called by electrons:
     c_bands      :    445.22s CPU    456.03s WALL (      35 calls)
     sum_band     :     83.82s CPU     89.33s WALL (      35 calls)
     v_of_rho     :      2.51s CPU      2.54s WALL (      36 calls)
     newd         :     23.94s CPU     28.63s WALL (      36 calls)
     mix_rho      :     16.56s CPU     16.73s WALL (      35 calls)

     Called by c_bands:
     init_us_2    :      3.59s CPU      3.61s WALL (    1825 calls)
     cegterg      :    419.35s CPU    429.58s WALL (     875 calls)

     Called by sum_band:
     sum_band:bec :      0.23s CPU      0.24s WALL (     875 calls)
     addusdens    :     23.71s CPU     28.48s WALL (      35 calls)

     Called by *egterg:
     h_psi        :    205.17s CPU    212.20s WALL (    3841 calls)
     s_psi        :     21.65s CPU     21.82s WALL (    3841 calls)
     g_psi        :      0.65s CPU      0.66s WALL (    2941 calls)
     cdiaghg      :    115.57s CPU    116.10s WALL (    3816 calls)

     Called by h_psi:
     h_psi:calbec :     23.68s CPU     24.94s WALL (    3841 calls)
     vloc_psi     :    158.39s CPU    161.04s WALL (    3841 calls)
     add_vuspsi   :     22.16s CPU     23.86s WALL (    3841 calls)

     General routines
     calbec       :     39.23s CPU     40.58s WALL (    4841 calls)
     fft          :      1.92s CPU      1.95s WALL (     491 calls)
     ffts         :      8.63s CPU      8.71s WALL (   15807 calls)
     fftw         :    180.47s CPU    183.41s WALL (  621153 calls)
     interpolate  :      0.16s CPU      0.16s WALL (      36 calls)
 
     Parallel routines
     fft_scatt_xy :     23.32s CPU     23.63s WALL (  637451 calls)
     fft_scatt_yz :    109.50s CPU    111.33s WALL (  637451 calls)
 
     PWSCF        :  10m 5.42s CPU  10m27.64s WALL

 
   This run was terminated on:  21:29:26  21May2021            

=------------------------------------------------------------------------------=
   JOB DONE.
=------------------------------------------------------------------------------=
[1621646966.234008] [holy7c06605:141734:0]          mpool.c:43   UCX  WARN  object 0x330ff40 was not returned to mpool ucp_requests
[1621646966.241710] [holy7c06603:209041:0]          mpool.c:43   UCX  WARN  object 0x40ffb40 was not returned to mpool ucp_requests
[1621646966.241730] [holy7c06603:209041:0]          mpool.c:43   UCX  WARN  object 0x4100240 was not returned to mpool ucp_requests
[1621646966.234083] [holy7c06606:243022:0]          mpool.c:43   UCX  WARN  object 0x2f59040 was not returned to mpool ucp_requests
[1621646966.245227] [holy7c06501:257879:0]          mpool.c:43   UCX  WARN  object 0x36468c0 was not returned to mpool ucp_requests
[1621646966.245250] [holy7c06501:257879:0]          mpool.c:43   UCX  WARN  object 0x3646a80 was not returned to mpool ucp_requests
[1621646966.240230] [holy7c06601:38990:0]          mpool.c:43   UCX  WARN  object 0x34a9b00 was not returned to mpool ucp_requests
[1621646966.243406] [holy7c06302:223960:0]          mpool.c:43   UCX  WARN  object 0x424d200 was not returned to mpool ucp_requests
[1621646966.244237] [holy7c06302:223959:0]          mpool.c:43   UCX  WARN  object 0x4673300 was not returned to mpool ucp_requests
