
     Program PWSCF v.6.5 starts on 21May2021 at 21:28: 1 

     This program is part of the open-source Quantum ESPRESSO suite
     for quantum simulation of materials; please cite
         "P. Giannozzi et al., J. Phys.:Condens. Matter 21 395502 (2009);
         "P. Giannozzi et al., J. Phys.:Condens. Matter 29 465901 (2017);
          URL http://www.quantum-espresso.org", 
     in publications or presentations arising from this work. More details at
     http://www.quantum-espresso.org/quote

     Parallel version (MPI), running on    20 processors

     MPI processes distributed on     2 nodes
     R & G space division:  proc/nbgrp/npool/nimage =      20
     Reading input from CBCO_Y_cleave_3.0_sep.pwi
Warning: card &IONS ignored
Warning: card     ION_DYNAMICS = 'BFGS' ignored
Warning: card / ignored
Warning: card &CELL ignored
Warning: card     CELL_DYNAMICS = 'BFGS' ignored
Warning: card     PRESS_CONV_THR = 5 ignored
Warning: card / ignored

     Current dimensions of program PWSCF are:
     Max number of different atomic species (ntypx) = 10
     Max number of k-points (npk) =  40000
     Max angular momentum in pseudopotentials (lmaxx) =  3

     Subspace diagonalization in iterative solution of the eigenvalue problem:
     one sub-group per band group will be used
     scalapack distributed-memory algorithm (size of sub-group:  4*  4 procs)

     Message from routine setup:
     using ibrav=0 with symmetry is DISCOURAGED, use correct ibrav instead
 
     Parallelization info
     --------------------
     sticks:   dense  smooth     PW     G-vecs:    dense   smooth      PW
     Min         149      50     14                74989    14436    2256
     Max         150      51     15                75028    14461    2303
     Sum        2991    1007    289              1500193   288917   45419
 


     bravais-lattice index     =            0
     lattice parameter (alat)  =       7.4270  a.u.
     unit-cell volume          =    4598.4779 (a.u.)^3
     number of atoms/cell      =           28
     number of atomic types    =            4
     number of electrons       =       227.00
     number of Kohn-Sham states=          137
     kinetic-energy cutoff     =      60.0000  Ry
     charge density cutoff     =     720.0000  Ry
     convergence threshold     =      1.0E-08
     mixing beta               =       0.5000
     number of iterations used =           10  local-TF  mixing
     Exchange-correlation= SLA PW PBE PBE
                           (   1   4   3   4   0   0   0)

     celldm(1)=   7.427040  celldm(2)=   0.000000  celldm(3)=   0.000000
     celldm(4)=   0.000000  celldm(5)=   0.000000  celldm(6)=   0.000000

     crystal axes: (cart. coord. in units of alat)
               a(1) = (   1.000000   0.000000   0.000000 )  
               a(2) = (   0.000000   0.947081   0.000000 )  
               a(3) = (   0.000000   0.000000  11.851673 )  

     reciprocal axes: (cart. coord. in units 2 pi/alat)
               b(1) = (  1.000000  0.000000  0.000000 )  
               b(2) = (  0.000000  1.055876  0.000000 )  
               b(3) = (  0.000000  0.000000  0.084376 )  


     PseudoPot. # 1 for Ba read from file:
     ./pseudo/Ba.pbe-nsp-van.UPF
     MD5 check sum: 2b9c31dd849566dd297d80989662b7a0
     Pseudo is Ultrasoft + core correction, Zval = 10.0
     Generated by new atomic code, or converted to UPF format
     Using radial grid of  907 points,  6 beta functions with: 
                l(1) =   0
                l(2) =   0
                l(3) =   1
                l(4) =   1
                l(5) =   2
                l(6) =   2
     Q(r) pseudized with  6 coefficients,  rinner =    1.200   1.200   1.200
                                                       1.200   1.200

     PseudoPot. # 2 for Ca read from file:
     ./pseudo/Ca.pbe-nsp-van.UPF
     MD5 check sum: 6471098428ff4fa451746d08035ff179
     Pseudo is Ultrasoft + core correction, Zval = 10.0
     Generated by new atomic code, or converted to UPF format
     Using radial grid of  845 points,  6 beta functions with: 
                l(1) =   0
                l(2) =   0
                l(3) =   1
                l(4) =   1
                l(5) =   2
                l(6) =   2
     Q(r) pseudized with  6 coefficients,  rinner =    1.200   1.200   1.200
                                                       1.200   1.200

     PseudoPot. # 3 for Cu read from file:
     ./pseudo/Cu.pbe-n-van_ak.UPF
     MD5 check sum: 34e3282627ffb533726feb647e090d62
     Pseudo is Ultrasoft + core correction, Zval = 11.0
     Generated by new atomic code, or converted to UPF format
     Using radial grid of  867 points,  6 beta functions with: 
                l(1) =   0
                l(2) =   0
                l(3) =   1
                l(4) =   1
                l(5) =   2
                l(6) =   2
     Q(r) pseudized with  8 coefficients,  rinner =    1.400   1.400   1.400
                                                       1.400   1.400

     PseudoPot. # 4 for O  read from file:
     ./pseudo/O.pbe-van_ak.UPF
     MD5 check sum: 783ce7fe4c79b6a4916957118fed0856
     Pseudo is Ultrasoft, Zval =  6.0
     Generated by new atomic code, or converted to UPF format
     Using radial grid of  737 points,  4 beta functions with: 
                l(1) =   0
                l(2) =   0
                l(3) =   1
                l(4) =   1
     Q(r) pseudized with  8 coefficients,  rinner =    0.800   0.800   0.800


     atomic species   valence    mass     pseudopotential
        Ba            10.00   137.32700     Ba( 1.00)
        Ca            10.00    40.07800     Ca( 1.00)
        Cu            11.00    63.54600     Cu( 1.00)
        O              6.00    15.99900     O ( 1.00)

      4 Sym. Ops. (no inversion) found



   Cartesian axes

     site n.     atom                  positions (alat units)
         1           O   tau(   1) = (   0.0000000   0.4735409  -0.0469745  )
         2           Cu  tau(   2) = (   0.0000000   0.0000000   0.0264565  )
         3           O   tau(   3) = (   0.0000000   0.0000000   0.5030914  )
         4           Ba  tau(   4) = (   0.5000000   0.4735409   0.5690292  )
         5           Cu  tau(   5) = (   0.0000000   0.0000000   1.0374254  )
         6           O   tau(   6) = (   0.5000000   0.0000000   1.0768099  )
         7           O   tau(   7) = (   0.0000000   0.4735409   1.1116985  )
         8           Ca  tau(   8) = (   0.5000000   0.4735409   1.4976260  )
         9           O   tau(   9) = (   0.0000000   0.4735409   1.8667529  )
        10           O   tau(  10) = (   0.5000000   0.0000000   1.9044124  )
        11           Cu  tau(  11) = (   0.0000000   0.0000000   1.9512546  )
        12           Ba  tau(  12) = (   0.5000000   0.4735409   2.4295764  )
        13           O   tau(  13) = (   0.0000000   0.0000000   2.5115362  )
        14           O   tau(  14) = (   0.0000000   0.4735409   2.9918528  )
        15           Cu  tau(  15) = (   0.0000000   0.0000000   2.9919088  )
        16           O   tau(  16) = (   0.0000000   0.0000000   3.4722686  )
        17           Ba  tau(  17) = (   0.5000000   0.4735409   3.5542208  )
        18           Cu  tau(  18) = (   0.0000000   0.0000000   4.0325248  )
        19           O   tau(  19) = (   0.5000000   0.0000000   4.0793669  )
        20           O   tau(  20) = (   0.0000000   0.4735409   4.1170213  )
        21           Ca  tau(  21) = (   0.5000000   0.4735409   4.4861584  )
        22           O   tau(  22) = (   0.0000000   0.4735409   5.6353994  )
        23           O   tau(  23) = (   0.5000000   0.0000000   5.6702880  )
        24           Cu  tau(  24) = (   0.0000000   0.0000000   5.7096751  )
        25           Ba  tau(  25) = (   0.5000000   0.4735409   6.1780687  )
        26           O   tau(  26) = (   0.0000000   0.0000000   6.2439963  )
        27           Cu  tau(  27) = (   0.0000000   0.0000000   6.7206363  )
        28           O   tau(  28) = (   0.0000000   0.4735409   6.7940546  )

     number of k points=    25  Gaussian smearing, width (Ry)=  0.0100
                       cart. coord. in units 2pi/alat
        k(    1) = (   0.0000000   0.0000000   0.0000000), wk =   0.0312500
        k(    2) = (   0.0000000   0.1319845   0.0000000), wk =   0.0625000
        k(    3) = (   0.0000000   0.2639689   0.0000000), wk =   0.0625000
        k(    4) = (   0.0000000   0.3959534   0.0000000), wk =   0.0625000
        k(    5) = (   0.0000000  -0.5279378   0.0000000), wk =   0.0312500
        k(    6) = (   0.1250000   0.0000000   0.0000000), wk =   0.0625000
        k(    7) = (   0.1250000   0.1319845   0.0000000), wk =   0.1250000
        k(    8) = (   0.1250000   0.2639689   0.0000000), wk =   0.1250000
        k(    9) = (   0.1250000   0.3959534   0.0000000), wk =   0.1250000
        k(   10) = (   0.1250000  -0.5279378   0.0000000), wk =   0.0625000
        k(   11) = (   0.2500000   0.0000000   0.0000000), wk =   0.0625000
        k(   12) = (   0.2500000   0.1319845   0.0000000), wk =   0.1250000
        k(   13) = (   0.2500000   0.2639689   0.0000000), wk =   0.1250000
        k(   14) = (   0.2500000   0.3959534   0.0000000), wk =   0.1250000
        k(   15) = (   0.2500000  -0.5279378   0.0000000), wk =   0.0625000
        k(   16) = (   0.3750000   0.0000000   0.0000000), wk =   0.0625000
        k(   17) = (   0.3750000   0.1319845   0.0000000), wk =   0.1250000
        k(   18) = (   0.3750000   0.2639689   0.0000000), wk =   0.1250000
        k(   19) = (   0.3750000   0.3959534   0.0000000), wk =   0.1250000
        k(   20) = (   0.3750000  -0.5279378   0.0000000), wk =   0.0625000
        k(   21) = (  -0.5000000   0.0000000   0.0000000), wk =   0.0312500
        k(   22) = (  -0.5000000   0.1319845   0.0000000), wk =   0.0625000
        k(   23) = (  -0.5000000   0.2639689   0.0000000), wk =   0.0625000
        k(   24) = (  -0.5000000   0.3959534   0.0000000), wk =   0.0625000
        k(   25) = (  -0.5000000  -0.5279378   0.0000000), wk =   0.0312500

     Dense  grid:  1500193 G-vectors     FFT dimensions: (  64,  64, 768)

     Smooth grid:   288917 G-vectors     FFT dimensions: (  40,  36, 450)

     Estimated max dynamical RAM per process >     478.58 MB

     Estimated total dynamical RAM >       9.35 GB

     Initial potential from superposition of free atoms

     starting charge  226.84630, renormalised to  227.00000

     negative rho (up, down):  3.380E-03 0.000E+00
     Starting wfcs are  195 randomized atomic wfcs

     total cpu time spent up to now is       10.5 secs

     Self-consistent Calculation

     iteration #  1     ecut=    60.00 Ry     beta= 0.50
     Davidson diagonalization with overlap
     ethr =  1.00E-02,  avg # of iterations =  2.1

     negative rho (up, down):  4.943E-04 0.000E+00

     total cpu time spent up to now is       26.8 secs

     total energy              =   -1840.97717270 Ry
     Harris-Foulkes estimate   =   -1845.31877685 Ry
     estimated scf accuracy    <      17.58013220 Ry

     iteration #  2     ecut=    60.00 Ry     beta= 0.50
     Davidson diagonalization with overlap
     ethr =  7.74E-03,  avg # of iterations =  2.0

     negative rho (up, down):  2.837E-04 0.000E+00

     total cpu time spent up to now is       42.9 secs

     total energy              =   -1842.57168040 Ry
     Harris-Foulkes estimate   =   -1843.20220260 Ry
     estimated scf accuracy    <       7.52038285 Ry

     iteration #  3     ecut=    60.00 Ry     beta= 0.50
     Davidson diagonalization with overlap
     ethr =  3.31E-03,  avg # of iterations =  1.0

     negative rho (up, down):  2.596E-04 0.000E+00

     total cpu time spent up to now is       57.7 secs

     total energy              =   -1842.73801114 Ry
     Harris-Foulkes estimate   =   -1842.94401138 Ry
     estimated scf accuracy    <       4.55690257 Ry

     iteration #  4     ecut=    60.00 Ry     beta= 0.50
     Davidson diagonalization with overlap
     ethr =  2.01E-03,  avg # of iterations =  1.0

     negative rho (up, down):  2.482E-04 0.000E+00

     total cpu time spent up to now is       72.3 secs

     total energy              =   -1842.71050535 Ry
     Harris-Foulkes estimate   =   -1842.85447138 Ry
     estimated scf accuracy    <       1.64602314 Ry

     iteration #  5     ecut=    60.00 Ry     beta= 0.50
     Davidson diagonalization with overlap
     ethr =  7.25E-04,  avg # of iterations =  3.9

     negative rho (up, down):  2.447E-04 0.000E+00

     total cpu time spent up to now is       89.9 secs

     total energy              =   -1842.74183621 Ry
     Harris-Foulkes estimate   =   -1842.77089223 Ry
     estimated scf accuracy    <       2.49130920 Ry

     iteration #  6     ecut=    60.00 Ry     beta= 0.50
     Davidson diagonalization with overlap
     ethr =  7.25E-04,  avg # of iterations =  1.2

     negative rho (up, down):  2.321E-04 0.000E+00

     total cpu time spent up to now is      104.9 secs

     total energy              =   -1842.66087632 Ry
     Harris-Foulkes estimate   =   -1842.75376217 Ry
     estimated scf accuracy    <       1.78183578 Ry

     iteration #  7     ecut=    60.00 Ry     beta= 0.50
     Davidson diagonalization with overlap
     ethr =  7.25E-04,  avg # of iterations =  4.0

     negative rho (up, down):  2.261E-04 0.000E+00

     total cpu time spent up to now is      122.8 secs

     total energy              =   -1842.66216684 Ry
     Harris-Foulkes estimate   =   -1842.68763054 Ry
     estimated scf accuracy    <       1.98086119 Ry

     iteration #  8     ecut=    60.00 Ry     beta= 0.50
     Davidson diagonalization with overlap
     ethr =  7.25E-04,  avg # of iterations =  3.6

     negative rho (up, down):  2.212E-04 0.000E+00

     total cpu time spent up to now is      140.0 secs

     total energy              =   -1842.65190764 Ry
     Harris-Foulkes estimate   =   -1842.67778567 Ry
     estimated scf accuracy    <       0.98926866 Ry

     iteration #  9     ecut=    60.00 Ry     beta= 0.50
     Davidson diagonalization with overlap
     ethr =  4.36E-04,  avg # of iterations =  3.4

     negative rho (up, down):  2.225E-04 0.000E+00

     total cpu time spent up to now is      157.2 secs

     total energy              =   -1842.65327325 Ry
     Harris-Foulkes estimate   =   -1842.66505496 Ry
     estimated scf accuracy    <       0.25952964 Ry

     iteration # 10     ecut=    60.00 Ry     beta= 0.50
     Davidson diagonalization with overlap
     ethr =  1.14E-04,  avg # of iterations =  5.5

     negative rho (up, down):  2.227E-04 0.000E+00

     total cpu time spent up to now is      176.4 secs

     total energy              =   -1842.65238210 Ry
     Harris-Foulkes estimate   =   -1842.65884091 Ry
     estimated scf accuracy    <       0.14332064 Ry

     iteration # 11     ecut=    60.00 Ry     beta= 0.50
     Davidson diagonalization with overlap
     ethr =  6.31E-05,  avg # of iterations =  1.3

     negative rho (up, down):  2.211E-04 0.000E+00

     total cpu time spent up to now is      191.0 secs

     total energy              =   -1842.65205068 Ry
     Harris-Foulkes estimate   =   -1842.65495427 Ry
     estimated scf accuracy    <       0.06764307 Ry

     iteration # 12     ecut=    60.00 Ry     beta= 0.50
     Davidson diagonalization with overlap
     ethr =  2.98E-05,  avg # of iterations =  4.8

     negative rho (up, down):  2.217E-04 0.000E+00

     total cpu time spent up to now is      209.6 secs

     total energy              =   -1842.65302369 Ry
     Harris-Foulkes estimate   =   -1842.65342532 Ry
     estimated scf accuracy    <       0.03332628 Ry

     iteration # 13     ecut=    60.00 Ry     beta= 0.50
     Davidson diagonalization with overlap
     ethr =  1.47E-05,  avg # of iterations =  3.0

     negative rho (up, down):  2.213E-04 0.000E+00

     total cpu time spent up to now is      225.8 secs

     total energy              =   -1842.65225367 Ry
     Harris-Foulkes estimate   =   -1842.65334496 Ry
     estimated scf accuracy    <       0.05142460 Ry

     iteration # 14     ecut=    60.00 Ry     beta= 0.50
     Davidson diagonalization with overlap
     ethr =  1.47E-05,  avg # of iterations =  1.9

     negative rho (up, down):  2.226E-04 0.000E+00

     total cpu time spent up to now is      241.0 secs

     total energy              =   -1842.65140977 Ry
     Harris-Foulkes estimate   =   -1842.65257351 Ry
     estimated scf accuracy    <       0.05722875 Ry

     iteration # 15     ecut=    60.00 Ry     beta= 0.50
     Davidson diagonalization with overlap
     ethr =  1.47E-05,  avg # of iterations =  1.0

     negative rho (up, down):  2.236E-04 0.000E+00

     total cpu time spent up to now is      255.5 secs

     total energy              =   -1842.65082880 Ry
     Harris-Foulkes estimate   =   -1842.65171501 Ry
     estimated scf accuracy    <       0.04291845 Ry

     iteration # 16     ecut=    60.00 Ry     beta= 0.50
     Davidson diagonalization with overlap
     ethr =  1.47E-05,  avg # of iterations =  1.6

     negative rho (up, down):  2.237E-04 0.000E+00

     total cpu time spent up to now is      270.6 secs

     total energy              =   -1842.65040588 Ry
     Harris-Foulkes estimate   =   -1842.65103459 Ry
     estimated scf accuracy    <       0.02414219 Ry

     iteration # 17     ecut=    60.00 Ry     beta= 0.50
     Davidson diagonalization with overlap
     ethr =  1.06E-05,  avg # of iterations =  2.7

     negative rho (up, down):  8.449E-04 0.000E+00

     total cpu time spent up to now is      287.1 secs

     total energy              =   -1842.64906831 Ry
     Harris-Foulkes estimate   =   -1842.65052460 Ry
     estimated scf accuracy    <       0.01368193 Ry

     iteration # 18     ecut=    60.00 Ry     beta= 0.50
     Davidson diagonalization with overlap
     ethr =  6.03E-06,  avg # of iterations =  8.1

     negative rho (up, down):  4.663E-03 0.000E+00

     total cpu time spent up to now is      310.3 secs

     total energy              =   -1842.64828664 Ry
     Harris-Foulkes estimate   =   -1842.64925833 Ry
     estimated scf accuracy    <       0.00999425 Ry

     iteration # 19     ecut=    60.00 Ry     beta= 0.50
     Davidson diagonalization with overlap
     c_bands:  1 eigenvalues not converged
     ethr =  4.40E-06,  avg # of iterations =  8.2

     negative rho (up, down):  4.856E-03 0.000E+00

     total cpu time spent up to now is      334.0 secs

     total energy              =   -1842.64800490 Ry
     Harris-Foulkes estimate   =   -1842.64838658 Ry
     estimated scf accuracy    <       0.00397398 Ry

     iteration # 20     ecut=    60.00 Ry     beta= 0.50
     Davidson diagonalization with overlap
     c_bands:  1 eigenvalues not converged
     ethr =  1.75E-06,  avg # of iterations =  8.8

     negative rho (up, down):  5.443E-03 0.000E+00

     total cpu time spent up to now is      358.1 secs

     total energy              =   -1842.64798798 Ry
     Harris-Foulkes estimate   =   -1842.64808245 Ry
     estimated scf accuracy    <       0.00174130 Ry

     iteration # 21     ecut=    60.00 Ry     beta= 0.50
     Davidson diagonalization with overlap
     ethr =  7.67E-07,  avg # of iterations =  5.5

     negative rho (up, down):  1.697E-03 0.000E+00

     total cpu time spent up to now is      377.5 secs

     total energy              =   -1842.64796990 Ry
     Harris-Foulkes estimate   =   -1842.64802864 Ry
     estimated scf accuracy    <       0.00228647 Ry

     iteration # 22     ecut=    60.00 Ry     beta= 0.50
     Davidson diagonalization with overlap
     ethr =  7.67E-07,  avg # of iterations =  5.8

     negative rho (up, down):  7.805E-04 0.000E+00

     total cpu time spent up to now is      397.5 secs

     total energy              =   -1842.64801657 Ry
     Harris-Foulkes estimate   =   -1842.64798627 Ry
     estimated scf accuracy    <       0.00074314 Ry

     iteration # 23     ecut=    60.00 Ry     beta= 0.50
     Davidson diagonalization with overlap
     ethr =  3.27E-07,  avg # of iterations =  4.2

     negative rho (up, down):  1.313E-03 0.000E+00

     total cpu time spent up to now is      415.6 secs

     total energy              =   -1842.64799779 Ry
     Harris-Foulkes estimate   =   -1842.64802902 Ry
     estimated scf accuracy    <       0.00032473 Ry

     iteration # 24     ecut=    60.00 Ry     beta= 0.50
     Davidson diagonalization with overlap
     ethr =  1.43E-07,  avg # of iterations =  4.7

     negative rho (up, down):  1.491E-03 0.000E+00

     total cpu time spent up to now is      434.5 secs

     total energy              =   -1842.64803424 Ry
     Harris-Foulkes estimate   =   -1842.64800937 Ry
     estimated scf accuracy    <       0.00006987 Ry

     iteration # 25     ecut=    60.00 Ry     beta= 0.50
     Davidson diagonalization with overlap
     ethr =  3.08E-08,  avg # of iterations =  4.4

     negative rho (up, down):  1.670E-03 0.000E+00

     total cpu time spent up to now is      453.0 secs

     total energy              =   -1842.64803750 Ry
     Harris-Foulkes estimate   =   -1842.64803796 Ry
     estimated scf accuracy    <       0.00001770 Ry

     iteration # 26     ecut=    60.00 Ry     beta= 0.50
     Davidson diagonalization with overlap
     ethr =  7.80E-09,  avg # of iterations =  2.7

     negative rho (up, down):  1.627E-03 0.000E+00

     total cpu time spent up to now is      469.7 secs

     total energy              =   -1842.64803804 Ry
     Harris-Foulkes estimate   =   -1842.64803859 Ry
     estimated scf accuracy    <       0.00000484 Ry

     iteration # 27     ecut=    60.00 Ry     beta= 0.50
     Davidson diagonalization with overlap
     ethr =  2.13E-09,  avg # of iterations =  3.0

     negative rho (up, down):  1.687E-03 0.000E+00

     total cpu time spent up to now is      486.6 secs

     total energy              =   -1842.64803812 Ry
     Harris-Foulkes estimate   =   -1842.64803836 Ry
     estimated scf accuracy    <       0.00000377 Ry

     iteration # 28     ecut=    60.00 Ry     beta= 0.50
     Davidson diagonalization with overlap
     ethr =  1.66E-09,  avg # of iterations =  1.3

     negative rho (up, down):  1.456E-03 0.000E+00

     total cpu time spent up to now is      501.6 secs

     total energy              =   -1842.64803805 Ry
     Harris-Foulkes estimate   =   -1842.64803828 Ry
     estimated scf accuracy    <       0.00000121 Ry

     iteration # 29     ecut=    60.00 Ry     beta= 0.50
     Davidson diagonalization with overlap
     ethr =  5.31E-10,  avg # of iterations =  2.4

     negative rho (up, down):  1.463E-03 0.000E+00

     total cpu time spent up to now is      517.9 secs

     total energy              =   -1842.64803811 Ry
     Harris-Foulkes estimate   =   -1842.64803816 Ry
     estimated scf accuracy    <       0.00000110 Ry

     iteration # 30     ecut=    60.00 Ry     beta= 0.50
     Davidson diagonalization with overlap
     ethr =  4.86E-10,  avg # of iterations =  1.1

     negative rho (up, down):  1.467E-03 0.000E+00

     total cpu time spent up to now is      533.0 secs

     total energy              =   -1842.64803810 Ry
     Harris-Foulkes estimate   =   -1842.64803813 Ry
     estimated scf accuracy    <       0.00000038 Ry

     iteration # 31     ecut=    60.00 Ry     beta= 0.50
     Davidson diagonalization with overlap
     ethr =  1.68E-10,  avg # of iterations =  1.1

     negative rho (up, down):  1.458E-03 0.000E+00

     total cpu time spent up to now is      547.9 secs

     total energy              =   -1842.64803812 Ry
     Harris-Foulkes estimate   =   -1842.64803812 Ry
     estimated scf accuracy    <       0.00000018 Ry

     iteration # 32     ecut=    60.00 Ry     beta= 0.50
     Davidson diagonalization with overlap
     ethr =  7.90E-11,  avg # of iterations =  1.5

     negative rho (up, down):  1.457E-03 0.000E+00

     total cpu time spent up to now is      563.2 secs

     total energy              =   -1842.64803812 Ry
     Harris-Foulkes estimate   =   -1842.64803812 Ry
     estimated scf accuracy    <       0.00000006 Ry

     iteration # 33     ecut=    60.00 Ry     beta= 0.50
     Davidson diagonalization with overlap
     ethr =  2.77E-11,  avg # of iterations =  2.2

     negative rho (up, down):  1.452E-03 0.000E+00

     total cpu time spent up to now is      579.4 secs

     total energy              =   -1842.64803813 Ry
     Harris-Foulkes estimate   =   -1842.64803813 Ry
     estimated scf accuracy    <       0.00000004 Ry

     iteration # 34     ecut=    60.00 Ry     beta= 0.50
     Davidson diagonalization with overlap
     ethr =  1.90E-11,  avg # of iterations =  1.5

     negative rho (up, down):  1.450E-03 0.000E+00

     total cpu time spent up to now is      594.5 secs

     End of self-consistent calculation

          k = 0.0000 0.0000 0.0000 ( 36187 PWs)   bands (ev):

   -39.0642 -35.7654 -23.0522 -22.9693 -22.7675 -22.7104 -20.1679 -20.0451
   -20.0299 -17.2697 -16.8167 -16.8052 -15.9912 -15.4801 -15.0389 -15.0328
   -14.8497 -14.8419 -14.7907 -14.7509 -14.3596 -14.3192 -14.1604 -14.0026
   -13.9672 -13.8325 -13.7075  -8.2709  -8.1006  -8.0738  -8.0630  -7.9228
    -7.8917  -7.8814  -7.8701  -7.8364  -7.7553  -7.6809  -7.5893  -2.5787
    -2.5082  -2.5029  -2.4815  -2.4580  -2.0744  -2.0081  -1.9457  -1.8466
    -1.7176  -1.6628  -1.5630  -1.3984  -1.3606  -1.2966  -1.2349  -1.2123
    -1.0427  -0.9183  -0.8070  -0.6367  -0.6274  -0.5830  -0.5546  -0.4887
    -0.4803  -0.4428  -0.4293  -0.4242  -0.3939  -0.3759  -0.3657  -0.3491
    -0.3294  -0.2926  -0.2152  -0.1927  -0.1495  -0.0952  -0.0793  -0.0791
    -0.0485  -0.0132  -0.0049   0.0454   0.0961   0.1288   0.1448   0.2045
     0.2524   0.5352   0.5642   0.6196   0.7038   0.7280   0.7570   0.7807
     0.9278   0.9815   1.0053   1.1708   1.1866   1.2819   1.3432   1.3515
     1.4310   1.4428   1.5183   1.5428   1.6477   1.8486   1.8534   1.8677
     1.9532   2.0083   2.0726   2.0884   2.1363   2.2332   2.3579   2.4467
     4.7565   5.0386   5.1336   5.5716   5.7226   6.1619   6.5856   6.6717
     6.7805   6.8793   6.9345   6.9684   7.0300   7.5147   7.8245   7.9536
     8.1382

          k = 0.0000 0.1320 0.0000 ( 36125 PWs)   bands (ev):

   -39.0627 -35.7636 -23.0269 -22.9426 -22.7406 -22.6849 -20.1636 -20.0687
   -20.0281 -17.2336 -16.8778 -16.8143 -15.9360 -15.3914 -14.9889 -14.9847
   -14.8731 -14.8548 -14.7769 -14.7236 -14.3691 -14.3251 -14.1657 -14.0488
   -14.0155 -13.8887 -13.7399  -8.2690  -8.1002  -8.0297  -8.0152  -7.9727
    -7.9124  -7.8871  -7.8364  -7.8328  -7.7211  -7.7102  -7.6372  -2.8638
    -2.5671  -2.4913  -2.4877  -2.4625  -2.3451  -2.2360  -1.9849  -1.9585
    -1.8413  -1.8263  -1.8226  -1.7811  -1.7000  -1.5307  -1.3344  -1.2233
    -1.1968  -0.8641  -0.8629  -0.8184  -0.8067  -0.7341  -0.6841  -0.6710
    -0.6390  -0.6112  -0.5176  -0.5174  -0.3908  -0.3739  -0.3424  -0.3260
    -0.2928  -0.2616  -0.1938  -0.1717  -0.1595  -0.1316  -0.1067  -0.1027
    -0.0557  -0.0164  -0.0057  -0.0041   0.0984   0.1454   0.1905   0.2233
     0.4143   0.5025   0.6480   0.7450   0.7605   0.8774   0.9010   0.9681
     0.9715   1.0087   1.1132   1.1867   1.2438   1.2718   1.3420   1.3486
     1.3996   1.4845   1.4877   1.5032   1.6347   1.7321   1.7909   1.8476
     1.8641   2.0186   2.0684   2.2561   2.3810   2.6198   2.6832   2.7318
     4.9236   5.4151   5.4838   5.6644   5.9182   6.3858   6.4820   6.8893
     6.9028   6.9596   7.0827   7.2704   7.3420   7.7420   7.9975   8.1531
     8.3307

          k = 0.0000 0.2640 0.0000 ( 36041 PWs)   bands (ev):

   -39.0591 -35.7592 -22.9646 -22.8767 -22.6741 -22.6221 -20.1692 -20.1088
   -20.0238 -17.1415 -17.0321 -16.8087 -15.7853 -15.1917 -14.9744 -14.9529
   -14.9037 -14.8404 -14.6937 -14.6617 -14.3564 -14.3039 -14.2054 -14.1821
   -14.1202 -13.9946 -13.8306  -8.2649  -8.0997  -8.0760  -8.0027  -7.9192
    -7.8948  -7.8824  -7.8383  -7.8066  -7.7408  -7.7103  -7.5968  -3.3315
    -3.0130  -2.9107  -2.7811  -2.7277  -2.6066  -2.5266  -2.4592  -2.4424
    -2.4054  -2.3417  -2.0012  -1.7724  -1.7078  -1.6437  -1.5943  -1.4159
    -1.2536  -1.2522  -1.1521  -1.1049  -1.0564  -0.9854  -0.9521  -0.9028
    -0.9021  -0.8300  -0.7154  -0.6991  -0.6912  -0.6754  -0.6479  -0.5827
    -0.4968  -0.3430  -0.2332  -0.1676  -0.1655  -0.1022  -0.0837  -0.0566
    -0.0181   0.0309   0.0638   0.1692   0.2084   0.4389   0.5195   0.6283
     0.6991   0.7571   0.7936   0.8094   0.9408   0.9705   0.9862   1.0096
     1.0186   1.0572   1.0762   1.1285   1.1813   1.2998   1.4495   1.4590
     1.4712   1.4882   1.5904   1.6788   1.7524   1.7800   1.7955   1.8270
     1.9667   2.0632   2.0705   2.3817   2.7856   2.8618   2.9666   3.5100
     5.1819   5.6717   6.1747   6.3091   6.3685   6.5421   7.0429   7.0536
     7.1308   7.7101   7.8570   7.9182   8.1271   8.2813   8.5014   8.5825
     8.6501

          k = 0.0000 0.3960 0.0000 ( 35976 PWs)   bands (ev):

   -39.0556 -35.7548 -22.9002 -22.8085 -22.6052 -22.5573 -20.2135 -20.1089
   -20.0194 -17.1683 -17.0399 -16.8030 -15.5777 -15.1437 -15.1126 -15.0265
   -14.8619 -14.6830 -14.6007 -14.4849 -14.3281 -14.2891 -14.2706 -14.2667
   -14.2407 -14.0668 -13.9742  -8.2585  -8.1677  -8.0997  -8.0809  -7.8869
    -7.8777  -7.8334  -7.8308  -7.8022  -7.7663  -7.5795  -7.4765  -3.7321
    -3.6084  -3.4669  -3.2385  -3.2243  -3.1735  -3.1040  -2.5500  -2.5013
    -2.4849  -2.2659  -2.1454  -1.9924  -1.8195  -1.7580  -1.7072  -1.5538
    -1.4753  -1.3623  -1.3170  -1.2892  -1.2625  -1.2538  -1.1599  -1.1572
    -1.0426  -1.0045  -1.0017  -0.9647  -0.9290  -0.8926  -0.8878  -0.6342
    -0.5157  -0.4495  -0.4360  -0.2616  -0.1486  -0.0821  -0.0531  -0.0361
    -0.0177   0.0004   0.0810   0.3129   0.5155   0.6032   0.6718   0.7146
     0.7484   0.7861   0.8112   0.8377   0.9126   0.9574   1.0196   1.0250
     1.1757   1.1799   1.1862   1.3028   1.4188   1.4398   1.4515   1.5468
     1.5681   1.6663   1.6992   1.7767   1.8045   1.8812   2.0297   2.0729
     2.1167   2.1897   2.2255   2.3145   2.7559   2.8756   3.3041   4.0664
     5.0207   5.8958   5.9339   7.1015   7.1278   7.2562   7.3304   7.3842
     8.0070   8.0815   8.4423   8.5079   8.5817   8.8211   8.9114   8.9163
     8.9637

          k = 0.0000-0.5279 0.0000 ( 36018 PWs)   bands (ev):

   -39.0541 -35.7530 -22.8729 -22.7796 -22.5760 -22.5299 -20.2365 -20.1039
   -20.0176 -17.2205 -16.9949 -16.8007 -15.3719 -15.3365 -15.1548 -15.0732
   -14.7476 -14.6749 -14.4527 -14.4435 -14.3562 -14.3152 -14.3062 -14.2506
   -14.2058 -14.1079 -14.1043  -8.2510  -8.2072  -8.1106  -8.0993  -7.9149
    -7.8718  -7.8687  -7.8335  -7.7516  -7.7104  -7.5225  -7.4244  -3.9283
    -3.8276  -3.6456  -3.4320  -3.4164  -3.3942  -3.3210  -2.5661  -2.5189
    -2.4976  -2.3839  -2.1205  -1.9606  -1.9524  -1.8188  -1.7389  -1.6742
    -1.4980  -1.4495  -1.3790  -1.3756  -1.3046  -1.2705  -1.2649  -1.2516
    -1.1600  -1.1183  -1.1114  -1.0154  -0.9785  -0.9745  -0.9640  -0.6506
    -0.5356  -0.4811  -0.4718  -0.2884  -0.1429  -0.0752  -0.0601  -0.0432
    -0.0088   0.0084   0.0937   0.2434   0.4820   0.6350   0.6517   0.6779
     0.7200   0.7939   0.8417   0.9327   0.9404   1.0026   1.1342   1.1447
     1.1711   1.1831   1.2555   1.2778   1.3744   1.5347   1.5586   1.6230
     1.7773   1.8193   1.8345   1.8410   1.8858   1.9251   1.9766   2.0473
     2.1428   2.3030   2.3512   2.3852   2.5784   2.7161   3.6308   4.2610
     4.7398   5.8453   6.0582   7.1241   7.4079   7.5577   7.6684   7.7634
     7.8840   8.2143   8.7257   8.7925   8.8275   8.9134   8.9823   9.1043
     9.1509

          k = 0.1250 0.0000 0.0000 ( 36127 PWs)   bands (ev):

   -39.0634 -35.7643 -23.0353 -22.9512 -22.7492 -22.6931 -20.1644 -20.0485
   -20.0441 -17.2363 -16.8969 -16.8039 -15.9442 -15.3778 -15.0630 -15.0088
   -14.8953 -14.8673 -14.8145 -14.7561 -14.3686 -14.3270 -14.1723 -14.0337
   -14.0137 -13.8614 -13.7372  -8.3025  -8.1263  -8.0247  -8.0012  -7.9176
    -7.8934  -7.8920  -7.8377  -7.7894  -7.6945  -7.6477  -7.5588  -2.7032
    -2.5508  -2.5436  -2.4870  -2.4660  -2.0506  -2.0322  -1.9925  -1.9858
    -1.9169  -1.6329  -1.5647  -1.5432  -1.3963  -1.3584  -1.3329  -1.2568
    -1.0740  -0.9787  -0.8565  -0.8322  -0.7978  -0.6924  -0.6922  -0.5715
    -0.5605  -0.5173  -0.5030  -0.4977  -0.4496  -0.4466  -0.3772  -0.3570
    -0.3389  -0.2792  -0.2341  -0.2303  -0.1496  -0.0864  -0.0570  -0.0548
     0.0164   0.0213   0.0416   0.0612   0.1446   0.1526   0.1988   0.2059
     0.2421   0.5455   0.6110   0.6506   0.6710   0.7194   0.7572   0.8305
     1.0075   1.0312   1.0846   1.1504   1.1878   1.3037   1.3367   1.3548
     1.3932   1.4359   1.5400   1.6693   1.7378   1.7822   1.8149   1.9137
     1.9900   2.0034   2.0493   2.1145   2.1376   2.3813   2.3928   2.5063
     4.8833   5.2190   5.2936   5.5430   5.8915   6.3339   6.5819   6.7116
     6.8003   6.9849   7.0028   7.1372   7.3349   7.6920   7.9703   8.1043
     8.3238

          k = 0.1250 0.1320 0.0000 ( 36104 PWs)   bands (ev):

   -39.0619 -35.7625 -23.0107 -22.9253 -22.7231 -22.6684 -20.1603 -20.0680
   -20.0461 -17.2012 -16.9000 -16.8670 -15.8906 -15.2965 -15.0063 -14.9758
   -14.8939 -14.8896 -14.7845 -14.7262 -14.3695 -14.3249 -14.1779 -14.0641
   -14.0585 -13.9085 -13.7667  -8.2957  -8.1456  -8.1250  -8.0635  -7.9407
    -7.9187  -7.8461  -7.8189  -7.8000  -7.7871  -7.6111  -7.5181  -2.8945
    -2.6076  -2.6011  -2.5107  -2.4815  -2.3311  -2.2149  -2.0297  -1.9648
    -1.9580  -1.9409  -1.8438  -1.8166  -1.7795  -1.5504  -1.5371  -1.3710
    -1.2183  -1.0185  -0.9838  -0.9638  -0.8745  -0.8662  -0.8420  -0.7251
    -0.6918  -0.6874  -0.6793  -0.6191  -0.4462  -0.3877  -0.3674  -0.3186
    -0.2721  -0.2500  -0.2302  -0.2026  -0.1695  -0.1567  -0.1263  -0.0307
    -0.0159   0.0185   0.0284   0.0450   0.1105   0.1551   0.2895   0.3396
     0.4956   0.5374   0.7154   0.7450   0.8494   0.8727   0.9196   0.9551
     1.0420   1.0858   1.1041   1.1411   1.1651   1.2694   1.3419   1.4129
     1.4329   1.4718   1.4834   1.5248   1.5641   1.7403   1.7830   1.9412
     2.0934   2.1667   2.3644   2.4549   2.4814   2.6330   2.6948   2.7405
     5.0213   5.5576   5.6043   5.6262   6.0385   6.3972   6.5445   6.8273
     6.9595   7.0956   7.2782   7.4750   7.5589   7.8951   8.1413   8.2859
     8.4853

          k = 0.1250 0.2640 0.0000 ( 36031 PWs)   bands (ev):

   -39.0583 -35.7581 -22.9501 -22.8615 -22.6587 -22.6075 -20.1666 -20.1079
   -20.0410 -17.1120 -17.0290 -16.8796 -15.7446 -15.1224 -14.9819 -14.9520
   -14.8901 -14.8550 -14.6667 -14.6563 -14.3518 -14.2974 -14.2274 -14.1763
   -14.1245 -14.0031 -13.8487  -8.2822  -8.2544  -8.2146  -8.1005  -8.0245
    -7.9315  -7.8969  -7.8368  -7.8279  -7.7905  -7.6016  -7.5126  -3.3685
    -3.0358  -2.8992  -2.7898  -2.7368  -2.6071  -2.5458  -2.5205  -2.4586
    -2.4172  -2.4032  -1.9872  -1.9744  -1.8938  -1.7099  -1.6089  -1.5550
    -1.4395  -1.4211  -1.2279  -1.1942  -1.1600  -1.0792  -1.0417  -0.9613
    -0.9438  -0.9066  -0.8719  -0.7899  -0.7484  -0.7336  -0.6794  -0.6225
    -0.5031  -0.3373  -0.2615  -0.2545  -0.2464  -0.1195  -0.0421   0.0137
     0.0190   0.1879   0.2099   0.3101   0.3305   0.5374   0.5747   0.6218
     0.6694   0.7946   0.8421   0.9074   0.9231   0.9862   1.0878   1.1230
     1.1367   1.1722   1.2070   1.2270   1.2317   1.3350   1.3794   1.4164
     1.4650   1.4945   1.5431   1.7587   1.7752   1.8156   1.8299   1.9861
     2.2614   2.3650   2.5953   2.6024   2.8699   2.8728   2.9835   3.5092
     5.2543   5.6354   6.0581   6.3700   6.4311   6.5331   6.9726   7.0536
     7.2086   7.8751   8.0091   8.0961   8.2900   8.4336   8.5986   8.6493
     8.7562

          k = 0.1250 0.3960 0.0000 ( 36022 PWs)   bands (ev):

   -39.0548 -35.7537 -22.8876 -22.7956 -22.5922 -22.5446 -20.2116 -20.1080
   -20.0358 -17.1632 -17.0134 -16.8710 -15.5442 -15.1350 -15.0777 -14.9989
   -14.7879 -14.6728 -14.5878 -14.4616 -14.3227 -14.3079 -14.2608 -14.2524
   -14.2383 -14.0612 -13.9759  -8.3209  -8.2689  -8.2451  -8.1120  -8.0518
    -7.9863  -7.9202  -7.8478  -7.8424  -7.8354  -7.6464  -7.5521  -3.7835
    -3.6043  -3.5075  -3.2672  -3.2367  -3.1651  -3.1020  -2.5582  -2.5209
    -2.5050  -2.3680  -2.1479  -1.9707  -1.8514  -1.8318  -1.8084  -1.7643
    -1.6992  -1.5066  -1.4513  -1.3837  -1.3525  -1.2933  -1.2267  -1.2013
    -1.0827  -1.0512  -1.0293  -1.0183  -0.9807  -0.9442  -0.9311  -0.8875
    -0.5535  -0.4039  -0.2816  -0.2702  -0.2307  -0.1233  -0.0813   0.0255
     0.0586   0.2499   0.3092   0.4756   0.4967   0.6196   0.7229   0.7897
     0.8276   0.8753   0.9223   0.9912   0.9947   1.0316   1.0514   1.1564
     1.1707   1.2621   1.3466   1.3522   1.4725   1.5412   1.5654   1.6129
     1.6791   1.6833   1.7652   1.8683   2.0259   2.1206   2.1568   2.1926
     2.2504   2.3130   2.5084   2.5306   2.8140   2.9379   3.3796   4.0486
     5.0832   5.7482   5.9379   6.8785   7.0691   7.1211   7.2040   7.3812
     7.9519   8.1363   8.4822   8.5384   8.5776   8.7331   8.8656   9.0135
     9.1984

          k = 0.1250-0.5279 0.0000 ( 35996 PWs)   bands (ev):

   -39.0533 -35.7519 -22.8612 -22.7676 -22.5639 -22.5180 -20.2345 -20.1033
   -20.0336 -17.2148 -16.9700 -16.8673 -15.3370 -15.3256 -15.1101 -15.0318
   -14.6751 -14.6358 -14.4517 -14.4218 -14.3390 -14.3296 -14.3092 -14.2514
   -14.2061 -14.0892 -14.0885  -8.3305  -8.2674  -8.2397  -8.1169  -8.0441
    -7.9956  -7.9431  -7.8700  -7.8538  -7.8461  -7.6806  -7.5774  -3.9609
    -3.8533  -3.6942  -3.4454  -3.4431  -3.3935  -3.3254  -2.5793  -2.5279
    -2.5239  -2.3154  -2.1137  -2.1043  -2.0010  -1.8339  -1.8218  -1.7707
    -1.6975  -1.6361  -1.5453  -1.4501  -1.4193  -1.3787  -1.3198  -1.2538
    -1.1266  -1.1262  -1.1239  -1.1079  -1.0285  -1.0047  -0.9948  -0.9916
    -0.5449  -0.4212  -0.2743  -0.2717  -0.2030  -0.1837  -0.0714   0.0350
     0.0665   0.2508   0.3516   0.4650   0.5006   0.6346   0.7528   0.7773
     0.8257   0.8470   0.8938   0.9765   0.9889   1.0864   1.1694   1.2485
     1.2710   1.2911   1.3094   1.3484   1.5889   1.5998   1.8268   1.8291
     1.8525   1.8620   1.9101   2.0370   2.1027   2.1681   2.1916   2.2878
     2.3074   2.3221   2.3596   2.3761   2.6921   2.8117   3.6893   4.2425
     4.8088   5.7054   6.0563   6.9788   7.0971   7.3425   7.4453   7.6752
     7.9223   8.1412   8.3203   8.8727   8.8844   9.0185   9.1280   9.2152
     9.3464

          k = 0.2500 0.0000 0.0000 ( 36150 PWs)   bands (ev):

   -39.0615 -35.7617 -22.9938 -22.9069 -22.7042 -22.6508 -20.1596 -20.0893
   -20.0418 -17.1510 -17.0611 -16.8005 -15.8189 -15.1799 -15.1312 -15.0421
   -14.9772 -14.9436 -14.7799 -14.7777 -14.3827 -14.3357 -14.2232 -14.1562
   -14.0597 -13.9180 -13.8194  -8.3370  -8.1278  -7.9580  -7.9147  -7.9132
    -7.8788  -7.8205  -7.7569  -7.7166  -7.6108  -7.5651  -7.4832  -3.0465
    -2.7441  -2.5840  -2.5705  -2.4413  -2.3877  -2.3709  -2.1293  -1.9679
    -1.9253  -1.8273  -1.6504  -1.4858  -1.4427  -1.3930  -1.3542  -1.3225
    -1.2207  -1.1649  -1.1592  -1.1307  -1.0708  -0.9491  -0.9475  -0.8174
    -0.7565  -0.7089  -0.6962  -0.6391  -0.4931  -0.4602  -0.4446  -0.4287
    -0.3791  -0.3733  -0.3650  -0.3451  -0.2107  -0.0991  -0.0680   0.0063
     0.0688   0.0935   0.1455   0.1515   0.2459   0.2677   0.2765   0.3629
     0.3929   0.4820   0.4947   0.7060   0.7767   0.8548   0.8638   0.8929
     0.9138   1.1017   1.1295   1.1707   1.2395   1.2698   1.2780   1.3961
     1.4400   1.5340   1.5380   1.6324   1.7041   1.7072   1.8558   1.8585
     2.0547   2.0810   2.1475   2.1780   2.3081   2.5003   2.6197   2.7817
     5.1572   5.2484   5.6764   5.7328   6.2558   6.4139   6.8618   6.8848
     7.0469   7.3764   7.5310   7.6380   7.7890   8.0618   8.3258   8.4625
     8.6445

          k = 0.2500 0.1320 0.0000 ( 36087 PWs)   bands (ev):

   -39.0600 -35.7599 -22.9709 -22.8831 -22.6802 -22.6279 -20.1559 -20.0892
   -20.0626 -17.1189 -17.0547 -16.8667 -15.7695 -15.1295 -15.0691 -15.0163
   -14.9571 -14.9277 -14.7446 -14.7252 -14.3686 -14.3210 -14.2200 -14.1611
   -14.0940 -13.9450 -13.8400  -8.3506  -8.1964  -8.1333  -8.0514  -7.9924
    -7.9635  -7.8044  -7.8043  -7.7636  -7.7233  -7.5336  -7.4497  -3.1338
    -2.7941  -2.6660  -2.6023  -2.5981  -2.3801  -2.3604  -2.2715  -2.1360
    -2.1221  -1.9330  -1.8940  -1.8286  -1.8071  -1.7661  -1.5992  -1.5120
    -1.4849  -1.2658  -1.2568  -1.1945  -1.1323  -1.0656  -1.0333  -0.9322
    -0.8571  -0.8037  -0.7281  -0.7246  -0.6410  -0.5167  -0.4558  -0.3943
    -0.3472  -0.2106  -0.1847  -0.1799  -0.1526  -0.1300  -0.1187  -0.0611
     0.0085   0.0538   0.0629   0.1516   0.2031   0.3644   0.4269   0.5149
     0.5883   0.6976   0.7380   0.7453   0.7836   0.8848   0.9863   1.0258
     1.0652   1.1093   1.2007   1.2027   1.2545   1.2991   1.3513   1.3525
     1.4112   1.4417   1.5260   1.5559   1.5973   1.7960   1.8679   2.1069
     2.2854   2.4872   2.6636   2.6777   2.6874   2.7613   2.8323   2.8824
     5.2490   5.3047   5.9376   5.9951   6.2032   6.3214   6.9278   7.0113
     7.0305   7.6339   7.7853   7.8850   8.0526   8.2527   8.4428   8.6166
     8.7734

          k = 0.2500 0.2640 0.0000 ( 36083 PWs)   bands (ev):

   -39.0565 -35.7556 -22.9147 -22.8244 -22.6211 -22.5716 -20.1613 -20.1151
   -20.0717 -17.0546 -17.0306 -17.0032 -15.6366 -15.0401 -15.0160 -14.9644
   -14.8917 -14.7881 -14.6559 -14.5836 -14.3435 -14.2816 -14.2682 -14.1732
   -14.1356 -14.0146 -13.8971  -8.4701  -8.4166  -8.2942  -8.2268  -8.1210
    -8.1131  -7.9358  -7.8596  -7.8507  -7.8431  -7.6513  -7.5722  -3.5414
    -3.1728  -2.9249  -2.8243  -2.8100  -2.7907  -2.6204  -2.5060  -2.4915
    -2.4557  -2.4087  -2.3508  -2.3130  -2.0989  -1.9932  -1.8513  -1.6909
    -1.6294  -1.5998  -1.4442  -1.4236  -1.2609  -1.2295  -1.1835  -1.0862
    -1.0559  -0.9412  -0.9119  -0.8493  -0.7948  -0.7720  -0.7587  -0.6621
    -0.5796  -0.5295  -0.4200  -0.2086  -0.0833  -0.0439   0.0924   0.1604
     0.1746   0.3733   0.3980   0.4748   0.6059   0.6421   0.6629   0.7158
     0.7805   0.8083   0.8429   0.9300   1.0578   1.0836   1.2022   1.2633
     1.2643   1.2776   1.3455   1.3663   1.4385   1.4457   1.4649   1.4967
     1.5221   1.5693   1.6272   1.6793   1.7784   1.8558   1.9298   2.1319
     2.8081   2.8663   2.8968   3.0926   3.1249   3.2429   3.3198   3.5097
     5.3554   5.4474   5.8951   6.3947   6.4802   6.5524   6.9994   7.0676
     7.4078   8.1665   8.2605   8.4431   8.5546   8.7162   8.7785   8.8720
     9.0006

          k = 0.2500 0.3960 0.0000 ( 36064 PWs)   bands (ev):

   -39.0529 -35.7512 -22.8569 -22.7639 -22.5603 -22.5137 -20.2068 -20.1170
   -20.0635 -17.1511 -17.0191 -16.9447 -15.4588 -15.1196 -14.9964 -14.9321
   -14.6674 -14.6195 -14.5516 -14.4037 -14.3931 -14.2759 -14.2323 -14.2232
   -14.2075 -14.0538 -13.9811  -8.6000  -8.5366  -8.3437  -8.3263  -8.2483
    -8.1635  -8.1283  -8.0570  -7.9366  -7.9019  -7.8306  -7.7864  -3.9874
    -3.6734  -3.5769  -3.3810  -3.3039  -3.1444  -3.0925  -2.7718  -2.6300
    -2.5364  -2.4990  -2.3610  -2.3189  -2.2610  -2.0542  -1.9930  -1.9329
    -1.7899  -1.7138  -1.6206  -1.6023  -1.4298  -1.3987  -1.3108  -1.2502
    -1.1668  -1.1219  -1.0500  -0.9828  -0.9769  -0.9343  -0.8998  -0.8061
    -0.7223  -0.6030  -0.4867  -0.1124  -0.0374   0.0611   0.1464   0.2336
     0.3281   0.5486   0.5635   0.5981   0.7751   0.7996   0.8298   0.8898
     1.0667   1.0987   1.1098   1.1449   1.2037   1.2311   1.3102   1.3343
     1.3534   1.4016   1.4856   1.5236   1.5475   1.5971   1.7042   1.7354
     1.7383   1.7668   1.8283   1.8745   2.0784   2.1144   2.1952   2.2148
     2.6402   2.7442   3.0573   3.3224   3.4782   3.5368   3.6134   4.0166
     5.2138   5.4156   5.9683   6.2389   6.6878   6.7855   7.0876   7.4075
     7.5748   8.4746   8.6190   8.7347   8.7821   8.8414   8.9868   9.1516
     9.4542

          k = 0.2500-0.5279 0.0000 ( 36068 PWs)   bands (ev):

   -39.0515 -35.7494 -22.8325 -22.7384 -22.5345 -22.4892 -20.2299 -20.1137
   -20.0595 -17.2013 -17.0136 -16.9051 -15.3009 -15.2497 -14.9931 -14.9258
   -14.5422 -14.5416 -14.4485 -14.4040 -14.3678 -14.2986 -14.2596 -14.2459
   -14.2037 -14.0561 -14.0468  -8.6191  -8.5368  -8.3404  -8.3186  -8.2834
    -8.2530  -8.2510  -8.1232  -8.0607  -7.9197  -7.8904  -7.8636  -4.1680
    -3.8816  -3.8360  -3.5747  -3.5136  -3.3721  -3.3210  -2.7195  -2.6373
    -2.5540  -2.5482  -2.4827  -2.2834  -2.2000  -2.1434  -2.0450  -2.0138
    -1.8391  -1.7591  -1.7562  -1.6353  -1.4704  -1.4525  -1.4011  -1.2907
    -1.2171  -1.2007  -1.1224  -1.0473  -1.0089  -0.9938  -0.9011  -0.8250
    -0.7355  -0.6307  -0.5110  -0.0941   0.0047   0.0992   0.1572   0.2654
     0.3546   0.6094   0.6235   0.6678   0.8531   0.9016   0.9179   1.0206
     1.0209   1.0998   1.1284   1.1928   1.1980   1.2492   1.2775   1.3246
     1.4748   1.4881   1.5606   1.6252   1.7322   1.7336   1.8139   1.8424
     1.8615   1.8953   1.8978   2.0118   2.2540   2.2668   2.2829   2.3783
     2.4188   2.5444   3.0734   3.3426   3.5140   3.5852   3.8318   4.2299
     4.9740   5.4030   6.0873   6.1404   6.6525   6.7576   7.1157   7.5379
     7.8711   8.0558   8.6109   8.8216   9.0180   9.2574   9.3409   9.3563
     9.5930

          k = 0.3750 0.0000 0.0000 ( 36078 PWs)   bands (ev):

   -39.0596 -35.7591 -22.9514 -22.8615 -22.6580 -22.6076 -20.1712 -20.1127
   -20.0395 -17.2010 -17.0558 -16.7972 -15.6646 -15.2252 -15.2027 -15.1553
   -15.0619 -14.8322 -14.7824 -14.6404 -14.3957 -14.3417 -14.3317 -14.2508
   -14.0963 -13.9594 -13.9317  -8.3453  -8.1103  -7.9226  -7.8754  -7.8497
    -7.8479  -7.7446  -7.6726  -7.6641  -7.5636  -7.4786  -7.4044  -3.3518
    -3.0716  -2.8912  -2.8120  -2.5100  -2.4347  -2.4145  -2.2914  -1.9563
    -1.8435  -1.7608  -1.6824  -1.5675  -1.4607  -1.4310  -1.4035  -1.4032
    -1.3946  -1.3699  -1.3523  -1.3306  -1.2410  -1.1970  -1.0777  -1.0606
    -0.9339  -0.9091  -0.8783  -0.8414  -0.6486  -0.5741  -0.5071  -0.4365
    -0.4067  -0.3946  -0.3863  -0.3675  -0.1679  -0.1119  -0.0808  -0.0158
     0.0203   0.1267   0.1587   0.2247   0.2486   0.2910   0.3103   0.3234
     0.3489   0.5539   0.5943   0.6793   0.8175   0.9335   0.9758   1.0054
     1.0060   1.0504   1.0591   1.1712   1.3189   1.3264   1.3333   1.4342
     1.5127   1.5293   1.5980   1.6290   1.7377   1.7688   1.8338   1.9490
     2.0681   2.0838   2.1944   2.2507   2.4134   2.6241   2.7239   3.2479
     4.6623   5.4683   6.2755   6.3261   6.3826   6.5782   7.0736   7.1904
     7.5910   7.7859   7.8211   7.9191   8.2888   8.3811   8.5588   8.6073
     8.6693

          k = 0.3750 0.1320 0.0000 ( 36137 PWs)   bands (ev):

   -39.0581 -35.7573 -22.9303 -22.8398 -22.6362 -22.5866 -20.1679 -20.1122
   -20.0600 -17.1924 -17.0267 -16.8617 -15.6200 -15.1761 -15.1393 -15.1093
   -15.0562 -14.7917 -14.7219 -14.5932 -14.3666 -14.3153 -14.3112 -14.2348
   -14.1312 -13.9685 -13.9384  -8.3633  -8.1679  -8.0757  -8.0131  -7.9484
    -7.9437  -7.8305  -7.7880  -7.7623  -7.7386  -7.5689  -7.4978  -3.4425
    -3.1333  -2.9353  -2.8445  -2.6091  -2.5088  -2.4189  -2.4083  -2.2254
    -2.0494  -1.9295  -1.8634  -1.8338  -1.7957  -1.7951  -1.7551  -1.6722
    -1.6405  -1.4917  -1.3783  -1.3546  -1.2780  -1.2264  -1.1620  -1.1256
    -0.9785  -0.8992  -0.8765  -0.8156  -0.7239  -0.5960  -0.5247  -0.4476
    -0.3912  -0.2377  -0.1937  -0.1655  -0.1583  -0.1008  -0.0922  -0.0003
     0.0287   0.0533   0.0670   0.2596   0.2833   0.3089   0.4836   0.6005
     0.6355   0.6498   0.7357   0.8072   0.9441   0.9762   0.9931   1.0556
     1.1002   1.1014   1.1548   1.1807   1.2478   1.3507   1.3632   1.4362
     1.5286   1.5810   1.6147   1.6547   1.6854   1.8032   2.0261   2.0809
     2.4716   2.5665   2.6742   2.7288   2.7863   2.9591   2.9978   3.3353
     4.7217   5.5447   6.0602   6.4720   6.4791   6.5409   7.0630   7.2242
     7.6381   7.8866   7.9724   8.0333   8.3184   8.6464   8.6820   8.7520
     8.8637

          k = 0.3750 0.2640 0.0000 ( 36135 PWs)   bands (ev):

   -39.0546 -35.7530 -22.8786 -22.7865 -22.5827 -22.5350 -20.1628 -20.1401
   -20.0769 -17.1721 -17.0060 -16.9515 -15.5038 -15.0838 -15.0536 -14.9924
   -14.9276 -14.6960 -14.5729 -14.4730 -14.3264 -14.2936 -14.2652 -14.1912
   -14.1677 -14.0100 -13.9590  -8.5309  -8.4693  -8.3185  -8.2773  -8.1750
    -8.1478  -8.1048  -8.0255  -7.9234  -7.8981  -7.7975  -7.7709  -3.8173
    -3.4488  -3.1748  -3.0259  -2.8932  -2.8085  -2.6806  -2.5605  -2.5350
    -2.4945  -2.4632  -2.4301  -2.4217  -2.3627  -2.3610  -1.9583  -1.8290
    -1.7505  -1.6462  -1.5275  -1.4306  -1.2739  -1.2449  -1.2007  -1.1223
    -1.0830  -1.0462  -0.9453  -0.9410  -0.8301  -0.8215  -0.7938  -0.7430
    -0.6675  -0.5536  -0.4681  -0.1513  -0.0076   0.1188   0.1507   0.2738
     0.3962   0.5132   0.5310   0.5384   0.6482   0.7363   0.8044   0.8306
     0.8980   0.9178   0.9460   1.0028   1.0533   1.2098   1.2287   1.2364
     1.3178   1.4195   1.4566   1.4645   1.4799   1.5291   1.5653   1.5851
     1.6073   1.6414   1.6529   1.7737   1.8722   1.9071   2.0658   2.1409
     2.8093   2.8960   3.3013   3.4358   3.5427   3.5954   3.6795   3.7438
     4.8706   5.5822   5.8363   6.1441   6.5206   6.6094   7.0896   7.3011
     7.4627   8.2266   8.3034   8.5334   8.6514   8.8711   9.0337   9.2288
     9.2778

          k = 0.3750 0.3960 0.0000 ( 36111 PWs)   bands (ev):

   -39.0511 -35.7486 -22.8257 -22.7318 -22.5278 -22.4822 -20.2018 -20.1488
   -20.0677 -17.1547 -17.1328 -16.8718 -15.3634 -15.1162 -14.9186 -14.8655
   -14.6670 -14.6024 -14.4140 -14.4074 -14.3444 -14.2593 -14.2224 -14.1689
   -14.1584 -14.0646 -13.9894  -8.8021  -8.7351  -8.5400  -8.4823  -8.4045
    -8.3998  -8.3425  -8.2156  -8.1504  -8.0708  -7.9269  -7.8831  -4.2804
    -3.9281  -3.6311  -3.5219  -3.4599  -3.1238  -3.0785  -2.9603  -2.8106
    -2.6706  -2.6534  -2.6504  -2.4584  -2.4242  -2.3665  -2.2691  -2.0258
    -1.8529  -1.7883  -1.6301  -1.4310  -1.4132  -1.3873  -1.3319  -1.3231
    -1.1556  -1.1381  -1.1271  -1.0466  -0.9867  -0.9763  -0.8771  -0.8326
    -0.8204  -0.5749  -0.5073  -0.0201   0.1083   0.2213   0.2996   0.4563
     0.6787   0.7609   0.7969   0.8464   0.9422   0.9813   1.0509   1.0905
     1.1067   1.1752   1.2322   1.3048   1.3791   1.3822   1.4032   1.4115
     1.5256   1.5767   1.5872   1.6199   1.7081   1.7764   1.8081   1.8263
     1.8694   1.8990   1.9155   1.9763   2.0002   2.0466   2.2241   2.4542
     2.6306   2.7302   3.6496   3.8732   4.0478   4.1051   4.1615   4.2425
     5.0226   5.2775   5.6603   6.0663   6.2173   6.3180   7.1933   7.2778
     7.5163   8.7493   8.7919   8.8331   8.9175   9.0153   9.1790   9.2307
     9.2816

          k = 0.3750-0.5279 0.0000 ( 36128 PWs)   bands (ev):

   -39.0496 -35.7468 -22.8034 -22.7088 -22.5047 -22.4599 -20.2253 -20.1460
   -20.0626 -17.1879 -17.1422 -16.8364 -15.2785 -15.1579 -14.8573 -14.8090
   -14.5767 -14.4632 -14.4467 -14.3254 -14.2984 -14.2951 -14.2379 -14.1953
   -14.1726 -14.0433 -14.0097  -8.8981  -8.8171  -8.6187  -8.5592  -8.5583
    -8.5452  -8.3660  -8.3640  -8.1882  -8.1758  -7.9415  -7.9076  -4.4730
    -4.1346  -3.8627  -3.7602  -3.6697  -3.3490  -3.3051  -2.9610  -2.8291
    -2.7746  -2.6724  -2.6669  -2.4529  -2.4228  -2.3760  -2.3601  -2.1066
    -1.8808  -1.8803  -1.6578  -1.5112  -1.4545  -1.4466  -1.4019  -1.3986
    -1.1956  -1.1954  -1.1379  -1.1334  -1.0627  -1.0596  -0.9031  -0.8306
    -0.7871  -0.5606  -0.5049   0.0106   0.1335   0.2367   0.3827   0.5537
     0.8100   0.8331   0.8418   0.9481   1.0182   1.0850   1.1260   1.1765
     1.2556   1.2686   1.3070   1.3704   1.3711   1.4192   1.5351   1.5744
     1.5747   1.6283   1.7160   1.8349   1.8408   1.8704   1.9198   1.9433
     1.9585   1.9781   2.0199   2.1083   2.1906   2.2244   2.3000   2.3880
     2.5058   2.6149   3.6921   4.0303   4.2002   4.2897   4.3563   4.4173
     5.0822   5.0906   5.4634   6.0396   6.1403   6.1846   7.1034   7.3217
     8.0605   8.1852   8.7409   8.8962   8.9977   9.1240   9.1820   9.2163
     9.2630

          k =-0.5000 0.0000 0.0000 ( 36070 PWs)   bands (ev):

   -39.0588 -35.7580 -22.9335 -22.8423 -22.6385 -22.5893 -20.1836 -20.1145
   -20.0385 -17.2535 -17.0136 -16.7959 -15.5842 -15.2812 -15.2140 -15.2086
   -15.1515 -14.8511 -14.5768 -14.5628 -14.4998 -14.3787 -14.3228 -14.3012
   -14.1075 -13.9990 -13.9732  -8.3436  -8.1000  -7.9063  -7.8617  -7.8311
    -7.8266  -7.7123  -7.6470  -7.6364  -7.5510  -7.4415  -7.3708  -3.4728
    -3.2136  -3.0341  -2.9505  -2.5349  -2.4624  -2.4293  -2.1927  -1.9704
    -1.8322  -1.7960  -1.6424  -1.6098  -1.5565  -1.5368  -1.4343  -1.4208
    -1.4068  -1.3985  -1.3667  -1.3545  -1.3349  -1.2835  -1.1738  -1.0826
    -1.0215  -0.9925  -0.9623  -0.9274  -0.7176  -0.6097  -0.5494  -0.4580
    -0.4009  -0.3962  -0.3906  -0.3574  -0.1745  -0.1173  -0.0861  -0.0138
    -0.0119   0.1314   0.1476   0.2243   0.2495   0.2640   0.2863   0.3320
     0.3398   0.5204   0.6432   0.6507   0.9408   0.9554   0.9681   0.9810
     1.0129   1.0764   1.1879   1.2176   1.2548   1.3537   1.3994   1.4124
     1.4750   1.5280   1.5515   1.6909   1.7769   1.8603   1.9643   1.9830
     2.0672   2.0756   2.1821   2.2583   2.4234   2.6595   2.7388   3.6276
     4.2100   5.6004   6.2232   6.7069   7.0828   7.0984   7.1509   7.1874
     7.1935   7.3374   7.6896   8.0915   8.3667   8.6711   8.7086   8.8778
     8.9455

          k =-0.5000 0.1320 0.0000 ( 36134 PWs)   bands (ev):

   -39.0573 -35.7562 -22.9132 -22.8215 -22.6177 -22.5691 -20.1805 -20.1141
   -20.0587 -17.2442 -16.9861 -16.8595 -15.5400 -15.2238 -15.1531 -15.1448
   -15.1429 -14.8106 -14.5353 -14.5199 -14.4419 -14.3560 -14.3028 -14.2695
   -14.1450 -13.9966 -13.9755  -8.3586  -8.1390  -7.9834  -7.9560  -7.9423
    -7.9149  -7.8827  -7.8394  -7.7769  -7.6710  -7.6316  -7.5842  -3.5701
    -3.2818  -3.0862  -2.9892  -2.5705  -2.5400  -2.4615  -2.4170  -2.1938
    -2.0342  -1.9949  -1.8829  -1.8036  -1.8007  -1.7903  -1.7496  -1.7074
    -1.6931  -1.6064  -1.4845  -1.3525  -1.2815  -1.2756  -1.2600  -1.1441
    -1.0483  -0.9914  -0.8780  -0.8605  -0.7464  -0.6323  -0.5552  -0.4713
    -0.4088  -0.2517  -0.2071  -0.1668  -0.1471  -0.1007  -0.0754   0.0012
     0.0323   0.0662   0.1477   0.1715   0.3357   0.3764   0.4159   0.5587
     0.5871   0.6359   0.7545   0.8812   0.9837   0.9858   1.0713   1.0899
     1.1007   1.1108   1.1251   1.1857   1.2381   1.3763   1.3937   1.4530
     1.5199   1.5593   1.6825   1.6979   1.7410   1.9693   2.0551   2.1062
     2.5220   2.5733   2.6655   2.7382   2.8047   3.0116   3.0336   3.7024
     4.2831   5.6768   5.9950   6.5199   6.9461   7.0360   7.0748   7.4156
     7.4536   7.5114   7.8421   7.9970   8.2995   8.7822   8.9716   9.1170
     9.1973

          k =-0.5000 0.2640 0.0000 ( 36164 PWs)   bands (ev):

   -39.0538 -35.7519 -22.8635 -22.7706 -22.5666 -22.5196 -20.1729 -20.1445
   -20.0753 -17.2222 -17.0027 -16.9151 -15.4308 -15.1312 -15.0724 -15.0075
   -14.9440 -14.7136 -14.4302 -14.4154 -14.3447 -14.3045 -14.2582 -14.2118
   -14.1918 -14.0035 -13.9934  -8.4940  -8.4081  -8.2982  -8.2722  -8.2572
    -8.2061  -8.1309  -8.0889  -8.0784  -7.9469  -7.8799  -7.8252  -3.9463
    -3.5871  -3.3193  -3.1612  -2.9105  -2.7988  -2.7060  -2.5737  -2.5506
    -2.5177  -2.4906  -2.4791  -2.4379  -2.4251  -2.3793  -2.0814  -1.8555
    -1.8361  -1.6221  -1.6100  -1.3490  -1.3300  -1.1610  -1.1477  -1.1130
    -1.0927  -1.0500  -1.0476  -0.9755  -0.8533  -0.8329  -0.8130  -0.7641
    -0.6707  -0.5736  -0.4876  -0.1294   0.0120   0.1707   0.2030   0.3204
     0.4730   0.5514   0.5971   0.5997   0.6729   0.7476   0.7994   0.9105
     0.9887   1.0009   1.0092   1.0285   1.0486   1.1023   1.2394   1.3009
     1.3171   1.3926   1.4465   1.5013   1.5196   1.5725   1.5821   1.6514
     1.6536   1.7303   1.7369   1.7827   1.8114   1.9693   2.0065   2.2722
     2.8026   2.8859   3.4154   3.4867   3.6849   3.7988   3.8331   3.9521
     4.4989   5.5884   5.8561   6.0468   6.5162   6.6071   7.1005   7.3947
     7.6267   8.0588   8.2642   8.2923   8.8247   8.9803   9.3066   9.3745
     9.4134

          k =-0.5000 0.3960 0.0000 ( 36108 PWs)   bands (ev):

   -39.0503 -35.7476 -22.8126 -22.7184 -22.5143 -22.4690 -20.1995 -20.1654
   -20.0660 -17.2006 -17.1319 -16.8395 -15.3179 -15.1213 -14.8895 -14.8384
   -14.6748 -14.6208 -14.3992 -14.3206 -14.3189 -14.2560 -14.2149 -14.1519
   -14.1401 -14.0769 -13.9947  -8.8599  -8.7833  -8.5848  -8.5568  -8.5452
    -8.5208  -8.3658  -8.3647  -8.2031  -8.1666  -7.9372  -7.8972  -4.4173
    -4.0585  -3.7427  -3.5611  -3.5231  -3.1153  -3.0719  -3.0108  -2.8803
    -2.7678  -2.7233  -2.7216  -2.4747  -2.4354  -2.4079  -2.3665  -2.0625
    -1.9104  -1.8576  -1.5435  -1.5046  -1.4134  -1.3590  -1.3112  -1.2865
    -1.2251  -1.1362  -1.0661  -1.0606  -1.0401  -0.9629  -0.9517  -0.8770
    -0.7985  -0.5368  -0.4825   0.0078   0.1509   0.2492   0.4224   0.5481
     0.7860   0.8490   0.8837   1.0118   1.0296   1.0800   1.1070   1.1583
     1.1939   1.2155   1.2790   1.3127   1.3824   1.4090   1.4454   1.4508
     1.5422   1.5962   1.6365   1.6718   1.7958   1.7969   1.8650   1.8918
     1.9278   1.9696   1.9711   2.0111   2.0373   2.0842   2.1720   2.5760
     2.6194   2.7104   3.7196   4.0832   4.2839   4.3371   4.4058   4.4916
     4.7611   5.2632   5.4380   6.0212   6.0963   6.1629   7.0456   7.3536
     7.8779   8.2775   8.7167   8.7532   8.8572   8.9870   9.2056   9.2636
     9.3263

          k =-0.5000-0.5279 0.0000 ( 36156 PWs)   bands (ev):

   -39.0488 -35.7458 -22.7912 -22.6964 -22.4922 -22.4477 -20.2234 -20.1623
   -20.0607 -17.1918 -17.1825 -16.8060 -15.2699 -15.1184 -14.7917 -14.7567
   -14.6171 -14.4465 -14.4445 -14.2958 -14.2742 -14.2589 -14.2322 -14.1901
   -14.1115 -14.0644 -13.9967  -9.0115  -8.9293  -8.7297  -8.6743  -8.6707
    -8.6613  -8.4814  -8.3835  -8.3030  -8.1944  -7.9541  -7.9245  -4.6148
    -4.2667  -3.9485  -3.7861  -3.7666  -3.3395  -3.2973  -3.0265  -2.9128
    -2.8550  -2.7597  -2.7490  -2.4648  -2.4570  -2.4346  -2.3989  -2.1307
    -1.9389  -1.9339  -1.5726  -1.5258  -1.5251  -1.4473  -1.4141  -1.3489
    -1.2010  -1.1767  -1.1607  -1.1191  -1.1170  -1.0637  -0.9821  -0.8832
    -0.7558  -0.5079  -0.4611   0.0426   0.1769   0.2666   0.5307   0.7054
     0.8653   0.9380   0.9963   1.0229   1.1295   1.1635   1.1863   1.2283
     1.2650   1.2981   1.3730   1.4548   1.4664   1.4761   1.5973   1.6518
     1.6731   1.7354   1.7554   1.8293   1.8748   1.9369   1.9571   1.9905
     2.0228   2.0592   2.1620   2.1637   2.1975   2.2510   2.3476   2.3654
     2.4635   2.7272   3.7403   4.2676   4.5037   4.5605   4.6162   4.6994
     4.8693   5.1032   5.2024   5.7942   5.8937   6.2533   6.9397   7.5516
     8.2733   8.4547   8.4616   8.6243   8.8525   8.8573   8.9262   9.1558
     9.3115

     the Fermi energy is     2.3891 ev

!    total energy              =   -1842.64803813 Ry
     Harris-Foulkes estimate   =   -1842.64803813 Ry
     estimated scf accuracy    <          8.1E-09 Ry

     The total energy is the sum of the following terms:

     one-electron contribution =  -28643.33166133 Ry
     hartree contribution      =   14471.98715931 Ry
     xc contribution           =    -621.50466328 Ry
     ewald contribution        =   12950.20908368 Ry
     smearing contrib. (-TS)   =      -0.00795651 Ry

     convergence has been achieved in  34 iterations

     negative rho (up, down):  1.450E-03 0.000E+00

     Forces acting on atoms (cartesian axes, Ry/au):

     atom    1 type  4   force =     0.00000000    0.00000000   -0.00017241
     atom    2 type  3   force =     0.00000000    0.00000000    0.00036661
     atom    3 type  4   force =     0.00000000    0.00000000   -0.00079273
     atom    4 type  1   force =     0.00000000    0.00000000   -0.00029355
     atom    5 type  3   force =     0.00000000    0.00000000    0.00051401
     atom    6 type  4   force =     0.00000000    0.00000000   -0.00000902
     atom    7 type  4   force =     0.00000000    0.00000000    0.00033442
     atom    8 type  2   force =     0.00000000    0.00000000   -0.00063153
     atom    9 type  4   force =     0.00000000    0.00000000    0.00029040
     atom   10 type  4   force =     0.00000000    0.00000000    0.00038293
     atom   11 type  3   force =     0.00000000    0.00000000    0.00030015
     atom   12 type  1   force =     0.00000000    0.00000000    0.00014810
     atom   13 type  4   force =     0.00000000    0.00000000    0.00326993
     atom   14 type  4   force =     0.00000000    0.00000000    0.00403706
     atom   15 type  3   force =     0.00000000    0.00000000   -0.00708720
     atom   16 type  4   force =     0.00000000    0.00000000    0.00655624
     atom   17 type  1   force =     0.00000000    0.00000000   -0.02016110
     atom   18 type  3   force =     0.00000000    0.00000000    0.00962972
     atom   19 type  4   force =     0.00000000    0.00000000    0.05928803
     atom   20 type  4   force =     0.00000000    0.00000000    0.06616931
     atom   21 type  2   force =     0.00000000    0.00000000   -0.10543469
     atom   22 type  4   force =     0.00000000    0.00000000    0.00758394
     atom   23 type  4   force =     0.00000000    0.00000000    0.01538317
     atom   24 type  3   force =     0.00000000    0.00000000   -0.01872227
     atom   25 type  1   force =     0.00000000    0.00000000   -0.01836615
     atom   26 type  4   force =     0.00000000    0.00000000   -0.00311665
     atom   27 type  3   force =     0.00000000    0.00000000    0.00219645
     atom   28 type  4   force =     0.00000000    0.00000000   -0.00166318

     Total force =     0.143634     Total SCF correction =     0.000477


     Computing stress (Cartesian axis) and pressure


     negative rho (up, down):  1.450E-03 0.000E+00
          total   stress  (Ry/bohr**3)                   (kbar)     P=       -5.93
  -0.00001278   0.00000000   0.00000000           -1.88        0.00        0.00
   0.00000000   0.00001282   0.00000000            0.00        1.89        0.00
   0.00000000   0.00000000  -0.00012106            0.00        0.00      -17.81

 
     init_run     :      8.73s CPU      9.36s WALL (       1 calls)
     electrons    :    539.98s CPU    584.07s WALL (       1 calls)
     forces       :      3.91s CPU      4.38s WALL (       1 calls)
     stress       :     24.78s CPU     25.26s WALL (       1 calls)

     Called by init_run:
     wfcinit      :      6.05s CPU      6.22s WALL (       1 calls)
     potinit      :      0.64s CPU      0.68s WALL (       1 calls)
     hinit0       :      0.95s CPU      1.14s WALL (       1 calls)

     Called by electrons:
     c_bands      :    421.82s CPU    438.42s WALL (      34 calls)
     sum_band     :     77.83s CPU     93.15s WALL (      34 calls)
     v_of_rho     :      3.15s CPU      3.19s WALL (      35 calls)
     newd         :     19.22s CPU     31.33s WALL (      35 calls)
     mix_rho      :     18.40s CPU     18.56s WALL (      34 calls)

     Called by c_bands:
     init_us_2    :      4.05s CPU      4.09s WALL (    1775 calls)
     cegterg      :    396.01s CPU    412.01s WALL (     850 calls)

     Called by sum_band:
     sum_band:bec :      0.26s CPU      0.26s WALL (     850 calls)
     addusdens    :     19.44s CPU     34.04s WALL (      34 calls)

     Called by *egterg:
     h_psi        :    205.43s CPU    214.91s WALL (    3638 calls)
     s_psi        :     22.77s CPU     23.08s WALL (    3638 calls)
     g_psi        :      0.68s CPU      0.69s WALL (    2763 calls)
     cdiaghg      :     91.38s CPU     91.84s WALL (    3613 calls)

     Called by h_psi:
     h_psi:calbec :     24.71s CPU     25.90s WALL (    3638 calls)
     vloc_psi     :    155.97s CPU    158.64s WALL (    3638 calls)
     add_vuspsi   :     23.42s CPU     26.60s WALL (    3638 calls)

     General routines
     calbec       :     39.95s CPU     41.20s WALL (    4613 calls)
     fft          :      2.48s CPU      2.60s WALL (     478 calls)
     ffts         :      9.62s CPU      9.71s WALL (   14910 calls)
     fftw         :    177.97s CPU    180.92s WALL (  601760 calls)
     interpolate  :      0.23s CPU      0.25s WALL (      35 calls)
 
     Parallel routines
     fft_scatt_xy :     23.93s CPU     24.31s WALL (  617148 calls)
     fft_scatt_yz :    106.13s CPU    107.85s WALL (  617148 calls)
 
     PWSCF        :   9m38.14s CPU  10m24.24s WALL

 
   This run was terminated on:  21:38:26  21May2021            

=------------------------------------------------------------------------------=
   JOB DONE.
=------------------------------------------------------------------------------=
[1621647506.092366] [holy7c10209:191462:0]          mpool.c:43   UCX  WARN  object 0x3fecc80 was not returned to mpool ucp_requests
[1621647506.090076] [holy7c10209:191466:0]          mpool.c:43   UCX  WARN  object 0x33cf880 was not returned to mpool ucp_requests
[1621647506.090092] [holy7c10209:191466:0]          mpool.c:43   UCX  WARN  object 0x33cfc00 was not returned to mpool ucp_requests
[1621647506.096595] [holy7c10309:50103:0]          mpool.c:43   UCX  WARN  object 0x3029e40 was not returned to mpool ucp_requests
[1621647506.096614] [holy7c10309:50103:0]          mpool.c:43   UCX  WARN  object 0x302a1c0 was not returned to mpool ucp_requests
[1621647506.096328] [holy7c10209:191461:0]          mpool.c:43   UCX  WARN  object 0x467b180 was not returned to mpool ucp_requests
[1621647506.100505] [holy7c10309:50104:0]          mpool.c:43   UCX  WARN  object 0x36baf40 was not returned to mpool ucp_requests
[1621647506.095440] [holy7c10309:50105:0]          mpool.c:43   UCX  WARN  object 0x2a19d40 was not returned to mpool ucp_requests
[1621647506.095467] [holy7c10309:50105:0]          mpool.c:43   UCX  WARN  object 0x2a19f00 was not returned to mpool ucp_requests
[1621647506.100807] [holy7c10309:50101:0]          mpool.c:43   UCX  WARN  object 0x3e19040 was not returned to mpool ucp_requests
