
     Program PWSCF v.6.5 starts on 21May2021 at 23: 7:21 

     This program is part of the open-source Quantum ESPRESSO suite
     for quantum simulation of materials; please cite
         "P. Giannozzi et al., J. Phys.:Condens. Matter 21 395502 (2009);
         "P. Giannozzi et al., J. Phys.:Condens. Matter 29 465901 (2017);
          URL http://www.quantum-espresso.org", 
     in publications or presentations arising from this work. More details at
     http://www.quantum-espresso.org/quote

     Parallel version (MPI), running on    20 processors

     MPI processes distributed on    14 nodes
     R & G space division:  proc/nbgrp/npool/nimage =      20
     Reading input from CBCO_BaO_cleave_1.25_sep.pwi
Warning: card &IONS ignored
Warning: card     ION_DYNAMICS = 'BFGS' ignored
Warning: card / ignored
Warning: card &CELL ignored
Warning: card     CELL_DYNAMICS = 'BFGS' ignored
Warning: card     PRESS_CONV_THR = 5 ignored
Warning: card / ignored

     Current dimensions of program PWSCF are:
     Max number of different atomic species (ntypx) = 10
     Max number of k-points (npk) =  40000
     Max angular momentum in pseudopotentials (lmaxx) =  3

     Subspace diagonalization in iterative solution of the eigenvalue problem:
     one sub-group per band group will be used
     scalapack distributed-memory algorithm (size of sub-group:  4*  4 procs)

     Message from routine setup:
     using ibrav=0 with symmetry is DISCOURAGED, use correct ibrav instead
 
     Parallelization info
     --------------------
     sticks:   dense  smooth     PW     G-vecs:    dense   smooth      PW
     Min         149      50     14                72165    13894    2172
     Max         150      51     15                72202    13919    2217
     Sum        2991    1007    289              1443693   278079   43709
 


     bravais-lattice index     =            0
     lattice parameter (alat)  =       7.4270  a.u.
     unit-cell volume          =    4425.7129 (a.u.)^3
     number of atoms/cell      =           28
     number of atomic types    =            4
     number of electrons       =       227.00
     number of Kohn-Sham states=          137
     kinetic-energy cutoff     =      60.0000  Ry
     charge density cutoff     =     720.0000  Ry
     convergence threshold     =      1.0E-08
     mixing beta               =       0.5000
     number of iterations used =           10  local-TF  mixing
     Exchange-correlation= SLA PW PBE PBE
                           (   1   4   3   4   0   0   0)

     celldm(1)=   7.427040  celldm(2)=   0.000000  celldm(3)=   0.000000
     celldm(4)=   0.000000  celldm(5)=   0.000000  celldm(6)=   0.000000

     crystal axes: (cart. coord. in units of alat)
               a(1) = (   1.000000   0.000000   0.000000 )  
               a(2) = (   0.000000   0.947081   0.000000 )  
               a(3) = (   0.000000   0.000000  11.406405 )  

     reciprocal axes: (cart. coord. in units 2 pi/alat)
               b(1) = (  1.000000  0.000000  0.000000 )  
               b(2) = (  0.000000  1.055876  0.000000 )  
               b(3) = (  0.000000  0.000000  0.087670 )  


     PseudoPot. # 1 for Ba read from file:
     ./pseudo/Ba.pbe-nsp-van.UPF
     MD5 check sum: 2b9c31dd849566dd297d80989662b7a0
     Pseudo is Ultrasoft + core correction, Zval = 10.0
     Generated by new atomic code, or converted to UPF format
     Using radial grid of  907 points,  6 beta functions with: 
                l(1) =   0
                l(2) =   0
                l(3) =   1
                l(4) =   1
                l(5) =   2
                l(6) =   2
     Q(r) pseudized with  6 coefficients,  rinner =    1.200   1.200   1.200
                                                       1.200   1.200

     PseudoPot. # 2 for Ca read from file:
     ./pseudo/Ca.pbe-nsp-van.UPF
     MD5 check sum: 6471098428ff4fa451746d08035ff179
     Pseudo is Ultrasoft + core correction, Zval = 10.0
     Generated by new atomic code, or converted to UPF format
     Using radial grid of  845 points,  6 beta functions with: 
                l(1) =   0
                l(2) =   0
                l(3) =   1
                l(4) =   1
                l(5) =   2
                l(6) =   2
     Q(r) pseudized with  6 coefficients,  rinner =    1.200   1.200   1.200
                                                       1.200   1.200

     PseudoPot. # 3 for Cu read from file:
     ./pseudo/Cu.pbe-n-van_ak.UPF
     MD5 check sum: 34e3282627ffb533726feb647e090d62
     Pseudo is Ultrasoft + core correction, Zval = 11.0
     Generated by new atomic code, or converted to UPF format
     Using radial grid of  867 points,  6 beta functions with: 
                l(1) =   0
                l(2) =   0
                l(3) =   1
                l(4) =   1
                l(5) =   2
                l(6) =   2
     Q(r) pseudized with  8 coefficients,  rinner =    1.400   1.400   1.400
                                                       1.400   1.400

     PseudoPot. # 4 for O  read from file:
     ./pseudo/O.pbe-van_ak.UPF
     MD5 check sum: 783ce7fe4c79b6a4916957118fed0856
     Pseudo is Ultrasoft, Zval =  6.0
     Generated by new atomic code, or converted to UPF format
     Using radial grid of  737 points,  4 beta functions with: 
                l(1) =   0
                l(2) =   0
                l(3) =   1
                l(4) =   1
     Q(r) pseudized with  8 coefficients,  rinner =    0.800   0.800   0.800


     atomic species   valence    mass     pseudopotential
        Ba            10.00   137.32700     Ba( 1.00)
        Ca            10.00    40.07800     Ca( 1.00)
        Cu            11.00    63.54600     Cu( 1.00)
        O              6.00    15.99900     O ( 1.00)

      4 Sym. Ops. (no inversion) found



   Cartesian axes

     site n.     atom                  positions (alat units)
         1           O   tau(   1) = (   0.0000000   0.4735409  -0.0469745  )
         2           Cu  tau(   2) = (   0.0000000   0.0000000   0.0264565  )
         3           O   tau(   3) = (   0.0000000   0.0000000   0.5030914  )
         4           Ba  tau(   4) = (   0.5000000   0.4735409   0.5690292  )
         5           Cu  tau(   5) = (   0.0000000   0.0000000   1.0374254  )
         6           O   tau(   6) = (   0.5000000   0.0000000   1.0768099  )
         7           O   tau(   7) = (   0.0000000   0.4735409   1.1116985  )
         8           Ca  tau(   8) = (   0.5000000   0.4735409   1.4976260  )
         9           O   tau(   9) = (   0.0000000   0.4735409   1.8667529  )
        10           O   tau(  10) = (   0.5000000   0.0000000   1.9044124  )
        11           Cu  tau(  11) = (   0.0000000   0.0000000   1.9512546  )
        12           Ba  tau(  12) = (   0.5000000   0.4735409   2.4295764  )
        13           O   tau(  13) = (   0.0000000   0.0000000   2.5115362  )
        14           O   tau(  14) = (   0.0000000   0.4735409   2.9918528  )
        15           Cu  tau(  15) = (   0.0000000   0.0000000   2.9919088  )
        16           O   tau(  16) = (   0.0000000   0.0000000   3.4722686  )
        17           Ba  tau(  17) = (   0.5000000   0.4735409   3.5542208  )
        18           Cu  tau(  18) = (   0.0000000   0.0000000   4.3505731  )
        19           O   tau(  19) = (   0.5000000   0.0000000   4.3974153  )
        20           O   tau(  20) = (   0.0000000   0.4735409   4.4350697  )
        21           Ca  tau(  21) = (   0.5000000   0.4735409   4.8042067  )
        22           O   tau(  22) = (   0.0000000   0.4735409   5.1901317  )
        23           O   tau(  23) = (   0.5000000   0.0000000   5.2250203  )
        24           Cu  tau(  24) = (   0.0000000   0.0000000   5.2644074  )
        25           Ba  tau(  25) = (   0.5000000   0.4735409   5.7328010  )
        26           O   tau(  26) = (   0.0000000   0.0000000   5.7987286  )
        27           Cu  tau(  27) = (   0.0000000   0.0000000   6.2753686  )
        28           O   tau(  28) = (   0.0000000   0.4735409   6.3487869  )

     number of k points=    25  Gaussian smearing, width (Ry)=  0.0100
                       cart. coord. in units 2pi/alat
        k(    1) = (   0.0000000   0.0000000   0.0000000), wk =   0.0312500
        k(    2) = (   0.0000000   0.1319845   0.0000000), wk =   0.0625000
        k(    3) = (   0.0000000   0.2639689   0.0000000), wk =   0.0625000
        k(    4) = (   0.0000000   0.3959534   0.0000000), wk =   0.0625000
        k(    5) = (   0.0000000  -0.5279378   0.0000000), wk =   0.0312500
        k(    6) = (   0.1250000   0.0000000   0.0000000), wk =   0.0625000
        k(    7) = (   0.1250000   0.1319845   0.0000000), wk =   0.1250000
        k(    8) = (   0.1250000   0.2639689   0.0000000), wk =   0.1250000
        k(    9) = (   0.1250000   0.3959534   0.0000000), wk =   0.1250000
        k(   10) = (   0.1250000  -0.5279378   0.0000000), wk =   0.0625000
        k(   11) = (   0.2500000   0.0000000   0.0000000), wk =   0.0625000
        k(   12) = (   0.2500000   0.1319845   0.0000000), wk =   0.1250000
        k(   13) = (   0.2500000   0.2639689   0.0000000), wk =   0.1250000
        k(   14) = (   0.2500000   0.3959534   0.0000000), wk =   0.1250000
        k(   15) = (   0.2500000  -0.5279378   0.0000000), wk =   0.0625000
        k(   16) = (   0.3750000   0.0000000   0.0000000), wk =   0.0625000
        k(   17) = (   0.3750000   0.1319845   0.0000000), wk =   0.1250000
        k(   18) = (   0.3750000   0.2639689   0.0000000), wk =   0.1250000
        k(   19) = (   0.3750000   0.3959534   0.0000000), wk =   0.1250000
        k(   20) = (   0.3750000  -0.5279378   0.0000000), wk =   0.0625000
        k(   21) = (  -0.5000000   0.0000000   0.0000000), wk =   0.0312500
        k(   22) = (  -0.5000000   0.1319845   0.0000000), wk =   0.0625000
        k(   23) = (  -0.5000000   0.2639689   0.0000000), wk =   0.0625000
        k(   24) = (  -0.5000000   0.3959534   0.0000000), wk =   0.0625000
        k(   25) = (  -0.5000000  -0.5279378   0.0000000), wk =   0.0312500

     Dense  grid:  1443693 G-vectors     FFT dimensions: (  64,  64, 729)

     Smooth grid:   278079 G-vectors     FFT dimensions: (  40,  36, 432)

     Estimated max dynamical RAM per process >     460.71 MB

     Estimated total dynamical RAM >       9.00 GB

     Initial potential from superposition of free atoms

     starting charge  226.84630, renormalised to  227.00000

     negative rho (up, down):  3.455E-03 0.000E+00
     Starting wfcs are  195 randomized atomic wfcs

     total cpu time spent up to now is       10.7 secs

     Self-consistent Calculation

     iteration #  1     ecut=    60.00 Ry     beta= 0.50
     Davidson diagonalization with overlap
     ethr =  1.00E-02,  avg # of iterations =  2.0

     negative rho (up, down):  4.989E-04 0.000E+00

     total cpu time spent up to now is       29.9 secs

     total energy              =   -1840.89369741 Ry
     Harris-Foulkes estimate   =   -1845.36542105 Ry
     estimated scf accuracy    <      17.91813851 Ry

     iteration #  2     ecut=    60.00 Ry     beta= 0.50
     Davidson diagonalization with overlap
     ethr =  7.89E-03,  avg # of iterations =  2.0

     negative rho (up, down):  2.669E-04 0.000E+00

     total cpu time spent up to now is       48.1 secs

     total energy              =   -1842.49938268 Ry
     Harris-Foulkes estimate   =   -1843.27156253 Ry
     estimated scf accuracy    <       4.68696935 Ry

     iteration #  3     ecut=    60.00 Ry     beta= 0.50
     Davidson diagonalization with overlap
     ethr =  2.06E-03,  avg # of iterations =  1.7

     negative rho (up, down):  2.487E-04 0.000E+00

     total cpu time spent up to now is       65.7 secs

     total energy              =   -1842.85019026 Ry
     Harris-Foulkes estimate   =   -1842.99050054 Ry
     estimated scf accuracy    <       3.62889813 Ry

     iteration #  4     ecut=    60.00 Ry     beta= 0.50
     Davidson diagonalization with overlap
     ethr =  1.60E-03,  avg # of iterations =  1.0

     negative rho (up, down):  2.404E-04 0.000E+00

     total cpu time spent up to now is       83.4 secs

     total energy              =   -1842.84822522 Ry
     Harris-Foulkes estimate   =   -1842.92500662 Ry
     estimated scf accuracy    <       0.62678782 Ry

     iteration #  5     ecut=    60.00 Ry     beta= 0.50
     Davidson diagonalization with overlap
     ethr =  2.76E-04,  avg # of iterations =  4.5

     negative rho (up, down):  2.377E-04 0.000E+00

     total cpu time spent up to now is      105.2 secs

     total energy              =   -1842.87143113 Ry
     Harris-Foulkes estimate   =   -1842.89007150 Ry
     estimated scf accuracy    <       1.30301700 Ry

     iteration #  6     ecut=    60.00 Ry     beta= 0.50
     Davidson diagonalization with overlap
     ethr =  2.76E-04,  avg # of iterations =  1.4

     negative rho (up, down):  2.339E-04 0.000E+00

     total cpu time spent up to now is      122.7 secs

     total energy              =   -1842.86207825 Ry
     Harris-Foulkes estimate   =   -1842.88019579 Ry
     estimated scf accuracy    <       0.57438794 Ry

     iteration #  7     ecut=    60.00 Ry     beta= 0.50
     Davidson diagonalization with overlap
     ethr =  2.53E-04,  avg # of iterations =  1.6

     negative rho (up, down):  2.326E-04 0.000E+00

     total cpu time spent up to now is      139.9 secs

     total energy              =   -1842.86316191 Ry
     Harris-Foulkes estimate   =   -1842.87047563 Ry
     estimated scf accuracy    <       0.87724955 Ry

     iteration #  8     ecut=    60.00 Ry     beta= 0.50
     Davidson diagonalization with overlap
     ethr =  2.53E-04,  avg # of iterations =  1.0

     negative rho (up, down):  2.315E-04 0.000E+00

     total cpu time spent up to now is      157.2 secs

     total energy              =   -1842.85692661 Ry
     Harris-Foulkes estimate   =   -1842.86726462 Ry
     estimated scf accuracy    <       0.52427556 Ry

     iteration #  9     ecut=    60.00 Ry     beta= 0.50
     Davidson diagonalization with overlap
     ethr =  2.31E-04,  avg # of iterations =  1.3

     negative rho (up, down):  2.320E-04 0.000E+00

     total cpu time spent up to now is      174.0 secs

     total energy              =   -1842.85625824 Ry
     Harris-Foulkes estimate   =   -1842.86052627 Ry
     estimated scf accuracy    <       0.15629214 Ry

     iteration # 10     ecut=    60.00 Ry     beta= 0.50
     Davidson diagonalization with overlap
     ethr =  6.89E-05,  avg # of iterations =  7.3

     negative rho (up, down):  2.346E-04 0.000E+00

     total cpu time spent up to now is      199.5 secs

     total energy              =   -1842.85135690 Ry
     Harris-Foulkes estimate   =   -1842.85774369 Ry
     estimated scf accuracy    <       0.09134070 Ry

     iteration # 11     ecut=    60.00 Ry     beta= 0.50
     Davidson diagonalization with overlap
     ethr =  4.02E-05,  avg # of iterations =  5.8

     negative rho (up, down):  2.347E-04 0.000E+00

     total cpu time spent up to now is      223.5 secs

     total energy              =   -1842.85168520 Ry
     Harris-Foulkes estimate   =   -1842.85309116 Ry
     estimated scf accuracy    <       0.03372914 Ry

     iteration # 12     ecut=    60.00 Ry     beta= 0.50
     Davidson diagonalization with overlap
     c_bands:  1 eigenvalues not converged
     ethr =  1.49E-05,  avg # of iterations =  7.3

     negative rho (up, down):  2.343E-04 0.000E+00

     total cpu time spent up to now is      249.1 secs

     total energy              =   -1842.85068945 Ry
     Harris-Foulkes estimate   =   -1842.85197137 Ry
     estimated scf accuracy    <       0.03122326 Ry

     iteration # 13     ecut=    60.00 Ry     beta= 0.50
     Davidson diagonalization with overlap
     ethr =  1.38E-05,  avg # of iterations =  2.5

     negative rho (up, down):  1.474E-03 0.000E+00

     total cpu time spent up to now is      267.0 secs

     total energy              =   -1842.84970225 Ry
     Harris-Foulkes estimate   =   -1842.85086606 Ry
     estimated scf accuracy    <       0.03503948 Ry

     iteration # 14     ecut=    60.00 Ry     beta= 0.50
     Davidson diagonalization with overlap
     ethr =  1.38E-05,  avg # of iterations =  3.0

     negative rho (up, down):  3.705E-03 0.000E+00

     total cpu time spent up to now is      286.9 secs

     total energy              =   -1842.84907235 Ry
     Harris-Foulkes estimate   =   -1842.84986104 Ry
     estimated scf accuracy    <       0.03852179 Ry

     iteration # 15     ecut=    60.00 Ry     beta= 0.50
     Davidson diagonalization with overlap
     c_bands:  1 eigenvalues not converged
     ethr =  1.38E-05,  avg # of iterations =  3.9

     negative rho (up, down):  9.889E-03 0.000E+00

     total cpu time spent up to now is      306.7 secs

     total energy              =   -1842.84798374 Ry
     Harris-Foulkes estimate   =   -1842.84916656 Ry
     estimated scf accuracy    <       0.04005801 Ry

     iteration # 16     ecut=    60.00 Ry     beta= 0.50
     Davidson diagonalization with overlap
     ethr =  1.38E-05,  avg # of iterations =  5.7

     negative rho (up, down):  1.484E-02 0.000E+00

     total cpu time spent up to now is      329.7 secs

     total energy              =   -1842.84691595 Ry
     Harris-Foulkes estimate   =   -1842.84806900 Ry
     estimated scf accuracy    <       0.02872548 Ry

     iteration # 17     ecut=    60.00 Ry     beta= 0.50
     Davidson diagonalization with overlap
     ethr =  1.27E-05,  avg # of iterations =  6.0

     negative rho (up, down):  1.620E-02 0.000E+00

     total cpu time spent up to now is      353.4 secs

     total energy              =   -1842.84614604 Ry
     Harris-Foulkes estimate   =   -1842.84701458 Ry
     estimated scf accuracy    <       0.01625450 Ry

     iteration # 18     ecut=    60.00 Ry     beta= 0.50
     Davidson diagonalization with overlap
     c_bands:  2 eigenvalues not converged
     ethr =  7.16E-06,  avg # of iterations =  8.2

     negative rho (up, down):  1.233E-02 0.000E+00

     total cpu time spent up to now is      380.4 secs

     total energy              =   -1842.84599151 Ry
     Harris-Foulkes estimate   =   -1842.84626567 Ry
     estimated scf accuracy    <       0.00569010 Ry

     iteration # 19     ecut=    60.00 Ry     beta= 0.50
     Davidson diagonalization with overlap
     ethr =  2.51E-06,  avg # of iterations = 10.2

     negative rho (up, down):  6.024E-03 0.000E+00

     total cpu time spent up to now is      408.8 secs

     total energy              =   -1842.84594414 Ry
     Harris-Foulkes estimate   =   -1842.84607441 Ry
     estimated scf accuracy    <       0.00061861 Ry

     iteration # 20     ecut=    60.00 Ry     beta= 0.50
     Davidson diagonalization with overlap
     c_bands:  1 eigenvalues not converged
     ethr =  2.73E-07,  avg # of iterations =  8.2

     negative rho (up, down):  3.015E-03 0.000E+00

     total cpu time spent up to now is      435.8 secs

     total energy              =   -1842.84592810 Ry
     Harris-Foulkes estimate   =   -1842.84596899 Ry
     estimated scf accuracy    <       0.00039467 Ry

     iteration # 21     ecut=    60.00 Ry     beta= 0.50
     Davidson diagonalization with overlap
     c_bands:  1 eigenvalues not converged
     c_bands:  1 eigenvalues not converged
     c_bands:  1 eigenvalues not converged
     ethr =  1.74E-07,  avg # of iterations = 10.2

     negative rho (up, down):  1.252E-03 0.000E+00

     total cpu time spent up to now is      465.4 secs

     total energy              =   -1842.84592215 Ry
     Harris-Foulkes estimate   =   -1842.84594146 Ry
     estimated scf accuracy    <       0.00014037 Ry

     iteration # 22     ecut=    60.00 Ry     beta= 0.50
     Davidson diagonalization with overlap
     c_bands:  1 eigenvalues not converged
     ethr =  6.18E-08,  avg # of iterations =  7.5

     negative rho (up, down):  1.664E-03 0.000E+00

     total cpu time spent up to now is      492.3 secs

     total energy              =   -1842.84593209 Ry
     Harris-Foulkes estimate   =   -1842.84592907 Ry
     estimated scf accuracy    <       0.00004708 Ry

     iteration # 23     ecut=    60.00 Ry     beta= 0.50
     Davidson diagonalization with overlap
     ethr =  2.07E-08,  avg # of iterations =  3.4

     negative rho (up, down):  1.796E-03 0.000E+00

     total cpu time spent up to now is      514.1 secs

     total energy              =   -1842.84593564 Ry
     Harris-Foulkes estimate   =   -1842.84593470 Ry
     estimated scf accuracy    <       0.00002760 Ry

     iteration # 24     ecut=    60.00 Ry     beta= 0.50
     Davidson diagonalization with overlap
     ethr =  1.22E-08,  avg # of iterations =  1.0

     negative rho (up, down):  1.637E-03 0.000E+00

     total cpu time spent up to now is      533.4 secs

     total energy              =   -1842.84593423 Ry
     Harris-Foulkes estimate   =   -1842.84593645 Ry
     estimated scf accuracy    <       0.00000971 Ry

     iteration # 25     ecut=    60.00 Ry     beta= 0.50
     Davidson diagonalization with overlap
     ethr =  4.28E-09,  avg # of iterations =  2.8

     negative rho (up, down):  1.558E-03 0.000E+00

     total cpu time spent up to now is      553.4 secs

     total energy              =   -1842.84593361 Ry
     Harris-Foulkes estimate   =   -1842.84593468 Ry
     estimated scf accuracy    <       0.00000686 Ry

     iteration # 26     ecut=    60.00 Ry     beta= 0.50
     Davidson diagonalization with overlap
     ethr =  3.02E-09,  avg # of iterations =  1.4

     negative rho (up, down):  1.523E-03 0.000E+00

     total cpu time spent up to now is      572.6 secs

     total energy              =   -1842.84593387 Ry
     Harris-Foulkes estimate   =   -1842.84593391 Ry
     estimated scf accuracy    <       0.00000145 Ry

     iteration # 27     ecut=    60.00 Ry     beta= 0.50
     Davidson diagonalization with overlap
     ethr =  6.39E-10,  avg # of iterations =  3.1

     negative rho (up, down):  1.544E-03 0.000E+00

     total cpu time spent up to now is      593.8 secs

     total energy              =   -1842.84593386 Ry
     Harris-Foulkes estimate   =   -1842.84593396 Ry
     estimated scf accuracy    <       0.00000078 Ry

     iteration # 28     ecut=    60.00 Ry     beta= 0.50
     Davidson diagonalization with overlap
     ethr =  3.44E-10,  avg # of iterations =  1.7

     negative rho (up, down):  1.535E-03 0.000E+00

     total cpu time spent up to now is      613.1 secs

     total energy              =   -1842.84593390 Ry
     Harris-Foulkes estimate   =   -1842.84593390 Ry
     estimated scf accuracy    <       0.00000015 Ry

     iteration # 29     ecut=    60.00 Ry     beta= 0.50
     Davidson diagonalization with overlap
     ethr =  6.64E-11,  avg # of iterations =  3.2

     negative rho (up, down):  1.531E-03 0.000E+00

     total cpu time spent up to now is      636.8 secs

     total energy              =   -1842.84593392 Ry
     Harris-Foulkes estimate   =   -1842.84593392 Ry
     estimated scf accuracy    <       0.00000005 Ry

     iteration # 30     ecut=    60.00 Ry     beta= 0.50
     Davidson diagonalization with overlap
     ethr =  2.39E-11,  avg # of iterations =  1.6

     negative rho (up, down):  1.520E-03 0.000E+00

     total cpu time spent up to now is      654.0 secs

     total energy              =   -1842.84593393 Ry
     Harris-Foulkes estimate   =   -1842.84593392 Ry
     estimated scf accuracy    <       0.00000004 Ry

     iteration # 31     ecut=    60.00 Ry     beta= 0.50
     Davidson diagonalization with overlap
     ethr =  1.61E-11,  avg # of iterations =  1.6

     negative rho (up, down):  1.515E-03 0.000E+00

     total cpu time spent up to now is      672.0 secs

     End of self-consistent calculation

          k = 0.0000 0.0000 0.0000 ( 34843 PWs)   bands (ev):

   -35.6430 -35.5026 -23.7000 -22.8440 -22.8436 -22.6042 -17.1472 -16.9815
   -16.6941 -16.6827 -16.5661 -16.5500 -15.3570 -15.2451 -14.9651 -14.7248
   -14.7171 -14.6283 -14.4357 -14.2344 -14.2311 -14.0360 -14.0129 -13.8817
   -13.7808 -13.6370 -13.5939  -8.9297  -8.5669  -8.4708  -7.9755  -7.9735
    -7.9378  -7.9377  -7.7896  -7.7449  -7.7444  -7.6481  -7.4820  -2.3839
    -2.3826  -2.1525  -1.8826  -1.8793  -1.8231  -1.7231  -1.6899  -1.6236
    -1.5970  -1.5379  -1.5031  -1.3381  -1.2751  -1.2733  -1.1756  -0.9593
    -0.7306  -0.7106  -0.5129  -0.5113  -0.4337  -0.4289  -0.3643  -0.3448
    -0.3190  -0.3174  -0.3152  -0.3020  -0.2864  -0.2680  -0.2170  -0.1982
    -0.1865  -0.1751  -0.0917  -0.0897   0.0444   0.0460   0.0461   0.0490
     0.0950   0.1195   0.1482   0.2404   0.2499   0.2702   0.3128   0.3265
     0.5242   0.5411   0.7164   0.8281   0.8290   0.8906   0.9093   1.1282
     1.1722   1.2813   1.2944   1.3221   1.3487   1.3645   1.4509   1.4587
     1.5840   1.7302   1.7432   1.7681   1.8285   1.8971   1.9061   1.9589
     1.9848   2.0357   2.0720   2.1816   2.1825   2.4728   2.4819   5.0753
     5.1636   5.2173   5.8172   6.0579   6.4750   6.7097   6.7137   6.9920
     7.5802   7.9206   8.0720   8.1435   8.2525   8.4340   8.5367   8.6703
     9.0167

          k = 0.0000 0.1320 0.0000 ( 34781 PWs)   bands (ev):

   -35.6411 -35.5007 -23.6788 -22.8173 -22.8169 -22.5788 -17.1111 -16.9451
   -16.7553 -16.6918 -16.6219 -16.5638 -15.2682 -15.1641 -14.9097 -14.7301
   -14.7165 -14.6009 -14.4056 -14.2439 -14.2382 -14.0410 -14.0280 -13.9283
   -13.8252 -13.7060 -13.6178  -8.9190  -8.5295  -8.5147  -7.9750  -7.9734
    -7.8899  -7.8899  -7.7901  -7.7862  -7.7839  -7.6030  -7.5301  -2.4411
    -2.4406  -2.2492  -2.2075  -2.1830  -2.0771  -1.9497  -1.7902  -1.7026
    -1.6989  -1.6975  -1.6727  -1.5794  -1.4018  -1.3364  -1.3226  -1.2144
    -0.7767  -0.6939  -0.6786  -0.6254  -0.6121  -0.6104  -0.6087  -0.5158
    -0.5137  -0.3961  -0.2724  -0.2635  -0.2323  -0.2233  -0.2024  -0.2008
    -0.1695  -0.1092  -0.0705  -0.0683  -0.0476  -0.0016   0.0684   0.0694
     0.0946   0.1205   0.1996   0.2250   0.2505   0.3136   0.3497   0.4208
     0.5656   0.6735   0.8578   0.9809   0.9927   1.0259   1.0262   1.0863
     1.0982   1.1292   1.2816   1.3484   1.3517   1.4399   1.4465   1.4613
     1.5872   1.6692   1.6876   1.7141   1.7514   1.8020   1.9294   1.9333
     1.9475   1.9492   2.2035   2.2993   2.7019   2.7608   2.7836   5.4378
     5.5398   5.5560   6.1281   6.3973   6.6855   7.0119   7.0154   7.2557
     7.7184   8.0921   8.2375   8.2696   8.4678   8.5674   8.6997   8.8714
     9.0229

          k = 0.0000 0.2640 0.0000 ( 34663 PWs)   bands (ev):

   -35.6367 -35.4963 -23.6267 -22.7514 -22.7510 -22.5160 -17.0190 -16.9096
   -16.8529 -16.7748 -16.6861 -16.5581 -15.0678 -14.9986 -14.7800 -14.7618
   -14.7385 -14.5395 -14.3354 -14.2314 -14.2143 -14.0802 -14.0695 -14.0591
   -13.9003 -13.8758 -13.6760  -8.8895  -8.6111  -8.4364  -7.9745  -7.9734
    -7.8775  -7.8768  -7.7821  -7.7695  -7.7694  -7.6342  -7.4899  -2.8880
    -2.8750  -2.8089  -2.6683  -2.4994  -2.4814  -2.4771  -2.3357  -2.3339
    -2.1470  -1.7324  -1.6483  -1.6242  -1.5252  -1.5236  -1.5158  -1.2751
    -1.0364  -1.0279  -1.0018  -0.9011  -0.8607  -0.8599  -0.7052  -0.6971
    -0.5939  -0.5922  -0.5736  -0.5526  -0.5502  -0.5330  -0.4464  -0.3768
    -0.2539  -0.1916  -0.0422  -0.0401   0.0062   0.0407   0.0551   0.1605
     0.1817   0.3204   0.3733   0.4117   0.5609   0.6286   0.6470   0.6770
     0.6837   0.8163   0.9140   0.9872   1.0031   1.0853   1.1108   1.1116
     1.1164   1.1448   1.2199   1.2349   1.2859   1.4895   1.5476   1.5476
     1.5862   1.6613   1.6818   1.8658   1.8733   1.9187   1.9206   1.9320
     2.0170   2.0376   2.3129   2.4284   2.9840   2.9873   3.5833   6.1823
     6.4328   6.4338   6.8264   7.2167   7.2570   7.6056   7.8356   7.8424
     8.2050   8.4591   8.5923   8.7045   8.8482   8.9036   9.0026   9.0191
     9.3029

          k = 0.0000 0.3960 0.0000 ( 34610 PWs)   bands (ev):

   -35.6323 -35.4919 -23.5732 -22.6833 -22.6828 -22.4513 -17.0459 -16.9173
   -16.9105 -16.7508 -16.6805 -16.5524 -14.9874 -14.9800 -14.7388 -14.6531
   -14.5872 -14.4931 -14.2964 -14.2117 -14.1622 -14.1565 -14.1478 -14.0860
   -14.0674 -13.9476 -13.7596  -8.8445  -8.7067  -8.3392  -7.9745  -7.9734
    -7.9557  -7.9549  -7.7768  -7.7249  -7.6410  -7.6409  -7.3699  -3.5439
    -3.3418  -3.3368  -3.1158  -3.0521  -3.0484  -2.9363  -2.4261  -2.4247
    -2.1702  -2.0743  -1.8618  -1.8575  -1.5834  -1.5594  -1.4386  -1.2733
    -1.2529  -1.2023  -1.1909  -1.1291  -1.1237  -1.0587  -0.9189  -0.8882
    -0.8866  -0.8042  -0.7997  -0.7762  -0.7644  -0.6182  -0.5638  -0.3888
    -0.3275  -0.2008  -0.1618  -0.0252  -0.0231   0.0712   0.0735   0.1149
     0.1619   0.4383   0.4463   0.5074   0.5708   0.6541   0.7246   0.8302
     0.8659   0.8709   0.8857   0.9094   0.9790   1.0314   1.0813   1.0827
     1.1333   1.2521   1.3756   1.4470   1.5645   1.5697   1.6676   1.6919
     1.7125   1.8112   1.8835   1.8959   1.9035   1.9425   2.1031   2.1798
     2.2651   2.3135   2.3149   2.3848   2.8767   2.8813   4.1575   6.7837
     6.9697   7.3808   7.3813   7.9952   8.1972   8.3426   8.3796   8.6264
     8.6382   9.0138   9.0342   9.0416   9.0943   9.1489   9.3742   9.4258
     9.4416

          k = 0.0000-0.5279 0.0000 ( 34682 PWs)   bands (ev):

   -35.6305 -35.4901 -23.5507 -22.6543 -22.6539 -22.4238 -17.0980 -16.9622
   -16.8724 -16.7060 -16.6781 -16.5501 -15.0296 -15.0238 -14.6240 -14.5559
   -14.5536 -14.3985 -14.3262 -14.3026 -14.1894 -14.1845 -14.1332 -14.1256
   -14.0059 -13.9811 -13.8282  -8.7919  -8.7764  -8.2976  -7.9853  -7.9845
    -7.9741  -7.9729  -7.7684  -7.7653  -7.5851  -7.5850  -7.3179  -3.8124
    -3.5202  -3.5164  -3.2925  -3.2826  -3.2700  -3.1060  -2.4422  -2.4408
    -2.2012  -2.1786  -1.9925  -1.9889  -1.5518  -1.5228  -1.4193  -1.3451
    -1.2936  -1.2750  -1.2539  -1.2506  -1.1365  -1.1303  -1.0362  -1.0055
    -0.9873  -0.8917  -0.8902  -0.8674  -0.8401  -0.6930  -0.5539  -0.3565
    -0.3107  -0.2519  -0.2041  -0.0195  -0.0175   0.0706   0.0804   0.1200
     0.1619   0.3652   0.4495   0.4673   0.5170   0.5356   0.7575   0.7764
     0.8006   0.8622   0.9573   0.9792   0.9817   1.0643   1.0657   1.2031
     1.2828   1.3434   1.3765   1.4011   1.6787   1.6825   1.6853   1.7347
     1.9591   1.9619   1.9680   2.0096   2.0425   2.0822   2.0884   2.1264
     2.1387   2.3769   2.4750   2.4764   2.6971   2.7036   4.3425   6.6818
     7.5408   7.7894   7.7937   7.8324   8.4950   8.8507   8.9012   8.9206
     8.9504   8.9627   9.0644   9.2111   9.2675   9.3092   9.3262   9.5757
     9.7238

          k = 0.1250 0.0000 0.0000 ( 34755 PWs)   bands (ev):

   -35.6419 -35.5015 -23.6861 -22.8260 -22.8255 -22.5870 -17.1139 -16.9475
   -16.7743 -16.6814 -16.6472 -16.5486 -15.2547 -15.1515 -14.9837 -14.7705
   -14.7568 -14.6334 -14.4380 -14.2434 -14.2407 -14.0478 -14.0262 -13.9029
   -13.8352 -13.6755 -13.6043  -8.9553  -8.5127  -8.4463  -8.0012  -7.9996
    -7.8760  -7.8756  -7.8226  -7.7124  -7.7119  -7.5880  -7.4516  -2.4262
    -2.4253  -2.1833  -1.9248  -1.9183  -1.8604  -1.8553  -1.8550  -1.7941
    -1.6171  -1.6011  -1.5076  -1.4552  -1.2731  -1.2712  -1.1931  -0.9864
    -0.8337  -0.7328  -0.6745  -0.6668  -0.5700  -0.5666  -0.4387  -0.3950
    -0.3945  -0.3921  -0.3334  -0.3229  -0.2941  -0.2856  -0.2763  -0.2605
    -0.2338  -0.2059  -0.1091   0.0192   0.0371   0.0388   0.0630   0.1103
     0.1419   0.1420   0.1576   0.1972   0.2168   0.3195   0.3678   0.4229
     0.6174   0.6733   0.7379   0.7461   0.8151   0.9289   0.9635   1.1200
     1.1476   1.1564   1.2348   1.3106   1.3450   1.3913   1.4299   1.4685
     1.5866   1.7297   1.7381   1.7793   1.8563   1.8911   1.9164   1.9361
     2.0597   2.0762   2.1134   2.2281   2.2377   2.5129   2.5172   5.2983
     5.3438   5.3903   6.0442   6.3026   6.6231   6.9198   6.9266   7.1880
     7.6590   8.0646   8.2005   8.3787   8.4439   8.5928   8.7477   8.9022
     9.1083

          k = 0.1250 0.1320 0.0000 ( 34736 PWs)   bands (ev):

   -35.6401 -35.4996 -23.6654 -22.8001 -22.7996 -22.5623 -17.0787 -16.9121
   -16.7774 -16.7445 -16.6489 -16.6126 -15.1732 -15.0802 -14.9263 -14.7649
   -14.7453 -14.6035 -14.4016 -14.2443 -14.2409 -14.0529 -14.0427 -13.9429
   -13.8690 -13.7305 -13.6253  -8.9317  -8.6551  -8.3690  -8.0204  -8.0197
    -7.9383  -7.9373  -7.8176  -7.6828  -7.6741  -7.6741  -7.4110  -2.4779
    -2.4766  -2.2610  -2.1918  -2.1753  -2.0618  -1.9369  -1.9038  -1.8952
    -1.8303  -1.7957  -1.6929  -1.6915  -1.5896  -1.4074  -1.3286  -1.2459
    -0.8654  -0.8430  -0.8207  -0.7315  -0.7265  -0.6440  -0.6228  -0.5850
    -0.5559  -0.5552  -0.4617  -0.3226  -0.2840  -0.2628  -0.2409  -0.1993
    -0.1504  -0.1128  -0.0808  -0.0479  -0.0454   0.0768   0.0965   0.1094
     0.1328   0.1642   0.2108   0.2358   0.2497   0.2744   0.4582   0.5275
     0.5863   0.8284   0.9221   0.9813   0.9828   1.0465   1.0858   1.1478
     1.1605   1.1747   1.2213   1.2442   1.2506   1.3275   1.5210   1.5320
     1.5502   1.6004   1.6069   1.6222   1.6542   1.7334   1.9255   2.0246
     2.2900   2.2966   2.4691   2.5789   2.7178   2.7697   2.7889   5.6087
     5.6822   5.6920   6.3177   6.5938   6.8044   7.2108   7.2206   7.3909
     7.7827   8.2348   8.3625   8.3976   8.5802   8.6833   8.8656   8.9013
     9.0658

          k = 0.1250 0.2640 0.0000 ( 34685 PWs)   bands (ev):

   -35.6357 -35.4952 -23.6146 -22.7363 -22.7358 -22.5014 -16.9896 -16.9065
   -16.8229 -16.7718 -16.7569 -16.6298 -14.9981 -14.9494 -14.7726 -14.7660
   -14.7148 -14.5342 -14.3154 -14.2267 -14.2154 -14.1027 -14.0898 -14.0494
   -13.9159 -13.8731 -13.6744  -8.8869  -8.7931  -8.3608  -8.0894  -8.0889
    -7.9753  -7.9742  -7.8274  -7.7832  -7.6653  -7.6650  -7.4057  -2.9106
    -2.8955  -2.7986  -2.6792  -2.5035  -2.4818  -2.4774  -2.3350  -2.3333
    -2.1592  -1.8547  -1.8501  -1.7977  -1.7005  -1.5527  -1.5306  -1.5153
    -1.1088  -1.0434  -1.0405  -1.0117  -0.9965  -0.9289  -0.8663  -0.7655
    -0.7468  -0.7467  -0.6245  -0.5942  -0.5763  -0.5544  -0.5150  -0.3769
    -0.2751  -0.1920  -0.1383  -0.0862  -0.0730   0.0738   0.1366   0.1542
     0.2930   0.3366   0.4419   0.5217   0.5508   0.6885   0.6914   0.7416
     0.8806   0.9474   0.9672   1.0177   1.0458   1.1419   1.1741   1.2511
     1.2608   1.2909   1.3020   1.3239   1.3433   1.4097   1.5016   1.5189
     1.5277   1.5841   1.6120   1.8357   1.8717   1.8879   1.8956   2.1540
     2.4871   2.4930   2.7020   2.7867   2.9951   3.0019   3.5852   6.2575
     6.4939   6.4948   6.8323   7.3016   7.3348   7.6216   7.9996   8.0030
     8.2923   8.3688   8.7144   8.7613   8.8667   8.9448   9.0131   9.0586
     9.1286

          k = 0.1250 0.3960 0.0000 ( 34670 PWs)   bands (ev):

   -35.6313 -35.4908 -23.5626 -22.6703 -22.6699 -22.4386 -17.0407 -16.9054
   -16.8908 -16.7484 -16.7237 -16.6214 -14.9524 -14.9468 -14.6648 -14.5902
   -14.5795 -14.4757 -14.2740 -14.1980 -14.1913 -14.1516 -14.1396 -14.0958
   -14.0541 -13.9417 -13.7443  -8.8972  -8.8001  -8.4095  -8.1198  -8.1191
    -7.9868  -7.9858  -7.8787  -7.7829  -7.7103  -7.7101  -7.4456  -3.5323
    -3.3830  -3.3751  -3.1448  -3.0436  -3.0400  -2.9559  -2.4342  -2.4329
    -2.1861  -2.0152  -1.8451  -1.8411  -1.7073  -1.6885  -1.6372  -1.4571
    -1.3893  -1.3490  -1.3317  -1.2347  -1.1801  -1.1699  -1.0424  -0.9883
    -0.9269  -0.9236  -0.8943  -0.8405  -0.8085  -0.7402  -0.5517  -0.4270
    -0.3689  -0.2429  -0.1488  -0.0863  -0.0406   0.1079   0.1486   0.1541
     0.3417   0.3636   0.5016   0.6174   0.6886   0.8471   0.8492   0.8840
     0.9412   1.0048   1.0086   1.0613   1.1087   1.1296   1.1751   1.1865
     1.2495   1.3167   1.4278   1.5887   1.6223   1.6276   1.6652   1.7000
     1.7883   1.8641   1.8901   1.9120   2.0506   2.2809   2.2815   2.2859
     2.4347   2.4432   2.6471   2.7134   2.9367   2.9494   4.1492   6.6087
     6.9666   7.2455   7.2461   7.9540   8.0747   8.1027   8.2772   8.6084
     8.6167   8.8285   8.9603   9.1536   9.3158   9.3911   9.4519   9.5072
     9.5709

          k = 0.1250-0.5279 0.0000 ( 34632 PWs)   bands (ev):

   -35.6295 -35.4890 -23.5406 -22.6424 -22.6419 -22.4120 -17.0924 -16.9567
   -16.8474 -16.7446 -16.6803 -16.6177 -14.9849 -14.9797 -14.5513 -14.5161
   -14.4935 -14.3965 -14.3098 -14.2799 -14.2176 -14.1518 -14.1298 -14.1263
   -14.0281 -13.9634 -13.8007  -8.8977  -8.7931  -8.4383  -8.1145  -8.1137
    -7.9916  -7.9906  -7.8888  -7.7814  -7.7445  -7.7445  -7.4714  -3.8021
    -3.5691  -3.5621  -3.3226  -3.2734  -3.2684  -3.1321  -2.4553  -2.4539
    -2.1956  -2.1101  -1.8751  -1.8701  -1.6629  -1.6498  -1.5688  -1.5443
    -1.5220  -1.4230  -1.4062  -1.3358  -1.2668  -1.2457  -1.1994  -1.0351
    -1.0066  -0.9994  -0.9980  -0.9284  -0.9041  -0.8451  -0.5387  -0.4199
    -0.3648  -0.2575  -0.1579  -0.0697  -0.0137   0.1177   0.1590   0.1602
     0.3378   0.3817   0.5332   0.5864   0.6749   0.7038   0.8771   0.8909
     0.9003   0.9028   0.9690   1.0801   1.1528   1.2082   1.2197   1.2794
     1.3558   1.3737   1.3841   1.6218   1.7237   1.7723   1.9510   1.9684
     1.9749   1.9842   2.0742   2.1078   2.1661   2.2928   2.2965   2.3625
     2.4461   2.4473   2.4972   2.5623   2.8155   2.8332   4.3309   6.4753
     7.4571   7.4673   7.5230   7.6874   8.2475   8.2945   8.3255   8.9749
     9.0547   9.0870   9.2511   9.2645   9.4105   9.6824   9.7424   9.7588
     9.8100

          k = 0.2500 0.0000 0.0000 ( 34786 PWs)   bands (ev):

   -35.6392 -35.4988 -23.6522 -22.7817 -22.7812 -22.5447 -17.0286 -16.9384
   -16.8608 -16.8124 -16.6780 -16.5453 -15.0555 -15.0387 -15.0144 -14.8532
   -14.7987 -14.6573 -14.4482 -14.2575 -14.2560 -14.0958 -14.0569 -13.9783
   -13.9310 -13.7521 -13.6311  -8.9792  -8.4224  -8.3859  -8.0027  -8.0013
    -7.8447  -7.7894  -7.7892  -7.6317  -7.6312  -7.5042  -7.3761  -2.6186
    -2.6162  -2.4134  -2.2626  -2.2622  -2.1170  -2.0869  -1.8002  -1.7858
    -1.7041  -1.5340  -1.5278  -1.4655  -1.2697  -1.2679  -1.2428  -1.0585
    -1.0420  -0.9615  -0.9209  -0.8228  -0.8220  -0.8182  -0.6963  -0.6338
    -0.5870  -0.5835  -0.5086  -0.4916  -0.3732  -0.3370  -0.3106  -0.3040
    -0.3019  -0.2551  -0.1865  -0.1333   0.0244   0.0261   0.1026   0.1295
     0.1340   0.2691   0.2712   0.3930   0.4027   0.4456   0.4973   0.5523
     0.6080   0.6311   0.7502   0.8207   0.8699   0.8883   0.9492   0.9805
     1.2247   1.2408   1.2533   1.2708   1.3581   1.3814   1.4087   1.4765
     1.5703   1.6002   1.6552   1.8133   1.8283   1.8632   1.9715   1.9942
     2.0256   2.1008   2.2506   2.4129   2.4892   2.6200   2.6247   5.7957
     5.8011   5.8553   6.5997   6.9240   7.0375   7.4665   7.5026   7.5806
     7.9366   8.4293   8.4637   8.6568   8.7785   8.9222   9.2172   9.2547
     9.3534

          k = 0.2500 0.1320 0.0000 ( 34751 PWs)   bands (ev):

   -35.6374 -35.4970 -23.6328 -22.7578 -22.7573 -22.5218 -16.9965 -16.9319
   -16.8290 -16.8054 -16.7442 -16.6111 -15.0048 -14.9764 -14.9749 -14.8045
   -14.7472 -14.6221 -14.4012 -14.2434 -14.2434 -14.0938 -14.0702 -13.9841
   -13.9622 -13.7796 -13.6460  -8.9564  -8.6814  -8.3027  -8.0712  -8.0706
    -7.9262  -7.9252  -7.8678  -7.6846  -7.5981  -7.5977  -7.3425  -2.6687
    -2.6619  -2.4509  -2.2552  -2.2535  -2.1645  -2.1471  -2.1040  -2.0795
    -2.0052  -1.8663  -1.8105  -1.6836  -1.6820  -1.4676  -1.4073  -1.3417
    -1.0789  -1.0710  -1.0347  -0.9622  -0.9291  -0.8824  -0.7603  -0.6970
    -0.6763  -0.6658  -0.6201  -0.5323  -0.4358  -0.3937  -0.3521  -0.2693
    -0.2500  -0.0869  -0.0807  -0.0578  -0.0243   0.0491   0.0933   0.1422
     0.1534   0.2693   0.2770   0.3184   0.4132   0.5500   0.5980   0.7234
     0.8103   0.8498   0.8592   0.8854   0.9896   1.0037   1.1108   1.1266
     1.1656   1.1837   1.3217   1.3545   1.3710   1.4204   1.4273   1.4538
     1.4653   1.5498   1.6437   1.6783   1.6860   1.8912   1.9017   2.0820
     2.6087   2.6264   2.7661   2.8041   2.8147   2.8582   2.9644   6.0170
     6.0621   6.0626   6.7799   7.0811   7.1399   7.5405   7.7588   7.7662
     8.1513   8.4266   8.5481   8.5631   8.7956   8.9871   9.0947   9.1239
     9.3134

          k = 0.2500 0.2640 0.0000 ( 34733 PWs)   bands (ev):

   -35.6331 -35.4926 -23.5852 -22.6991 -22.6986 -22.4655 -16.9322 -16.9079
   -16.8807 -16.7998 -16.7503 -16.7424 -14.9149 -14.9060 -14.8026 -14.6652
   -14.6178 -14.5342 -14.2773 -14.2184 -14.2162 -14.1438 -14.1173 -14.0291
   -13.9600 -13.8627 -13.6729  -8.9942  -8.8803  -8.4150  -8.2913  -8.2909
    -8.0249  -7.9879  -7.9870  -7.7952  -7.7179  -7.7174  -7.4653  -3.0478
    -3.0228  -2.8027  -2.7449  -2.5472  -2.4949  -2.4905  -2.3671  -2.3661
    -2.2774  -2.2237  -2.2228  -2.0799  -2.0175  -1.6872  -1.5060  -1.4775
    -1.4751  -1.4645  -1.3405  -1.1830  -1.1413  -1.0018  -0.9761  -0.8737
    -0.7878  -0.7770  -0.6821  -0.6538  -0.6481  -0.6221  -0.5671  -0.4591
    -0.3997  -0.3549  -0.2805  -0.0338  -0.0044   0.0234   0.2603   0.2823
     0.4525   0.4624   0.5470   0.7245   0.7402   0.7863   0.8579   0.9053
     0.9073   1.0845   1.1543   1.1966   1.2298   1.2831   1.2886   1.3284
     1.3802   1.4159   1.4308   1.4581   1.4795   1.5276   1.5587   1.5692
     1.6122   1.6341   1.6481   1.8022   1.8038   1.9353   1.9904   2.2039
     2.9312   2.9333   3.2172   3.2296   3.3646   3.4818   3.5934   6.2711
     6.6038   6.6046   6.8335   7.5183   7.5289   7.6436   8.2904   8.2918
     8.3461   8.6753   8.7163   8.9187   8.9928   9.1145   9.2277   9.2703
     9.3031

          k = 0.2500 0.3960 0.0000 ( 34712 PWs)   bands (ev):

   -35.6287 -35.4883 -23.5365 -22.6387 -22.6382 -22.4076 -17.0287 -16.8964
   -16.8936 -16.8222 -16.7699 -16.6547 -14.8711 -14.8682 -14.5751 -14.4955
   -14.4771 -14.4361 -14.2697 -14.2335 -14.1531 -14.1379 -14.1254 -14.1068
   -13.9845 -13.9305 -13.7052  -9.1546  -8.8259  -8.6292  -8.4113  -8.4107
    -8.1558  -8.0382  -8.0374  -7.9318  -7.9313  -7.8133  -7.6826  -3.5519
    -3.5218  -3.4968  -3.2607  -3.0431  -3.0193  -3.0171  -2.5052  -2.5046
    -2.2981  -2.1870  -2.1832  -2.0611  -1.9629  -1.9073  -1.8274  -1.8245
    -1.6431  -1.5381  -1.5056  -1.4640  -1.3606  -1.2126  -1.2068  -0.9435
    -0.8835  -0.8745  -0.8544  -0.8468  -0.8274  -0.7543  -0.6022  -0.5419
    -0.5282  -0.4598  -0.3479   0.0099   0.0690   0.1292   0.2967   0.3461
     0.5650   0.5917   0.7875   0.9233   0.9243   0.9489   1.0230   1.1873
     1.2247   1.2298   1.2603   1.2674   1.3629   1.3992   1.4328   1.4498
     1.4771   1.5619   1.5736   1.6655   1.6941   1.7171   1.7525   1.8110
     1.8292   1.8752   1.9038   1.9525   2.1611   2.2025   2.2035   2.3065
     2.7626   2.7654   3.4464   3.4699   3.6018   3.7021   4.1253   6.0181
     6.8111   6.8120   7.0334   7.6523   7.7467   7.8491   8.3206   8.7409
     8.7528   8.8928   9.0387   9.3057   9.6228   9.6627   9.6876   9.7651
     9.8268

          k = 0.2500-0.5279 0.0000 ( 34740 PWs)   bands (ev):

   -35.6269 -35.4864 -23.5160 -22.6131 -22.6127 -22.3831 -17.0788 -16.9434
   -16.8909 -16.7826 -16.7646 -16.6151 -14.8679 -14.8643 -14.4202 -14.4170
   -14.4043 -14.3927 -14.2828 -14.2754 -14.2217 -14.1226 -14.1208 -14.0589
   -14.0442 -13.9209 -13.7322  -9.1869  -8.8002  -8.7463  -8.4115  -8.4107
    -8.1763  -8.1263  -8.1260  -7.9980  -7.9970  -7.8288  -7.7920  -3.7873
    -3.7329  -3.7219  -3.4536  -3.2541  -3.2469  -3.2272  -2.5127  -2.5119
    -2.2856  -2.1489  -2.1457  -2.0443  -2.0216  -1.9822  -1.9583  -1.9096
    -1.7330  -1.6631  -1.5425  -1.5011  -1.4302  -1.2994  -1.2956  -1.0031
    -0.9648  -0.9243  -0.9058  -0.8689  -0.8614  -0.8368  -0.6160  -0.5582
    -0.5387  -0.4695  -0.3525   0.0162   0.0984   0.1699   0.3085   0.3835
     0.6262   0.6642   0.8931   0.9771   1.0274   1.0278   1.0392   1.1244
     1.1527   1.1691   1.3031   1.3893   1.4081   1.4276   1.4483   1.4976
     1.5085   1.5893   1.6330   1.8034   1.8562   1.8999   1.9350   1.9676
     1.9797   2.0162   2.0471   2.0772   2.2861   2.3458   2.3783   2.3793
     2.5402   2.5441   3.4664   3.4957   3.6371   3.7334   4.2927   5.8443
     6.7743   6.7773   7.1657   7.6450   7.8135   7.9007   8.1178   8.7894
     9.0976   9.1933   9.4648   9.4756   9.6389   9.8027   9.8929  10.0197
    10.0393

          k = 0.3750 0.0000 0.0000 ( 34726 PWs)   bands (ev):

   -35.6366 -35.4962 -23.6177 -22.7362 -22.7357 -22.5014 -17.0782 -16.9533
   -16.9334 -16.7632 -16.6747 -16.5420 -15.1122 -15.0935 -15.0923 -14.7079
   -14.6809 -14.6615 -14.4127 -14.2702 -14.2627 -14.2084 -14.1111 -14.0787
   -13.9748 -13.8088 -13.6648  -8.9727  -8.3667  -8.3238  -7.9852  -7.9840
    -7.8355  -7.7245  -7.7244  -7.5473  -7.5467  -7.4555  -7.2974  -2.9464
    -2.9421  -2.7699  -2.5102  -2.3859  -2.3846  -2.1315  -1.7186  -1.6899
    -1.6372  -1.5923  -1.5587  -1.4295  -1.3045  -1.2713  -1.2695  -1.2554
    -1.1401  -1.0719  -1.0649  -1.0304  -0.9668  -0.9548  -0.9397  -0.8402
    -0.7868  -0.7837  -0.7207  -0.6966  -0.4995  -0.4578  -0.3308  -0.3250
    -0.2982  -0.2889  -0.2277  -0.2080   0.0116   0.0133   0.0518   0.1198
     0.1248   0.3476   0.3502   0.3722   0.3743   0.3997   0.4714   0.5188
     0.6349   0.6991   0.7626   0.8431   0.8467   0.9807   1.1302   1.1305
     1.1672   1.2341   1.2937   1.3085   1.3210   1.3666   1.4564   1.4982
     1.5927   1.7013   1.7118   1.7472   1.8560   1.9124   1.9290   2.0824
     2.1157   2.1322   2.2908   2.5179   2.5277   2.7352   2.7461   6.3565
     6.4502   6.4512   6.9878   7.4927   7.7137   7.9113   7.9461   7.9497
     8.4157   8.4899   8.5590   8.7532   9.2691   9.3763   9.4360   9.4516
     9.4741

          k = 0.3750 0.1320 0.0000 ( 34759 PWs)   bands (ev):

   -35.6348 -35.4944 -23.5996 -22.7145 -22.7140 -22.4805 -17.0697 -16.9447
   -16.9043 -16.7392 -16.7340 -16.6061 -15.0527 -15.0452 -15.0336 -14.6676
   -14.6369 -14.6004 -14.3601 -14.2414 -14.2394 -14.1834 -14.1046 -14.0587
   -14.0089 -13.8154 -13.6770  -8.9531  -8.6189  -8.3580  -8.0427  -8.0420
    -7.8879  -7.8872  -7.8613  -7.6373  -7.6365  -7.6348  -7.3904  -3.0083
    -2.9989  -2.8139  -2.5344  -2.3847  -2.3835  -2.1528  -2.0905  -2.0743
    -1.9178  -1.8098  -1.8005  -1.6722  -1.6705  -1.5324  -1.4869  -1.4156
    -1.3658  -1.3617  -1.2583  -1.1287  -1.0170  -0.9380  -0.8847  -0.8475
    -0.7837  -0.7518  -0.6816  -0.6439  -0.6061  -0.4725  -0.4619  -0.3226
    -0.3187  -0.1135  -0.1018  -0.0156   0.0514   0.0736   0.0988   0.1330
     0.1374   0.2874   0.3664   0.3866   0.3912   0.6113   0.6312   0.7355
     0.7726   0.8048   0.9046   0.9645   1.0478   1.0710   1.1295   1.1539
     1.1933   1.2611   1.3053   1.3136   1.3606   1.4336   1.4840   1.5280
     1.6417   1.6855   1.6900   1.7347   1.7873   1.9268   2.0712   2.0822
     2.6846   2.6959   2.7942   2.8962   2.9186   3.0746   3.1370   6.3551
     6.5993   6.6000   6.9980   7.4712   7.7614   7.8928   8.0113   8.0118
     8.4386   8.4614   8.6010   8.8335   9.1309   9.2871   9.3392   9.4457
     9.5786

          k = 0.3750 0.2640 0.0000 ( 34779 PWs)   bands (ev):

   -35.6305 -35.4900 -23.5553 -22.6612 -22.6607 -22.4289 -17.0493 -16.9242
   -16.8836 -16.8291 -16.7490 -16.6597 -14.9284 -14.9249 -14.8393 -14.5722
   -14.5347 -14.4509 -14.2519 -14.2016 -14.1820 -14.1685 -14.1047 -14.0509
   -13.9963 -13.8499 -13.6848  -9.0512  -8.8763  -8.6063  -8.3440  -8.3435
    -8.0816  -8.0226  -8.0219  -7.9003  -7.8996  -7.8085  -7.6654  -3.3243
    -3.2928  -3.0525  -2.7542  -2.7407  -2.5550  -2.5505  -2.4360  -2.4353
    -2.4123  -2.3065  -2.3044  -2.2686  -2.1191  -1.8348  -1.7935  -1.6895
    -1.6133  -1.4638  -1.3158  -1.2859  -1.1485  -1.0013  -0.9871  -0.9318
    -0.9065  -0.8825  -0.7336  -0.7078  -0.7024  -0.6703  -0.5523  -0.5462
    -0.4460  -0.4266  -0.3605  -0.0044   0.0411   0.1942   0.3342   0.3934
     0.5619   0.5760   0.6446   0.7621   0.7758   0.9512   0.9531   1.0571
     1.1171   1.1411   1.1818   1.1890   1.3425   1.3455   1.3762   1.4108
     1.4655   1.4982   1.5290   1.5823   1.6180   1.6207   1.6804   1.6980
     1.7042   1.7494   1.7561   1.7712   1.9091   1.9926   2.1316   2.1417
     2.9312   2.9346   3.5937   3.6731   3.6773   3.7969   3.8968   5.9972
     6.6448   6.6453   6.9630   7.5501   7.6267   7.7374   8.3502   8.3564
     8.6940   8.7439   9.0151   9.0864   9.2472   9.3656   9.4307   9.5989
     9.6950

          k = 0.3750 0.3960 0.0000 ( 34747 PWs)   bands (ev):

   -35.6262 -35.4857 -23.5102 -22.6066 -22.6061 -22.3761 -17.0320 -17.0103
   -16.9055 -16.8769 -16.7494 -16.5798 -14.7933 -14.7917 -14.5761 -14.4805
   -14.4427 -14.2938 -14.2840 -14.2354 -14.1344 -14.1315 -14.0503 -14.0408
   -13.9586 -13.8916 -13.6693  -9.3626  -8.9047  -8.8224  -8.6098  -8.6091
    -8.3549  -8.2749  -8.2746  -8.0252  -8.0239  -7.9730  -7.8367  -3.8038
    -3.7652  -3.5197  -3.4383  -3.2142  -3.0002  -2.9986  -2.6866  -2.6851
    -2.5278  -2.3443  -2.3329  -2.3318  -2.1477  -2.1294  -2.0967  -1.9088
    -1.7715  -1.7479  -1.3804  -1.2659  -1.2636  -1.2614  -1.2567  -1.0144
    -1.0028  -0.9235  -0.9142  -0.8607  -0.7868  -0.7428  -0.7300  -0.6029
    -0.5091  -0.4498  -0.4471   0.0810   0.1975   0.2444   0.4047   0.5733
     0.7850   0.8751   0.9953   1.1015   1.1033   1.1950   1.2259   1.2976
     1.3306   1.4116   1.4259   1.4307   1.5166   1.5827   1.6131   1.6685
     1.6815   1.6937   1.7249   1.7989   1.8293   1.8500   1.8855   1.8981
     1.9472   1.9876   2.0018   2.0680   2.1245   2.1252   2.3244   2.3853
     2.7505   2.7562   4.0778   4.1926   4.1996   4.2771   4.3735   5.4630
     6.3413   6.3422   6.9172   7.3093   7.6106   7.7034   8.5232   8.7052
     8.9279   8.9543   9.2947   9.4441   9.4720   9.5150   9.5513   9.6585
     9.8618

          k = 0.3750-0.5279 0.0000 ( 34780 PWs)   bands (ev):

   -35.6244 -35.4839 -23.4912 -22.5835 -22.5830 -22.3539 -17.0655 -17.0194
   -16.9303 -16.8944 -16.7139 -16.5446 -14.7320 -14.7311 -14.4523 -14.4137
   -14.3904 -14.3405 -14.2532 -14.2032 -14.1343 -14.1147 -14.1127 -13.9875
   -13.9854 -13.8658 -13.6609  -9.4741  -9.0306  -8.8027  -8.6919  -8.6910
    -8.4520  -8.4200  -8.4199  -8.1000  -8.0509  -8.0495  -7.8507  -4.0105
    -3.9714  -3.7699  -3.6576  -3.4169  -3.2255  -3.2239  -2.7050  -2.7036
    -2.5391  -2.3450  -2.3271  -2.3255  -2.2549  -2.2069  -2.1302  -1.9906
    -1.8629  -1.8066  -1.4505  -1.3731  -1.3696  -1.2935  -1.2909  -1.0136
    -1.0090  -1.0083  -0.9946  -0.9423  -0.8308  -0.8206  -0.7361  -0.6050
    -0.4959  -0.4366  -0.4341   0.1143   0.2372   0.2585   0.4241   0.6557
     0.8550   1.0153   1.1657   1.2137   1.2184   1.2483   1.2956   1.2981
     1.3376   1.4778   1.5303   1.6051   1.6127   1.6720   1.6773   1.7112
     1.7379   1.8066   1.8378   1.9397   1.9522   1.9875   1.9975   2.0070
     2.0889   2.1036   2.1373   2.2268   2.3131   2.3157   2.3954   2.5055
     2.5139   2.5282   4.1975   4.3367   4.3538   4.4249   4.5153   5.2409
     6.1638   6.1646   6.8653   7.2217   7.6032   7.6993   8.4667   8.5273
     9.0749   9.0976   9.3111   9.4262   9.4996   9.7094   9.7842   9.8109
     9.8242

          k =-0.5000 0.0000 0.0000 ( 34714 PWs)   bands (ev):

   -35.6355 -35.4951 -23.6032 -22.7171 -22.7166 -22.4832 -17.1306 -17.0060
   -16.8912 -16.7199 -16.6734 -16.5406 -15.1612 -15.1481 -15.1335 -14.7281
   -14.6554 -14.4514 -14.3773 -14.2873 -14.2772 -14.2521 -14.1906 -14.1259
   -13.9871 -13.8275 -13.6814  -8.9635  -8.3516  -8.2974  -7.9749  -7.9737
    -7.8256  -7.7014  -7.7013  -7.5112  -7.5106  -7.4422  -7.2638  -3.0884
    -3.0845  -2.9143  -2.6646  -2.4109  -2.4096  -2.1292  -1.7087  -1.6731
    -1.6711  -1.6333  -1.4322  -1.3387  -1.3364  -1.3333  -1.2751  -1.2734
    -1.2299  -1.2076  -1.1753  -1.0522  -1.0374  -0.9750  -0.9543  -0.8901
    -0.8688  -0.8672  -0.8173  -0.8167  -0.5622  -0.5123  -0.3341  -0.3302
    -0.3005  -0.2982  -0.2713  -0.2181   0.0062   0.0080   0.0548   0.0839
     0.0915   0.3476   0.3496   0.3727   0.3743   0.3919   0.4390   0.4819
     0.5488   0.7634   0.8211   0.8271   0.8797   1.0202   1.0798   1.0803
     1.2571   1.2972   1.3079   1.3146   1.3400   1.4164   1.5361   1.5956
     1.5985   1.6003   1.6455   1.8126   1.8969   1.9425   2.0665   2.0958
     2.1210   2.1464   2.2981   2.5075   2.5226   2.7611   2.7807   6.6064
     6.9527   7.2233   7.2235   7.2745   7.2756   7.7781   8.2107   8.4130
     8.4897   8.5743   8.6996   8.9925   9.3996   9.4000   9.5063   9.5083
     9.5122

          k =-0.5000 0.1320 0.0000 ( 34798 PWs)   bands (ev):

   -35.6337 -35.4933 -23.5857 -22.6963 -22.6958 -22.4630 -17.1214 -16.9967
   -16.8637 -16.7370 -16.6923 -16.6040 -15.1007 -15.0917 -15.0616 -14.6874
   -14.6174 -14.4098 -14.3190 -14.2496 -14.2491 -14.2299 -14.1595 -14.0894
   -14.0249 -13.8268 -13.6949  -8.9426  -8.5155  -8.4692  -8.0138  -8.0129
    -7.8451  -7.8308  -7.8307  -7.7142  -7.7135  -7.5629  -7.4777  -3.1568
    -3.1480  -2.9662  -2.6946  -2.4159  -2.4146  -2.1635  -2.0601  -2.0394
    -1.8619  -1.8016  -1.7575  -1.6669  -1.6651  -1.5695  -1.5180  -1.4811
    -1.4759  -1.4332  -1.3687  -1.1710  -1.1098  -0.9332  -0.9244  -0.9230
    -0.7716  -0.7635  -0.7149  -0.6931  -0.6685  -0.5093  -0.5008  -0.3463
    -0.3457  -0.1274  -0.1106   0.0023   0.0689   0.0823   0.1276   0.1288
     0.1506   0.2221   0.3798   0.4595   0.4609   0.5354   0.5531   0.7018
     0.7578   0.8222   0.8788   0.9947   1.0445   1.0798   1.1245   1.1605
     1.2252   1.2269   1.3280   1.3568   1.4299   1.4345   1.5735   1.6210
     1.6233   1.6671   1.6730   1.8191   1.8609   2.0495   2.0694   2.1583
     2.6928   2.6989   2.7994   2.9153   2.9391   3.1283   3.1700   6.4477
     6.9767   7.0711   7.0713   7.5782   7.5805   7.7053   8.1192   8.2111
     8.4131   8.5237   8.7479   9.2231   9.3428   9.3650   9.5045   9.5660
     9.6103

          k =-0.5000 0.2640 0.0000 ( 34772 PWs)   bands (ev):

   -35.6294 -35.4890 -23.5428 -22.6453 -22.6448 -22.4136 -17.0994 -16.9747
   -16.8803 -16.7926 -16.7458 -16.6222 -14.9474 -14.9423 -14.8562 -14.5904
   -14.5285 -14.3055 -14.2197 -14.2044 -14.1871 -14.1791 -14.0937 -14.0774
   -14.0009 -13.8435 -13.6987  -9.0092  -8.8748  -8.7492  -8.2828  -8.2820
    -8.1319  -8.1319  -8.0343  -7.9637  -7.9626  -7.8432  -7.7890  -3.4627
    -3.4314  -3.1981  -2.8963  -2.7335  -2.5805  -2.5763  -2.4490  -2.4456
    -2.4270  -2.3166  -2.3123  -2.2960  -2.1241  -1.9590  -1.9112  -1.7373
    -1.6580  -1.5521  -1.2449  -1.1982  -1.1289  -1.0238  -1.0223  -0.9584
    -0.9273  -0.9026  -0.7563  -0.7331  -0.7275  -0.7189  -0.5565  -0.5387
    -0.4485  -0.4471  -0.3831   0.0031   0.0569   0.2768   0.3605   0.4389
     0.6154   0.6479   0.6788   0.7943   0.7996   1.0362   1.0410   1.0865
     1.1158   1.1255   1.1509   1.1701   1.3089   1.3720   1.4149   1.4566
     1.4862   1.4958   1.5673   1.6431   1.6554   1.7053   1.7343   1.7492
     1.7585   1.7648   1.8327   1.8496   1.8918   2.0294   2.0766   2.2526
     2.9242   2.9281   3.6015   3.8105   3.8171   3.9299   4.0208   5.8499
     6.6408   6.6412   6.9687   7.5157   7.7093   7.7277   8.3864   8.3907
     8.7725   8.9483   8.9991   9.2934   9.3255   9.5355   9.5610   9.6323
     9.7471

          k =-0.5000 0.3960 0.0000 ( 34764 PWs)   bands (ev):

   -35.6251 -35.4846 -23.4991 -22.5931 -22.5926 -22.3629 -17.0778 -17.0094
   -16.9532 -16.8746 -16.7171 -16.5467 -14.7642 -14.7620 -14.5813 -14.5031
   -14.4545 -14.2757 -14.2259 -14.1968 -14.1326 -14.1308 -14.0323 -13.9858
   -13.9727 -13.8604 -13.6574  -9.4286  -9.0257  -8.8279  -8.6580  -8.6571
    -8.4199  -8.4199  -8.4122  -8.1082  -8.0415  -8.0401  -7.8492  -3.9342
    -3.8920  -3.6219  -3.4502  -3.3247  -2.9918  -2.9901  -2.7569  -2.7548
    -2.5986  -2.4383  -2.3507  -2.3493  -2.2470  -2.1967  -2.1354  -1.9484
    -1.8300  -1.7862  -1.3588  -1.2877  -1.2824  -1.1602  -1.1495  -1.1021
    -1.0934  -0.9415  -0.9388  -0.8422  -0.8359  -0.7407  -0.7091  -0.6903
    -0.5110  -0.4128  -0.4115   0.0942   0.2184   0.3400   0.4470   0.6686
     0.8763   1.0397   1.0536   1.2317   1.2354   1.2365   1.2497   1.3317
     1.3660   1.4506   1.5008   1.5078   1.5238   1.6364   1.6614   1.6923
     1.7200   1.7334   1.7810   1.8283   1.9077   1.9117   1.9499   1.9647
     2.0118   2.0630   2.0946   2.1026   2.1059   2.1973   2.2706   2.5143
     2.7382   2.7452   4.0757   4.4556   4.4581   4.5219   4.6094   5.2483
     6.1460   6.1463   6.8100   7.1673   7.6024   7.6697   8.4973   8.7167
     8.8728   8.9197   9.3696   9.4548   9.4893   9.5801   9.6819   9.8093
     9.8427

          k =-0.5000-0.5279 0.0000 ( 34796 PWs)   bands (ev):

   -35.6233 -35.4828 -23.4808 -22.5711 -22.5706 -22.3416 -17.0690 -17.0600
   -16.9443 -16.9249 -16.6836 -16.5135 -14.6675 -14.6663 -14.4932 -14.4393
   -14.3899 -14.3215 -14.2507 -14.1518 -14.1112 -14.1072 -14.0652 -13.9915
   -13.9453 -13.8302 -13.6305  -9.5934  -9.1398  -8.8050  -8.8040  -8.8031
    -8.5635  -8.5361  -8.5360  -8.2134  -8.0694  -8.0674  -7.8655  -4.1425
    -4.0991  -3.8321  -3.7078  -3.5255  -3.2162  -3.2144  -2.7895  -2.7872
    -2.6254  -2.4549  -2.3407  -2.3393  -2.3387  -2.2955  -2.1337  -2.0183
    -1.9236  -1.8285  -1.4259  -1.4026  -1.3992  -1.2246  -1.2144  -1.0766
    -1.0624  -1.0370  -1.0355  -0.9427  -0.8697  -0.8266  -0.7174  -0.6678
    -0.5125  -0.3843  -0.3827   0.1295   0.2592   0.3572   0.4704   0.7810
     0.9712   1.1757   1.2375   1.2949   1.2955   1.3094   1.3508   1.3565
     1.3860   1.5732   1.5874   1.7085   1.7281   1.7305   1.7418   1.8289
     1.8351   1.8520   1.9392   1.9758   1.9838   1.9855   2.0291   2.0387
     2.1424   2.2001   2.2498   2.2871   2.2891   2.3727   2.4531   2.4809
     2.4915   2.6629   4.1907   4.6565   4.6625   4.7245   4.8021   5.0079
     5.9192   5.9192   6.7198   7.0642   7.5841   7.6242   8.3164   8.7614
     8.9817   9.0001   9.0383   9.1942   9.4339   9.5002   9.8060   9.8598
    10.0518

     the Fermi energy is     2.5144 ev

!    total energy              =   -1842.84593393 Ry
     Harris-Foulkes estimate   =   -1842.84593393 Ry
     estimated scf accuracy    <          3.1E-09 Ry

     The total energy is the sum of the following terms:

     one-electron contribution =  -28579.25407897 Ry
     hartree contribution      =   14442.06894692 Ry
     xc contribution           =    -621.57319857 Ry
     ewald contribution        =   12915.91996389 Ry
     smearing contrib. (-TS)   =      -0.00756721 Ry

     convergence has been achieved in  31 iterations

     negative rho (up, down):  1.515E-03 0.000E+00

     Forces acting on atoms (cartesian axes, Ry/au):

     atom    1 type  4   force =     0.00000000    0.00000000   -0.00018871
     atom    2 type  3   force =     0.00000000    0.00000000    0.00034594
     atom    3 type  4   force =     0.00000000    0.00000000   -0.00077076
     atom    4 type  1   force =     0.00000000    0.00000000   -0.00027714
     atom    5 type  3   force =     0.00000000    0.00000000    0.00062662
     atom    6 type  4   force =     0.00000000    0.00000000    0.00004374
     atom    7 type  4   force =     0.00000000    0.00000000    0.00031844
     atom    8 type  2   force =     0.00000000    0.00000000   -0.00075927
     atom    9 type  4   force =     0.00000000    0.00000000    0.00021156
     atom   10 type  4   force =     0.00000000    0.00000000    0.00024355
     atom   11 type  3   force =     0.00000000    0.00000000    0.00050016
     atom   12 type  1   force =     0.00000000    0.00000000   -0.00105973
     atom   13 type  4   force =     0.00000000    0.00000000    0.00540425
     atom   14 type  4   force =     0.00000000    0.00000000    0.01268409
     atom   15 type  3   force =     0.00000000    0.00000000   -0.01080959
     atom   16 type  4   force =     0.00000000    0.00000000    0.01400148
     atom   17 type  1   force =     0.00000000    0.00000000    0.00133044
     atom   18 type  3   force =     0.00000000    0.00000000   -0.00479945
     atom   19 type  4   force =     0.00000000    0.00000000   -0.00048830
     atom   20 type  4   force =     0.00000000    0.00000000   -0.00293773
     atom   21 type  2   force =     0.00000000    0.00000000   -0.01657147
     atom   22 type  4   force =     0.00000000    0.00000000    0.00037127
     atom   23 type  4   force =     0.00000000    0.00000000    0.00163434
     atom   24 type  3   force =     0.00000000    0.00000000   -0.00009517
     atom   25 type  1   force =     0.00000000    0.00000000    0.00026944
     atom   26 type  4   force =     0.00000000    0.00000000    0.00110533
     atom   27 type  3   force =     0.00000000    0.00000000   -0.00063565
     atom   28 type  4   force =     0.00000000    0.00000000    0.00030231

     Total force =     0.028623     Total SCF correction =     0.000247


     Computing stress (Cartesian axis) and pressure


     negative rho (up, down):  1.515E-03 0.000E+00
          total   stress  (Ry/bohr**3)                   (kbar)     P=       -8.29
  -0.00007935   0.00000000   0.00000000          -11.67        0.00        0.00
   0.00000000  -0.00004008   0.00000000            0.00       -5.90        0.00
   0.00000000   0.00000000  -0.00004956            0.00        0.00       -7.29

 
     init_run     :      9.49s CPU      9.96s WALL (       1 calls)
     electrons    :    625.99s CPU    661.28s WALL (       1 calls)
     forces       :      3.68s CPU      4.03s WALL (       1 calls)
     stress       :     25.94s CPU     26.85s WALL (       1 calls)

     Called by init_run:
     wfcinit      :      6.44s CPU      6.58s WALL (       1 calls)
     potinit      :      0.68s CPU      0.69s WALL (       1 calls)
     hinit0       :      1.01s CPU      1.03s WALL (       1 calls)

     Called by electrons:
     c_bands      :    489.47s CPU    504.12s WALL (      31 calls)
     sum_band     :     88.91s CPU    100.36s WALL (      31 calls)
     v_of_rho     :      3.97s CPU      4.01s WALL (      32 calls)
     newd         :     21.93s CPU     31.14s WALL (      32 calls)
     mix_rho      :     21.80s CPU     21.99s WALL (      31 calls)

     Called by c_bands:
     init_us_2    :      3.16s CPU      3.20s WALL (    1625 calls)
     cegterg      :    464.74s CPU    478.85s WALL (     775 calls)

     Called by sum_band:
     sum_band:bec :      0.21s CPU      0.21s WALL (     775 calls)
     addusdens    :     16.55s CPU     27.18s WALL (      31 calls)

     Called by *egterg:
     h_psi        :    223.25s CPU    231.87s WALL (    3855 calls)
     s_psi        :     19.75s CPU     20.09s WALL (    3855 calls)
     g_psi        :      0.59s CPU      0.59s WALL (    3055 calls)
     cdiaghg      :    125.59s CPU    126.14s WALL (    3830 calls)

     Called by h_psi:
     h_psi:calbec :     26.03s CPU     27.07s WALL (    3855 calls)
     vloc_psi     :    175.49s CPU    178.14s WALL (    3855 calls)
     add_vuspsi   :     20.71s CPU     23.53s WALL (    3855 calls)

     General routines
     calbec       :     47.14s CPU     48.27s WALL (    4755 calls)
     fft          :      3.78s CPU      3.80s WALL (     439 calls)
     ffts         :     11.53s CPU     11.63s WALL (   14191 calls)
     fftw         :    205.03s CPU    207.99s WALL (  555225 calls)
     interpolate  :      0.29s CPU      0.29s WALL (      32 calls)
 
     Parallel routines
     fft_scatt_xy :     20.72s CPU     21.04s WALL (  569855 calls)
     fft_scatt_yz :    148.70s CPU    150.74s WALL (  569855 calls)
 
     PWSCF        :  11m 5.86s CPU  11m42.91s WALL

 
   This run was terminated on:  23:19: 4  21May2021            

=------------------------------------------------------------------------------=
   JOB DONE.
=------------------------------------------------------------------------------=
[1621653544.894120] [holy7c06205:62232:0]          mpool.c:43   UCX  WARN  object 0x2eb0840 was not returned to mpool ucp_requests
[1621653544.894700] [holy7c06201:121172:0]          mpool.c:43   UCX  WARN  object 0x27eafc0 was not returned to mpool ucp_requests
[1621653544.895521] [holy7c06108:24768:0]          mpool.c:43   UCX  WARN  object 0x40a2540 was not returned to mpool ucp_requests
[1621653544.895541] [holy7c06108:24768:0]          mpool.c:43   UCX  WARN  object 0x40a2fc0 was not returned to mpool ucp_requests
[1621653544.897034] [holy7c04410:162062:0]          mpool.c:43   UCX  WARN  object 0x34247c0 was not returned to mpool ucp_requests
[1621653544.902359] [holy7c04504:249954:0]          mpool.c:43   UCX  WARN  object 0x39d7c80 was not returned to mpool ucp_requests
[1621653544.904415] [holy7c04503:58019:0]          mpool.c:43   UCX  WARN  object 0x415fa80 was not returned to mpool ucp_requests
[1621653544.904444] [holy7c04503:58019:0]          mpool.c:43   UCX  WARN  object 0x415fe00 was not returned to mpool ucp_requests
[1621653544.905920] [holy7c06203:112618:0]          mpool.c:43   UCX  WARN  object 0x47cf440 was not returned to mpool ucp_requests
[1621653544.905939] [holy7c06203:112618:0]          mpool.c:43   UCX  WARN  object 0x47cf7c0 was not returned to mpool ucp_requests
[1621653544.910421] [holy7c06302:232180:0]          mpool.c:43   UCX  WARN  object 0x42d5580 was not returned to mpool ucp_requests
