
     Program PWSCF v.6.5 starts on 21May2021 at 22:39:29 

     This program is part of the open-source Quantum ESPRESSO suite
     for quantum simulation of materials; please cite
         "P. Giannozzi et al., J. Phys.:Condens. Matter 21 395502 (2009);
         "P. Giannozzi et al., J. Phys.:Condens. Matter 29 465901 (2017);
          URL http://www.quantum-espresso.org", 
     in publications or presentations arising from this work. More details at
     http://www.quantum-espresso.org/quote

     Parallel version (MPI), running on    20 processors

     MPI processes distributed on    12 nodes
     R & G space division:  proc/nbgrp/npool/nimage =      20
     Reading input from CBCO_CuO_cleave_2.25_sep.pwi
Warning: card &IONS ignored
Warning: card     ION_DYNAMICS = 'BFGS' ignored
Warning: card / ignored
Warning: card &CELL ignored
Warning: card     CELL_DYNAMICS = 'BFGS' ignored
Warning: card     PRESS_CONV_THR = 5 ignored
Warning: card / ignored

     Current dimensions of program PWSCF are:
     Max number of different atomic species (ntypx) = 10
     Max number of k-points (npk) =  40000
     Max angular momentum in pseudopotentials (lmaxx) =  3

     Subspace diagonalization in iterative solution of the eigenvalue problem:
     one sub-group per band group will be used
     scalapack distributed-memory algorithm (size of sub-group:  4*  4 procs)

     Message from routine setup:
     using ibrav=0 with symmetry is DISCOURAGED, use correct ibrav instead
 
     Parallelization info
     --------------------
     sticks:   dense  smooth     PW     G-vecs:    dense   smooth      PW
     Min         149      50     14                73779    14206    2222
     Max         150      51     15                73818    14229    2267
     Sum        2991    1007    289              1475989   284301   44707
 


     bravais-lattice index     =            0
     lattice parameter (alat)  =       7.4270  a.u.
     unit-cell volume          =    4524.4357 (a.u.)^3
     number of atoms/cell      =           28
     number of atomic types    =            4
     number of electrons       =       227.00
     number of Kohn-Sham states=          137
     kinetic-energy cutoff     =      60.0000  Ry
     charge density cutoff     =     720.0000  Ry
     convergence threshold     =      1.0E-08
     mixing beta               =       0.5000
     number of iterations used =           10  local-TF  mixing
     Exchange-correlation= SLA PW PBE PBE
                           (   1   4   3   4   0   0   0)

     celldm(1)=   7.427040  celldm(2)=   0.000000  celldm(3)=   0.000000
     celldm(4)=   0.000000  celldm(5)=   0.000000  celldm(6)=   0.000000

     crystal axes: (cart. coord. in units of alat)
               a(1) = (   1.000000   0.000000   0.000000 )  
               a(2) = (   0.000000   0.947081   0.000000 )  
               a(3) = (   0.000000   0.000000  11.660844 )  

     reciprocal axes: (cart. coord. in units 2 pi/alat)
               b(1) = (  1.000000  0.000000  0.000000 )  
               b(2) = (  0.000000  1.055876  0.000000 )  
               b(3) = (  0.000000  0.000000  0.085757 )  


     PseudoPot. # 1 for Ba read from file:
     ./pseudo/Ba.pbe-nsp-van.UPF
     MD5 check sum: 2b9c31dd849566dd297d80989662b7a0
     Pseudo is Ultrasoft + core correction, Zval = 10.0
     Generated by new atomic code, or converted to UPF format
     Using radial grid of  907 points,  6 beta functions with: 
                l(1) =   0
                l(2) =   0
                l(3) =   1
                l(4) =   1
                l(5) =   2
                l(6) =   2
     Q(r) pseudized with  6 coefficients,  rinner =    1.200   1.200   1.200
                                                       1.200   1.200

     PseudoPot. # 2 for Ca read from file:
     ./pseudo/Ca.pbe-nsp-van.UPF
     MD5 check sum: 6471098428ff4fa451746d08035ff179
     Pseudo is Ultrasoft + core correction, Zval = 10.0
     Generated by new atomic code, or converted to UPF format
     Using radial grid of  845 points,  6 beta functions with: 
                l(1) =   0
                l(2) =   0
                l(3) =   1
                l(4) =   1
                l(5) =   2
                l(6) =   2
     Q(r) pseudized with  6 coefficients,  rinner =    1.200   1.200   1.200
                                                       1.200   1.200

     PseudoPot. # 3 for Cu read from file:
     ./pseudo/Cu.pbe-n-van_ak.UPF
     MD5 check sum: 34e3282627ffb533726feb647e090d62
     Pseudo is Ultrasoft + core correction, Zval = 11.0
     Generated by new atomic code, or converted to UPF format
     Using radial grid of  867 points,  6 beta functions with: 
                l(1) =   0
                l(2) =   0
                l(3) =   1
                l(4) =   1
                l(5) =   2
                l(6) =   2
     Q(r) pseudized with  8 coefficients,  rinner =    1.400   1.400   1.400
                                                       1.400   1.400

     PseudoPot. # 4 for O  read from file:
     ./pseudo/O.pbe-van_ak.UPF
     MD5 check sum: 783ce7fe4c79b6a4916957118fed0856
     Pseudo is Ultrasoft, Zval =  6.0
     Generated by new atomic code, or converted to UPF format
     Using radial grid of  737 points,  4 beta functions with: 
                l(1) =   0
                l(2) =   0
                l(3) =   1
                l(4) =   1
     Q(r) pseudized with  8 coefficients,  rinner =    0.800   0.800   0.800


     atomic species   valence    mass     pseudopotential
        Ba            10.00   137.32700     Ba( 1.00)
        Ca            10.00    40.07800     Ca( 1.00)
        Cu            11.00    63.54600     Cu( 1.00)
        O              6.00    15.99900     O ( 1.00)

      4 Sym. Ops. (no inversion) found



   Cartesian axes

     site n.     atom                  positions (alat units)
         1           O   tau(   1) = (   0.0000000   0.4735409  -0.0469745  )
         2           Cu  tau(   2) = (   0.0000000   0.0000000   0.0264565  )
         3           O   tau(   3) = (   0.0000000   0.0000000   0.5030914  )
         4           Ba  tau(   4) = (   0.5000000   0.4735409   0.5690292  )
         5           Cu  tau(   5) = (   0.0000000   0.0000000   1.0374254  )
         6           O   tau(   6) = (   0.5000000   0.0000000   1.0768099  )
         7           O   tau(   7) = (   0.0000000   0.4735409   1.1116985  )
         8           Ca  tau(   8) = (   0.5000000   0.4735409   1.4976260  )
         9           O   tau(   9) = (   0.0000000   0.4735409   1.8667529  )
        10           O   tau(  10) = (   0.5000000   0.0000000   1.9044124  )
        11           Cu  tau(  11) = (   0.0000000   0.0000000   1.9512546  )
        12           Ba  tau(  12) = (   0.5000000   0.4735409   2.4295764  )
        13           O   tau(  13) = (   0.0000000   0.0000000   2.5115362  )
        14           O   tau(  14) = (   0.0000000   0.4735409   2.9918528  )
        15           Cu  tau(  15) = (   0.0000000   0.0000000   2.9919088  )
        16           O   tau(  16) = (   0.0000000   0.0000000   4.0447556  )
        17           Ba  tau(  17) = (   0.5000000   0.4735409   4.1267078  )
        18           Cu  tau(  18) = (   0.0000000   0.0000000   4.6050118  )
        19           O   tau(  19) = (   0.5000000   0.0000000   4.6518539  )
        20           O   tau(  20) = (   0.0000000   0.4735409   4.6895083  )
        21           Ca  tau(  21) = (   0.5000000   0.4735409   5.0586454  )
        22           O   tau(  22) = (   0.0000000   0.4735409   5.4445704  )
        23           O   tau(  23) = (   0.5000000   0.0000000   5.4794590  )
        24           Cu  tau(  24) = (   0.0000000   0.0000000   5.5188461  )
        25           Ba  tau(  25) = (   0.5000000   0.4735409   5.9872397  )
        26           O   tau(  26) = (   0.0000000   0.0000000   6.0531673  )
        27           Cu  tau(  27) = (   0.0000000   0.0000000   6.5298073  )
        28           O   tau(  28) = (   0.0000000   0.4735409   6.6032256  )

     number of k points=    25  Gaussian smearing, width (Ry)=  0.0100
                       cart. coord. in units 2pi/alat
        k(    1) = (   0.0000000   0.0000000   0.0000000), wk =   0.0312500
        k(    2) = (   0.0000000   0.1319845   0.0000000), wk =   0.0625000
        k(    3) = (   0.0000000   0.2639689   0.0000000), wk =   0.0625000
        k(    4) = (   0.0000000   0.3959534   0.0000000), wk =   0.0625000
        k(    5) = (   0.0000000  -0.5279378   0.0000000), wk =   0.0312500
        k(    6) = (   0.1250000   0.0000000   0.0000000), wk =   0.0625000
        k(    7) = (   0.1250000   0.1319845   0.0000000), wk =   0.1250000
        k(    8) = (   0.1250000   0.2639689   0.0000000), wk =   0.1250000
        k(    9) = (   0.1250000   0.3959534   0.0000000), wk =   0.1250000
        k(   10) = (   0.1250000  -0.5279378   0.0000000), wk =   0.0625000
        k(   11) = (   0.2500000   0.0000000   0.0000000), wk =   0.0625000
        k(   12) = (   0.2500000   0.1319845   0.0000000), wk =   0.1250000
        k(   13) = (   0.2500000   0.2639689   0.0000000), wk =   0.1250000
        k(   14) = (   0.2500000   0.3959534   0.0000000), wk =   0.1250000
        k(   15) = (   0.2500000  -0.5279378   0.0000000), wk =   0.0625000
        k(   16) = (   0.3750000   0.0000000   0.0000000), wk =   0.0625000
        k(   17) = (   0.3750000   0.1319845   0.0000000), wk =   0.1250000
        k(   18) = (   0.3750000   0.2639689   0.0000000), wk =   0.1250000
        k(   19) = (   0.3750000   0.3959534   0.0000000), wk =   0.1250000
        k(   20) = (   0.3750000  -0.5279378   0.0000000), wk =   0.0625000
        k(   21) = (  -0.5000000   0.0000000   0.0000000), wk =   0.0312500
        k(   22) = (  -0.5000000   0.1319845   0.0000000), wk =   0.0625000
        k(   23) = (  -0.5000000   0.2639689   0.0000000), wk =   0.0625000
        k(   24) = (  -0.5000000   0.3959534   0.0000000), wk =   0.0625000
        k(   25) = (  -0.5000000  -0.5279378   0.0000000), wk =   0.0312500

     Dense  grid:  1475989 G-vectors     FFT dimensions: (  64,  64, 750)

     Smooth grid:   284301 G-vectors     FFT dimensions: (  40,  36, 432)

     Estimated max dynamical RAM per process >     470.95 MB

     Estimated total dynamical RAM >       9.20 GB

     Initial potential from superposition of free atoms

     starting charge  226.84630, renormalised to  227.00000

     negative rho (up, down):  3.444E-03 0.000E+00
     Starting wfcs are  195 randomized atomic wfcs

     total cpu time spent up to now is       11.8 secs

     Self-consistent Calculation

     iteration #  1     ecut=    60.00 Ry     beta= 0.50
     Davidson diagonalization with overlap
     ethr =  1.00E-02,  avg # of iterations =  2.0

     negative rho (up, down):  4.927E-04 0.000E+00

     total cpu time spent up to now is       31.5 secs

     total energy              =   -1840.72926135 Ry
     Harris-Foulkes estimate   =   -1845.35364892 Ry
     estimated scf accuracy    <      19.14328682 Ry

     iteration #  2     ecut=    60.00 Ry     beta= 0.50
     Davidson diagonalization with overlap
     ethr =  8.43E-03,  avg # of iterations =  2.0

     negative rho (up, down):  2.751E-04 0.000E+00

     total cpu time spent up to now is       51.8 secs

     total energy              =   -1842.43215183 Ry
     Harris-Foulkes estimate   =   -1843.34874117 Ry
     estimated scf accuracy    <       6.65866986 Ry

     iteration #  3     ecut=    60.00 Ry     beta= 0.50
     Davidson diagonalization with overlap
     ethr =  2.93E-03,  avg # of iterations =  1.1

     negative rho (up, down):  2.487E-04 0.000E+00

     total cpu time spent up to now is       70.8 secs

     total energy              =   -1842.77240230 Ry
     Harris-Foulkes estimate   =   -1843.01944199 Ry
     estimated scf accuracy    <       6.73912508 Ry

     iteration #  4     ecut=    60.00 Ry     beta= 0.50
     Davidson diagonalization with overlap
     ethr =  2.93E-03,  avg # of iterations =  1.0

     negative rho (up, down):  2.434E-04 0.000E+00

     total cpu time spent up to now is       89.3 secs

     total energy              =   -1842.83492018 Ry
     Harris-Foulkes estimate   =   -1842.90109664 Ry
     estimated scf accuracy    <       1.88719670 Ry

     iteration #  5     ecut=    60.00 Ry     beta= 0.50
     Davidson diagonalization with overlap
     ethr =  8.31E-04,  avg # of iterations =  1.0

     negative rho (up, down):  2.373E-04 0.000E+00

     total cpu time spent up to now is      108.0 secs

     total energy              =   -1842.80788620 Ry
     Harris-Foulkes estimate   =   -1842.87206719 Ry
     estimated scf accuracy    <       0.93061075 Ry

     iteration #  6     ecut=    60.00 Ry     beta= 0.50
     Davidson diagonalization with overlap
     ethr =  4.10E-04,  avg # of iterations =  2.5

     negative rho (up, down):  2.306E-04 0.000E+00

     total cpu time spent up to now is      128.1 secs

     total energy              =   -1842.79690990 Ry
     Harris-Foulkes estimate   =   -1842.83544063 Ry
     estimated scf accuracy    <       0.95078508 Ry

     iteration #  7     ecut=    60.00 Ry     beta= 0.50
     Davidson diagonalization with overlap
     ethr =  4.10E-04,  avg # of iterations =  2.0

     negative rho (up, down):  2.296E-04 0.000E+00

     total cpu time spent up to now is      147.9 secs

     total energy              =   -1842.79691280 Ry
     Harris-Foulkes estimate   =   -1842.80983896 Ry
     estimated scf accuracy    <       0.21763399 Ry

     iteration #  8     ecut=    60.00 Ry     beta= 0.50
     Davidson diagonalization with overlap
     ethr =  9.59E-05,  avg # of iterations =  7.3

     negative rho (up, down):  2.292E-04 0.000E+00

     total cpu time spent up to now is      176.2 secs

     total energy              =   -1842.79702535 Ry
     Harris-Foulkes estimate   =   -1842.80684670 Ry
     estimated scf accuracy    <       0.24033441 Ry

     iteration #  9     ecut=    60.00 Ry     beta= 0.50
     Davidson diagonalization with overlap
     ethr =  9.59E-05,  avg # of iterations =  1.1

     negative rho (up, down):  2.292E-04 0.000E+00

     total cpu time spent up to now is      194.6 secs

     total energy              =   -1842.79940217 Ry
     Harris-Foulkes estimate   =   -1842.80269403 Ry
     estimated scf accuracy    <       0.16551274 Ry

     iteration # 10     ecut=    60.00 Ry     beta= 0.50
     Davidson diagonalization with overlap
     ethr =  7.29E-05,  avg # of iterations =  1.2

     negative rho (up, down):  2.306E-04 0.000E+00

     total cpu time spent up to now is      213.6 secs

     total energy              =   -1842.79679709 Ry
     Harris-Foulkes estimate   =   -1842.80064632 Ry
     estimated scf accuracy    <       0.08386498 Ry

     iteration # 11     ecut=    60.00 Ry     beta= 0.50
     Davidson diagonalization with overlap
     ethr =  3.69E-05,  avg # of iterations =  4.4

     negative rho (up, down):  2.322E-04 0.000E+00

     total cpu time spent up to now is      236.9 secs

     total energy              =   -1842.79553563 Ry
     Harris-Foulkes estimate   =   -1842.79782716 Ry
     estimated scf accuracy    <       0.11603047 Ry

     iteration # 12     ecut=    60.00 Ry     beta= 0.50
     Davidson diagonalization with overlap
     ethr =  3.69E-05,  avg # of iterations =  3.9

     negative rho (up, down):  2.327E-04 0.000E+00

     total cpu time spent up to now is      258.7 secs

     total energy              =   -1842.79518879 Ry
     Harris-Foulkes estimate   =   -1842.79613619 Ry
     estimated scf accuracy    <       0.08704368 Ry

     iteration # 13     ecut=    60.00 Ry     beta= 0.50
     Davidson diagonalization with overlap
     ethr =  3.69E-05,  avg # of iterations =  1.5

     negative rho (up, down):  2.324E-04 0.000E+00

     total cpu time spent up to now is      276.8 secs

     total energy              =   -1842.79447935 Ry
     Harris-Foulkes estimate   =   -1842.79539096 Ry
     estimated scf accuracy    <       0.08185619 Ry

     iteration # 14     ecut=    60.00 Ry     beta= 0.50
     Davidson diagonalization with overlap
     ethr =  3.61E-05,  avg # of iterations =  1.1

     negative rho (up, down):  1.442E-03 0.000E+00

     total cpu time spent up to now is      295.2 secs

     total energy              =   -1842.79293103 Ry
     Harris-Foulkes estimate   =   -1842.79461940 Ry
     estimated scf accuracy    <       0.08874432 Ry

     iteration # 15     ecut=    60.00 Ry     beta= 0.50
     Davidson diagonalization with overlap
     ethr =  3.61E-05,  avg # of iterations =  2.7

     negative rho (up, down):  8.943E-03 0.000E+00

     total cpu time spent up to now is      314.7 secs

     total energy              =   -1842.79178597 Ry
     Harris-Foulkes estimate   =   -1842.79313372 Ry
     estimated scf accuracy    <       0.06946511 Ry

     iteration # 16     ecut=    60.00 Ry     beta= 0.50
     Davidson diagonalization with overlap
     ethr =  3.06E-05,  avg # of iterations =  4.6

     negative rho (up, down):  2.699E-02 0.000E+00

     total cpu time spent up to now is      337.6 secs

     total energy              =   -1842.79000515 Ry
     Harris-Foulkes estimate   =   -1842.79197164 Ry
     estimated scf accuracy    <       0.05034673 Ry

     iteration # 17     ecut=    60.00 Ry     beta= 0.50
     Davidson diagonalization with overlap
     ethr =  2.22E-05,  avg # of iterations =  7.8

     negative rho (up, down):  2.199E-02 0.000E+00

     total cpu time spent up to now is      365.0 secs

     total energy              =   -1842.78999584 Ry
     Harris-Foulkes estimate   =   -1842.79077592 Ry
     estimated scf accuracy    <       0.00620901 Ry

     iteration # 18     ecut=    60.00 Ry     beta= 0.50
     Davidson diagonalization with overlap
     c_bands:  1 eigenvalues not converged
     ethr =  2.74E-06,  avg # of iterations =  8.0

     negative rho (up, down):  1.922E-02 0.000E+00

     total cpu time spent up to now is      392.3 secs

     total energy              =   -1842.78973605 Ry
     Harris-Foulkes estimate   =   -1842.79013691 Ry
     estimated scf accuracy    <       0.00293954 Ry

     iteration # 19     ecut=    60.00 Ry     beta= 0.50
     Davidson diagonalization with overlap
     ethr =  1.29E-06,  avg # of iterations =  4.4

     negative rho (up, down):  1.572E-02 0.000E+00

     total cpu time spent up to now is      414.6 secs

     total energy              =   -1842.78921927 Ry
     Harris-Foulkes estimate   =   -1842.78980904 Ry
     estimated scf accuracy    <       0.00453502 Ry

     iteration # 20     ecut=    60.00 Ry     beta= 0.50
     Davidson diagonalization with overlap
     ethr =  1.29E-06,  avg # of iterations =  7.3

     negative rho (up, down):  8.520E-03 0.000E+00

     total cpu time spent up to now is      441.7 secs

     total energy              =   -1842.78899199 Ry
     Harris-Foulkes estimate   =   -1842.78929167 Ry
     estimated scf accuracy    <       0.00093566 Ry

     iteration # 21     ecut=    60.00 Ry     beta= 0.50
     Davidson diagonalization with overlap
     ethr =  4.12E-07,  avg # of iterations =  7.0

     negative rho (up, down):  3.387E-03 0.000E+00

     total cpu time spent up to now is      467.6 secs

     total energy              =   -1842.78892003 Ry
     Harris-Foulkes estimate   =   -1842.78905825 Ry
     estimated scf accuracy    <       0.00232706 Ry

     iteration # 22     ecut=    60.00 Ry     beta= 0.50
     Davidson diagonalization with overlap
     c_bands:  1 eigenvalues not converged
     c_bands:  1 eigenvalues not converged
     c_bands:  1 eigenvalues not converged
     c_bands:  1 eigenvalues not converged
     ethr =  4.12E-07,  avg # of iterations =  8.8

     negative rho (up, down):  1.185E-03 0.000E+00

     total cpu time spent up to now is      495.5 secs

     total energy              =   -1842.78896943 Ry
     Harris-Foulkes estimate   =   -1842.78894422 Ry
     estimated scf accuracy    <       0.00035940 Ry

     iteration # 23     ecut=    60.00 Ry     beta= 0.50
     Davidson diagonalization with overlap
     c_bands:  1 eigenvalues not converged
     c_bands:  1 eigenvalues not converged
     c_bands:  1 eigenvalues not converged
     ethr =  1.58E-07,  avg # of iterations =  5.9

     negative rho (up, down):  6.194E-04 0.000E+00

     total cpu time spent up to now is      519.1 secs

     total energy              =   -1842.78900240 Ry
     Harris-Foulkes estimate   =   -1842.78897667 Ry
     estimated scf accuracy    <       0.00013205 Ry

     iteration # 24     ecut=    60.00 Ry     beta= 0.50
     Davidson diagonalization with overlap
     c_bands:  1 eigenvalues not converged
     c_bands:  1 eigenvalues not converged
     ethr =  5.82E-08,  avg # of iterations =  6.3

     negative rho (up, down):  1.336E-03 0.000E+00

     total cpu time spent up to now is      544.1 secs

     total energy              =   -1842.78900811 Ry
     Harris-Foulkes estimate   =   -1842.78900826 Ry
     estimated scf accuracy    <       0.00012102 Ry

     iteration # 25     ecut=    60.00 Ry     beta= 0.50
     Davidson diagonalization with overlap
     ethr =  5.33E-08,  avg # of iterations =  2.4

     negative rho (up, down):  1.019E-03 0.000E+00

     total cpu time spent up to now is      564.0 secs

     total energy              =   -1842.78901009 Ry
     Harris-Foulkes estimate   =   -1842.78901068 Ry
     estimated scf accuracy    <       0.00003236 Ry

     iteration # 26     ecut=    60.00 Ry     beta= 0.50
     Davidson diagonalization with overlap
     ethr =  1.43E-08,  avg # of iterations =  1.4

     negative rho (up, down):  1.408E-03 0.000E+00

     total cpu time spent up to now is      582.4 secs

     total energy              =   -1842.78901279 Ry
     Harris-Foulkes estimate   =   -1842.78901159 Ry
     estimated scf accuracy    <       0.00003402 Ry

     iteration # 27     ecut=    60.00 Ry     beta= 0.50
     Davidson diagonalization with overlap
     ethr =  1.43E-08,  avg # of iterations =  1.6

     negative rho (up, down):  1.486E-03 0.000E+00

     total cpu time spent up to now is      601.4 secs

     total energy              =   -1842.78901303 Ry
     Harris-Foulkes estimate   =   -1842.78901341 Ry
     estimated scf accuracy    <       0.00002086 Ry

     iteration # 28     ecut=    60.00 Ry     beta= 0.50
     Davidson diagonalization with overlap
     ethr =  9.19E-09,  avg # of iterations =  1.0

     negative rho (up, down):  1.466E-03 0.000E+00

     total cpu time spent up to now is      619.4 secs

     total energy              =   -1842.78901326 Ry
     Harris-Foulkes estimate   =   -1842.78901316 Ry
     estimated scf accuracy    <       0.00001525 Ry

     iteration # 29     ecut=    60.00 Ry     beta= 0.50
     Davidson diagonalization with overlap
     ethr =  6.72E-09,  avg # of iterations =  1.0

     negative rho (up, down):  1.495E-03 0.000E+00

     total cpu time spent up to now is      637.6 secs

     total energy              =   -1842.78901327 Ry
     Harris-Foulkes estimate   =   -1842.78901339 Ry
     estimated scf accuracy    <       0.00000541 Ry

     iteration # 30     ecut=    60.00 Ry     beta= 0.50
     Davidson diagonalization with overlap
     ethr =  2.38E-09,  avg # of iterations =  1.3

     negative rho (up, down):  1.531E-03 0.000E+00

     total cpu time spent up to now is      655.8 secs

     total energy              =   -1842.78901329 Ry
     Harris-Foulkes estimate   =   -1842.78901336 Ry
     estimated scf accuracy    <       0.00000021 Ry

     iteration # 31     ecut=    60.00 Ry     beta= 0.50
     Davidson diagonalization with overlap
     ethr =  9.33E-11,  avg # of iterations =  4.0

     negative rho (up, down):  1.546E-03 0.000E+00

     total cpu time spent up to now is      682.0 secs

     total energy              =   -1842.78901331 Ry
     Harris-Foulkes estimate   =   -1842.78901334 Ry
     estimated scf accuracy    <       0.00000014 Ry

     iteration # 32     ecut=    60.00 Ry     beta= 0.50
     Davidson diagonalization with overlap
     ethr =  6.35E-11,  avg # of iterations =  1.0

     negative rho (up, down):  1.540E-03 0.000E+00

     total cpu time spent up to now is      700.0 secs

     total energy              =   -1842.78901332 Ry
     Harris-Foulkes estimate   =   -1842.78901331 Ry
     estimated scf accuracy    <       0.00000004 Ry

     iteration # 33     ecut=    60.00 Ry     beta= 0.50
     Davidson diagonalization with overlap
     ethr =  1.78E-11,  avg # of iterations =  1.9

     negative rho (up, down):  1.542E-03 0.000E+00

     total cpu time spent up to now is      720.0 secs

     total energy              =   -1842.78901332 Ry
     Harris-Foulkes estimate   =   -1842.78901332 Ry
     estimated scf accuracy    <       0.00000003 Ry

     iteration # 34     ecut=    60.00 Ry     beta= 0.50
     Davidson diagonalization with overlap
     ethr =  1.13E-11,  avg # of iterations =  1.1

     negative rho (up, down):  1.538E-03 0.000E+00

     total cpu time spent up to now is      738.8 secs

     total energy              =   -1842.78901332 Ry
     Harris-Foulkes estimate   =   -1842.78901332 Ry
     estimated scf accuracy    <       0.00000002 Ry

     iteration # 35     ecut=    60.00 Ry     beta= 0.50
     Davidson diagonalization with overlap
     ethr =  1.08E-11,  avg # of iterations =  1.0

     negative rho (up, down):  1.535E-03 0.000E+00

     total cpu time spent up to now is      755.0 secs

     End of self-consistent calculation

          k = 0.0000 0.0000 0.0000 ( 35607 PWs)   bands (ev):

   -35.8989 -35.8742 -23.0567 -23.0533 -22.9073 -22.8608 -17.3997 -17.3802
   -16.9506 -16.9403 -16.9273 -16.9134 -15.5969 -15.5872 -14.9425 -14.9372
   -14.9295 -14.8716 -14.8602 -14.4436 -14.4410 -14.2686 -14.2559 -14.1723
   -14.1329 -14.1164 -12.9612  -8.1891  -8.1858  -8.1501  -8.1470  -8.0940
    -8.0450  -7.9688  -7.9573  -7.9540  -7.8340  -7.7958  -7.6347  -2.5905
    -2.5903  -2.2650  -2.1183  -2.1151  -2.0913  -2.0871  -1.9619  -1.9449
    -1.8492  -1.8289  -1.7963  -1.7861  -1.4812  -1.4772  -1.1389  -0.7201
    -0.7181  -0.6415  -0.6410  -0.6356  -0.6115  -0.5895  -0.5694  -0.5523
    -0.5520  -0.5333  -0.5267  -0.5264  -0.5245  -0.4679  -0.4524  -0.3014
    -0.2978  -0.2807  -0.2012  -0.1836  -0.1730  -0.1664  -0.1614  -0.1586
    -0.1192  -0.1047  -0.0977  -0.0855  -0.0599  -0.0327   0.0208   0.0692
     0.2244   0.5126   0.5962   0.6193   0.6223   0.6628   0.7010   0.8989
     0.9031   1.0600   1.0831   1.0939   1.1104   1.1918   1.2143   1.2355
     1.2446   1.2626   1.2674   1.5267   1.5553   1.6038   1.7629   1.7775
     1.8162   1.9514   2.0753   2.0867   2.1823   2.2708   2.2833   4.7455
     4.9564   4.9664   5.8631   5.9535   6.4737   6.4910   6.5751   6.7529
     7.5303   7.7031   7.8699   7.9328   8.1919   8.2662   8.3205   8.4129
     8.8418

          k = 0.0000 0.1320 0.0000 ( 35551 PWs)   bands (ev):

   -35.8971 -35.8723 -23.0300 -23.0266 -22.8815 -22.8374 -17.3637 -17.3441
   -17.0125 -16.9858 -16.9482 -16.9249 -15.5078 -15.4985 -14.9477 -14.9435
   -14.8917 -14.8440 -14.8303 -14.4538 -14.4503 -14.2728 -14.2569 -14.2228
   -14.1625 -14.1603 -13.0211  -8.1885  -8.1850  -8.1023  -8.0992  -8.0945
    -8.0434  -7.9990  -7.9958  -7.9230  -7.8457  -7.7942  -7.6656  -2.6518
    -2.6501  -2.4885  -2.4714  -2.3903  -2.3734  -2.2428  -1.9397  -1.9244
    -1.9060  -1.9019  -1.8323  -1.8129  -1.7227  -1.6212  -1.6178  -0.9782
    -0.9036  -0.8834  -0.8181  -0.8156  -0.7295  -0.7251  -0.6783  -0.6762
    -0.5844  -0.5342  -0.4909  -0.4586  -0.4416  -0.4241  -0.4086  -0.4058
    -0.3843  -0.2797  -0.2760  -0.2730  -0.2666  -0.1962  -0.1803  -0.1584
    -0.1381  -0.1374  -0.1118  -0.0440   0.0103   0.0286   0.0659   0.0989
     0.4872   0.6766   0.7200   0.7910   0.8162   0.8189   0.8640   0.8654
     0.8898   0.9012   0.9054   1.1484   1.1741   1.1942   1.1985   1.2956
     1.3045   1.3253   1.4096   1.4952   1.5403   1.5836   1.6964   1.7359
     1.7728   1.9448   1.9585   2.2602   2.3228   2.5597   2.5625   5.0691
     5.3317   5.3347   6.1788   6.2392   6.7776   6.7987   6.8570   7.0692
     7.7419   7.8785   8.0486   8.1503   8.3589   8.4560   8.5400   8.6677
     8.9363

          k = 0.0000 0.2640 0.0000 ( 35461 PWs)   bands (ev):

   -35.8927 -35.8679 -22.9641 -22.9607 -22.8181 -22.7798 -17.2722 -17.2524
   -17.1663 -17.1398 -16.9426 -16.9193 -15.3037 -15.2957 -15.0027 -14.9951
   -14.8364 -14.7591 -14.7565 -14.4431 -14.4367 -14.3391 -14.3004 -14.2941
   -14.2479 -14.2082 -13.1589  -8.1879  -8.1841  -8.0946  -8.0900  -8.0864
    -8.0399  -7.9819  -7.9788  -7.9527  -7.8079  -7.7304  -7.6951  -3.1104
    -3.1024  -2.9638  -2.9459  -2.7125  -2.6903  -2.6881  -2.5420  -2.5397
    -2.2460  -1.8809  -1.8699  -1.7976  -1.7770  -1.7663  -1.7608  -1.5243
    -1.2972  -1.2056  -1.0711  -1.0679  -0.9453  -0.9332  -0.8744  -0.8533
    -0.8189  -0.8122  -0.7955  -0.7604  -0.7567  -0.7559  -0.6729  -0.6393
    -0.4598  -0.2512  -0.2474  -0.2198  -0.1892  -0.1712  -0.1415  -0.1302
    -0.0564  -0.0193   0.0860   0.1181   0.3243   0.3268   0.4266   0.4451
     0.6709   0.6866   0.6942   0.8549   0.8642   0.9017   0.9038   0.9466
     0.9588   1.0122   1.0195   1.0554   1.1412   1.2885   1.3164   1.3902
     1.4388   1.5131   1.6003   1.6020   1.6635   1.6846   1.7023   1.7115
     1.7152   1.8033   1.8883   2.4030   2.6957   2.7883   2.8122   5.8377
     6.2251   6.2277   6.9831   7.0083   7.5305   7.6233   7.6334   7.9362
     8.3136   8.3856   8.5089   8.5614   8.6345   8.7515   8.9364   9.0030
     9.0220

          k = 0.0000 0.3960 0.0000 ( 35408 PWs)   bands (ev):

   -35.8883 -35.8635 -22.8960 -22.8925 -22.7525 -22.7205 -17.3030 -17.2764
   -17.1704 -17.1508 -16.9369 -16.9136 -15.2004 -15.1986 -14.9981 -14.9698
   -14.8577 -14.6925 -14.6373 -14.4009 -14.3959 -14.3840 -14.3785 -14.3559
   -14.3156 -14.2598 -13.2849  -8.1878  -8.1841  -8.1682  -8.1648  -8.0930
    -8.0626  -8.0202  -7.8535  -7.8503  -7.7842  -7.6857  -7.5910  -3.5682
    -3.5585  -3.4874  -3.3848  -3.3638  -3.2577  -3.2540  -2.6326  -2.6321
    -2.2760  -2.1095  -2.0838  -1.9058  -1.8109  -1.8048  -1.6794  -1.6697
    -1.5376  -1.4201  -1.3417  -1.3381  -1.1877  -1.1603  -1.1459  -1.0938
    -1.0762  -1.0527  -1.0211  -1.0053  -0.9913  -0.9563  -0.7095  -0.6597
    -0.4370  -0.3082  -0.2341  -0.2303  -0.1859  -0.1389  -0.1310  -0.1144
    -0.0869  -0.0639   0.2020   0.2353   0.4838   0.4967   0.6536   0.6568
     0.6764   0.6996   0.7576   0.7825   0.8004   0.8428   0.8736   0.8754
     0.9526   1.1167   1.2776   1.3408   1.3430   1.4271   1.4339   1.4379
     1.4460   1.5254   1.6098   1.6855   1.6859   1.7777   1.8421   1.9423
     2.1059   2.1094   2.1253   2.3634   2.6316   2.6931   2.8282   6.7285
     7.1710   7.1740   7.8959   7.9509   8.1400   8.4116   8.4165   8.5035
     8.7722   8.7737   8.7951   8.8239   8.9469   9.1146   9.1465   9.2019
     9.4056

          k = 0.0000-0.5279 0.0000 ( 35442 PWs)   bands (ev):

   -35.8865 -35.8617 -22.8670 -22.8636 -22.7247 -22.6954 -17.3550 -17.3284
   -17.1257 -17.1061 -16.9346 -16.9113 -15.2417 -15.2384 -14.9340 -14.8635
   -14.8610 -14.6723 -14.5772 -14.4407 -14.4366 -14.3850 -14.3455 -14.3354
   -14.3321 -14.3224 -13.3332  -8.1978  -8.1945  -8.1874  -8.1838  -8.0933
    -8.0918  -8.0235  -7.8039  -7.7976  -7.7944  -7.6326  -7.5463  -3.7652
    -3.7355  -3.7294  -3.5539  -3.5436  -3.4868  -3.4834  -2.6487  -2.6483
    -2.2859  -2.2335  -2.2111  -2.0416  -1.7759  -1.7723  -1.6354  -1.5952
    -1.5934  -1.5110  -1.4684  -1.4629  -1.3149  -1.2810  -1.2649  -1.2043
    -1.1657  -1.1320  -1.0984  -1.0954  -1.0699  -1.0415  -0.6931  -0.6251
    -0.4029  -0.3576  -0.2284  -0.2246  -0.2172  -0.1304  -0.1103  -0.1094
    -0.0929  -0.0454   0.1233   0.1400   0.5272   0.5364   0.5722   0.5833
     0.7270   0.7475   0.7506   0.8059   0.8565   0.8585   0.9254   0.9908
     1.0106   1.0315   1.2328   1.3595   1.4212   1.4374   1.4455   1.5981
     1.7093   1.7149   1.7228   1.7231   1.7313   1.7756   1.7821   2.1770
     2.2460   2.2675   2.2710   2.3035   2.4529   2.5360   2.7433   7.3318
     7.5824   7.5859   7.9727   8.2497   8.6070   8.6435   8.6782   8.6896
     8.7042   8.7113   8.9823   9.0380   9.0525   9.1492   9.3411   9.3667
     9.6740

          k = 0.1250 0.0000 0.0000 ( 35561 PWs)   bands (ev):

   -35.8979 -35.8731 -23.0386 -23.0352 -22.8897 -22.8457 -17.3665 -17.3467
   -17.0303 -17.0082 -16.9389 -16.9120 -15.4941 -15.4832 -14.9873 -14.9835
   -14.9575 -14.8759 -14.8654 -14.4527 -14.4499 -14.2783 -14.2668 -14.1926
   -14.1582 -14.1368 -13.0320  -8.2146  -8.2109  -8.0948  -8.0915  -8.0856
    -8.0841  -7.9249  -7.9216  -7.9015  -7.7840  -7.7648  -7.6083  -2.6338
    -2.6331  -2.3357  -2.1446  -2.1416  -2.1134  -2.0998  -2.0969  -2.0939
    -2.0586  -2.0553  -1.7617  -1.7480  -1.4791  -1.4751  -1.1663  -0.9169
    -0.9112  -0.7799  -0.7736  -0.7312  -0.7250  -0.7092  -0.6142  -0.6019
    -0.5999  -0.5580  -0.5537  -0.5527  -0.4925  -0.4852  -0.4514  -0.4313
    -0.3457  -0.3008  -0.1919  -0.1687  -0.1659  -0.1146  -0.1128  -0.0854
    -0.0732  -0.0686  -0.0546  -0.0393   0.0157   0.0339   0.0870   0.1677
     0.2286   0.5249   0.5348   0.5404   0.6262   0.6960   0.7440   0.8820
     0.8984   0.9388   0.9475   1.0730   1.0999   1.2060   1.2081   1.2170
     1.2768   1.2960   1.5467   1.6067   1.6951   1.7094   1.7297   1.7651
     1.7720   1.9526   1.9986   2.0836   2.1504   2.3066   2.3168   4.9110
     5.1361   5.1396   6.0969   6.1659   6.6860   6.7084   6.7676   6.9887
     7.6603   7.8468   8.0052   8.0805   8.3529   8.4877   8.5391   8.6389
     9.0010

          k = 0.1250 0.1320 0.0000 ( 35510 PWs)   bands (ev):

   -35.8960 -35.8712 -23.0128 -23.0094 -22.8648 -22.8228 -17.3315 -17.3117
   -17.0335 -17.0105 -17.0017 -16.9758 -15.4120 -15.4015 -14.9833 -14.9788
   -14.9176 -14.8440 -14.8338 -14.4540 -14.4506 -14.2789 -14.2678 -14.2360
   -14.1864 -14.1781 -13.0737  -8.2332  -8.2298  -8.1514  -8.1480  -8.0924
    -8.0888  -7.9872  -7.8869  -7.8837  -7.8716  -7.7290  -7.5643  -2.6892
    -2.6867  -2.4968  -2.4638  -2.3775  -2.3508  -2.2662  -2.1232  -2.1195
    -2.0855  -2.0719  -1.9001  -1.8959  -1.7347  -1.6123  -1.6096  -1.1083
    -1.0766  -0.9753  -0.9401  -0.9347  -0.8755  -0.8690  -0.7663  -0.7634
    -0.6838  -0.5561  -0.5409  -0.4958  -0.4715  -0.4527  -0.4477  -0.4028
    -0.3581  -0.3349  -0.3052  -0.2616  -0.2611  -0.1671  -0.1256  -0.1082
    -0.0968  -0.0926  -0.0263  -0.0112   0.0342   0.0645   0.2182   0.2583
     0.5070   0.7452   0.7664   0.7783   0.8143   0.8623   0.8683   0.9358
     0.9516   0.9740   0.9806   1.0142   1.0224   1.0436   1.0649   1.3200
     1.3316   1.3331   1.3960   1.3997   1.4500   1.6118   1.7971   2.0625
     2.0824   2.1317   2.1818   2.3233   2.3349   2.5647   2.5687   5.1954
     5.4737   5.4763   6.3641   6.4117   6.9761   7.0070   7.0353   7.2976
     7.8565   8.0201   8.1731   8.2751   8.4895   8.6066   8.7217   8.8432
     8.9916

          k = 0.1250 0.2640 0.0000 ( 35453 PWs)   bands (ev):

   -35.8916 -35.8669 -22.9489 -22.9455 -22.8032 -22.7667 -17.2431 -17.2230
   -17.1630 -17.1367 -17.0131 -16.9907 -15.2300 -15.2215 -14.9951 -14.9847
   -14.8440 -14.7567 -14.7521 -14.4379 -14.4328 -14.3425 -14.3166 -14.3111
   -14.2446 -14.2150 -13.1714  -8.3018  -8.2986  -8.1886  -8.1847  -8.1424
    -8.0915  -8.0442  -7.9665  -7.8777  -7.8745  -7.7265  -7.5613  -3.1354
    -3.1263  -2.9688  -2.9493  -2.7037  -2.6909  -2.6887  -2.5415  -2.5389
    -2.2864  -2.0729  -2.0651  -2.0358  -2.0202  -1.7928  -1.7684  -1.5372
    -1.3099  -1.2625  -1.2480  -1.2219  -1.1811  -1.1792  -0.9591  -0.9553
    -0.9018  -0.8570  -0.8214  -0.7838  -0.7678  -0.7069  -0.6688  -0.6468
    -0.5296  -0.4228  -0.3836  -0.2726  -0.2255  -0.0876  -0.0620  -0.0267
     0.0774   0.1689   0.1981   0.2313   0.4648   0.4855   0.5078   0.5174
     0.7365   0.7610   0.7761   0.8190   0.8282   0.9262   1.0081   1.0089
     1.0537   1.0553   1.1288   1.1316   1.2028   1.2198   1.2722   1.2865
     1.3595   1.3604   1.4082   1.6628   1.6775   1.6790   1.7611   2.1463
     2.2501   2.2803   2.3451   2.5223   2.6993   2.7995   2.8248   5.9082
     6.2860   6.2886   7.0654   7.0873   7.6142   7.7882   7.7923   8.1368
     8.4125   8.5126   8.5694   8.6017   8.6750   8.7874   8.8578   8.9061
     8.9823

          k = 0.1250 0.3960 0.0000 ( 35460 PWs)   bands (ev):

   -35.8872 -35.8625 -22.8830 -22.8796 -22.7397 -22.7090 -17.2979 -17.2712
   -17.1441 -17.1242 -17.0045 -16.9821 -15.1644 -15.1627 -14.9353 -14.8940
   -14.8197 -14.6780 -14.6284 -14.4302 -14.4301 -14.3835 -14.3703 -14.3497
   -14.3004 -14.2515 -13.2629  -8.3323  -8.3290  -8.2035  -8.1990  -8.1963
    -8.0951  -8.0397  -7.9682  -7.9228  -7.9196  -7.7650  -7.6332  -3.6109
    -3.6012  -3.4855  -3.4080  -3.3838  -3.2489  -3.2452  -2.6411  -2.6404
    -2.3074  -2.0619  -2.0559  -1.9702  -1.9434  -1.9388  -1.9049  -1.7718
    -1.6046  -1.5992  -1.4894  -1.4724  -1.4659  -1.3916  -1.1784  -1.1660
    -1.1335  -1.1291  -1.0698  -1.0211  -1.0195  -0.8969  -0.7091  -0.6670
    -0.5478  -0.4554  -0.4096  -0.2483  -0.1776  -0.0607  -0.0567   0.0031
     0.0947   0.1890   0.3765   0.4122   0.6293   0.6379   0.6712   0.6921
     0.7623   0.7779   0.7862   0.8692   0.8854   0.9619   0.9674   0.9727
     1.0894   1.1440   1.3573   1.3655   1.4219   1.4392   1.4681   1.5241
     1.5443   1.5849   1.5921   1.8690   2.0728   2.0755   2.0776   2.1097
     2.2024   2.2287   2.3287   2.4664   2.6495   2.7526   2.8546   6.7196
     7.0349   7.0381   7.7479   7.8178   7.9942   8.3949   8.3988   8.4953
     8.6005   8.6472   8.9877   9.0840   9.0902   9.2489   9.2940   9.3516
     9.4443

          k = 0.1250-0.5279 0.0000 ( 35396 PWs)   bands (ev):

   -35.8854 -35.8606 -22.8551 -22.8516 -22.7128 -22.6846 -17.3494 -17.3228
   -17.1011 -17.0812 -17.0007 -16.9783 -15.1966 -15.1937 -14.8911 -14.7883
   -14.7868 -14.6462 -14.5624 -14.4729 -14.4726 -14.3618 -14.3460 -14.3361
   -14.3312 -14.3069 -13.2985  -8.3269  -8.3236  -8.2154  -8.2049  -8.2012
    -8.0968  -8.0387  -7.9570  -7.9539  -7.9336  -7.7886  -7.6950  -3.7998
    -3.7859  -3.7407  -3.5851  -3.5759  -3.4783  -3.4746  -2.6621  -2.6615
    -2.3127  -2.0953  -2.0867  -2.0018  -1.8813  -1.8705  -1.8062  -1.7977
    -1.7910  -1.7435  -1.6516  -1.6375  -1.5437  -1.4731  -1.2762  -1.2715
    -1.2122  -1.2095  -1.1607  -1.1135  -1.1118  -0.9670  -0.6973  -0.6403
    -0.5501  -0.4663  -0.4233  -0.2348  -0.1541  -0.0492  -0.0454   0.0174
     0.0966   0.1799   0.3472   0.3630   0.6594   0.6625   0.6888   0.6962
     0.7239   0.7444   0.7713   0.8679   0.9903   1.0028   1.0288   1.0440
     1.0609   1.1961   1.2611   1.4841   1.4862   1.7105   1.7113   1.7247
     1.7278   1.7685   1.7730   2.0045   2.0708   2.0927   2.1629   2.2110
     2.2383   2.2419   2.2929   2.3167   2.5080   2.6439   2.7728   7.1798
     7.2558   7.2606   7.9184   8.0064   8.0465   8.1782   8.7097   8.7855
     9.0259   9.0359   9.0716   9.1286   9.2752   9.4105   9.5138   9.5380
     9.7391

          k = 0.2500 0.0000 0.0000 ( 35576 PWs)   bands (ev):

   -35.8952 -35.8704 -22.9943 -22.9909 -22.8468 -22.8087 -17.2821 -17.2616
   -17.1934 -17.1732 -16.9356 -16.9087 -15.2847 -15.2743 -15.0949 -15.0741
   -15.0291 -14.8912 -14.8858 -14.4672 -14.4637 -14.3241 -14.3110 -14.2298
   -14.2032 -14.1761 -13.1949  -8.2161  -8.2121  -8.1116  -8.0807  -8.0017
    -7.9986  -7.8442  -7.8409  -7.8240  -7.6879  -7.6784  -7.5432  -2.8331
    -2.8265  -2.6760  -2.5854  -2.4752  -2.4706  -2.2516  -2.0470  -2.0434
    -1.9625  -1.9606  -1.7783  -1.7436  -1.4757  -1.4718  -1.2463  -1.2440
    -1.2075  -1.0481  -1.0379  -1.0322  -0.9772  -0.9649  -0.9055  -0.7931
    -0.7913  -0.6080  -0.5924  -0.5721  -0.5689  -0.5277  -0.5065  -0.5006
    -0.4718  -0.3256  -0.1814  -0.1786  -0.1268  -0.0929  -0.0645  -0.0336
     0.0512   0.0588   0.0621   0.0981   0.1023   0.2086   0.2236   0.2758
     0.2781   0.3892   0.3961   0.4865   0.6352   0.6392   0.7690   0.9986
     1.0036   1.0328   1.0366   1.0710   1.1169   1.1418   1.1499   1.2052
     1.2580   1.3248   1.5378   1.5878   1.6266   1.6655   1.7503   1.7525
     1.8674   2.0054   2.0309   2.1639   2.2911   2.4120   2.4289   5.3251
     5.5927   5.5950   6.7046   6.7504   7.2349   7.2897   7.3049   7.6483
     7.9710   8.1839   8.2820   8.3878   8.5708   8.6850   9.0227   9.0593
     9.2810

          k = 0.2500 0.1320 0.0000 ( 35521 PWs)   bands (ev):

   -35.8934 -35.8686 -22.9705 -22.9671 -22.8237 -22.7873 -17.2503 -17.2299
   -17.1867 -17.1664 -17.0015 -16.9748 -15.2296 -15.2211 -15.0544 -15.0278
   -14.9776 -14.8558 -14.8481 -14.4529 -14.4493 -14.3176 -14.3069 -14.2509
   -14.2318 -14.2122 -13.1971  -8.2839  -8.2805  -8.1519  -8.1387  -8.1356
    -8.0883  -7.9800  -7.8897  -7.8105  -7.8073  -7.6626  -7.4919  -2.8864
    -2.8767  -2.7134  -2.6164  -2.4668  -2.4618  -2.3851  -2.3845  -2.2888
    -2.2752  -2.2147  -1.8904  -1.8862  -1.7697  -1.6660  -1.6625  -1.3192
    -1.2841  -1.2710  -1.2310  -1.2090  -1.1963  -1.0238  -0.8977  -0.8970
    -0.8477  -0.8294  -0.6323  -0.6062  -0.5335  -0.5150  -0.4952  -0.4663
    -0.4457  -0.3024  -0.2881  -0.2497  -0.2413  -0.1764  -0.1069  -0.0816
    -0.0258   0.0562   0.0802   0.1025   0.2804   0.3594   0.4663   0.5000
     0.5528   0.6407   0.6485   0.7358   0.7679   0.8268   0.8760   0.9341
     0.9408   1.0919   1.0961   1.1187   1.1320   1.1524   1.2133   1.2176
     1.2405   1.2554   1.3534   1.4616   1.4683   1.4895   1.8879   2.2502
     2.3297   2.4115   2.4160   2.5543   2.5740   2.6176   2.6253   5.5447
     5.8538   5.8561   6.8694   6.9019   7.4352   7.5485   7.5493   7.9294
     8.1421   8.2980   8.3804   8.5227   8.6447   8.7862   8.9034   8.9468
     9.1211

          k = 0.2500 0.2640 0.0000 ( 35483 PWs)   bands (ev):

   -35.8891 -35.8643 -22.9118 -22.9084 -22.7669 -22.7347 -17.1899 -17.1685
   -17.1595 -17.1383 -17.1375 -17.1124 -15.1295 -15.1263 -14.9430 -14.8922
   -14.8476 -14.7671 -14.7466 -14.4326 -14.4258 -14.3715 -14.3537 -14.2981
   -14.2458 -14.2342 -13.2031  -8.5038  -8.5006  -8.3417  -8.2012  -8.1972
    -8.1742  -8.0765  -8.0561  -7.9304  -7.9272  -7.7893  -7.6076  -3.2780
    -3.2616  -3.0531  -3.0095  -2.7069  -2.7026  -2.6796  -2.5772  -2.5717
    -2.5315  -2.4826  -2.4357  -2.4292  -2.2134  -1.7395  -1.7295  -1.6904
    -1.6846  -1.6259  -1.5851  -1.4469  -1.2731  -1.2522  -1.0124  -1.0071
    -1.0029  -0.9530  -0.8639  -0.8585  -0.8567  -0.7528  -0.7299  -0.6845
    -0.6559  -0.5544  -0.5311  -0.2799  -0.1420   0.0169   0.1126   0.1389
     0.2749   0.3659   0.4860   0.5423   0.5514   0.5706   0.6907   0.7048
     0.7916   0.8640   0.8969   0.9762   0.9827   1.0106   1.0831   1.0866
     1.1619   1.1721   1.2192   1.2286   1.2515   1.2997   1.3144   1.3553
     1.3995   1.4335   1.4922   1.5948   1.5965   1.6083   2.0558   2.2572
     2.6690   2.7319   2.7447   2.9860   2.9933   3.1117   3.1162   6.0883
     6.3950   6.3976   7.2478   7.2726   7.7088   8.0807   8.0835   8.4116
     8.4708   8.6231   8.7460   8.7744   8.8576   8.9288   9.0451   9.0732
     9.1288

          k = 0.2500 0.3960 0.0000 ( 35466 PWs)   bands (ev):

   -35.8847 -35.8599 -22.8514 -22.8480 -22.7085 -22.6808 -17.2858 -17.2593
   -17.1525 -17.1321 -17.0753 -17.0544 -15.0816 -15.0805 -14.8206 -14.7178
   -14.7118 -14.6639 -14.6104 -14.5004 -14.4934 -14.3662 -14.3532 -14.3323
   -14.2659 -14.2386 -13.2088  -8.6238  -8.6205  -8.4776  -8.2734  -8.2512
    -8.2475  -8.1446  -8.1412  -8.1015  -8.0728  -8.0059  -7.8509  -3.7757
    -3.7612  -3.5504  -3.5061  -3.4096  -3.2279  -3.2241  -2.7159  -2.7125
    -2.5318  -2.4457  -2.3951  -2.3786  -2.1936  -2.0764  -2.0638  -1.9501
    -1.9204  -1.7392  -1.7089  -1.5860  -1.4619  -1.4509  -1.2635  -1.1865
    -1.0993  -1.0766  -1.0718  -1.0618  -1.0558  -0.8999  -0.8526  -0.7321
    -0.7159  -0.6058  -0.5794  -0.1710  -0.0296   0.0637   0.1765   0.1903
     0.4251   0.5918   0.7023   0.7155   0.7221   0.7250   0.8439   0.9599
     0.9649   1.0058   1.0223   1.0465   1.0517   1.1579   1.2388   1.2562
     1.3666   1.3769   1.4157   1.4300   1.4906   1.4990   1.5466   1.5674
     1.6148   1.6172   1.8676   1.9598   1.9944   1.9975   2.0601   2.1822
     2.5458   2.5677   2.7500   3.2088   3.2139   3.3599   3.3616   6.5331
     6.6023   6.6080   7.3800   7.4420   7.7763   8.4631   8.5244   8.5508
     8.6998   8.7444   9.1966   9.2700   9.3942   9.4510   9.4874   9.5403
     9.5884

          k = 0.2500-0.5279 0.0000 ( 35512 PWs)   bands (ev):

   -35.8829 -35.8581 -22.8258 -22.8224 -22.6838 -22.6581 -17.3359 -17.3093
   -17.1470 -17.1265 -17.0361 -17.0152 -15.0784 -15.0767 -14.7786 -14.6395
   -14.6355 -14.5881 -14.5554 -14.5472 -14.5327 -14.3445 -14.3304 -14.3253
   -14.3029 -14.2735 -13.2107  -8.6240  -8.6207  -8.4991  -8.3388  -8.3356
    -8.2396  -8.2113  -8.2076  -8.1352  -8.1200  -8.0684  -8.0121  -3.9747
    -3.9599  -3.7703  -3.7018  -3.6594  -3.4555  -3.4518  -2.7225  -2.7197
    -2.5026  -2.4060  -2.3541  -2.3265  -2.2346  -2.2196  -2.1760  -2.0958
    -2.0569  -1.7636  -1.7338  -1.6400  -1.5376  -1.5261  -1.3559  -1.2799
    -1.1837  -1.1446  -1.1385  -1.0913  -1.0817  -0.9133  -0.8561  -0.7492
    -0.7399  -0.6241  -0.5829  -0.1295  -0.0020   0.0746   0.1936   0.2288
     0.4561   0.6198   0.7429   0.7547   0.8117   0.8188   0.9113   0.9240
     0.9256   1.0303   1.0586   1.1216   1.1360   1.2210   1.2341   1.2445
     1.3135   1.5846   1.6102   1.6287   1.6901   1.7026   1.7135   1.7530
     1.7718   1.7820   1.7937   2.0741   2.1401   2.1703   2.1737   2.2565
     2.3229   2.3572   2.6744   3.2276   3.2334   3.3964   3.3994   6.5641
     6.5686   6.6257   7.3607   7.4140   8.0020   8.1876   8.8089   8.9344
     9.0363   9.2071   9.2517   9.2581   9.4056   9.5725   9.6271   9.7586
     9.7912

          k = 0.3750 0.0000 0.0000 ( 35488 PWs)   bands (ev):

   -35.8926 -35.8678 -22.9489 -22.9455 -22.8027 -22.7709 -17.3337 -17.3149
   -17.1867 -17.1649 -16.9322 -16.9053 -15.3102 -15.3080 -15.1652 -14.9397
   -14.9206 -14.8940 -14.8803 -14.4826 -14.4767 -14.4229 -14.4119 -14.2549
   -14.2318 -14.2010 -13.3463  -8.1986  -8.1945  -8.0989  -8.0589  -7.9367
    -7.9338  -7.7854  -7.7599  -7.7565  -7.6076  -7.5862  -7.4758  -3.1655
    -3.1545  -3.0391  -2.9729  -2.5941  -2.5926  -2.3028  -1.9731  -1.9673
    -1.8745  -1.8391  -1.8139  -1.8136  -1.4928  -1.4773  -1.4736  -1.3449
    -1.3397  -1.2942  -1.2905  -1.2088  -1.2047  -1.2001  -1.1550  -0.9930
    -0.9913  -0.7406  -0.6964  -0.6131  -0.6083  -0.5748  -0.5509  -0.4987
    -0.4950  -0.3768  -0.1942  -0.1914  -0.1400  -0.1263  -0.0901  -0.0147
     0.0817   0.0962   0.1292   0.1395   0.1426   0.1465   0.1651   0.2143
     0.2261   0.3744   0.4512   0.5156   0.8015   0.9085   0.9120   0.9211
     0.9271   0.9344   1.0731   1.0842   1.1726   1.1994   1.2341   1.3143
     1.3895   1.4605   1.4733   1.5286   1.5482   1.5903   1.6700   1.8357
     1.8414   2.0407   2.0723   2.2698   2.3569   2.5242   2.5565   5.9342
     6.2424   6.2446   7.4461   7.4796   7.6149   7.7363   7.7379   7.9739
     8.1946   8.2258   8.4475   8.5230   9.0086   9.0576   9.1784   9.1945
     9.1983

          k = 0.3750 0.1320 0.0000 ( 35549 PWs)   bands (ev):

   -35.8908 -35.8660 -22.9272 -22.9238 -22.7816 -22.7510 -17.3251 -17.3063
   -17.1577 -17.1359 -16.9965 -16.9697 -15.2622 -15.2603 -15.1064 -14.9010
   -14.8778 -14.8323 -14.8200 -14.4527 -14.4476 -14.4021 -14.3912 -14.2723
   -14.2500 -14.2386 -13.3150  -8.2556  -8.2520  -8.1358  -8.1004  -8.0973
    -8.0737  -7.9453  -7.8495  -7.8462  -7.8085  -7.7100  -7.5351  -3.2307
    -3.2162  -3.0821  -3.0071  -2.5934  -2.5916  -2.3671  -2.3491  -2.2852
    -2.1835  -2.1606  -1.8787  -1.8745  -1.7896  -1.7429  -1.7266  -1.5827
    -1.5746  -1.5156  -1.4847  -1.3781  -1.2377  -1.0656  -1.0544  -1.0377
    -1.0035  -0.9415  -0.6967  -0.6820  -0.5925  -0.5416  -0.5401  -0.5277
    -0.4879  -0.3345  -0.3076  -0.2354  -0.2283  -0.1939  -0.1072  -0.0838
    -0.0552   0.1648   0.1823   0.1885   0.3786   0.3892   0.5058   0.5115
     0.5200   0.6475   0.6761   0.7550   0.8563   0.9090   0.9297   0.9448
     0.9474   1.0761   1.0952   1.0976   1.2243   1.2490   1.2653   1.3442
     1.4120   1.4195   1.4736   1.5017   1.5135   1.5137   1.7030   2.2575
     2.3491   2.4905   2.4953   2.6503   2.6535   2.8225   2.8307   6.0807
     6.3909   6.3933   7.4821   7.5080   7.6311   7.8014   7.8043   8.0606
     8.1992   8.3036   8.6357   8.7314   8.9431   8.9890   9.0447   9.2308
     9.3480

          k = 0.3750 0.2640 0.0000 ( 35547 PWs)   bands (ev):

   -35.8865 -35.8617 -22.8739 -22.8705 -22.7298 -22.7022 -17.3048 -17.2858
   -17.1411 -17.1144 -17.0823 -17.0606 -15.1393 -15.1383 -14.9504 -14.8069
   -14.7792 -14.6845 -14.6686 -14.4215 -14.4091 -14.3844 -14.3758 -14.3164
   -14.2810 -14.2480 -13.2363  -8.5565  -8.5533  -8.3964  -8.2355  -8.2321
    -8.2241  -8.1131  -8.1096  -8.0765  -8.0637  -7.9882  -7.8064  -3.5575
    -3.5340  -3.3171  -3.2466  -2.7737  -2.7673  -2.6844  -2.6791  -2.6551
    -2.6437  -2.6408  -2.5129  -2.5106  -2.2722  -2.0637  -2.0503  -1.8863
    -1.8637  -1.5350  -1.5128  -1.3439  -1.2646  -1.2360  -1.1570  -1.1532
    -1.1114  -1.0590  -0.9184  -0.9123  -0.9095  -0.8284  -0.8084  -0.6558
    -0.6509  -0.5873  -0.5520  -0.2709  -0.1007   0.0826   0.2275   0.2708
     0.4113   0.4639   0.5583   0.5887   0.7376   0.7458   0.7993   0.8670
     0.8769   0.9358   0.9399   1.0043   1.0971   1.1294   1.1333   1.1357
     1.3376   1.3543   1.3619   1.3898   1.4350   1.4568   1.4816   1.4829
     1.4887   1.5040   1.5369   1.5409   1.5413   1.5807   2.0449   2.2326
     2.6653   2.7361   2.7574   3.4391   3.4402   3.5331   3.5344   6.2859
     6.4358   6.4379   7.2999   7.3298   7.6507   8.1383   8.1420   8.2979
     8.5281   8.6440   8.9141   9.1391   9.1663   9.2422   9.2941   9.4815
     9.4995

          k = 0.3750 0.3960 0.0000 ( 35519 PWs)   bands (ev):

   -35.8821 -35.8573 -22.8193 -22.8158 -22.6768 -22.6523 -17.2879 -17.2675
   -17.2671 -17.2417 -17.0032 -16.9814 -15.0029 -15.0027 -14.7653 -14.7162
   -14.6791 -14.5299 -14.5206 -14.5065 -14.4991 -14.3470 -14.3396 -14.3097
   -14.2484 -14.2457 -13.1527  -8.8224  -8.8190  -8.6736  -8.4872  -8.4842
    -8.4750  -8.3001  -8.2384  -8.2347  -8.1715  -8.0988  -8.0806  -4.0385
    -4.0168  -3.7582  -3.7060  -3.3968  -3.2071  -3.2033  -2.9001  -2.8935
    -2.7908  -2.7697  -2.5422  -2.5405  -2.3758  -2.3586  -2.2485  -2.1184
    -2.0958  -1.5552  -1.5080  -1.5028  -1.4704  -1.4668  -1.2636  -1.2376
    -1.2310  -1.1626  -1.1340  -1.1032  -1.1021  -1.0485  -1.0164  -0.6611
    -0.6590  -0.5868  -0.5302  -0.1197   0.0384   0.1513   0.3888   0.4441
     0.6603   0.8487   0.8815   0.9125   0.9399   1.0021   1.0235   1.0772
     1.0798   1.1976   1.2167   1.2188   1.2470   1.2883   1.3078   1.4215
     1.4974   1.4992   1.5819   1.5910   1.6471   1.7066   1.7124   1.7685
     1.7937   1.8135   1.8828   1.9162   1.9191   1.9933   2.0919   2.2366
     2.5280   2.5643   2.7581   3.9491   3.9508   4.0238   4.0245   6.1217
     6.1339   6.1598   7.0372   7.0743   7.8652   8.3557   8.7014   8.7166
     8.8217   9.0458   9.0990   9.2042   9.2579   9.3149   9.3231   9.4134
     9.5616

          k = 0.3750-0.5279 0.0000 ( 35528 PWs)   bands (ev):

   -35.8803 -35.8555 -22.7962 -22.7928 -22.6544 -22.6313 -17.3226 -17.2960
   -17.2750 -17.2557 -16.9679 -16.9462 -14.9407 -14.9405 -14.6843 -14.6836
   -14.6447 -14.5446 -14.5215 -14.4614 -14.4595 -14.3391 -14.3223 -14.3173
   -14.2506 -14.2382 -13.1165  -8.9045  -8.9010  -8.7701  -8.6323  -8.6293
    -8.5388  -8.4292  -8.3327  -8.2645  -8.2605  -8.1116  -8.1075  -4.2443
    -4.2234  -3.9608  -3.9089  -3.6696  -3.4323  -3.4285  -2.9185  -2.9119
    -2.8003  -2.7724  -2.5365  -2.5348  -2.4819  -2.4648  -2.2288  -2.2029
    -2.1782  -1.6532  -1.6007  -1.5850  -1.5154  -1.5116  -1.3246  -1.2572
    -1.2410  -1.2284  -1.2237  -1.1962  -1.1903  -1.0774  -1.0271  -0.6448
    -0.6435  -0.5816  -0.5083  -0.0728   0.0683   0.1649   0.4414   0.5343
     0.7326   0.9932   1.0001   1.0133   1.0179   1.0623   1.0669   1.0693
     1.1031   1.2538   1.2657   1.3146   1.3247   1.5034   1.5043   1.5152
     1.5910   1.5998   1.6507   1.7726   1.7771   1.8495   1.8502   1.9103
     1.9567   1.9747   2.1015   2.1062   2.1115   2.1433   2.1473   2.2055
     2.2843   2.3367   2.6799   4.0867   4.0879   4.1758   4.1759   5.9532
     5.9568   6.0090   6.9344   6.9905   8.0253   8.2295   8.8465   8.8708
     8.9368   9.0546   9.0926   9.1751   9.2863   9.4253   9.5650   9.5899
     9.6435

          k =-0.5000 0.0000 0.0000 ( 35494 PWs)   bands (ev):

   -35.8915 -35.8667 -22.9298 -22.9263 -22.7842 -22.7551 -17.3859 -17.3674
   -17.1449 -17.1226 -16.9309 -16.9040 -15.3682 -15.3648 -15.2092 -14.9664
   -14.9250 -14.6702 -14.6539 -14.6180 -14.5930 -14.4604 -14.4565 -14.2635
   -14.2390 -14.2060 -13.4058  -8.1884  -8.1842  -8.0865  -8.0482  -7.9135
    -7.9107  -7.7776  -7.7238  -7.7204  -7.5732  -7.5508  -7.4472  -3.3077
    -3.2966  -3.1834  -3.1216  -2.6185  -2.6175  -2.3136  -1.9412  -1.9302
    -1.9228  -1.9100  -1.6927  -1.6882  -1.5937  -1.4812  -1.4776  -1.4580
    -1.4504  -1.3849  -1.3731  -1.3071  -1.3025  -1.2222  -1.2183  -1.0764
    -1.0747  -0.8097  -0.7511  -0.6356  -0.6209  -0.5922  -0.5756  -0.4876
    -0.4847  -0.3894  -0.1995  -0.1968  -0.1730  -0.1501  -0.1452  -0.0245
     0.0577   0.1011   0.1305   0.1414   0.1423   0.1449   0.1652   0.1680
     0.2807   0.2833   0.4937   0.5507   0.8572   0.8586   0.8728   0.8753
     1.0627   1.0770   1.0874   1.1031   1.1214   1.2978   1.2990   1.3078
     1.3918   1.3936   1.5034   1.5646   1.5764   1.6240   1.6807   1.8500
     1.8559   2.0426   2.0698   2.2754   2.3549   2.5557   2.5921   6.7349
     6.7439   7.0136   7.0161   7.0675   7.0697   7.9415   7.9571   8.2266
     8.2347   8.2804   8.7422   8.8842   8.9659   9.1399   9.1594   9.2810
     9.3453

          k =-0.5000 0.1320 0.0000 ( 35562 PWs)   bands (ev):

   -35.8897 -35.8649 -22.9090 -22.9056 -22.7639 -22.7358 -17.3767 -17.3582
   -17.1176 -17.0952 -16.9943 -16.9676 -15.3108 -15.3080 -15.1445 -14.9264
   -14.8851 -14.6316 -14.6153 -14.5577 -14.5339 -14.4387 -14.4348 -14.2789
   -14.2532 -14.2443 -13.3618  -8.2270  -8.2231  -8.1090  -8.0644  -8.0429
    -8.0401  -7.9270  -7.9234  -7.8970  -7.7862  -7.6831  -7.6503  -3.3793
    -3.3648  -3.2346  -3.1633  -2.6240  -2.6227  -2.3660  -2.3199  -2.2744
    -2.1264  -2.1059  -1.8733  -1.8692  -1.8097  -1.7905  -1.7374  -1.6984
    -1.6906  -1.6166  -1.5750  -1.4229  -1.2484  -1.1325  -1.1308  -1.0318
    -1.0299  -0.9603  -0.7334  -0.7192  -0.6121  -0.5632  -0.5525  -0.5505
    -0.5042  -0.3586  -0.3174  -0.2448  -0.2187  -0.1965  -0.1086  -0.0827
    -0.0704   0.2227   0.2532   0.2559   0.2906   0.2980   0.4432   0.4738
     0.5763   0.6285   0.7241   0.7707   0.8724   0.9158   0.9462   0.9960
     1.0153   1.0269   1.1098   1.1229   1.2306   1.3239   1.3336   1.3677
     1.4453   1.4685   1.5030   1.5682   1.5887   1.5888   1.6388   2.2520
     2.3518   2.4935   2.4977   2.6657   2.6667   2.8758   2.8846   6.6651
     6.8614   6.8639   6.9776   7.3684   7.3715   7.8630   7.8867   8.0242
     8.1651   8.4070   8.8612   8.9804   9.1105   9.2333   9.3381   9.4572
     9.4628

          k =-0.5000 0.2640 0.0000 ( 35556 PWs)   bands (ev):

   -35.8854 -35.8606 -22.8580 -22.8546 -22.7143 -22.6886 -17.3548 -17.3361
   -17.1377 -17.1110 -17.0463 -17.0241 -15.1589 -15.1575 -14.9704 -14.8308
   -14.7881 -14.5363 -14.5200 -14.4433 -14.4309 -14.3886 -14.3845 -14.3633
   -14.3159 -14.2431 -13.2501  -8.4955  -8.4920  -8.3441  -8.3412  -8.3391
    -8.1770  -8.1767  -8.1745  -8.1726  -8.0601  -8.0152  -7.9990  -3.6961
    -3.6717  -3.4626  -3.3911  -2.8007  -2.7960  -2.7074  -2.6990  -2.6509
    -2.6489  -2.6452  -2.5206  -2.5181  -2.2907  -2.1909  -2.1741  -1.9736
    -1.9467  -1.4552  -1.4264  -1.2911  -1.2310  -1.2288  -1.2228  -1.1915
    -1.1819  -1.1277  -0.9387  -0.9356  -0.9332  -0.8334  -0.8086  -0.6594
    -0.6554  -0.6030  -0.5552  -0.2667  -0.0855   0.1036   0.2667   0.3223
     0.4585   0.5021   0.5894   0.6012   0.8137   0.8175   0.8733   0.8863
     0.8873   0.9296   0.9545   0.9745   1.1376   1.1499   1.1808   1.2080
     1.3313   1.4262   1.4311   1.4522   1.4556   1.4763   1.4833   1.5217
     1.5431   1.5894   1.5947   1.6105   1.6145   1.7930   1.8086   2.2042
     2.6587   2.7301   2.7538   3.5782   3.5792   3.6656   3.6679   6.3754
     6.4332   6.4349   7.2352   7.2652   7.6411   8.0903   8.1780   8.1844
     8.7182   8.7347   8.9125   9.3088   9.3246   9.3307   9.3430   9.4769
     9.6313

          k =-0.5000 0.3960 0.0000 ( 35540 PWs)   bands (ev):

   -35.8811 -35.8563 -22.8058 -22.8024 -22.6635 -22.6404 -17.3333 -17.3144
   -17.2666 -17.2400 -16.9711 -16.9489 -14.9744 -14.9741 -14.7723 -14.7466
   -14.6731 -14.5108 -14.4889 -14.4416 -14.4263 -14.3403 -14.3355 -14.2906
   -14.2791 -14.2510 -13.1288  -8.8707  -8.8672  -8.7272  -8.6322  -8.6293
    -8.5177  -8.4380  -8.3137  -8.2550  -8.2509  -8.1125  -8.0967  -4.1704
    -4.1466  -3.8799  -3.8243  -3.3890  -3.1985  -3.1947  -2.9699  -2.9631
    -2.8625  -2.8554  -2.5579  -2.5569  -2.4780  -2.4595  -2.2567  -2.1774
    -2.1526  -1.5598  -1.5046  -1.4816  -1.3801  -1.3742  -1.3446  -1.3199
    -1.2357  -1.1563  -1.1525  -1.1294  -1.1261  -1.1093  -1.0881  -0.6193
    -0.6172  -0.5913  -0.4949  -0.1036   0.0615   0.1823   0.4864   0.5519
     0.7574   0.9282   0.9917   0.9958   1.0019   1.1014   1.1029   1.1348
     1.1676   1.2080   1.2923   1.2941   1.2985   1.3035   1.3277   1.4969
     1.5491   1.5863   1.6103   1.6148   1.6963   1.7681   1.7797   1.8834
     1.8866   1.8880   1.9235   1.9333   1.9607   2.0248   2.1399   2.1791
     2.5150   2.5545   2.7574   4.2131   4.2187   4.2699   4.2701   5.9299
     5.9384   5.9659   6.8885   6.9356   8.0838   8.1233   8.6528   8.6726
     8.8030   9.1144   9.1486   9.1947   9.2773   9.3374   9.3983   9.4623
     9.6160

          k =-0.5000-0.5279 0.0000 ( 35564 PWs)   bands (ev):

   -35.8793 -35.8545 -22.7838 -22.7804 -22.6421 -22.6201 -17.3245 -17.3171
   -17.3056 -17.2906 -16.9378 -16.9156 -14.8748 -14.8734 -14.7283 -14.7267
   -14.5592 -14.5469 -14.5351 -14.4087 -14.4059 -14.3339 -14.3176 -14.3127
   -14.2471 -14.2090 -13.0752  -9.0167  -9.0132  -8.8794  -8.7484  -8.7454
    -8.6618  -8.5432  -8.4446  -8.2830  -8.2790  -8.1284  -8.1153  -4.3783
    -4.3553  -4.0786  -4.0253  -3.6638  -3.4227  -3.4190  -3.0021  -2.9953
    -2.8882  -2.8746  -2.5689  -2.5511  -2.5480  -2.5470  -2.2446  -2.2282
    -2.2211  -1.6702  -1.6185  -1.5941  -1.4491  -1.4396  -1.3089  -1.3002
    -1.2908  -1.2439  -1.2410  -1.2323  -1.2242  -1.1546  -1.1003  -0.5903
    -0.5883  -0.5812  -0.4657  -0.0561   0.0931   0.1977   0.5641   0.6756
     0.8553   1.0712   1.0741   1.0761   1.0802   1.1104   1.1184   1.1847
     1.3368   1.3390   1.3397   1.3575   1.3811   1.5771   1.6063   1.6264
     1.6387   1.7127   1.7317   1.7560   1.8021   1.8032   1.8997   1.9082
     2.0762   2.0796   2.1225   2.1347   2.1391   2.1728   2.2601   2.2778
     2.3152   2.3251   2.6826   4.4065   4.4116   4.4796   4.4802   5.7083
     5.7115   5.7529   6.7696   6.8360   8.0861   8.1936   8.7268   8.7623
     8.7757   8.8257   9.0539   9.1226   9.2206   9.2277   9.5640   9.5921
     9.6824

     the Fermi energy is     2.3053 ev

!    total energy              =   -1842.78901332 Ry
     Harris-Foulkes estimate   =   -1842.78901332 Ry
     estimated scf accuracy    <          1.8E-09 Ry

     The total energy is the sum of the following terms:

     one-electron contribution =  -26587.95465269 Ry
     hartree contribution      =   13444.99076802 Ry
     xc contribution           =    -621.62024782 Ry
     ewald contribution        =   11921.80683090 Ry
     smearing contrib. (-TS)   =      -0.01171174 Ry

     convergence has been achieved in  35 iterations

     negative rho (up, down):  1.535E-03 0.000E+00

     Forces acting on atoms (cartesian axes, Ry/au):

     atom    1 type  4   force =     0.00000000    0.00000000   -0.00035975
     atom    2 type  3   force =     0.00000000    0.00000000    0.00046541
     atom    3 type  4   force =     0.00000000    0.00000000   -0.00075032
     atom    4 type  1   force =     0.00000000    0.00000000   -0.00053551
     atom    5 type  3   force =     0.00000000    0.00000000    0.00043930
     atom    6 type  4   force =     0.00000000    0.00000000    0.00093965
     atom    7 type  4   force =     0.00000000    0.00000000    0.00114947
     atom    8 type  2   force =     0.00000000    0.00000000   -0.00277234
     atom    9 type  4   force =     0.00000000    0.00000000    0.00479596
     atom   10 type  4   force =     0.00000000    0.00000000    0.00413171
     atom   11 type  3   force =     0.00000000    0.00000000    0.00123059
     atom   12 type  1   force =     0.00000000    0.00000000    0.00937262
     atom   13 type  4   force =     0.00000000    0.00000000   -0.01964458
     atom   14 type  4   force =     0.00000000    0.00000000    0.03743427
     atom   15 type  3   force =     0.00000000    0.00000000   -0.03219595
     atom   16 type  4   force =     0.00000000    0.00000000    0.02801951
     atom   17 type  1   force =     0.00000000    0.00000000   -0.00844545
     atom   18 type  3   force =     0.00000000    0.00000000   -0.02130295
     atom   19 type  4   force =     0.00000000    0.00000000   -0.00101343
     atom   20 type  4   force =     0.00000000    0.00000000   -0.00185606
     atom   21 type  2   force =     0.00000000    0.00000000    0.00257625
     atom   22 type  4   force =     0.00000000    0.00000000   -0.00174623
     atom   23 type  4   force =     0.00000000    0.00000000   -0.00022049
     atom   24 type  3   force =     0.00000000    0.00000000   -0.00028260
     atom   25 type  1   force =     0.00000000    0.00000000    0.00038917
     atom   26 type  4   force =     0.00000000    0.00000000    0.00026605
     atom   27 type  3   force =     0.00000000    0.00000000   -0.00000571
     atom   28 type  4   force =     0.00000000    0.00000000   -0.00007861

     Total force =     0.065493     Total SCF correction =     0.000212


     Computing stress (Cartesian axis) and pressure


     negative rho (up, down):  1.535E-03 0.000E+00
          total   stress  (Ry/bohr**3)                   (kbar)     P=       -5.73
   0.00000807   0.00000000   0.00000000            1.19        0.00        0.00
   0.00000000  -0.00008668   0.00000000            0.00      -12.75        0.00
   0.00000000   0.00000000  -0.00003820            0.00        0.00       -5.62

 
     init_run     :     10.42s CPU     10.73s WALL (       1 calls)
     electrons    :    721.90s CPU    743.18s WALL (       1 calls)
     forces       :      5.11s CPU      5.28s WALL (       1 calls)
     stress       :     28.71s CPU     29.16s WALL (       1 calls)

     Called by init_run:
     wfcinit      :      7.07s CPU      7.17s WALL (       1 calls)
     potinit      :      0.68s CPU      0.69s WALL (       1 calls)
     hinit0       :      1.14s CPU      1.16s WALL (       1 calls)

     Called by electrons:
     c_bands      :    549.98s CPU    561.21s WALL (      35 calls)
     sum_band     :    113.35s CPU    118.80s WALL (      35 calls)
     v_of_rho     :      3.56s CPU      3.61s WALL (      36 calls)
     newd         :     30.13s CPU     34.59s WALL (      36 calls)
     mix_rho      :     25.41s CPU     25.61s WALL (      35 calls)

     Called by c_bands:
     init_us_2    :      3.41s CPU      3.43s WALL (    1825 calls)
     cegterg      :    522.29s CPU    532.84s WALL (     875 calls)

     Called by sum_band:
     sum_band:bec :      0.24s CPU      0.24s WALL (     875 calls)
     addusdens    :     21.95s CPU     26.54s WALL (      35 calls)

     Called by *egterg:
     h_psi        :    273.58s CPU    280.92s WALL (    3714 calls)
     s_psi        :     20.39s CPU     20.53s WALL (    3714 calls)
     g_psi        :      0.64s CPU      0.65s WALL (    2814 calls)
     cdiaghg      :    110.50s CPU    111.00s WALL (    3689 calls)

     Called by h_psi:
     h_psi:calbec :     30.46s CPU     31.56s WALL (    3714 calls)
     vloc_psi     :    221.03s CPU    224.02s WALL (    3714 calls)
     add_vuspsi   :     21.18s CPU     22.90s WALL (    3714 calls)

     General routines
     calbec       :     56.57s CPU     57.77s WALL (    4714 calls)
     fft          :      3.57s CPU      3.59s WALL (     491 calls)
     ffts         :     13.29s CPU     13.41s WALL (   15715 calls)
     fftw         :    260.78s CPU    264.26s WALL (  624057 calls)
     interpolate  :      0.26s CPU      0.27s WALL (      36 calls)
 
     Parallel routines
     fft_scatt_xy :     22.95s CPU     23.21s WALL (  640263 calls)
     fft_scatt_yz :    196.81s CPU    199.35s WALL (  640263 calls)
 
     PWSCF        :  12m47.14s CPU  13m 9.43s WALL

 
   This run was terminated on:  22:52:39  21May2021            

=------------------------------------------------------------------------------=
   JOB DONE.
=------------------------------------------------------------------------------=
[1621651959.215638] [holy7c16405:257940:0]          mpool.c:43   UCX  WARN  object 0x3f48c40 was not returned to mpool ucp_requests
[1621651959.215652] [holy7c16405:257940:0]          mpool.c:43   UCX  WARN  object 0x3f48e00 was not returned to mpool ucp_requests
[1621651959.216985] [holy7c16203:189202:0]          mpool.c:43   UCX  WARN  object 0x3f71240 was not returned to mpool ucp_requests
[1621651959.217493] [holy7c16206:230189:0]          mpool.c:43   UCX  WARN  object 0x2e55d00 was not returned to mpool ucp_requests
[1621651959.217508] [holy7c16206:230189:0]          mpool.c:43   UCX  WARN  object 0x2e55ec0 was not returned to mpool ucp_requests
[1621651959.215193] [holy7c16505:273542:0]          mpool.c:43   UCX  WARN  object 0x3437980 was not returned to mpool ucp_requests
[1621651959.215207] [holy7c16505:273542:0]          mpool.c:43   UCX  WARN  object 0x3437d00 was not returned to mpool ucp_requests
[1621651959.219847] [holy7c16211:190940:0]          mpool.c:43   UCX  WARN  object 0x426ad00 was not returned to mpool ucp_requests
[1621651959.215754] [holy7c16203:189203:0]          mpool.c:43   UCX  WARN  object 0x42588c0 was not returned to mpool ucp_requests
[1621651959.222855] [holy7c16410:217732:0]          mpool.c:43   UCX  WARN  object 0x3369240 was not returned to mpool ucp_requests
