
     Program PWSCF v.6.5 starts on 21May2021 at 21:31:56 

     This program is part of the open-source Quantum ESPRESSO suite
     for quantum simulation of materials; please cite
         "P. Giannozzi et al., J. Phys.:Condens. Matter 21 395502 (2009);
         "P. Giannozzi et al., J. Phys.:Condens. Matter 29 465901 (2017);
          URL http://www.quantum-espresso.org", 
     in publications or presentations arising from this work. More details at
     http://www.quantum-espresso.org/quote

     Parallel version (MPI), running on    20 processors

     MPI processes distributed on    12 nodes
     R & G space division:  proc/nbgrp/npool/nimage =      20
     Reading input from CBCO_Y_cleave_2.5_sep.pwi
Warning: card &IONS ignored
Warning: card     ION_DYNAMICS = 'BFGS' ignored
Warning: card / ignored
Warning: card &CELL ignored
Warning: card     CELL_DYNAMICS = 'BFGS' ignored
Warning: card     PRESS_CONV_THR = 5 ignored
Warning: card / ignored

     Current dimensions of program PWSCF are:
     Max number of different atomic species (ntypx) = 10
     Max number of k-points (npk) =  40000
     Max angular momentum in pseudopotentials (lmaxx) =  3

     Subspace diagonalization in iterative solution of the eigenvalue problem:
     one sub-group per band group will be used
     scalapack distributed-memory algorithm (size of sub-group:  4*  4 procs)

     Message from routine setup:
     using ibrav=0 with symmetry is DISCOURAGED, use correct ibrav instead
 
     Parallelization info
     --------------------
     sticks:   dense  smooth     PW     G-vecs:    dense   smooth      PW
     Min         149      50     14                74181    14286    2232
     Max         150      51     15                74220    14311    2279
     Sum        2991    1007    289              1484037   285927   44931
 


     bravais-lattice index     =            0
     lattice parameter (alat)  =       7.4270  a.u.
     unit-cell volume          =    4549.1164 (a.u.)^3
     number of atoms/cell      =           28
     number of atomic types    =            4
     number of electrons       =       227.00
     number of Kohn-Sham states=          137
     kinetic-energy cutoff     =      60.0000  Ry
     charge density cutoff     =     720.0000  Ry
     convergence threshold     =      1.0E-08
     mixing beta               =       0.5000
     number of iterations used =           10  local-TF  mixing
     Exchange-correlation= SLA PW PBE PBE
                           (   1   4   3   4   0   0   0)

     celldm(1)=   7.427040  celldm(2)=   0.000000  celldm(3)=   0.000000
     celldm(4)=   0.000000  celldm(5)=   0.000000  celldm(6)=   0.000000

     crystal axes: (cart. coord. in units of alat)
               a(1) = (   1.000000   0.000000   0.000000 )  
               a(2) = (   0.000000   0.947081   0.000000 )  
               a(3) = (   0.000000   0.000000  11.724453 )  

     reciprocal axes: (cart. coord. in units 2 pi/alat)
               b(1) = (  1.000000  0.000000  0.000000 )  
               b(2) = (  0.000000  1.055876  0.000000 )  
               b(3) = (  0.000000  0.000000  0.085292 )  


     PseudoPot. # 1 for Ba read from file:
     ./pseudo/Ba.pbe-nsp-van.UPF
     MD5 check sum: 2b9c31dd849566dd297d80989662b7a0
     Pseudo is Ultrasoft + core correction, Zval = 10.0
     Generated by new atomic code, or converted to UPF format
     Using radial grid of  907 points,  6 beta functions with: 
                l(1) =   0
                l(2) =   0
                l(3) =   1
                l(4) =   1
                l(5) =   2
                l(6) =   2
     Q(r) pseudized with  6 coefficients,  rinner =    1.200   1.200   1.200
                                                       1.200   1.200

     PseudoPot. # 2 for Ca read from file:
     ./pseudo/Ca.pbe-nsp-van.UPF
     MD5 check sum: 6471098428ff4fa451746d08035ff179
     Pseudo is Ultrasoft + core correction, Zval = 10.0
     Generated by new atomic code, or converted to UPF format
     Using radial grid of  845 points,  6 beta functions with: 
                l(1) =   0
                l(2) =   0
                l(3) =   1
                l(4) =   1
                l(5) =   2
                l(6) =   2
     Q(r) pseudized with  6 coefficients,  rinner =    1.200   1.200   1.200
                                                       1.200   1.200

     PseudoPot. # 3 for Cu read from file:
     ./pseudo/Cu.pbe-n-van_ak.UPF
     MD5 check sum: 34e3282627ffb533726feb647e090d62
     Pseudo is Ultrasoft + core correction, Zval = 11.0
     Generated by new atomic code, or converted to UPF format
     Using radial grid of  867 points,  6 beta functions with: 
                l(1) =   0
                l(2) =   0
                l(3) =   1
                l(4) =   1
                l(5) =   2
                l(6) =   2
     Q(r) pseudized with  8 coefficients,  rinner =    1.400   1.400   1.400
                                                       1.400   1.400

     PseudoPot. # 4 for O  read from file:
     ./pseudo/O.pbe-van_ak.UPF
     MD5 check sum: 783ce7fe4c79b6a4916957118fed0856
     Pseudo is Ultrasoft, Zval =  6.0
     Generated by new atomic code, or converted to UPF format
     Using radial grid of  737 points,  4 beta functions with: 
                l(1) =   0
                l(2) =   0
                l(3) =   1
                l(4) =   1
     Q(r) pseudized with  8 coefficients,  rinner =    0.800   0.800   0.800


     atomic species   valence    mass     pseudopotential
        Ba            10.00   137.32700     Ba( 1.00)
        Ca            10.00    40.07800     Ca( 1.00)
        Cu            11.00    63.54600     Cu( 1.00)
        O              6.00    15.99900     O ( 1.00)

      4 Sym. Ops. (no inversion) found



   Cartesian axes

     site n.     atom                  positions (alat units)
         1           O   tau(   1) = (   0.0000000   0.4735409  -0.0469745  )
         2           Cu  tau(   2) = (   0.0000000   0.0000000   0.0264565  )
         3           O   tau(   3) = (   0.0000000   0.0000000   0.5030914  )
         4           Ba  tau(   4) = (   0.5000000   0.4735409   0.5690292  )
         5           Cu  tau(   5) = (   0.0000000   0.0000000   1.0374254  )
         6           O   tau(   6) = (   0.5000000   0.0000000   1.0768099  )
         7           O   tau(   7) = (   0.0000000   0.4735409   1.1116985  )
         8           Ca  tau(   8) = (   0.5000000   0.4735409   1.4976260  )
         9           O   tau(   9) = (   0.0000000   0.4735409   1.8667529  )
        10           O   tau(  10) = (   0.5000000   0.0000000   1.9044124  )
        11           Cu  tau(  11) = (   0.0000000   0.0000000   1.9512546  )
        12           Ba  tau(  12) = (   0.5000000   0.4735409   2.4295764  )
        13           O   tau(  13) = (   0.0000000   0.0000000   2.5115362  )
        14           O   tau(  14) = (   0.0000000   0.4735409   2.9918528  )
        15           Cu  tau(  15) = (   0.0000000   0.0000000   2.9919088  )
        16           O   tau(  16) = (   0.0000000   0.0000000   3.4722686  )
        17           Ba  tau(  17) = (   0.5000000   0.4735409   3.5542208  )
        18           Cu  tau(  18) = (   0.0000000   0.0000000   4.0325248  )
        19           O   tau(  19) = (   0.5000000   0.0000000   4.0793669  )
        20           O   tau(  20) = (   0.0000000   0.4735409   4.1170213  )
        21           Ca  tau(  21) = (   0.5000000   0.4735409   4.4861584  )
        22           O   tau(  22) = (   0.0000000   0.4735409   5.5081800  )
        23           O   tau(  23) = (   0.5000000   0.0000000   5.5430687  )
        24           Cu  tau(  24) = (   0.0000000   0.0000000   5.5824558  )
        25           Ba  tau(  25) = (   0.5000000   0.4735409   6.0508494  )
        26           O   tau(  26) = (   0.0000000   0.0000000   6.1167770  )
        27           Cu  tau(  27) = (   0.0000000   0.0000000   6.5934170  )
        28           O   tau(  28) = (   0.0000000   0.4735409   6.6668352  )

     number of k points=    25  Gaussian smearing, width (Ry)=  0.0100
                       cart. coord. in units 2pi/alat
        k(    1) = (   0.0000000   0.0000000   0.0000000), wk =   0.0312500
        k(    2) = (   0.0000000   0.1319845   0.0000000), wk =   0.0625000
        k(    3) = (   0.0000000   0.2639689   0.0000000), wk =   0.0625000
        k(    4) = (   0.0000000   0.3959534   0.0000000), wk =   0.0625000
        k(    5) = (   0.0000000  -0.5279378   0.0000000), wk =   0.0312500
        k(    6) = (   0.1250000   0.0000000   0.0000000), wk =   0.0625000
        k(    7) = (   0.1250000   0.1319845   0.0000000), wk =   0.1250000
        k(    8) = (   0.1250000   0.2639689   0.0000000), wk =   0.1250000
        k(    9) = (   0.1250000   0.3959534   0.0000000), wk =   0.1250000
        k(   10) = (   0.1250000  -0.5279378   0.0000000), wk =   0.0625000
        k(   11) = (   0.2500000   0.0000000   0.0000000), wk =   0.0625000
        k(   12) = (   0.2500000   0.1319845   0.0000000), wk =   0.1250000
        k(   13) = (   0.2500000   0.2639689   0.0000000), wk =   0.1250000
        k(   14) = (   0.2500000   0.3959534   0.0000000), wk =   0.1250000
        k(   15) = (   0.2500000  -0.5279378   0.0000000), wk =   0.0625000
        k(   16) = (   0.3750000   0.0000000   0.0000000), wk =   0.0625000
        k(   17) = (   0.3750000   0.1319845   0.0000000), wk =   0.1250000
        k(   18) = (   0.3750000   0.2639689   0.0000000), wk =   0.1250000
        k(   19) = (   0.3750000   0.3959534   0.0000000), wk =   0.1250000
        k(   20) = (   0.3750000  -0.5279378   0.0000000), wk =   0.0625000
        k(   21) = (  -0.5000000   0.0000000   0.0000000), wk =   0.0312500
        k(   22) = (  -0.5000000   0.1319845   0.0000000), wk =   0.0625000
        k(   23) = (  -0.5000000   0.2639689   0.0000000), wk =   0.0625000
        k(   24) = (  -0.5000000   0.3959534   0.0000000), wk =   0.0625000
        k(   25) = (  -0.5000000  -0.5279378   0.0000000), wk =   0.0312500

     Dense  grid:  1484037 G-vectors     FFT dimensions: (  64,  64, 750)

     Smooth grid:   285927 G-vectors     FFT dimensions: (  40,  36, 432)

     Estimated max dynamical RAM per process >     473.42 MB

     Estimated total dynamical RAM >       9.25 GB

     Initial potential from superposition of free atoms

     starting charge  226.84630, renormalised to  227.00000

     negative rho (up, down):  3.511E-03 0.000E+00
     Starting wfcs are  195 randomized atomic wfcs

     total cpu time spent up to now is       10.6 secs

     Self-consistent Calculation

     iteration #  1     ecut=    60.00 Ry     beta= 0.50
     Davidson diagonalization with overlap
     ethr =  1.00E-02,  avg # of iterations =  2.0

     negative rho (up, down):  5.173E-04 0.000E+00

     total cpu time spent up to now is       26.9 secs

     total energy              =   -1840.97309199 Ry
     Harris-Foulkes estimate   =   -1845.31324561 Ry
     estimated scf accuracy    <      17.60258423 Ry

     iteration #  2     ecut=    60.00 Ry     beta= 0.50
     Davidson diagonalization with overlap
     ethr =  7.75E-03,  avg # of iterations =  2.0

     negative rho (up, down):  2.874E-04 0.000E+00

     total cpu time spent up to now is       43.1 secs

     total energy              =   -1842.55969270 Ry
     Harris-Foulkes estimate   =   -1843.19727392 Ry
     estimated scf accuracy    <       7.03121891 Ry

     iteration #  3     ecut=    60.00 Ry     beta= 0.50
     Davidson diagonalization with overlap
     ethr =  3.10E-03,  avg # of iterations =  1.0

     negative rho (up, down):  2.638E-04 0.000E+00

     total cpu time spent up to now is       58.2 secs

     total energy              =   -1842.73927317 Ry
     Harris-Foulkes estimate   =   -1842.93827745 Ry
     estimated scf accuracy    <       4.51221611 Ry

     iteration #  4     ecut=    60.00 Ry     beta= 0.50
     Davidson diagonalization with overlap
     ethr =  1.99E-03,  avg # of iterations =  1.0

     negative rho (up, down):  2.523E-04 0.000E+00

     total cpu time spent up to now is       72.8 secs

     total energy              =   -1842.71239074 Ry
     Harris-Foulkes estimate   =   -1842.85277980 Ry
     estimated scf accuracy    <       1.47296581 Ry

     iteration #  5     ecut=    60.00 Ry     beta= 0.50
     Davidson diagonalization with overlap
     ethr =  6.49E-04,  avg # of iterations =  4.1

     negative rho (up, down):  2.485E-04 0.000E+00

     total cpu time spent up to now is       91.2 secs

     total energy              =   -1842.74585312 Ry
     Harris-Foulkes estimate   =   -1842.77316295 Ry
     estimated scf accuracy    <       2.14196302 Ry

     iteration #  6     ecut=    60.00 Ry     beta= 0.50
     Davidson diagonalization with overlap
     ethr =  6.49E-04,  avg # of iterations =  1.4

     negative rho (up, down):  2.316E-04 0.000E+00

     total cpu time spent up to now is      106.3 secs

     total energy              =   -1842.67807742 Ry
     Harris-Foulkes estimate   =   -1842.75762312 Ry
     estimated scf accuracy    <       1.47981967 Ry

     iteration #  7     ecut=    60.00 Ry     beta= 0.50
     Davidson diagonalization with overlap
     ethr =  6.49E-04,  avg # of iterations =  3.6

     negative rho (up, down):  2.243E-04 0.000E+00

     total cpu time spent up to now is      124.2 secs

     total energy              =   -1842.68226394 Ry
     Harris-Foulkes estimate   =   -1842.70277557 Ry
     estimated scf accuracy    <       1.55617206 Ry

     iteration #  8     ecut=    60.00 Ry     beta= 0.50
     Davidson diagonalization with overlap
     ethr =  6.49E-04,  avg # of iterations =  4.5

     negative rho (up, down):  2.197E-04 0.000E+00

     total cpu time spent up to now is      143.2 secs

     total energy              =   -1842.67455568 Ry
     Harris-Foulkes estimate   =   -1842.69647486 Ry
     estimated scf accuracy    <       0.70955598 Ry

     iteration #  9     ecut=    60.00 Ry     beta= 0.50
     Davidson diagonalization with overlap
     ethr =  3.13E-04,  avg # of iterations =  3.6

     negative rho (up, down):  2.197E-04 0.000E+00

     total cpu time spent up to now is      161.1 secs

     total energy              =   -1842.67553760 Ry
     Harris-Foulkes estimate   =   -1842.68370627 Ry
     estimated scf accuracy    <       0.21803593 Ry

     iteration # 10     ecut=    60.00 Ry     beta= 0.50
     Davidson diagonalization with overlap
     ethr =  9.61E-05,  avg # of iterations =  4.5

     negative rho (up, down):  2.191E-04 0.000E+00

     total cpu time spent up to now is      179.8 secs

     total energy              =   -1842.67247488 Ry
     Harris-Foulkes estimate   =   -1842.67889882 Ry
     estimated scf accuracy    <       0.11613574 Ry

     iteration # 11     ecut=    60.00 Ry     beta= 0.50
     Davidson diagonalization with overlap
     c_bands:  1 eigenvalues not converged
     ethr =  5.12E-05,  avg # of iterations =  4.4

     negative rho (up, down):  2.178E-04 0.000E+00

     total cpu time spent up to now is      198.0 secs

     total energy              =   -1842.67348480 Ry
     Harris-Foulkes estimate   =   -1842.67502125 Ry
     estimated scf accuracy    <       0.03469260 Ry

     iteration # 12     ecut=    60.00 Ry     beta= 0.50
     Davidson diagonalization with overlap
     ethr =  1.53E-05,  avg # of iterations =  8.7

     negative rho (up, down):  2.176E-04 0.000E+00

     total cpu time spent up to now is      221.7 secs

     total energy              =   -1842.67330202 Ry
     Harris-Foulkes estimate   =   -1842.67400863 Ry
     estimated scf accuracy    <       0.01801999 Ry

     iteration # 13     ecut=    60.00 Ry     beta= 0.50
     Davidson diagonalization with overlap
     c_bands:  1 eigenvalues not converged
     ethr =  7.94E-06,  avg # of iterations =  2.9

     negative rho (up, down):  2.173E-04 0.000E+00

     total cpu time spent up to now is      238.1 secs

     total energy              =   -1842.67291220 Ry
     Harris-Foulkes estimate   =   -1842.67356341 Ry
     estimated scf accuracy    <       0.04043813 Ry

     iteration # 14     ecut=    60.00 Ry     beta= 0.50
     Davidson diagonalization with overlap
     ethr =  7.94E-06,  avg # of iterations =  1.2

     negative rho (up, down):  2.186E-04 0.000E+00

     total cpu time spent up to now is      252.7 secs

     total energy              =   -1842.67255688 Ry
     Harris-Foulkes estimate   =   -1842.67305187 Ry
     estimated scf accuracy    <       0.04292972 Ry

     iteration # 15     ecut=    60.00 Ry     beta= 0.50
     Davidson diagonalization with overlap
     ethr =  7.94E-06,  avg # of iterations =  1.6

     negative rho (up, down):  2.196E-04 0.000E+00

     total cpu time spent up to now is      267.9 secs

     total energy              =   -1842.67189942 Ry
     Harris-Foulkes estimate   =   -1842.67267468 Ry
     estimated scf accuracy    <       0.04799272 Ry

     iteration # 16     ecut=    60.00 Ry     beta= 0.50
     Davidson diagonalization with overlap
     ethr =  7.94E-06,  avg # of iterations =  2.3

     negative rho (up, down):  2.965E-04 0.000E+00

     total cpu time spent up to now is      283.9 secs

     total energy              =   -1842.67051150 Ry
     Harris-Foulkes estimate   =   -1842.67201269 Ry
     estimated scf accuracy    <       0.02270822 Ry

     iteration # 17     ecut=    60.00 Ry     beta= 0.50
     Davidson diagonalization with overlap
     ethr =  7.94E-06,  avg # of iterations =  4.8

     negative rho (up, down):  3.909E-04 0.000E+00

     total cpu time spent up to now is      303.0 secs

     total energy              =   -1842.67010851 Ry
     Harris-Foulkes estimate   =   -1842.67065609 Ry
     estimated scf accuracy    <       0.01267681 Ry

     iteration # 18     ecut=    60.00 Ry     beta= 0.50
     Davidson diagonalization with overlap
     ethr =  5.58E-06,  avg # of iterations =  6.1

     negative rho (up, down):  1.521E-03 0.000E+00

     total cpu time spent up to now is      323.4 secs

     total energy              =   -1842.66903088 Ry
     Harris-Foulkes estimate   =   -1842.67016169 Ry
     estimated scf accuracy    <       0.00936832 Ry

     iteration # 19     ecut=    60.00 Ry     beta= 0.50
     Davidson diagonalization with overlap
     ethr =  4.13E-06,  avg # of iterations =  8.1

     negative rho (up, down):  5.079E-03 0.000E+00

     total cpu time spent up to now is      347.2 secs

     total energy              =   -1842.66865232 Ry
     Harris-Foulkes estimate   =   -1842.66920981 Ry
     estimated scf accuracy    <       0.00254049 Ry

     iteration # 20     ecut=    60.00 Ry     beta= 0.50
     Davidson diagonalization with overlap
     c_bands:  1 eigenvalues not converged
     ethr =  1.12E-06,  avg # of iterations =  9.4

     negative rho (up, down):  2.380E-03 0.000E+00

     total cpu time spent up to now is      373.5 secs

     total energy              =   -1842.66865949 Ry
     Harris-Foulkes estimate   =   -1842.66875321 Ry
     estimated scf accuracy    <       0.00438128 Ry

     iteration # 21     ecut=    60.00 Ry     beta= 0.50
     Davidson diagonalization with overlap
     ethr =  1.12E-06,  avg # of iterations =  3.8

     negative rho (up, down):  4.610E-04 0.000E+00

     total cpu time spent up to now is      391.7 secs

     total energy              =   -1842.66865009 Ry
     Harris-Foulkes estimate   =   -1842.66868549 Ry
     estimated scf accuracy    <       0.00133577 Ry

     iteration # 22     ecut=    60.00 Ry     beta= 0.50
     Davidson diagonalization with overlap
     c_bands:  1 eigenvalues not converged
     ethr =  5.88E-07,  avg # of iterations =  4.9

     negative rho (up, down):  1.040E-03 0.000E+00

     total cpu time spent up to now is      410.9 secs

     total energy              =   -1842.66869393 Ry
     Harris-Foulkes estimate   =   -1842.66868608 Ry
     estimated scf accuracy    <       0.00054262 Ry

     iteration # 23     ecut=    60.00 Ry     beta= 0.50
     Davidson diagonalization with overlap
     ethr =  2.39E-07,  avg # of iterations =  1.8

     negative rho (up, down):  1.018E-03 0.000E+00

     total cpu time spent up to now is      426.3 secs

     total energy              =   -1842.66870097 Ry
     Harris-Foulkes estimate   =   -1842.66871005 Ry
     estimated scf accuracy    <       0.00050353 Ry

     iteration # 24     ecut=    60.00 Ry     beta= 0.50
     Davidson diagonalization with overlap
     ethr =  2.22E-07,  avg # of iterations =  3.6

     negative rho (up, down):  1.290E-03 0.000E+00

     total cpu time spent up to now is      444.3 secs

     total energy              =   -1842.66871545 Ry
     Harris-Foulkes estimate   =   -1842.66871003 Ry
     estimated scf accuracy    <       0.00005890 Ry

     iteration # 25     ecut=    60.00 Ry     beta= 0.50
     Davidson diagonalization with overlap
     ethr =  2.59E-08,  avg # of iterations =  2.2

     negative rho (up, down):  1.370E-03 0.000E+00

     total cpu time spent up to now is      460.3 secs

     total energy              =   -1842.66871659 Ry
     Harris-Foulkes estimate   =   -1842.66871748 Ry
     estimated scf accuracy    <       0.00004544 Ry

     iteration # 26     ecut=    60.00 Ry     beta= 0.50
     Davidson diagonalization with overlap
     ethr =  2.00E-08,  avg # of iterations =  1.1

     negative rho (up, down):  1.364E-03 0.000E+00

     total cpu time spent up to now is      475.0 secs

     total energy              =   -1842.66871730 Ry
     Harris-Foulkes estimate   =   -1842.66871779 Ry
     estimated scf accuracy    <       0.00002592 Ry

     iteration # 27     ecut=    60.00 Ry     beta= 0.50
     Davidson diagonalization with overlap
     ethr =  1.14E-08,  avg # of iterations =  1.4

     negative rho (up, down):  1.457E-03 0.000E+00

     total cpu time spent up to now is      490.1 secs

     total energy              =   -1842.66871732 Ry
     Harris-Foulkes estimate   =   -1842.66871782 Ry
     estimated scf accuracy    <       0.00000472 Ry

     iteration # 28     ecut=    60.00 Ry     beta= 0.50
     Davidson diagonalization with overlap
     ethr =  2.08E-09,  avg # of iterations =  3.1

     negative rho (up, down):  1.473E-03 0.000E+00

     total cpu time spent up to now is      507.5 secs

     total energy              =   -1842.66871743 Ry
     Harris-Foulkes estimate   =   -1842.66871760 Ry
     estimated scf accuracy    <       0.00000313 Ry

     iteration # 29     ecut=    60.00 Ry     beta= 0.50
     Davidson diagonalization with overlap
     ethr =  1.38E-09,  avg # of iterations =  1.1

     negative rho (up, down):  1.531E-03 0.000E+00

     total cpu time spent up to now is      522.2 secs

     total energy              =   -1842.66871739 Ry
     Harris-Foulkes estimate   =   -1842.66871753 Ry
     estimated scf accuracy    <       0.00000104 Ry

     iteration # 30     ecut=    60.00 Ry     beta= 0.50
     Davidson diagonalization with overlap
     ethr =  4.60E-10,  avg # of iterations =  1.7

     negative rho (up, down):  1.494E-03 0.000E+00

     total cpu time spent up to now is      537.3 secs

     total energy              =   -1842.66871744 Ry
     Harris-Foulkes estimate   =   -1842.66871744 Ry
     estimated scf accuracy    <       0.00000029 Ry

     iteration # 31     ecut=    60.00 Ry     beta= 0.50
     Davidson diagonalization with overlap
     ethr =  1.27E-10,  avg # of iterations =  2.9

     negative rho (up, down):  1.463E-03 0.000E+00

     total cpu time spent up to now is      554.6 secs

     total energy              =   -1842.66871749 Ry
     Harris-Foulkes estimate   =   -1842.66871747 Ry
     estimated scf accuracy    <       0.00000024 Ry

     iteration # 32     ecut=    60.00 Ry     beta= 0.50
     Davidson diagonalization with overlap
     ethr =  1.04E-10,  avg # of iterations =  1.0

     negative rho (up, down):  1.456E-03 0.000E+00

     total cpu time spent up to now is      569.5 secs

     total energy              =   -1842.66871751 Ry
     Harris-Foulkes estimate   =   -1842.66871750 Ry
     estimated scf accuracy    <       0.00000005 Ry

     iteration # 33     ecut=    60.00 Ry     beta= 0.50
     Davidson diagonalization with overlap
     ethr =  2.10E-11,  avg # of iterations =  2.8

     negative rho (up, down):  1.457E-03 0.000E+00

     total cpu time spent up to now is      586.5 secs

     total energy              =   -1842.66871751 Ry
     Harris-Foulkes estimate   =   -1842.66871751 Ry
     estimated scf accuracy    <       0.00000002 Ry

     iteration # 34     ecut=    60.00 Ry     beta= 0.50
     Davidson diagonalization with overlap
     ethr =  9.21E-12,  avg # of iterations =  1.9

     negative rho (up, down):  1.468E-03 0.000E+00

     total cpu time spent up to now is      601.9 secs

     total energy              =   -1842.66871749 Ry
     Harris-Foulkes estimate   =   -1842.66871751 Ry
     estimated scf accuracy    <       0.00000004 Ry

     iteration # 35     ecut=    60.00 Ry     beta= 0.50
     Davidson diagonalization with overlap
     ethr =  9.21E-12,  avg # of iterations =  1.8

     negative rho (up, down):  1.472E-03 0.000E+00

     total cpu time spent up to now is      616.8 secs

     End of self-consistent calculation

          k = 0.0000 0.0000 0.0000 ( 35809 PWs)   bands (ev):

   -39.0394 -35.6832 -22.9829 -22.8869 -22.7159 -22.6292 -20.1264 -20.0261
   -20.0082 -17.1875 -16.7345 -16.7230 -15.9382 -15.3978 -14.9980 -14.9585
   -14.7898 -14.7673 -14.7214 -14.6687 -14.2772 -14.2489 -14.0780 -13.9205
   -13.8875 -13.7521 -13.6723  -8.2030  -8.0182  -8.0034  -7.9807  -7.8533
    -7.8285  -7.8105  -7.7877  -7.7867  -7.6741  -7.6291  -7.5081  -2.5223
    -2.4489  -2.4259  -2.4032  -2.3893  -2.0166  -1.9257  -1.8635  -1.7643
    -1.6355  -1.5805  -1.5281  -1.3160  -1.2890  -1.2177  -1.1816  -1.1545
    -0.9639  -0.8687  -0.7283  -0.6404  -0.5543  -0.5143  -0.4722  -0.4082
    -0.4066  -0.3604  -0.3473  -0.3419  -0.3113  -0.3088  -0.2843  -0.2705
    -0.2680  -0.2127  -0.1328  -0.1258  -0.0805  -0.0168   0.0031   0.0033
     0.0248   0.0683   0.0774   0.1111   0.1605   0.2108   0.2270   0.2834
     0.3008   0.6130   0.6213   0.7013   0.7862   0.7931   0.8297   0.8628
     1.0062   1.0154   1.0876   1.2531   1.2684   1.3628   1.4249   1.4336
     1.4652   1.4980   1.5984   1.6027   1.7298   1.9284   1.9484   1.9631
     2.0327   2.0547   2.1533   2.1690   2.1867   2.4047   2.4402   2.6552
     4.9467   5.1208   5.2346   5.6524   5.8010   6.2423   6.6679   6.6970
     6.8342   6.9767   7.0111   7.0482   7.1210   7.7074   7.9044   8.0390
     8.2339

          k = 0.0000 0.1320 0.0000 ( 35759 PWs)   bands (ev):

   -39.0379 -35.6814 -22.9576 -22.8602 -22.6890 -22.6037 -20.1238 -20.0479
   -20.0065 -17.1514 -16.7956 -16.7321 -15.8831 -15.3091 -14.9513 -14.9042
   -14.8209 -14.7725 -14.7105 -14.6413 -14.2867 -14.2548 -14.0833 -13.9669
   -13.9358 -13.8083 -13.7047  -8.2011  -8.0178  -7.9593  -7.9329  -7.9029
    -7.8300  -7.8061  -7.7864  -7.7800  -7.6697  -7.6290  -7.5561  -2.8045
    -2.4848  -2.4201  -2.4129  -2.4080  -2.2629  -2.1539  -1.9340  -1.9141
    -1.7627  -1.7440  -1.7402  -1.7096  -1.6178  -1.4491  -1.2551  -1.1882
    -1.1190  -0.8139  -0.7856  -0.7671  -0.7244  -0.6517  -0.6053  -0.6030
    -0.5566  -0.5349  -0.4508  -0.4354  -0.3715  -0.3087  -0.2606  -0.2436
    -0.2195  -0.1829  -0.1114  -0.0932  -0.0894  -0.0626  -0.0341  -0.0239
     0.0267   0.0555   0.0756   0.0776   0.1806   0.1962   0.2728   0.2893
     0.4625   0.5800   0.7263   0.8091   0.8420   0.9592   0.9834   1.0425
     1.0503   1.0907   1.1410   1.2656   1.3243   1.3531   1.4111   1.4236
     1.4819   1.5101   1.5548   1.5840   1.7167   1.8177   1.8710   1.9288
     1.9439   2.0651   2.1191   2.3424   2.6359   2.7120   2.7624   2.8665
     5.1329   5.4973   5.5612   5.7530   5.9967   6.4673   6.5210   6.9716
     6.9805   7.0443   7.1376   7.3570   7.4253   7.9541   8.0805   8.2324
     8.4169

          k = 0.0000 0.2640 0.0000 ( 35649 PWs)   bands (ev):

   -39.0343 -35.6770 -22.8952 -22.7943 -22.6226 -22.5409 -20.1419 -20.0753
   -20.0022 -17.0593 -16.9499 -16.7265 -15.7326 -15.1093 -14.9217 -14.8980
   -14.8214 -14.7603 -14.6451 -14.5795 -14.2740 -14.2337 -14.1230 -14.1010
   -14.0406 -13.9136 -13.7953  -8.1969  -8.0174  -8.0064  -7.9204  -7.8489
    -7.8124  -7.8013  -7.7872  -7.7561  -7.6597  -7.6577  -7.5156  -3.2699
    -2.9307  -2.8308  -2.6994  -2.6771  -2.5243  -2.4621  -2.3769  -2.3636
    -2.3375  -2.2856  -1.9356  -1.6901  -1.6324  -1.5615  -1.5180  -1.3587
    -1.2074  -1.1749  -1.0703  -1.0316  -0.9790  -0.9031  -0.8763  -0.8481
    -0.8361  -0.7476  -0.6450  -0.6333  -0.6170  -0.5930  -0.5773  -0.5259
    -0.4149  -0.2731  -0.1541  -0.1023  -0.0831  -0.0338  -0.0200  -0.0015
     0.0623   0.1119   0.1164   0.2456   0.2881   0.5211   0.6018   0.6803
     0.7784   0.8334   0.8495   0.8758   1.0215   1.0522   1.0682   1.0775
     1.0999   1.1260   1.1368   1.2099   1.2631   1.3350   1.4824   1.5309
     1.5406   1.5678   1.6710   1.7561   1.8340   1.8618   1.8778   1.9011
     2.0483   2.1115   2.1205   2.4628   2.9441   3.0108   3.1477   3.5902
     5.3960   5.7912   6.2188   6.3913   6.4388   6.6183   7.1211   7.1236
     7.2129   7.7924   7.9237   8.0266   8.2291   8.4677   8.5845   8.6716
     8.7309

          k = 0.0000 0.3960 0.0000 ( 35582 PWs)   bands (ev):

   -39.0308 -35.6726 -22.8309 -22.7262 -22.5538 -22.4761 -20.1930 -20.0683
   -19.9979 -17.0861 -16.9577 -16.7208 -15.5250 -15.0907 -15.0302 -14.9625
   -14.7796 -14.6024 -14.5192 -14.4463 -14.2463 -14.2078 -14.1887 -14.1869
   -14.1705 -13.9855 -13.9388  -8.1902  -8.0982  -8.0173  -7.9986  -7.8360
    -7.7966  -7.7825  -7.7497  -7.7320  -7.6839  -7.5271  -7.3954  -3.6663
    -3.5315  -3.3845  -3.1701  -3.1562  -3.0912  -3.0401  -2.4676  -2.4324
    -2.4062  -2.1913  -2.0862  -1.9108  -1.7615  -1.6919  -1.6249  -1.4720
    -1.4117  -1.2810  -1.2379  -1.2321  -1.1866  -1.1715  -1.0917  -1.0815
    -0.9605  -0.9555  -0.9225  -0.9088  -0.8467  -0.8197  -0.8057  -0.5912
    -0.4337  -0.3929  -0.3567  -0.1858  -0.0662  -0.0145   0.0293   0.0437
     0.0623   0.0649   0.1093   0.3950   0.5892   0.6853   0.7513   0.7921
     0.8303   0.8677   0.8778   0.9158   0.9947   1.0398   1.0573   1.0875
     1.2050   1.2556   1.2566   1.3828   1.4790   1.4979   1.5222   1.6289
     1.6503   1.7001   1.7766   1.8576   1.8866   1.9613   2.0770   2.1548
     2.1687   2.2720   2.2992   2.3963   2.8383   2.9285   3.6325   4.1474
     5.2808   5.9800   6.0238   7.1802   7.2045   7.3384   7.4000   7.4446
     8.1229   8.1636   8.5248   8.5898   8.6754   8.9512   8.9936   9.0028
     9.2363

          k = 0.0000-0.5279 0.0000 ( 35638 PWs)   bands (ev):

   -39.0293 -35.6708 -22.8036 -22.6972 -22.5246 -22.4487 -20.2166 -20.0627
   -19.9961 -17.1383 -16.9127 -16.7185 -15.3199 -15.2827 -15.0724 -15.0081
   -14.6653 -14.5935 -14.3714 -14.3639 -14.2779 -14.2766 -14.2240 -14.1682
   -14.1358 -14.0722 -14.0231  -8.1826  -8.1378  -8.0282  -8.0169  -7.8643
    -7.7908  -7.7875  -7.7823  -7.6814  -7.6280  -7.4702  -7.3433  -3.8538
    -3.7587  -3.5632  -3.3731  -3.3341  -3.3119  -3.2605  -2.4837  -2.4499
    -2.4189  -2.3080  -2.0385  -1.9016  -1.8866  -1.7528  -1.6837  -1.5919
    -1.4168  -1.3682  -1.2966  -1.2954  -1.2437  -1.2049  -1.1901  -1.1725
    -1.0784  -1.0632  -1.0363  -0.9330  -0.9213  -0.9052  -0.8819  -0.6124
    -0.4563  -0.4192  -0.3991  -0.2098  -0.0605  -0.0079   0.0220   0.0365
     0.0733   0.0785   0.1174   0.3256   0.5592   0.7172   0.7311   0.7601
     0.7854   0.8705   0.9228   1.0050   1.0228   1.0701   1.1721   1.1872
     1.2156   1.2634   1.3267   1.3583   1.4536   1.6156   1.6410   1.7008
     1.8278   1.8308   1.9169   1.9233   1.9681   1.9843   2.0586   2.1273
     2.1954   2.3841   2.4336   2.4595   2.6608   2.7641   3.9205   4.3492
     5.0589   5.8920   6.1757   7.2020   7.4814   7.6469   7.7506   7.8322
     7.9502   8.2891   8.8071   8.8745   8.9097   9.0564   9.1689   9.1725
     9.2326

          k = 0.1250 0.0000 0.0000 ( 35737 PWs)   bands (ev):

   -39.0386 -35.6821 -22.9660 -22.8688 -22.6976 -22.6119 -20.1238 -20.0259
   -20.0251 -17.1541 -16.8147 -16.7217 -15.8913 -15.2955 -14.9828 -14.9702
   -14.8151 -14.8127 -14.7488 -14.6739 -14.2862 -14.2567 -14.0900 -13.9531
   -13.9326 -13.7811 -13.7023  -8.2343  -8.0440  -7.9537  -7.9189  -7.8408
    -7.8372  -7.8239  -7.7553  -7.7379  -7.6133  -7.5960  -7.4777  -2.6447
    -2.4870  -2.4684  -2.4190  -2.3899  -1.9753  -1.9679  -1.9108  -1.9034
    -1.8347  -1.5507  -1.5274  -1.5075  -1.3140  -1.2868  -1.2536  -1.1766
    -0.9951  -0.9255  -0.8043  -0.7767  -0.7168  -0.6188  -0.6098  -0.5018
    -0.4783  -0.4722  -0.4349  -0.4177  -0.3825  -0.3643  -0.2951  -0.2784
    -0.2772  -0.1996  -0.1703  -0.1489  -0.0757  -0.0040   0.0185   0.0249
     0.0968   0.0991   0.1237   0.1280   0.2179   0.2188   0.2781   0.2808
     0.3242   0.5870   0.6928   0.7282   0.7433   0.8011   0.8226   0.9120
     1.0895   1.1131   1.1181   1.2296   1.2701   1.3829   1.3861   1.4365
     1.4722   1.4775   1.6020   1.7522   1.8221   1.8607   1.8967   1.9982
     2.0700   2.0842   2.0954   2.1638   2.2183   2.4748   2.5091   2.7752
     5.0834   5.3012   5.3796   5.6397   5.9710   6.4152   6.6132   6.8025
     6.8826   7.0402   7.0775   7.2138   7.4250   7.8997   8.0518   8.1849
     8.4110

          k = 0.1250 0.1320 0.0000 ( 35712 PWs)   bands (ev):

   -39.0371 -35.6803 -22.9414 -22.8430 -22.6716 -22.5872 -20.1213 -20.0477
   -20.0231 -17.1190 -16.8178 -16.7848 -15.8377 -15.2142 -14.9326 -14.9264
   -14.8413 -14.8073 -14.7235 -14.6440 -14.2871 -14.2547 -14.0956 -13.9834
   -13.9777 -13.8281 -13.7319  -8.2274  -8.0633  -8.0550  -7.9811  -7.8886
    -7.8381  -7.7757  -7.7687  -7.7176  -7.7061  -7.5592  -7.4370  -2.8360
    -2.5458  -2.5210  -2.4437  -2.4049  -2.2490  -2.1329  -1.9473  -1.9108
    -1.8936  -1.8803  -1.7668  -1.7343  -1.7082  -1.5118  -1.4559  -1.2914
    -1.1404  -0.9664  -0.9033  -0.8932  -0.8201  -0.7862  -0.7614  -0.6430
    -0.6226  -0.6125  -0.5973  -0.5518  -0.3642  -0.3325  -0.3051  -0.2375
    -0.2196  -0.1960  -0.1506  -0.1212  -0.0889  -0.0790  -0.0578   0.0504
     0.0648   0.0888   0.1096   0.1269   0.1927   0.2088   0.3498   0.4215
     0.5717   0.6142   0.7570   0.8218   0.9311   0.9539   0.9896   1.0368
     1.1242   1.1672   1.1860   1.1944   1.2230   1.3493   1.4008   1.4950
     1.5122   1.5360   1.5562   1.5658   1.6448   1.8185   1.8297   2.0185
     2.1725   2.2490   2.4488   2.5078   2.6902   2.7308   2.7721   2.9223
     5.2309   5.6398   5.6863   5.7226   6.1169   6.4386   6.6258   6.9109
     7.0341   7.1779   7.3334   7.5489   7.6560   8.1185   8.2252   8.3635
     8.5690

          k = 0.1250 0.2640 0.0000 ( 35637 PWs)   bands (ev):

   -39.0336 -35.6759 -22.8808 -22.7791 -22.6072 -22.5263 -20.1397 -20.0755
   -20.0178 -17.0298 -16.9468 -16.7974 -15.6919 -15.0400 -14.9297 -14.8940
   -14.8078 -14.7745 -14.6208 -14.5741 -14.2694 -14.2273 -14.1451 -14.0954
   -14.0445 -13.9222 -13.8137  -8.2135  -8.1851  -8.1323  -8.0181  -7.9727
    -7.8505  -7.8179  -7.7863  -7.7557  -7.7081  -7.5498  -7.4315  -3.3080
    -2.9535  -2.8191  -2.7082  -2.6862  -2.5248  -2.4829  -2.4567  -2.3762
    -2.3422  -2.3354  -1.9141  -1.8948  -1.8165  -1.6341  -1.5331  -1.5075
    -1.3872  -1.3547  -1.1498  -1.1129  -1.0779  -1.0005  -0.9601  -0.8829
    -0.8815  -0.8501  -0.7895  -0.7261  -0.6735  -0.6660  -0.5972  -0.5603
    -0.4211  -0.2572  -0.2034  -0.1788  -0.1652  -0.0422   0.0267   0.0650
     0.1009   0.2253   0.2915   0.3847   0.4071   0.6175   0.6562   0.7038
     0.7195   0.8697   0.9243   0.9697   1.0052   1.0614   1.1223   1.2046
     1.2183   1.2521   1.2879   1.2934   1.3133   1.4142   1.4203   1.4978
     1.5471   1.5633   1.5741   1.8332   1.8409   1.8901   1.8953   2.0640
     2.3399   2.4473   2.6571   2.6781   2.9548   3.0314   3.2192   3.5889
     5.4654   5.7680   6.1059   6.4523   6.5010   6.6102   7.0514   7.1178
     7.2908   7.9573   8.0747   8.2183   8.3992   8.5946   8.7118   8.7287
     8.8352

          k = 0.1250 0.3960 0.0000 ( 35638 PWs)   bands (ev):

   -39.0300 -35.6715 -22.8183 -22.7132 -22.5407 -22.4634 -20.1911 -20.0693
   -20.0122 -17.0810 -16.9311 -16.7888 -15.4915 -15.0824 -14.9953 -14.9344
   -14.7057 -14.5923 -14.5060 -14.4232 -14.2403 -14.2262 -14.1787 -14.1737
   -14.1681 -13.9799 -13.9406  -8.2515  -8.2005  -8.1627  -8.0297  -8.0008
    -7.9055  -7.8441  -7.7966  -7.7669  -7.7531  -7.5945  -7.4709  -3.7204
    -3.5257  -3.4251  -3.1851  -3.1850  -3.0828  -3.0361  -2.4759  -2.4460
    -2.4364  -2.3020  -2.0745  -1.8883  -1.7879  -1.7505  -1.7342  -1.7039
    -1.6264  -1.4244  -1.4039  -1.3033  -1.2728  -1.2119  -1.1487  -1.1456
    -1.0052  -0.9751  -0.9691  -0.9472  -0.9132  -0.8803  -0.8491  -0.8214
    -0.4715  -0.3241  -0.2117  -0.2054  -0.1522  -0.0603  -0.0023   0.1078
     0.1270   0.3286   0.3316   0.5555   0.5777   0.6918   0.8053   0.8716
     0.8880   0.9575   1.0018   1.0493   1.0734   1.1106   1.1335   1.2194
     1.2294   1.3413   1.3815   1.4317   1.5547   1.6235   1.6269   1.6456
     1.7264   1.7650   1.8464   1.9482   2.0733   2.1980   2.2391   2.2665
     2.3312   2.3953   2.5647   2.6128   2.8963   2.9859   3.6940   4.1319
     5.3353   5.8309   6.0519   6.9552   7.1421   7.2033   7.2734   7.4393
     8.0341   8.2430   8.5649   8.6300   8.6619   8.8156   9.0022   9.2634
     9.3193

          k = 0.1250-0.5279 0.0000 ( 35600 PWs)   bands (ev):

   -39.0285 -35.6697 -22.7919 -22.6852 -22.5125 -22.4368 -20.2147 -20.0642
   -20.0098 -17.1326 -16.8878 -16.7851 -15.2852 -15.2719 -15.0277 -14.9663
   -14.5927 -14.5544 -14.3704 -14.3420 -14.2727 -14.2567 -14.2499 -14.1691
   -14.1352 -14.0539 -14.0073  -8.2611  -8.1990  -8.1574  -8.0345  -7.9935
    -7.9145  -7.8686  -7.8022  -7.7877  -7.7691  -7.6285  -7.4963  -3.8936
    -3.7784  -3.6118  -3.3885  -3.3631  -3.3111  -3.2615  -2.4969  -2.4592
    -2.4462  -2.2423  -2.0537  -2.0371  -1.9187  -1.7729  -1.7512  -1.6925
    -1.6153  -1.5543  -1.4637  -1.3723  -1.3658  -1.2971  -1.2704  -1.1760
    -1.0718  -1.0451  -1.0420  -1.0359  -0.9462  -0.9459  -0.9342  -0.9216
    -0.4633  -0.3412  -0.2136  -0.1924  -0.1292  -0.1237   0.0084   0.1173
     0.1366   0.3324   0.3711   0.5472   0.5800   0.7113   0.8351   0.8597
     0.8911   0.9291   0.9534   1.0495   1.0635   1.1685   1.2514   1.3017
     1.3214   1.3698   1.3808   1.3888   1.6682   1.6822   1.8359   1.9114
     1.9348   1.9443   1.9738   2.1169   2.1796   2.2425   2.2505   2.3635
     2.3690   2.4045   2.4332   2.4583   2.7744   2.8526   3.9570   4.3395
     5.1171   5.7709   6.1835   7.0550   7.1656   7.4248   7.5129   7.7672
     7.9867   8.2231   8.3961   8.9546   8.9766   9.2095   9.2315   9.2810
     9.4276

          k = 0.2500 0.0000 0.0000 ( 35764 PWs)   bands (ev):

   -39.0367 -35.6795 -22.9245 -22.8245 -22.6527 -22.5697 -20.1244 -20.0610
   -20.0228 -17.0688 -16.9789 -16.7184 -15.7657 -15.0975 -15.0521 -14.9844
   -14.8960 -14.8893 -14.7303 -14.6977 -14.3003 -14.2659 -14.1412 -14.0763
   -13.9778 -13.8377 -13.7854  -8.2684  -8.0455  -7.8823  -7.8377  -7.8322
    -7.8284  -7.7511  -7.6746  -7.6642  -7.5297  -7.5136  -7.4021  -2.9863
    -2.6617  -2.5205  -2.4904  -2.3840  -2.3054  -2.2912  -2.0798  -1.9107
    -1.8429  -1.7450  -1.5682  -1.4479  -1.3636  -1.3106  -1.2830  -1.2429
    -1.1617  -1.1175  -1.0874  -1.0502  -0.9996  -0.8700  -0.8651  -0.7352
    -0.6910  -0.6265  -0.6169  -0.5723  -0.4359  -0.4093  -0.3872  -0.3465
    -0.3152  -0.2947  -0.2922  -0.2838  -0.1339  -0.0167   0.0053   0.0886
     0.1482   0.1621   0.2275   0.2296   0.3116   0.3492   0.3582   0.4432
     0.4690   0.5643   0.5667   0.7846   0.8571   0.9311   0.9359   0.9599
     0.9726   1.1840   1.2118   1.2302   1.3196   1.3217   1.3518   1.4424
     1.4777   1.5996   1.6173   1.7104   1.7892   1.7907   1.9380   1.9397
     2.1287   2.1332   2.1927   2.2573   2.3892   2.5826   2.6788   3.1220
     5.3666   5.3926   5.7586   5.8057   6.3362   6.4505   6.9409   6.9561
     7.1180   7.4586   7.5892   7.7149   7.9046   8.2369   8.4114   8.5384
     8.7293

          k = 0.2500 0.1320 0.0000 ( 35725 PWs)   bands (ev):

   -39.0352 -35.6777 -22.9016 -22.8007 -22.6287 -22.5467 -20.1217 -20.0643
   -20.0392 -17.0367 -16.9725 -16.7845 -15.7165 -15.0471 -14.9915 -14.9569
   -14.9024 -14.8455 -14.6795 -14.6623 -14.2862 -14.2511 -14.1378 -14.0814
   -14.0121 -13.8646 -13.8061  -8.2816  -8.1140  -8.0638  -7.9690  -7.9404
    -7.8828  -7.7538  -7.7279  -7.6890  -7.6409  -7.4820  -7.3686  -3.0754
    -2.7118  -2.6045  -2.5401  -2.5178  -2.2980  -2.2807  -2.1891  -2.0722
    -2.0538  -1.8676  -1.8535  -1.7592  -1.7248  -1.6947  -1.5184  -1.4324
    -1.4194  -1.2061  -1.1849  -1.1126  -1.0524  -0.9890  -0.9682  -0.8703
    -0.7784  -0.7217  -0.6637  -0.6482  -0.5601  -0.4346  -0.3931  -0.3120
    -0.2807  -0.1638  -0.1283  -0.1150  -0.0730  -0.0672  -0.0446   0.0191
     0.0903   0.1259   0.1353   0.2339   0.2674   0.4423   0.5079   0.5886
     0.6700   0.7769   0.8080   0.8266   0.8528   0.9669   1.0667   1.1069
     1.1152   1.1893   1.2567   1.2830   1.3365   1.3813   1.3972   1.4341
     1.4648   1.4922   1.6053   1.6380   1.6484   1.8756   1.9090   2.1858
     2.3689   2.5695   2.7254   2.7596   2.7688   2.8420   2.8945   3.2025
     5.4363   5.4751   6.0198   6.0658   6.2533   6.3955   6.9943   7.0888
     7.1054   7.7161   7.8440   7.9718   8.1642   8.4467   8.5367   8.6872
     8.8441

          k = 0.2500 0.2640 0.0000 ( 35681 PWs)   bands (ev):

   -39.0317 -35.6734 -22.8454 -22.7420 -22.5697 -22.4904 -20.1353 -20.0906
   -20.0395 -16.9724 -16.9484 -16.9210 -15.5838 -14.9646 -14.9577 -14.9013
   -14.8111 -14.7058 -14.5737 -14.5417 -14.2611 -14.2116 -14.1859 -14.0933
   -14.0540 -13.9340 -13.8631  -8.4003  -8.3342  -8.2250  -8.1751  -8.0409
    -8.0307  -7.8607  -7.7995  -7.7835  -7.7607  -7.6001  -7.4910  -3.4836
    -3.0905  -2.8434  -2.7615  -2.7445  -2.7258  -2.5381  -2.4430  -2.4091
    -2.3760  -2.3428  -2.2685  -2.2320  -2.0478  -1.9287  -1.7821  -1.6237
    -1.5472  -1.5175  -1.3646  -1.3623  -1.2058  -1.1495  -1.1070  -1.0231
    -0.9777  -0.8620  -0.8296  -0.7904  -0.7137  -0.6898  -0.6897  -0.6058
    -0.4976  -0.4475  -0.3648  -0.1286  -0.0048   0.0332   0.1457   0.2265
     0.2520   0.4159   0.4800   0.5528   0.6877   0.7064   0.7449   0.7659
     0.8627   0.8843   0.9091   1.0095   1.1377   1.1656   1.2842   1.3168
     1.3429   1.3596   1.4254   1.4467   1.5085   1.5204   1.5270   1.5762
     1.5956   1.6040   1.6863   1.7617   1.8363   1.8919   2.0090   2.2121
     2.8904   2.9382   2.9603   3.1750   3.3250   3.3681   3.4507   3.5897
     5.5051   5.6572   5.9677   6.4737   6.5625   6.6221   7.0670   7.1230
     7.4900   8.2486   8.3282   8.6034   8.6454   8.8000   8.9506   9.0006
     9.0786

          k = 0.2500 0.3960 0.0000 ( 35662 PWs)   bands (ev):

   -39.0281 -35.6690 -22.7876 -22.6816 -22.5089 -22.4325 -20.1865 -20.0883
   -20.0295 -17.0689 -16.9369 -16.8625 -15.4061 -15.0679 -14.9140 -14.8662
   -14.5868 -14.5371 -14.4697 -14.3659 -14.3108 -14.1937 -14.1619 -14.1415
   -14.1285 -13.9726 -13.9464  -8.5305  -8.4542  -8.2927  -8.2548  -8.1705
    -8.0811  -8.0571  -7.9747  -7.8840  -7.8215  -7.7801  -7.7054  -3.9282
    -3.5912  -3.4971  -3.2989  -3.2585  -3.0621  -3.0233  -2.7062  -2.5476
    -2.4701  -2.4211  -2.2963  -2.2370  -2.1798  -2.0023  -1.9121  -1.8527
    -1.7189  -1.6400  -1.5623  -1.5219  -1.3744  -1.3194  -1.2308  -1.1856
    -1.0949  -1.0671  -0.9684  -0.9007  -0.8948  -0.8666  -0.8205  -0.7471
    -0.6403  -0.5210  -0.4314  -0.0337   0.0411   0.1382   0.2121   0.3150
     0.3863   0.5930   0.6309   0.6782   0.8450   0.8820   0.9116   0.9521
     1.1485   1.1732   1.1882   1.2271   1.2782   1.2874   1.3898   1.4040
     1.4161   1.4810   1.5655   1.5684   1.6295   1.6793   1.7528   1.7861
     1.8114   1.8172   1.9077   1.9546   2.1607   2.1834   2.2438   2.2958
     2.7225   2.8050   3.1370   3.4048   3.5610   3.6040   3.8464   4.1238
     5.4396   5.5301   6.1123   6.3173   6.7701   6.8549   7.1421   7.4665
     7.6565   8.5684   8.7018   8.8068   8.8734   8.9356   9.1527   9.3606
     9.5407

          k = 0.2500-0.5279 0.0000 ( 35700 PWs)   bands (ev):

   -39.0267 -35.6672 -22.7632 -22.6560 -22.4832 -22.4080 -20.2101 -20.0852
   -20.0248 -17.1191 -16.9314 -16.8229 -15.2474 -15.1986 -14.9107 -14.8590
   -14.4599 -14.4598 -14.3672 -14.3217 -14.2877 -14.2633 -14.1796 -14.1636
   -14.1314 -14.0124 -13.9750  -8.5498  -8.4544  -8.2900  -8.2496  -8.2023
    -8.1818  -8.1691  -8.0409  -8.0082  -7.8391  -7.8123  -7.8096  -4.1079
    -3.8003  -3.7556  -3.4926  -3.4674  -3.2897  -3.2517  -2.6523  -2.5549
    -2.4872  -2.4845  -2.4055  -2.2013  -2.1185  -2.0617  -1.9643  -1.9621
    -1.7652  -1.6998  -1.6883  -1.5546  -1.3952  -1.3910  -1.3207  -1.2267
    -1.1638  -1.1300  -1.0404  -0.9650  -0.9426  -0.9114  -0.8223  -0.7648
    -0.6535  -0.5486  -0.4556  -0.0154   0.0839   0.1757   0.2247   0.3463
     0.4119   0.6557   0.6912   0.7460   0.9346   0.9840   0.9907   1.0818
     1.1031   1.1644   1.2071   1.2661   1.2789   1.3192   1.3589   1.4069
     1.5152   1.5680   1.6401   1.6532   1.8132   1.8145   1.8513   1.8962
     1.9437   1.9640   1.9800   2.0917   2.3364   2.3480   2.3532   2.4284
     2.5012   2.6016   3.1526   3.4249   3.5962   3.6275   4.0131   4.3718
     5.2500   5.5105   6.2176   6.2410   6.7348   6.8244   7.1663   7.6200
     7.9684   8.1290   8.6892   8.9293   9.0996   9.4086   9.4231   9.4307
     9.6755

          k = 0.3750 0.0000 0.0000 ( 35706 PWs)   bands (ev):

   -39.0348 -35.6769 -22.8821 -22.7791 -22.6066 -22.5264 -20.1464 -20.0738
   -20.0205 -17.1188 -16.9736 -16.7150 -15.6106 -15.1434 -15.1250 -15.0910
   -15.0078 -14.7498 -14.7004 -14.5973 -14.3134 -14.2632 -14.2603 -14.1704
   -14.0142 -13.8993 -13.8790  -8.2764  -8.0280  -7.8429  -7.8042  -7.7975
    -7.7674  -7.6754  -7.6115  -7.5902  -7.4825  -7.4274  -7.3233  -3.2895
    -2.9893  -2.8093  -2.7588  -2.4276  -2.3562  -2.3507  -2.2333  -1.8973
    -1.7611  -1.6786  -1.6001  -1.4936  -1.3923  -1.3845  -1.3619  -1.3390
    -1.3123  -1.2916  -1.2827  -1.2528  -1.1620  -1.1147  -0.9962  -0.9785
    -0.8713  -0.8266  -0.8030  -0.7747  -0.5776  -0.5005  -0.4528  -0.3865
    -0.3548  -0.3246  -0.3077  -0.2982  -0.0931  -0.0296  -0.0076   0.0646
     0.1006   0.1951   0.2363   0.3071   0.3309   0.3724   0.3756   0.3946
     0.4304   0.6336   0.6723   0.7560   0.8929   1.0109   1.0175   1.0750
     1.0878   1.1285   1.1324   1.2535   1.3754   1.3981   1.4085   1.5145
     1.5926   1.5971   1.6794   1.7109   1.7673   1.8195   1.9139   2.0312
     2.1155   2.1628   2.2406   2.3308   2.4945   2.7062   2.7774   3.5752
     4.8915   5.6444   6.3146   6.4083   6.4530   6.6597   7.1435   7.2508
     7.6732   7.8788   7.9033   7.9913   8.3700   8.4578   8.6386   8.7152
     8.9893

          k = 0.3750 0.1320 0.0000 ( 35739 PWs)   bands (ev):

   -39.0333 -35.6751 -22.8611 -22.7574 -22.5848 -22.5054 -20.1433 -20.0774
   -20.0367 -17.1102 -16.9445 -16.7795 -15.5661 -15.0939 -15.0672 -15.0446
   -14.9970 -14.7093 -14.6398 -14.5505 -14.2843 -14.2424 -14.2338 -14.1546
   -14.0492 -13.9060 -13.8881  -8.2942  -8.0855  -8.0058  -7.9307  -7.8919
    -7.8682  -7.7603  -7.7367  -7.6799  -7.6578  -7.5178  -7.4166  -3.3820
    -3.0510  -2.8535  -2.7925  -2.5469  -2.4264  -2.3447  -2.3408  -2.1430
    -1.9672  -1.8612  -1.7948  -1.7916  -1.7324  -1.7132  -1.6839  -1.5927
    -1.5595  -1.4093  -1.3036  -1.2965  -1.2012  -1.1661  -1.1052  -1.0464
    -0.8963  -0.8356  -0.7957  -0.7369  -0.6443  -0.5137  -0.4585  -0.3652
    -0.3240  -0.1600  -0.1554  -0.1055  -0.0792  -0.0542  -0.0192   0.0818
     0.1075   0.1292   0.1334   0.3417   0.3623   0.3788   0.5655   0.6812
     0.7044   0.7286   0.8109   0.8868   1.0201   1.0561   1.0667   1.1368
     1.1563   1.1820   1.2017   1.2630   1.3102   1.4306   1.4449   1.5154
     1.6105   1.6619   1.6969   1.7018   1.7661   1.8144   2.0672   2.1602
     2.5537   2.6488   2.7323   2.8103   2.8680   3.0400   3.0481   3.6473
     4.9445   5.7247   6.1163   6.5525   6.5599   6.6107   7.1270   7.2873
     7.7203   7.9688   8.0402   8.1290   8.4005   8.7223   8.8322   8.9124
     9.0494

          k = 0.3750 0.2640 0.0000 ( 35737 PWs)   bands (ev):

   -39.0298 -35.6708 -22.8094 -22.7041 -22.5313 -22.4538 -20.1385 -20.1190
   -20.0394 -17.0899 -16.9238 -16.8693 -15.4503 -15.0329 -14.9712 -14.9266
   -14.8474 -14.6137 -14.4908 -14.4322 -14.2441 -14.2113 -14.1955 -14.1115
   -14.0859 -13.9295 -13.9264  -8.4612  -8.3869  -8.2483  -8.2257  -8.0959
    -8.0655  -8.0338  -7.9431  -7.8708  -7.8176  -7.7475  -7.6899  -3.7600
    -3.3665  -3.0928  -2.9818  -2.8266  -2.7286  -2.5982  -2.4782  -2.4527
    -2.4285  -2.4086  -2.3481  -2.3431  -2.2994  -2.2943  -1.8760  -1.7493
    -1.6717  -1.5859  -1.4754  -1.3487  -1.2148  -1.1860  -1.1203  -1.0430
    -1.0024  -0.9647  -0.8841  -0.8654  -0.7486  -0.7409  -0.7264  -0.6914
    -0.5854  -0.4713  -0.4063  -0.0709   0.0707   0.1931   0.2048   0.3554
     0.4553   0.5772   0.5950   0.6150   0.7303   0.7918   0.8804   0.9125
     0.9628   0.9849   1.0244   1.0826   1.1350   1.2706   1.3106   1.3178
     1.3954   1.4995   1.5118   1.5384   1.5595   1.6098   1.6472   1.6669
     1.6715   1.7231   1.7350   1.8116   1.8922   1.9865   2.1461   2.1832
     2.8916   2.9591   3.3762   3.5549   3.6298   3.7418   3.7635   3.8868
     5.0746   5.7201   5.9775   6.2269   6.6028   6.6795   7.1387   7.3672
     7.5448   8.3088   8.3711   8.6444   8.7335   9.1078   9.1466   9.3119
     9.3634

          k = 0.3750 0.3960 0.0000 ( 35709 PWs)   bands (ev):

   -39.0263 -35.6664 -22.7564 -22.6494 -22.4765 -22.4010 -20.1817 -20.1258
   -20.0277 -17.0725 -17.0506 -16.7896 -15.3102 -15.0656 -14.8362 -14.7980
   -14.5862 -14.5202 -14.3319 -14.3251 -14.3074 -14.1770 -14.1509 -14.0875
   -14.0785 -13.9836 -13.9563  -8.7328  -8.6527  -8.4893  -8.4035  -8.3315
    -8.3177  -8.2732  -8.1634  -8.0680  -7.9901  -7.8463  -7.8319  -4.2231
    -3.8458  -3.5495  -3.4416  -3.4202  -3.0414  -3.0076  -2.8920  -2.7282
    -2.6077  -2.5909  -2.5718  -2.3761  -2.3452  -2.3019  -2.1869  -1.9443
    -1.7741  -1.7387  -1.5681  -1.3618  -1.3426  -1.3050  -1.2550  -1.2537
    -1.0785  -1.0760  -1.0559  -0.9643  -0.9234  -0.8944  -0.7955  -0.7851
    -0.7413  -0.4926  -0.4408   0.0594   0.1889   0.2836   0.3748   0.5371
     0.7457   0.8059   0.8722   0.9217   1.0124   1.0633   1.1313   1.1502
     1.1758   1.2573   1.3090   1.3871   1.4300   1.4601   1.4689   1.4849
     1.6063   1.6360   1.6580   1.7009   1.7883   1.8576   1.8883   1.9073
     1.9083   1.9334   1.9804   2.0569   2.0826   2.1167   2.3047   2.4990
     2.7129   2.7909   3.7588   3.9664   4.1431   4.2261   4.2811   4.3062
     5.2007   5.4585   5.7385   6.2298   6.2996   6.3955   7.2722   7.3154
     7.5959   8.8298   8.8775   8.9278   9.0010   9.1126   9.2699   9.3072
     9.3863

          k = 0.3750-0.5279 0.0000 ( 35732 PWs)   bands (ev):

   -39.0248 -35.6646 -22.7341 -22.6264 -22.4534 -22.3787 -20.2055 -20.1230
   -20.0223 -17.1058 -17.0599 -16.7542 -15.2250 -15.1077 -14.7749 -14.7404
   -14.4943 -14.3811 -14.3653 -14.2593 -14.2431 -14.2186 -14.1555 -14.1232
   -14.0917 -13.9768 -13.9625  -8.8290  -8.7347  -8.5686  -8.4871  -8.4781
    -8.4629  -8.3117  -8.2966  -8.1080  -8.0935  -7.8609  -7.8560  -4.4154
    -4.0523  -3.7819  -3.6791  -3.6297  -3.2667  -3.2341  -2.8922  -2.7467
    -2.7122  -2.6123  -2.5851  -2.3706  -2.3436  -2.2956  -2.2938  -2.0250
    -1.8317  -1.8027  -1.5924  -1.4298  -1.3975  -1.3670  -1.3309  -1.3214
    -1.1461  -1.1167  -1.0556  -1.0511  -0.9952  -0.9807  -0.8216  -0.7871
    -0.7080  -0.4782  -0.4364   0.0897   0.2146   0.3013   0.4581   0.6331
     0.8719   0.8860   0.9108   1.0286   1.0881   1.1673   1.2082   1.2586
     1.3127   1.3337   1.3811   1.4305   1.4522   1.5010   1.6149   1.6208
     1.6559   1.7095   1.7969   1.8681   1.9221   1.9432   1.9521   1.9943
     2.0400   2.0587   2.0994   2.1904   2.2730   2.2976   2.3809   2.4704
     2.5627   2.6611   3.7917   4.1075   4.2866   4.3753   4.4275   4.5513
     5.2449   5.3238   5.5412   6.1219   6.2077   6.3604   7.1855   7.3604
     8.1716   8.2624   8.8282   8.9812   9.0829   9.1947   9.2588   9.2978
     9.3365

          k =-0.5000 0.0000 0.0000 ( 35702 PWs)   bands (ev):

   -39.0340 -35.6758 -22.8643 -22.7599 -22.5872 -22.5081 -20.1611 -20.0732
   -20.0195 -17.1712 -16.9314 -16.7137 -15.5285 -15.1989 -15.1434 -15.1346
   -15.1013 -14.7689 -14.5177 -14.4949 -14.4176 -14.2965 -14.2560 -14.2215
   -14.0254 -13.9679 -13.8928  -8.2746  -8.0177  -7.8260  -7.7911  -7.7806
    -7.7443  -7.6431  -7.5944  -7.5541  -7.4698  -7.3904  -7.2896  -3.4097
    -3.1312  -2.9521  -2.8988  -2.4526  -2.3960  -2.3506  -2.1343  -1.9106
    -1.7499  -1.7136  -1.5715  -1.5445  -1.4887  -1.4742  -1.3533  -1.3441
    -1.3405  -1.3161  -1.3098  -1.2811  -1.2722  -1.2043  -1.0916  -1.0003
    -0.9590  -0.9101  -0.8889  -0.8610  -0.6441  -0.5363  -0.4928  -0.3953
    -0.3757  -0.3139  -0.3120  -0.2911  -0.1005  -0.0349  -0.0129   0.0667
     0.0672   0.1993   0.2252   0.3067   0.3319   0.3356   0.3676   0.3972
     0.4214   0.5985   0.7192   0.7328   0.9930   1.0236   1.0378   1.0612
     1.0809   1.1455   1.2702   1.2998   1.3339   1.3959   1.4787   1.4947
     1.5574   1.5962   1.6318   1.7731   1.8589   1.9403   1.9836   2.0464
     2.1148   2.1520   2.2289   2.3394   2.5045   2.7416   2.7896   3.9334
     4.4844   5.7630   6.2631   6.7892   7.1523   7.1807   7.2331   7.2560
     7.2650   7.4147   7.7468   8.1735   8.4489   8.7804   8.9592   9.0157
     9.3587

          k =-0.5000 0.1320 0.0000 ( 35734 PWs)   bands (ev):

   -39.0325 -35.6740 -22.8440 -22.7392 -22.5663 -22.4879 -20.1580 -20.0773
   -20.0352 -17.1620 -16.9039 -16.7773 -15.4847 -15.1415 -15.0947 -15.0875
   -15.0633 -14.7283 -14.4755 -14.4534 -14.3596 -14.2738 -14.2355 -14.1898
   -14.0629 -13.9654 -13.8951  -8.2894  -8.0567  -7.9127  -7.8737  -7.8688
    -7.8390  -7.8313  -7.7570  -7.7243  -7.5899  -7.5814  -7.5030  -3.5088
    -3.1994  -3.0043  -2.9385  -2.5073  -2.4576  -2.3954  -2.3398  -2.1115
    -1.9719  -1.9128  -1.8027  -1.7604  -1.7433  -1.7079  -1.6788  -1.6290
    -1.6108  -1.5240  -1.4025  -1.3031  -1.2274  -1.2062  -1.1944  -1.0650
    -0.9659  -0.9235  -0.7958  -0.7834  -0.6671  -0.5501  -0.4892  -0.3889
    -0.3410  -0.1703  -0.1694  -0.1090  -0.0669  -0.0422  -0.0190   0.0835
     0.1129   0.1291   0.2270   0.2485   0.4180   0.4476   0.4980   0.6281
     0.6690   0.7130   0.8325   0.9623   1.0576   1.0656   1.1401   1.1657
     1.1700   1.1779   1.1830   1.2414   1.3202   1.4556   1.4725   1.5351
     1.6008   1.6408   1.7355   1.7801   1.8231   1.9731   2.1346   2.1513
     2.6009   2.6556   2.7244   2.8198   2.8865   3.0743   3.0954   3.9918
     4.5521   5.8420   6.0579   6.5992   7.0284   7.1041   7.1371   7.5015
     7.5358   7.5828   7.9000   8.0792   8.3815   9.0428   9.1347   9.1987
     9.2655

          k =-0.5000 0.2640 0.0000 ( 35768 PWs)   bands (ev):

   -39.0290 -35.6697 -22.7943 -22.6882 -22.5152 -22.4384 -20.1505 -20.1221
   -20.0371 -17.1400 -16.9205 -16.8329 -15.3764 -15.0812 -14.9900 -14.9411
   -14.8637 -14.6314 -14.3740 -14.3482 -14.2624 -14.2221 -14.1887 -14.1298
   -14.1121 -13.9619 -13.9229  -8.4245  -8.3257  -8.2289  -8.2013  -8.1748
    -8.1548  -8.0505  -8.0259  -8.0065  -7.8660  -7.7993  -7.7749  -3.8887
    -3.5048  -3.2373  -3.1177  -2.8435  -2.7188  -2.6236  -2.4913  -2.4683
    -2.4545  -2.4283  -2.4211  -2.3557  -2.3460  -2.3118  -1.9991  -1.7737
    -1.7576  -1.5725  -1.5506  -1.2722  -1.2672  -1.0818  -1.0653  -1.0323
    -1.0240  -1.0028  -0.9670  -0.8955  -0.7710  -0.7536  -0.7405  -0.7198
    -0.5886  -0.4912  -0.4230  -0.0487   0.0896   0.2207   0.2813   0.4022
     0.5313   0.6334   0.6420   0.6760   0.7552   0.8080   0.8764   0.9928
     1.0662   1.0684   1.0915   1.0986   1.1221   1.1625   1.3203   1.3828
     1.3938   1.4726   1.4965   1.5815   1.6019   1.6358   1.6644   1.7332
     1.7337   1.8123   1.8167   1.8549   1.8638   1.9780   2.0869   2.3160
     2.8850   2.9496   3.4900   3.5775   3.7675   3.8800   3.8967   4.1699
     4.7542   5.6977   6.0012   6.1496   6.5985   6.6772   7.1469   7.4768
     7.7245   8.1380   8.3464   8.3654   8.9062   9.1476   9.4535   9.4586
     9.4908

          k =-0.5000 0.3960 0.0000 ( 35736 PWs)   bands (ev):

   -39.0255 -35.6654 -22.7434 -22.6360 -22.4629 -22.3878 -20.1795 -20.1431
   -20.0252 -17.1184 -17.0497 -16.7573 -15.2642 -15.0714 -14.8071 -14.7702
   -14.5937 -14.5389 -14.3170 -14.2837 -14.2367 -14.1736 -14.1425 -14.0698
   -14.0604 -13.9963 -13.9628  -8.7907  -8.7009  -8.5344  -8.4856  -8.4629
    -8.4398  -8.3135  -8.2956  -8.1225  -8.0843  -7.8567  -7.8458  -4.3603
    -3.9762  -3.6607  -3.5230  -3.4431  -3.0329  -3.0007  -2.9416  -2.7979
    -2.7056  -2.6647  -2.6395  -2.3923  -2.3564  -2.3406  -2.2844  -1.9805
    -1.8331  -1.8097  -1.4840  -1.4424  -1.3311  -1.2822  -1.2440  -1.2041
    -1.1428  -1.0570  -0.9974  -0.9914  -0.9838  -0.8808  -0.8699  -0.8308
    -0.7197  -0.4544  -0.4136   0.0875   0.2309   0.3108   0.4976   0.6288
     0.8560   0.8987   0.9626   1.0809   1.1070   1.1490   1.1809   1.2387
     1.2704   1.2957   1.3380   1.3604   1.4648   1.4910   1.5098   1.5287
     1.6235   1.6452   1.7170   1.7534   1.8754   1.8784   1.9455   1.9636
     1.9739   2.0021   2.0519   2.0915   2.0918   2.1655   2.2527   2.6211
     2.7017   2.7722   3.8170   4.1548   4.4047   4.4443   4.4983   4.5473
     4.9972   5.4309   5.5168   6.1035   6.1704   6.3316   7.1277   7.3840
     7.9926   8.3665   8.7870   8.8338   8.9475   9.0806   9.2895   9.3400
     9.3782

          k =-0.5000-0.5279 0.0000 ( 35804 PWs)   bands (ev):

   -39.0241 -35.6636 -22.7220 -22.6140 -22.4409 -22.3665 -20.2036 -20.1400
   -20.0196 -17.1096 -17.1003 -16.7238 -15.2165 -15.0686 -14.7093 -14.6871
   -14.5348 -14.3651 -14.3622 -14.2594 -14.1919 -14.1792 -14.1499 -14.1185
   -14.0294 -13.9844 -13.9647  -8.9425  -8.8469  -8.6797  -8.6029  -8.5896
    -8.5790  -8.4292  -8.3144  -8.2226  -8.1121  -7.8737  -7.8727  -4.5576
    -4.1844  -3.8667  -3.7285  -3.7061  -3.2572  -3.2259  -2.9567  -2.8303
    -2.7928  -2.7004  -2.6669  -2.3824  -2.3748  -2.3556  -2.3315  -2.0487
    -1.8863  -1.8625  -1.5082  -1.4681  -1.4439  -1.3681  -1.3486  -1.2665
    -1.1187  -1.0975  -1.0783  -1.0735  -1.0464  -0.9816  -0.9005  -0.8419
    -0.6769  -0.4256  -0.3912   0.1220   0.2574   0.3304   0.6076   0.7847
     0.9367   0.9912   1.0639   1.0915   1.2102   1.2456   1.2686   1.3105
     1.3408   1.3585   1.4276   1.5202   1.5370   1.5578   1.6443   1.7329
     1.7532   1.8171   1.8354   1.8747   1.9567   2.0178   2.0350   2.0370
     2.0790   2.1049   2.2431   2.2444   2.2709   2.3332   2.4283   2.4477
     2.5231   2.7736   3.8314   4.3399   4.5950   4.6513   4.7028   4.7589
     5.0923   5.2803   5.3184   5.8765   5.9621   6.4287   7.0218   7.5776
     8.3498   8.5406   8.6465   8.6683   8.9226   8.9397   9.0079   9.2135
     9.4087

     the Fermi energy is     2.4715 ev

!    total energy              =   -1842.66871748 Ry
     Harris-Foulkes estimate   =   -1842.66871749 Ry
     estimated scf accuracy    <          5.1E-09 Ry

     The total energy is the sum of the following terms:

     one-electron contribution =  -28906.98832450 Ry
     hartree contribution      =   14604.42130790 Ry
     xc contribution           =    -621.53664379 Ry
     ewald contribution        =   13081.44254293 Ry
     smearing contrib. (-TS)   =      -0.00760002 Ry

     convergence has been achieved in  35 iterations

     negative rho (up, down):  1.472E-03 0.000E+00

     Forces acting on atoms (cartesian axes, Ry/au):

     atom    1 type  4   force =     0.00000000    0.00000000   -0.00017769
     atom    2 type  3   force =     0.00000000    0.00000000    0.00037981
     atom    3 type  4   force =     0.00000000    0.00000000   -0.00076396
     atom    4 type  1   force =     0.00000000    0.00000000   -0.00030029
     atom    5 type  3   force =     0.00000000    0.00000000    0.00062710
     atom    6 type  4   force =     0.00000000    0.00000000    0.00000709
     atom    7 type  4   force =     0.00000000    0.00000000    0.00033885
     atom    8 type  2   force =     0.00000000    0.00000000   -0.00065110
     atom    9 type  4   force =     0.00000000    0.00000000    0.00031500
     atom   10 type  4   force =     0.00000000    0.00000000    0.00038741
     atom   11 type  3   force =     0.00000000    0.00000000    0.00023484
     atom   12 type  1   force =     0.00000000    0.00000000    0.00012172
     atom   13 type  4   force =     0.00000000    0.00000000    0.00342288
     atom   14 type  4   force =     0.00000000    0.00000000    0.00419032
     atom   15 type  3   force =     0.00000000    0.00000000   -0.00748286
     atom   16 type  4   force =     0.00000000    0.00000000    0.00685264
     atom   17 type  1   force =     0.00000000    0.00000000   -0.02061401
     atom   18 type  3   force =     0.00000000    0.00000000    0.00913899
     atom   19 type  4   force =     0.00000000    0.00000000    0.06228906
     atom   20 type  4   force =     0.00000000    0.00000000    0.06854797
     atom   21 type  2   force =     0.00000000    0.00000000   -0.09914143
     atom   22 type  4   force =     0.00000000    0.00000000    0.00186583
     atom   23 type  4   force =     0.00000000    0.00000000    0.00984133
     atom   24 type  3   force =     0.00000000    0.00000000   -0.01931572
     atom   25 type  1   force =     0.00000000    0.00000000   -0.01801726
     atom   26 type  4   force =     0.00000000    0.00000000   -0.00236057
     atom   27 type  3   force =     0.00000000    0.00000000    0.00190751
     atom   28 type  4   force =     0.00000000    0.00000000   -0.00164345

     Total force =     0.140927     Total SCF correction =     0.000374


     Computing stress (Cartesian axis) and pressure


     negative rho (up, down):  1.472E-03 0.000E+00
          total   stress  (Ry/bohr**3)                   (kbar)     P=       -6.14
  -0.00000636   0.00000000   0.00000000           -0.94        0.00        0.00
   0.00000000   0.00002107   0.00000000            0.00        3.10        0.00
   0.00000000   0.00000000  -0.00013996            0.00        0.00      -20.59

 
     init_run     :      9.05s CPU      9.54s WALL (       1 calls)
     electrons    :    571.40s CPU    606.25s WALL (       1 calls)
     forces       :      3.71s CPU      3.91s WALL (       1 calls)
     stress       :     23.20s CPU     23.71s WALL (       1 calls)

     Called by init_run:
     wfcinit      :      6.32s CPU      6.45s WALL (       1 calls)
     potinit      :      0.65s CPU      0.67s WALL (       1 calls)
     hinit0       :      1.19s CPU      1.21s WALL (       1 calls)

     Called by electrons:
     c_bands      :    447.85s CPU    463.20s WALL (      35 calls)
     sum_band     :     82.61s CPU     93.42s WALL (      35 calls)
     v_of_rho     :      2.87s CPU      2.90s WALL (      36 calls)
     newd         :     19.55s CPU     28.27s WALL (      36 calls)
     mix_rho      :     18.82s CPU     19.00s WALL (      35 calls)

     Called by c_bands:
     init_us_2    :      3.74s CPU      3.79s WALL (    1825 calls)
     cegterg      :    422.80s CPU    437.44s WALL (     875 calls)

     Called by sum_band:
     sum_band:bec :      0.26s CPU      0.27s WALL (     875 calls)
     addusdens    :     22.87s CPU     32.86s WALL (      35 calls)

     Called by *egterg:
     h_psi        :    211.29s CPU    220.39s WALL (    3711 calls)
     s_psi        :     22.20s CPU     22.53s WALL (    3711 calls)
     g_psi        :      0.67s CPU      0.68s WALL (    2811 calls)
     cdiaghg      :    110.72s CPU    111.21s WALL (    3686 calls)

     Called by h_psi:
     h_psi:calbec :     25.19s CPU     26.43s WALL (    3711 calls)
     vloc_psi     :    161.56s CPU    164.62s WALL (    3711 calls)
     add_vuspsi   :     23.27s CPU     25.86s WALL (    3711 calls)

     General routines
     calbec       :     38.69s CPU     39.98s WALL (    4711 calls)
     fft          :      2.44s CPU      2.46s WALL (     491 calls)
     ffts         :      9.26s CPU      9.35s WALL (   15649 calls)
     fftw         :    184.99s CPU    188.38s WALL (  619433 calls)
     interpolate  :      0.20s CPU      0.20s WALL (      36 calls)
 
     Parallel routines
     fft_scatt_xy :     23.87s CPU     24.29s WALL (  635573 calls)
     fft_scatt_yz :    115.75s CPU    117.89s WALL (  635573 calls)
 
     PWSCF        :  10m 8.40s CPU  10m44.46s WALL

 
   This run was terminated on:  21:42:40  21May2021            

=------------------------------------------------------------------------------=
   JOB DONE.
=------------------------------------------------------------------------------=
[1621647760.737598] [holy7c16405:253449:0]          mpool.c:43   UCX  WARN  object 0x37c3c40 was not returned to mpool ucp_requests
[1621647760.737613] [holy7c16405:253449:0]          mpool.c:43   UCX  WARN  object 0x37c3fc0 was not returned to mpool ucp_requests
[1621647760.737639] [holy7c10309:50922:0]          mpool.c:43   UCX  WARN  object 0x3fe81c0 was not returned to mpool ucp_requests
[1621647760.739349] [holy7c10403:236331:0]          mpool.c:43   UCX  WARN  object 0x3524c80 was not returned to mpool ucp_requests
[1621647760.739370] [holy7c10403:236331:0]          mpool.c:43   UCX  WARN  object 0x3525380 was not returned to mpool ucp_requests
[1621647760.740783] [holy7c16204:78260:0]          mpool.c:43   UCX  WARN  object 0x44e65c0 was not returned to mpool ucp_requests
[1621647760.738796] [holy7c10410:173755:0]          mpool.c:43   UCX  WARN  object 0x2ba2540 was not returned to mpool ucp_requests
[1621647760.740847] [holy7c16106:64476:0]          mpool.c:43   UCX  WARN  object 0x29ec7c0 was not returned to mpool ucp_requests
[1621647760.740863] [holy7c16106:64476:0]          mpool.c:43   UCX  WARN  object 0x29ecb40 was not returned to mpool ucp_requests
[1621647760.741225] [holy7c16204:78259:0]          mpool.c:43   UCX  WARN  object 0x2c3b500 was not returned to mpool ucp_requests
[1621647760.741240] [holy7c16204:78259:0]          mpool.c:43   UCX  WARN  object 0x2c3ba40 was not returned to mpool ucp_requests
