
     Program PWSCF v.6.5 starts on 21May2021 at 22:29:36 

     This program is part of the open-source Quantum ESPRESSO suite
     for quantum simulation of materials; please cite
         "P. Giannozzi et al., J. Phys.:Condens. Matter 21 395502 (2009);
         "P. Giannozzi et al., J. Phys.:Condens. Matter 29 465901 (2017);
          URL http://www.quantum-espresso.org", 
     in publications or presentations arising from this work. More details at
     http://www.quantum-espresso.org/quote

     Parallel version (MPI), running on    20 processors

     MPI processes distributed on     9 nodes
     R & G space division:  proc/nbgrp/npool/nimage =      20
     Reading input from CBCO_Y_cleave_2.25_sep.pwi
Warning: card &IONS ignored
Warning: card     ION_DYNAMICS = 'BFGS' ignored
Warning: card / ignored
Warning: card &CELL ignored
Warning: card     CELL_DYNAMICS = 'BFGS' ignored
Warning: card     PRESS_CONV_THR = 5 ignored
Warning: card / ignored

     Current dimensions of program PWSCF are:
     Max number of different atomic species (ntypx) = 10
     Max number of k-points (npk) =  40000
     Max angular momentum in pseudopotentials (lmaxx) =  3

     Subspace diagonalization in iterative solution of the eigenvalue problem:
     one sub-group per band group will be used
     scalapack distributed-memory algorithm (size of sub-group:  4*  4 procs)

     Message from routine setup:
     using ibrav=0 with symmetry is DISCOURAGED, use correct ibrav instead
 
     Parallelization info
     --------------------
     sticks:   dense  smooth     PW     G-vecs:    dense   smooth      PW
     Min         149      50     14                73779    14206    2222
     Max         150      51     15                73818    14229    2267
     Sum        2991    1007    289              1475989   284301   44707
 


     bravais-lattice index     =            0
     lattice parameter (alat)  =       7.4270  a.u.
     unit-cell volume          =    4524.4357 (a.u.)^3
     number of atoms/cell      =           28
     number of atomic types    =            4
     number of electrons       =       227.00
     number of Kohn-Sham states=          137
     kinetic-energy cutoff     =      60.0000  Ry
     charge density cutoff     =     720.0000  Ry
     convergence threshold     =      1.0E-08
     mixing beta               =       0.5000
     number of iterations used =           10  local-TF  mixing
     Exchange-correlation= SLA PW PBE PBE
                           (   1   4   3   4   0   0   0)

     celldm(1)=   7.427040  celldm(2)=   0.000000  celldm(3)=   0.000000
     celldm(4)=   0.000000  celldm(5)=   0.000000  celldm(6)=   0.000000

     crystal axes: (cart. coord. in units of alat)
               a(1) = (   1.000000   0.000000   0.000000 )  
               a(2) = (   0.000000   0.947081   0.000000 )  
               a(3) = (   0.000000   0.000000  11.660844 )  

     reciprocal axes: (cart. coord. in units 2 pi/alat)
               b(1) = (  1.000000  0.000000  0.000000 )  
               b(2) = (  0.000000  1.055876  0.000000 )  
               b(3) = (  0.000000  0.000000  0.085757 )  


     PseudoPot. # 1 for Ba read from file:
     ./pseudo/Ba.pbe-nsp-van.UPF
     MD5 check sum: 2b9c31dd849566dd297d80989662b7a0
     Pseudo is Ultrasoft + core correction, Zval = 10.0
     Generated by new atomic code, or converted to UPF format
     Using radial grid of  907 points,  6 beta functions with: 
                l(1) =   0
                l(2) =   0
                l(3) =   1
                l(4) =   1
                l(5) =   2
                l(6) =   2
     Q(r) pseudized with  6 coefficients,  rinner =    1.200   1.200   1.200
                                                       1.200   1.200

     PseudoPot. # 2 for Ca read from file:
     ./pseudo/Ca.pbe-nsp-van.UPF
     MD5 check sum: 6471098428ff4fa451746d08035ff179
     Pseudo is Ultrasoft + core correction, Zval = 10.0
     Generated by new atomic code, or converted to UPF format
     Using radial grid of  845 points,  6 beta functions with: 
                l(1) =   0
                l(2) =   0
                l(3) =   1
                l(4) =   1
                l(5) =   2
                l(6) =   2
     Q(r) pseudized with  6 coefficients,  rinner =    1.200   1.200   1.200
                                                       1.200   1.200

     PseudoPot. # 3 for Cu read from file:
     ./pseudo/Cu.pbe-n-van_ak.UPF
     MD5 check sum: 34e3282627ffb533726feb647e090d62
     Pseudo is Ultrasoft + core correction, Zval = 11.0
     Generated by new atomic code, or converted to UPF format
     Using radial grid of  867 points,  6 beta functions with: 
                l(1) =   0
                l(2) =   0
                l(3) =   1
                l(4) =   1
                l(5) =   2
                l(6) =   2
     Q(r) pseudized with  8 coefficients,  rinner =    1.400   1.400   1.400
                                                       1.400   1.400

     PseudoPot. # 4 for O  read from file:
     ./pseudo/O.pbe-van_ak.UPF
     MD5 check sum: 783ce7fe4c79b6a4916957118fed0856
     Pseudo is Ultrasoft, Zval =  6.0
     Generated by new atomic code, or converted to UPF format
     Using radial grid of  737 points,  4 beta functions with: 
                l(1) =   0
                l(2) =   0
                l(3) =   1
                l(4) =   1
     Q(r) pseudized with  8 coefficients,  rinner =    0.800   0.800   0.800


     atomic species   valence    mass     pseudopotential
        Ba            10.00   137.32700     Ba( 1.00)
        Ca            10.00    40.07800     Ca( 1.00)
        Cu            11.00    63.54600     Cu( 1.00)
        O              6.00    15.99900     O ( 1.00)

      4 Sym. Ops. (no inversion) found



   Cartesian axes

     site n.     atom                  positions (alat units)
         1           O   tau(   1) = (   0.0000000   0.4735409  -0.0469745  )
         2           Cu  tau(   2) = (   0.0000000   0.0000000   0.0264565  )
         3           O   tau(   3) = (   0.0000000   0.0000000   0.5030914  )
         4           Ba  tau(   4) = (   0.5000000   0.4735409   0.5690292  )
         5           Cu  tau(   5) = (   0.0000000   0.0000000   1.0374254  )
         6           O   tau(   6) = (   0.5000000   0.0000000   1.0768099  )
         7           O   tau(   7) = (   0.0000000   0.4735409   1.1116985  )
         8           Ca  tau(   8) = (   0.5000000   0.4735409   1.4976260  )
         9           O   tau(   9) = (   0.0000000   0.4735409   1.8667529  )
        10           O   tau(  10) = (   0.5000000   0.0000000   1.9044124  )
        11           Cu  tau(  11) = (   0.0000000   0.0000000   1.9512546  )
        12           Ba  tau(  12) = (   0.5000000   0.4735409   2.4295764  )
        13           O   tau(  13) = (   0.0000000   0.0000000   2.5115362  )
        14           O   tau(  14) = (   0.0000000   0.4735409   2.9918528  )
        15           Cu  tau(  15) = (   0.0000000   0.0000000   2.9919088  )
        16           O   tau(  16) = (   0.0000000   0.0000000   3.4722686  )
        17           Ba  tau(  17) = (   0.5000000   0.4735409   3.5542208  )
        18           Cu  tau(  18) = (   0.0000000   0.0000000   4.0325248  )
        19           O   tau(  19) = (   0.5000000   0.0000000   4.0793669  )
        20           O   tau(  20) = (   0.0000000   0.4735409   4.1170213  )
        21           Ca  tau(  21) = (   0.5000000   0.4735409   4.4861584  )
        22           O   tau(  22) = (   0.0000000   0.4735409   5.4445704  )
        23           O   tau(  23) = (   0.5000000   0.0000000   5.4794590  )
        24           Cu  tau(  24) = (   0.0000000   0.0000000   5.5188461  )
        25           Ba  tau(  25) = (   0.5000000   0.4735409   5.9872397  )
        26           O   tau(  26) = (   0.0000000   0.0000000   6.0531673  )
        27           Cu  tau(  27) = (   0.0000000   0.0000000   6.5298073  )
        28           O   tau(  28) = (   0.0000000   0.4735409   6.6032256  )

     number of k points=    25  Gaussian smearing, width (Ry)=  0.0100
                       cart. coord. in units 2pi/alat
        k(    1) = (   0.0000000   0.0000000   0.0000000), wk =   0.0312500
        k(    2) = (   0.0000000   0.1319845   0.0000000), wk =   0.0625000
        k(    3) = (   0.0000000   0.2639689   0.0000000), wk =   0.0625000
        k(    4) = (   0.0000000   0.3959534   0.0000000), wk =   0.0625000
        k(    5) = (   0.0000000  -0.5279378   0.0000000), wk =   0.0312500
        k(    6) = (   0.1250000   0.0000000   0.0000000), wk =   0.0625000
        k(    7) = (   0.1250000   0.1319845   0.0000000), wk =   0.1250000
        k(    8) = (   0.1250000   0.2639689   0.0000000), wk =   0.1250000
        k(    9) = (   0.1250000   0.3959534   0.0000000), wk =   0.1250000
        k(   10) = (   0.1250000  -0.5279378   0.0000000), wk =   0.0625000
        k(   11) = (   0.2500000   0.0000000   0.0000000), wk =   0.0625000
        k(   12) = (   0.2500000   0.1319845   0.0000000), wk =   0.1250000
        k(   13) = (   0.2500000   0.2639689   0.0000000), wk =   0.1250000
        k(   14) = (   0.2500000   0.3959534   0.0000000), wk =   0.1250000
        k(   15) = (   0.2500000  -0.5279378   0.0000000), wk =   0.0625000
        k(   16) = (   0.3750000   0.0000000   0.0000000), wk =   0.0625000
        k(   17) = (   0.3750000   0.1319845   0.0000000), wk =   0.1250000
        k(   18) = (   0.3750000   0.2639689   0.0000000), wk =   0.1250000
        k(   19) = (   0.3750000   0.3959534   0.0000000), wk =   0.1250000
        k(   20) = (   0.3750000  -0.5279378   0.0000000), wk =   0.0625000
        k(   21) = (  -0.5000000   0.0000000   0.0000000), wk =   0.0312500
        k(   22) = (  -0.5000000   0.1319845   0.0000000), wk =   0.0625000
        k(   23) = (  -0.5000000   0.2639689   0.0000000), wk =   0.0625000
        k(   24) = (  -0.5000000   0.3959534   0.0000000), wk =   0.0625000
        k(   25) = (  -0.5000000  -0.5279378   0.0000000), wk =   0.0312500

     Dense  grid:  1475989 G-vectors     FFT dimensions: (  64,  64, 750)

     Smooth grid:   284301 G-vectors     FFT dimensions: (  40,  36, 432)

     Estimated max dynamical RAM per process >     470.95 MB

     Estimated total dynamical RAM >       9.20 GB

     Initial potential from superposition of free atoms

     starting charge  226.84630, renormalised to  227.00000

     negative rho (up, down):  3.430E-03 0.000E+00
     Starting wfcs are  195 randomized atomic wfcs

     total cpu time spent up to now is       12.0 secs

     Self-consistent Calculation

     iteration #  1     ecut=    60.00 Ry     beta= 0.50
     Davidson diagonalization with overlap
     ethr =  1.00E-02,  avg # of iterations =  2.0

     negative rho (up, down):  4.884E-04 0.000E+00

     total cpu time spent up to now is       28.7 secs

     total energy              =   -1840.97130182 Ry
     Harris-Foulkes estimate   =   -1845.30951789 Ry
     estimated scf accuracy    <      17.61166614 Ry

     iteration #  2     ecut=    60.00 Ry     beta= 0.50
     Davidson diagonalization with overlap
     ethr =  7.76E-03,  avg # of iterations =  2.0

     negative rho (up, down):  2.644E-04 0.000E+00

     total cpu time spent up to now is       47.5 secs

     total energy              =   -1842.55359959 Ry
     Harris-Foulkes estimate   =   -1843.19535285 Ry
     estimated scf accuracy    <       6.67205481 Ry

     iteration #  3     ecut=    60.00 Ry     beta= 0.50
     Davidson diagonalization with overlap
     ethr =  2.94E-03,  avg # of iterations =  1.0

     negative rho (up, down):  2.421E-04 0.000E+00

     total cpu time spent up to now is       62.7 secs

     total energy              =   -1842.74223617 Ry
     Harris-Foulkes estimate   =   -1842.93565928 Ry
     estimated scf accuracy    <       4.44873271 Ry

     iteration #  4     ecut=    60.00 Ry     beta= 0.50
     Davidson diagonalization with overlap
     ethr =  1.96E-03,  avg # of iterations =  1.0

     negative rho (up, down):  2.362E-04 0.000E+00

     total cpu time spent up to now is       78.5 secs

     total energy              =   -1842.71659673 Ry
     Harris-Foulkes estimate   =   -1842.85326067 Ry
     estimated scf accuracy    <       1.37558471 Ry

     iteration #  5     ecut=    60.00 Ry     beta= 0.50
     Davidson diagonalization with overlap
     ethr =  6.06E-04,  avg # of iterations =  4.6

     negative rho (up, down):  2.345E-04 0.000E+00

     total cpu time spent up to now is       98.3 secs

     total energy              =   -1842.74899819 Ry
     Harris-Foulkes estimate   =   -1842.77678344 Ry
     estimated scf accuracy    <       1.87544869 Ry

     iteration #  6     ecut=    60.00 Ry     beta= 0.50
     Davidson diagonalization with overlap
     ethr =  6.06E-04,  avg # of iterations =  1.2

     negative rho (up, down):  2.270E-04 0.000E+00

     total cpu time spent up to now is      115.4 secs

     total energy              =   -1842.69119978 Ry
     Harris-Foulkes estimate   =   -1842.76094070 Ry
     estimated scf accuracy    <       1.25202844 Ry

     iteration #  7     ecut=    60.00 Ry     beta= 0.50
     Davidson diagonalization with overlap
     ethr =  5.52E-04,  avg # of iterations =  3.9

     negative rho (up, down):  2.237E-04 0.000E+00

     total cpu time spent up to now is      134.0 secs

     total energy              =   -1842.69283554 Ry
     Harris-Foulkes estimate   =   -1842.71394944 Ry
     estimated scf accuracy    <       1.18343030 Ry

     iteration #  8     ecut=    60.00 Ry     beta= 0.50
     Davidson diagonalization with overlap
     ethr =  5.21E-04,  avg # of iterations =  4.3

     negative rho (up, down):  2.224E-04 0.000E+00

     total cpu time spent up to now is      153.8 secs

     total energy              =   -1842.69245011 Ry
     Harris-Foulkes estimate   =   -1842.70818129 Ry
     estimated scf accuracy    <       0.53295004 Ry

     iteration #  9     ecut=    60.00 Ry     beta= 0.50
     Davidson diagonalization with overlap
     ethr =  2.35E-04,  avg # of iterations =  3.2

     negative rho (up, down):  2.236E-04 0.000E+00

     total cpu time spent up to now is      171.9 secs

     total energy              =   -1842.68846527 Ry
     Harris-Foulkes estimate   =   -1842.69944516 Ry
     estimated scf accuracy    <       0.15993193 Ry

     iteration # 10     ecut=    60.00 Ry     beta= 0.50
     Davidson diagonalization with overlap
     ethr =  7.05E-05,  avg # of iterations =  6.3

     negative rho (up, down):  2.248E-04 0.000E+00

     total cpu time spent up to now is      195.8 secs

     total energy              =   -1842.68813844 Ry
     Harris-Foulkes estimate   =   -1842.69291572 Ry
     estimated scf accuracy    <       0.13395464 Ry

     iteration # 11     ecut=    60.00 Ry     beta= 0.50
     Davidson diagonalization with overlap
     ethr =  5.90E-05,  avg # of iterations =  1.0

     negative rho (up, down):  2.247E-04 0.000E+00

     total cpu time spent up to now is      212.2 secs

     total energy              =   -1842.68785973 Ry
     Harris-Foulkes estimate   =   -1842.68954532 Ry
     estimated scf accuracy    <       0.04223553 Ry

     iteration # 12     ecut=    60.00 Ry     beta= 0.50
     Davidson diagonalization with overlap
     c_bands:  1 eigenvalues not converged
     ethr =  1.86E-05,  avg # of iterations =  8.2

     negative rho (up, down):  2.242E-04 0.000E+00

     total cpu time spent up to now is      236.7 secs

     total energy              =   -1842.68779439 Ry
     Harris-Foulkes estimate   =   -1842.68841198 Ry
     estimated scf accuracy    <       0.02456483 Ry

     iteration # 13     ecut=    60.00 Ry     beta= 0.50
     Davidson diagonalization with overlap
     ethr =  1.08E-05,  avg # of iterations =  2.8

     negative rho (up, down):  2.240E-04 0.000E+00

     total cpu time spent up to now is      254.7 secs

     total energy              =   -1842.68709956 Ry
     Harris-Foulkes estimate   =   -1842.68800217 Ry
     estimated scf accuracy    <       0.03424606 Ry

     iteration # 14     ecut=    60.00 Ry     beta= 0.50
     Davidson diagonalization with overlap
     ethr =  1.08E-05,  avg # of iterations =  2.2

     negative rho (up, down):  2.243E-04 0.000E+00

     total cpu time spent up to now is      271.7 secs

     total energy              =   -1842.68682448 Ry
     Harris-Foulkes estimate   =   -1842.68726273 Ry
     estimated scf accuracy    <       0.03706924 Ry

     iteration # 15     ecut=    60.00 Ry     beta= 0.50
     Davidson diagonalization with overlap
     ethr =  1.08E-05,  avg # of iterations =  1.0

     negative rho (up, down):  2.251E-04 0.000E+00

     total cpu time spent up to now is      286.5 secs

     total energy              =   -1842.68587553 Ry
     Harris-Foulkes estimate   =   -1842.68694309 Ry
     estimated scf accuracy    <       0.04249206 Ry

     iteration # 16     ecut=    60.00 Ry     beta= 0.50
     Davidson diagonalization with overlap
     ethr =  1.08E-05,  avg # of iterations =  2.2

     negative rho (up, down):  3.012E-04 0.000E+00

     total cpu time spent up to now is      304.9 secs

     total energy              =   -1842.68480303 Ry
     Harris-Foulkes estimate   =   -1842.68598777 Ry
     estimated scf accuracy    <       0.02238440 Ry

     iteration # 17     ecut=    60.00 Ry     beta= 0.50
     Davidson diagonalization with overlap
     ethr =  9.86E-06,  avg # of iterations =  3.8

     negative rho (up, down):  3.176E-03 0.000E+00

     total cpu time spent up to now is      322.7 secs

     total energy              =   -1842.68352313 Ry
     Harris-Foulkes estimate   =   -1842.68489161 Ry
     estimated scf accuracy    <       0.00990449 Ry

     iteration # 18     ecut=    60.00 Ry     beta= 0.50
     Davidson diagonalization with overlap
     ethr =  4.36E-06,  avg # of iterations =  9.6

     negative rho (up, down):  6.178E-03 0.000E+00

     total cpu time spent up to now is      349.4 secs

     total energy              =   -1842.68312030 Ry
     Harris-Foulkes estimate   =   -1842.68366218 Ry
     estimated scf accuracy    <       0.00546487 Ry

     iteration # 19     ecut=    60.00 Ry     beta= 0.50
     Davidson diagonalization with overlap
     c_bands:  1 eigenvalues not converged
     ethr =  2.41E-06,  avg # of iterations =  9.8

     negative rho (up, down):  5.769E-03 0.000E+00

     total cpu time spent up to now is      378.6 secs

     total energy              =   -1842.68308756 Ry
     Harris-Foulkes estimate   =   -1842.68322749 Ry
     estimated scf accuracy    <       0.00231551 Ry

     iteration # 20     ecut=    60.00 Ry     beta= 0.50
     Davidson diagonalization with overlap
     c_bands:  1 eigenvalues not converged
     c_bands:  1 eigenvalues not converged
     ethr =  1.02E-06,  avg # of iterations =  5.6

     negative rho (up, down):  4.102E-04 0.000E+00

     total cpu time spent up to now is      400.4 secs

     total energy              =   -1842.68300956 Ry
     Harris-Foulkes estimate   =   -1842.68311798 Ry
     estimated scf accuracy    <       0.00177235 Ry

     iteration # 21     ecut=    60.00 Ry     beta= 0.50
     Davidson diagonalization with overlap
     c_bands:  1 eigenvalues not converged
     c_bands:  1 eigenvalues not converged
     ethr =  7.81E-07,  avg # of iterations =  6.6

     negative rho (up, down):  5.081E-04 0.000E+00

     total cpu time spent up to now is      422.9 secs

     total energy              =   -1842.68304793 Ry
     Harris-Foulkes estimate   =   -1842.68305632 Ry
     estimated scf accuracy    <       0.00083283 Ry

     iteration # 22     ecut=    60.00 Ry     beta= 0.50
     Davidson diagonalization with overlap
     ethr =  3.67E-07,  avg # of iterations =  2.8

     negative rho (up, down):  8.721E-04 0.000E+00

     total cpu time spent up to now is      441.1 secs

     total energy              =   -1842.68305924 Ry
     Harris-Foulkes estimate   =   -1842.68306952 Ry
     estimated scf accuracy    <       0.00031016 Ry

     iteration # 23     ecut=    60.00 Ry     beta= 0.50
     Davidson diagonalization with overlap
     ethr =  1.37E-07,  avg # of iterations =  4.1

     negative rho (up, down):  1.481E-03 0.000E+00

     total cpu time spent up to now is      461.4 secs

     total energy              =   -1842.68307813 Ry
     Harris-Foulkes estimate   =   -1842.68307056 Ry
     estimated scf accuracy    <       0.00009137 Ry

     iteration # 24     ecut=    60.00 Ry     beta= 0.50
     Davidson diagonalization with overlap
     ethr =  4.03E-08,  avg # of iterations =  1.9

     negative rho (up, down):  1.454E-03 0.000E+00

     total cpu time spent up to now is      479.0 secs

     total energy              =   -1842.68308014 Ry
     Harris-Foulkes estimate   =   -1842.68308069 Ry
     estimated scf accuracy    <       0.00003450 Ry

     iteration # 25     ecut=    60.00 Ry     beta= 0.50
     Davidson diagonalization with overlap
     ethr =  1.52E-08,  avg # of iterations =  1.4

     negative rho (up, down):  1.545E-03 0.000E+00

     total cpu time spent up to now is      495.1 secs

     total energy              =   -1842.68308136 Ry
     Harris-Foulkes estimate   =   -1842.68308193 Ry
     estimated scf accuracy    <       0.00003152 Ry

     iteration # 26     ecut=    60.00 Ry     beta= 0.50
     Davidson diagonalization with overlap
     ethr =  1.39E-08,  avg # of iterations =  1.0

     negative rho (up, down):  1.521E-03 0.000E+00

     total cpu time spent up to now is      510.7 secs

     total energy              =   -1842.68308110 Ry
     Harris-Foulkes estimate   =   -1842.68308186 Ry
     estimated scf accuracy    <       0.00000937 Ry

     iteration # 27     ecut=    60.00 Ry     beta= 0.50
     Davidson diagonalization with overlap
     ethr =  4.13E-09,  avg # of iterations =  2.3

     negative rho (up, down):  1.478E-03 0.000E+00

     total cpu time spent up to now is      528.4 secs

     total energy              =   -1842.68308133 Ry
     Harris-Foulkes estimate   =   -1842.68308152 Ry
     estimated scf accuracy    <       0.00000429 Ry

     iteration # 28     ecut=    60.00 Ry     beta= 0.50
     Davidson diagonalization with overlap
     ethr =  1.89E-09,  avg # of iterations =  1.7

     negative rho (up, down):  1.484E-03 0.000E+00

     total cpu time spent up to now is      545.0 secs

     total energy              =   -1842.68308140 Ry
     Harris-Foulkes estimate   =   -1842.68308150 Ry
     estimated scf accuracy    <       0.00000108 Ry

     iteration # 29     ecut=    60.00 Ry     beta= 0.50
     Davidson diagonalization with overlap
     ethr =  4.76E-10,  avg # of iterations =  2.8

     negative rho (up, down):  1.469E-03 0.000E+00

     total cpu time spent up to now is      564.3 secs

     total energy              =   -1842.68308149 Ry
     Harris-Foulkes estimate   =   -1842.68308148 Ry
     estimated scf accuracy    <       0.00000096 Ry

     iteration # 30     ecut=    60.00 Ry     beta= 0.50
     Davidson diagonalization with overlap
     ethr =  4.23E-10,  avg # of iterations =  1.0

     negative rho (up, down):  1.459E-03 0.000E+00

     total cpu time spent up to now is      580.2 secs

     total energy              =   -1842.68308151 Ry
     Harris-Foulkes estimate   =   -1842.68308151 Ry
     estimated scf accuracy    <       0.00000025 Ry

     iteration # 31     ecut=    60.00 Ry     beta= 0.50
     Davidson diagonalization with overlap
     ethr =  1.12E-10,  avg # of iterations =  1.6

     negative rho (up, down):  1.459E-03 0.000E+00

     total cpu time spent up to now is      597.1 secs

     total energy              =   -1842.68308151 Ry
     Harris-Foulkes estimate   =   -1842.68308152 Ry
     estimated scf accuracy    <       0.00000018 Ry

     iteration # 32     ecut=    60.00 Ry     beta= 0.50
     Davidson diagonalization with overlap
     ethr =  7.73E-11,  avg # of iterations =  1.0

     negative rho (up, down):  1.468E-03 0.000E+00

     total cpu time spent up to now is      613.9 secs

     total energy              =   -1842.68308149 Ry
     Harris-Foulkes estimate   =   -1842.68308151 Ry
     estimated scf accuracy    <       0.00000011 Ry

     iteration # 33     ecut=    60.00 Ry     beta= 0.50
     Davidson diagonalization with overlap
     ethr =  4.81E-11,  avg # of iterations =  1.2

     negative rho (up, down):  1.479E-03 0.000E+00

     total cpu time spent up to now is      629.8 secs

     total energy              =   -1842.68308147 Ry
     Harris-Foulkes estimate   =   -1842.68308149 Ry
     estimated scf accuracy    <       0.00000007 Ry

     iteration # 34     ecut=    60.00 Ry     beta= 0.50
     Davidson diagonalization with overlap
     ethr =  3.05E-11,  avg # of iterations =  1.0

     negative rho (up, down):  1.486E-03 0.000E+00

     total cpu time spent up to now is      647.6 secs

     total energy              =   -1842.68308146 Ry
     Harris-Foulkes estimate   =   -1842.68308147 Ry
     estimated scf accuracy    <       0.00000001 Ry

     iteration # 35     ecut=    60.00 Ry     beta= 0.50
     Davidson diagonalization with overlap
     ethr =  4.93E-12,  avg # of iterations =  3.0

     negative rho (up, down):  1.485E-03 0.000E+00

     total cpu time spent up to now is      665.4 secs

     End of self-consistent calculation

          k = 0.0000 0.0000 0.0000 ( 35607 PWs)   bands (ev):

   -38.9193 -35.6572 -22.9394 -22.8611 -22.7032 -22.6030 -19.9963 -19.9094
   -19.8914 -17.1615 -16.7084 -16.6970 -15.8716 -15.3718 -14.9929 -14.9311
   -14.7414 -14.7251 -14.7009 -14.6426 -14.2514 -14.2281 -14.0521 -13.8942
   -13.8563 -13.7242 -13.6667  -8.1582  -7.9924  -7.9609  -7.9548  -7.8151
    -7.8100  -7.7843  -7.7751  -7.7619  -7.6480  -7.6163  -7.4819  -2.4648
    -2.4000  -2.3871  -2.3724  -2.3690  -1.9420  -1.8999  -1.8372  -1.7384
    -1.6093  -1.5544  -1.5228  -1.2902  -1.2679  -1.1868  -1.1790  -1.1276
    -0.9362  -0.8050  -0.6997  -0.6573  -0.5285  -0.4942  -0.4464  -0.3862
    -0.3805  -0.3345  -0.3211  -0.3156  -0.2892  -0.2795  -0.2579  -0.2502
    -0.2432  -0.1853  -0.1070  -0.0758  -0.0603   0.0196   0.0289   0.0291
     0.0466   0.0959   0.1033   0.1297   0.1788   0.2373   0.2531   0.3113
     0.3129   0.6471   0.6840   0.7277   0.8120   0.8451   0.8514   0.8891
     1.0212   1.0437   1.1136   1.2790   1.2950   1.3909   1.4511   1.4601
     1.4656   1.5173   1.6186   1.6284   1.7561   1.9589   1.9780   2.0094
     2.0620   2.0648   2.1804   2.1963   2.1988   2.4505   2.4661   2.8878
     5.0963   5.1468   5.3348   5.7432   5.8772   6.2768   6.6938   6.8179
     6.8487   7.0521   7.1390   7.1745   7.2018   7.8188   7.9354   8.0683
     8.2723

          k = 0.0000 0.1320 0.0000 ( 35551 PWs)   bands (ev):

   -38.9178 -35.6553 -22.9141 -22.8344 -22.6763 -22.5775 -19.9953 -19.9295
   -19.8896 -17.1253 -16.7695 -16.7060 -15.8166 -15.2831 -14.9452 -14.8769
   -14.7562 -14.7466 -14.6910 -14.6153 -14.2609 -14.2341 -14.0575 -13.9404
   -13.9043 -13.7806 -13.6991  -8.1563  -7.9920  -7.9168  -7.9070  -7.8600
    -7.8042  -7.7795  -7.7747  -7.7666  -7.6570  -7.6028  -7.5298  -2.7497
    -2.4589  -2.4004  -2.3822  -2.3466  -2.2368  -2.1274  -1.9180  -1.8536
    -1.7323  -1.7181  -1.7144  -1.6884  -1.5916  -1.4222  -1.2259  -1.1836
    -1.0880  -0.7697  -0.7563  -0.7369  -0.6984  -0.6259  -0.5831  -0.5772
    -0.5308  -0.4968  -0.4312  -0.4091  -0.3798  -0.2820  -0.2342  -0.2178
    -0.1977  -0.1533  -0.0856  -0.0739  -0.0635  -0.0423   0.0106   0.0114
     0.0525   0.0767   0.1039   0.1045   0.2066   0.2098   0.2989   0.3432
     0.4725   0.6122   0.7609   0.8631   0.8690   0.9855   1.0092   1.0635
     1.0764   1.1170   1.1439   1.2987   1.3526   1.3817   1.4281   1.4507
     1.5100   1.5135   1.5755   1.6127   1.7432   1.8511   1.9002   1.9584
     1.9728   2.0751   2.1318   2.3738   2.7075   2.7566   2.7875   3.0680
     5.3480   5.5231   5.5994   5.8968   6.0340   6.4977   6.6481   6.9977
     7.0861   7.1589   7.2006   7.4253   7.4754   8.0595   8.1354   8.2596
     8.4514

          k = 0.0000 0.2640 0.0000 ( 35461 PWs)   bands (ev):

   -38.9143 -35.6509 -22.8517 -22.7685 -22.6099 -22.5148 -20.0226 -19.9475
   -19.8854 -17.0332 -16.9238 -16.7004 -15.6663 -15.0833 -14.8844 -14.8575
   -14.7955 -14.7322 -14.6330 -14.5534 -14.2482 -14.2132 -14.0972 -14.0735
   -14.0089 -13.8871 -13.7897  -8.1522  -7.9915  -7.9633  -7.8945  -7.8063
    -7.7866  -7.7750  -7.7749  -7.7439  -7.6445  -7.6334  -7.4895  -3.2178
    -2.9047  -2.8031  -2.6730  -2.6652  -2.4984  -2.4437  -2.3510  -2.3339
    -2.3176  -2.2256  -1.8847  -1.6642  -1.5958  -1.5353  -1.4833  -1.3438
    -1.1980  -1.1420  -1.0437  -0.9943  -0.9477  -0.8772  -0.8415  -0.8167
    -0.7865  -0.7217  -0.6354  -0.6069  -0.5907  -0.5672  -0.5571  -0.5103
    -0.3885  -0.2315  -0.1208  -0.0608  -0.0573  -0.0138  -0.0129   0.0245
     0.0925   0.1301   0.1399   0.2861   0.3243   0.5472   0.6277   0.6927
     0.8099   0.8519   0.8730   0.9025   1.0507   1.0796   1.0945   1.1275
     1.1284   1.1464   1.1543   1.2367   1.2902   1.3406   1.4762   1.5579
     1.5719   1.5963   1.6991   1.7912   1.8608   1.8905   1.9036   1.9232
     2.0776   2.1222   2.1329   2.4931   2.9700   3.0326   3.4174   3.6226
     5.6262   5.9619   6.3484   6.4170   6.4597   6.6543   7.2344   7.2574
     7.2775   7.8182   7.9426   8.0853   8.2709   8.5646   8.6340   8.7115
     8.7765

          k = 0.0000 0.3960 0.0000 ( 35408 PWs)   bands (ev):

   -38.9107 -35.6465 -22.7874 -22.7003 -22.5412 -22.4500 -20.0767 -19.9373
   -19.8811 -17.0600 -16.9316 -16.6947 -15.4593 -15.0262 -15.0043 -14.9442
   -14.7536 -14.5748 -14.4924 -14.4392 -14.2200 -14.1800 -14.1625 -14.1560
   -14.1500 -13.9590 -13.9332  -8.1456  -8.0551  -7.9915  -7.9727  -7.8236
    -7.7703  -7.7702  -7.7234  -7.6893  -7.6581  -7.5140  -7.3692  -3.6196
    -3.5003  -3.3587  -3.1567  -3.1300  -3.0653  -3.0215  -2.4418  -2.4120
    -2.3761  -2.1558  -2.0288  -1.8839  -1.7465  -1.6407  -1.5990  -1.4455
    -1.3607  -1.2537  -1.2176  -1.2099  -1.1523  -1.1456  -1.0727  -1.0514
    -0.9449  -0.9343  -0.8943  -0.8503  -0.8208  -0.7981  -0.7794  -0.5823
    -0.4074  -0.3306  -0.3246  -0.1527  -0.0404   0.0052   0.0551   0.0724
     0.0747   0.0908   0.1163   0.4212   0.6354   0.7114   0.7830   0.8261
     0.8569   0.8948   0.8975   0.9513   1.0212   1.0604   1.0656   1.1075
     1.2052   1.2845   1.3055   1.4129   1.4799   1.5280   1.5482   1.6551
     1.6766   1.7059   1.8164   1.8872   1.9128   1.9882   2.0880   2.1807
     2.1812   2.2979   2.3212   2.4254   2.8642   2.9419   3.9021   4.1805
     5.5282   6.1104   6.2108   7.2552   7.3334   7.3646   7.4209   7.5579
     8.1899   8.2303   8.5948   8.6267   8.7068   8.9951   9.0197   9.0317
     9.2981

          k = 0.0000-0.5279 0.0000 ( 35442 PWs)   bands (ev):

   -38.9092 -35.6447 -22.7601 -22.6714 -22.5120 -22.4225 -20.1005 -19.9313
   -19.8793 -17.1122 -16.8866 -16.6924 -15.2554 -15.2171 -15.0466 -14.9892
   -14.6392 -14.5669 -14.3456 -14.3334 -14.2716 -14.2457 -14.1978 -14.1424
   -14.1151 -14.0668 -13.9963  -8.1379  -8.0947  -8.0024  -7.9911  -7.8520
    -7.7699  -7.7644  -7.7612  -7.6387  -7.6022  -7.4571  -7.3171  -3.8195
    -3.7157  -3.5374  -3.3578  -3.3081  -3.2858  -3.2432  -2.4579  -2.4295
    -2.3888  -2.2744  -2.0121  -1.8862  -1.8342  -1.7030  -1.6254  -1.5659
    -1.3901  -1.3409  -1.2708  -1.2683  -1.2272  -1.1859  -1.1549  -1.1432
    -1.0527  -1.0516  -1.0096  -0.9072  -0.8833  -0.8615  -0.8556  -0.6058
    -0.4245  -0.3729  -0.3503  -0.1814  -0.0347   0.0117   0.0481   0.0676
     0.0960   0.0995   0.1169   0.3516   0.5946   0.7433   0.7631   0.7861
     0.8043   0.9054   0.9509   1.0486   1.0507   1.0899   1.1719   1.1832
     1.2431   1.2915   1.3750   1.3891   1.4834   1.6464   1.6670   1.7382
     1.8237   1.8419   1.9427   1.9494   1.9942   2.0019   2.0871   2.1541
     2.2077   2.4106   2.4594   2.4817   2.6867   2.7757   4.1525   4.4050
     5.3370   6.0225   6.3597   7.3550   7.5266   7.7766   7.7969   7.8540
     8.0517   8.3353   8.8358   8.9008   8.9358   9.0935   9.1873   9.2578
     9.3392

          k = 0.1250 0.0000 0.0000 ( 35561 PWs)   bands (ev):

   -38.9185 -35.6561 -22.9224 -22.8430 -22.6849 -22.5858 -19.9947 -19.9084
   -19.9081 -17.1280 -16.7886 -16.6956 -15.8247 -15.2695 -14.9637 -14.9550
   -14.7870 -14.7505 -14.7295 -14.6478 -14.2604 -14.2360 -14.0640 -13.9240
   -13.9043 -13.7530 -13.6969  -8.1898  -8.0181  -7.9122  -7.8930  -7.8284
    -7.8098  -7.7806  -7.7295  -7.7253  -7.5871  -7.5832  -7.4515  -2.5883
    -2.4425  -2.4297  -2.3990  -2.3563  -1.9424  -1.9033  -1.8834  -1.8775
    -1.8084  -1.5246  -1.5217  -1.5019  -1.2881  -1.2657  -1.2230  -1.1495
    -0.9674  -0.8644  -0.8051  -0.7465  -0.6894  -0.5840  -0.5768  -0.4810
    -0.4683  -0.4520  -0.4091  -0.3907  -0.3629  -0.3384  -0.2691  -0.2594
    -0.2511  -0.1719  -0.1522  -0.1218  -0.0340   0.0218   0.0403   0.0516
     0.1246   0.1367   0.1473   0.1500   0.2366   0.2572   0.3073   0.3268
     0.3504   0.5945   0.7193   0.7609   0.7647   0.8275   0.8745   0.9389
     1.1159   1.1234   1.1397   1.2616   1.2960   1.3898   1.4125   1.4628
     1.4882   1.5165   1.6189   1.7817   1.8525   1.8940   1.9238   2.0286
     2.0979   2.1112   2.1117   2.1753   2.2457   2.5006   2.5352   3.0319
     5.2629   5.3270   5.4500   5.7738   6.0211   6.4454   6.7369   6.9059
     6.9317   7.0580   7.2285   7.2559   7.4942   8.0176   8.0943   8.2114
     8.4430

          k = 0.1250 0.1320 0.0000 ( 35510 PWs)   bands (ev):

   -38.9170 -35.6542 -22.8979 -22.8171 -22.6589 -22.5610 -19.9936 -19.9299
   -19.9049 -17.0929 -16.7917 -16.7587 -15.7712 -15.1882 -14.9242 -14.8983
   -14.7814 -14.7770 -14.7060 -14.6179 -14.2613 -14.2341 -14.0697 -13.9552
   -13.9481 -13.8003 -13.7265  -8.1829  -8.0374  -8.0123  -7.9553  -7.8756
    -7.8110  -7.7568  -7.7334  -7.6918  -7.6796  -7.5463  -7.4108  -2.7802
    -2.4971  -2.4891  -2.4243  -2.3718  -2.2227  -2.1064  -1.9214  -1.8993
    -1.8548  -1.8334  -1.7329  -1.7084  -1.6873  -1.5055  -1.4287  -1.2625
    -1.1090  -0.9545  -0.8753  -0.8460  -0.7607  -0.7560  -0.7337  -0.6166
    -0.6043  -0.5849  -0.5713  -0.5324  -0.3393  -0.3324  -0.2788  -0.2114
    -0.2039  -0.1782  -0.1230  -0.0941  -0.0606  -0.0419  -0.0372   0.0790
     0.0955   0.1094   0.1383   0.1535   0.2187   0.2236   0.4085   0.4481
     0.6091   0.6568   0.7639   0.8557   0.9579   0.9813   1.0103   1.0632
     1.1503   1.1927   1.1990   1.2126   1.2494   1.3790   1.4162   1.5214
     1.5433   1.5492   1.5675   1.5917   1.6756   1.8396   1.8520   2.0536
     2.2064   2.2751   2.4767   2.5204   2.7305   2.7724   2.7972   3.1618
     5.4536   5.6655   5.7219   5.8722   6.1575   6.5629   6.6553   7.0472
     7.1609   7.2039   7.3501   7.6093   7.7086   8.2182   8.2993   8.3894
     8.6005

          k = 0.1250 0.2640 0.0000 ( 35453 PWs)   bands (ev):

   -38.9135 -35.6499 -22.8373 -22.7533 -22.5946 -22.5001 -20.0206 -19.9494
   -19.8991 -17.0037 -16.9207 -16.7713 -15.6256 -15.0141 -14.8789 -14.8648
   -14.7818 -14.7469 -14.6101 -14.5480 -14.2436 -14.2068 -14.1192 -14.0674
   -14.0137 -13.8955 -13.8083  -8.1693  -8.1418  -8.1064  -7.9923  -7.9599
    -7.8241  -7.7886  -7.7743  -7.7158  -7.6823  -7.5369  -7.4052  -3.2548
    -2.9276  -2.7916  -2.6818  -2.6743  -2.4990  -2.4386  -2.4320  -2.3504
    -2.3155  -2.3070  -1.8766  -1.8638  -1.7827  -1.5986  -1.4995  -1.4958
    -1.3738  -1.3035  -1.1178  -1.0858  -1.0518  -0.9716  -0.9334  -0.8641
    -0.8530  -0.7915  -0.7637  -0.7086  -0.6580  -0.6398  -0.5711  -0.5427
    -0.3947  -0.2280  -0.1891  -0.1451  -0.1368  -0.0084   0.0724   0.0762
     0.1276   0.2341   0.3185   0.4221   0.4487   0.6473   0.6836   0.7299
     0.7322   0.9139   0.9506   0.9877   1.0315   1.0982   1.1266   1.2317
     1.2453   1.2828   1.3125   1.3155   1.3401   1.4268   1.4441   1.5248
     1.5608   1.5734   1.6029   1.8465   1.8669   1.9082   1.9250   2.0986
     2.3801   2.4736   2.6719   2.7053   2.9807   3.0488   3.4895   3.6209
     5.6926   5.9499   6.2348   6.4780   6.5216   6.6459   7.1968   7.2520
     7.3170   7.9830   8.0934   8.2805   8.4444   8.6640   8.7517   8.7967
     8.8792

          k = 0.1250 0.3960 0.0000 ( 35460 PWs)   bands (ev):

   -38.9100 -35.6455 -22.7748 -22.6874 -22.5281 -22.4373 -20.0748 -19.9409
   -19.8928 -17.0549 -16.9051 -16.7627 -15.4257 -15.0176 -14.9694 -14.9159
   -14.6796 -14.5647 -14.4795 -14.4162 -14.2144 -14.1997 -14.1528 -14.1477
   -14.1409 -13.9534 -13.9351  -8.2084  -8.1559  -8.1369  -8.0038  -7.9883
    -7.8788  -7.8105  -7.7842  -7.7318  -7.7272  -7.5817  -7.4447  -3.6704
    -3.4969  -3.3993  -3.1727  -3.1587  -3.0569  -3.0169  -2.4500  -2.4162
    -2.4109  -2.2541  -2.0375  -1.8624  -1.7356  -1.7224  -1.6976  -1.6868
    -1.5872  -1.3984  -1.3939  -1.2755  -1.2442  -1.1854  -1.1313  -1.1168
    -0.9742  -0.9619  -0.9429  -0.9085  -0.8683  -0.8622  -0.8227  -0.8021
    -0.4451  -0.2940  -0.1952  -0.1705  -0.1210  -0.0066   0.0297   0.1337
     0.1461   0.3256   0.3585   0.5857   0.6062   0.7400   0.8312   0.8978
     0.9048   0.9838   1.0329   1.0642   1.1052   1.1436   1.1598   1.2325
     1.2749   1.3710   1.3849   1.4612   1.5808   1.6215   1.6495   1.6746
     1.7385   1.7918   1.8741   1.9752   2.0836   2.2366   2.2650   2.2886
     2.3670   2.4219   2.5795   2.6396   2.9224   2.9974   3.9489   4.1724
     5.5776   5.9753   6.2370   6.9943   7.2291   7.2882   7.2947   7.5634
     8.0607   8.3283   8.5919   8.6877   8.7327   8.8445   9.0493   9.3014
     9.4179

          k = 0.1250-0.5279 0.0000 ( 35396 PWs)   bands (ev):

   -38.9085 -35.6436 -22.7484 -22.6594 -22.4999 -22.4107 -20.0986 -19.9358
   -19.8900 -17.1065 -16.8617 -16.7590 -15.2204 -15.2063 -15.0019 -14.9471
   -14.5667 -14.5278 -14.3446 -14.3119 -14.2666 -14.2306 -14.2189 -14.1432
   -14.1143 -14.0486 -13.9805  -8.2180  -8.1543  -8.1315  -8.0087  -7.9813
    -7.8882  -7.8325  -7.7897  -7.7618  -7.7363  -7.6156  -7.4701  -3.8494
    -3.7443  -3.5860  -3.3749  -3.3369  -3.2853  -3.2429  -2.4711  -2.4390
    -2.4148  -2.2040  -2.0004  -1.9873  -1.8927  -1.7562  -1.7093  -1.6603
    -1.5892  -1.5276  -1.4369  -1.3547  -1.3414  -1.2708  -1.2589  -1.1441
    -1.0586  -1.0183  -1.0156  -0.9981  -0.9298  -0.9203  -0.9009  -0.8825
    -0.4365  -0.3117  -0.1980  -0.1627  -0.0947  -0.0629   0.0387   0.1432
     0.1568   0.3594   0.3673   0.5732   0.6119   0.7474   0.8612   0.8856
     0.9100   0.9554   0.9692   1.0941   1.1015   1.1948   1.2780   1.3037
     1.3672   1.3847   1.4009   1.4188   1.6994   1.7081   1.8285   1.9374
     1.9610   1.9703   1.9926   2.1438   2.2273   2.2541   2.2765   2.3785
     2.3956   2.4303   2.4551   2.4847   2.8005   2.8615   4.1572   4.4181
     5.3890   5.9101   6.3737   7.0896   7.3115   7.4507   7.5344   7.9249
     8.0929   8.2517   8.4374   8.9811   9.0213   9.2354   9.2884   9.3006
     9.4554

          k = 0.2500 0.0000 0.0000 ( 35576 PWs)   bands (ev):

   -38.9166 -35.6534 -22.8810 -22.7987 -22.6400 -22.5435 -20.0009 -19.9375
   -19.9061 -17.0428 -16.9528 -16.6923 -15.6996 -15.0716 -15.0228 -14.9695
   -14.8689 -14.8270 -14.7189 -14.6715 -14.2745 -14.2453 -14.1147 -14.0459
   -13.9513 -13.8096 -13.7805  -8.2245  -8.0196  -7.8483  -7.8163  -7.8064
    -7.8024  -7.7076  -7.6511  -7.6487  -7.5035  -7.5009  -7.3758  -2.9320
    -2.6359  -2.5027  -2.4619  -2.3276  -2.2795  -2.2617  -2.0682  -1.8442
    -1.8170  -1.7188  -1.5421  -1.4414  -1.3327  -1.2848  -1.2620  -1.2146
    -1.1122  -1.1053  -1.0572  -1.0220  -0.9561  -0.8406  -0.8393  -0.7089
    -0.6720  -0.6006  -0.5875  -0.5528  -0.4356  -0.3815  -0.3360  -0.3205
    -0.2987  -0.2753  -0.2673  -0.2556  -0.1024   0.0091   0.0271   0.1145
     0.1768   0.1829   0.2538   0.2658   0.3305   0.3765   0.3849   0.4732
     0.5158   0.5880   0.5903   0.8162   0.8860   0.9633   0.9690   0.9814
     1.0027   1.2099   1.2377   1.2440   1.3294   1.3477   1.3784   1.4352
     1.5041   1.6183   1.6472   1.7446   1.8156   1.8380   1.9645   1.9664
     2.1391   2.1651   2.2049   2.2874   2.4160   2.6085   2.6946   3.3924
     5.5449   5.6184   5.7844   5.8335   6.3724   6.5770   6.9732   7.0785
     7.2671   7.4845   7.6076   7.7644   7.9632   8.3626   8.4524   8.5627
     8.7544

          k = 0.2500 0.1320 0.0000 ( 35521 PWs)   bands (ev):

   -38.9152 -35.6516 -22.8581 -22.7749 -22.6161 -22.5206 -19.9987 -19.9452
   -19.9177 -17.0106 -16.9464 -16.7584 -15.6504 -15.0212 -14.9604 -14.9411
   -14.8408 -14.8193 -14.6689 -14.6362 -14.2604 -14.2305 -14.1117 -14.0506
   -13.9857 -13.8366 -13.8012  -8.2380  -8.0882  -8.0206  -7.9432  -7.9275
    -7.8558  -7.7417  -7.6951  -7.6525  -7.6151  -7.4692  -7.3424  -3.0195
    -2.6859  -2.5522  -2.5229  -2.4896  -2.2719  -2.2513  -2.1632  -2.0603
    -2.0275  -1.8499  -1.8183  -1.7131  -1.6989  -1.6737  -1.4907  -1.4032
    -1.3675  -1.1935  -1.1537  -1.0860  -1.0236  -0.9564  -0.9193  -0.8534
    -0.7491  -0.6955  -0.6472  -0.6202  -0.5329  -0.4085  -0.3772  -0.2861
    -0.2625  -0.1679  -0.1023  -0.0687  -0.0483  -0.0429  -0.0071   0.0500
     0.1177   0.1439   0.1635   0.2598   0.2862   0.4776   0.5372   0.6325
     0.6968   0.8070   0.8540   0.8566   0.8747   0.9933   1.0952   1.1265
     1.1347   1.2180   1.2698   1.3090   1.3628   1.3994   1.4073   1.4608
     1.4730   1.5217   1.6368   1.6608   1.6645   1.9051   1.9168   2.2170
     2.4182   2.5955   2.7437   2.7861   2.7956   2.8698   2.9104   3.4688
     5.6113   5.7149   6.0456   6.0876   6.3666   6.4482   7.1235   7.1272
     7.2364   7.7419   7.8615   8.0275   8.2104   8.5308   8.6349   8.7097
     8.8659

          k = 0.2500 0.2640 0.0000 ( 35483 PWs)   bands (ev):

   -38.9116 -35.6473 -22.8019 -22.7161 -22.5570 -22.4642 -20.0166 -19.9723
   -19.9126 -16.9463 -16.9223 -16.8950 -15.5177 -14.9319 -14.8988 -14.8836
   -14.7837 -14.6798 -14.5476 -14.5330 -14.2353 -14.1912 -14.1600 -14.0628
   -14.0265 -13.9067 -13.8582  -8.3573  -8.3084  -8.1818  -8.1623  -8.0131
    -8.0049  -7.8256  -7.7872  -7.7494  -7.7349  -7.5875  -7.4648  -3.4278
    -3.0646  -2.8166  -2.7505  -2.7174  -2.6764  -2.5122  -2.4254  -2.3833
    -2.3469  -2.3237  -2.2426  -2.2042  -2.0354  -1.8749  -1.7380  -1.5770
    -1.5211  -1.4915  -1.3484  -1.3353  -1.1924  -1.1210  -1.0732  -0.9732
    -0.9471  -0.8332  -0.8037  -0.7756  -0.6864  -0.6701  -0.6637  -0.5909
    -0.4712  -0.4212  -0.3517  -0.0981   0.0241   0.0677   0.1584   0.2726
     0.2892   0.4248   0.5065   0.5856   0.7144   0.7575   0.7711   0.7800
     0.8888   0.9205   0.9385   1.0393   1.1670   1.1920   1.3106   1.3286
     1.3725   1.3860   1.4541   1.4751   1.5163   1.5470   1.5543   1.5966
     1.6058   1.6306   1.7021   1.7875   1.8519   1.8973   2.0390   2.2421
     2.9163   2.9778   2.9843   3.2009   3.3513   3.3847   3.6150   3.7185
     5.6888   5.8828   6.1194   6.5068   6.5883   6.6431   7.2039   7.2567
     7.5162   8.2742   8.3479   8.6535   8.7023   8.8391   8.9791   9.1113
     9.1637

          k = 0.2500 0.3960 0.0000 ( 35466 PWs)   bands (ev):

   -38.9081 -35.6429 -22.7441 -22.6557 -22.4963 -22.4063 -20.0701 -19.9689
   -19.9012 -17.0429 -16.9108 -16.8364 -15.3403 -15.0023 -14.8882 -14.8469
   -14.5593 -14.5112 -14.4433 -14.3591 -14.2848 -14.1678 -14.1414 -14.1153
   -14.0958 -13.9461 -13.9412  -8.4873  -8.4284  -8.2803  -8.2149  -8.1393
    -8.0553  -8.0160  -7.9488  -7.8709  -7.7941  -7.7679  -7.6790  -3.8740
    -3.5651  -3.4701  -3.2726  -3.2485  -3.0362  -3.0030  -2.6574  -2.5218
    -2.4509  -2.3895  -2.2433  -2.2105  -2.1523  -1.9895  -1.8847  -1.8245
    -1.6781  -1.6024  -1.5475  -1.4933  -1.3610  -1.2903  -1.2028  -1.1382
    -1.0562  -1.0527  -0.9418  -0.8746  -0.8687  -0.8470  -0.7917  -0.7316
    -0.6140  -0.4948  -0.4182  -0.0040   0.0721   0.1726   0.2306   0.3426
     0.4476   0.5966   0.6625   0.7072   0.8927   0.9079   0.9384   0.9697
     1.1751   1.2107   1.2257   1.2533   1.3011   1.3160   1.4155   1.4206
     1.4431   1.5109   1.5752   1.5944   1.6558   1.7055   1.7486   1.8124
     1.8213   1.8440   1.9363   1.9828   2.1866   2.2022   2.2554   2.3239
     2.7483   2.8216   3.1887   3.4307   3.5874   3.6197   4.0053   4.2342
     5.6671   5.6927   6.3049   6.3589   6.7959   6.8781   7.2757   7.5906
     7.6869   8.6296   8.7298   8.8305   8.9173   9.0035   9.2478   9.5073
     9.6053

          k = 0.2500-0.5279 0.0000 ( 35512 PWs)   bands (ev):

   -38.9066 -35.6411 -22.7197 -22.6302 -22.4706 -22.3818 -20.0940 -19.9659
   -19.8960 -17.0930 -16.9053 -16.7968 -15.1816 -15.1331 -14.8849 -14.8392
   -14.4339 -14.4335 -14.3414 -14.2954 -14.2581 -14.2575 -14.1490 -14.1378
   -14.1101 -14.0076 -13.9480  -8.5066  -8.4286  -8.2778  -8.2056  -8.1760
    -8.1436  -8.1397  -8.0150  -7.9950  -7.8119  -7.8000  -7.7828  -4.0547
    -3.7737  -3.7287  -3.4664  -3.4570  -3.2639  -3.2314  -2.6062  -2.5291
    -2.4678  -2.4296  -2.3731  -2.1750  -2.0914  -2.0352  -1.9492  -1.9369
    -1.7288  -1.6860  -1.6469  -1.5265  -1.3806  -1.3619  -1.2931  -1.1790
    -1.1510  -1.0889  -1.0141  -0.9390  -0.9235  -0.8856  -0.7931  -0.7490
    -0.6272  -0.5224  -0.4422   0.0134   0.1144   0.2106   0.2442   0.3744
     0.4746   0.6591   0.7200   0.7790   0.9617   1.0099   1.0336   1.0983
     1.1293   1.1829   1.2394   1.3059   1.3074   1.3679   1.3872   1.4330
     1.5206   1.5978   1.6547   1.6687   1.8406   1.8431   1.8446   1.9222
     1.9697   1.9839   2.0062   2.1187   2.3622   2.3728   2.3750   2.4404
     2.5270   2.6166   3.2057   3.4509   3.6223   3.6395   4.1225   4.5102
     5.5056   5.6711   6.2501   6.4462   6.7607   6.8458   7.2983   7.6464
     8.1317   8.2289   8.7272   8.9976   9.1273   9.4484   9.4596   9.4806
     9.7126

          k = 0.3750 0.0000 0.0000 ( 35488 PWs)   bands (ev):

   -38.9147 -35.6508 -22.8385 -22.7533 -22.5940 -22.5002 -20.0295 -19.9436
   -19.9038 -17.0927 -16.9475 -16.6890 -15.5457 -15.1169 -15.0938 -15.0726
   -14.9456 -14.7238 -14.6740 -14.5882 -14.2874 -14.2432 -14.2329 -14.1409
   -13.9880 -13.8953 -13.8510  -8.2329  -8.0021  -7.8146  -7.7854  -7.7628
    -7.7415  -7.6318  -7.5983  -7.5643  -7.4563  -7.4148  -7.2970  -3.2375
    -2.9634  -2.7829  -2.7455  -2.4018  -2.3325  -2.3254  -2.1781  -1.8384
    -1.7351  -1.6526  -1.5739  -1.4569  -1.3751  -1.3543  -1.3455  -1.2896
    -1.2864  -1.2621  -1.2608  -1.2209  -1.1339  -1.0888  -0.9692  -0.9522
    -0.8539  -0.8008  -0.7672  -0.7553  -0.5370  -0.4644  -0.4407  -0.3913
    -0.3279  -0.2982  -0.2804  -0.2780  -0.0577  -0.0037   0.0142   0.0915
     0.1284   0.2147   0.2723   0.3329   0.3568   0.3945   0.3995   0.4154
     0.4575   0.6641   0.7066   0.7907   0.9340   1.0189   1.0444   1.1136
     1.1239   1.1490   1.1587   1.2794   1.3838   1.4279   1.4347   1.5438
     1.6169   1.6231   1.7063   1.7372   1.7568   1.8458   1.9546   2.0584
     2.1255   2.1946   2.2529   2.3641   2.5215   2.7322   2.7913   3.8445
     5.1120   5.8664   6.4341   6.4423   6.4740   6.6950   7.2920   7.3851
     7.6993   7.9291   7.9735   8.0454   8.3988   8.5050   8.6703   8.7407
     9.2319

          k = 0.3750 0.1320 0.0000 ( 35549 PWs)   bands (ev):

   -38.9133 -35.6490 -22.8175 -22.7316 -22.5722 -22.4792 -20.0264 -19.9525
   -19.9146 -17.0841 -16.9184 -16.7534 -15.5011 -15.0679 -15.0293 -15.0260
   -14.9409 -14.6833 -14.6135 -14.5417 -14.2584 -14.2222 -14.2066 -14.1248
   -14.0229 -13.9020 -13.8602  -8.2508  -8.0597  -7.9630  -7.9049  -7.8791
    -7.8405  -7.7242  -7.7180  -7.6541  -7.6310  -7.5052  -7.3904  -3.3284
    -3.0251  -2.8271  -2.7797  -2.4956  -2.4006  -2.3266  -2.3097  -2.1170
    -1.9409  -1.8168  -1.7866  -1.7487  -1.6874  -1.6803  -1.6629  -1.5636
    -1.5321  -1.3835  -1.2922  -1.2700  -1.1686  -1.1103  -1.0908  -1.0172
    -0.8703  -0.8177  -0.7682  -0.7069  -0.6167  -0.4878  -0.4400  -0.3394
    -0.3051  -0.1625  -0.1294  -0.0525  -0.0451  -0.0392   0.0095   0.1080
     0.1389   0.1471   0.1617   0.3679   0.3925   0.3994   0.5921   0.7095
     0.7244   0.7595   0.8512   0.9194   1.0573   1.0859   1.1080   1.1640
     1.1707   1.2091   1.2115   1.2889   1.3280   1.4597   1.4715   1.5465
     1.6373   1.6899   1.7104   1.7230   1.7936   1.8104   2.0745   2.1915
     2.6015   2.6754   2.7488   2.8397   2.8958   3.0594   3.0689   3.9076
     5.1629   5.9473   6.2520   6.5817   6.5920   6.6313   7.2668   7.4248
     7.7465   7.9945   8.0602   8.2550   8.4266   8.7759   8.8614   8.9439
     9.2106

          k = 0.3750 0.2640 0.0000 ( 35547 PWs)   bands (ev):

   -38.9098 -35.6447 -22.7658 -22.6783 -22.5187 -22.4276 -20.0214 -20.0024
   -19.9092 -17.0638 -16.8977 -16.8433 -15.3849 -14.9668 -14.9454 -14.9075
   -14.8193 -14.5877 -14.4645 -14.4241 -14.2182 -14.1854 -14.1750 -14.0807
   -14.0593 -13.9224 -13.9019  -8.4181  -8.3611  -8.2130  -8.2064  -8.0667
    -8.0396  -7.9923  -7.9173  -7.8577  -7.7903  -7.7356  -7.6635  -3.7039
    -3.3405  -3.0665  -2.9726  -2.7790  -2.7020  -2.5723  -2.4524  -2.4265
    -2.4110  -2.3930  -2.3218  -2.3123  -2.2750  -2.2435  -1.8500  -1.7210
    -1.6417  -1.5316  -1.4636  -1.3223  -1.1714  -1.1576  -1.0928  -1.0131
    -0.9750  -0.9379  -0.8699  -0.8373  -0.7220  -0.7135  -0.7094  -0.6773
    -0.5591  -0.4454  -0.3896  -0.0418   0.1030   0.2093   0.2313   0.3822
     0.5146   0.5869   0.6216   0.6500   0.7566   0.8068   0.9177   0.9393
     0.9814   1.0330   1.0617   1.1141   1.1623   1.2871   1.3369   1.3452
     1.4277   1.5205   1.5280   1.5651   1.5893   1.6381   1.6735   1.6884
     1.6937   1.7499   1.7612   1.8165   1.8926   2.0161   2.1763   2.1909
     2.9175   2.9766   3.4216   3.5970   3.6574   3.7778   3.7881   4.0993
     5.2846   5.8944   6.1585   6.2858   6.6287   6.7027   7.2687   7.5047
     7.5712   8.3345   8.3929   8.7575   8.7810   9.1493   9.2936   9.3441
     9.4113

          k = 0.3750 0.3960 0.0000 ( 35519 PWs)   bands (ev):

   -38.9062 -35.6404 -22.7129 -22.6236 -22.4639 -22.3748 -20.0654 -20.0095
   -19.8962 -17.0464 -17.0245 -16.7635 -15.2445 -14.9991 -14.8104 -14.7780
   -14.5590 -14.4941 -14.3058 -14.3007 -14.2990 -14.1511 -14.1300 -14.0605
   -14.0471 -13.9571 -13.9519  -8.6895  -8.6269  -8.4770  -8.3739  -8.2934
    -8.2910  -8.2297  -8.1504  -8.0422  -7.9632  -7.8196  -7.8191  -4.1671
    -3.8199  -3.5230  -3.4151  -3.4126  -3.0156  -2.9868  -2.8457  -2.7024
    -2.5745  -2.5522  -2.5442  -2.3502  -2.3151  -2.2834  -2.1609  -1.9176
    -1.7451  -1.7284  -1.5158  -1.3213  -1.3009  -1.2791  -1.2355  -1.2239
    -1.0681  -1.0456  -1.0298  -0.9384  -0.9055  -0.8679  -0.7753  -0.7689
    -0.7128  -0.4667  -0.4219   0.0889   0.2162   0.3001   0.4141   0.5657
     0.7930   0.8155   0.9080   0.9594   1.0582   1.0900   1.1599   1.1667
     1.2263   1.2836   1.3430   1.4130   1.4410   1.4836   1.4930   1.5119
     1.6348   1.6456   1.6859   1.7290   1.8167   1.8844   1.9134   1.9163
     1.9301   1.9347   2.0074   2.0849   2.1084   2.1374   2.3334   2.5080
     2.7388   2.8073   3.8267   4.0187   4.1733   4.2590   4.3074   4.4526
     5.3973   5.6664   5.7737   6.3254   6.3698   6.4908   7.3024   7.4311
     7.7343   8.8783   8.9085   8.9816   9.0462   9.1931   9.3246   9.3522
     9.4486

          k = 0.3750-0.5279 0.0000 ( 35528 PWs)   bands (ev):

   -38.9048 -35.6386 -22.6906 -22.6006 -22.4408 -22.3526 -20.0894 -20.0067
   -19.8905 -17.0797 -17.0339 -16.7281 -15.1592 -15.0412 -14.7491 -14.7199
   -14.4684 -14.3550 -14.3396 -14.2533 -14.2169 -14.1883 -14.1297 -14.1020
   -14.0628 -13.9727 -13.9351  -8.7855  -8.7089  -8.5565  -8.4518  -8.4459
    -8.4370  -8.2986  -8.2530  -8.0803  -8.0676  -7.8434  -7.8338  -4.3597
    -4.0263  -3.7552  -3.6527  -3.6219  -3.2408  -3.2131  -2.8464  -2.7209
    -2.6556  -2.5957  -2.5584  -2.3447  -2.3137  -2.2770  -2.2677  -1.9984
    -1.8216  -1.7724  -1.5443  -1.4027  -1.3418  -1.3383  -1.3116  -1.2939
    -1.1359  -1.0852  -1.0296  -1.0252  -0.9765  -0.9543  -0.7949  -0.7794
    -0.6796  -0.4524  -0.4165   0.1192   0.2413   0.3191   0.4962   0.6639
     0.8969   0.9287   0.9476   1.0581   1.1345   1.1933   1.2343   1.2849
     1.3271   1.3881   1.4196   1.4466   1.4790   1.5277   1.6284   1.6452
     1.6833   1.7374   1.8247   1.8691   1.9422   1.9486   1.9783   2.0092
     2.0664   2.0854   2.1290   2.2166   2.2988   2.3192   2.4087   2.4963
     2.5775   2.6708   3.8654   4.1512   4.3172   4.4042   4.4469   4.6811
     5.4374   5.5616   5.5744   6.1477   6.2308   6.5723   7.2117   7.4823
     8.3320   8.3412   8.8938   9.0194   9.1254   9.2382   9.2957   9.3538
     9.3703

          k =-0.5000 0.0000 0.0000 ( 35494 PWs)   bands (ev):

   -38.9139 -35.6497 -22.8207 -22.7341 -22.5746 -22.4820 -20.0453 -19.9418
   -19.9029 -17.1451 -16.9053 -16.6876 -15.4657 -15.1730 -15.1245 -15.1054
   -15.0344 -14.7427 -14.5079 -14.4683 -14.3916 -14.2704 -14.2365 -14.1910
   -13.9993 -13.9647 -13.8648  -8.2313  -7.9918  -7.7984  -7.7685  -7.7489
    -7.7184  -7.5995  -7.5812  -7.5282  -7.4436  -7.3778  -7.2634  -3.3585
    -3.1054  -2.9258  -2.8860  -2.4268  -2.3766  -2.3201  -2.0800  -1.8546
    -1.7240  -1.6876  -1.5312  -1.4926  -1.4785  -1.4481  -1.3263  -1.3130
    -1.2995  -1.2918  -1.2903  -1.2628  -1.2463  -1.1765  -1.0654  -0.9742
    -0.9418  -0.8843  -0.8502  -0.8416  -0.6058  -0.4981  -0.4784  -0.4064
    -0.3496  -0.2880  -0.2846  -0.2713  -0.0631  -0.0091   0.0089   0.0943
     0.0949   0.2184   0.2608   0.3325   0.3568   0.3577   0.3948   0.4160
     0.4484   0.6310   0.7533   0.7591   1.0009   1.0628   1.0700   1.0896
     1.1014   1.1948   1.2961   1.3259   1.3636   1.4043   1.5109   1.5207
     1.5833   1.6162   1.6596   1.7992   1.8852   1.9726   1.9799   2.0735
     2.1248   2.1820   2.2432   2.3727   2.5321   2.7677   2.8026   4.1973
     4.7271   5.9776   6.3911   6.8271   7.2065   7.2589   7.2762   7.2866
     7.3007   7.5633   7.8617   8.1996   8.4750   8.8256   8.9861   9.0414
     9.3848

          k =-0.5000 0.1320 0.0000 ( 35562 PWs)   bands (ev):

   -38.9125 -35.6479 -22.8004 -22.7133 -22.5537 -22.4618 -20.0422 -19.9517
   -19.9127 -17.1359 -16.8778 -16.7513 -15.4213 -15.1156 -15.0685 -15.0345
   -15.0278 -14.7021 -14.4660 -14.4267 -14.3337 -14.2478 -14.2158 -14.1592
   -14.0368 -13.9621 -13.8672  -8.2460  -8.0308  -7.8706  -7.8478  -7.8321
    -7.8188  -7.8046  -7.7312  -7.7111  -7.5693  -7.5636  -7.4768  -3.4560
    -3.1736  -2.9779  -2.9262  -2.4576  -2.4318  -2.3763  -2.3077  -2.0855
    -1.9149  -1.8864  -1.7759  -1.7527  -1.6892  -1.6821  -1.6578  -1.5985
    -1.5849  -1.4981  -1.3762  -1.2927  -1.1931  -1.1677  -1.1640  -1.0358
    -0.9401  -0.9037  -0.7696  -0.7517  -0.6392  -0.5241  -0.4709  -0.3631
    -0.3215  -0.1717  -0.1435  -0.0471  -0.0381  -0.0327   0.0086   0.1095
     0.1427   0.1474   0.2551   0.2812   0.4438   0.4687   0.5243   0.6481
     0.6957   0.7463   0.8647   0.9901   1.0921   1.1024   1.1800   1.1840
     1.1930   1.1988   1.2089   1.2578   1.3464   1.4852   1.5054   1.5613
     1.6285   1.6672   1.7489   1.8062   1.8493   1.9633   2.1603   2.1662
     2.6452   2.6827   2.7408   2.8505   2.9146   3.0855   3.1216   4.2432
     4.7939   6.0557   6.1974   6.6356   7.0542   7.1241   7.2769   7.5615
     7.6047   7.6597   8.0127   8.1056   8.4076   9.0891   9.2252   9.2892
     9.3627

          k =-0.5000 0.2640 0.0000 ( 35556 PWs)   bands (ev):

   -38.9090 -35.6436 -22.7507 -22.6623 -22.5027 -22.4123 -20.0347 -20.0046
   -19.9064 -17.1139 -16.8944 -16.8068 -15.3119 -15.0143 -14.9642 -14.9216
   -14.8357 -14.6052 -14.3657 -14.3217 -14.2365 -14.1962 -14.1682 -14.1036
   -14.0812 -13.9585 -13.8953  -8.3811  -8.2999  -8.1859  -8.1595  -8.1490
    -8.1422  -8.0232  -8.0127  -7.9807  -7.8395  -7.7722  -7.7629  -3.8328
    -3.4788  -3.2110  -3.1086  -2.7963  -2.6923  -2.5978  -2.4654  -2.4421
    -2.4379  -2.4043  -2.3713  -2.3297  -2.3159  -2.2920  -1.9731  -1.7471
    -1.7280  -1.5620  -1.4965  -1.2408  -1.2129  -1.0534  -1.0395  -1.0042
    -1.0041  -0.9933  -0.9390  -0.8676  -0.7451  -0.7253  -0.7190  -0.7115
    -0.5623  -0.4654  -0.4050  -0.0201   0.1229   0.2315   0.3123   0.4284
     0.5916   0.6508   0.6597   0.7117   0.7811   0.8251   0.9104   1.0189
     1.0859   1.0982   1.1175   1.1431   1.1681   1.1792   1.3480   1.4093
     1.4276   1.5011   1.5062   1.6115   1.6279   1.6532   1.6903   1.7604
     1.7626   1.8386   1.8450   1.8640   1.8911   1.9706   2.1173   2.3244
     2.9108   2.9673   3.5288   3.6243   3.7936   3.9045   3.9190   4.3747
     4.9924   5.8643   6.0911   6.3045   6.6244   6.7020   7.2760   7.5030
     7.8912   8.2451   8.3722   8.3965   8.9334   9.2305   9.4853   9.5173
     9.5763

          k =-0.5000 0.3960 0.0000 ( 35540 PWs)   bands (ev):

   -38.9055 -35.6393 -22.6998 -22.6102 -22.4504 -22.3616 -20.0632 -20.0273
   -19.8932 -17.0923 -17.0236 -16.7312 -15.1988 -15.0046 -14.7812 -14.7498
   -14.5667 -14.5125 -14.2910 -14.2770 -14.2104 -14.1478 -14.1211 -14.0437
   -14.0285 -13.9696 -13.9592  -8.7472  -8.6751  -8.5223  -8.4443  -8.4370
    -8.4134  -8.3004  -8.2518  -8.0954  -8.0584  -7.8334  -7.8293  -4.3040
    -3.9502  -3.6344  -3.5161  -3.4165  -3.0071  -2.9797  -2.8961  -2.7721
    -2.6487  -2.6486  -2.6132  -2.3665  -2.3263  -2.3208  -2.2582  -1.9542
    -1.8025  -1.8003  -1.4314  -1.3896  -1.3052  -1.2511  -1.2250  -1.1782
    -1.1169  -1.0263  -0.9892  -0.9720  -0.9579  -0.8544  -0.8434  -0.8213
    -0.6912  -0.4285  -0.3935   0.1169   0.2592   0.3272   0.5359   0.6576
     0.8991   0.9101   0.9933   1.1299   1.1407   1.1922   1.2230   1.2679
     1.3045   1.3250   1.3533   1.3704   1.4906   1.5173   1.5280   1.5617
     1.6505   1.6553   1.7462   1.7805   1.9036   1.9059   1.9691   1.9724
     1.9993   2.0004   2.0778   2.1097   2.1200   2.1927   2.2813   2.6303
     2.7276   2.7890   3.8800   4.1985   4.4370   4.5008   4.5570   4.6131
     5.2279   5.5522   5.6340   6.1294   6.1978   6.5380   7.1539   7.5011
     8.1579   8.4635   8.8295   8.8620   9.0097   9.1303   9.3356   9.3662
     9.4055

          k =-0.5000-0.5279 0.0000 ( 35564 PWs)   bands (ev):

   -38.9040 -35.6375 -22.6784 -22.5882 -22.4283 -22.3403 -20.0875 -20.0242
   -19.8873 -17.0835 -17.0742 -16.6977 -15.1507 -15.0017 -14.6835 -14.6660
   -14.5088 -14.3394 -14.3363 -14.2531 -14.1657 -14.1481 -14.1240 -14.0974
   -14.0033 -13.9610 -13.9553  -8.8990  -8.8211  -8.6678  -8.5633  -8.5620
    -8.5531  -8.4161  -8.2704  -8.1953  -8.0862  -7.8601  -7.8463  -4.5015
    -4.1584  -3.8403  -3.7216  -3.6795  -3.2313  -3.2049  -2.9117  -2.8046
    -2.7361  -2.6839  -2.6405  -2.3566  -2.3486  -2.3256  -2.3117  -2.0224
    -1.8770  -1.8308  -1.4588  -1.4174  -1.4125  -1.3403  -1.3304  -1.2406
    -1.0928  -1.0663  -1.0648  -1.0525  -1.0248  -0.9552  -0.8739  -0.8352
    -0.6484  -0.3997  -0.3706   0.1515   0.2849   0.3479   0.6427   0.8167
     0.9780   1.0047   1.1151   1.1378   1.2405   1.2718   1.2946   1.3367
     1.3753   1.4185   1.4405   1.5327   1.5631   1.5846   1.6528   1.7607
     1.7827   1.8441   1.8652   1.8821   1.9828   2.0441   2.0466   2.0642
     2.0763   2.1310   2.2702   2.2727   2.2927   2.3593   2.4565   2.4736
     2.5390   2.7835   3.8997   4.3833   4.6340   4.6982   4.7496   4.8030
     5.3049   5.3257   5.5495   5.9023   5.9873   6.6370   7.0480   7.6982
     8.4154   8.6186   8.7059   8.8702   8.9648   8.9658   9.0364   9.2377
     9.4582

     the Fermi energy is     2.4973 ev

!    total energy              =   -1842.68308146 Ry
     Harris-Foulkes estimate   =   -1842.68308147 Ry
     estimated scf accuracy    <          8.5E-09 Ry

     The total energy is the sum of the following terms:

     one-electron contribution =  -29056.82147103 Ry
     hartree contribution      =   14679.59527720 Ry
     xc contribution           =    -621.54510702 Ry
     ewald contribution        =   13156.09590693 Ry
     smearing contrib. (-TS)   =      -0.00768755 Ry

     convergence has been achieved in  35 iterations

     negative rho (up, down):  1.485E-03 0.000E+00

     Forces acting on atoms (cartesian axes, Ry/au):

     atom    1 type  4   force =     0.00000000    0.00000000   -0.00014635
     atom    2 type  3   force =     0.00000000    0.00000000    0.00043334
     atom    3 type  4   force =     0.00000000    0.00000000   -0.00079171
     atom    4 type  1   force =     0.00000000    0.00000000   -0.00027978
     atom    5 type  3   force =     0.00000000    0.00000000    0.00052992
     atom    6 type  4   force =     0.00000000    0.00000000   -0.00000157
     atom    7 type  4   force =     0.00000000    0.00000000    0.00032501
     atom    8 type  2   force =     0.00000000    0.00000000   -0.00060110
     atom    9 type  4   force =     0.00000000    0.00000000    0.00032343
     atom   10 type  4   force =     0.00000000    0.00000000    0.00038532
     atom   11 type  3   force =     0.00000000    0.00000000    0.00014349
     atom   12 type  1   force =     0.00000000    0.00000000    0.00012852
     atom   13 type  4   force =     0.00000000    0.00000000    0.00332299
     atom   14 type  4   force =     0.00000000    0.00000000    0.00397859
     atom   15 type  3   force =     0.00000000    0.00000000   -0.00704788
     atom   16 type  4   force =     0.00000000    0.00000000    0.00613609
     atom   17 type  1   force =     0.00000000    0.00000000   -0.01972106
     atom   18 type  3   force =     0.00000000    0.00000000    0.00796836
     atom   19 type  4   force =     0.00000000    0.00000000    0.06091221
     atom   20 type  4   force =     0.00000000    0.00000000    0.06731428
     atom   21 type  2   force =     0.00000000    0.00000000   -0.08995095
     atom   22 type  4   force =     0.00000000    0.00000000   -0.00093824
     atom   23 type  4   force =     0.00000000    0.00000000    0.00688964
     atom   24 type  3   force =     0.00000000    0.00000000   -0.01981260
     atom   25 type  1   force =     0.00000000    0.00000000   -0.01780752
     atom   26 type  4   force =     0.00000000    0.00000000   -0.00193567
     atom   27 type  3   force =     0.00000000    0.00000000    0.00172962
     atom   28 type  4   force =     0.00000000    0.00000000   -0.00148636

     Total force =     0.132922     Total SCF correction =     0.000379


     Computing stress (Cartesian axis) and pressure


     negative rho (up, down):  1.485E-03 0.000E+00
          total   stress  (Ry/bohr**3)                   (kbar)     P=       -6.38
  -0.00000570   0.00000000   0.00000000           -0.84        0.00        0.00
   0.00000000   0.00002057   0.00000000            0.00        3.03        0.00
   0.00000000   0.00000000  -0.00014494            0.00        0.00      -21.32

 
     init_run     :     10.62s CPU     10.94s WALL (       1 calls)
     electrons    :    632.49s CPU    653.38s WALL (       1 calls)
     forces       :      4.02s CPU      4.22s WALL (       1 calls)
     stress       :     27.13s CPU     27.60s WALL (       1 calls)

     Called by init_run:
     wfcinit      :      7.73s CPU      7.85s WALL (       1 calls)
     potinit      :      0.62s CPU      0.63s WALL (       1 calls)
     hinit0       :      1.11s CPU      1.14s WALL (       1 calls)

     Called by electrons:
     c_bands      :    478.86s CPU    489.63s WALL (      35 calls)
     sum_band     :    101.20s CPU    106.63s WALL (      35 calls)
     v_of_rho     :      3.36s CPU      3.41s WALL (      36 calls)
     newd         :     28.49s CPU     33.07s WALL (      36 calls)
     mix_rho      :     20.90s CPU     21.06s WALL (      35 calls)

     Called by c_bands:
     init_us_2    :      3.46s CPU      3.48s WALL (    1825 calls)
     cegterg      :    452.10s CPU    462.26s WALL (     875 calls)

     Called by sum_band:
     sum_band:bec :      0.24s CPU      0.24s WALL (     875 calls)
     addusdens    :     22.11s CPU     26.87s WALL (      35 calls)

     Called by *egterg:
     h_psi        :    227.80s CPU    234.80s WALL (    3627 calls)
     s_psi        :     21.01s CPU     21.17s WALL (    3627 calls)
     g_psi        :      0.64s CPU      0.65s WALL (    2727 calls)
     cdiaghg      :    105.72s CPU    106.17s WALL (    3602 calls)

     Called by h_psi:
     h_psi:calbec :     28.21s CPU     29.26s WALL (    3627 calls)
     vloc_psi     :    177.18s CPU    179.77s WALL (    3627 calls)
     add_vuspsi   :     21.46s CPU     23.24s WALL (    3627 calls)

     General routines
     calbec       :     50.85s CPU     51.99s WALL (    4627 calls)
     fft          :      3.26s CPU      3.30s WALL (     491 calls)
     ffts         :     10.57s CPU     10.65s WALL (   15047 calls)
     fftw         :    206.92s CPU    209.83s WALL (  619117 calls)
     interpolate  :      0.26s CPU      0.26s WALL (      36 calls)
 
     Parallel routines
     fft_scatt_xy :     22.45s CPU     22.72s WALL (  634655 calls)
     fft_scatt_yz :    142.13s CPU    144.03s WALL (  634655 calls)
 
     PWSCF        :  11m15.32s CPU  11m37.24s WALL

 
   This run was terminated on:  22:41:13  21May2021            

=------------------------------------------------------------------------------=
   JOB DONE.
=------------------------------------------------------------------------------=
[1621651273.661367] [holy7c04304:61633:0]          mpool.c:43   UCX  WARN  object 0x3d0f080 was not returned to mpool ucp_requests
[1621651273.663795] [holy7c04404:117888:0]          mpool.c:43   UCX  WARN  object 0x40dcc00 was not returned to mpool ucp_requests
[1621651273.660762] [holy7c04307:186850:0]          mpool.c:43   UCX  WARN  object 0x33c4440 was not returned to mpool ucp_requests
[1621651273.663762] [holy7c04403:241999:0]          mpool.c:43   UCX  WARN  object 0x32b67c0 was not returned to mpool ucp_requests
[1621651273.669761] [holy7c04311:2285 :0]          mpool.c:43   UCX  WARN  object 0x32af5c0 was not returned to mpool ucp_requests
[1621651273.669790] [holy7c04311:2285 :0]          mpool.c:43   UCX  WARN  object 0x32af940 was not returned to mpool ucp_requests
[1621651273.661037] [holy7c04307:186848:0]          mpool.c:43   UCX  WARN  object 0x2bb3c80 was not returned to mpool ucp_requests
[1621651273.661056] [holy7c04307:186848:0]          mpool.c:43   UCX  WARN  object 0x2bb4000 was not returned to mpool ucp_requests
[1621651273.663801] [holy7c04403:242001:0]          mpool.c:43   UCX  WARN  object 0x4015480 was not returned to mpool ucp_requests
[1621651273.663820] [holy7c04403:242001:0]          mpool.c:43   UCX  WARN  object 0x40159c0 was not returned to mpool ucp_requests
[1621651273.672396] [holy7c04311:2284 :0]          mpool.c:43   UCX  WARN  object 0x291a3c0 was not returned to mpool ucp_requests
