
     Program PWSCF v.6.5 starts on 21May2021 at 22:38:50 

     This program is part of the open-source Quantum ESPRESSO suite
     for quantum simulation of materials; please cite
         "P. Giannozzi et al., J. Phys.:Condens. Matter 21 395502 (2009);
         "P. Giannozzi et al., J. Phys.:Condens. Matter 29 465901 (2017);
          URL http://www.quantum-espresso.org", 
     in publications or presentations arising from this work. More details at
     http://www.quantum-espresso.org/quote

     Parallel version (MPI), running on    20 processors

     MPI processes distributed on    10 nodes
     R & G space division:  proc/nbgrp/npool/nimage =      20
     Reading input from CBCO_CuO_cleave_0.25_sep.pwi
Warning: card &IONS ignored
Warning: card     ION_DYNAMICS = 'BFGS' ignored
Warning: card / ignored
Warning: card &CELL ignored
Warning: card     CELL_DYNAMICS = 'BFGS' ignored
Warning: card     PRESS_CONV_THR = 5 ignored
Warning: card / ignored

     Current dimensions of program PWSCF are:
     Max number of different atomic species (ntypx) = 10
     Max number of k-points (npk) =  40000
     Max angular momentum in pseudopotentials (lmaxx) =  3

     Subspace diagonalization in iterative solution of the eigenvalue problem:
     one sub-group per band group will be used
     scalapack distributed-memory algorithm (size of sub-group:  4*  4 procs)

     Message from routine setup:
     using ibrav=0 with symmetry is DISCOURAGED, use correct ibrav instead
 
     Parallelization info
     --------------------
     sticks:   dense  smooth     PW     G-vecs:    dense   smooth      PW
     Min         149      50     14                70565    13584    2122
     Max         150      51     15                70602    13609    2165
     Sum        2991    1007    289              1411709   271883   42721
 


     bravais-lattice index     =            0
     lattice parameter (alat)  =       7.4270  a.u.
     unit-cell volume          =    4326.9901 (a.u.)^3
     number of atoms/cell      =           28
     number of atomic types    =            4
     number of electrons       =       227.00
     number of Kohn-Sham states=          137
     kinetic-energy cutoff     =      60.0000  Ry
     charge density cutoff     =     720.0000  Ry
     convergence threshold     =      1.0E-08
     mixing beta               =       0.5000
     number of iterations used =           10  local-TF  mixing
     Exchange-correlation= SLA PW PBE PBE
                           (   1   4   3   4   0   0   0)

     celldm(1)=   7.427040  celldm(2)=   0.000000  celldm(3)=   0.000000
     celldm(4)=   0.000000  celldm(5)=   0.000000  celldm(6)=   0.000000

     crystal axes: (cart. coord. in units of alat)
               a(1) = (   1.000000   0.000000   0.000000 )  
               a(2) = (   0.000000   0.947081   0.000000 )  
               a(3) = (   0.000000   0.000000  11.151966 )  

     reciprocal axes: (cart. coord. in units 2 pi/alat)
               b(1) = (  1.000000  0.000000  0.000000 )  
               b(2) = (  0.000000  1.055876  0.000000 )  
               b(3) = (  0.000000  0.000000  0.089670 )  


     PseudoPot. # 1 for Ba read from file:
     ./pseudo/Ba.pbe-nsp-van.UPF
     MD5 check sum: 2b9c31dd849566dd297d80989662b7a0
     Pseudo is Ultrasoft + core correction, Zval = 10.0
     Generated by new atomic code, or converted to UPF format
     Using radial grid of  907 points,  6 beta functions with: 
                l(1) =   0
                l(2) =   0
                l(3) =   1
                l(4) =   1
                l(5) =   2
                l(6) =   2
     Q(r) pseudized with  6 coefficients,  rinner =    1.200   1.200   1.200
                                                       1.200   1.200

     PseudoPot. # 2 for Ca read from file:
     ./pseudo/Ca.pbe-nsp-van.UPF
     MD5 check sum: 6471098428ff4fa451746d08035ff179
     Pseudo is Ultrasoft + core correction, Zval = 10.0
     Generated by new atomic code, or converted to UPF format
     Using radial grid of  845 points,  6 beta functions with: 
                l(1) =   0
                l(2) =   0
                l(3) =   1
                l(4) =   1
                l(5) =   2
                l(6) =   2
     Q(r) pseudized with  6 coefficients,  rinner =    1.200   1.200   1.200
                                                       1.200   1.200

     PseudoPot. # 3 for Cu read from file:
     ./pseudo/Cu.pbe-n-van_ak.UPF
     MD5 check sum: 34e3282627ffb533726feb647e090d62
     Pseudo is Ultrasoft + core correction, Zval = 11.0
     Generated by new atomic code, or converted to UPF format
     Using radial grid of  867 points,  6 beta functions with: 
                l(1) =   0
                l(2) =   0
                l(3) =   1
                l(4) =   1
                l(5) =   2
                l(6) =   2
     Q(r) pseudized with  8 coefficients,  rinner =    1.400   1.400   1.400
                                                       1.400   1.400

     PseudoPot. # 4 for O  read from file:
     ./pseudo/O.pbe-van_ak.UPF
     MD5 check sum: 783ce7fe4c79b6a4916957118fed0856
     Pseudo is Ultrasoft, Zval =  6.0
     Generated by new atomic code, or converted to UPF format
     Using radial grid of  737 points,  4 beta functions with: 
                l(1) =   0
                l(2) =   0
                l(3) =   1
                l(4) =   1
     Q(r) pseudized with  8 coefficients,  rinner =    0.800   0.800   0.800


     atomic species   valence    mass     pseudopotential
        Ba            10.00   137.32700     Ba( 1.00)
        Ca            10.00    40.07800     Ca( 1.00)
        Cu            11.00    63.54600     Cu( 1.00)
        O              6.00    15.99900     O ( 1.00)

      4 Sym. Ops. (no inversion) found



   Cartesian axes

     site n.     atom                  positions (alat units)
         1           O   tau(   1) = (   0.0000000   0.4735409  -0.0469745  )
         2           Cu  tau(   2) = (   0.0000000   0.0000000   0.0264565  )
         3           O   tau(   3) = (   0.0000000   0.0000000   0.5030914  )
         4           Ba  tau(   4) = (   0.5000000   0.4735409   0.5690292  )
         5           Cu  tau(   5) = (   0.0000000   0.0000000   1.0374254  )
         6           O   tau(   6) = (   0.5000000   0.0000000   1.0768099  )
         7           O   tau(   7) = (   0.0000000   0.4735409   1.1116985  )
         8           Ca  tau(   8) = (   0.5000000   0.4735409   1.4976260  )
         9           O   tau(   9) = (   0.0000000   0.4735409   1.8667529  )
        10           O   tau(  10) = (   0.5000000   0.0000000   1.9044124  )
        11           Cu  tau(  11) = (   0.0000000   0.0000000   1.9512546  )
        12           Ba  tau(  12) = (   0.5000000   0.4735409   2.4295764  )
        13           O   tau(  13) = (   0.0000000   0.0000000   2.5115362  )
        14           O   tau(  14) = (   0.0000000   0.4735409   2.9918528  )
        15           Cu  tau(  15) = (   0.0000000   0.0000000   2.9919088  )
        16           O   tau(  16) = (   0.0000000   0.0000000   3.5358783  )
        17           Ba  tau(  17) = (   0.5000000   0.4735409   3.6178304  )
        18           Cu  tau(  18) = (   0.0000000   0.0000000   4.0961344  )
        19           O   tau(  19) = (   0.5000000   0.0000000   4.1429766  )
        20           O   tau(  20) = (   0.0000000   0.4735409   4.1806310  )
        21           Ca  tau(  21) = (   0.5000000   0.4735409   4.5497681  )
        22           O   tau(  22) = (   0.0000000   0.4735409   4.9356930  )
        23           O   tau(  23) = (   0.5000000   0.0000000   4.9705816  )
        24           Cu  tau(  24) = (   0.0000000   0.0000000   5.0099687  )
        25           Ba  tau(  25) = (   0.5000000   0.4735409   5.4783624  )
        26           O   tau(  26) = (   0.0000000   0.0000000   5.5442900  )
        27           Cu  tau(  27) = (   0.0000000   0.0000000   6.0209299  )
        28           O   tau(  28) = (   0.0000000   0.4735409   6.0943482  )

     number of k points=    25  Gaussian smearing, width (Ry)=  0.0100
                       cart. coord. in units 2pi/alat
        k(    1) = (   0.0000000   0.0000000   0.0000000), wk =   0.0312500
        k(    2) = (   0.0000000   0.1319845   0.0000000), wk =   0.0625000
        k(    3) = (   0.0000000   0.2639689   0.0000000), wk =   0.0625000
        k(    4) = (   0.0000000   0.3959534   0.0000000), wk =   0.0625000
        k(    5) = (   0.0000000  -0.5279378   0.0000000), wk =   0.0312500
        k(    6) = (   0.1250000   0.0000000   0.0000000), wk =   0.0625000
        k(    7) = (   0.1250000   0.1319845   0.0000000), wk =   0.1250000
        k(    8) = (   0.1250000   0.2639689   0.0000000), wk =   0.1250000
        k(    9) = (   0.1250000   0.3959534   0.0000000), wk =   0.1250000
        k(   10) = (   0.1250000  -0.5279378   0.0000000), wk =   0.0625000
        k(   11) = (   0.2500000   0.0000000   0.0000000), wk =   0.0625000
        k(   12) = (   0.2500000   0.1319845   0.0000000), wk =   0.1250000
        k(   13) = (   0.2500000   0.2639689   0.0000000), wk =   0.1250000
        k(   14) = (   0.2500000   0.3959534   0.0000000), wk =   0.1250000
        k(   15) = (   0.2500000  -0.5279378   0.0000000), wk =   0.0625000
        k(   16) = (   0.3750000   0.0000000   0.0000000), wk =   0.0625000
        k(   17) = (   0.3750000   0.1319845   0.0000000), wk =   0.1250000
        k(   18) = (   0.3750000   0.2639689   0.0000000), wk =   0.1250000
        k(   19) = (   0.3750000   0.3959534   0.0000000), wk =   0.1250000
        k(   20) = (   0.3750000  -0.5279378   0.0000000), wk =   0.0625000
        k(   21) = (  -0.5000000   0.0000000   0.0000000), wk =   0.0312500
        k(   22) = (  -0.5000000   0.1319845   0.0000000), wk =   0.0625000
        k(   23) = (  -0.5000000   0.2639689   0.0000000), wk =   0.0625000
        k(   24) = (  -0.5000000   0.3959534   0.0000000), wk =   0.0625000
        k(   25) = (  -0.5000000  -0.5279378   0.0000000), wk =   0.0312500

     Dense  grid:  1411709 G-vectors     FFT dimensions: (  64,  64, 720)

     Smooth grid:   271883 G-vectors     FFT dimensions: (  40,  36, 432)

     Estimated max dynamical RAM per process >     450.82 MB

     Estimated total dynamical RAM >       8.81 GB

     Initial potential from superposition of free atoms

     starting charge  226.84630, renormalised to  227.00000

     negative rho (up, down):  3.526E-03 0.000E+00
     Starting wfcs are  195 randomized atomic wfcs

     total cpu time spent up to now is       12.8 secs

     Self-consistent Calculation

     iteration #  1     ecut=    60.00 Ry     beta= 0.50
     Davidson diagonalization with overlap
     ethr =  1.00E-02,  avg # of iterations =  2.0

     negative rho (up, down):  4.990E-04 0.000E+00

     total cpu time spent up to now is       34.3 secs

     total energy              =   -1840.90969880 Ry
     Harris-Foulkes estimate   =   -1845.34353357 Ry
     estimated scf accuracy    <      19.10050645 Ry

     iteration #  2     ecut=    60.00 Ry     beta= 0.50
     Davidson diagonalization with overlap
     ethr =  8.41E-03,  avg # of iterations =  2.0

     negative rho (up, down):  2.617E-04 0.000E+00

     total cpu time spent up to now is       55.5 secs

     total energy              =   -1842.53125842 Ry
     Harris-Foulkes estimate   =   -1843.30444436 Ry
     estimated scf accuracy    <       3.61599403 Ry

     iteration #  3     ecut=    60.00 Ry     beta= 0.50
     Davidson diagonalization with overlap
     ethr =  1.59E-03,  avg # of iterations =  2.0

     negative rho (up, down):  2.490E-04 0.000E+00

     total cpu time spent up to now is       77.4 secs

     total energy              =   -1842.85129719 Ry
     Harris-Foulkes estimate   =   -1843.02570689 Ry
     estimated scf accuracy    <       2.81756730 Ry

     iteration #  4     ecut=    60.00 Ry     beta= 0.50
     Davidson diagonalization with overlap
     ethr =  1.24E-03,  avg # of iterations =  1.0

     negative rho (up, down):  2.426E-04 0.000E+00

     total cpu time spent up to now is       96.7 secs

     total energy              =   -1842.89097729 Ry
     Harris-Foulkes estimate   =   -1842.96259229 Ry
     estimated scf accuracy    <       0.56840102 Ry

     iteration #  5     ecut=    60.00 Ry     beta= 0.50
     Davidson diagonalization with overlap
     ethr =  2.50E-04,  avg # of iterations =  4.5

     negative rho (up, down):  2.424E-04 0.000E+00

     total cpu time spent up to now is      122.5 secs

     total energy              =   -1842.92718421 Ry
     Harris-Foulkes estimate   =   -1842.92722420 Ry
     estimated scf accuracy    <       1.12123884 Ry

     iteration #  6     ecut=    60.00 Ry     beta= 0.50
     Davidson diagonalization with overlap
     ethr =  2.50E-04,  avg # of iterations =  1.0

     negative rho (up, down):  2.434E-04 0.000E+00

     total cpu time spent up to now is      145.7 secs

     total energy              =   -1842.93196805 Ry
     Harris-Foulkes estimate   =   -1842.93206350 Ry
     estimated scf accuracy    <       1.11201842 Ry

     iteration #  7     ecut=    60.00 Ry     beta= 0.50
     Davidson diagonalization with overlap
     ethr =  2.50E-04,  avg # of iterations =  1.1

     negative rho (up, down):  2.397E-04 0.000E+00

     total cpu time spent up to now is      168.7 secs

     total energy              =   -1842.96425635 Ry
     Harris-Foulkes estimate   =   -1842.94807279 Ry
     estimated scf accuracy    <       0.33957168 Ry

     iteration #  8     ecut=    60.00 Ry     beta= 0.50
     Davidson diagonalization with overlap
     ethr =  1.50E-04,  avg # of iterations =  2.9

     negative rho (up, down):  2.384E-04 0.000E+00

     total cpu time spent up to now is      193.9 secs

     total energy              =   -1843.01319051 Ry
     Harris-Foulkes estimate   =   -1842.97594955 Ry
     estimated scf accuracy    <       0.37903970 Ry

     iteration #  9     ecut=    60.00 Ry     beta= 0.50
     Davidson diagonalization with overlap
     ethr =  1.50E-04,  avg # of iterations =  1.1

     negative rho (up, down):  2.366E-04 0.000E+00

     total cpu time spent up to now is      213.4 secs

     total energy              =   -1843.09473438 Ry
     Harris-Foulkes estimate   =   -1843.02143863 Ry
     estimated scf accuracy    <       0.52270902 Ry

     iteration # 10     ecut=    60.00 Ry     beta= 0.50
     Davidson diagonalization with overlap
     ethr =  1.50E-04,  avg # of iterations =  1.4

     negative rho (up, down):  2.359E-04 0.000E+00

     total cpu time spent up to now is      232.6 secs

     total energy              =   -1843.19767854 Ry
     Harris-Foulkes estimate   =   -1843.10525875 Ry
     estimated scf accuracy    <       0.82303139 Ry

     iteration # 11     ecut=    60.00 Ry     beta= 0.50
     Davidson diagonalization with overlap
     ethr =  1.50E-04,  avg # of iterations =  4.2

     negative rho (up, down):  2.356E-04 0.000E+00

     total cpu time spent up to now is      256.6 secs

     total energy              =   -1843.28049336 Ry
     Harris-Foulkes estimate   =   -1843.20805839 Ry
     estimated scf accuracy    <       1.22197752 Ry

     iteration # 12     ecut=    60.00 Ry     beta= 0.50
     Davidson diagonalization with overlap
     ethr =  1.50E-04,  avg # of iterations =  1.0

     negative rho (up, down):  2.273E-03 0.000E+00

     total cpu time spent up to now is      275.8 secs

     total energy              =   -1843.54089343 Ry
     Harris-Foulkes estimate   =   -1843.28498706 Ry
     estimated scf accuracy    <       1.50154490 Ry

     iteration # 13     ecut=    60.00 Ry     beta= 0.50
     Davidson diagonalization with overlap
     ethr =  1.50E-04,  avg # of iterations =  4.7

     negative rho (up, down):  9.561E-03 0.000E+00

     total cpu time spent up to now is      300.7 secs

     total energy              =   -1843.77979129 Ry
     Harris-Foulkes estimate   =   -1843.56655394 Ry
     estimated scf accuracy    <       2.58732800 Ry

     iteration # 14     ecut=    60.00 Ry     beta= 0.50
     Davidson diagonalization with overlap
     ethr =  1.50E-04,  avg # of iterations =  3.8

     negative rho (up, down):  2.337E-02 0.000E+00

     total cpu time spent up to now is      323.3 secs

     total energy              =   -1844.15987143 Ry
     Harris-Foulkes estimate   =   -1843.79342106 Ry
     estimated scf accuracy    <       3.42518581 Ry

     iteration # 15     ecut=    60.00 Ry     beta= 0.50
     Davidson diagonalization with overlap
     c_bands:  1 eigenvalues not converged
     ethr =  1.50E-04,  avg # of iterations =  5.6

     negative rho (up, down):  3.433E-02 0.000E+00

     total cpu time spent up to now is      350.0 secs

     total energy              =   -1844.51685100 Ry
     Harris-Foulkes estimate   =   -1844.18818817 Ry
     estimated scf accuracy    <       5.01403513 Ry

     iteration # 16     ecut=    60.00 Ry     beta= 0.50
     Davidson diagonalization with overlap
     ethr =  1.50E-04,  avg # of iterations =  3.6

     negative rho (up, down):  6.819E-04 0.000E+00

     total cpu time spent up to now is      372.5 secs

     total energy              =   -1841.94853848 Ry
     Harris-Foulkes estimate   =   -1844.53092662 Ry
     estimated scf accuracy    <       6.23452103 Ry

     iteration # 17     ecut=    60.00 Ry     beta= 0.50
     Davidson diagonalization with overlap
     ethr =  1.50E-04,  avg # of iterations =  5.8

     negative rho (up, down):  1.588E-03 0.000E+00

     total cpu time spent up to now is      416.8 secs

     total energy              =   -1842.90264999 Ry
     Harris-Foulkes estimate   =   -1842.90434048 Ry
     estimated scf accuracy    <       0.14569513 Ry

     iteration # 18     ecut=    60.00 Ry     beta= 0.50
     Davidson diagonalization with overlap
     ethr =  6.42E-05,  avg # of iterations =  1.0

     negative rho (up, down):  4.059E-03 0.000E+00

     total cpu time spent up to now is      434.0 secs

     total energy              =   -1842.90184112 Ry
     Harris-Foulkes estimate   =   -1842.90338379 Ry
     estimated scf accuracy    <       0.09893550 Ry

     iteration # 19     ecut=    60.00 Ry     beta= 0.50
     Davidson diagonalization with overlap
     ethr =  4.36E-05,  avg # of iterations =  1.0

     negative rho (up, down):  1.041E-02 0.000E+00

     total cpu time spent up to now is      453.5 secs

     total energy              =   -1842.90070194 Ry
     Harris-Foulkes estimate   =   -1842.90220356 Ry
     estimated scf accuracy    <       0.06735458 Ry

     iteration # 20     ecut=    60.00 Ry     beta= 0.50
     Davidson diagonalization with overlap
     ethr =  2.97E-05,  avg # of iterations =  1.9

     negative rho (up, down):  2.126E-02 0.000E+00

     total cpu time spent up to now is      473.6 secs

     total energy              =   -1842.90001042 Ry
     Harris-Foulkes estimate   =   -1842.90101378 Ry
     estimated scf accuracy    <       0.05413593 Ry

     iteration # 21     ecut=    60.00 Ry     beta= 0.50
     Davidson diagonalization with overlap
     ethr =  2.38E-05,  avg # of iterations =  4.9

     negative rho (up, down):  1.490E-02 0.000E+00

     total cpu time spent up to now is      500.3 secs

     total energy              =   -1842.89874725 Ry
     Harris-Foulkes estimate   =   -1842.90027075 Ry
     estimated scf accuracy    <       0.03322616 Ry

     iteration # 22     ecut=    60.00 Ry     beta= 0.50
     Davidson diagonalization with overlap
     ethr =  1.46E-05,  avg # of iterations =  2.2

     negative rho (up, down):  1.835E-02 0.000E+00

     total cpu time spent up to now is      522.0 secs

     total energy              =   -1842.89695437 Ry
     Harris-Foulkes estimate   =   -1842.89895710 Ry
     estimated scf accuracy    <       0.03621250 Ry

     iteration # 23     ecut=    60.00 Ry     beta= 0.50
     Davidson diagonalization with overlap
     ethr =  1.46E-05,  avg # of iterations =  5.5

     negative rho (up, down):  2.111E-02 0.000E+00

     total cpu time spent up to now is      549.4 secs

     total energy              =   -1842.89462130 Ry
     Harris-Foulkes estimate   =   -1842.89741881 Ry
     estimated scf accuracy    <       0.02112132 Ry

     iteration # 24     ecut=    60.00 Ry     beta= 0.50
     Davidson diagonalization with overlap
     ethr =  9.30E-06,  avg # of iterations =  6.9

     negative rho (up, down):  2.131E-02 0.000E+00

     total cpu time spent up to now is      581.3 secs

     total energy              =   -1842.89276177 Ry
     Harris-Foulkes estimate   =   -1842.89503455 Ry
     estimated scf accuracy    <       0.01377871 Ry

     iteration # 25     ecut=    60.00 Ry     beta= 0.50
     Davidson diagonalization with overlap
     ethr =  6.07E-06,  avg # of iterations =  6.0

     negative rho (up, down):  2.112E-02 0.000E+00

     total cpu time spent up to now is      608.8 secs

     total energy              =   -1842.89051695 Ry
     Harris-Foulkes estimate   =   -1842.89300934 Ry
     estimated scf accuracy    <       0.01010162 Ry

     iteration # 26     ecut=    60.00 Ry     beta= 0.50
     Davidson diagonalization with overlap
     ethr =  4.45E-06,  avg # of iterations =  5.6

     negative rho (up, down):  2.849E-02 0.000E+00

     total cpu time spent up to now is      633.4 secs

     total energy              =   -1842.88942679 Ry
     Harris-Foulkes estimate   =   -1842.89076577 Ry
     estimated scf accuracy    <       0.00956820 Ry

     iteration # 27     ecut=    60.00 Ry     beta= 0.50
     Davidson diagonalization with overlap
     ethr =  4.22E-06,  avg # of iterations =  8.0

     negative rho (up, down):  2.441E-02 0.000E+00

     total cpu time spent up to now is      663.6 secs

     total energy              =   -1842.88750933 Ry
     Harris-Foulkes estimate   =   -1842.88954271 Ry
     estimated scf accuracy    <       0.00676667 Ry

     iteration # 28     ecut=    60.00 Ry     beta= 0.50
     Davidson diagonalization with overlap
     c_bands:  1 eigenvalues not converged
     ethr =  2.98E-06,  avg # of iterations =  8.6

     negative rho (up, down):  2.268E-02 0.000E+00

     total cpu time spent up to now is      695.0 secs

     total energy              =   -1842.88723057 Ry
     Harris-Foulkes estimate   =   -1842.88770090 Ry
     estimated scf accuracy    <       0.00832459 Ry

     iteration # 29     ecut=    60.00 Ry     beta= 0.50
     Davidson diagonalization with overlap
     ethr =  2.98E-06,  avg # of iterations =  8.7

     negative rho (up, down):  1.834E-02 0.000E+00

     total cpu time spent up to now is      726.2 secs

     total energy              =   -1842.88718565 Ry
     Harris-Foulkes estimate   =   -1842.88733836 Ry
     estimated scf accuracy    <       0.00178205 Ry

     iteration # 30     ecut=    60.00 Ry     beta= 0.50
     Davidson diagonalization with overlap
     ethr =  7.85E-07,  avg # of iterations =  3.3

     negative rho (up, down):  1.167E-02 0.000E+00

     total cpu time spent up to now is      749.1 secs

     total energy              =   -1842.88699147 Ry
     Harris-Foulkes estimate   =   -1842.88720727 Ry
     estimated scf accuracy    <       0.00081697 Ry

     iteration # 31     ecut=    60.00 Ry     beta= 0.50
     Davidson diagonalization with overlap
     ethr =  3.60E-07,  avg # of iterations =  6.6

     negative rho (up, down):  4.536E-03 0.000E+00

     total cpu time spent up to now is      776.7 secs

     total energy              =   -1842.88687624 Ry
     Harris-Foulkes estimate   =   -1842.88701797 Ry
     estimated scf accuracy    <       0.00064780 Ry

     iteration # 32     ecut=    60.00 Ry     beta= 0.50
     Davidson diagonalization with overlap
     c_bands:  1 eigenvalues not converged
     c_bands:  1 eigenvalues not converged
     ethr =  2.85E-07,  avg # of iterations =  9.2

     negative rho (up, down):  2.603E-03 0.000E+00

     total cpu time spent up to now is      808.3 secs

     total energy              =   -1842.88690094 Ry
     Harris-Foulkes estimate   =   -1842.88688780 Ry
     estimated scf accuracy    <       0.00024811 Ry

     iteration # 33     ecut=    60.00 Ry     beta= 0.50
     Davidson diagonalization with overlap
     c_bands:  2 eigenvalues not converged
     ethr =  1.09E-07,  avg # of iterations =  5.3

     negative rho (up, down):  2.567E-03 0.000E+00

     total cpu time spent up to now is      833.3 secs

     total energy              =   -1842.88693307 Ry
     Harris-Foulkes estimate   =   -1842.88690637 Ry
     estimated scf accuracy    <       0.00011627 Ry

     iteration # 34     ecut=    60.00 Ry     beta= 0.50
     Davidson diagonalization with overlap
     c_bands:  1 eigenvalues not converged
     ethr =  5.12E-08,  avg # of iterations =  4.5

     negative rho (up, down):  1.465E-03 0.000E+00

     total cpu time spent up to now is      856.4 secs

     total energy              =   -1842.88693155 Ry
     Harris-Foulkes estimate   =   -1842.88693769 Ry
     estimated scf accuracy    <       0.00009729 Ry

     iteration # 35     ecut=    60.00 Ry     beta= 0.50
     Davidson diagonalization with overlap
     c_bands:  1 eigenvalues not converged
     c_bands:  1 eigenvalues not converged
     ethr =  4.29E-08,  avg # of iterations =  5.7

     negative rho (up, down):  1.505E-03 0.000E+00

     total cpu time spent up to now is      882.8 secs

     total energy              =   -1842.88693388 Ry
     Harris-Foulkes estimate   =   -1842.88693408 Ry
     estimated scf accuracy    <       0.00001947 Ry

     iteration # 36     ecut=    60.00 Ry     beta= 0.50
     Davidson diagonalization with overlap
     ethr =  8.58E-09,  avg # of iterations =  1.2

     negative rho (up, down):  1.350E-03 0.000E+00

     total cpu time spent up to now is      901.8 secs

     total energy              =   -1842.88693427 Ry
     Harris-Foulkes estimate   =   -1842.88693478 Ry
     estimated scf accuracy    <       0.00001206 Ry

     iteration # 37     ecut=    60.00 Ry     beta= 0.50
     Davidson diagonalization with overlap
     ethr =  5.31E-09,  avg # of iterations =  1.0

     negative rho (up, down):  1.336E-03 0.000E+00

     total cpu time spent up to now is      920.8 secs

     total energy              =   -1842.88693438 Ry
     Harris-Foulkes estimate   =   -1842.88693464 Ry
     estimated scf accuracy    <       0.00000326 Ry

     iteration # 38     ecut=    60.00 Ry     beta= 0.50
     Davidson diagonalization with overlap
     ethr =  1.44E-09,  avg # of iterations =  1.6

     negative rho (up, down):  1.420E-03 0.000E+00

     total cpu time spent up to now is      939.4 secs

     total energy              =   -1842.88693440 Ry
     Harris-Foulkes estimate   =   -1842.88693455 Ry
     estimated scf accuracy    <       0.00000115 Ry

     iteration # 39     ecut=    60.00 Ry     beta= 0.50
     Davidson diagonalization with overlap
     ethr =  5.08E-10,  avg # of iterations =  2.2

     negative rho (up, down):  1.454E-03 0.000E+00

     total cpu time spent up to now is      961.1 secs

     total energy              =   -1842.88693439 Ry
     Harris-Foulkes estimate   =   -1842.88693451 Ry
     estimated scf accuracy    <       0.00000105 Ry

     iteration # 40     ecut=    60.00 Ry     beta= 0.50
     Davidson diagonalization with overlap
     ethr =  4.61E-10,  avg # of iterations =  1.0

     negative rho (up, down):  1.502E-03 0.000E+00

     total cpu time spent up to now is      978.8 secs

     total energy              =   -1842.88693429 Ry
     Harris-Foulkes estimate   =   -1842.88693441 Ry
     estimated scf accuracy    <       0.00000031 Ry

     iteration # 41     ecut=    60.00 Ry     beta= 0.50
     Davidson diagonalization with overlap
     ethr =  1.36E-10,  avg # of iterations =  1.7

     negative rho (up, down):  1.518E-03 0.000E+00

     total cpu time spent up to now is      997.4 secs

     total energy              =   -1842.88693428 Ry
     Harris-Foulkes estimate   =   -1842.88693431 Ry
     estimated scf accuracy    <       0.00000022 Ry

     iteration # 42     ecut=    60.00 Ry     beta= 0.50
     Davidson diagonalization with overlap
     ethr =  9.79E-11,  avg # of iterations =  1.0

     negative rho (up, down):  1.526E-03 0.000E+00

     total cpu time spent up to now is     1015.8 secs

     total energy              =   -1842.88693427 Ry
     Harris-Foulkes estimate   =   -1842.88693428 Ry
     estimated scf accuracy    <       0.00000002 Ry

     iteration # 43     ecut=    60.00 Ry     beta= 0.50
     Davidson diagonalization with overlap
     ethr =  9.94E-12,  avg # of iterations =  2.6

     negative rho (up, down):  1.533E-03 0.000E+00

     total cpu time spent up to now is     1037.2 secs

     total energy              =   -1842.88693426 Ry
     Harris-Foulkes estimate   =   -1842.88693427 Ry
     estimated scf accuracy    <       0.00000002 Ry

     iteration # 44     ecut=    60.00 Ry     beta= 0.50
     Davidson diagonalization with overlap
     ethr =  9.63E-12,  avg # of iterations =  1.0

     negative rho (up, down):  1.527E-03 0.000E+00

     total cpu time spent up to now is     1055.3 secs

     End of self-consistent calculation

          k = 0.0000 0.0000 0.0000 ( 34019 PWs)   bands (ev):

   -35.5388 -35.5290 -22.7311 -22.7301 -22.4841 -22.4269 -17.0424 -17.0335
   -16.5903 -16.5808 -16.5788 -16.5686 -15.2497 -15.2425 -14.6423 -14.6117
   -14.6087 -14.5219 -14.5128 -14.1209 -14.1199 -13.9265 -13.9225 -13.7784
   -13.7653 -13.6804 -13.2121  -7.8626  -7.8614  -7.8248  -7.8239  -7.6593
    -7.6319  -7.6309  -7.6225  -7.5360  -7.4429  -7.3666  -7.2701  -2.2688
    -2.2684  -1.9059  -1.7717  -1.7704  -1.7275  -1.7182  -1.6145  -1.6080
    -1.4927  -1.4794  -1.4355  -1.4284  -1.1596  -1.1583  -0.8658  -0.8043
    -0.4520  -0.3977  -0.3970  -0.3155  -0.3154  -0.2692  -0.2601  -0.2383
    -0.2066  -0.2043  -0.2038  -0.2032  -0.1979  -0.1861  -0.1217  -0.1023
     0.0237   0.0240   0.0657   0.0921   0.1582   0.1593   0.1599   0.1608
     0.1858   0.2164   0.2305   0.2331   0.3389   0.3550   0.3737   0.3841
     0.6774   0.8038   0.8729   0.9425   0.9433   1.0038   1.0420   1.2380
     1.2414   1.4029   1.4094   1.4268   1.4402   1.5464   1.5571   1.5742
     1.5876   1.6086   1.6127   1.8596   1.8783   1.9641   2.0964   2.0987
     2.2190   2.2400   2.3301   2.3355   2.3452   2.5945   2.6016   5.2729
     5.2797   5.7909   6.2584   6.4717   6.8183   6.8266   7.1909   7.2974
     8.0295   8.1523   8.3221   8.3689   8.5667   8.6810   8.7577   9.1592
     9.3492

          k = 0.0000 0.1320 0.0000 ( 34015 PWs)   bands (ev):

   -35.5370 -35.5272 -22.7044 -22.7034 -22.4585 -22.4022 -17.0062 -16.9973
   -16.6512 -16.6411 -16.5879 -16.5785 -15.1609 -15.1541 -14.6198 -14.6165
   -14.5853 -14.4948 -14.4844 -14.1305 -14.1293 -13.9308 -13.9272 -13.8277
   -13.8059 -13.7232 -13.2680  -7.8621  -7.8610  -7.7770  -7.7760  -7.6744
    -7.6731  -7.6598  -7.6179  -7.4907  -7.4151  -7.3998  -7.3114  -2.3278
    -2.3268  -2.1327  -2.1171  -2.0475  -2.0169  -1.8820  -1.5937  -1.5878
    -1.5839  -1.5827  -1.4762  -1.4753  -1.4620  -1.2900  -1.2643  -0.8767
    -0.6622  -0.5715  -0.5598  -0.4952  -0.4945  -0.4016  -0.4008  -0.3419
    -0.3031  -0.2799  -0.2561  -0.1564  -0.1290  -0.1055  -0.0897  -0.0870
    -0.0861   0.0451   0.0455   0.0603   0.0657   0.1534   0.1828   0.1838
     0.1866   0.2011   0.2284   0.2293   0.3287   0.3409   0.4179   0.4257
     0.9378   1.0002   1.0039   1.0929   1.1361   1.1398   1.1406   1.1994
     1.2181   1.2369   1.2485   1.4786   1.5001   1.5149   1.5364   1.6149
     1.6544   1.6617   1.7608   1.8286   1.8622   1.9351   2.0411   2.0559
     2.0672   2.1252   2.1934   2.5967   2.8219   2.8829   2.9074   5.6526
     5.6546   6.1074   6.5653   6.6889   7.1245   7.1298   7.5138   7.5851
     8.2035   8.3446   8.5275   8.5752   8.7878   8.8347   9.0032   9.2905
     9.4795

          k = 0.0000 0.2640 0.0000 ( 33931 PWs)   bands (ev):

   -35.5326 -35.5228 -22.6385 -22.6375 -22.3954 -22.3414 -16.9143 -16.9054
   -16.8054 -16.7954 -16.5823 -16.5728 -14.9598 -14.9543 -14.6684 -14.6641
   -14.4614 -14.4290 -14.4171 -14.1182 -14.1160 -13.9688 -13.9671 -13.9549
   -13.8971 -13.7932 -13.3922  -7.8617  -7.8606  -7.7646  -7.7635  -7.6638
    -7.6566  -7.6556  -7.6065  -7.5204  -7.4004  -7.3772  -7.2919  -2.7759
    -2.7711  -2.6173  -2.5708  -2.4715  -2.3678  -2.3671  -2.2202  -2.2194
    -1.9050  -1.5388  -1.5341  -1.4849  -1.4322  -1.4194  -1.4058  -1.2870
    -0.9559  -0.8757  -0.7594  -0.7470  -0.7461  -0.6653  -0.5995  -0.5931
    -0.5281  -0.4927  -0.4853  -0.4439  -0.4380  -0.4359  -0.4294  -0.2779
    -0.2446   0.0733   0.0737   0.0976   0.1167   0.1525   0.1556   0.2405
     0.2464   0.2819   0.4232   0.4353   0.6668   0.6763   0.7557   0.7627
     1.0223   1.0298   1.0981   1.1737   1.1935   1.1979   1.2253   1.2271
     1.2649   1.2804   1.3393   1.3881   1.4185   1.5022   1.6342   1.7263
     1.7902   1.8118   1.8797   1.9554   1.9638   1.9995   2.0256   2.0342
     2.0351   2.1459   2.2870   2.7131   3.0936   3.1078   3.5871   6.5473
     6.5481   6.8143   7.3525   7.3662   7.9470   7.9502   8.3670   8.4070
     8.7076   8.8229   8.8494   8.9517   9.0639   9.1774   9.3659   9.3744
     9.4144

          k = 0.0000 0.3960 0.0000 ( 33860 PWs)   bands (ev):

   -35.5282 -35.5184 -22.5704 -22.5693 -22.3303 -22.2787 -16.9418 -16.9316
   -16.8127 -16.8038 -16.5766 -16.5672 -14.8746 -14.8735 -14.6338 -14.6222
   -14.4317 -14.3643 -14.2782 -14.0850 -14.0622 -14.0528 -14.0436 -14.0321
   -13.9912 -13.8610 -13.4998  -7.8616  -7.8605  -7.8427  -7.8417  -7.6645
    -7.6135  -7.5938  -7.5281  -7.5271  -7.4781  -7.2568  -7.1779  -3.2757
    -3.2301  -3.2240  -3.0145  -3.0056  -2.9350  -2.9340  -2.3109  -2.3104
    -1.9395  -1.7962  -1.7578  -1.6586  -1.4727  -1.4685  -1.3255  -1.3097
    -1.1909  -1.0861  -1.0167  -1.0153  -0.9196  -0.8281  -0.8137  -0.8115
    -0.7909  -0.7175  -0.7129  -0.6919  -0.6803  -0.6578  -0.6010  -0.2941
    -0.2622  -0.0578   0.0903   0.0908   0.1092   0.1808   0.1881   0.2086
     0.2220   0.2418   0.5470   0.5591   0.8342   0.8417   0.9752   0.9829
     1.0123   1.0224   1.0539   1.1113   1.1349   1.1542   1.1963   1.1969
     1.1991   1.4185   1.6100   1.6153   1.6731   1.6950   1.7712   1.7830
     1.7917   1.8101   1.9741   2.0186   2.0333   2.0401   2.2797   2.2858
     2.3200   2.4285   2.4294   2.6225   2.9851   3.0046   4.0136   7.4868
     7.4945   7.5192   8.2987   8.3241   8.6949   8.7399   8.7565   9.1371
     9.1430   9.1459   9.1542   9.2358   9.4436   9.5191   9.5523   9.5794
     9.7632

          k = 0.0000-0.5279 0.0000 ( 33926 PWs)   bands (ev):

   -35.5263 -35.5166 -22.5414 -22.5404 -22.3027 -22.2522 -16.9939 -16.9837
   -16.7678 -16.7590 -16.5743 -16.5648 -14.9165 -14.9151 -14.5168 -14.5123
   -14.4643 -14.3562 -14.1865 -14.1251 -14.0798 -14.0783 -14.0612 -14.0126
   -14.0112 -13.9153 -13.5409  -7.8724  -7.8713  -7.8612  -7.8601  -7.6560
    -7.6557  -7.5886  -7.5088  -7.4722  -7.4712  -7.2047  -7.1286  -3.5406
    -3.4083  -3.4069  -3.1885  -3.1816  -3.1609  -3.1580  -2.3270  -2.3266
    -1.9520  -1.9192  -1.8863  -1.7944  -1.4394  -1.4347  -1.2881  -1.2513
    -1.2284  -1.1766  -1.1410  -1.1395  -0.9951  -0.9560  -0.9385  -0.9316
    -0.8362  -0.7830  -0.7818  -0.7765  -0.7756  -0.7334  -0.6792  -0.2598
    -0.2254  -0.1379   0.0931   0.0959   0.0965   0.1745   0.1866   0.2254
     0.2324   0.2416   0.4740   0.4837   0.8592   0.8707   0.9055   0.9173
     0.9636   1.0638   1.0716   1.0809   1.1793   1.1800   1.2107   1.3396
     1.3769   1.4021   1.5761   1.6117   1.7697   1.7893   1.7913   1.8302
     2.0683   2.0693   2.0719   2.0731   2.0925   2.1139   2.1194   2.3017
     2.4583   2.5649   2.5900   2.5909   2.8056   2.8284   4.1368   7.8682
     7.9068   7.9121   8.5535   8.9119   8.9983   9.0109   9.0531   9.0531
     9.0621   9.2424   9.3755   9.4036   9.4411   9.5031   9.9465  10.0595
    10.1811

          k = 0.1250 0.0000 0.0000 ( 34005 PWs)   bands (ev):

   -35.5377 -35.5280 -22.7131 -22.7120 -22.4667 -22.4106 -17.0090 -17.0001
   -16.6705 -16.6613 -16.5774 -16.5673 -15.1470 -15.1402 -14.6617 -14.6574
   -14.6501 -14.5280 -14.5183 -14.1299 -14.1289 -13.9379 -13.9342 -13.7986
   -13.7865 -13.7185 -13.2669  -7.8883  -7.8871  -7.7631  -7.7620  -7.6907
    -7.6457  -7.5995  -7.5985  -7.4704  -7.3923  -7.3360  -7.2415  -2.3116
    -2.3111  -1.9657  -1.8136  -1.8116  -1.7683  -1.7505  -1.7489  -1.7248
    -1.6975  -1.6890  -1.4033  -1.3956  -1.1575  -1.1563  -0.8870  -0.8425
    -0.5828  -0.5744  -0.4717  -0.4533  -0.4531  -0.3933  -0.3422  -0.3369
    -0.2787  -0.2781  -0.2740  -0.2138  -0.2079  -0.1806  -0.1386  -0.1144
    -0.0086   0.0058   0.0578   0.1163   0.1526   0.1535   0.1655   0.1817
     0.2547   0.2553   0.2726   0.2805   0.4084   0.4232   0.4607   0.4833
     0.5985   0.8478   0.8540   0.9059   0.9689   1.0327   1.0953   1.2396
     1.2465   1.2691   1.2844   1.4180   1.4265   1.5273   1.5398   1.5691
     1.5996   1.6179   1.8619   1.9476   1.9817   2.0469   2.0501   2.1322
     2.1774   2.1962   2.2594   2.3815   2.3993   2.6309   2.6336   5.4561
     5.4586   6.0034   6.4867   6.6249   7.0351   7.0390   7.3957   7.5194
     8.1753   8.2813   8.4760   8.5481   8.8337   8.8556   9.0314   9.2532
     9.5541

          k = 0.1250 0.1320 0.0000 ( 33966 PWs)   bands (ev):

   -35.5359 -35.5261 -22.6872 -22.6862 -22.4418 -22.3866 -16.9739 -16.9650
   -16.6734 -16.6641 -16.6406 -16.6306 -15.0656 -15.0591 -14.6532 -14.6508
   -14.6012 -14.4981 -14.4875 -14.1309 -14.1298 -13.9421 -13.9396 -13.8423
   -13.8229 -13.7527 -13.3089  -7.9075  -7.9064  -7.8254  -7.8243  -7.6885
    -7.6437  -7.5630  -7.5606  -7.5592  -7.4839  -7.2970  -7.1988  -2.3647
    -2.3634  -2.1361  -2.1082  -2.0372  -1.9978  -1.8978  -1.7925  -1.7902
    -1.7379  -1.7036  -1.5780  -1.5767  -1.4850  -1.2855  -1.2623  -0.9268
    -0.7536  -0.7162  -0.6826  -0.6165  -0.6127  -0.5055  -0.4956  -0.4426
    -0.4416  -0.3645  -0.2883  -0.2141  -0.2005  -0.1530  -0.1291  -0.0821
    -0.0274   0.0185   0.0313   0.0626   0.0691   0.1867   0.1974   0.2143
     0.2282   0.2580   0.2651   0.2891   0.3412   0.3530   0.5657   0.5846
     0.9324   1.0360   1.0816   1.0959   1.1103   1.1843   1.2099   1.2706
     1.2912   1.3228   1.3321   1.3523   1.3622   1.3770   1.4071   1.6422
     1.6528   1.6617   1.7216   1.7224   1.8228   1.8289   2.0485   2.3604
     2.3980   2.4067   2.5342   2.6528   2.8371   2.8884   2.9129   5.7956
     5.7967   6.2589   6.7463   6.8181   7.3321   7.3344   7.7093   7.8045
     8.3472   8.4630   8.6569   8.7276   8.9379   9.0242   9.2110   9.3322
     9.4893

          k = 0.1250 0.2640 0.0000 ( 33895 PWs)   bands (ev):

   -35.5315 -35.5217 -22.6234 -22.6223 -22.3806 -22.3275 -16.8849 -16.8759
   -16.8023 -16.7923 -16.6531 -16.6439 -14.8891 -14.8845 -14.6562 -14.6507
   -14.4711 -14.4216 -14.4135 -14.1135 -14.1120 -13.9923 -13.9881 -13.9444
   -13.8949 -13.8044 -13.4033  -7.9764  -7.9754  -7.8625  -7.8613  -7.7182
    -7.6615  -7.6222  -7.5913  -7.5523  -7.5512  -7.2923  -7.1940  -2.7997
    -2.7944  -2.6175  -2.5767  -2.4681  -2.3683  -2.3676  -2.2196  -2.2188
    -1.9338  -1.7423  -1.7407  -1.6950  -1.6505  -1.4742  -1.4383  -1.2962
    -0.9848  -0.9336  -0.9249  -0.8905  -0.8172  -0.8046  -0.7441  -0.6891
    -0.6330  -0.6318  -0.5352  -0.5233  -0.4604  -0.4455  -0.3879  -0.2789
    -0.2595  -0.0940  -0.0432   0.0119   0.0973   0.1837   0.2470   0.2602
     0.4132   0.4734   0.5480   0.5545   0.7944   0.8059   0.8508   0.8548
     1.0107   1.0818   1.0827   1.1566   1.1655   1.2592   1.3540   1.3610
     1.3727   1.3870   1.4475   1.4601   1.4833   1.5589   1.5796   1.6431
     1.6541   1.6918   1.7101   1.8849   1.9978   2.0000   2.0768   2.3703
     2.5935   2.6041   2.7516   2.8739   3.1010   3.1208   3.5841   6.6083
     6.6091   6.8142   7.4330   7.4426   8.1125   8.1140   8.5551   8.5950
     8.8211   8.8901   8.8976   8.9972   9.1195   9.1522   9.2187   9.2735
     9.4300

          k = 0.1250 0.3960 0.0000 ( 33906 PWs)   bands (ev):

   -35.5271 -35.5174 -22.5574 -22.5564 -22.3175 -22.2666 -16.9366 -16.9265
   -16.7862 -16.7773 -16.6445 -16.6353 -14.8394 -14.8384 -14.5602 -14.5472
   -14.4079 -14.3464 -14.2712 -14.0892 -14.0872 -14.0672 -14.0470 -14.0240
   -13.9749 -13.8544 -13.4857  -8.0069  -8.0058  -7.8740  -7.8729  -7.7697
    -7.6700  -7.6273  -7.6158  -7.5973  -7.5963  -7.3301  -7.2456  -3.2872
    -3.2716  -3.2439  -3.0420  -3.0311  -2.9265  -2.9254  -2.3192  -2.3187
    -1.9620  -1.7352  -1.7320  -1.7076  -1.5988  -1.5944  -1.5477  -1.4708
    -1.2722  -1.2672  -1.1476  -1.1312  -1.1093  -1.0462  -0.9560  -0.8165
    -0.8129  -0.8003  -0.7834  -0.7569  -0.6988  -0.6939  -0.5472  -0.3251
    -0.3032  -0.1488  -0.0659   0.0397   0.1339   0.1925   0.2630   0.2655
     0.4494   0.5166   0.7243   0.7386   0.9105   0.9613   0.9692   1.0250
     1.0336   1.1112   1.1159   1.2073   1.2345   1.2868   1.2889   1.3102
     1.4155   1.4717   1.6280   1.7043   1.7076   1.7749   1.7784   1.7973
     1.8805   1.9261   1.9474   2.0626   2.2663   2.3955   2.3965   2.4591
     2.5416   2.5528   2.7163   2.7913   3.0336   3.0677   3.9978   7.2688
     7.3588   7.3637   8.1660   8.1948   8.6988   8.7220   8.7386   8.9489
     9.0018   9.1965   9.4181   9.4481   9.6007   9.6204   9.7101   9.7552
     9.8865

          k = 0.1250-0.5279 0.0000 ( 33848 PWs)   bands (ev):

   -35.5253 -35.5155 -22.5295 -22.5284 -22.2908 -22.2409 -16.9882 -16.9781
   -16.7429 -16.7340 -16.6408 -16.6315 -14.8717 -14.8704 -14.4435 -14.4395
   -14.4235 -14.3270 -14.1674 -14.1342 -14.1128 -14.0835 -14.0531 -14.0129
   -14.0117 -13.9006 -13.5166  -8.0015  -8.0005  -7.8788  -7.8777  -7.7784
    -7.6622  -7.6355  -7.6318  -7.6308  -7.6134  -7.3539  -7.2821  -3.5344
    -3.4574  -3.4536  -3.2212  -3.2108  -3.1553  -3.1541  -2.3402  -2.3397
    -1.9732  -1.7798  -1.7625  -1.7466  -1.5548  -1.5428  -1.4639  -1.4538
    -1.4314  -1.3868  -1.3114  -1.2838  -1.2210  -1.1332  -1.0502  -0.9048
    -0.8886  -0.8875  -0.8674  -0.7916  -0.7874  -0.7829  -0.5989  -0.3146
    -0.2837  -0.1675  -0.0758   0.0574   0.1477   0.2013   0.2733   0.2749
     0.4521   0.5194   0.6969   0.7055   0.9324   0.9863   0.9903   1.0167
     1.0178   1.0644   1.0864   1.1162   1.3159   1.3232   1.3857   1.4083
     1.4320   1.5069   1.5348   1.8305   1.8334   1.9541   2.0609   2.0649
     2.0771   2.0839   2.0966   2.0994   2.4035   2.4070   2.4387   2.5577
     2.5609   2.5619   2.5853   2.6201   2.9074   2.9460   4.1146   7.4257
     7.5804   7.5833   8.3479   8.3805   8.6717   9.0769   9.0860   9.1417
     9.3615   9.3660   9.5486   9.6611   9.7435   9.8260  10.0379  10.1418
    10.1799

          k = 0.2500 0.0000 0.0000 ( 34032 PWs)   bands (ev):

   -35.5351 -35.5253 -22.6687 -22.6677 -22.4240 -22.3709 -16.9239 -16.9148
   -16.8345 -16.8257 -16.5741 -16.5640 -14.9457 -14.9415 -14.7483 -14.7384
   -14.7057 -14.5477 -14.5423 -14.1440 -14.1429 -13.9841 -13.9780 -13.8457
   -13.8317 -13.7915 -13.3873  -7.8898  -7.8886  -7.7329  -7.6764  -7.6754
    -7.6290  -7.5188  -7.5177  -7.3925  -7.3017  -7.2599  -7.1706  -2.5058
    -2.5041  -2.2982  -2.2419  -2.1492  -2.1483  -1.8802  -1.6930  -1.6906
    -1.6052  -1.5984  -1.4207  -1.4037  -1.1541  -1.1529  -0.9500  -0.9497
    -0.8938  -0.8694  -0.7093  -0.7088  -0.6709  -0.6074  -0.5974  -0.5706
    -0.5011  -0.4701  -0.4694  -0.2953  -0.2532  -0.1920  -0.1894  -0.1786
    -0.1479  -0.1283   0.0413   0.1387   0.1399   0.1408   0.2458   0.2470
     0.3844   0.3847   0.4721   0.4862   0.4898   0.5024   0.5257   0.6033
     0.6100   0.7190   0.7219   0.9600   0.9841   1.0403   1.1227   1.3047
     1.3381   1.3422   1.3666   1.3713   1.4654   1.4781   1.4839   1.5439
     1.6122   1.6434   1.7836   1.9350   1.9429   2.0502   2.0867   2.0972
     2.1009   2.3380   2.3824   2.5432   2.5620   2.7385   2.7419   5.9147
     5.9155   6.4598   7.0857   7.1099   7.6134   7.6152   7.9649   8.1173
     8.5455   8.5509   8.7674   8.9610   9.2842   9.2850   9.3708   9.6393
     9.6480

          k = 0.2500 0.1320 0.0000 ( 33975 PWs)   bands (ev):

   -35.5333 -35.5235 -22.6449 -22.6439 -22.4010 -22.3486 -16.8919 -16.8827
   -16.8280 -16.8192 -16.6402 -16.6301 -14.8941 -14.8908 -14.7014 -14.6896
   -14.6471 -14.5115 -14.5064 -14.1298 -14.1288 -13.9822 -13.9788 -13.8744
   -13.8616 -13.8105 -13.3998  -7.9583  -7.9572  -7.8133  -7.8122  -7.7600
    -7.6445  -7.5694  -7.4948  -7.4851  -7.4840  -7.2284  -7.1296  -2.5563
    -2.5531  -2.3368  -2.2754  -2.1405  -2.1394  -2.0392  -2.0363  -1.9315
    -1.9111  -1.8461  -1.5684  -1.5672  -1.5053  -1.3396  -1.3311  -1.0529
    -0.9664  -0.9599  -0.9195  -0.8606  -0.8441  -0.8373  -0.7201  -0.5697
    -0.5667  -0.5005  -0.4344  -0.3287  -0.3089  -0.2779  -0.2196  -0.1559
    -0.1516   0.0270   0.0311   0.0821   0.1051   0.1768   0.2396   0.2423
     0.2870   0.3107   0.3903   0.3922   0.6272   0.6704   0.8204   0.8388
     0.8480   0.9617   0.9712   1.0561   1.1093   1.1622   1.2352   1.2606
     1.2984   1.4277   1.4373   1.4482   1.4795   1.4892   1.5387   1.5409
     1.5871   1.5953   1.6450   1.7911   1.7922   1.8863   2.0482   2.4832
     2.7143   2.7310   2.8791   2.9127   2.9170   2.9506   2.9831   6.1759
     6.1767   6.5690   7.2405   7.2531   7.8714   7.8727   8.2458   8.3770
     8.6609   8.6727   8.9068   9.0906   9.1708   9.2672   9.3972   9.4276
     9.5203

          k = 0.2500 0.2640 0.0000 ( 33963 PWs)   bands (ev):

   -35.5289 -35.5192 -22.5862 -22.5852 -22.3445 -22.2936 -16.8287 -16.8191
   -16.8028 -16.7942 -16.7767 -16.7669 -14.8024 -14.8010 -14.5675 -14.5507
   -14.4975 -14.4190 -14.4108 -14.1056 -14.1040 -14.0330 -14.0274 -13.9245
   -13.8951 -13.8314 -13.4283  -8.1784  -8.1774  -7.9165  -7.8751  -7.8740
    -7.8164  -7.6572  -7.6209  -7.6049  -7.6038  -7.3510  -7.2494  -2.9381
    -2.9308  -2.6892  -2.6518  -2.4554  -2.3816  -2.3807  -2.2528  -2.2516
    -2.1625  -2.1302  -2.1091  -2.1050  -1.8554  -1.3986  -1.3930  -1.3684
    -1.3622  -1.3461  -1.2444  -1.1692  -0.9814  -0.9074  -0.7421  -0.7320
    -0.6762  -0.6749  -0.6009  -0.5863  -0.5360  -0.5340  -0.3772  -0.3661
    -0.3474  -0.2997  -0.2331   0.0474   0.1329   0.3124   0.3977   0.4159
     0.6068   0.6576   0.8282   0.8611   0.8715   0.8973   0.9620   1.0225
     1.0227   1.1922   1.2401   1.3173   1.3229   1.3825   1.4321   1.4408
     1.5044   1.5116   1.5183   1.5585   1.5900   1.6598   1.6650   1.6728
     1.7208   1.7536   1.8120   1.8979   1.9183   1.9193   2.2102   2.4766
     3.0446   3.0498   3.3256   3.3296   3.4603   3.4750   3.5762   6.7054
     6.7184   6.7257   7.6282   7.6446   8.4039   8.4051   8.7759   8.8050
     9.0016   9.0460   9.1117   9.1367   9.3148   9.3931   9.4401   9.5061
     9.5732

          k = 0.2500 0.3960 0.0000 ( 33940 PWs)   bands (ev):

   -35.5246 -35.5148 -22.5258 -22.5247 -22.2864 -22.2372 -16.9246 -16.9145
   -16.7927 -16.7837 -16.7174 -16.7085 -14.7578 -14.7570 -14.3949 -14.3823
   -14.3664 -14.3114 -14.2524 -14.1605 -14.1554 -14.0394 -14.0317 -13.9938
   -13.9335 -13.8450 -13.4511  -8.2984  -8.2974  -8.0465  -7.9349  -7.9253
    -7.9240  -7.8189  -7.8179  -7.6821  -7.6607  -7.5533  -7.4731  -3.4380
    -3.4298  -3.2467  -3.1504  -3.1258  -2.9057  -2.9047  -2.3913  -2.3906
    -2.1642  -2.1068  -2.0665  -2.0522  -1.8445  -1.7431  -1.7323  -1.6283
    -1.5703  -1.4274  -1.3885  -1.3180  -1.1508  -1.1119  -1.0098  -0.8253
    -0.7927  -0.7495  -0.7444  -0.7408  -0.7307  -0.7272  -0.5091  -0.4875
    -0.4137  -0.3705  -0.3215   0.1696   0.2536   0.3365   0.4377   0.4839
     0.7598   0.8898   0.9992   1.0396   1.0450   1.0678   1.0787   1.3011
     1.3111   1.3459   1.3663   1.3803   1.3857   1.5248   1.5665   1.6046
     1.6194   1.7093   1.7303   1.7816   1.8036   1.8294   1.8462   1.9183
     1.9624   1.9704   1.9782   2.1765   2.2238   2.3172   2.3181   2.5020
     2.8764   2.8824   3.5531   3.5580   3.6967   3.7129   3.9575   6.6660
     6.9253   6.9287   7.7817   7.8166   8.8387   8.8538   8.9239   8.9857
     9.1753   9.2283   9.7246   9.7407   9.8577   9.8606   9.9128   9.9718
    10.0456

          k = 0.2500-0.5279 0.0000 ( 33964 PWs)   bands (ev):

   -35.5228 -35.5130 -22.5002 -22.4992 -22.2618 -22.2134 -16.9747 -16.9646
   -16.7872 -16.7782 -16.6780 -16.6690 -14.7545 -14.7535 -14.3230 -14.3060
   -14.3045 -14.2628 -14.1850 -14.1763 -14.1177 -14.0972 -14.0073 -14.0061
   -13.9864 -13.8714 -13.4576  -8.2986  -8.2975  -8.0642  -8.0133  -8.0124
    -7.9314  -7.8852  -7.8841  -7.7501  -7.6898  -7.6270  -7.5810  -3.6395
    -3.6289  -3.5102  -3.3465  -3.3296  -3.1333  -3.1323  -2.3985  -2.3979
    -2.1416  -2.0677  -2.0252  -1.9962  -1.9040  -1.8883  -1.8263  -1.7763
    -1.7040  -1.4473  -1.4138  -1.3588  -1.2203  -1.1943  -1.1046  -0.9093
    -0.8742  -0.8166  -0.8075  -0.7778  -0.7568  -0.7478  -0.5206  -0.4980
    -0.4208  -0.3950  -0.3451   0.2115   0.2893   0.3441   0.4578   0.5176
     0.7857   0.9385   1.0886   1.0969   1.1145   1.1396   1.1583   1.2555
     1.2586   1.3717   1.4092   1.4554   1.4888   1.5611   1.5636   1.5646
     1.6980   1.7770   1.8009   1.9618   1.9658   2.0459   2.0466   2.0510
     2.0947   2.1010   2.1243   2.1323   2.3970   2.4929   2.4938   2.5480
     2.6537   2.6624   3.5715   3.5784   3.7350   3.7479   4.0563   6.5952
     6.8904   6.8923   7.7431   7.7895   8.9204   8.9250   9.2055   9.3242
     9.5774   9.5788   9.7842   9.8952   9.9181  10.0375  10.1365  10.1905
    10.2294

          k = 0.3750 0.0000 0.0000 ( 33964 PWs)   bands (ev):

   -35.5325 -35.5227 -22.6233 -22.6223 -22.3803 -22.3303 -16.9745 -16.9658
   -16.8285 -16.8193 -16.5708 -16.5606 -14.9848 -14.9836 -14.7971 -14.5987
   -14.5896 -14.5520 -14.5321 -14.1562 -14.1539 -14.0893 -14.0765 -13.8836
   -13.8664 -13.8466 -13.4895  -7.8724  -7.8712  -7.7411  -7.6115  -7.6105
    -7.5954  -7.4344  -7.4334  -7.3471  -7.2361  -7.1805  -7.0971  -2.8343
    -2.8319  -2.6664  -2.6308  -2.2711  -2.2706  -1.9136  -1.6139  -1.6114
    -1.5265  -1.5128  -1.4582  -1.4535  -1.1558  -1.1546  -1.1128  -1.0407
    -1.0286  -1.0111  -0.9606  -0.9597  -0.8426  -0.8397  -0.8370  -0.8001
    -0.6702  -0.6696  -0.5588  -0.4248  -0.3785  -0.2910  -0.2106  -0.2035
    -0.1725  -0.1702   0.0273   0.0697   0.1270   0.1280   0.2300   0.2503
     0.4057   0.4572   0.4636   0.4644   0.4803   0.4916   0.5230   0.5638
     0.6078   0.7916   0.8112   0.9859   1.0816   1.1775   1.2440   1.2447
     1.2703   1.2863   1.4037   1.4138   1.5210   1.5528   1.5651   1.6699
     1.7050   1.8080   1.8276   1.8436   1.8717   1.9532   1.9716   2.1759
     2.1887   2.3525   2.4292   2.6308   2.6560   2.8597   2.8654   6.5645
     6.5652   6.8792   7.8156   7.8322   8.0592   8.0602   8.5268   8.5433
     8.7354   8.8250   9.3491   9.3712   9.3897   9.5409   9.5494   9.5597
     9.6539

          k = 0.3750 0.1320 0.0000 ( 33991 PWs)   bands (ev):

   -35.5307 -35.5209 -22.6016 -22.6006 -22.3593 -22.3097 -16.9659 -16.9572
   -16.7995 -16.7902 -16.6352 -16.6251 -14.9371 -14.9360 -14.7321 -14.5589
   -14.5466 -14.4903 -14.4724 -14.1279 -14.1265 -14.0670 -14.0574 -13.9100
   -13.8972 -13.8524 -13.4776  -7.9298  -7.9287  -7.7752  -7.7740  -7.7656
    -7.6225  -7.5243  -7.5230  -7.5202  -7.4339  -7.2760  -7.1763  -2.8967
    -2.8928  -2.7097  -2.6692  -2.2700  -2.2695  -2.0064  -1.9944  -1.9192
    -1.8246  -1.7980  -1.5568  -1.5556  -1.5063  -1.4152  -1.4102  -1.2535
    -1.2521  -1.1562  -1.1388  -1.1054  -0.9969  -0.9196  -0.7425  -0.7319
    -0.7100  -0.6331  -0.5476  -0.3808  -0.3704  -0.3487  -0.2928  -0.2086
    -0.2074  -0.0003   0.0028   0.1016   0.1173   0.1643   0.2375   0.2415
     0.2725   0.4214   0.5003   0.5014   0.6657   0.7221   0.7497   0.8488
     0.8562   0.9895   1.0203   1.0692   1.2095   1.2311   1.2625   1.2833
     1.3460   1.3690   1.4192   1.4202   1.5589   1.5938   1.5947   1.7111
     1.7517   1.7735   1.7940   1.8469   1.8524   1.8864   1.9239   2.4638
     2.7906   2.8109   2.9018   2.9948   3.0107   3.1651   3.1944   6.7132
     6.7141   6.8074   7.8622   7.8742   8.1246   8.1255   8.5429   8.5680
     8.9701   9.0133   9.2810   9.3416   9.3773   9.5537   9.5791   9.7074
     9.7446

          k = 0.3750 0.2640 0.0000 ( 33991 PWs)   bands (ev):

   -35.5263 -35.5166 -22.5483 -22.5473 -22.3076 -22.2591 -16.9456 -16.9369
   -16.7796 -16.7694 -16.7243 -16.7152 -14.8151 -14.8142 -14.5589 -14.4635
   -14.4452 -14.3399 -14.3235 -14.0890 -14.0855 -14.0559 -14.0530 -13.9474
   -13.9311 -13.8458 -13.4483  -8.2311  -8.2301  -7.9722  -7.9097  -7.9087
    -7.8715  -7.7874  -7.7863  -7.6875  -7.6225  -7.5408  -7.4471  -3.2150
    -3.2059  -2.9494  -2.9080  -2.4432  -2.4420  -2.4343  -2.3227  -2.3212
    -2.3142  -2.3085  -2.1907  -2.1900  -1.8952  -1.7236  -1.7157  -1.5426
    -1.5182  -1.2856  -1.1985  -1.1773  -0.9508  -0.9021  -0.8252  -0.8232
    -0.8030  -0.7411  -0.6424  -0.6227  -0.5890  -0.5868  -0.4601  -0.4361
    -0.3417  -0.3172  -0.2809   0.0821   0.1654   0.4131   0.5225   0.5449
     0.7372   0.7652   0.8823   0.8947   1.0070   1.0666   1.0746   1.1376
     1.2098   1.2696   1.2784   1.3189   1.4470   1.4667   1.4802   1.4937
     1.6339   1.6856   1.6941   1.7049   1.7440   1.7883   1.7968   1.8077
     1.8139   1.8559   1.8682   1.8838   1.8885   1.9524   2.1762   2.4328
     3.0441   3.0526   3.5580   3.7788   3.7820   3.8903   3.8997   6.5125
     6.7586   6.7605   7.6866   7.6960   8.4634   8.4661   8.8723   8.8967
     9.2176   9.4695   9.4748   9.5200   9.6045   9.6755   9.8182   9.8891
     9.9489

          k = 0.3750 0.3960 0.0000 ( 33993 PWs)   bands (ev):

   -35.5220 -35.5122 -22.4937 -22.4926 -22.2547 -22.2073 -16.9282 -16.9192
   -16.9063 -16.8964 -16.6447 -16.6355 -14.6799 -14.6792 -14.3855 -14.3725
   -14.2944 -14.1779 -14.1756 -14.1703 -14.1618 -14.0213 -14.0193 -13.9455
   -13.9059 -13.8565 -13.4152  -8.4969  -8.4959  -8.2437  -8.1619  -8.1610
    -8.1354  -7.9125  -7.9113  -7.8850  -7.7692  -7.7327  -7.6127  -3.6956
    -3.6856  -3.4005  -3.3592  -3.1690  -2.8850  -2.8840  -2.5723  -2.5716
    -2.4264  -2.4070  -2.2193  -2.2187  -2.0353  -2.0230  -1.8916  -1.7796
    -1.7532  -1.3789  -1.1905  -1.1694  -1.1484  -1.1471  -1.0257  -0.9032
    -0.9004  -0.8158  -0.8061  -0.7566  -0.7360  -0.7156  -0.6575  -0.6351
    -0.3368  -0.3350  -0.2930   0.2307   0.3195   0.4604   0.6675   0.7134
     0.9910   1.1346   1.1981   1.2209   1.2522   1.3008   1.3256   1.4111
     1.4149   1.5334   1.5440   1.5454   1.5972   1.6366   1.6540   1.7804
     1.8123   1.8269   1.8463   1.9358   1.9522   2.0131   2.0413   2.0527
     2.0670   2.1208   2.1596   2.1892   2.2389   2.2397   2.2840   2.5106
     2.8643   2.8756   3.9005   4.2945   4.3013   4.3745   4.3792   6.1087
     6.4554   6.4571   7.4075   7.4403   8.9743   9.0270   9.0403   9.1519
     9.4758   9.5134   9.5674   9.5881   9.6664   9.7034   9.7483   9.8768
    10.0077

          k = 0.3750-0.5279 0.0000 ( 34004 PWs)   bands (ev):

   -35.5202 -35.5104 -22.4706 -22.4696 -22.2324 -22.1855 -16.9614 -16.9513
   -16.9157 -16.9069 -16.6093 -16.6002 -14.6183 -14.6177 -14.3436 -14.3408
   -14.2347 -14.2152 -14.1103 -14.0966 -14.0840 -14.0405 -13.9992 -13.9980
   -13.9077 -13.8637 -13.3987  -8.5789  -8.5779  -8.3381  -8.3070  -8.3061
    -8.2169  -8.0336  -7.9382  -7.9370  -7.9006  -7.7458  -7.6298  -3.9024
    -3.8918  -3.6130  -3.5605  -3.4316  -3.1102  -3.1092  -2.5908  -2.5901
    -2.4365  -2.4126  -2.2135  -2.2129  -2.1421  -2.1284  -1.8850  -1.8633
    -1.8369  -1.4222  -1.2775  -1.2645  -1.1966  -1.1840  -1.0982  -0.9028
    -0.8991  -0.8983  -0.8945  -0.8439  -0.8313  -0.7450  -0.6805  -0.6508
    -0.3217  -0.3206  -0.2711   0.2734   0.3575   0.4700   0.7218   0.8002
     1.0620   1.3047   1.3199   1.3243   1.3569   1.3635   1.3803   1.4058
     1.4144   1.5998   1.6231   1.6545   1.6705   1.8018   1.8317   1.8492
     1.8524   1.9279   1.9775   2.0291   2.0912   2.0995   2.1354   2.1952
     2.1998   2.2921   2.3096   2.3373   2.3773   2.4294   2.4305   2.5827
     2.6195   2.6355   3.9679   4.4341   4.4470   4.5229   4.5269   5.9193
     6.2780   6.2789   7.3004   7.3582   8.8202   9.0848   9.1872   9.2374
     9.4209   9.4362   9.6754   9.8129   9.8355   9.8436   9.9030   9.9706
    10.0722

          k =-0.5000 0.0000 0.0000 ( 33930 PWs)   bands (ev):

   -35.5314 -35.5216 -22.6042 -22.6031 -22.3619 -22.3133 -17.0269 -17.0183
   -16.7864 -16.7771 -16.5694 -16.5592 -15.0419 -15.0400 -14.8352 -14.6243
   -14.5925 -14.3390 -14.3085 -14.2687 -14.2601 -14.1372 -14.1350 -13.8911
   -13.8807 -13.8669 -13.5265  -7.8621  -7.8609  -7.7384  -7.5884  -7.5874
    -7.5780  -7.3983  -7.3972  -7.3352  -7.2134  -7.1466  -7.0657  -2.9764
    -2.9741  -2.8119  -2.7797  -2.2959  -2.2955  -1.9164  -1.5975  -1.5861
    -1.5677  -1.5654  -1.3323  -1.3295  -1.1955  -1.1596  -1.1584  -1.1198
    -1.1170  -1.0740  -1.0714  -1.0621  -0.9506  -0.9426  -0.8591  -0.8479
    -0.7536  -0.7531  -0.5843  -0.4911  -0.4372  -0.3290  -0.2348  -0.2224
    -0.1609  -0.1578  -0.0030   0.0226   0.1217   0.1227   0.1879   0.2308
     0.4010   0.4371   0.4633   0.4641   0.4883   0.4896   0.5145   0.5217
     0.6124   0.8435   0.9074   0.9208   0.9924   1.1938   1.1949   1.2435
     1.4169   1.4336   1.4421   1.4482   1.4581   1.6441   1.6484   1.6861
     1.7141   1.7148   1.7645   1.9178   1.9255   1.9963   2.0163   2.1922
     2.2020   2.3461   2.4324   2.6237   2.6652   2.8926   2.9009   7.0789
     7.3368   7.3379   7.3892   7.3900   8.3164   8.3465   8.5816   8.5987
     9.0992   9.1491   9.2170   9.5023   9.5060   9.5109   9.6894   9.7496
     9.9839

          k =-0.5000 0.1320 0.0000 ( 33986 PWs)   bands (ev):

   -35.5296 -35.5198 -22.5834 -22.5823 -22.3417 -22.2934 -17.0177 -17.0091
   -16.7590 -16.7496 -16.6330 -16.6229 -14.9849 -14.9832 -14.7661 -14.5833
   -14.5520 -14.2979 -14.2700 -14.2100 -14.2023 -14.1154 -14.1135 -13.9189
   -13.9042 -13.8722 -13.5057  -7.9010  -7.8999  -7.7558  -7.7178  -7.7168
    -7.6031  -7.6010  -7.5978  -7.4572  -7.3601  -7.3384  -7.2746  -3.0452
    -3.0415  -2.8631  -2.8256  -2.3010  -2.3006  -1.9901  -1.9640  -1.9124
    -1.7685  -1.7455  -1.5515  -1.5502  -1.4905  -1.4613  -1.4541  -1.3687
    -1.3673  -1.2584  -1.2228  -1.1580  -1.0329  -0.9384  -0.8095  -0.8089
    -0.6987  -0.6500  -0.5745  -0.4151  -0.4049  -0.3742  -0.3191  -0.2320
    -0.2299  -0.0186  -0.0118   0.1095   0.1210   0.1603   0.2389   0.2415
     0.2643   0.5190   0.5394   0.5747   0.5755   0.6396   0.6842   0.8174
     0.8548   0.9911   1.0743   1.1076   1.2142   1.2208   1.2435   1.3381
     1.3411   1.3723   1.4635   1.4741   1.5742   1.6803   1.6872   1.6908
     1.7396   1.7793   1.8078   1.9240   1.9339   1.9608   1.9775   2.4423
     2.8005   2.8150   2.9001   3.0109   3.0285   3.2164   3.2490   6.8976
     7.1845   7.1854   7.6912   7.6925   8.2088   8.2351   8.5191   8.5546
     9.2868   9.3445   9.3858   9.5627   9.6230   9.6959   9.7808   9.8202
     9.8805

          k =-0.5000 0.2640 0.0000 ( 33976 PWs)   bands (ev):

   -35.5253 -35.5155 -22.5324 -22.5314 -22.2922 -22.2446 -16.9957 -16.9870
   -16.7763 -16.7661 -16.6879 -16.6787 -14.8339 -14.8327 -14.5821 -14.4856
   -14.4507 -14.1949 -14.1742 -14.1086 -14.1060 -14.0653 -14.0638 -13.9901
   -13.9700 -13.8436 -13.4545  -8.1699  -8.1689  -8.0189  -8.0180  -7.9221
    -7.8509  -7.8498  -7.8154  -7.7461  -7.6836  -7.6285  -7.5634  -3.3535
    -3.3444  -3.0954  -3.0553  -2.4689  -2.4678  -2.4253  -2.3422  -2.3388
    -2.3230  -2.3201  -2.1986  -2.1978  -1.9055  -1.8513  -1.8378  -1.6328
    -1.5950  -1.2986  -1.1169  -1.0978  -0.9088  -0.9079  -0.8917  -0.8597
    -0.8468  -0.7770  -0.6629  -0.6233  -0.6141  -0.6132  -0.4539  -0.4349
    -0.3393  -0.3343  -0.3091   0.0959   0.1778   0.4449   0.5585   0.6159
     0.7852   0.8024   0.9119   0.9157   1.0727   1.1473   1.1613   1.1911
     1.2322   1.2356   1.2461   1.2761   1.4823   1.4967   1.5253   1.5515
     1.6639   1.7244   1.7547   1.7605   1.8000   1.8138   1.8195   1.8540
     1.8752   1.9400   1.9516   1.9611   1.9726   1.9802   2.0357   2.3882
     3.0371   3.0463   3.5510   3.9189   3.9210   4.0219   4.0343   6.4140
     6.7546   6.7558   7.6135   7.6339   8.5011   8.5036   8.9881   9.1255
     9.2133   9.6207   9.6446   9.6492   9.7484   9.7826   9.8431   9.9408
     9.9650

          k =-0.5000 0.3960 0.0000 ( 33992 PWs)   bands (ev):

   -35.5209 -35.5112 -22.4802 -22.4792 -22.2414 -22.1948 -16.9741 -16.9655
   -16.9053 -16.8952 -16.6124 -16.6032 -14.6508 -14.6501 -14.4125 -14.4005
   -14.2820 -14.1663 -14.1598 -14.0883 -14.0770 -14.0173 -14.0161 -13.9271
   -13.9105 -13.8748 -13.3995  -8.5451  -8.5441  -8.3070  -8.3060  -8.2976
    -8.1842  -8.0322  -7.9287  -7.9275  -7.9003  -7.7568  -7.6178  -3.8264
    -3.8158  -3.5192  -3.4811  -3.1639  -2.8764  -2.8754  -2.6420  -2.6414
    -2.4994  -2.4872  -2.2356  -2.2351  -2.1418  -2.1180  -1.8960  -1.8445
    -1.7967  -1.4092  -1.1762  -1.1727  -1.0497  -1.0485  -1.0463  -0.9918
    -0.9760  -0.8288  -0.8267  -0.7507  -0.7388  -0.7355  -0.7162  -0.6833
    -0.2978  -0.2969  -0.2680   0.2489   0.3408   0.5060   0.7771   0.8117
     1.0874   1.2157   1.3050   1.3306   1.3339   1.3959   1.4133   1.4441
     1.4479   1.5572   1.6228   1.6233   1.6361   1.6499   1.6918   1.8156
     1.8219   1.8769   1.9400   1.9740   2.0460   2.0791   2.1071   2.1204
     2.1562   2.1840   2.2079   2.2092   2.2465   2.2917   2.3465   2.4691
     2.8524   2.8653   3.8833   4.5622   4.5674   4.6180   4.6256   5.8902
     6.2597   6.2607   7.2585   7.2879   8.9720   8.9845   8.9859   9.1224
     9.4898   9.4997   9.6532   9.7382   9.7464   9.7915   9.7985   9.9311
     9.9558

          k =-0.5000-0.5279 0.0000 ( 34028 PWs)   bands (ev):

   -35.5192 -35.5094 -22.4582 -22.4572 -22.2201 -22.1738 -16.9653 -16.9566
   -16.9559 -16.9458 -16.5790 -16.5697 -14.5524 -14.5521 -14.3850 -14.3816
   -14.2125 -14.2048 -14.0992 -14.0467 -14.0397 -13.9940 -13.9927 -13.9744
   -13.8859 -13.8703 -13.3747  -8.6911  -8.6901  -8.4488  -8.4231  -8.4222
    -8.3329  -8.1511  -8.0071  -7.9566  -7.9553  -7.7734  -7.6351  -4.0349
    -4.0239  -3.7226  -3.6801  -3.4339  -3.1007  -3.0997  -2.6744  -2.6738
    -2.5253  -2.5098  -2.2347  -2.2256  -2.2252  -2.2068  -1.9143  -1.8843
    -1.8630  -1.4601  -1.2917  -1.2837  -1.1157  -1.1074  -1.0946  -0.9659
    -0.9618  -0.9219  -0.9210  -0.8526  -0.8301  -0.7610  -0.7341  -0.7178
    -0.2690  -0.2681  -0.2394   0.2919   0.3802   0.5178   0.8521   0.9338
     1.1847   1.3939   1.4040   1.4176   1.4221   1.4569   1.4626   1.4668
     1.5410   1.6818   1.6967   1.7072   1.7095   1.7361   1.9127   1.9335
     1.9538   1.9618   2.0981   2.1047   2.1179   2.1574   2.2286   2.2424
     2.2516   2.3389   2.4003   2.4015   2.4418   2.4795   2.4867   2.5958
     2.6139   2.6304   3.9435   4.7582   4.7698   4.8233   4.8298   5.6576
     6.0326   6.0334   7.1340   7.1955   8.8259   9.0613   9.0952   9.1302
     9.1444   9.1678   9.5854   9.6423   9.7380   9.8097   9.9382  10.0425
    10.0873

     the Fermi energy is     2.6281 ev

!    total energy              =   -1842.88693427 Ry
     Harris-Foulkes estimate   =   -1842.88693426 Ry
     estimated scf accuracy    <          6.4E-09 Ry

     The total energy is the sum of the following terms:

     one-electron contribution =  -30420.97109272 Ry
     hartree contribution      =   15364.28446780 Ry
     xc contribution           =    -621.74290556 Ry
     ewald contribution        =   13835.55120175 Ry
     smearing contrib. (-TS)   =      -0.00860554 Ry

     convergence has been achieved in  44 iterations

     negative rho (up, down):  1.527E-03 0.000E+00

     Forces acting on atoms (cartesian axes, Ry/au):

     atom    1 type  4   force =     0.00000000    0.00000000   -0.00020699
     atom    2 type  3   force =     0.00000000    0.00000000    0.00038050
     atom    3 type  4   force =     0.00000000    0.00000000   -0.00077243
     atom    4 type  1   force =     0.00000000    0.00000000   -0.00033833
     atom    5 type  3   force =     0.00000000    0.00000000    0.00066605
     atom    6 type  4   force =     0.00000000    0.00000000    0.00024747
     atom    7 type  4   force =     0.00000000    0.00000000    0.00055785
     atom    8 type  2   force =     0.00000000    0.00000000   -0.00124770
     atom    9 type  4   force =     0.00000000    0.00000000    0.00105777
     atom   10 type  4   force =     0.00000000    0.00000000    0.00085708
     atom   11 type  3   force =     0.00000000    0.00000000    0.00067838
     atom   12 type  1   force =     0.00000000    0.00000000    0.00407706
     atom   13 type  4   force =     0.00000000    0.00000000   -0.00280921
     atom   14 type  4   force =     0.00000000    0.00000000    0.01013684
     atom   15 type  3   force =     0.00000000    0.00000000    0.04079702
     atom   16 type  4   force =     0.00000000    0.00000000   -0.03853398
     atom   17 type  1   force =     0.00000000    0.00000000   -0.01069131
     atom   18 type  3   force =     0.00000000    0.00000000   -0.00626892
     atom   19 type  4   force =     0.00000000    0.00000000    0.00090003
     atom   20 type  4   force =     0.00000000    0.00000000   -0.00012572
     atom   21 type  2   force =     0.00000000    0.00000000    0.00093045
     atom   22 type  4   force =     0.00000000    0.00000000   -0.00055829
     atom   23 type  4   force =     0.00000000    0.00000000   -0.00004756
     atom   24 type  3   force =     0.00000000    0.00000000   -0.00052880
     atom   25 type  1   force =     0.00000000    0.00000000    0.00030770
     atom   26 type  4   force =     0.00000000    0.00000000    0.00069250
     atom   27 type  3   force =     0.00000000    0.00000000   -0.00026613
     atom   28 type  4   force =     0.00000000    0.00000000    0.00010866

     Total force =     0.058640     Total SCF correction =     0.000376


     Computing stress (Cartesian axis) and pressure


     negative rho (up, down):  1.527E-03 0.000E+00
          total   stress  (Ry/bohr**3)                   (kbar)     P=       -4.18
   0.00000255   0.00000000   0.00000000            0.37        0.00        0.00
   0.00000000  -0.00002629   0.00000000            0.00       -3.87        0.00
   0.00000000   0.00000000  -0.00006156            0.00        0.00       -9.06

 
     init_run     :     10.92s CPU     11.74s WALL (       1 calls)
     electrons    :    984.30s CPU   1042.51s WALL (       1 calls)
     forces       :      4.07s CPU      4.51s WALL (       1 calls)
     stress       :     31.92s CPU     32.97s WALL (       1 calls)

     Called by init_run:
     wfcinit      :      7.85s CPU      8.09s WALL (       1 calls)
     potinit      :      0.64s CPU      0.66s WALL (       1 calls)
     hinit0       :      0.99s CPU      1.15s WALL (       1 calls)

     Called by electrons:
     c_bands      :    774.06s CPU    797.94s WALL (      44 calls)
     sum_band     :    142.23s CPU    161.43s WALL (      44 calls)
     v_of_rho     :      5.27s CPU      5.33s WALL (      45 calls)
     newd         :     31.81s CPU     46.91s WALL (      45 calls)
     mix_rho      :     30.72s CPU     31.00s WALL (      44 calls)

     Called by c_bands:
     init_us_2    :      5.55s CPU      5.63s WALL (    2275 calls)
     cegterg      :    739.65s CPU    762.52s WALL (    1100 calls)

     Called by sum_band:
     sum_band:bec :      0.37s CPU      0.37s WALL (    1100 calls)
     addusdens    :     27.11s CPU     45.03s WALL (      44 calls)

     Called by *egterg:
     h_psi        :    365.52s CPU    379.25s WALL (    5022 calls)
     s_psi        :     31.77s CPU     32.18s WALL (    5022 calls)
     g_psi        :      0.98s CPU      0.99s WALL (    3897 calls)
     cdiaghg      :    181.47s CPU    182.36s WALL (    4997 calls)

     Called by h_psi:
     h_psi:calbec :     43.65s CPU     45.34s WALL (    5022 calls)
     vloc_psi     :    286.95s CPU    291.42s WALL (    5022 calls)
     add_vuspsi   :     32.95s CPU     37.20s WALL (    5022 calls)

     General routines
     calbec       :     71.57s CPU     73.37s WALL (    6247 calls)
     fft          :      4.97s CPU      5.10s WALL (     608 calls)
     ffts         :     15.25s CPU     15.41s WALL (   17064 calls)
     fftw         :    333.37s CPU    338.41s WALL (  794828 calls)
     interpolate  :      0.38s CPU      0.39s WALL (      45 calls)
 
     Parallel routines
     fft_scatt_xy :     34.43s CPU     34.95s WALL (  812500 calls)
     fft_scatt_yz :    236.76s CPU    240.24s WALL (  812500 calls)
 
     PWSCF        :  17m12.02s CPU  18m12.86s WALL

 
   This run was terminated on:  22:57: 3  21May2021            

=------------------------------------------------------------------------------=
   JOB DONE.
=------------------------------------------------------------------------------=
[1621652223.346361] [holy7c16104:202425:0]          mpool.c:43   UCX  WARN  object 0x2bb55c0 was not returned to mpool ucp_requests
[1621652223.346376] [holy7c16104:202425:0]          mpool.c:43   UCX  WARN  object 0x2bb5b00 was not returned to mpool ucp_requests
[1621652223.347990] [holy7c12606:131743:0]          mpool.c:43   UCX  WARN  object 0x3758fc0 was not returned to mpool ucp_requests
[1621652223.348007] [holy7c12606:131743:0]          mpool.c:43   UCX  WARN  object 0x37596c0 was not returned to mpool ucp_requests
[1621652223.349470] [holy7c16105:87738:0]          mpool.c:43   UCX  WARN  object 0x4577e80 was not returned to mpool ucp_requests
[1621652223.349682] [holy7c12603:201199:0]          mpool.c:43   UCX  WARN  object 0x3968900 was not returned to mpool ucp_requests
[1621652223.357400] [holy7c16105:87737:0]          mpool.c:43   UCX  WARN  object 0x35dbf80 was not returned to mpool ucp_requests
[1621652223.353414] [holy7c12603:201198:0]          mpool.c:43   UCX  WARN  object 0x36e5500 was not returned to mpool ucp_requests
