
     Program PWSCF v.6.5 starts on 21May2021 at 22:31:55 

     This program is part of the open-source Quantum ESPRESSO suite
     for quantum simulation of materials; please cite
         "P. Giannozzi et al., J. Phys.:Condens. Matter 21 395502 (2009);
         "P. Giannozzi et al., J. Phys.:Condens. Matter 29 465901 (2017);
          URL http://www.quantum-espresso.org", 
     in publications or presentations arising from this work. More details at
     http://www.quantum-espresso.org/quote

     Parallel version (MPI), running on    20 processors

     MPI processes distributed on    11 nodes
     R & G space division:  proc/nbgrp/npool/nimage =      20
     Reading input from CBCO_Y_cleave_1.75_sep.pwi
Warning: card &IONS ignored
Warning: card     ION_DYNAMICS = 'BFGS' ignored
Warning: card / ignored
Warning: card &CELL ignored
Warning: card     CELL_DYNAMICS = 'BFGS' ignored
Warning: card     PRESS_CONV_THR = 5 ignored
Warning: card / ignored

     Current dimensions of program PWSCF are:
     Max number of different atomic species (ntypx) = 10
     Max number of k-points (npk) =  40000
     Max angular momentum in pseudopotentials (lmaxx) =  3

     Subspace diagonalization in iterative solution of the eigenvalue problem:
     one sub-group per band group will be used
     scalapack distributed-memory algorithm (size of sub-group:  4*  4 procs)

     Message from routine setup:
     using ibrav=0 with symmetry is DISCOURAGED, use correct ibrav instead
 
     Parallelization info
     --------------------
     sticks:   dense  smooth     PW     G-vecs:    dense   smooth      PW
     Min         149      50     14                72973    14050    2196
     Max         150      51     15                73010    14073    2239
     Sum        2991    1007    289              1459853   281181   44207
 


     bravais-lattice index     =            0
     lattice parameter (alat)  =       7.4270  a.u.
     unit-cell volume          =    4475.0743 (a.u.)^3
     number of atoms/cell      =           28
     number of atomic types    =            4
     number of electrons       =       227.00
     number of Kohn-Sham states=          137
     kinetic-energy cutoff     =      60.0000  Ry
     charge density cutoff     =     720.0000  Ry
     convergence threshold     =      1.0E-08
     mixing beta               =       0.5000
     number of iterations used =           10  local-TF  mixing
     Exchange-correlation= SLA PW PBE PBE
                           (   1   4   3   4   0   0   0)

     celldm(1)=   7.427040  celldm(2)=   0.000000  celldm(3)=   0.000000
     celldm(4)=   0.000000  celldm(5)=   0.000000  celldm(6)=   0.000000

     crystal axes: (cart. coord. in units of alat)
               a(1) = (   1.000000   0.000000   0.000000 )  
               a(2) = (   0.000000   0.947081   0.000000 )  
               a(3) = (   0.000000   0.000000  11.533624 )  

     reciprocal axes: (cart. coord. in units 2 pi/alat)
               b(1) = (  1.000000  0.000000  0.000000 )  
               b(2) = (  0.000000  1.055876  0.000000 )  
               b(3) = (  0.000000  0.000000  0.086703 )  


     PseudoPot. # 1 for Ba read from file:
     ./pseudo/Ba.pbe-nsp-van.UPF
     MD5 check sum: 2b9c31dd849566dd297d80989662b7a0
     Pseudo is Ultrasoft + core correction, Zval = 10.0
     Generated by new atomic code, or converted to UPF format
     Using radial grid of  907 points,  6 beta functions with: 
                l(1) =   0
                l(2) =   0
                l(3) =   1
                l(4) =   1
                l(5) =   2
                l(6) =   2
     Q(r) pseudized with  6 coefficients,  rinner =    1.200   1.200   1.200
                                                       1.200   1.200

     PseudoPot. # 2 for Ca read from file:
     ./pseudo/Ca.pbe-nsp-van.UPF
     MD5 check sum: 6471098428ff4fa451746d08035ff179
     Pseudo is Ultrasoft + core correction, Zval = 10.0
     Generated by new atomic code, or converted to UPF format
     Using radial grid of  845 points,  6 beta functions with: 
                l(1) =   0
                l(2) =   0
                l(3) =   1
                l(4) =   1
                l(5) =   2
                l(6) =   2
     Q(r) pseudized with  6 coefficients,  rinner =    1.200   1.200   1.200
                                                       1.200   1.200

     PseudoPot. # 3 for Cu read from file:
     ./pseudo/Cu.pbe-n-van_ak.UPF
     MD5 check sum: 34e3282627ffb533726feb647e090d62
     Pseudo is Ultrasoft + core correction, Zval = 11.0
     Generated by new atomic code, or converted to UPF format
     Using radial grid of  867 points,  6 beta functions with: 
                l(1) =   0
                l(2) =   0
                l(3) =   1
                l(4) =   1
                l(5) =   2
                l(6) =   2
     Q(r) pseudized with  8 coefficients,  rinner =    1.400   1.400   1.400
                                                       1.400   1.400

     PseudoPot. # 4 for O  read from file:
     ./pseudo/O.pbe-van_ak.UPF
     MD5 check sum: 783ce7fe4c79b6a4916957118fed0856
     Pseudo is Ultrasoft, Zval =  6.0
     Generated by new atomic code, or converted to UPF format
     Using radial grid of  737 points,  4 beta functions with: 
                l(1) =   0
                l(2) =   0
                l(3) =   1
                l(4) =   1
     Q(r) pseudized with  8 coefficients,  rinner =    0.800   0.800   0.800


     atomic species   valence    mass     pseudopotential
        Ba            10.00   137.32700     Ba( 1.00)
        Ca            10.00    40.07800     Ca( 1.00)
        Cu            11.00    63.54600     Cu( 1.00)
        O              6.00    15.99900     O ( 1.00)

      4 Sym. Ops. (no inversion) found



   Cartesian axes

     site n.     atom                  positions (alat units)
         1           O   tau(   1) = (   0.0000000   0.4735409  -0.0469745  )
         2           Cu  tau(   2) = (   0.0000000   0.0000000   0.0264565  )
         3           O   tau(   3) = (   0.0000000   0.0000000   0.5030914  )
         4           Ba  tau(   4) = (   0.5000000   0.4735409   0.5690292  )
         5           Cu  tau(   5) = (   0.0000000   0.0000000   1.0374254  )
         6           O   tau(   6) = (   0.5000000   0.0000000   1.0768099  )
         7           O   tau(   7) = (   0.0000000   0.4735409   1.1116985  )
         8           Ca  tau(   8) = (   0.5000000   0.4735409   1.4976260  )
         9           O   tau(   9) = (   0.0000000   0.4735409   1.8667529  )
        10           O   tau(  10) = (   0.5000000   0.0000000   1.9044124  )
        11           Cu  tau(  11) = (   0.0000000   0.0000000   1.9512546  )
        12           Ba  tau(  12) = (   0.5000000   0.4735409   2.4295764  )
        13           O   tau(  13) = (   0.0000000   0.0000000   2.5115362  )
        14           O   tau(  14) = (   0.0000000   0.4735409   2.9918528  )
        15           Cu  tau(  15) = (   0.0000000   0.0000000   2.9919088  )
        16           O   tau(  16) = (   0.0000000   0.0000000   3.4722686  )
        17           Ba  tau(  17) = (   0.5000000   0.4735409   3.5542208  )
        18           Cu  tau(  18) = (   0.0000000   0.0000000   4.0325248  )
        19           O   tau(  19) = (   0.5000000   0.0000000   4.0793669  )
        20           O   tau(  20) = (   0.0000000   0.4735409   4.1170213  )
        21           Ca  tau(  21) = (   0.5000000   0.4735409   4.4861584  )
        22           O   tau(  22) = (   0.0000000   0.4735409   5.3173510  )
        23           O   tau(  23) = (   0.5000000   0.0000000   5.3522397  )
        24           Cu  tau(  24) = (   0.0000000   0.0000000   5.3916268  )
        25           Ba  tau(  25) = (   0.5000000   0.4735409   5.8600204  )
        26           O   tau(  26) = (   0.0000000   0.0000000   5.9259480  )
        27           Cu  tau(  27) = (   0.0000000   0.0000000   6.4025879  )
        28           O   tau(  28) = (   0.0000000   0.4735409   6.4760062  )

     number of k points=    25  Gaussian smearing, width (Ry)=  0.0100
                       cart. coord. in units 2pi/alat
        k(    1) = (   0.0000000   0.0000000   0.0000000), wk =   0.0312500
        k(    2) = (   0.0000000   0.1319845   0.0000000), wk =   0.0625000
        k(    3) = (   0.0000000   0.2639689   0.0000000), wk =   0.0625000
        k(    4) = (   0.0000000   0.3959534   0.0000000), wk =   0.0625000
        k(    5) = (   0.0000000  -0.5279378   0.0000000), wk =   0.0312500
        k(    6) = (   0.1250000   0.0000000   0.0000000), wk =   0.0625000
        k(    7) = (   0.1250000   0.1319845   0.0000000), wk =   0.1250000
        k(    8) = (   0.1250000   0.2639689   0.0000000), wk =   0.1250000
        k(    9) = (   0.1250000   0.3959534   0.0000000), wk =   0.1250000
        k(   10) = (   0.1250000  -0.5279378   0.0000000), wk =   0.0625000
        k(   11) = (   0.2500000   0.0000000   0.0000000), wk =   0.0625000
        k(   12) = (   0.2500000   0.1319845   0.0000000), wk =   0.1250000
        k(   13) = (   0.2500000   0.2639689   0.0000000), wk =   0.1250000
        k(   14) = (   0.2500000   0.3959534   0.0000000), wk =   0.1250000
        k(   15) = (   0.2500000  -0.5279378   0.0000000), wk =   0.0625000
        k(   16) = (   0.3750000   0.0000000   0.0000000), wk =   0.0625000
        k(   17) = (   0.3750000   0.1319845   0.0000000), wk =   0.1250000
        k(   18) = (   0.3750000   0.2639689   0.0000000), wk =   0.1250000
        k(   19) = (   0.3750000   0.3959534   0.0000000), wk =   0.1250000
        k(   20) = (   0.3750000  -0.5279378   0.0000000), wk =   0.0625000
        k(   21) = (  -0.5000000   0.0000000   0.0000000), wk =   0.0312500
        k(   22) = (  -0.5000000   0.1319845   0.0000000), wk =   0.0625000
        k(   23) = (  -0.5000000   0.2639689   0.0000000), wk =   0.0625000
        k(   24) = (  -0.5000000   0.3959534   0.0000000), wk =   0.0625000
        k(   25) = (  -0.5000000  -0.5279378   0.0000000), wk =   0.0312500

     Dense  grid:  1459853 G-vectors     FFT dimensions: (  64,  64, 750)

     Smooth grid:   281181 G-vectors     FFT dimensions: (  40,  36, 432)

     Estimated max dynamical RAM per process >     465.94 MB

     Estimated total dynamical RAM >       9.10 GB

     Initial potential from superposition of free atoms

     starting charge  226.84630, renormalised to  227.00000

     negative rho (up, down):  3.501E-03 0.000E+00
     Starting wfcs are  195 randomized atomic wfcs

     total cpu time spent up to now is        9.6 secs

     Self-consistent Calculation

     iteration #  1     ecut=    60.00 Ry     beta= 0.50
     Davidson diagonalization with overlap
     ethr =  1.00E-02,  avg # of iterations =  2.0

     negative rho (up, down):  5.073E-04 0.000E+00

     total cpu time spent up to now is       25.1 secs

     total energy              =   -1840.97040899 Ry
     Harris-Foulkes estimate   =   -1845.30181831 Ry
     estimated scf accuracy    <      17.63161455 Ry

     iteration #  2     ecut=    60.00 Ry     beta= 0.50
     Davidson diagonalization with overlap
     ethr =  7.77E-03,  avg # of iterations =  2.0

     negative rho (up, down):  2.688E-04 0.000E+00

     total cpu time spent up to now is       40.5 secs

     total energy              =   -1842.54067692 Ry
     Harris-Foulkes estimate   =   -1843.19106526 Ry
     estimated scf accuracy    <       5.56998491 Ry

     iteration #  3     ecut=    60.00 Ry     beta= 0.50
     Davidson diagonalization with overlap
     ethr =  2.45E-03,  avg # of iterations =  1.2

     negative rho (up, down):  2.499E-04 0.000E+00

     total cpu time spent up to now is       54.7 secs

     total energy              =   -1842.75669167 Ry
     Harris-Foulkes estimate   =   -1842.93287245 Ry
     estimated scf accuracy    <       4.25950763 Ry

     iteration #  4     ecut=    60.00 Ry     beta= 0.50
     Davidson diagonalization with overlap
     ethr =  1.88E-03,  avg # of iterations =  1.0

     negative rho (up, down):  2.413E-04 0.000E+00

     total cpu time spent up to now is       68.4 secs

     total energy              =   -1842.73638369 Ry
     Harris-Foulkes estimate   =   -1842.86002658 Ry
     estimated scf accuracy    <       1.18810127 Ry

     iteration #  5     ecut=    60.00 Ry     beta= 0.50
     Davidson diagonalization with overlap
     ethr =  5.23E-04,  avg # of iterations =  4.5

     negative rho (up, down):  2.373E-04 0.000E+00

     total cpu time spent up to now is       86.5 secs

     total energy              =   -1842.75425742 Ry
     Harris-Foulkes estimate   =   -1842.79131451 Ry
     estimated scf accuracy    <       1.19540971 Ry

     iteration #  6     ecut=    60.00 Ry     beta= 0.50
     Davidson diagonalization with overlap
     ethr =  5.23E-04,  avg # of iterations =  1.6

     negative rho (up, down):  2.309E-04 0.000E+00

     total cpu time spent up to now is      101.0 secs

     total energy              =   -1842.72919130 Ry
     Harris-Foulkes estimate   =   -1842.76971650 Ry
     estimated scf accuracy    <       0.68856858 Ry

     iteration #  7     ecut=    60.00 Ry     beta= 0.50
     Davidson diagonalization with overlap
     ethr =  3.03E-04,  avg # of iterations =  7.0

     negative rho (up, down):  2.265E-04 0.000E+00

     total cpu time spent up to now is      122.4 secs

     total energy              =   -1842.72617602 Ry
     Harris-Foulkes estimate   =   -1842.74745968 Ry
     estimated scf accuracy    <       0.44907569 Ry

     iteration #  8     ecut=    60.00 Ry     beta= 0.50
     Davidson diagonalization with overlap
     ethr =  1.98E-04,  avg # of iterations =  3.4

     negative rho (up, down):  2.238E-04 0.000E+00

     total cpu time spent up to now is      139.1 secs

     total energy              =   -1842.73009832 Ry
     Harris-Foulkes estimate   =   -1842.74084850 Ry
     estimated scf accuracy    <       0.50657761 Ry

     iteration #  9     ecut=    60.00 Ry     beta= 0.50
     Davidson diagonalization with overlap
     ethr =  1.98E-04,  avg # of iterations =  1.4

     negative rho (up, down):  2.237E-04 0.000E+00

     total cpu time spent up to now is      153.3 secs

     total energy              =   -1842.72816007 Ry
     Harris-Foulkes estimate   =   -1842.73439320 Ry
     estimated scf accuracy    <       0.08850471 Ry

     iteration # 10     ecut=    60.00 Ry     beta= 0.50
     Davidson diagonalization with overlap
     ethr =  3.90E-05,  avg # of iterations =  8.4

     negative rho (up, down):  2.244E-04 0.000E+00

     total cpu time spent up to now is      176.1 secs

     total energy              =   -1842.72570896 Ry
     Harris-Foulkes estimate   =   -1842.73030025 Ry
     estimated scf accuracy    <       0.08882603 Ry

     iteration # 11     ecut=    60.00 Ry     beta= 0.50
     Davidson diagonalization with overlap
     ethr =  3.90E-05,  avg # of iterations =  1.0

     negative rho (up, down):  2.239E-04 0.000E+00

     total cpu time spent up to now is      189.9 secs

     total energy              =   -1842.72598399 Ry
     Harris-Foulkes estimate   =   -1842.72724601 Ry
     estimated scf accuracy    <       0.07882405 Ry

     iteration # 12     ecut=    60.00 Ry     beta= 0.50
     Davidson diagonalization with overlap
     ethr =  3.47E-05,  avg # of iterations =  1.6

     negative rho (up, down):  2.237E-04 0.000E+00

     total cpu time spent up to now is      204.2 secs

     total energy              =   -1842.72561171 Ry
     Harris-Foulkes estimate   =   -1842.72634340 Ry
     estimated scf accuracy    <       0.05016706 Ry

     iteration # 13     ecut=    60.00 Ry     beta= 0.50
     Davidson diagonalization with overlap
     ethr =  2.21E-05,  avg # of iterations =  1.4

     negative rho (up, down):  2.239E-04 0.000E+00

     total cpu time spent up to now is      218.2 secs

     total energy              =   -1842.72473735 Ry
     Harris-Foulkes estimate   =   -1842.72575880 Ry
     estimated scf accuracy    <       0.03961807 Ry

     iteration # 14     ecut=    60.00 Ry     beta= 0.50
     Davidson diagonalization with overlap
     ethr =  1.75E-05,  avg # of iterations =  2.2

     negative rho (up, down):  2.248E-04 0.000E+00

     total cpu time spent up to now is      233.1 secs

     total energy              =   -1842.72405113 Ry
     Harris-Foulkes estimate   =   -1842.72485891 Ry
     estimated scf accuracy    <       0.03875246 Ry

     iteration # 15     ecut=    60.00 Ry     beta= 0.50
     Davidson diagonalization with overlap
     ethr =  1.71E-05,  avg # of iterations =  1.0

     negative rho (up, down):  1.877E-03 0.000E+00

     total cpu time spent up to now is      246.9 secs

     total energy              =   -1842.72223076 Ry
     Harris-Foulkes estimate   =   -1842.72421269 Ry
     estimated scf accuracy    <       0.04417048 Ry

     iteration # 16     ecut=    60.00 Ry     beta= 0.50
     Davidson diagonalization with overlap
     ethr =  1.71E-05,  avg # of iterations =  3.8

     negative rho (up, down):  5.726E-03 0.000E+00

     total cpu time spent up to now is      263.7 secs

     total energy              =   -1842.72138054 Ry
     Harris-Foulkes estimate   =   -1842.72243988 Ry
     estimated scf accuracy    <       0.01469989 Ry

     iteration # 17     ecut=    60.00 Ry     beta= 0.50
     Davidson diagonalization with overlap
     ethr =  6.48E-06,  avg # of iterations = 10.0

     negative rho (up, down):  8.113E-03 0.000E+00

     total cpu time spent up to now is      288.7 secs

     total energy              =   -1842.72073654 Ry
     Harris-Foulkes estimate   =   -1842.72150961 Ry
     estimated scf accuracy    <       0.00502288 Ry

     iteration # 18     ecut=    60.00 Ry     beta= 0.50
     Davidson diagonalization with overlap
     ethr =  2.21E-06,  avg # of iterations =  8.5

     negative rho (up, down):  2.630E-03 0.000E+00

     total cpu time spent up to now is      311.9 secs

     total energy              =   -1842.72055365 Ry
     Harris-Foulkes estimate   =   -1842.72086042 Ry
     estimated scf accuracy    <       0.00592620 Ry

     iteration # 19     ecut=    60.00 Ry     beta= 0.50
     Davidson diagonalization with overlap
     ethr =  2.21E-06,  avg # of iterations =  4.2

     negative rho (up, down):  5.823E-03 0.000E+00

     total cpu time spent up to now is      329.9 secs

     total energy              =   -1842.72047602 Ry
     Harris-Foulkes estimate   =   -1842.72065500 Ry
     estimated scf accuracy    <       0.00155134 Ry

     iteration # 20     ecut=    60.00 Ry     beta= 0.50
     Davidson diagonalization with overlap
     ethr =  6.83E-07,  avg # of iterations =  6.8

     negative rho (up, down):  2.549E-03 0.000E+00

     total cpu time spent up to now is      351.0 secs

     total energy              =   -1842.72045530 Ry
     Harris-Foulkes estimate   =   -1842.72054578 Ry
     estimated scf accuracy    <       0.00153885 Ry

     iteration # 21     ecut=    60.00 Ry     beta= 0.50
     Davidson diagonalization with overlap
     c_bands:  1 eigenvalues not converged
     c_bands:  1 eigenvalues not converged
     ethr =  6.78E-07,  avg # of iterations =  6.5

     negative rho (up, down):  8.364E-04 0.000E+00

     total cpu time spent up to now is      371.2 secs

     total energy              =   -1842.72052155 Ry
     Harris-Foulkes estimate   =   -1842.72048183 Ry
     estimated scf accuracy    <       0.00096738 Ry

     iteration # 22     ecut=    60.00 Ry     beta= 0.50
     Davidson diagonalization with overlap
     c_bands:  1 eigenvalues not converged
     c_bands:  1 eigenvalues not converged
     c_bands:  1 eigenvalues not converged
     ethr =  4.26E-07,  avg # of iterations =  6.0

     negative rho (up, down):  9.045E-04 0.000E+00

     total cpu time spent up to now is      391.0 secs

     total energy              =   -1842.72053388 Ry
     Harris-Foulkes estimate   =   -1842.72053100 Ry
     estimated scf accuracy    <       0.00021142 Ry

     iteration # 23     ecut=    60.00 Ry     beta= 0.50
     Davidson diagonalization with overlap
     c_bands:  1 eigenvalues not converged
     ethr =  9.31E-08,  avg # of iterations =  4.5

     negative rho (up, down):  1.262E-03 0.000E+00

     total cpu time spent up to now is      408.9 secs

     total energy              =   -1842.72053598 Ry
     Harris-Foulkes estimate   =   -1842.72053848 Ry
     estimated scf accuracy    <       0.00009123 Ry

     iteration # 24     ecut=    60.00 Ry     beta= 0.50
     Davidson diagonalization with overlap
     ethr =  4.02E-08,  avg # of iterations =  1.5

     negative rho (up, down):  1.503E-03 0.000E+00

     total cpu time spent up to now is      423.2 secs

     total energy              =   -1842.72054187 Ry
     Harris-Foulkes estimate   =   -1842.72053965 Ry
     estimated scf accuracy    <       0.00003127 Ry

     iteration # 25     ecut=    60.00 Ry     beta= 0.50
     Davidson diagonalization with overlap
     ethr =  1.38E-08,  avg # of iterations =  1.8

     negative rho (up, down):  1.503E-03 0.000E+00

     total cpu time spent up to now is      438.0 secs

     total energy              =   -1842.72054251 Ry
     Harris-Foulkes estimate   =   -1842.72054306 Ry
     estimated scf accuracy    <       0.00001464 Ry

     iteration # 26     ecut=    60.00 Ry     beta= 0.50
     Davidson diagonalization with overlap
     ethr =  6.45E-09,  avg # of iterations =  1.5

     negative rho (up, down):  1.519E-03 0.000E+00

     total cpu time spent up to now is      452.4 secs

     total energy              =   -1842.72054286 Ry
     Harris-Foulkes estimate   =   -1842.72054310 Ry
     estimated scf accuracy    <       0.00000545 Ry

     iteration # 27     ecut=    60.00 Ry     beta= 0.50
     Davidson diagonalization with overlap
     ethr =  2.40E-09,  avg # of iterations =  2.0

     negative rho (up, down):  1.435E-03 0.000E+00

     total cpu time spent up to now is      468.0 secs

     total energy              =   -1842.72054291 Ry
     Harris-Foulkes estimate   =   -1842.72054310 Ry
     estimated scf accuracy    <       0.00000190 Ry

     iteration # 28     ecut=    60.00 Ry     beta= 0.50
     Davidson diagonalization with overlap
     ethr =  8.39E-10,  avg # of iterations =  2.6

     negative rho (up, down):  1.419E-03 0.000E+00

     total cpu time spent up to now is      483.6 secs

     total energy              =   -1842.72054298 Ry
     Harris-Foulkes estimate   =   -1842.72054305 Ry
     estimated scf accuracy    <       0.00000211 Ry

     iteration # 29     ecut=    60.00 Ry     beta= 0.50
     Davidson diagonalization with overlap
     ethr =  8.39E-10,  avg # of iterations =  1.0

     negative rho (up, down):  1.430E-03 0.000E+00

     total cpu time spent up to now is      497.8 secs

     total energy              =   -1842.72054298 Ry
     Harris-Foulkes estimate   =   -1842.72054306 Ry
     estimated scf accuracy    <       0.00000072 Ry

     iteration # 30     ecut=    60.00 Ry     beta= 0.50
     Davidson diagonalization with overlap
     ethr =  3.17E-10,  avg # of iterations =  1.0

     negative rho (up, down):  1.444E-03 0.000E+00

     total cpu time spent up to now is      511.6 secs

     total energy              =   -1842.72054293 Ry
     Harris-Foulkes estimate   =   -1842.72054301 Ry
     estimated scf accuracy    <       0.00000035 Ry

     iteration # 31     ecut=    60.00 Ry     beta= 0.50
     Davidson diagonalization with overlap
     ethr =  1.54E-10,  avg # of iterations =  1.5

     negative rho (up, down):  1.480E-03 0.000E+00

     total cpu time spent up to now is      526.1 secs

     total energy              =   -1842.72054288 Ry
     Harris-Foulkes estimate   =   -1842.72054295 Ry
     estimated scf accuracy    <       0.00000025 Ry

     iteration # 32     ecut=    60.00 Ry     beta= 0.50
     Davidson diagonalization with overlap
     ethr =  1.11E-10,  avg # of iterations =  1.0

     negative rho (up, down):  1.476E-03 0.000E+00

     total cpu time spent up to now is      540.0 secs

     total energy              =   -1842.72054289 Ry
     Harris-Foulkes estimate   =   -1842.72054289 Ry
     estimated scf accuracy    <       0.00000002 Ry

     iteration # 33     ecut=    60.00 Ry     beta= 0.50
     Davidson diagonalization with overlap
     ethr =  9.65E-12,  avg # of iterations =  3.4

     negative rho (up, down):  1.484E-03 0.000E+00

     total cpu time spent up to now is      558.8 secs

     total energy              =   -1842.72054288 Ry
     Harris-Foulkes estimate   =   -1842.72054290 Ry
     estimated scf accuracy    <       0.00000001 Ry

     iteration # 34     ecut=    60.00 Ry     beta= 0.50
     Davidson diagonalization with overlap
     ethr =  5.89E-12,  avg # of iterations =  1.1

     negative rho (up, down):  1.484E-03 0.000E+00

     total cpu time spent up to now is      572.7 secs

     total energy              =   -1842.72054288 Ry
     Harris-Foulkes estimate   =   -1842.72054288 Ry
     estimated scf accuracy    <       0.00000001 Ry

     iteration # 35     ecut=    60.00 Ry     beta= 0.50
     Davidson diagonalization with overlap
     ethr =  5.75E-12,  avg # of iterations =  1.0

     negative rho (up, down):  1.489E-03 0.000E+00

     total cpu time spent up to now is      586.2 secs

     End of self-consistent calculation

          k = 0.0000 0.0000 0.0000 ( 35217 PWs)   bands (ev):

   -38.5401 -35.6143 -22.8447 -22.8188 -22.6875 -22.5597 -19.5985 -19.5377
   -19.5201 -17.1186 -16.6655 -16.6541 -15.7009 -15.3291 -14.9957 -14.8855
   -14.6991 -14.6684 -14.5999 -14.5617 -14.2091 -14.1953 -14.0096 -13.8512
   -13.8019 -13.6766 -13.6672  -8.0588  -7.9501  -7.9126  -7.8698  -7.7979
    -7.7624  -7.7408  -7.7196  -7.7162  -7.6046  -7.6002  -7.4385  -2.3576
    -2.3368  -2.3239  -2.3179  -2.2329  -1.8576  -1.7942  -1.7559  -1.6958
    -1.5664  -1.5251  -1.5114  -1.2479  -1.2344  -1.1892  -1.1319  -1.0823
    -0.8887  -0.7171  -0.6501  -0.6225  -0.4862  -0.4623  -0.4042  -0.3508
    -0.3373  -0.2923  -0.2779  -0.2725  -0.2587  -0.2296  -0.2229  -0.2134
    -0.1963  -0.1382  -0.0648  -0.0280   0.0334   0.0712   0.0714   0.0814
     0.0841   0.1432   0.1458   0.1578   0.2059   0.2807   0.2960   0.3210
     0.3642   0.7095   0.7711   0.8410   0.8543   0.8854   0.9327   0.9679
     1.0253   1.1157   1.1566   1.3215   1.3392   1.4391   1.4551   1.4945
     1.5042   1.5463   1.6394   1.6813   1.7997   2.0062   2.0367   2.0721
     2.0861   2.1134   2.2117   2.2266   2.2427   2.4958   2.5083   3.5126
     5.1885   5.2184   5.7697   5.9460   6.1861   6.3731   6.7364   6.8730
     7.1346   7.1957   7.3060   7.5962   7.6425   7.9453   8.0822   8.1157
     8.3468

          k = 0.0000 0.1320 0.0000 ( 35189 PWs)   bands (ev):

   -38.5386 -35.6124 -22.8194 -22.7921 -22.6606 -22.5343 -19.6039 -19.5513
   -19.5183 -17.0825 -16.7266 -16.6631 -15.6461 -15.2405 -14.9459 -14.8316
   -14.7042 -14.6604 -14.5922 -14.5725 -14.2186 -14.2017 -14.0151 -13.8970
   -13.8494 -13.7336 -13.6998  -8.0570  -7.9497  -7.8647  -7.8256  -7.7695
    -7.7617  -7.7616  -7.7495  -7.7331  -7.6412  -7.5595  -7.4863  -2.6195
    -2.4164  -2.3696  -2.3267  -2.1941  -2.1937  -2.0838  -1.9168  -1.7221
    -1.6755  -1.6722  -1.6560  -1.6347  -1.5487  -1.3768  -1.1898  -1.1735
    -1.0332  -0.7599  -0.7053  -0.6561  -0.5836  -0.5764  -0.5518  -0.5293
    -0.4885  -0.4252  -0.4009  -0.3972  -0.3658  -0.2376  -0.1906  -0.1754
    -0.1630  -0.1023  -0.0435  -0.0433  -0.0209  -0.0100   0.0734   0.0945
     0.0969   0.1105   0.1500   0.1525   0.2302   0.2497   0.3417   0.4768
     0.4810   0.6688   0.8244   0.9150   0.9951   1.0287   1.0515   1.0966
     1.1191   1.1411   1.1603   1.3570   1.4013   1.4323   1.4495   1.4965
     1.5005   1.5691   1.6075   1.6622   1.7873   1.9091   1.9505   2.0126
     2.0234   2.0819   2.1464   2.4288   2.7633   2.8053   2.8314   3.7029
     5.5653   5.5866   6.0064   6.1163   6.3199   6.5527   7.0350   7.0402
     7.1633   7.3353   7.5353   7.6481   7.7318   8.1251   8.2949   8.3806
     8.5374

          k = 0.0000 0.2640 0.0000 ( 35065 PWs)   bands (ev):

   -38.5351 -35.6080 -22.7570 -22.7262 -22.5942 -22.4715 -19.6496 -19.5502
   -19.5140 -16.9904 -16.8809 -16.6575 -15.4967 -15.0408 -14.8694 -14.7531
   -14.7117 -14.6683 -14.6180 -14.5107 -14.2059 -14.1813 -14.0548 -14.0279
   -13.9520 -13.8427 -13.7905  -8.0531  -7.9492  -7.8703  -7.8523  -7.7607
    -7.7443  -7.7309  -7.7292  -7.7148  -7.6275  -7.5896  -7.4461  -3.0964
    -2.8620  -2.7554  -2.6528  -2.6294  -2.4562  -2.4156  -2.3087  -2.2862
    -2.2820  -2.0783  -1.7824  -1.6217  -1.5261  -1.4923  -1.4018  -1.3162
    -1.1934  -1.0825  -0.9992  -0.9318  -0.8850  -0.8348  -0.7866  -0.7686
    -0.6792  -0.6516  -0.6076  -0.5635  -0.5470  -0.5274  -0.5248  -0.4871
    -0.3450  -0.1575  -0.0621  -0.0414  -0.0150   0.0179   0.0635   0.0769
     0.1450   0.1549   0.1842   0.3417   0.4309   0.5900   0.6703   0.7090
     0.8585   0.8654   0.9323   0.9508   1.0992   1.1266   1.1368   1.1745
     1.1783   1.1810   1.2474   1.2815   1.3345   1.3432   1.4462   1.6031
     1.6273   1.6457   1.7479   1.8563   1.9054   1.9412   1.9460   1.9581
     2.1273   2.1296   2.1499   2.5470   3.0125   3.0575   3.6644   4.1176
     6.2169   6.4593   6.4671   6.5061   6.7258   6.7387   7.2810   7.6311
     7.7205   7.8607   7.9764   8.2027   8.3378   8.6283   8.7448   8.7708
     8.9278

          k = 0.0000 0.3960 0.0000 ( 34998 PWs)   bands (ev):

   -38.5315 -35.6036 -22.6927 -22.6580 -22.5256 -22.4067 -19.7078 -19.5352
   -19.5098 -17.0172 -16.8887 -16.6519 -15.2918 -14.9621 -14.9169 -14.8648
   -14.7109 -14.5276 -14.4475 -14.4370 -14.1768 -14.1351 -14.1200 -14.1183
   -14.0974 -13.9339 -13.9148  -8.0470  -7.9617  -7.9492  -7.9304  -7.8086
    -7.7563  -7.7263  -7.6795  -7.6158  -7.5975  -7.4973  -7.3258  -3.5267
    -3.4301  -3.3163  -3.1409  -3.0870  -3.0230  -2.9929  -2.3995  -2.3798
    -2.3233  -2.0892  -1.8912  -1.8390  -1.7273  -1.5565  -1.5182  -1.4019
    -1.2472  -1.2068  -1.2009  -1.1593  -1.1032  -1.0900  -1.0434  -0.9971
    -0.9349  -0.8909  -0.8495  -0.7783  -0.7640  -0.7362  -0.6973  -0.5759
    -0.3641  -0.2679  -0.1950  -0.0714   0.0019   0.0363   0.0612   0.0976
     0.1290   0.1344   0.1379   0.4643   0.7313   0.7542   0.8391   0.8880
     0.9043   0.9272   0.9436   1.0152   1.0567   1.0689   1.1079   1.1390
     1.1893   1.3344   1.4144   1.4635   1.4733   1.5823   1.5911   1.6983
     1.7093   1.7199   1.8862   1.9476   1.9557   2.0335   2.1021   2.1906
     2.2247   2.3402   2.3560   2.4758   2.9068   2.9599   4.2196   4.6106
     6.1520   6.5009   6.7665   7.3372   7.4076   7.4549   7.7755   7.9175
     8.2337   8.4314   8.6530   8.7345   8.9290   9.0603   9.0626   9.0991
     9.3502

          k = 0.0000-0.5279 0.0000 ( 35058 PWs)   bands (ev):

   -38.5301 -35.6018 -22.6654 -22.6291 -22.4964 -22.3793 -19.7324 -19.5282
   -19.5080 -17.0693 -16.8438 -16.6495 -15.0936 -15.0506 -15.0043 -14.9603
   -14.5967 -14.5225 -14.3032 -14.2810 -14.2713 -14.1882 -14.1551 -14.1000
   -14.0829 -14.0681 -13.9514  -8.0392  -8.0015  -7.9601  -7.9488  -7.8373
    -7.7555  -7.7205  -7.7172  -7.5599  -7.5468  -7.4405  -7.2737  -3.7621
    -3.6120  -3.4951  -3.3381  -3.2654  -3.2432  -3.2169  -2.4157  -2.3971
    -2.3360  -2.2123  -1.9683  -1.8657  -1.7149  -1.5870  -1.5233  -1.4841
    -1.3453  -1.2934  -1.2284  -1.2223  -1.2059  -1.1566  -1.0921  -1.0903
    -1.0428  -1.0069  -0.9649  -0.8649  -0.8488  -0.8123  -0.7078  -0.6051
    -0.3684  -0.3296  -0.1739  -0.1317   0.0075   0.0425   0.0822   0.0918
     0.1222   0.1367   0.1424   0.3943   0.6616   0.7862   0.8199   0.8289
     0.8333   0.9659   1.0053   1.0909   1.1210   1.1277   1.1628   1.1752
     1.2894   1.3401   1.4436   1.4823   1.5357   1.6966   1.7096   1.7996
     1.8033   1.8743   1.9852   1.9922   2.0298   2.0369   2.1372   2.1993
     2.2182   2.4544   2.5017   2.5168   2.7293   2.7905   4.3817   4.9030
     6.0230   6.4130   6.9075   7.6108   7.7970   7.8191   7.8900   8.1817
     8.3426   8.5216   8.8871   8.9452   8.9787   9.1719   9.2146   9.3048
     9.3842

          k = 0.1250 0.0000 0.0000 ( 35169 PWs)   bands (ev):

   -38.5393 -35.6132 -22.8277 -22.8007 -22.6692 -22.5425 -19.6005 -19.5368
   -19.5332 -17.0852 -16.7458 -16.6527 -15.6543 -15.2269 -14.9637 -14.9087
   -14.7447 -14.6995 -14.6051 -14.5872 -14.2181 -14.2034 -14.0216 -13.8766
   -13.8545 -13.7052 -13.6979  -8.0916  -7.9758  -7.8508  -7.8265  -7.8136
    -7.7598  -7.7100  -7.6872  -7.6867  -7.5672  -7.5438  -7.4081  -2.4593
    -2.4001  -2.3676  -2.2898  -2.2862  -1.8999  -1.8410  -1.8352  -1.7654
    -1.7217  -1.5241  -1.5034  -1.4816  -1.2458  -1.2323  -1.1692  -1.1038
    -0.9196  -0.8233  -0.7351  -0.6740  -0.6341  -0.5418  -0.4944  -0.4645
    -0.4483  -0.4088  -0.3668  -0.3451  -0.3325  -0.2958  -0.2316  -0.2258
    -0.2042  -0.1246  -0.1241  -0.0772   0.0470   0.0641   0.0750   0.0974
     0.1669   0.1773   0.1932   0.2143   0.2651   0.3147   0.3509   0.3935
     0.4574   0.5997   0.7627   0.7983   0.8223   0.8711   0.9843   0.9960
     1.1265   1.1593   1.1833   1.3183   1.3386   1.3858   1.4562   1.5062
     1.5082   1.6046   1.6419   1.8316   1.9059   1.9508   1.9737   2.0787
     2.1160   2.1570   2.1668   2.1865   2.2923   2.5430   2.5673   3.6770
     5.3691   5.3936   5.9080   6.0687   6.2749   6.5109   6.9501   7.0732
     7.1191   7.2431   7.3478   7.6651   7.7155   8.0997   8.2551   8.3282
     8.5235

          k = 0.1250 0.1320 0.0000 ( 35128 PWs)   bands (ev):

   -38.5379 -35.6114 -22.8032 -22.7749 -22.6432 -22.5178 -19.6043 -19.5557
   -19.5276 -17.0501 -16.7488 -16.7159 -15.6010 -15.1456 -14.9207 -14.8522
   -14.7390 -14.6793 -14.6131 -14.5752 -14.2190 -14.2017 -14.0273 -13.9112
   -13.8943 -13.7529 -13.7277  -8.0849  -7.9951  -7.9206  -7.9129  -7.8593
    -7.7655  -7.7434  -7.6496  -7.6458  -7.6314  -7.5301  -7.3673  -2.6468
    -2.4531  -2.3943  -2.3714  -2.2971  -2.1789  -2.0625  -1.8981  -1.8790
    -1.8108  -1.7286  -1.6662  -1.6547  -1.6168  -1.5060  -1.3821  -1.2108
    -1.0535  -0.9420  -0.8317  -0.7465  -0.7115  -0.6849  -0.6022  -0.5774
    -0.5731  -0.5358  -0.5275  -0.5025  -0.3494  -0.2946  -0.2351  -0.1809
    -0.1633  -0.1506  -0.0760  -0.0495  -0.0166  -0.0059   0.0365   0.1242
     0.1416   0.1509   0.1879   0.1980   0.2466   0.2619   0.4903   0.5545
     0.6677   0.7530   0.7728   0.9206   1.0030   1.0296   1.0429   1.1070
     1.1923   1.1962   1.2399   1.2561   1.2934   1.4307   1.4355   1.5407
     1.5643   1.5948   1.6094   1.6342   1.7300   1.8483   1.9135   2.1209
     2.2713   2.3187   2.5234   2.5350   2.7788   2.8140   2.8433   3.8167
     5.7078   5.7293   6.0927   6.2188   6.3525   6.7020   6.9481   7.2457
     7.3371   7.4221   7.4936   7.7717   7.8944   8.2724   8.4282   8.5647
     8.7024

          k = 0.1250 0.2640 0.0000 ( 35067 PWs)   bands (ev):

   -38.5343 -35.6070 -22.7425 -22.7110 -22.5789 -22.4568 -19.6478 -19.5609
   -19.5189 -16.9609 -16.8778 -16.7284 -15.4562 -14.9716 -14.8603 -14.7394
   -14.7147 -14.6864 -14.5983 -14.5052 -14.2013 -14.1750 -14.0767 -14.0210
   -13.9587 -13.8507 -13.8095  -8.0729  -8.0641  -8.0472  -7.9500  -7.9437
    -7.7799  -7.7607  -7.7402  -7.6401  -7.6279  -7.5209  -7.3618  -3.1292
    -2.8849  -2.7445  -2.6620  -2.6382  -2.4567  -2.4111  -2.3307  -2.3081
    -2.2843  -2.2210  -1.8300  -1.7968  -1.7121  -1.5321  -1.4910  -1.4152
    -1.3491  -1.1886  -1.0610  -1.0394  -1.0085  -0.9217  -0.8893  -0.8395
    -0.8017  -0.7214  -0.6856  -0.6449  -0.6352  -0.5958  -0.5282  -0.5152
    -0.3511  -0.1856  -0.1668  -0.0891  -0.0849   0.0460   0.0920   0.1668
     0.1889   0.2483   0.3633   0.4688   0.5714   0.6976   0.7311   0.7498
     0.7741   0.9890   1.0037   1.0214   1.0747   1.1210   1.1738   1.2761
     1.2913   1.3382   1.3412   1.3626   1.3857   1.4338   1.4936   1.5386
     1.5701   1.6166   1.6533   1.8581   1.9095   1.9371   1.9777   2.1627
     2.4601   2.5184   2.6908   2.7513   3.0233   3.0712   3.6661   4.1810
     6.2693   6.5021   6.5203   6.5542   6.6115   6.7262   7.3597   7.6064
     7.6477   8.0253   8.1248   8.4026   8.5143   8.7375   8.8046   8.8765
     8.9677

          k = 0.1250 0.3960 0.0000 ( 35054 PWs)   bands (ev):

   -38.5308 -35.6026 -22.6801 -22.6451 -22.5125 -22.3940 -19.7059 -19.5515
   -19.5089 -17.0120 -16.8622 -16.7198 -15.2582 -14.9271 -14.8880 -14.8547
   -14.6369 -14.5174 -14.4355 -14.4141 -14.1718 -14.1563 -14.1161 -14.1101
   -14.0808 -13.9360 -13.9093  -8.1152  -8.0946  -8.0575  -7.9731  -7.9615
    -7.8340  -7.7698  -7.7536  -7.6851  -7.6534  -7.5656  -7.4013  -3.5597
    -3.4411  -3.3568  -3.1588  -3.1157  -3.0146  -2.9870  -2.4078  -2.3843
    -2.3485  -2.1443  -1.9619  -1.8200  -1.6831  -1.6696  -1.6339  -1.5999
    -1.4916  -1.3871  -1.3548  -1.2271  -1.1929  -1.1414  -1.1138  -1.0598
    -0.9466  -0.9225  -0.9002  -0.8554  -0.8363  -0.7816  -0.7723  -0.7262
    -0.4016  -0.2417  -0.1765  -0.1092  -0.0671   0.0805   0.1428   0.1745
     0.1767   0.3097   0.4035   0.6356   0.6568   0.8445   0.8738   0.9297
     0.9435   1.0272   1.0822   1.0901   1.1565   1.2002   1.2128   1.2492
     1.3740   1.3753   1.4253   1.5139   1.5998   1.6236   1.6920   1.7255
     1.7545   1.8368   1.9216   2.0209   2.0909   2.3049   2.3076   2.3235
     2.4376   2.4699   2.5997   2.6844   2.9652   3.0117   4.1970   4.6522
     6.1921   6.3896   6.7935   7.0670   7.2717   7.3318   7.7166   7.9247
     8.1064   8.4865   8.6354   8.7266   8.8840   9.0666   9.1458   9.3492
     9.4847

          k = 0.1250-0.5279 0.0000 ( 35032 PWs)   bands (ev):

   -38.5293 -35.6008 -22.6536 -22.6171 -22.4844 -22.3674 -19.7304 -19.5474
   -19.5042 -17.0637 -16.8188 -16.7161 -15.0576 -15.0395 -14.9596 -14.9178
   -14.5242 -14.4835 -14.3024 -14.2666 -14.2603 -14.1878 -14.1618 -14.1009
   -14.0816 -14.0503 -13.9355  -8.1247  -8.0892  -8.0554  -7.9666  -7.9664
    -7.8443  -7.7750  -7.7681  -7.7194  -7.6655  -7.5993  -7.4267  -3.7687
    -3.6603  -3.5436  -3.3585  -3.2939  -3.2430  -3.2142  -2.4288  -2.4069
    -2.3591  -2.1311  -1.8746  -1.8726  -1.8496  -1.7329  -1.6448  -1.5725
    -1.5462  -1.4823  -1.3922  -1.3436  -1.2852  -1.2473  -1.2270  -1.0875
    -1.0427  -0.9756  -0.9720  -0.9326  -0.9071  -0.8779  -0.8685  -0.7436
    -0.3917  -0.2601  -0.1790  -0.1109  -0.0439   0.0935   0.1045   0.1856
     0.1878   0.3452   0.4045   0.6160   0.6682   0.8157   0.9040   0.9279
     0.9391   0.9909   0.9988   1.1760   1.1898   1.2393   1.2897   1.3224
     1.3819   1.4403   1.4712   1.4863   1.7507   1.7566   1.8039   1.9800
     2.0038   2.0128   2.0221   2.1893   2.2629   2.3152   2.3268   2.4024
     2.4396   2.4726   2.4898   2.5283   2.8432   2.8717   4.3469   4.9267
     6.0641   6.3237   6.9335   7.1554   7.4931   7.5715   7.7402   8.2790
     8.3426   8.4023   8.5900   9.0259   9.1232   9.2788   9.3325   9.3451
     9.5031

          k = 0.2500 0.0000 0.0000 ( 35172 PWs)   bands (ev):

   -38.5374 -35.6105 -22.7861 -22.7564 -22.6244 -22.5002 -19.6227 -19.5466
   -19.5345 -16.9999 -16.9100 -16.6494 -15.5304 -15.0291 -14.9739 -14.9513
   -14.8263 -14.7059 -14.6647 -14.6284 -14.2322 -14.2133 -14.0712 -13.9931
   -13.9076 -13.7830 -13.7618  -8.1283  -7.9773  -7.8025  -7.7929  -7.7641
    -7.7208  -7.6347  -7.6134  -7.6065  -7.4851  -7.4599  -7.3325  -2.8048
    -2.5935  -2.4769  -2.4128  -2.2372  -2.2098  -2.1903  -2.0561  -1.7745
    -1.6811  -1.6759  -1.4993  -1.4406  -1.2783  -1.2425  -1.2287  -1.1665
    -1.1103  -1.0054  -0.9999  -0.9503  -0.8626  -0.7971  -0.7846  -0.6658
    -0.6439  -0.5584  -0.5354  -0.5225  -0.4536  -0.3364  -0.2784  -0.2772
    -0.2481  -0.2313  -0.2203  -0.1824  -0.0341   0.0514   0.0618   0.1569
     0.2117   0.2301   0.2961   0.3340   0.3598   0.4215   0.4293   0.5184
     0.6200   0.6261   0.6371   0.8718   0.9386   0.9719   1.0092   1.0554
     1.0963   1.2524   1.2567   1.2801   1.3421   1.3905   1.4135   1.4234
     1.5480   1.6459   1.7001   1.8077   1.8602   1.9295   2.0089   2.0110
     2.1472   2.2111   2.2328   2.3432   2.4610   2.6509   2.7171   4.0614
     5.8266   5.8481   6.0082   6.2841   6.4682   6.9633   7.0175   7.4245
     7.5270   7.6446   7.6999   7.8740   8.0864   8.4647   8.5987   8.7465
     8.8143

          k = 0.2500 0.1320 0.0000 ( 35139 PWs)   bands (ev):

   -38.5360 -35.6087 -22.7633 -22.7326 -22.6004 -22.4773 -19.6209 -19.5706
   -19.5291 -16.9678 -16.9035 -16.7155 -15.4813 -14.9788 -14.9208 -14.9104
   -14.7772 -14.6783 -14.6577 -14.5933 -14.2181 -14.1985 -14.0689 -13.9970
   -13.9422 -13.8038 -13.7890  -8.1428  -8.0459  -7.9270  -7.9115  -7.9009
    -7.8098  -7.7278  -7.6442  -7.5729  -7.5670  -7.4533  -7.2989  -2.8861
    -2.6435  -2.4986  -2.4462  -2.4246  -2.2291  -2.1995  -2.1207  -2.0477
    -1.9845  -1.8476  -1.7482  -1.6567  -1.6407  -1.5813  -1.4425  -1.3512
    -1.2527  -1.1773  -1.0969  -1.0416  -0.9757  -0.9107  -0.8309  -0.7866
    -0.6952  -0.6520  -0.6242  -0.5708  -0.4867  -0.3657  -0.3571  -0.2436
    -0.2396  -0.1805  -0.0597  -0.0178  -0.0073   0.0140   0.0888   0.1232
     0.1642   0.1724   0.2117   0.3022   0.3159   0.5376   0.5884   0.7361
     0.7414   0.8593   0.9023   0.9032   0.9737   1.0372   1.1361   1.1438
     1.1828   1.2683   1.2841   1.3516   1.3802   1.4061   1.4498   1.4905
     1.5050   1.5737   1.6749   1.6918   1.7097   1.9193   1.9570   2.2733
     2.5180   2.6385   2.7687   2.8294   2.8410   2.9177   2.9323   4.1376
     6.0878   6.0896   6.1168   6.3693   6.5039   6.7917   7.1670   7.5032
     7.6359   7.7843   7.8930   8.1524   8.2998   8.5863   8.7442   8.8990
     8.9948

          k = 0.2500 0.2640 0.0000 ( 35115 PWs)   bands (ev):

   -38.5324 -35.6044 -22.7071 -22.6739 -22.5414 -22.4210 -19.6442 -19.6006
   -19.5153 -16.9034 -16.8795 -16.8521 -15.3492 -14.8895 -14.8582 -14.7401
   -14.7295 -14.6371 -14.5268 -14.5047 -14.1930 -14.1593 -14.1175 -14.0110
   -13.9793 -13.8607 -13.8606  -8.2661  -8.2646  -8.1463  -8.0900  -7.9632
    -7.9621  -7.7729  -7.7654  -7.6927  -7.6732  -7.5721  -7.4213  -3.2930
    -3.0220  -2.7722  -2.7403  -2.6724  -2.5645  -2.4699  -2.3996  -2.3409
    -2.2963  -2.2942  -2.2000  -2.1569  -2.0215  -1.7562  -1.6538  -1.4808
    -1.4597  -1.4451  -1.3259  -1.2863  -1.1785  -1.0727  -1.0140  -0.9045
    -0.8391  -0.7820  -0.7611  -0.7558  -0.6417  -0.6399  -0.6207  -0.5701
    -0.4278  -0.3776  -0.3363  -0.0456   0.0736   0.1247   0.1829   0.3199
     0.4217   0.4364   0.5508   0.6454   0.7583   0.7945   0.8146   0.8873
     0.9314   0.9540   1.0354   1.0917   1.2187   1.2365   1.3373   1.3540
     1.4247   1.4301   1.5035   1.5178   1.5251   1.5868   1.5910   1.6012
     1.6573   1.6755   1.7230   1.8299   1.8713   1.8960   2.0923   2.2951
     2.9586   3.0043   3.0818   3.2433   3.3943   3.4034   3.6688   4.3813
     6.1855   6.4213   6.5728   6.6274   6.6335   6.6999   7.5587   7.5990
     7.6532   8.3164   8.3776   8.7028   8.8273   8.9143   9.0256   9.1754
     9.2310

          k = 0.2500 0.3960 0.0000 ( 35102 PWs)   bands (ev):

   -38.5289 -35.6000 -22.6493 -22.6135 -22.4807 -22.3630 -19.7012 -19.5963
   -19.5008 -17.0000 -16.8679 -16.7936 -15.1726 -14.8459 -14.8361 -14.8174
   -14.5129 -14.4687 -14.3999 -14.3574 -14.2422 -14.1253 -14.1098 -14.0722
   -14.0370 -13.9429 -13.9020  -8.3941  -8.3861  -8.2651  -8.1427  -8.0688
    -8.0130  -7.9293  -7.9066  -7.8546  -7.7538  -7.7460  -7.6348  -3.7452
    -3.5223  -3.4236  -3.2397  -3.2296  -2.9939  -2.9712  -2.5504  -2.4795
    -2.4213  -2.3322  -2.1674  -2.1202  -2.1055  -1.9746  -1.8383  -1.7756
    -1.6126  -1.5311  -1.5135  -1.4348  -1.3454  -1.2363  -1.1531  -1.0548
    -1.0382  -0.9482  -0.8976  -0.8317  -0.8257  -0.8165  -0.7416  -0.7116
    -0.5707  -0.4516  -0.4030   0.0477   0.1251   0.2343   0.2649   0.3909
     0.5904   0.5988   0.7201   0.7585   0.9502   0.9754   0.9890   1.0152
     1.2191   1.2578   1.2956   1.3162   1.3283   1.3938   1.4324   1.4740
     1.4893   1.5638   1.5727   1.6436   1.6996   1.7286   1.7486   1.8324
     1.8561   1.8885   1.9863   2.0321   2.2242   2.2289   2.2705   2.3712
     2.7907   2.8455   3.2949   3.4733   3.6302   3.6376   4.1362   4.7683
     6.1476   6.2690   6.4112   6.8379   6.8404   6.9797   7.6730   7.7206
     7.9691   8.7311   8.7832   8.8670   8.9852   9.1439   9.5303   9.6376
     9.6913

          k = 0.2500-0.5279 0.0000 ( 35148 PWs)   bands (ev):

   -38.5274 -35.5982 -22.6249 -22.5879 -22.4550 -22.3386 -19.7257 -19.5934
   -19.4947 -17.0501 -16.8624 -16.7540 -15.0143 -14.9674 -14.8426 -14.8085
   -14.3916 -14.3897 -14.2994 -14.2578 -14.2525 -14.2074 -14.0954 -14.0939
   -14.0767 -14.0104 -13.9027  -8.4129  -8.3863  -8.2633  -8.1323  -8.1093
    -8.1010  -8.0509  -7.9783  -7.9727  -7.7856  -7.7652  -7.7375  -3.9299
    -3.7286  -3.6822  -3.4470  -3.4233  -3.2216  -3.1996  -2.5094  -2.4867
    -2.4376  -2.3099  -2.3023  -2.1316  -2.0459  -1.9908  -1.9339  -1.8895
    -1.6738  -1.6676  -1.5534  -1.4719  -1.3633  -1.3076  -1.2427  -1.1364
    -1.0953  -0.9778  -0.9709  -0.8962  -0.8941  -0.8432  -0.7423  -0.7285
    -0.5840  -0.4794  -0.4267   0.0635   0.1655   0.2654   0.2887   0.4250
     0.6281   0.6535   0.7703   0.8399   1.0058   1.0523   1.1212   1.1219
     1.1729   1.2111   1.2999   1.3587   1.3876   1.4309   1.4762   1.4811
     1.5180   1.6423   1.6539   1.7186   1.8208   1.8832   1.8967   1.9648
     2.0123   2.0147   2.0490   2.1647   2.3986   2.4045   2.4197   2.4544
     2.5694   2.6371   3.3149   3.4935   3.6541   3.6658   4.2556   4.9868
     6.1380   6.1589   6.3148   6.8030   6.8883   7.0275   7.6900   7.6936
     8.4726   8.5809   8.8344   9.1711   9.1763   9.4908   9.5212   9.5637
     9.7810

          k = 0.3750 0.0000 0.0000 ( 35124 PWs)   bands (ev):

   -38.5355 -35.6079 -22.7436 -22.7110 -22.5784 -22.4569 -19.6614 -19.5425
   -19.5322 -17.0498 -16.9047 -16.6461 -15.3816 -15.0738 -15.0452 -15.0406
   -14.7831 -14.6811 -14.6305 -14.5816 -14.2448 -14.2121 -14.1872 -14.0894
   -13.9450 -13.9000 -13.8034  -8.1381  -7.9598  -7.7718  -7.7658  -7.6993
    -7.6733  -7.5814  -7.5371  -7.5221  -7.4129  -7.3991  -7.2537  -3.1185
    -2.9211  -2.7392  -2.7298  -2.3595  -2.3049  -2.2707  -2.0449  -1.6990
    -1.6926  -1.6097  -1.5311  -1.3918  -1.3671  -1.3506  -1.2586  -1.2441
    -1.2293  -1.2041  -1.1916  -1.1239  -1.0845  -1.0465  -0.9237  -0.9091
    -0.8294  -0.7585  -0.7250  -0.7004  -0.4783  -0.4527  -0.3988  -0.3549
    -0.2799  -0.2526  -0.2462  -0.2334   0.0204   0.0386   0.0490   0.1366
     0.1781   0.2440   0.3388   0.3752   0.3995   0.4238   0.4449   0.4477
     0.5028   0.7138   0.7729   0.8578   0.9995   1.0335   1.1011   1.1559
     1.1814   1.2019   1.2335   1.3218   1.3908   1.4778   1.4803   1.5934
     1.6477   1.6780   1.7252   1.7521   1.7808   1.8893   2.0308   2.1046
     2.1316   2.2391   2.2823   2.4281   2.5674   2.7750   2.8103   4.5251
     5.6781   6.4760   6.4796   6.5201   6.7784   6.8303   7.7238   7.7420
     7.7808   7.9713   8.0312   8.3531   8.4477   8.6178   8.7378   8.8192
     9.4662

          k = 0.3750 0.1320 0.0000 ( 35159 PWs)   bands (ev):

   -38.5341 -35.6061 -22.7226 -22.6893 -22.5567 -22.4359 -19.6583 -19.5716
   -19.5227 -17.0413 -16.8756 -16.7105 -15.3364 -15.0254 -14.9982 -14.9718
   -14.7820 -14.6406 -14.5702 -14.5355 -14.2160 -14.1909 -14.1615 -14.0729
   -13.9797 -13.9068 -13.8127  -8.1564  -8.0174  -7.8710  -7.8635  -7.8626
    -7.7921  -7.7092  -7.6293  -7.6118  -7.5834  -7.4899  -7.3470  -3.2034
    -2.9827  -2.7834  -2.7651  -2.3781  -2.3584  -2.2993  -2.2519  -2.0743
    -1.8977  -1.7839  -1.7496  -1.6451  -1.6312  -1.6294  -1.5568  -1.5118
    -1.4840  -1.3411  -1.2809  -1.2262  -1.1181  -1.0747  -0.9812  -0.9464
    -0.8276  -0.7912  -0.7220  -0.6516  -0.5696  -0.4451  -0.4131  -0.2970
    -0.2784  -0.1879  -0.0868  -0.0212  -0.0002   0.0520   0.1062   0.1524
     0.1754   0.1977   0.2154   0.4107   0.4316   0.4476   0.6362   0.7541
     0.7571   0.8159   0.9197   0.9939   1.1165   1.1394   1.1842   1.2076
     1.2160   1.2193   1.2580   1.3312   1.3549   1.5077   1.5182   1.6017
     1.6822   1.7097   1.7382   1.7658   1.7982   1.8406   2.0753   2.2481
     2.6910   2.7226   2.7745   2.8904   2.9445   3.0786   3.1124   4.5703
     5.7269   6.5404   6.6253   6.6570   6.6639   6.7057   7.6804   7.7895
     7.8264   8.0367   8.0912   8.4695   8.5705   8.8814   8.9295   9.0450
     9.2595

          k = 0.3750 0.2640 0.0000 ( 35147 PWs)   bands (ev):

   -38.5306 -35.6018 -22.6709 -22.6360 -22.5032 -22.3844 -19.6526 -19.6323
   -19.5068 -17.0209 -16.8548 -16.8004 -15.2189 -14.9031 -14.8784 -14.8046
   -14.7652 -14.5450 -14.4213 -14.4196 -14.1758 -14.1431 -14.1429 -14.0280
   -14.0143 -13.9269 -13.8551  -8.3249  -8.3188  -8.1971  -8.1203  -8.0114
    -7.9973  -7.9039  -7.8750  -7.8414  -7.7426  -7.7221  -7.6197  -3.5682
    -3.2980  -3.0230  -2.9660  -2.6743  -2.6574  -2.5300  -2.4100  -2.3894
    -2.3834  -2.3675  -2.2793  -2.2584  -2.2448  -2.1107  -1.8072  -1.6725
    -1.5924  -1.4574  -1.3975  -1.2776  -1.1519  -1.0452  -1.0252  -0.9578
    -0.9276  -0.8922  -0.8518  -0.7883  -0.6929  -0.6785  -0.6658  -0.6526
    -0.5158  -0.4028  -0.3659   0.0075   0.1586   0.2231   0.2914   0.4264
     0.5965   0.6410   0.6681   0.7316   0.8008   0.8291   0.9764   0.9946
     1.0103   1.1233   1.1462   1.1820   1.2135   1.3097   1.3803   1.3914
     1.4885   1.5229   1.5771   1.6093   1.6422   1.6865   1.7086   1.7168
     1.7384   1.7946   1.8044   1.8130   1.8871   2.0680   2.1912   2.2303
     2.9599   3.0025   3.5151   3.6594   3.7028   3.8078   3.8287   4.6990
     5.8298   6.2845   6.4102   6.6708   6.6898   6.8585   7.6115   7.6618
     7.9022   8.3767   8.4281   8.8033   9.1112   9.2399   9.3847   9.4421
     9.5356

          k = 0.3750 0.3960 0.0000 ( 35149 PWs)   bands (ev):

   -38.5270 -35.5975 -22.6181 -22.5813 -22.4484 -22.3316 -19.6964 -19.6416
   -19.4914 -17.0035 -16.9817 -16.7207 -15.0773 -14.8298 -14.7681 -14.7467
   -14.5134 -14.4512 -14.2992 -14.2629 -14.2563 -14.1088 -14.0978 -14.0167
   -13.9907 -13.9556 -13.9126  -8.5956  -8.5846  -8.4621  -8.3248  -8.2497
    -8.2085  -8.1344  -8.1338  -7.9999  -7.9173  -7.8054  -7.7724  -4.0316
    -3.7773  -3.4793  -3.4093  -3.3705  -2.9733  -2.9540  -2.7463  -2.6601
    -2.5512  -2.5017  -2.4171  -2.3079  -2.2623  -2.2550  -2.1180  -1.8732
    -1.7239  -1.6944  -1.3989  -1.2678  -1.2367  -1.2054  -1.1824  -1.1584
    -1.0612  -0.9924  -0.9851  -0.8958  -0.8790  -0.8244  -0.7682  -0.7248
    -0.6635  -0.4244  -0.3929   0.1399   0.2624   0.3230   0.4917   0.6181
     0.8234   0.8873   0.9682   1.0506   1.1316   1.1596   1.1925   1.2088
     1.3262   1.3518   1.4070   1.4507   1.4555   1.5039   1.5507   1.5631
     1.6494   1.6845   1.7329   1.7777   1.8659   1.9083   1.9187   1.9289
     1.9626   1.9788   2.0523   2.1331   2.1508   2.1697   2.3825   2.5119
     2.7812   2.8309   3.9465   4.1036   4.2200   4.3047   4.3272   4.9158
     5.8220   5.9417   6.2596   6.3677   6.4431   7.0514   7.3468   7.7954
     8.1167   8.9451   8.9938   9.0684   9.1269   9.3449   9.4208   9.4476
     9.4904

          k = 0.3750-0.5279 0.0000 ( 35168 PWs)   bands (ev):

   -38.5256 -35.5957 -22.5958 -22.5583 -22.4253 -22.3093 -19.7209 -19.6387
   -19.4850 -17.0368 -16.9910 -16.6852 -14.9916 -14.8721 -14.7068 -14.6871
   -14.4259 -14.3122 -14.2977 -14.2532 -14.1740 -14.1362 -14.0874 -14.0687
   -14.0132 -13.9771 -13.8885  -8.6912  -8.6666  -8.5423  -8.4082  -8.3948
    -8.3590  -8.2820  -8.1590  -8.0311  -8.0246  -7.8289  -7.7871  -4.2255
    -3.9837  -3.7104  -3.6180  -3.6088  -3.1985  -3.1802  -2.7491  -2.6786
    -2.5717  -2.5214  -2.5141  -2.3023  -2.2612  -2.2486  -2.2248  -1.9543
    -1.8178  -1.7192  -1.4399  -1.3550  -1.2856  -1.2823  -1.2424  -1.2090
    -1.1283  -1.0289  -0.9872  -0.9828  -0.9477  -0.9110  -0.7781  -0.7506
    -0.6304  -0.4101  -0.3854   0.1704   0.2859   0.3447   0.5684   0.7232
     0.9083   1.0203   1.0592   1.1109   1.2347   1.2361   1.2775   1.3285
     1.3441   1.4637   1.4997   1.5232   1.5256   1.5719   1.6280   1.6981
     1.7294   1.7857   1.8554   1.8731   1.9269   1.9927   2.0217   2.0334
     2.1102   2.1308   2.1810   2.2595   2.3411   2.3532   2.4554   2.5387
     2.5975   2.6766   4.0057   4.2327   4.3669   4.4495   4.4699   5.0526
     5.6302   5.9668   6.1900   6.1992   6.3065   7.1427   7.2550   7.8527
     8.5160   8.7315   9.0374   9.0859   9.2340   9.3281   9.3548   9.4653
     9.5458

          k =-0.5000 0.0000 0.0000 ( 35110 PWs)   bands (ev):

   -38.5347 -35.6068 -22.7257 -22.6918 -22.5590 -22.4387 -19.6790 -19.5390
   -19.5312 -17.1023 -16.8625 -16.6447 -15.3110 -15.1302 -15.0958 -15.0506
   -14.8635 -14.6996 -14.4997 -14.4241 -14.3490 -14.2275 -14.2064 -14.1374
   -13.9716 -13.9565 -13.8173  -8.1370  -7.9495  -7.7549  -7.7500  -7.6762
    -7.6586  -7.5643  -7.5046  -7.4859  -7.4003  -7.3623  -7.2200  -3.2424
    -3.0631  -2.8823  -2.8710  -2.3845  -2.3465  -2.2665  -1.9496  -1.7237
    -1.6811  -1.6450  -1.4701  -1.4556  -1.4053  -1.3756  -1.2933  -1.2805
    -1.2667  -1.2480  -1.2320  -1.2039  -1.1580  -1.1287  -1.0225  -0.9313
    -0.9184  -0.8420  -0.8113  -0.7758  -0.5393  -0.4632  -0.4457  -0.4004
    -0.3068  -0.2455  -0.2400  -0.2376   0.0191   0.0333   0.0436   0.1417
     0.1459   0.2459   0.3268   0.3748   0.3902   0.4001   0.4406   0.4452
     0.4940   0.6909   0.8024   0.8179   0.9918   1.1056   1.1310   1.1392
     1.1843   1.3061   1.3386   1.3688   1.4106   1.4159   1.5633   1.5677
     1.6255   1.6479   1.7077   1.8420   1.9283   1.9384   2.0526   2.1191
     2.1305   2.2196   2.2812   2.4364   2.5797   2.8105   2.8211   4.8855
     5.3293   6.5818   6.7795   6.9182   7.2488   7.3010   7.3080   7.3214
     7.7324   8.0296   8.1850   8.2427   8.5179   8.9237   9.0330   9.0940
     9.4277

          k =-0.5000 0.1320 0.0000 ( 35154 PWs)   bands (ev):

   -38.5333 -35.6050 -22.7054 -22.6711 -22.5382 -22.4185 -19.6758 -19.5704
   -19.5195 -17.0930 -16.8350 -16.7084 -15.2638 -15.0731 -15.0395 -14.9817
   -14.8568 -14.6591 -14.4586 -14.3827 -14.2911 -14.2051 -14.1852 -14.1055
   -13.9939 -13.9688 -13.8198  -8.1518  -7.9885  -7.8056  -7.8041  -7.7806
    -7.7757  -7.7178  -7.6941  -7.6889  -7.5550  -7.5201  -7.4333  -3.3341
    -3.1312  -2.9344  -2.9124  -2.3895  -2.3486  -2.3467  -2.2433  -2.0426
    -1.8429  -1.7810  -1.7487  -1.7309  -1.6398  -1.6247  -1.5631  -1.5445
    -1.5420  -1.4558  -1.3328  -1.2850  -1.1795  -1.1229  -1.0030  -0.9852
    -0.8978  -0.8724  -0.7267  -0.6923  -0.5912  -0.4815  -0.4440  -0.3207
    -0.2918  -0.1994  -0.1010  -0.0167   0.0120   0.0552   0.1019   0.1520
     0.1761   0.1938   0.3035   0.3481   0.4862   0.5020   0.5678   0.6781
     0.7399   0.8081   0.9226   1.0369   1.1363   1.1693   1.1989   1.2212
     1.2505   1.2515   1.2844   1.3019   1.3895   1.5372   1.5644   1.6049
     1.6760   1.7112   1.7662   1.8491   1.8925   1.9304   2.1639   2.2232
     2.7161   2.7381   2.7703   2.9045   2.9641   3.1011   3.1657   4.8957
     5.4004   6.6000   6.6156   6.7768   7.0965   7.1553   7.6037   7.6403
     7.6942   8.1391   8.1474   8.3288   8.4508   9.1921   9.2702   9.3334
     9.4717

          k =-0.5000 0.2640 0.0000 ( 35176 PWs)   bands (ev):

   -38.5298 -35.6007 -22.6558 -22.6201 -22.4871 -22.3690 -19.6681 -19.6334
   -19.5030 -17.0710 -16.8516 -16.7639 -15.1492 -14.9218 -14.8915 -14.8433
   -14.7870 -14.5623 -14.3606 -14.2781 -14.1941 -14.1539 -14.1362 -14.0605
   -14.0271 -13.9647 -13.8486  -8.2869  -8.2576  -8.1267  -8.1067  -8.0937
    -8.0707  -7.9959  -7.9750  -7.9384  -7.7949  -7.7495  -7.7255  -3.6985
    -3.4363  -3.1677  -3.1021  -2.6928  -2.6478  -2.5554  -2.4230  -2.4165
    -2.3992  -2.3780  -2.2872  -2.2629  -2.2609  -2.2362  -1.9303  -1.7034
    -1.6758  -1.5571  -1.3692  -1.1965  -1.0684  -1.0030  -0.9971  -0.9870
    -0.9729  -0.9563  -0.8905  -0.8194  -0.7076  -0.7027  -0.6849  -0.6759
    -0.5192  -0.4231  -0.3782   0.0278   0.1808   0.2449   0.3702   0.4718
     0.6584   0.7030   0.7172   0.8009   0.8237   0.8513   0.9740   1.0616
     1.1137   1.1445   1.1605   1.2035   1.2467   1.2734   1.3965   1.4532
     1.4925   1.5099   1.5513   1.6641   1.6704   1.6783   1.7329   1.8061
     1.8125   1.8718   1.8818   1.8937   1.9369   1.9424   2.1717   2.3268
     2.9532   2.9936   3.6024   3.7120   3.8362   3.9304   3.9606   4.9184
     5.5958   6.1870   6.3564   6.6666   6.6937   6.9287   7.5460   7.6658
     8.3867   8.4079   8.4145   8.5706   8.9795   9.3589   9.5431   9.5607
     9.7162

          k =-0.5000 0.3960 0.0000 ( 35152 PWs)   bands (ev):

   -38.5263 -35.5964 -22.6050 -22.5679 -22.4349 -22.3184 -19.6942 -19.6605
   -19.4874 -17.0494 -16.9807 -16.6883 -15.0323 -14.8337 -14.7390 -14.7177
   -14.5218 -14.4690 -14.2753 -14.2485 -14.1674 -14.1055 -14.0876 -14.0007
   -13.9728 -13.9649 -13.9244  -8.6527  -8.6328  -8.5078  -8.3947  -8.3696
    -8.3573  -8.2837  -8.1560  -8.0489  -8.0161  -7.8191  -7.7819  -4.1675
    -3.9076  -3.5911  -3.5143  -3.3717  -2.9648  -2.9467  -2.7995  -2.7299
    -2.6255  -2.5698  -2.5137  -2.3242  -2.2899  -2.2737  -2.2150  -1.9107
    -1.7980  -1.7479  -1.3156  -1.2670  -1.2601  -1.1965  -1.1848  -1.1357
    -1.0741  -0.9851  -0.9721  -0.9448  -0.9156  -0.8137  -0.8111  -0.7997
    -0.6419  -0.3862  -0.3620   0.1673   0.3075   0.3506   0.6104   0.7107
     0.9237   0.9858   1.0477   1.2042   1.2252   1.2458   1.3222   1.3526
     1.3666   1.3757   1.3779   1.4019   1.5330   1.5560   1.5608   1.6253
     1.6581   1.6980   1.7970   1.8260   1.9523   1.9523   1.9701   1.9770
     2.0173   2.0431   2.1201   2.1390   2.1685   2.2387   2.3302   2.6352
     2.7700   2.8134   3.9906   4.2903   4.4812   4.5497   4.5792   4.9982
     5.5916   5.8497   6.1716   6.2151   6.2620   7.1066   7.1969   7.8602
     8.5907   8.6870   8.8953   8.9355   9.1932   9.2375   9.4018   9.4263
     9.4888

          k =-0.5000-0.5279 0.0000 ( 35180 PWs)   bands (ev):

   -38.5248 -35.5946 -22.5836 -22.5459 -22.4128 -22.2971 -19.7190 -19.6573
   -19.4809 -17.0406 -17.0313 -16.6549 -14.9830 -14.8309 -14.6412 -14.6321
   -14.4663 -14.2974 -14.2937 -14.2526 -14.1229 -14.0945 -14.0817 -14.0644
   -13.9664 -13.9604 -13.9051  -8.8044  -8.7788  -8.6537  -8.5198  -8.5109
    -8.4759  -8.3995  -8.1742  -8.1478  -8.0439  -7.8455  -7.7989  -4.3657
    -4.1157  -3.7968  -3.7196  -3.6346  -3.1890  -3.1717  -2.8168  -2.7623
    -2.6601  -2.6015  -2.5970  -2.3143  -2.3052  -2.2807  -2.2731  -1.9789
    -1.8751  -1.7735  -1.3786  -1.3374  -1.3040  -1.2921  -1.2792  -1.1980
    -1.0590  -1.0503  -1.0116  -1.0102  -0.9909  -0.9118  -0.8362  -0.8300
    -0.5992  -0.3574  -0.3381   0.2023   0.3313   0.3735   0.7070   0.8770
     1.0242   1.0627   1.2232   1.2408   1.2963   1.3152   1.3372   1.3800
     1.4448   1.4535   1.5440   1.5721   1.6061   1.6293   1.6535   1.8076
     1.8344   1.8828   1.8901   1.9185   2.0258   2.0571   2.0636   2.0879
     2.1107   2.1739   2.3125   2.3247   2.3268   2.4021   2.5045   2.5160
     2.5613   2.7901   4.0321   4.4758   4.6830   4.7506   4.7825   5.0854
     5.3702   5.8406   5.9446   6.1264   6.1810   7.0912   7.1901   8.0772
     8.5605   8.7909   8.7957   9.0094   9.0467   9.0993   9.2890   9.5388
     9.5649

     the Fermi energy is     2.5396 ev

!    total energy              =   -1842.72054287 Ry
     Harris-Foulkes estimate   =   -1842.72054288 Ry
     estimated scf accuracy    <          2.3E-09 Ry

     The total energy is the sum of the following terms:

     one-electron contribution =  -29393.56344610 Ry
     hartree contribution      =   14848.48318922 Ry
     xc contribution           =    -621.56079401 Ry
     ewald contribution        =   13323.92854494 Ry
     smearing contrib. (-TS)   =      -0.00803693 Ry

     convergence has been achieved in  35 iterations

     negative rho (up, down):  1.489E-03 0.000E+00

     Forces acting on atoms (cartesian axes, Ry/au):

     atom    1 type  4   force =     0.00000000    0.00000000   -0.00017439
     atom    2 type  3   force =     0.00000000    0.00000000    0.00035033
     atom    3 type  4   force =     0.00000000    0.00000000   -0.00078565
     atom    4 type  1   force =     0.00000000    0.00000000   -0.00029400
     atom    5 type  3   force =     0.00000000    0.00000000    0.00057814
     atom    6 type  4   force =     0.00000000    0.00000000   -0.00001350
     atom    7 type  4   force =     0.00000000    0.00000000    0.00032651
     atom    8 type  2   force =     0.00000000    0.00000000   -0.00059756
     atom    9 type  4   force =     0.00000000    0.00000000    0.00028625
     atom   10 type  4   force =     0.00000000    0.00000000    0.00034962
     atom   11 type  3   force =     0.00000000    0.00000000    0.00017732
     atom   12 type  1   force =     0.00000000    0.00000000    0.00010032
     atom   13 type  4   force =     0.00000000    0.00000000    0.00298764
     atom   14 type  4   force =     0.00000000    0.00000000    0.00333561
     atom   15 type  3   force =     0.00000000    0.00000000   -0.00570338
     atom   16 type  4   force =     0.00000000    0.00000000    0.00425247
     atom   17 type  1   force =     0.00000000    0.00000000   -0.01694169
     atom   18 type  3   force =     0.00000000    0.00000000    0.00520067
     atom   19 type  4   force =     0.00000000    0.00000000    0.05497255
     atom   20 type  4   force =     0.00000000    0.00000000    0.06156309
     atom   21 type  2   force =     0.00000000    0.00000000   -0.06354136
     atom   22 type  4   force =     0.00000000    0.00000000   -0.00769670
     atom   23 type  4   force =     0.00000000    0.00000000   -0.00027441
     atom   24 type  3   force =     0.00000000    0.00000000   -0.01986603
     atom   25 type  1   force =     0.00000000    0.00000000   -0.01733370
     atom   26 type  4   force =     0.00000000    0.00000000   -0.00127729
     atom   27 type  3   force =     0.00000000    0.00000000    0.00114090
     atom   28 type  4   force =     0.00000000    0.00000000   -0.00112175

     Total force =     0.109521     Total SCF correction =     0.000233


     Computing stress (Cartesian axis) and pressure


     negative rho (up, down):  1.489E-03 0.000E+00
          total   stress  (Ry/bohr**3)                   (kbar)     P=       -6.64
  -0.00000504   0.00000000   0.00000000           -0.74        0.00        0.00
   0.00000000   0.00001783   0.00000000            0.00        2.62        0.00
   0.00000000   0.00000000  -0.00014827            0.00        0.00      -21.81

 
     init_run     :      8.39s CPU      8.86s WALL (       1 calls)
     electrons    :    540.63s CPU    576.56s WALL (       1 calls)
     forces       :      3.52s CPU      3.85s WALL (       1 calls)
     stress       :     18.27s CPU     19.10s WALL (       1 calls)

     Called by init_run:
     wfcinit      :      5.92s CPU      6.06s WALL (       1 calls)
     potinit      :      0.61s CPU      0.63s WALL (       1 calls)
     hinit0       :      0.98s CPU      0.99s WALL (       1 calls)

     Called by electrons:
     c_bands      :    429.68s CPU    443.39s WALL (      35 calls)
     sum_band     :     75.38s CPU     87.87s WALL (      35 calls)
     v_of_rho     :      2.47s CPU      2.51s WALL (      36 calls)
     newd         :     18.11s CPU     27.87s WALL (      36 calls)
     mix_rho      :     15.36s CPU     15.53s WALL (      35 calls)

     Called by c_bands:
     init_us_2    :      3.52s CPU      3.55s WALL (    1825 calls)
     cegterg      :    404.94s CPU    418.09s WALL (     875 calls)

     Called by sum_band:
     sum_band:bec :      0.23s CPU      0.24s WALL (     875 calls)
     addusdens    :     19.33s CPU     31.08s WALL (      35 calls)

     Called by *egterg:
     h_psi        :    203.20s CPU    211.47s WALL (    3639 calls)
     s_psi        :     21.55s CPU     21.82s WALL (    3639 calls)
     g_psi        :      0.65s CPU      0.65s WALL (    2739 calls)
     cdiaghg      :    108.45s CPU    108.89s WALL (    3614 calls)

     Called by h_psi:
     h_psi:calbec :     23.80s CPU     24.87s WALL (    3639 calls)
     vloc_psi     :    156.01s CPU    159.04s WALL (    3639 calls)
     add_vuspsi   :     22.28s CPU     24.64s WALL (    3639 calls)

     General routines
     calbec       :     37.83s CPU     38.97s WALL (    4639 calls)
     fft          :      1.87s CPU      1.89s WALL (     491 calls)
     ffts         :      8.24s CPU      8.33s WALL (   14967 calls)
     fftw         :    179.34s CPU    182.69s WALL (  621629 calls)
     interpolate  :      0.15s CPU      0.15s WALL (      36 calls)
 
     Parallel routines
     fft_scatt_xy :     22.85s CPU     23.20s WALL (  637087 calls)
     fft_scatt_yz :    112.01s CPU    114.08s WALL (  637087 calls)
 
     PWSCF        :   9m31.57s CPU  10m 9.18s WALL

 
   This run was terminated on:  22:42: 4  21May2021            

=------------------------------------------------------------------------------=
   JOB DONE.
=------------------------------------------------------------------------------=
[1621651324.301423] [holy7c08204:127932:0]          mpool.c:43   UCX  WARN  object 0x3adca00 was not returned to mpool ucp_requests
[1621651324.301440] [holy7c08204:127932:0]          mpool.c:43   UCX  WARN  object 0x3adcf40 was not returned to mpool ucp_requests
[1621651324.310109] [holy7c08109:277148:0]          mpool.c:43   UCX  WARN  object 0x304f040 was not returned to mpool ucp_requests
[1621651324.309781] [holy7c08101:254706:0]          mpool.c:43   UCX  WARN  object 0x37609c0 was not returned to mpool ucp_requests
[1621651324.309804] [holy7c08101:254706:0]          mpool.c:43   UCX  WARN  object 0x3761280 was not returned to mpool ucp_requests
[1621651324.313201] [holy7c08108:67150:0]          mpool.c:43   UCX  WARN  object 0x3eaa7c0 was not returned to mpool ucp_requests
[1621651324.313227] [holy7c08108:67150:0]          mpool.c:43   UCX  WARN  object 0x3eaab40 was not returned to mpool ucp_requests
[1621651324.310290] [holy7c08211:9531 :0]          mpool.c:43   UCX  WARN  object 0x309c440 was not returned to mpool ucp_requests
[1621651324.310316] [holy7c08211:9531 :0]          mpool.c:43   UCX  WARN  object 0x309cb40 was not returned to mpool ucp_requests
[1621651324.312676] [holy7c08211:9530 :0]          mpool.c:43   UCX  WARN  object 0x44a1980 was not returned to mpool ucp_requests
[1621651324.315221] [holy7c08104:268883:0]          mpool.c:43   UCX  WARN  object 0x29dd5c0 was not returned to mpool ucp_requests
