
     Program PWSCF v.6.5 starts on 21May2021 at 23: 6:59 

     This program is part of the open-source Quantum ESPRESSO suite
     for quantum simulation of materials; please cite
         "P. Giannozzi et al., J. Phys.:Condens. Matter 21 395502 (2009);
         "P. Giannozzi et al., J. Phys.:Condens. Matter 29 465901 (2017);
          URL http://www.quantum-espresso.org", 
     in publications or presentations arising from this work. More details at
     http://www.quantum-espresso.org/quote

     Parallel version (MPI), running on    20 processors

     MPI processes distributed on     8 nodes
     R & G space division:  proc/nbgrp/npool/nimage =      20
     Reading input from CBCO_BaO_cleave_0.25_sep.pwi
Warning: card &IONS ignored
Warning: card     ION_DYNAMICS = 'BFGS' ignored
Warning: card / ignored
Warning: card &CELL ignored
Warning: card     CELL_DYNAMICS = 'BFGS' ignored
Warning: card     PRESS_CONV_THR = 5 ignored
Warning: card / ignored

     Current dimensions of program PWSCF are:
     Max number of different atomic species (ntypx) = 10
     Max number of k-points (npk) =  40000
     Max angular momentum in pseudopotentials (lmaxx) =  3

     Subspace diagonalization in iterative solution of the eigenvalue problem:
     one sub-group per band group will be used
     scalapack distributed-memory algorithm (size of sub-group:  4*  4 procs)

     Message from routine setup:
     using ibrav=0 with symmetry is DISCOURAGED, use correct ibrav instead
 
     Parallelization info
     --------------------
     sticks:   dense  smooth     PW     G-vecs:    dense   smooth      PW
     Min         149      50     14                70565    13584    2122
     Max         150      51     15                70602    13609    2165
     Sum        2991    1007    289              1411709   271883   42721
 


     bravais-lattice index     =            0
     lattice parameter (alat)  =       7.4270  a.u.
     unit-cell volume          =    4326.9901 (a.u.)^3
     number of atoms/cell      =           28
     number of atomic types    =            4
     number of electrons       =       227.00
     number of Kohn-Sham states=          137
     kinetic-energy cutoff     =      60.0000  Ry
     charge density cutoff     =     720.0000  Ry
     convergence threshold     =      1.0E-08
     mixing beta               =       0.5000
     number of iterations used =           10  local-TF  mixing
     Exchange-correlation= SLA PW PBE PBE
                           (   1   4   3   4   0   0   0)

     celldm(1)=   7.427040  celldm(2)=   0.000000  celldm(3)=   0.000000
     celldm(4)=   0.000000  celldm(5)=   0.000000  celldm(6)=   0.000000

     crystal axes: (cart. coord. in units of alat)
               a(1) = (   1.000000   0.000000   0.000000 )  
               a(2) = (   0.000000   0.947081   0.000000 )  
               a(3) = (   0.000000   0.000000  11.151966 )  

     reciprocal axes: (cart. coord. in units 2 pi/alat)
               b(1) = (  1.000000  0.000000  0.000000 )  
               b(2) = (  0.000000  1.055876  0.000000 )  
               b(3) = (  0.000000  0.000000  0.089670 )  


     PseudoPot. # 1 for Ba read from file:
     ./pseudo/Ba.pbe-nsp-van.UPF
     MD5 check sum: 2b9c31dd849566dd297d80989662b7a0
     Pseudo is Ultrasoft + core correction, Zval = 10.0
     Generated by new atomic code, or converted to UPF format
     Using radial grid of  907 points,  6 beta functions with: 
                l(1) =   0
                l(2) =   0
                l(3) =   1
                l(4) =   1
                l(5) =   2
                l(6) =   2
     Q(r) pseudized with  6 coefficients,  rinner =    1.200   1.200   1.200
                                                       1.200   1.200

     PseudoPot. # 2 for Ca read from file:
     ./pseudo/Ca.pbe-nsp-van.UPF
     MD5 check sum: 6471098428ff4fa451746d08035ff179
     Pseudo is Ultrasoft + core correction, Zval = 10.0
     Generated by new atomic code, or converted to UPF format
     Using radial grid of  845 points,  6 beta functions with: 
                l(1) =   0
                l(2) =   0
                l(3) =   1
                l(4) =   1
                l(5) =   2
                l(6) =   2
     Q(r) pseudized with  6 coefficients,  rinner =    1.200   1.200   1.200
                                                       1.200   1.200

     PseudoPot. # 3 for Cu read from file:
     ./pseudo/Cu.pbe-n-van_ak.UPF
     MD5 check sum: 34e3282627ffb533726feb647e090d62
     Pseudo is Ultrasoft + core correction, Zval = 11.0
     Generated by new atomic code, or converted to UPF format
     Using radial grid of  867 points,  6 beta functions with: 
                l(1) =   0
                l(2) =   0
                l(3) =   1
                l(4) =   1
                l(5) =   2
                l(6) =   2
     Q(r) pseudized with  8 coefficients,  rinner =    1.400   1.400   1.400
                                                       1.400   1.400

     PseudoPot. # 4 for O  read from file:
     ./pseudo/O.pbe-van_ak.UPF
     MD5 check sum: 783ce7fe4c79b6a4916957118fed0856
     Pseudo is Ultrasoft, Zval =  6.0
     Generated by new atomic code, or converted to UPF format
     Using radial grid of  737 points,  4 beta functions with: 
                l(1) =   0
                l(2) =   0
                l(3) =   1
                l(4) =   1
     Q(r) pseudized with  8 coefficients,  rinner =    0.800   0.800   0.800


     atomic species   valence    mass     pseudopotential
        Ba            10.00   137.32700     Ba( 1.00)
        Ca            10.00    40.07800     Ca( 1.00)
        Cu            11.00    63.54600     Cu( 1.00)
        O              6.00    15.99900     O ( 1.00)

      4 Sym. Ops. (no inversion) found



   Cartesian axes

     site n.     atom                  positions (alat units)
         1           O   tau(   1) = (   0.0000000   0.4735409  -0.0469745  )
         2           Cu  tau(   2) = (   0.0000000   0.0000000   0.0264565  )
         3           O   tau(   3) = (   0.0000000   0.0000000   0.5030914  )
         4           Ba  tau(   4) = (   0.5000000   0.4735409   0.5690292  )
         5           Cu  tau(   5) = (   0.0000000   0.0000000   1.0374254  )
         6           O   tau(   6) = (   0.5000000   0.0000000   1.0768099  )
         7           O   tau(   7) = (   0.0000000   0.4735409   1.1116985  )
         8           Ca  tau(   8) = (   0.5000000   0.4735409   1.4976260  )
         9           O   tau(   9) = (   0.0000000   0.4735409   1.8667529  )
        10           O   tau(  10) = (   0.5000000   0.0000000   1.9044124  )
        11           Cu  tau(  11) = (   0.0000000   0.0000000   1.9512546  )
        12           Ba  tau(  12) = (   0.5000000   0.4735409   2.4295764  )
        13           O   tau(  13) = (   0.0000000   0.0000000   2.5115362  )
        14           O   tau(  14) = (   0.0000000   0.4735409   2.9918528  )
        15           Cu  tau(  15) = (   0.0000000   0.0000000   2.9919088  )
        16           O   tau(  16) = (   0.0000000   0.0000000   3.4722686  )
        17           Ba  tau(  17) = (   0.5000000   0.4735409   3.5542208  )
        18           Cu  tau(  18) = (   0.0000000   0.0000000   4.0961344  )
        19           O   tau(  19) = (   0.5000000   0.0000000   4.1429766  )
        20           O   tau(  20) = (   0.0000000   0.4735409   4.1806310  )
        21           Ca  tau(  21) = (   0.5000000   0.4735409   4.5497681  )
        22           O   tau(  22) = (   0.0000000   0.4735409   4.9356930  )
        23           O   tau(  23) = (   0.5000000   0.0000000   4.9705816  )
        24           Cu  tau(  24) = (   0.0000000   0.0000000   5.0099687  )
        25           Ba  tau(  25) = (   0.5000000   0.4735409   5.4783624  )
        26           O   tau(  26) = (   0.0000000   0.0000000   5.5442900  )
        27           Cu  tau(  27) = (   0.0000000   0.0000000   6.0209299  )
        28           O   tau(  28) = (   0.0000000   0.4735409   6.0943482  )

     number of k points=    25  Gaussian smearing, width (Ry)=  0.0100
                       cart. coord. in units 2pi/alat
        k(    1) = (   0.0000000   0.0000000   0.0000000), wk =   0.0312500
        k(    2) = (   0.0000000   0.1319845   0.0000000), wk =   0.0625000
        k(    3) = (   0.0000000   0.2639689   0.0000000), wk =   0.0625000
        k(    4) = (   0.0000000   0.3959534   0.0000000), wk =   0.0625000
        k(    5) = (   0.0000000  -0.5279378   0.0000000), wk =   0.0312500
        k(    6) = (   0.1250000   0.0000000   0.0000000), wk =   0.0625000
        k(    7) = (   0.1250000   0.1319845   0.0000000), wk =   0.1250000
        k(    8) = (   0.1250000   0.2639689   0.0000000), wk =   0.1250000
        k(    9) = (   0.1250000   0.3959534   0.0000000), wk =   0.1250000
        k(   10) = (   0.1250000  -0.5279378   0.0000000), wk =   0.0625000
        k(   11) = (   0.2500000   0.0000000   0.0000000), wk =   0.0625000
        k(   12) = (   0.2500000   0.1319845   0.0000000), wk =   0.1250000
        k(   13) = (   0.2500000   0.2639689   0.0000000), wk =   0.1250000
        k(   14) = (   0.2500000   0.3959534   0.0000000), wk =   0.1250000
        k(   15) = (   0.2500000  -0.5279378   0.0000000), wk =   0.0625000
        k(   16) = (   0.3750000   0.0000000   0.0000000), wk =   0.0625000
        k(   17) = (   0.3750000   0.1319845   0.0000000), wk =   0.1250000
        k(   18) = (   0.3750000   0.2639689   0.0000000), wk =   0.1250000
        k(   19) = (   0.3750000   0.3959534   0.0000000), wk =   0.1250000
        k(   20) = (   0.3750000  -0.5279378   0.0000000), wk =   0.0625000
        k(   21) = (  -0.5000000   0.0000000   0.0000000), wk =   0.0312500
        k(   22) = (  -0.5000000   0.1319845   0.0000000), wk =   0.0625000
        k(   23) = (  -0.5000000   0.2639689   0.0000000), wk =   0.0625000
        k(   24) = (  -0.5000000   0.3959534   0.0000000), wk =   0.0625000
        k(   25) = (  -0.5000000  -0.5279378   0.0000000), wk =   0.0312500

     Dense  grid:  1411709 G-vectors     FFT dimensions: (  64,  64, 720)

     Smooth grid:   271883 G-vectors     FFT dimensions: (  40,  36, 432)

     Estimated max dynamical RAM per process >     450.82 MB

     Estimated total dynamical RAM >       8.81 GB

     Initial potential from superposition of free atoms

     starting charge  226.84630, renormalised to  227.00000

     negative rho (up, down):  3.559E-03 0.000E+00
     Starting wfcs are  195 randomized atomic wfcs

     total cpu time spent up to now is       10.3 secs

     Self-consistent Calculation

     iteration #  1     ecut=    60.00 Ry     beta= 0.50
     Davidson diagonalization with overlap
     ethr =  1.00E-02,  avg # of iterations =  2.0

     negative rho (up, down):  5.132E-04 0.000E+00

     total cpu time spent up to now is       26.5 secs

     total energy              =   -1840.97734911 Ry
     Harris-Foulkes estimate   =   -1845.35004089 Ry
     estimated scf accuracy    <      17.86391967 Ry

     iteration #  2     ecut=    60.00 Ry     beta= 0.50
     Davidson diagonalization with overlap
     ethr =  7.87E-03,  avg # of iterations =  2.0

     negative rho (up, down):  2.653E-04 0.000E+00

     total cpu time spent up to now is       43.9 secs

     total energy              =   -1842.54298797 Ry
     Harris-Foulkes estimate   =   -1843.28599371 Ry
     estimated scf accuracy    <       4.91891975 Ry

     iteration #  3     ecut=    60.00 Ry     beta= 0.50
     Davidson diagonalization with overlap
     ethr =  2.17E-03,  avg # of iterations =  1.9

     negative rho (up, down):  2.487E-04 0.000E+00

     total cpu time spent up to now is       60.1 secs

     total energy              =   -1842.84926063 Ry
     Harris-Foulkes estimate   =   -1843.02175542 Ry
     estimated scf accuracy    <       2.09259451 Ry

     iteration #  4     ecut=    60.00 Ry     beta= 0.50
     Davidson diagonalization with overlap
     ethr =  9.22E-04,  avg # of iterations =  1.2

     negative rho (up, down):  2.428E-04 0.000E+00

     total cpu time spent up to now is       76.5 secs

     total energy              =   -1842.88411731 Ry
     Harris-Foulkes estimate   =   -1842.95686609 Ry
     estimated scf accuracy    <       0.47930854 Ry

     iteration #  5     ecut=    60.00 Ry     beta= 0.50
     Davidson diagonalization with overlap
     ethr =  2.11E-04,  avg # of iterations =  5.0

     negative rho (up, down):  2.404E-04 0.000E+00

     total cpu time spent up to now is       97.7 secs

     total energy              =   -1842.92617737 Ry
     Harris-Foulkes estimate   =   -1842.93910381 Ry
     estimated scf accuracy    <       1.16309618 Ry

     iteration #  6     ecut=    60.00 Ry     beta= 0.50
     Davidson diagonalization with overlap
     ethr =  2.11E-04,  avg # of iterations =  1.0

     negative rho (up, down):  2.367E-04 0.000E+00

     total cpu time spent up to now is      113.6 secs

     total energy              =   -1842.91563231 Ry
     Harris-Foulkes estimate   =   -1842.93218545 Ry
     estimated scf accuracy    <       0.63802430 Ry

     iteration #  7     ecut=    60.00 Ry     beta= 0.50
     Davidson diagonalization with overlap
     ethr =  2.11E-04,  avg # of iterations =  1.0

     negative rho (up, down):  2.345E-04 0.000E+00

     total cpu time spent up to now is      128.7 secs

     total energy              =   -1842.90961203 Ry
     Harris-Foulkes estimate   =   -1842.92518148 Ry
     estimated scf accuracy    <       1.29457593 Ry

     iteration #  8     ecut=    60.00 Ry     beta= 0.50
     Davidson diagonalization with overlap
     ethr =  2.11E-04,  avg # of iterations =  1.0

     negative rho (up, down):  2.348E-04 0.000E+00

     total cpu time spent up to now is      146.1 secs

     total energy              =   -1842.91119996 Ry
     Harris-Foulkes estimate   =   -1842.91554152 Ry
     estimated scf accuracy    <       0.36967199 Ry

     iteration #  9     ecut=    60.00 Ry     beta= 0.50
     Davidson diagonalization with overlap
     ethr =  1.63E-04,  avg # of iterations =  1.1

     negative rho (up, down):  2.355E-04 0.000E+00

     total cpu time spent up to now is      161.5 secs

     total energy              =   -1842.90736254 Ry
     Harris-Foulkes estimate   =   -1842.91263408 Ry
     estimated scf accuracy    <       0.27033156 Ry

     iteration # 10     ecut=    60.00 Ry     beta= 0.50
     Davidson diagonalization with overlap
     ethr =  1.19E-04,  avg # of iterations =  1.5

     negative rho (up, down):  2.362E-04 0.000E+00

     total cpu time spent up to now is      177.5 secs

     total energy              =   -1842.90559782 Ry
     Harris-Foulkes estimate   =   -1842.90880212 Ry
     estimated scf accuracy    <       0.13823230 Ry

     iteration # 11     ecut=    60.00 Ry     beta= 0.50
     Davidson diagonalization with overlap
     ethr =  6.09E-05,  avg # of iterations =  5.3

     negative rho (up, down):  2.363E-04 0.000E+00

     total cpu time spent up to now is      197.6 secs

     total energy              =   -1842.90353524 Ry
     Harris-Foulkes estimate   =   -1842.90621312 Ry
     estimated scf accuracy    <       0.05629303 Ry

     iteration # 12     ecut=    60.00 Ry     beta= 0.50
     Davidson diagonalization with overlap
     ethr =  2.48E-05,  avg # of iterations =  6.8

     negative rho (up, down):  4.153E-04 0.000E+00

     total cpu time spent up to now is      220.7 secs

     total energy              =   -1842.90175626 Ry
     Harris-Foulkes estimate   =   -1842.90398726 Ry
     estimated scf accuracy    <       0.02674861 Ry

     iteration # 13     ecut=    60.00 Ry     beta= 0.50
     Davidson diagonalization with overlap
     c_bands:  1 eigenvalues not converged
     ethr =  1.18E-05,  avg # of iterations =  6.4

     negative rho (up, down):  5.530E-03 0.000E+00

     total cpu time spent up to now is      243.2 secs

     total energy              =   -1842.90078086 Ry
     Harris-Foulkes estimate   =   -1842.90211468 Ry
     estimated scf accuracy    <       0.01483208 Ry

     iteration # 14     ecut=    60.00 Ry     beta= 0.50
     Davidson diagonalization with overlap
     ethr =  6.53E-06,  avg # of iterations =  7.2

     negative rho (up, down):  1.093E-02 0.000E+00

     total cpu time spent up to now is      266.9 secs

     total energy              =   -1842.89993964 Ry
     Harris-Foulkes estimate   =   -1842.90098673 Ry
     estimated scf accuracy    <       0.01105283 Ry

     iteration # 15     ecut=    60.00 Ry     beta= 0.50
     Davidson diagonalization with overlap
     ethr =  4.87E-06,  avg # of iterations =  6.8

     negative rho (up, down):  2.366E-02 0.000E+00

     total cpu time spent up to now is      289.3 secs

     total energy              =   -1842.89869321 Ry
     Harris-Foulkes estimate   =   -1842.90002627 Ry
     estimated scf accuracy    <       0.01120731 Ry

     iteration # 16     ecut=    60.00 Ry     beta= 0.50
     Davidson diagonalization with overlap
     ethr =  4.87E-06,  avg # of iterations =  9.0

     negative rho (up, down):  2.769E-02 0.000E+00

     total cpu time spent up to now is      315.0 secs

     total energy              =   -1842.89798687 Ry
     Harris-Foulkes estimate   =   -1842.89883700 Ry
     estimated scf accuracy    <       0.00559848 Ry

     iteration # 17     ecut=    60.00 Ry     beta= 0.50
     Davidson diagonalization with overlap
     ethr =  2.47E-06,  avg # of iterations =  8.2

     negative rho (up, down):  2.412E-02 0.000E+00

     total cpu time spent up to now is      339.9 secs

     total energy              =   -1842.89751526 Ry
     Harris-Foulkes estimate   =   -1842.89807907 Ry
     estimated scf accuracy    <       0.00555030 Ry

     iteration # 18     ecut=    60.00 Ry     beta= 0.50
     Davidson diagonalization with overlap
     ethr =  2.45E-06,  avg # of iterations =  8.2

     negative rho (up, down):  1.631E-02 0.000E+00

     total cpu time spent up to now is      365.4 secs

     total energy              =   -1842.89700780 Ry
     Harris-Foulkes estimate   =   -1842.89756136 Ry
     estimated scf accuracy    <       0.00456284 Ry

     iteration # 19     ecut=    60.00 Ry     beta= 0.50
     Davidson diagonalization with overlap
     ethr =  2.01E-06,  avg # of iterations =  8.1

     negative rho (up, down):  1.144E-02 0.000E+00

     total cpu time spent up to now is      390.8 secs

     total energy              =   -1842.89686202 Ry
     Harris-Foulkes estimate   =   -1842.89707203 Ry
     estimated scf accuracy    <       0.00123153 Ry

     iteration # 20     ecut=    60.00 Ry     beta= 0.50
     Davidson diagonalization with overlap
     ethr =  5.43E-07,  avg # of iterations =  7.4

     negative rho (up, down):  6.799E-03 0.000E+00

     total cpu time spent up to now is      414.4 secs

     total energy              =   -1842.89681816 Ry
     Harris-Foulkes estimate   =   -1842.89688590 Ry
     estimated scf accuracy    <       0.00024951 Ry

     iteration # 21     ecut=    60.00 Ry     beta= 0.50
     Davidson diagonalization with overlap
     c_bands:  1 eigenvalues not converged
     c_bands:  1 eigenvalues not converged
     ethr =  1.10E-07,  avg # of iterations =  6.9

     negative rho (up, down):  2.085E-03 0.000E+00

     total cpu time spent up to now is      438.4 secs

     total energy              =   -1842.89680615 Ry
     Harris-Foulkes estimate   =   -1842.89682385 Ry
     estimated scf accuracy    <       0.00017604 Ry

     iteration # 22     ecut=    60.00 Ry     beta= 0.50
     Davidson diagonalization with overlap
     c_bands:  1 eigenvalues not converged
     c_bands:  1 eigenvalues not converged
     c_bands:  1 eigenvalues not converged
     ethr =  7.76E-08,  avg # of iterations = 10.0

     negative rho (up, down):  1.674E-03 0.000E+00

     total cpu time spent up to now is      465.3 secs

     total energy              =   -1842.89681855 Ry
     Harris-Foulkes estimate   =   -1842.89681185 Ry
     estimated scf accuracy    <       0.00004719 Ry

     iteration # 23     ecut=    60.00 Ry     beta= 0.50
     Davidson diagonalization with overlap
     ethr =  2.08E-08,  avg # of iterations =  3.4

     negative rho (up, down):  1.481E-03 0.000E+00

     total cpu time spent up to now is      483.2 secs

     total energy              =   -1842.89682653 Ry
     Harris-Foulkes estimate   =   -1842.89682056 Ry
     estimated scf accuracy    <       0.00000880 Ry

     iteration # 24     ecut=    60.00 Ry     beta= 0.50
     Davidson diagonalization with overlap
     ethr =  3.88E-09,  avg # of iterations =  4.0

     negative rho (up, down):  1.462E-03 0.000E+00

     total cpu time spent up to now is      502.1 secs

     total energy              =   -1842.89682656 Ry
     Harris-Foulkes estimate   =   -1842.89682706 Ry
     estimated scf accuracy    <       0.00000924 Ry

     iteration # 25     ecut=    60.00 Ry     beta= 0.50
     Davidson diagonalization with overlap
     ethr =  3.88E-09,  avg # of iterations =  1.0

     negative rho (up, down):  1.446E-03 0.000E+00

     total cpu time spent up to now is      517.1 secs

     total energy              =   -1842.89682679 Ry
     Harris-Foulkes estimate   =   -1842.89682689 Ry
     estimated scf accuracy    <       0.00000215 Ry

     iteration # 26     ecut=    60.00 Ry     beta= 0.50
     Davidson diagonalization with overlap
     ethr =  9.46E-10,  avg # of iterations =  3.0

     negative rho (up, down):  1.485E-03 0.000E+00

     total cpu time spent up to now is      536.0 secs

     total energy              =   -1842.89682697 Ry
     Harris-Foulkes estimate   =   -1842.89682695 Ry
     estimated scf accuracy    <       0.00000087 Ry

     iteration # 27     ecut=    60.00 Ry     beta= 0.50
     Davidson diagonalization with overlap
     ethr =  3.85E-10,  avg # of iterations =  1.6

     negative rho (up, down):  1.470E-03 0.000E+00

     total cpu time spent up to now is      551.3 secs

     total energy              =   -1842.89682701 Ry
     Harris-Foulkes estimate   =   -1842.89682700 Ry
     estimated scf accuracy    <       0.00000074 Ry

     iteration # 28     ecut=    60.00 Ry     beta= 0.50
     Davidson diagonalization with overlap
     ethr =  3.27E-10,  avg # of iterations =  1.0

     negative rho (up, down):  1.464E-03 0.000E+00

     total cpu time spent up to now is      567.5 secs

     total energy              =   -1842.89682704 Ry
     Harris-Foulkes estimate   =   -1842.89682703 Ry
     estimated scf accuracy    <       0.00000045 Ry

     iteration # 29     ecut=    60.00 Ry     beta= 0.50
     Davidson diagonalization with overlap
     ethr =  1.96E-10,  avg # of iterations =  1.7

     negative rho (up, down):  1.455E-03 0.000E+00

     total cpu time spent up to now is      582.8 secs

     total energy              =   -1842.89682707 Ry
     Harris-Foulkes estimate   =   -1842.89682706 Ry
     estimated scf accuracy    <       0.00000019 Ry

     iteration # 30     ecut=    60.00 Ry     beta= 0.50
     Davidson diagonalization with overlap
     ethr =  8.49E-11,  avg # of iterations =  1.2

     negative rho (up, down):  1.454E-03 0.000E+00

     total cpu time spent up to now is      599.1 secs

     total energy              =   -1842.89682707 Ry
     Harris-Foulkes estimate   =   -1842.89682707 Ry
     estimated scf accuracy    <       0.00000004 Ry

     iteration # 31     ecut=    60.00 Ry     beta= 0.50
     Davidson diagonalization with overlap
     ethr =  1.88E-11,  avg # of iterations =  3.0

     negative rho (up, down):  1.471E-03 0.000E+00

     total cpu time spent up to now is      616.6 secs

     total energy              =   -1842.89682704 Ry
     Harris-Foulkes estimate   =   -1842.89682707 Ry
     estimated scf accuracy    <       0.00000004 Ry

     iteration # 32     ecut=    60.00 Ry     beta= 0.50
     Davidson diagonalization with overlap
     ethr =  1.83E-11,  avg # of iterations =  1.0

     negative rho (up, down):  1.492E-03 0.000E+00

     total cpu time spent up to now is      633.1 secs

     total energy              =   -1842.89682700 Ry
     Harris-Foulkes estimate   =   -1842.89682704 Ry
     estimated scf accuracy    <       0.00000002 Ry

     iteration # 33     ecut=    60.00 Ry     beta= 0.50
     Davidson diagonalization with overlap
     ethr =  8.42E-12,  avg # of iterations =  1.0

     negative rho (up, down):  1.509E-03 0.000E+00

     total cpu time spent up to now is      647.3 secs

     End of self-consistent calculation

          k = 0.0000 0.0000 0.0000 ( 34019 PWs)   bands (ev):

   -35.5160 -35.4491 -22.7211 -22.7202 -22.7081 -22.4641 -17.0205 -16.9423
   -16.5671 -16.5558 -16.5048 -16.4926 -15.2312 -15.1763 -14.7794 -14.6015
   -14.5960 -14.5016 -14.4199 -14.1116 -14.1105 -13.9118 -13.8959 -13.7535
   -13.6342 -13.6246 -13.4526  -7.9257  -7.8524  -7.8491  -7.8149  -7.8142
    -7.6889  -7.6449  -7.6220  -7.6211  -7.5373  -7.5086  -7.3422  -2.2603
    -2.2600  -2.0580  -1.7596  -1.7568  -1.6952  -1.5981  -1.5882  -1.5763
    -1.4690  -1.4113  -1.3907  -1.3620  -1.1510  -1.1504  -0.9805  -0.7746
    -0.7660  -0.5184  -0.3891  -0.3886  -0.3088  -0.3064  -0.2413  -0.2227
    -0.1951  -0.1947  -0.1793  -0.1748  -0.1248  -0.1108  -0.0991  -0.0912
    -0.0859  -0.0231   0.0320   0.0329   0.1683   0.1689   0.1689   0.1712
     0.2305   0.2434   0.2595   0.3467   0.3804   0.3947   0.4258   0.4826
     0.5174   0.8203   0.8712   0.9517   0.9518   1.0143   1.0558   1.2534
     1.2804   1.4188   1.4327   1.4399   1.4659   1.5281   1.5891   1.5953
     1.7309   1.7479   1.8385   1.8428   1.8952   1.9499   2.1046   2.1095
     2.1977   2.2146   2.2510   2.3423   2.3480   2.6004   2.6064   5.2819
     5.2886   5.8132   6.2706   6.4876   6.8200   6.8363   7.0079   7.3427
     8.0423   8.1750   8.3372   8.3880   8.4938   8.6856   8.7730   9.1713
     9.2671

          k = 0.0000 0.1320 0.0000 ( 34015 PWs)   bands (ev):

   -35.5142 -35.4472 -22.6944 -22.6936 -22.6848 -22.4386 -16.9844 -16.9059
   -16.6284 -16.5650 -16.5648 -16.5025 -15.1425 -15.0901 -14.7243 -14.6066
   -14.5977 -14.4744 -14.3911 -14.1210 -14.1194 -13.9172 -13.9080 -13.7989
   -13.6758 -13.6599 -13.5125  -7.9177  -7.8520  -7.8495  -7.7671  -7.7664
    -7.6643  -7.6629  -7.6470  -7.6443  -7.5855  -7.4635  -7.3896  -2.3185
    -2.3175  -2.1370  -2.0908  -2.0698  -1.9684  -1.8948  -1.6002  -1.5778
    -1.5749  -1.5745  -1.5581  -1.4513  -1.3440  -1.2744  -1.2335  -1.0285
    -0.7095  -0.5657  -0.5597  -0.5531  -0.4866  -0.4860  -0.4208  -0.3919
    -0.3905  -0.2676  -0.1910  -0.1442  -0.1124  -0.0875  -0.0785  -0.0779
    -0.0359   0.0319   0.0533   0.0543   0.0774   0.0940   0.1923   0.1924
     0.2315   0.2473   0.3099   0.3467   0.3756   0.3819   0.4398   0.4953
     0.7948   0.9347   1.0022   1.1100   1.1262   1.1490   1.1493   1.2112
     1.2304   1.2589   1.4158   1.4867   1.4899   1.5586   1.5738   1.5941
     1.6489   1.7399   1.8240   1.8416   1.8831   1.9609   2.0402   2.0491
     2.0883   2.1585   2.2309   2.5428   2.8629   2.8888   2.9487   5.6614
     5.6634   6.1275   6.5868   6.7286   7.1264   7.1393   7.3199   7.6191
     8.2158   8.3634   8.5436   8.6007   8.7452   8.7997   9.0096   9.2954
     9.3701

          k = 0.0000 0.2640 0.0000 ( 33931 PWs)   bands (ev):

   -35.5098 -35.4428 -22.6285 -22.6277 -22.6273 -22.3759 -16.8923 -16.8129
   -16.7827 -16.7190 -16.5591 -16.4968 -14.9428 -14.9045 -14.6555 -14.6323
   -14.5774 -14.4129 -14.3204 -14.1083 -14.1038 -13.9569 -13.9519 -13.9240
   -13.7635 -13.7458 -13.6357  -7.8997  -7.8516  -7.8499  -7.7546  -7.7536
    -7.6987  -7.6466  -7.6459  -7.6342  -7.5424  -7.4921  -7.3502  -2.7639
    -2.7542  -2.6474  -2.5308  -2.4519  -2.3586  -2.3585  -2.2117  -2.2112
    -2.0430  -1.5695  -1.5239  -1.5081  -1.4125  -1.3950  -1.3729  -1.2885
    -0.9223  -0.8753  -0.8164  -0.7376  -0.7373  -0.7033  -0.7010  -0.5809
    -0.5763  -0.4642  -0.4576  -0.4291  -0.4273  -0.4200  -0.3845  -0.2491
    -0.1831  -0.0054   0.0816   0.0825   0.1453   0.1644   0.1716   0.2786
     0.3142   0.3847   0.4441   0.4842   0.6873   0.7380   0.7670   0.7733
     0.9686   1.0382   1.0745   1.0848   1.2040   1.2343   1.2345   1.2350
     1.2439   1.2767   1.3400   1.3892   1.4325   1.5407   1.6970   1.7318
     1.7691   1.7714   1.8484   1.9987   2.0157   2.0420   2.0435   2.0497
     2.0647   2.1788   2.3605   2.6641   3.1058   3.1145   3.7935   6.5564
     6.5566   6.8159   7.3788   7.4176   7.9537   7.9595   8.1767   8.4144
     8.7122   8.7475   8.8334   8.9729   9.0339   9.1549   9.3895   9.4241
     9.4461

          k = 0.0000 0.3960 0.0000 ( 33860 PWs)   bands (ev):

   -35.5054 -35.4384 -22.5684 -22.5604 -22.5595 -22.3112 -16.9190 -16.8540
   -16.7906 -16.7115 -16.5535 -16.4912 -14.8645 -14.8602 -14.6128 -14.5604
   -14.4247 -14.3471 -14.2607 -14.0789 -14.0430 -14.0348 -14.0225 -14.0045
   -13.9151 -13.8193 -13.7253  -7.8798  -7.8515  -7.8502  -7.8328  -7.8318
    -7.7926  -7.6287  -7.5819  -7.5182  -7.5174  -7.4322  -7.2300  -3.3674
    -3.2185  -3.2145  -2.9880  -2.9297  -2.9255  -2.8928  -2.3024  -2.3020
    -2.0730  -1.9074  -1.7435  -1.7250  -1.4588  -1.4435  -1.3049  -1.2034
    -1.1406  -1.0734  -1.0617  -1.0059  -1.0040  -0.8729  -0.7885  -0.7733
    -0.7713  -0.7129  -0.6803  -0.6770  -0.6634  -0.6358  -0.5667  -0.2678
    -0.2325  -0.0271  -0.0238   0.0987   0.0996   0.1942   0.1968   0.2350
     0.2630   0.3724   0.5630   0.5960   0.8514   0.8978   0.9118   0.9310
     0.9949   0.9996   1.0250   1.0342   1.1533   1.1683   1.2050   1.2054
     1.2090   1.4523   1.5916   1.6758   1.6866   1.6974   1.7959   1.8194
     1.8220   1.8741   2.0032   2.0228   2.0534   2.1205   2.1508   2.3235
     2.3571   2.4373   2.4377   2.5894   2.9981   3.0102   4.3628   7.4347
     7.5037   7.5061   8.3204   8.3536   8.5079   8.7507   8.7535   9.0787
     9.1232   9.1609   9.1669   9.2178   9.2742   9.4945   9.5689   9.5760
     9.7727

          k = 0.0000-0.5279 0.0000 ( 33926 PWs)   bands (ev):

   -35.5035 -35.4366 -22.5435 -22.5314 -22.5305 -22.2837 -16.9712 -16.9059
   -16.7456 -16.6664 -16.5511 -16.4888 -14.9068 -14.9032 -14.4984 -14.4578
   -14.4233 -14.2605 -14.2181 -14.1637 -14.0570 -14.0463 -14.0129 -14.0024
   -13.9669 -13.8718 -13.7687  -7.8649  -7.8625  -7.8613  -7.8516  -7.8509
    -7.8325  -7.6229  -7.6195  -7.4622  -7.4615  -7.3847  -7.1779  -3.6347
    -3.3972  -3.3937  -3.1673  -3.1591  -3.1449  -3.0625  -2.3186  -2.3182
    -2.0834  -2.0343  -1.8732  -1.8582  -1.4260  -1.4084  -1.2542  -1.2330
    -1.1603  -1.1517  -1.1308  -1.1283  -1.0881  -0.9663  -0.8970  -0.8901
    -0.8776  -0.7776  -0.7679  -0.7674  -0.7111  -0.6962  -0.6446  -0.2348
    -0.2046  -0.1141  -0.0360   0.1043   0.1052   0.1917   0.1999   0.2421
     0.2605   0.3652   0.4913   0.5267   0.8061   0.8848   0.8886   0.8939
     0.9275   0.9606   1.0704   1.0813   1.1757   1.1880   1.1884   1.3856
     1.4341   1.4479   1.5835   1.6348   1.7951   1.8075   1.8222   1.8420
     2.0831   2.0902   2.0903   2.1357   2.1424   2.1763   2.1936   2.2655
     2.2977   2.5581   2.5988   2.5993   2.8191   2.8332   4.5436   7.7160
     7.9164   7.9177   8.3809   8.8810   9.0338   9.0363   9.0607   9.0770
     9.0965   9.1340   9.3886   9.3946   9.4375   9.4810   9.9116  10.0027
    10.1394

          k = 0.1250 0.0000 0.0000 ( 34005 PWs)   bands (ev):

   -35.5149 -35.4480 -22.7031 -22.7022 -22.6923 -22.4469 -16.9871 -16.9085
   -16.6474 -16.5854 -16.5545 -16.4913 -15.1290 -15.0773 -14.7981 -14.6471
   -14.6383 -14.5069 -14.4234 -14.1206 -14.1196 -13.9236 -13.9093 -13.7742
   -13.6830 -13.6424 -13.4906  -7.9583  -7.8782  -7.8756  -7.7531  -7.7522
    -7.6907  -7.6190  -7.5895  -7.5886  -7.5090  -7.4481  -7.3117  -2.3028
    -2.3027  -2.0884  -1.8017  -1.7974  -1.7372  -1.7337  -1.7327  -1.6665
    -1.6298  -1.5628  -1.3812  -1.3541  -1.1489  -1.1483  -0.9992  -0.8294
    -0.7937  -0.5976  -0.5615  -0.5314  -0.4457  -0.4440  -0.3111  -0.2717
    -0.2692  -0.2653  -0.2272  -0.2060  -0.1976  -0.1718  -0.1297  -0.1097
    -0.0935  -0.0140   0.0263   0.0850   0.1610   0.1617   0.1885   0.2214
     0.2646   0.2653   0.2893   0.3271   0.4148   0.4502   0.4925   0.5218
     0.5991   0.8592   0.8631   0.9364   0.9641   1.0515   1.1140   1.2578
     1.2734   1.2880   1.4128   1.4355   1.4616   1.4823   1.5557   1.5860
     1.6000   1.8253   1.9255   1.9653   2.0112   2.0536   2.0611   2.1618
     2.1738   2.2369   2.2626   2.2712   2.3974   2.6379   2.6407   5.4650
     5.4674   6.0249   6.5041   6.6631   7.0386   7.0482   7.1942   7.5511
     8.1885   8.3029   8.5086   8.5626   8.7531   8.8774   9.0427   9.2628
     9.4351

          k = 0.1250 0.1320 0.0000 ( 33966 PWs)   bands (ev):

   -35.5131 -35.4462 -22.6772 -22.6763 -22.6697 -22.4222 -16.9520 -16.8731
   -16.6505 -16.6176 -16.5882 -16.5545 -15.0477 -14.9997 -14.7410 -14.6414
   -14.6294 -14.4771 -14.3905 -14.1215 -14.1205 -13.9294 -13.9227 -13.8135
   -13.7157 -13.6713 -13.5393  -7.9389  -7.8975  -7.8959  -7.8154  -7.8140
    -7.7564  -7.6638  -7.5519  -7.5508  -7.5418  -7.4603  -7.2710  -2.3553
    -2.3537  -2.1536  -2.0783  -2.0579  -1.9511  -1.8815  -1.7807  -1.7763
    -1.7050  -1.6102  -1.5998  -1.5689  -1.5686  -1.2778  -1.2313  -1.0677
    -0.7614  -0.7321  -0.7167  -0.6091  -0.6054  -0.5435  -0.4746  -0.4411
    -0.4328  -0.4293  -0.3982  -0.1966  -0.1749  -0.1382  -0.1214  -0.0651
    -0.0097   0.0366   0.0556   0.0697   0.0848   0.1325   0.2206   0.2270
     0.2575   0.2911   0.3326   0.3465   0.3601   0.4053   0.5891   0.6447
     0.7715   1.0195   1.0874   1.1054   1.1131   1.1991   1.2013   1.2850
     1.3042   1.3271   1.3538   1.3637   1.3872   1.4920   1.5577   1.6268
     1.6634   1.6726   1.7313   1.7330   1.7990   1.8647   2.1483   2.2792
     2.4107   2.4175   2.5840   2.6598   2.8756   2.8954   2.9607   5.8046
     5.8053   6.2797   6.7706   6.8683   7.3365   7.3436   7.5017   7.8223
     8.3597   8.4815   8.6821   8.7487   8.9106   8.9571   9.1903   9.3415
     9.3960

          k = 0.1250 0.2640 0.0000 ( 33895 PWs)   bands (ev):

   -35.5087 -35.4418 -22.6139 -22.6134 -22.6125 -22.3613 -16.8628 -16.7829
   -16.7797 -16.7162 -16.6300 -16.5680 -14.8737 -14.8457 -14.6417 -14.6120
   -14.5882 -14.4073 -14.3099 -14.1037 -14.1012 -13.9787 -13.9704 -13.9154
   -13.7705 -13.7490 -13.6427  -7.9665  -7.9657  -7.9041  -7.8874  -7.8523
    -7.8509  -7.6815  -7.6415  -7.5424  -7.5416  -7.4570  -7.2657  -2.7869
    -2.7759  -2.6369  -2.5394  -2.4615  -2.3591  -2.3589  -2.2111  -2.2106
    -2.0547  -1.7315  -1.7286  -1.6712  -1.5708  -1.5185  -1.4207  -1.3849
    -0.9727  -0.9227  -0.9152  -0.8864  -0.8131  -0.7911  -0.7124  -0.7068
    -0.6522  -0.6238  -0.6232  -0.5017  -0.4771  -0.4319  -0.4097  -0.2514
    -0.1953  -0.0590   0.0048   0.0306   0.0591   0.1486   0.2596   0.2805
     0.4402   0.5046   0.5688   0.6174   0.7934   0.8175   0.8336   0.8729
     0.9285   1.0882   1.0914   1.1709   1.2009   1.2411   1.3729   1.3799
     1.4005   1.4293   1.4450   1.4657   1.4852   1.5427   1.5955   1.6649
     1.6948   1.7155   1.7574   1.8334   2.0071   2.0088   2.1200   2.3473
     2.6091   2.6146   2.8126   2.8927   3.1156   3.1287   3.7953   6.6174
     6.6176   6.8075   7.4583   7.4970   8.1215   8.1231   8.3570   8.5781
     8.7413   8.8586   8.9012   9.0144   9.0360   9.1121   9.1977   9.2700
     9.4314

          k = 0.1250 0.3960 0.0000 ( 33906 PWs)   bands (ev):

   -35.5043 -35.4374 -22.5567 -22.5474 -22.5465 -22.2985 -16.9139 -16.8489
   -16.7641 -16.6847 -16.6214 -16.5595 -14.8296 -14.8263 -14.5387 -14.4908
   -14.4118 -14.3354 -14.2385 -14.0736 -14.0579 -14.0481 -14.0188 -14.0120
   -13.8966 -13.8126 -13.7151  -7.9969  -7.9960  -7.9725  -7.8640  -7.8637
    -7.8531  -7.7337  -7.6503  -7.5874  -7.5867  -7.4949  -7.3053  -3.3565
    -3.2590  -3.2536  -3.0167  -2.9290  -2.9171  -2.9104  -2.3106  -2.3103
    -2.0878  -1.8479  -1.7220  -1.7192  -1.5835  -1.5712  -1.5087  -1.4397
    -1.2610  -1.2443  -1.1654  -1.1045  -1.0471  -1.0388  -1.0056  -0.8081
    -0.8038  -0.8000  -0.7653  -0.7302  -0.6882  -0.6729  -0.6293  -0.3030
    -0.2706  -0.1184  -0.0198   0.0461   0.0613   0.1917   0.2718   0.2774
     0.4760   0.5571   0.7309   0.7482   0.7808   0.9710   0.9742   1.0366
     1.0947   1.1231   1.1354   1.1771   1.2652   1.2830   1.2986   1.3090
     1.3579   1.5314   1.6311   1.7220   1.7425   1.7901   1.8105   1.8176
     1.9203   1.9565   2.0186   2.0915   2.1206   2.4045   2.4048   2.4624
     2.5580   2.5637   2.7662   2.8184   3.0543   3.0776   4.3488   7.1615
     7.3683   7.3704   8.1968   8.2490   8.4883   8.7323   8.7341   8.8522
     8.9965   9.1242   9.3852   9.4288   9.4899   9.6200   9.7011   9.7444
     9.8949

          k = 0.1250-0.5279 0.0000 ( 33848 PWs)   bands (ev):

   -35.5025 -35.4355 -22.5325 -22.5195 -22.5186 -22.2719 -16.9655 -16.9004
   -16.7206 -16.6410 -16.6177 -16.5558 -14.8621 -14.8588 -14.4259 -14.3914
   -14.3841 -14.2375 -14.2165 -14.1428 -14.0895 -14.0130 -14.0121 -14.0034
   -13.9935 -13.8550 -13.7471  -7.9916  -7.9907  -7.9857  -7.8687  -7.8680
    -7.8391  -7.7468  -7.6582  -7.6216  -7.6210  -7.5145  -7.3304  -3.6250
    -3.4457  -3.4405  -3.1951  -3.1507  -3.1454  -3.0946  -2.3317  -2.3313
    -2.1010  -1.9349  -1.7521  -1.7483  -1.5405  -1.5299  -1.4464  -1.4290
    -1.3922  -1.3180  -1.2854  -1.2496  -1.1878  -1.1275  -1.1198  -0.8824
    -0.8778  -0.8764  -0.8426  -0.8196  -0.7806  -0.7590  -0.6405  -0.2931
    -0.2585  -0.1398  -0.0242   0.0426   0.0818   0.2061   0.2821   0.2842
     0.4761   0.5647   0.7134   0.7502   0.7576   0.9711   1.0041   1.0093
     1.0253   1.0258   1.0981   1.1425   1.3122   1.3320   1.3811   1.4203
     1.4662   1.5543   1.6058   1.8487   1.8622   1.8809   2.0779   2.0911
     2.1027   2.1106   2.1649   2.1948   2.2903   2.4158   2.4187   2.5449
     2.5698   2.5702   2.6219   2.6615   2.9328   2.9591   4.5223   7.2479
     7.5903   7.5916   8.3800   8.3988   8.5050   8.8902   9.1057   9.1418
     9.3720   9.3790   9.4733   9.6278   9.7514   9.8687  10.0250  10.0723
    10.1779

          k = 0.2500 0.0000 0.0000 ( 34032 PWs)   bands (ev):

   -35.5123 -35.4453 -22.6588 -22.6579 -22.6537 -22.4046 -16.9018 -16.8219
   -16.8116 -16.7502 -16.5511 -16.4879 -14.9314 -14.9082 -14.8543 -14.7285
   -14.6973 -14.5304 -14.4392 -14.1347 -14.1337 -13.9702 -13.9483 -13.8309
   -13.7871 -13.6807 -13.5666  -7.9935  -7.8796  -7.8779  -7.6902  -7.6665
    -7.6658  -7.5501  -7.5088  -7.5079  -7.4389  -7.3634  -7.2361  -2.4958
    -2.4938  -2.2900  -2.1452  -2.1394  -2.1343  -1.9757  -1.6764  -1.6651
    -1.5771  -1.4852  -1.4008  -1.3677  -1.1456  -1.1450  -1.0527  -0.9724
    -0.8816  -0.8676  -0.8341  -0.7078  -0.6993  -0.6992  -0.5680  -0.5230
    -0.4818  -0.4608  -0.4578  -0.3643  -0.2466  -0.2100  -0.1808  -0.1790
    -0.1193  -0.1095  -0.0657   0.0335   0.1483   0.1489   0.2537   0.2561
     0.3316   0.3932   0.3938   0.5199   0.5248   0.5592   0.6196   0.6437
     0.7155   0.7307   0.7378   0.9921   1.0437   1.0921   1.1150   1.1743
     1.3499   1.3608   1.3779   1.3871   1.4864   1.5216   1.5221   1.6247
     1.6381   1.7784   1.8555   1.9378   1.9551   2.0781   2.0974   2.1280
     2.1302   2.2711   2.4149   2.5449   2.5611   2.7447   2.7486   5.9237
     5.9240   6.4791   7.1085   7.1767   7.6197   7.6256   7.7295   8.1065
     8.5602   8.5681   8.7843   8.9746   9.2046   9.3590   9.4218   9.5451
     9.6629

          k = 0.2500 0.1320 0.0000 ( 33975 PWs)   bands (ev):

   -35.5105 -35.4435 -22.6349 -22.6340 -22.6327 -22.3817 -16.8697 -16.8052
   -16.7893 -16.7440 -16.6173 -16.5540 -14.8811 -14.8648 -14.7913 -14.6792
   -14.6451 -14.4949 -14.3982 -14.1205 -14.1202 -13.9697 -13.9584 -13.8500
   -13.8048 -13.7013 -13.5924  -7.9891  -7.9482  -7.9472  -7.8032  -7.8022
    -7.7648  -7.7091  -7.5451  -7.4752  -7.4744  -7.3946  -7.2027  -2.5457
    -2.5409  -2.3277  -2.1771  -2.1307  -2.1285  -2.0231  -2.0084  -1.9689
    -1.8800  -1.8061  -1.6262  -1.5596  -1.5592  -1.3375  -1.3033  -1.1856
    -0.9560  -0.9510  -0.9058  -0.8817  -0.8205  -0.7745  -0.7318  -0.5685
    -0.5551  -0.5377  -0.4852  -0.3890  -0.3369  -0.2695  -0.2429  -0.1459
    -0.1364   0.0386   0.0425   0.0991   0.1409   0.1575   0.2267   0.2638
     0.2815   0.3926   0.3989   0.4086   0.6443   0.6982   0.7127   0.8439
     0.8904   0.9715   0.9830   1.0412   1.1344   1.1754   1.2374   1.2641
     1.3035   1.3908   1.4493   1.4674   1.5039   1.5477   1.5498   1.6040
     1.6111   1.6968   1.7520   1.8012   1.8124   1.8579   2.1189   2.3581
     2.7339   2.7456   2.9271   2.9343   2.9422   3.0043   3.0400   6.1849
     6.1852   6.5818   7.2655   7.3154   7.8797   7.8820   8.0146   8.3524
     8.6779   8.6815   8.9214   9.0242   9.1240   9.2490   9.3037   9.3937
     9.5158

          k = 0.2500 0.2640 0.0000 ( 33963 PWs)   bands (ev):

   -35.5061 -35.4392 -22.5809 -22.5762 -22.5753 -22.3254 -16.8052 -16.7813
   -16.7538 -16.7379 -16.7062 -16.6905 -14.7919 -14.7868 -14.6220 -14.5387
   -14.5089 -14.4058 -14.2896 -14.0954 -14.0934 -14.0196 -14.0051 -13.8970
   -13.8067 -13.7431 -13.6563  -8.1684  -8.1676  -8.0928  -7.9410  -7.8650
    -7.8639  -7.8438  -7.6560  -7.5950  -7.5942  -7.5127  -7.3249  -2.9240
    -2.9074  -2.6695  -2.5748  -2.5339  -2.3723  -2.3714  -2.2433  -2.2432
    -2.1519  -2.1013  -2.1001  -2.0335  -1.9417  -1.5095  -1.3813  -1.3614
    -1.3522  -1.3493  -1.2158  -1.1445  -0.9852  -0.8954  -0.8043  -0.7322
    -0.6655  -0.6605  -0.6262  -0.5575  -0.5286  -0.5241  -0.4966  -0.3285
    -0.2819  -0.2527  -0.2427   0.0709   0.1571   0.2050   0.4000   0.4313
     0.6216   0.6743   0.7423   0.8487   0.8748   0.9163   0.9537   1.0279
     1.0316   1.2035   1.2889   1.3296   1.3525   1.3720   1.4527   1.5012
     1.5242   1.5320   1.5626   1.6170   1.6188   1.6505   1.6906   1.7055
     1.7541   1.7755   1.8029   1.8582   1.9272   1.9291   2.2326   2.4183
     3.0545   3.0574   3.3410   3.3496   3.4920   3.5515   3.8009   6.6518
     6.7275   6.7284   7.6571   7.7058   8.4134   8.4144   8.6305   8.7836
     8.8087   8.9239   9.0978   9.1329   9.1857   9.3861   9.4314   9.4595
     9.5475

          k = 0.2500 0.3960 0.0000 ( 33940 PWs)   bands (ev):

   -35.5018 -35.4348 -22.5279 -22.5158 -22.5149 -22.2675 -16.9018 -16.8370
   -16.7695 -16.7070 -16.6954 -16.6163 -14.7484 -14.7465 -14.4031 -14.3702
   -14.3602 -14.3002 -14.1685 -14.1441 -14.1038 -14.0276 -14.0160 -13.9741
   -13.8374 -13.8004 -13.6924  -8.2885  -8.2875  -8.2420  -8.0282  -7.9153
    -7.9143  -7.8725  -7.8089  -7.8080  -7.7693  -7.6398  -7.5350  -3.4249
    -3.4062  -3.3241  -3.1307  -3.0259  -2.8967  -2.8964  -2.3819  -2.3818
    -2.1813  -2.0703  -2.0615  -2.0057  -1.8983  -1.7495  -1.7133  -1.6824
    -1.5310  -1.4674  -1.3827  -1.3453  -1.1833  -1.0966  -1.0616  -0.8051
    -0.7678  -0.7395  -0.7289  -0.7280  -0.7104  -0.6841  -0.5664  -0.4721
    -0.4341  -0.3519  -0.3109   0.1597   0.2421   0.2683   0.4439   0.4943
     0.7584   0.8410   0.9358   1.0479   1.0481   1.0782   1.1195   1.3173
     1.3450   1.3580   1.3914   1.3955   1.4515   1.5246   1.5825   1.5999
     1.6499   1.6887   1.7389   1.7959   1.8063   1.8486   1.8677   1.9440
     1.9876   1.9914   2.0982   2.1151   2.1747   2.3261   2.3264   2.4946
     2.8861   2.8897   3.5709   3.5865   3.7283   3.7811   4.3108   6.5013
     6.9349   6.9370   7.8036   7.8301   8.7278   8.8210   8.8672   8.8855
     9.1281   9.1587   9.5698   9.7520   9.7978   9.8272   9.9022   9.9758
    10.0098

          k = 0.2500-0.5279 0.0000 ( 33964 PWs)   bands (ev):

   -35.4999 -35.4330 -22.5056 -22.4902 -22.4893 -22.2431 -16.9520 -16.8870
   -16.7640 -16.7016 -16.6558 -16.5765 -14.7451 -14.7428 -14.2936 -14.2904
   -14.2859 -14.2123 -14.1897 -14.1536 -14.0857 -14.0342 -13.9984 -13.9979
   -13.9250 -13.8173 -13.6973  -8.2886  -8.2877  -8.2705  -8.0351  -8.0034
    -8.0026  -7.8977  -7.8774  -7.8748  -7.8696  -7.6610  -7.6318  -3.6351
    -3.6071  -3.5842  -3.3245  -3.2187  -3.1241  -3.1241  -2.3893  -2.3892
    -2.1794  -2.0346  -2.0237  -1.9443  -1.9065  -1.8716  -1.8493  -1.8138
    -1.6678  -1.5333  -1.4108  -1.3776  -1.2539  -1.1808  -1.1558  -0.8756
    -0.8487  -0.7988  -0.7808  -0.7610  -0.7447  -0.7423  -0.5447  -0.4853
    -0.4541  -0.3794  -0.3345   0.1763   0.2724   0.3002   0.4649   0.5258
     0.7936   0.9271   1.0331   1.1043   1.1364   1.1497   1.1522   1.2676
     1.2817   1.3487   1.4439   1.4740   1.5296   1.5607   1.5647   1.5731
     1.6531   1.7952   1.8332   1.9815   2.0117   2.0233   2.0630   2.0835
     2.1100   2.1401   2.1486   2.2543   2.2869   2.5018   2.5021   2.5320
     2.6637   2.6691   3.5910   3.6100   3.7632   3.8136   4.4613   6.3954
     6.8999   6.9011   7.7448   7.7974   8.7720   8.7786   9.2007   9.2958
     9.5705   9.5833   9.5880   9.7921   9.9013   9.9333  10.0102  10.1490
    10.1832

          k = 0.3750 0.0000 0.0000 ( 33964 PWs)   bands (ev):

   -35.5096 -35.4427 -22.6144 -22.6133 -22.6124 -22.3614 -16.9514 -16.8891
   -16.8066 -16.7265 -16.5478 -16.4846 -14.9758 -14.9715 -14.9259 -14.5831
   -14.5676 -14.5314 -14.4083 -14.1463 -14.1409 -14.0786 -14.0293 -13.9051
   -13.8445 -13.7234 -13.6232  -7.9962  -7.8621  -7.8607  -7.6635  -7.6016
    -7.6009  -7.5103  -7.4244  -7.4235  -7.3663  -7.3164  -7.1574  -2.8233
    -2.8203  -2.6403  -2.5226  -2.2624  -2.2620  -2.0231  -1.5942  -1.5730
    -1.5117  -1.4857  -1.4324  -1.3597  -1.1472  -1.1466  -1.1304  -1.1194
    -1.0448  -0.9518  -0.9478  -0.9436  -0.9398  -0.8290  -0.8114  -0.7500
    -0.7160  -0.6610  -0.6606  -0.5234  -0.3734  -0.3304  -0.1925  -0.1769
    -0.1605  -0.1307  -0.1230  -0.0003   0.1355   0.1361   0.2399   0.2416
     0.2716   0.4719   0.4728   0.4932   0.4985   0.5332   0.5955   0.6178
     0.7700   0.8179   0.8404   0.9211   1.0460   1.1853   1.2535   1.2538
     1.2985   1.3354   1.4180   1.4268   1.5720   1.5969   1.6061   1.6666
     1.7453   1.8175   1.8469   1.8779   1.9570   1.9858   2.0770   2.1831
     2.2196   2.2883   2.4687   2.6261   2.6669   2.8619   2.8733   6.5735
     6.5737   6.8553   7.8402   7.8992   8.0687   8.0696   8.4183   8.5522
     8.6252   8.7873   9.1882   9.3947   9.4259   9.5646   9.5846   9.6214
     9.6392

          k = 0.3750 0.1320 0.0000 ( 33991 PWs)   bands (ev):

   -35.5079 -35.4409 -22.5950 -22.5916 -22.5907 -22.3404 -16.9428 -16.8806
   -16.7775 -16.6972 -16.6123 -16.5490 -14.9277 -14.9242 -14.8556 -14.5422
   -14.5234 -14.4708 -14.3516 -14.1183 -14.1165 -14.0554 -14.0181 -13.8976
   -13.8689 -13.7441 -13.6301  -7.9951  -7.9197  -7.9187  -7.7649  -7.7640
    -7.7135  -7.6844  -7.5142  -7.5133  -7.5004  -7.4494  -7.2506  -2.8849
    -2.8787  -2.6844  -2.5587  -2.2612  -2.2608  -2.0380  -1.9705  -1.9567
    -1.7936  -1.7313  -1.6278  -1.5481  -1.5476  -1.4060  -1.3803  -1.2830
    -1.2432  -1.2403  -1.1257  -1.0329  -0.9966  -0.8854  -0.7606  -0.7251
    -0.7080  -0.6059  -0.5854  -0.4797  -0.4543  -0.3482  -0.3394  -0.1995
    -0.1972   0.0116   0.0190   0.1192   0.1690   0.1982   0.2488   0.2539
     0.3090   0.4054   0.5078   0.5092   0.5609   0.7386   0.7464   0.8616
     0.8822   0.9655   1.0357   1.0703   1.2176   1.2248   1.2567   1.3118
     1.3495   1.3845   1.4288   1.4318   1.6073   1.6290   1.6377   1.6939
     1.7777   1.8058   1.8446   1.8634   1.9306   1.9562   2.0196   2.3414
     2.8110   2.8199   2.9774   3.0273   3.0411   3.2005   3.2390   6.7223
     6.7228   6.7566   7.8875   7.9420   8.1342   8.1348   8.5229   8.5678
     8.7900   8.9661   9.0426   9.3286   9.4362   9.5105   9.5743   9.6757
     9.7356

          k = 0.3750 0.2640 0.0000 ( 33991 PWs)   bands (ev):

   -35.5035 -35.4366 -22.5474 -22.5383 -22.5374 -22.2888 -16.9225 -16.8603
   -16.7567 -16.7023 -16.6920 -16.6227 -14.8055 -14.8032 -14.6617 -14.4462
   -14.4224 -14.3215 -14.2123 -14.0779 -14.0673 -14.0449 -14.0289 -13.9216
   -13.8351 -13.7627 -13.6596  -8.2212  -8.2203  -8.1461  -7.9803  -7.8997
    -7.8987  -7.8772  -7.7774  -7.7764  -7.7395  -7.6390  -7.5218  -3.2001
    -3.1798  -2.9242  -2.7903  -2.5551  -2.4321  -2.4298  -2.3126  -2.3125
    -2.2851  -2.2077  -2.1817  -2.1816  -2.0110  -1.7091  -1.6886  -1.5426
    -1.4911  -1.4314  -1.1896  -1.1698  -0.9718  -0.8853  -0.8401  -0.8069
    -0.7947  -0.7394  -0.6185  -0.5973  -0.5793  -0.5761  -0.5404  -0.4157
    -0.3617  -0.3044  -0.2878   0.1111   0.1874   0.3562   0.5173   0.5406
     0.7432   0.7779   0.8272   0.8913   0.9022   1.0754   1.0764   1.1575
     1.2368   1.2743   1.3001   1.3125   1.4742   1.4883   1.5124   1.5400
     1.6349   1.6898   1.7094   1.7308   1.7566   1.7957   1.8167   1.8219
     1.8414   1.8760   1.8975   1.9017   1.9159   2.0532   2.2157   2.3468
     3.0547   3.0595   3.7708   3.7971   3.8120   3.9278   3.9824   6.3812
     6.7680   6.7691   7.7115   7.7180   8.4730   8.4753   8.7837   8.8992
     9.0634   9.3054   9.4775   9.5023   9.5259   9.6213   9.6729   9.8758
     9.9736

          k = 0.3750 0.3960 0.0000 ( 33993 PWs)   bands (ev):

   -35.4992 -35.4322 -22.4988 -22.4837 -22.4828 -22.2361 -16.9052 -16.8835
   -16.8425 -16.8194 -16.6225 -16.5423 -14.6706 -14.6693 -14.4048 -14.3514
   -14.3315 -14.1651 -14.1574 -14.1296 -14.0390 -14.0113 -14.0088 -13.9184
   -13.8178 -13.7631 -13.6778  -8.4869  -8.4860  -8.4416  -8.2238  -8.1520
    -8.1512  -8.0502  -7.9154  -7.9021  -7.9003  -7.8102  -7.6615  -3.6796
    -3.6546  -3.3818  -3.2795  -3.2219  -2.8764  -2.8758  -2.5627  -2.5623
    -2.4002  -2.3075  -2.2105  -2.2102  -2.0235  -2.0201  -2.0031  -1.7718
    -1.7384  -1.5607  -1.2013  -1.1509  -1.1396  -1.1389  -1.0959  -0.8905
    -0.8861  -0.7991  -0.7936  -0.7280  -0.6781  -0.6708  -0.6171  -0.5714
    -0.5155  -0.3270  -0.3261   0.2321   0.3252   0.4000   0.6398   0.7150
     0.9819   1.0927   1.1588   1.2270   1.2285   1.3163   1.3475   1.4237
     1.4435   1.5427   1.5532   1.5595   1.6518   1.6587   1.7294   1.7814
     1.8181   1.8438   1.8587   1.9174   1.9912   2.0088   2.0384   2.0643
     2.0831   2.0971   2.1561   2.2466   2.2478   2.2495   2.3318   2.5211
     2.8745   2.8817   4.2299   4.3135   4.3338   4.4058   4.4633   5.9239
     6.4647   6.4658   7.3921   7.4503   8.8453   8.9396   9.0478   9.0842
     9.3314   9.4777   9.5495   9.5823   9.5919   9.6946   9.7039   9.8550
     9.9738

          k = 0.3750-0.5279 0.0000 ( 34004 PWs)   bands (ev):

   -35.4974 -35.4304 -22.4784 -22.4606 -22.4597 -22.2138 -16.9387 -16.8926
   -16.8738 -16.8305 -16.5871 -16.5069 -14.6094 -14.6084 -14.3277 -14.3031
   -14.2143 -14.2109 -14.1584 -14.0753 -13.9950 -13.9910 -13.9898 -13.9678
   -13.8496 -13.7654 -13.6586  -8.5690  -8.5680  -8.5476  -8.3113  -8.2971
    -8.2964  -8.1993  -7.9650  -7.9283  -7.9267  -7.8739  -7.6728  -3.8863
    -3.8607  -3.6155  -3.5130  -3.4248  -3.1016  -3.1010  -2.5812  -2.5809
    -2.4120  -2.3140  -2.2047  -2.2044  -2.1294  -2.1161  -2.0217  -1.8555
    -1.8297  -1.5958  -1.2773  -1.2534  -1.2153  -1.1725  -1.1541  -0.8896
    -0.8865  -0.8849  -0.8793  -0.8122  -0.7686  -0.7215  -0.6365  -0.5864
    -0.4799  -0.3129  -0.3124   0.2650   0.3624   0.4136   0.6864   0.7963
     1.0501   1.2291   1.3214   1.3366   1.3568   1.3737   1.3996   1.4242
     1.4507   1.6163   1.6679   1.6851   1.7220   1.8103   1.8126   1.8361
     1.8686   1.9390   1.9659   2.0446   2.0954   2.1111   2.1345   2.2077
     2.2269   2.2460   2.3228   2.3571   2.4357   2.4387   2.4962   2.5853
     2.6299   2.6405   4.3274   4.4560   4.4894   4.5528   4.6091   5.7251
     6.2873   6.2879   7.2732   7.3652   8.6970   8.9318   9.1982   9.2272
     9.2691   9.4410   9.5711   9.6667   9.7840   9.8499   9.9158   9.9876
    10.0527

          k =-0.5000 0.0000 0.0000 ( 33930 PWs)   bands (ev):

   -35.5086 -35.4416 -22.5978 -22.5942 -22.5933 -22.3431 -17.0038 -16.9416
   -16.7644 -16.6837 -16.5464 -16.4832 -15.0332 -15.0274 -14.9594 -14.6009
   -14.5555 -14.3215 -14.2517 -14.2170 -14.2025 -14.1285 -14.1186 -13.9386
   -13.8597 -13.7414 -13.6423  -7.9902  -7.8518  -7.8504  -7.6467  -7.5785
    -7.5778  -7.5019  -7.3883  -7.3874  -7.3354  -7.3039  -7.1237  -2.9653
    -2.9626  -2.7845  -2.6719  -2.2874  -2.2870  -2.0202  -1.5837  -1.5624
    -1.5465  -1.5194  -1.3063  -1.2479  -1.1919  -1.1510  -1.1506  -1.1500
    -1.1062  -1.0990  -1.0922  -0.9889  -0.9862  -0.9251  -0.8318  -0.8262
    -0.7987  -0.7449  -0.7445  -0.5975  -0.4349  -0.3791  -0.2084  -0.1839
    -0.1476  -0.1289  -0.1276  -0.0650   0.1302   0.1308   0.2006   0.2279
     0.2550   0.4717   0.4724   0.4971   0.4974   0.5256   0.5491   0.6086
     0.7791   0.8230   0.8768   0.9352   0.9862   1.2031   1.2034   1.2504
     1.4302   1.4438   1.4669   1.5093   1.5327   1.6425   1.6608   1.6990
     1.7225   1.7231   1.8031   1.9391   2.0261   2.0759   2.1021   2.2010
     2.2321   2.2812   2.4769   2.6179   2.6783   2.8921   2.9099   7.0008
     7.3462   7.3467   7.3981   7.3984   8.3403   8.3850   8.6161   8.6612
     8.9306   9.1120   9.1229   9.4959   9.5262   9.5828   9.6329   9.7893
     9.9313

          k =-0.5000 0.1320 0.0000 ( 33986 PWs)   bands (ev):

   -35.5068 -35.4398 -22.5791 -22.5734 -22.5725 -22.3230 -16.9946 -16.9324
   -16.7369 -16.6560 -16.6102 -16.5469 -14.9757 -14.9708 -14.8852 -14.5602
   -14.5169 -14.2801 -14.1937 -14.1784 -14.1536 -14.1065 -14.0965 -13.9073
   -13.8972 -13.7664 -13.6420  -7.9850  -7.8909  -7.8897  -7.7079  -7.7072
    -7.6659  -7.6223  -7.5912  -7.5904  -7.5594  -7.4234  -7.3369  -3.0334
    -3.0275  -2.8364  -2.7142  -2.2923  -2.2920  -2.0480  -1.9395  -1.9229
    -1.7379  -1.6807  -1.6195  -1.5428  -1.5423  -1.4445  -1.4154  -1.3581
    -1.3551  -1.3164  -1.2357  -1.1364  -1.0252  -0.8869  -0.8006  -0.8003
    -0.7394  -0.6242  -0.6002  -0.5340  -0.4734  -0.3840  -0.3770  -0.2234
    -0.2223  -0.0032   0.0078   0.1300   0.1767   0.2026   0.2506   0.2515
     0.3718   0.4101   0.4668   0.5831   0.5837   0.6602   0.6735   0.8395
     0.8581   0.9719   1.0483   1.1130   1.1837   1.2283   1.2514   1.3486
     1.3501   1.3822   1.4880   1.5284   1.6510   1.6579   1.7056   1.7301
     1.7769   1.8034   1.8165   1.9463   1.9907   2.0721   2.0820   2.3209
     2.8179   2.8236   2.9857   3.0457   3.0612   3.2496   3.2889   6.7938
     7.1940   7.1944   7.7011   7.7018   8.2435   8.2754   8.5474   8.5850
     9.0593   9.1785   9.3634   9.6189   9.6669   9.6882   9.7019   9.7658
     9.8028

          k =-0.5000 0.2640 0.0000 ( 33976 PWs)   bands (ev):

   -35.5025 -35.4355 -22.5334 -22.5224 -22.5215 -22.2735 -16.9726 -16.9105
   -16.7534 -16.6890 -16.6658 -16.5856 -14.8243 -14.8208 -14.6807 -14.4632
   -14.4260 -14.1760 -14.0963 -14.0884 -14.0833 -14.0560 -14.0429 -13.9643
   -13.8368 -13.7921 -13.6566  -8.1600  -8.1590  -8.0880  -8.0091  -8.0084
    -7.9491  -7.9110  -7.8585  -7.8407  -7.8395  -7.6962  -7.6197  -3.3385
    -3.3182  -3.0696  -2.9355  -2.5474  -2.4576  -2.4548  -2.3254  -2.3224
    -2.3008  -2.2306  -2.1895  -2.1893  -2.0157  -1.8344  -1.8115  -1.6123
    -1.5472  -1.5012  -1.1104  -1.0836  -0.9391  -0.8999  -0.8995  -0.8367
    -0.8200  -0.7520  -0.6412  -0.6075  -0.6052  -0.6048  -0.5517  -0.4199
    -0.3508  -0.3255  -0.3246   0.1262   0.1978   0.4156   0.5724   0.5792
     0.7859   0.8157   0.9056   0.9194   0.9234   1.1600   1.1633   1.1806
     1.2444   1.2538   1.2718   1.2749   1.4749   1.5367   1.5608   1.5883
     1.6447   1.6672   1.7680   1.7742   1.7753   1.8308   1.8589   1.8864
     1.9242   1.9274   1.9797   2.0277   2.0303   2.0521   2.1685   2.2846
     3.0478   3.0531   3.7887   3.9343   3.9393   4.0580   4.1126   6.2530
     6.7639   6.7645   7.6220   7.6473   8.5081   8.5120   8.9900   9.0434
     9.1643   9.5170   9.5262   9.6595   9.6602   9.6832   9.8717   9.9126
     9.9610

          k =-0.5000 0.3960 0.0000 ( 33992 PWs)   bands (ev):

   -35.4981 -35.4312 -22.4866 -22.4702 -22.4693 -22.2229 -16.9510 -16.8890
   -16.8826 -16.8180 -16.5902 -16.5097 -14.6415 -14.6396 -14.4175 -14.3684
   -14.3475 -14.1510 -14.1201 -14.0677 -14.0085 -14.0079 -13.9659 -13.9041
   -13.8282 -13.7438 -13.6736  -8.5351  -8.5341  -8.4978  -8.2971  -8.2964
    -8.2726  -8.1994  -7.9462  -7.9289  -7.9181  -7.9152  -7.6644  -3.8099
    -3.7828  -3.4937  -3.3615  -3.2623  -2.8679  -2.8672  -2.6328  -2.6321
    -2.4709  -2.3883  -2.2271  -2.2267  -2.1275  -2.1031  -2.0302  -1.8322
    -1.7774  -1.6022  -1.1646  -1.1616  -1.1339  -1.0369  -1.0318  -0.9788
    -0.9733  -0.8181  -0.8169  -0.7131  -0.7024  -0.6664  -0.6616  -0.6239
    -0.5109  -0.2891  -0.2887   0.2525   0.3454   0.4643   0.7299   0.8086
     1.0671   1.2101   1.2547   1.3503   1.3527   1.3687   1.3890   1.4572
     1.4748   1.5830   1.6306   1.6332   1.6538   1.7065   1.7732   1.8215
     1.8244   1.9111   1.9182   1.9869   2.0498   2.0662   2.0710   2.1254
     2.1407   2.1701   2.2176   2.2210   2.2865   2.3592   2.4630   2.4631
     2.8626   2.8710   4.2302   4.5784   4.5835   4.6488   4.7068   5.7039
     6.2690   6.2696   7.2279   7.2993   8.8555   8.9472   8.9814   9.0097
     9.3094   9.5063   9.6273   9.6472   9.7431   9.7913   9.8183   9.9173
     9.9738

          k =-0.5000-0.5279 0.0000 ( 34028 PWs)   bands (ev):

   -35.4963 -35.4294 -22.4670 -22.4482 -22.4473 -22.2016 -16.9422 -16.9332
   -16.8802 -16.8684 -16.5567 -16.4763 -14.5440 -14.5438 -14.3681 -14.3346
   -14.2112 -14.1964 -14.1534 -14.0243 -13.9879 -13.9841 -13.9216 -13.9178
   -13.8637 -13.7102 -13.6583  -8.6811  -8.6802  -8.6608  -8.4229  -8.4132
    -8.4125  -8.3193  -8.0431  -7.9486  -7.9454  -7.9210  -7.6765  -4.0182
    -3.9904  -3.7006  -3.5736  -3.5100  -3.0922  -3.0915  -2.6653  -2.6645
    -2.4978  -2.4114  -2.2252  -2.2172  -2.2167  -2.1970  -2.0303  -1.9066
    -1.8514  -1.6349  -1.2800  -1.2767  -1.1932  -1.1014  -1.0957  -0.9525
    -0.9471  -0.9132  -0.9127  -0.8133  -0.7696  -0.7334  -0.6892  -0.6443
    -0.4668  -0.2604  -0.2599   0.2885   0.3842   0.4771   0.7896   0.9222
     1.1588   1.3721   1.4162   1.4261   1.4345   1.4400   1.4595   1.4763
     1.5023   1.7012   1.7252   1.7590   1.8033   1.8304   1.9094   1.9575
     1.9731   1.9754   2.0570   2.0828   2.1228   2.1498   2.1963   2.2058
     2.2710   2.3083   2.4101   2.4120   2.4704   2.4997   2.6060   2.6186
     2.6342   2.6436   4.3236   4.7786   4.7909   4.8505   4.9052   5.4711
     6.0421   6.0424   7.0954   7.2028   8.6944   8.9313   9.0164   9.1077
     9.1202   9.1676   9.4782   9.6373   9.7086   9.7375   9.9882  10.0645
    10.2365

     the Fermi energy is     2.6372 ev

!    total energy              =   -1842.89682698 Ry
     Harris-Foulkes estimate   =   -1842.89682701 Ry
     estimated scf accuracy    <          6.9E-09 Ry

     The total energy is the sum of the following terms:

     one-electron contribution =  -30464.03689942 Ry
     hartree contribution      =   15385.83239186 Ry
     xc contribution           =    -621.73831802 Ry
     ewald contribution        =   13857.05403615 Ry
     smearing contrib. (-TS)   =      -0.00803755 Ry

     convergence has been achieved in  33 iterations

     negative rho (up, down):  1.509E-03 0.000E+00

     Forces acting on atoms (cartesian axes, Ry/au):

     atom    1 type  4   force =     0.00000000    0.00000000   -0.00016172
     atom    2 type  3   force =     0.00000000    0.00000000    0.00038284
     atom    3 type  4   force =     0.00000000    0.00000000   -0.00076076
     atom    4 type  1   force =     0.00000000    0.00000000   -0.00026720
     atom    5 type  3   force =     0.00000000    0.00000000    0.00053979
     atom    6 type  4   force =     0.00000000    0.00000000   -0.00002388
     atom    7 type  4   force =     0.00000000    0.00000000    0.00029250
     atom    8 type  2   force =     0.00000000    0.00000000   -0.00058880
     atom    9 type  4   force =     0.00000000    0.00000000    0.00027616
     atom   10 type  4   force =     0.00000000    0.00000000    0.00021188
     atom   11 type  3   force =     0.00000000    0.00000000   -0.00002015
     atom   12 type  1   force =     0.00000000    0.00000000   -0.00013809
     atom   13 type  4   force =     0.00000000    0.00000000    0.00261204
     atom   14 type  4   force =     0.00000000    0.00000000    0.00325763
     atom   15 type  3   force =     0.00000000    0.00000000   -0.00129717
     atom   16 type  4   force =     0.00000000    0.00000000    0.00325916
     atom   17 type  1   force =     0.00000000    0.00000000    0.01583237
     atom   18 type  3   force =     0.00000000    0.00000000   -0.00332014
     atom   19 type  4   force =     0.00000000    0.00000000   -0.00787568
     atom   20 type  4   force =     0.00000000    0.00000000   -0.00559778
     atom   21 type  2   force =     0.00000000    0.00000000   -0.00831275
     atom   22 type  4   force =     0.00000000    0.00000000    0.00017501
     atom   23 type  4   force =     0.00000000    0.00000000    0.00086388
     atom   24 type  3   force =     0.00000000    0.00000000   -0.00033131
     atom   25 type  1   force =     0.00000000    0.00000000    0.00025947
     atom   26 type  4   force =     0.00000000    0.00000000    0.00090924
     atom   27 type  3   force =     0.00000000    0.00000000   -0.00037090
     atom   28 type  4   force =     0.00000000    0.00000000    0.00019437

     Total force =     0.021390     Total SCF correction =     0.000390


     Computing stress (Cartesian axis) and pressure


     negative rho (up, down):  1.509E-03 0.000E+00
          total   stress  (Ry/bohr**3)                   (kbar)     P=       -3.59
  -0.00002403   0.00000000   0.00000000           -3.53        0.00        0.00
   0.00000000  -0.00001687   0.00000000            0.00       -2.48        0.00
   0.00000000   0.00000000  -0.00003234            0.00        0.00       -4.76

 
     init_run     :      9.18s CPU      9.47s WALL (       1 calls)
     electrons    :    618.42s CPU    637.05s WALL (       1 calls)
     forces       :      3.59s CPU      3.74s WALL (       1 calls)
     stress       :     27.60s CPU     28.06s WALL (       1 calls)

     Called by init_run:
     wfcinit      :      6.12s CPU      6.23s WALL (       1 calls)
     potinit      :      0.65s CPU      0.66s WALL (       1 calls)
     hinit0       :      0.97s CPU      0.98s WALL (       1 calls)

     Called by electrons:
     c_bands      :    485.48s CPU    495.23s WALL (      33 calls)
     sum_band     :     87.91s CPU     92.78s WALL (      33 calls)
     v_of_rho     :      2.78s CPU      2.81s WALL (      34 calls)
     newd         :     25.83s CPU     29.73s WALL (      34 calls)
     mix_rho      :     17.07s CPU     17.23s WALL (      33 calls)

     Called by c_bands:
     init_us_2    :      3.16s CPU      3.19s WALL (    1725 calls)
     cegterg      :    460.44s CPU    469.64s WALL (     825 calls)

     Called by sum_band:
     sum_band:bec :      0.22s CPU      0.22s WALL (     825 calls)
     addusdens    :     20.38s CPU     24.50s WALL (      33 calls)

     Called by *egterg:
     h_psi        :    218.31s CPU    224.67s WALL (    4093 calls)
     s_psi        :     19.47s CPU     19.68s WALL (    4093 calls)
     g_psi        :      0.61s CPU      0.61s WALL (    3243 calls)
     cdiaghg      :    122.99s CPU    123.47s WALL (    4068 calls)

     Called by h_psi:
     h_psi:calbec :     27.61s CPU     28.64s WALL (    4093 calls)
     vloc_psi     :    169.56s CPU    172.08s WALL (    4093 calls)
     add_vuspsi   :     20.33s CPU     21.87s WALL (    4093 calls)

     General routines
     calbec       :     50.87s CPU     51.97s WALL (    5043 calls)
     fft          :      2.49s CPU      2.50s WALL (     465 calls)
     ffts         :      9.11s CPU      9.19s WALL (   14175 calls)
     fftw         :    195.16s CPU    198.07s WALL (  591509 calls)
     interpolate  :      0.19s CPU      0.19s WALL (      34 calls)
 
     Parallel routines
     fft_scatt_xy :     22.17s CPU     22.46s WALL (  606149 calls)
     fft_scatt_yz :    132.70s CPU    134.61s WALL (  606149 calls)
 
     PWSCF        :  10m59.57s CPU  11m19.16s WALL

 
   This run was terminated on:  23:18:18  21May2021            

=------------------------------------------------------------------------------=
   JOB DONE.
=------------------------------------------------------------------------------=
[1621653498.813690] [holy7c04404:120448:0]          mpool.c:43   UCX  WARN  object 0x2d0fa40 was not returned to mpool ucp_requests
[1621653498.813710] [holy7c04404:120448:0]          mpool.c:43   UCX  WARN  object 0x2d0ff80 was not returned to mpool ucp_requests
[1621653498.816857] [holy7c04307:189627:0]          mpool.c:43   UCX  WARN  object 0x2f33540 was not returned to mpool ucp_requests
[1621653498.841782] [holy7c04311:4966 :0]          mpool.c:43   UCX  WARN  object 0x42e4200 was not returned to mpool ucp_requests
[1621653498.841805] [holy7c04311:4966 :0]          mpool.c:43   UCX  WARN  object 0x42e43c0 was not returned to mpool ucp_requests
[1621653498.813928] [holy7c04404:120446:0]          mpool.c:43   UCX  WARN  object 0x46e7100 was not returned to mpool ucp_requests
[1621653498.813944] [holy7c04404:120446:0]          mpool.c:43   UCX  WARN  object 0x46e72c0 was not returned to mpool ucp_requests
[1621653498.820054] [holy7c04404:120447:0]          mpool.c:43   UCX  WARN  object 0x3d4ca00 was not returned to mpool ucp_requests
[1621653498.821946] [holy7c04307:189628:0]          mpool.c:43   UCX  WARN  object 0x4086180 was not returned to mpool ucp_requests
