
     Program PWSCF v.6.5 starts on 21May2021 at 21:22:35 

     This program is part of the open-source Quantum ESPRESSO suite
     for quantum simulation of materials; please cite
         "P. Giannozzi et al., J. Phys.:Condens. Matter 21 395502 (2009);
         "P. Giannozzi et al., J. Phys.:Condens. Matter 29 465901 (2017);
          URL http://www.quantum-espresso.org", 
     in publications or presentations arising from this work. More details at
     http://www.quantum-espresso.org/quote

     Parallel version (MPI), running on    20 processors

     MPI processes distributed on     2 nodes
     R & G space division:  proc/nbgrp/npool/nimage =      20
     Reading input from CBCO_CuO_cleave_3.0_sep.pwi
Warning: card &IONS ignored
Warning: card     ION_DYNAMICS = 'BFGS' ignored
Warning: card / ignored
Warning: card &CELL ignored
Warning: card     CELL_DYNAMICS = 'BFGS' ignored
Warning: card     PRESS_CONV_THR = 5 ignored
Warning: card / ignored

     Current dimensions of program PWSCF are:
     Max number of different atomic species (ntypx) = 10
     Max number of k-points (npk) =  40000
     Max angular momentum in pseudopotentials (lmaxx) =  3

     Subspace diagonalization in iterative solution of the eigenvalue problem:
     one sub-group per band group will be used
     scalapack distributed-memory algorithm (size of sub-group:  4*  4 procs)

     Message from routine setup:
     using ibrav=0 with symmetry is DISCOURAGED, use correct ibrav instead
 
     Parallelization info
     --------------------
     sticks:   dense  smooth     PW     G-vecs:    dense   smooth      PW
     Min         149      50     14                74989    14436    2256
     Max         150      51     15                75028    14461    2303
     Sum        2991    1007    289              1500193   288917   45419
 


     bravais-lattice index     =            0
     lattice parameter (alat)  =       7.4270  a.u.
     unit-cell volume          =    4598.4779 (a.u.)^3
     number of atoms/cell      =           28
     number of atomic types    =            4
     number of electrons       =       227.00
     number of Kohn-Sham states=          137
     kinetic-energy cutoff     =      60.0000  Ry
     charge density cutoff     =     720.0000  Ry
     convergence threshold     =      1.0E-08
     mixing beta               =       0.5000
     number of iterations used =           10  local-TF  mixing
     Exchange-correlation= SLA PW PBE PBE
                           (   1   4   3   4   0   0   0)

     celldm(1)=   7.427040  celldm(2)=   0.000000  celldm(3)=   0.000000
     celldm(4)=   0.000000  celldm(5)=   0.000000  celldm(6)=   0.000000

     crystal axes: (cart. coord. in units of alat)
               a(1) = (   1.000000   0.000000   0.000000 )  
               a(2) = (   0.000000   0.947081   0.000000 )  
               a(3) = (   0.000000   0.000000  11.851673 )  

     reciprocal axes: (cart. coord. in units 2 pi/alat)
               b(1) = (  1.000000  0.000000  0.000000 )  
               b(2) = (  0.000000  1.055876  0.000000 )  
               b(3) = (  0.000000  0.000000  0.084376 )  


     PseudoPot. # 1 for Ba read from file:
     ./pseudo/Ba.pbe-nsp-van.UPF
     MD5 check sum: 2b9c31dd849566dd297d80989662b7a0
     Pseudo is Ultrasoft + core correction, Zval = 10.0
     Generated by new atomic code, or converted to UPF format
     Using radial grid of  907 points,  6 beta functions with: 
                l(1) =   0
                l(2) =   0
                l(3) =   1
                l(4) =   1
                l(5) =   2
                l(6) =   2
     Q(r) pseudized with  6 coefficients,  rinner =    1.200   1.200   1.200
                                                       1.200   1.200

     PseudoPot. # 2 for Ca read from file:
     ./pseudo/Ca.pbe-nsp-van.UPF
     MD5 check sum: 6471098428ff4fa451746d08035ff179
     Pseudo is Ultrasoft + core correction, Zval = 10.0
     Generated by new atomic code, or converted to UPF format
     Using radial grid of  845 points,  6 beta functions with: 
                l(1) =   0
                l(2) =   0
                l(3) =   1
                l(4) =   1
                l(5) =   2
                l(6) =   2
     Q(r) pseudized with  6 coefficients,  rinner =    1.200   1.200   1.200
                                                       1.200   1.200

     PseudoPot. # 3 for Cu read from file:
     ./pseudo/Cu.pbe-n-van_ak.UPF
     MD5 check sum: 34e3282627ffb533726feb647e090d62
     Pseudo is Ultrasoft + core correction, Zval = 11.0
     Generated by new atomic code, or converted to UPF format
     Using radial grid of  867 points,  6 beta functions with: 
                l(1) =   0
                l(2) =   0
                l(3) =   1
                l(4) =   1
                l(5) =   2
                l(6) =   2
     Q(r) pseudized with  8 coefficients,  rinner =    1.400   1.400   1.400
                                                       1.400   1.400

     PseudoPot. # 4 for O  read from file:
     ./pseudo/O.pbe-van_ak.UPF
     MD5 check sum: 783ce7fe4c79b6a4916957118fed0856
     Pseudo is Ultrasoft, Zval =  6.0
     Generated by new atomic code, or converted to UPF format
     Using radial grid of  737 points,  4 beta functions with: 
                l(1) =   0
                l(2) =   0
                l(3) =   1
                l(4) =   1
     Q(r) pseudized with  8 coefficients,  rinner =    0.800   0.800   0.800


     atomic species   valence    mass     pseudopotential
        Ba            10.00   137.32700     Ba( 1.00)
        Ca            10.00    40.07800     Ca( 1.00)
        Cu            11.00    63.54600     Cu( 1.00)
        O              6.00    15.99900     O ( 1.00)

      4 Sym. Ops. (no inversion) found



   Cartesian axes

     site n.     atom                  positions (alat units)
         1           O   tau(   1) = (   0.0000000   0.4735409  -0.0469745  )
         2           Cu  tau(   2) = (   0.0000000   0.0000000   0.0264565  )
         3           O   tau(   3) = (   0.0000000   0.0000000   0.5030914  )
         4           Ba  tau(   4) = (   0.5000000   0.4735409   0.5690292  )
         5           Cu  tau(   5) = (   0.0000000   0.0000000   1.0374254  )
         6           O   tau(   6) = (   0.5000000   0.0000000   1.0768099  )
         7           O   tau(   7) = (   0.0000000   0.4735409   1.1116985  )
         8           Ca  tau(   8) = (   0.5000000   0.4735409   1.4976260  )
         9           O   tau(   9) = (   0.0000000   0.4735409   1.8667529  )
        10           O   tau(  10) = (   0.5000000   0.0000000   1.9044124  )
        11           Cu  tau(  11) = (   0.0000000   0.0000000   1.9512546  )
        12           Ba  tau(  12) = (   0.5000000   0.4735409   2.4295764  )
        13           O   tau(  13) = (   0.0000000   0.0000000   2.5115362  )
        14           O   tau(  14) = (   0.0000000   0.4735409   2.9918528  )
        15           Cu  tau(  15) = (   0.0000000   0.0000000   2.9919088  )
        16           O   tau(  16) = (   0.0000000   0.0000000   4.2355846  )
        17           Ba  tau(  17) = (   0.5000000   0.4735409   4.3175368  )
        18           Cu  tau(  18) = (   0.0000000   0.0000000   4.7958408  )
        19           O   tau(  19) = (   0.5000000   0.0000000   4.8426830  )
        20           O   tau(  20) = (   0.0000000   0.4735409   4.8803373  )
        21           Ca  tau(  21) = (   0.5000000   0.4735409   5.2494744  )
        22           O   tau(  22) = (   0.0000000   0.4735409   5.6353994  )
        23           O   tau(  23) = (   0.5000000   0.0000000   5.6702880  )
        24           Cu  tau(  24) = (   0.0000000   0.0000000   5.7096751  )
        25           Ba  tau(  25) = (   0.5000000   0.4735409   6.1780687  )
        26           O   tau(  26) = (   0.0000000   0.0000000   6.2439963  )
        27           Cu  tau(  27) = (   0.0000000   0.0000000   6.7206363  )
        28           O   tau(  28) = (   0.0000000   0.4735409   6.7940546  )

     number of k points=    25  Gaussian smearing, width (Ry)=  0.0100
                       cart. coord. in units 2pi/alat
        k(    1) = (   0.0000000   0.0000000   0.0000000), wk =   0.0312500
        k(    2) = (   0.0000000   0.1319845   0.0000000), wk =   0.0625000
        k(    3) = (   0.0000000   0.2639689   0.0000000), wk =   0.0625000
        k(    4) = (   0.0000000   0.3959534   0.0000000), wk =   0.0625000
        k(    5) = (   0.0000000  -0.5279378   0.0000000), wk =   0.0312500
        k(    6) = (   0.1250000   0.0000000   0.0000000), wk =   0.0625000
        k(    7) = (   0.1250000   0.1319845   0.0000000), wk =   0.1250000
        k(    8) = (   0.1250000   0.2639689   0.0000000), wk =   0.1250000
        k(    9) = (   0.1250000   0.3959534   0.0000000), wk =   0.1250000
        k(   10) = (   0.1250000  -0.5279378   0.0000000), wk =   0.0625000
        k(   11) = (   0.2500000   0.0000000   0.0000000), wk =   0.0625000
        k(   12) = (   0.2500000   0.1319845   0.0000000), wk =   0.1250000
        k(   13) = (   0.2500000   0.2639689   0.0000000), wk =   0.1250000
        k(   14) = (   0.2500000   0.3959534   0.0000000), wk =   0.1250000
        k(   15) = (   0.2500000  -0.5279378   0.0000000), wk =   0.0625000
        k(   16) = (   0.3750000   0.0000000   0.0000000), wk =   0.0625000
        k(   17) = (   0.3750000   0.1319845   0.0000000), wk =   0.1250000
        k(   18) = (   0.3750000   0.2639689   0.0000000), wk =   0.1250000
        k(   19) = (   0.3750000   0.3959534   0.0000000), wk =   0.1250000
        k(   20) = (   0.3750000  -0.5279378   0.0000000), wk =   0.0625000
        k(   21) = (  -0.5000000   0.0000000   0.0000000), wk =   0.0312500
        k(   22) = (  -0.5000000   0.1319845   0.0000000), wk =   0.0625000
        k(   23) = (  -0.5000000   0.2639689   0.0000000), wk =   0.0625000
        k(   24) = (  -0.5000000   0.3959534   0.0000000), wk =   0.0625000
        k(   25) = (  -0.5000000  -0.5279378   0.0000000), wk =   0.0312500

     Dense  grid:  1500193 G-vectors     FFT dimensions: (  64,  64, 768)

     Smooth grid:   288917 G-vectors     FFT dimensions: (  40,  36, 450)

     Estimated max dynamical RAM per process >     478.58 MB

     Estimated total dynamical RAM >       9.35 GB

     Initial potential from superposition of free atoms

     starting charge  226.84630, renormalised to  227.00000

     negative rho (up, down):  3.442E-03 0.000E+00
     Starting wfcs are  195 randomized atomic wfcs

     total cpu time spent up to now is        9.8 secs

     Self-consistent Calculation

     iteration #  1     ecut=    60.00 Ry     beta= 0.50
     Davidson diagonalization with overlap
     ethr =  1.00E-02,  avg # of iterations =  2.0

     negative rho (up, down):  4.997E-04 0.000E+00

     total cpu time spent up to now is       26.0 secs

     total energy              =   -1840.73501023 Ry
     Harris-Foulkes estimate   =   -1845.36317720 Ry
     estimated scf accuracy    <      19.37648404 Ry

     iteration #  2     ecut=    60.00 Ry     beta= 0.50
     Davidson diagonalization with overlap
     ethr =  8.54E-03,  avg # of iterations =  2.0

     negative rho (up, down):  2.843E-04 0.000E+00

     total cpu time spent up to now is       41.9 secs

     total energy              =   -1842.44961052 Ry
     Harris-Foulkes estimate   =   -1843.35894519 Ry
     estimated scf accuracy    <       7.08983117 Ry

     iteration #  3     ecut=    60.00 Ry     beta= 0.50
     Davidson diagonalization with overlap
     ethr =  3.12E-03,  avg # of iterations =  1.1

     negative rho (up, down):  2.580E-04 0.000E+00

     total cpu time spent up to now is       56.6 secs

     total energy              =   -1842.78327508 Ry
     Harris-Foulkes estimate   =   -1843.03065051 Ry
     estimated scf accuracy    <       7.35460874 Ry

     iteration #  4     ecut=    60.00 Ry     beta= 0.50
     Davidson diagonalization with overlap
     ethr =  3.12E-03,  avg # of iterations =  1.0

     negative rho (up, down):  2.518E-04 0.000E+00

     total cpu time spent up to now is       71.2 secs

     total energy              =   -1842.84151402 Ry
     Harris-Foulkes estimate   =   -1842.91036640 Ry
     estimated scf accuracy    <       2.01844483 Ry

     iteration #  5     ecut=    60.00 Ry     beta= 0.50
     Davidson diagonalization with overlap
     ethr =  8.89E-04,  avg # of iterations =  1.1

     negative rho (up, down):  2.441E-04 0.000E+00

     total cpu time spent up to now is       86.2 secs

     total energy              =   -1842.81209476 Ry
     Harris-Foulkes estimate   =   -1842.88040436 Ry
     estimated scf accuracy    <       1.19641966 Ry

     iteration #  6     ecut=    60.00 Ry     beta= 0.50
     Davidson diagonalization with overlap
     ethr =  5.27E-04,  avg # of iterations =  2.2

     negative rho (up, down):  2.351E-04 0.000E+00

     total cpu time spent up to now is      102.0 secs

     total energy              =   -1842.79288286 Ry
     Harris-Foulkes estimate   =   -1842.83954858 Ry
     estimated scf accuracy    <       0.76292726 Ry

     iteration #  7     ecut=    60.00 Ry     beta= 0.50
     Davidson diagonalization with overlap
     ethr =  3.36E-04,  avg # of iterations =  4.9

     negative rho (up, down):  2.335E-04 0.000E+00

     total cpu time spent up to now is      120.7 secs

     total energy              =   -1842.79519813 Ry
     Harris-Foulkes estimate   =   -1842.80787191 Ry
     estimated scf accuracy    <       0.16148660 Ry

     iteration #  8     ecut=    60.00 Ry     beta= 0.50
     Davidson diagonalization with overlap
     ethr =  7.11E-05,  avg # of iterations =  7.3

     negative rho (up, down):  2.328E-04 0.000E+00

     total cpu time spent up to now is      143.0 secs

     total energy              =   -1842.79259726 Ry
     Harris-Foulkes estimate   =   -1842.80463856 Ry
     estimated scf accuracy    <       0.21605470 Ry

     iteration #  9     ecut=    60.00 Ry     beta= 0.50
     Davidson diagonalization with overlap
     ethr =  7.11E-05,  avg # of iterations =  1.5

     negative rho (up, down):  2.328E-04 0.000E+00

     total cpu time spent up to now is      158.3 secs

     total energy              =   -1842.79592136 Ry
     Harris-Foulkes estimate   =   -1842.79999981 Ry
     estimated scf accuracy    <       0.16349462 Ry

     iteration # 10     ecut=    60.00 Ry     beta= 0.50
     Davidson diagonalization with overlap
     ethr =  7.11E-05,  avg # of iterations =  1.1

     negative rho (up, down):  2.346E-04 0.000E+00

     total cpu time spent up to now is      172.9 secs

     total energy              =   -1842.79378264 Ry
     Harris-Foulkes estimate   =   -1842.79744364 Ry
     estimated scf accuracy    <       0.05702470 Ry

     iteration # 11     ecut=    60.00 Ry     beta= 0.50
     Davidson diagonalization with overlap
     ethr =  2.51E-05,  avg # of iterations =  6.3

     negative rho (up, down):  2.368E-04 0.000E+00

     total cpu time spent up to now is      193.2 secs

     total energy              =   -1842.79177398 Ry
     Harris-Foulkes estimate   =   -1842.79489714 Ry
     estimated scf accuracy    <       0.07582089 Ry

     iteration # 12     ecut=    60.00 Ry     beta= 0.50
     Davidson diagonalization with overlap
     ethr =  2.51E-05,  avg # of iterations =  4.7

     negative rho (up, down):  2.368E-04 0.000E+00

     total cpu time spent up to now is      211.8 secs

     total energy              =   -1842.79217786 Ry
     Harris-Foulkes estimate   =   -1842.79265436 Ry
     estimated scf accuracy    <       0.06816541 Ry

     iteration # 13     ecut=    60.00 Ry     beta= 0.50
     Davidson diagonalization with overlap
     ethr =  2.51E-05,  avg # of iterations =  1.0

     negative rho (up, down):  2.364E-04 0.000E+00

     total cpu time spent up to now is      226.3 secs

     total energy              =   -1842.79125776 Ry
     Harris-Foulkes estimate   =   -1842.79233689 Ry
     estimated scf accuracy    <       0.07209520 Ry

     iteration # 14     ecut=    60.00 Ry     beta= 0.50
     Davidson diagonalization with overlap
     ethr =  2.51E-05,  avg # of iterations =  1.1

     negative rho (up, down):  2.699E-04 0.000E+00

     total cpu time spent up to now is      240.8 secs

     total energy              =   -1842.79038636 Ry
     Harris-Foulkes estimate   =   -1842.79141893 Ry
     estimated scf accuracy    <       0.07346102 Ry

     iteration # 15     ecut=    60.00 Ry     beta= 0.50
     Davidson diagonalization with overlap
     ethr =  2.51E-05,  avg # of iterations =  2.4

     negative rho (up, down):  4.816E-03 0.000E+00

     total cpu time spent up to now is      256.9 secs

     total energy              =   -1842.78912798 Ry
     Harris-Foulkes estimate   =   -1842.79054018 Ry
     estimated scf accuracy    <       0.07483331 Ry

     iteration # 16     ecut=    60.00 Ry     beta= 0.50
     Davidson diagonalization with overlap
     ethr =  2.51E-05,  avg # of iterations =  3.1

     negative rho (up, down):  1.774E-02 0.000E+00

     total cpu time spent up to now is      273.7 secs

     total energy              =   -1842.78651563 Ry
     Harris-Foulkes estimate   =   -1842.78924921 Ry
     estimated scf accuracy    <       0.05967226 Ry

     iteration # 17     ecut=    60.00 Ry     beta= 0.50
     Davidson diagonalization with overlap
     ethr =  2.51E-05,  avg # of iterations =  6.7

     negative rho (up, down):  1.999E-02 0.000E+00

     total cpu time spent up to now is      295.0 secs

     total energy              =   -1842.78671369 Ry
     Harris-Foulkes estimate   =   -1842.78726891 Ry
     estimated scf accuracy    <       0.00816724 Ry

     iteration # 18     ecut=    60.00 Ry     beta= 0.50
     Davidson diagonalization with overlap
     c_bands:  1 eigenvalues not converged
     ethr =  3.60E-06,  avg # of iterations = 11.1

     negative rho (up, down):  2.052E-02 0.000E+00

     total cpu time spent up to now is      320.9 secs

     total energy              =   -1842.78659301 Ry
     Harris-Foulkes estimate   =   -1842.78694423 Ry
     estimated scf accuracy    <       0.01061484 Ry

     iteration # 19     ecut=    60.00 Ry     beta= 0.50
     Davidson diagonalization with overlap
     c_bands:  1 eigenvalues not converged
     ethr =  3.60E-06,  avg # of iterations =  7.2

     negative rho (up, down):  7.992E-03 0.000E+00

     total cpu time spent up to now is      342.5 secs

     total energy              =   -1842.78600290 Ry
     Harris-Foulkes estimate   =   -1842.78664772 Ry
     estimated scf accuracy    <       0.00348214 Ry

     iteration # 20     ecut=    60.00 Ry     beta= 0.50
     Davidson diagonalization with overlap
     c_bands:  1 eigenvalues not converged
     ethr =  1.53E-06,  avg # of iterations =  8.0

     negative rho (up, down):  2.346E-03 0.000E+00

     total cpu time spent up to now is      365.4 secs

     total energy              =   -1842.78603057 Ry
     Harris-Foulkes estimate   =   -1842.78609929 Ry
     estimated scf accuracy    <       0.00201531 Ry

     iteration # 21     ecut=    60.00 Ry     beta= 0.50
     Davidson diagonalization with overlap
     c_bands:  2 eigenvalues not converged
     c_bands:  1 eigenvalues not converged
     c_bands:  1 eigenvalues not converged
     ethr =  8.88E-07,  avg # of iterations =  9.6

     negative rho (up, down):  3.342E-03 0.000E+00

     total cpu time spent up to now is      390.5 secs

     total energy              =   -1842.78594500 Ry
     Harris-Foulkes estimate   =   -1842.78610154 Ry
     estimated scf accuracy    <       0.00219127 Ry

     iteration # 22     ecut=    60.00 Ry     beta= 0.50
     Davidson diagonalization with overlap
     ethr =  8.88E-07,  avg # of iterations =  6.6

     negative rho (up, down):  2.281E-03 0.000E+00

     total cpu time spent up to now is      411.6 secs

     total energy              =   -1842.78599566 Ry
     Harris-Foulkes estimate   =   -1842.78598491 Ry
     estimated scf accuracy    <       0.00061611 Ry

     iteration # 23     ecut=    60.00 Ry     beta= 0.50
     Davidson diagonalization with overlap
     ethr =  2.71E-07,  avg # of iterations =  2.3

     negative rho (up, down):  1.284E-03 0.000E+00

     total cpu time spent up to now is      427.8 secs

     total energy              =   -1842.78602517 Ry
     Harris-Foulkes estimate   =   -1842.78600842 Ry
     estimated scf accuracy    <       0.00015221 Ry

     iteration # 24     ecut=    60.00 Ry     beta= 0.50
     Davidson diagonalization with overlap
     c_bands:  1 eigenvalues not converged
     ethr =  6.71E-08,  avg # of iterations =  4.8

     negative rho (up, down):  9.649E-04 0.000E+00

     total cpu time spent up to now is      446.6 secs

     total energy              =   -1842.78604751 Ry
     Harris-Foulkes estimate   =   -1842.78603153 Ry
     estimated scf accuracy    <       0.00006704 Ry

     iteration # 25     ecut=    60.00 Ry     beta= 0.50
     Davidson diagonalization with overlap
     ethr =  2.95E-08,  avg # of iterations =  4.6

     negative rho (up, down):  8.504E-04 0.000E+00

     total cpu time spent up to now is      466.4 secs

     total energy              =   -1842.78605012 Ry
     Harris-Foulkes estimate   =   -1842.78605033 Ry
     estimated scf accuracy    <       0.00007361 Ry

     iteration # 26     ecut=    60.00 Ry     beta= 0.50
     Davidson diagonalization with overlap
     ethr =  2.95E-08,  avg # of iterations =  1.2

     negative rho (up, down):  1.102E-03 0.000E+00

     total cpu time spent up to now is      481.8 secs

     total energy              =   -1842.78605051 Ry
     Harris-Foulkes estimate   =   -1842.78605114 Ry
     estimated scf accuracy    <       0.00001604 Ry

     iteration # 27     ecut=    60.00 Ry     beta= 0.50
     Davidson diagonalization with overlap
     ethr =  7.07E-09,  avg # of iterations =  1.5

     negative rho (up, down):  1.109E-03 0.000E+00

     total cpu time spent up to now is      497.0 secs

     total energy              =   -1842.78605130 Ry
     Harris-Foulkes estimate   =   -1842.78605109 Ry
     estimated scf accuracy    <       0.00000800 Ry

     iteration # 28     ecut=    60.00 Ry     beta= 0.50
     Davidson diagonalization with overlap
     ethr =  3.53E-09,  avg # of iterations =  1.0

     negative rho (up, down):  1.292E-03 0.000E+00

     total cpu time spent up to now is      511.8 secs

     total energy              =   -1842.78605110 Ry
     Harris-Foulkes estimate   =   -1842.78605144 Ry
     estimated scf accuracy    <       0.00000351 Ry

     iteration # 29     ecut=    60.00 Ry     beta= 0.50
     Davidson diagonalization with overlap
     ethr =  1.55E-09,  avg # of iterations =  1.5

     negative rho (up, down):  1.450E-03 0.000E+00

     total cpu time spent up to now is      527.0 secs

     total energy              =   -1842.78605084 Ry
     Harris-Foulkes estimate   =   -1842.78605122 Ry
     estimated scf accuracy    <       0.00000468 Ry

     iteration # 30     ecut=    60.00 Ry     beta= 0.50
     Davidson diagonalization with overlap
     ethr =  1.55E-09,  avg # of iterations =  1.0

     negative rho (up, down):  1.446E-03 0.000E+00

     total cpu time spent up to now is      541.9 secs

     total energy              =   -1842.78605088 Ry
     Harris-Foulkes estimate   =   -1842.78605091 Ry
     estimated scf accuracy    <       0.00000084 Ry

     iteration # 31     ecut=    60.00 Ry     beta= 0.50
     Davidson diagonalization with overlap
     ethr =  3.72E-10,  avg # of iterations =  2.6

     negative rho (up, down):  1.471E-03 0.000E+00

     total cpu time spent up to now is      558.8 secs

     total energy              =   -1842.78605084 Ry
     Harris-Foulkes estimate   =   -1842.78605092 Ry
     estimated scf accuracy    <       0.00000044 Ry

     iteration # 32     ecut=    60.00 Ry     beta= 0.50
     Davidson diagonalization with overlap
     ethr =  1.93E-10,  avg # of iterations =  1.3

     negative rho (up, down):  1.481E-03 0.000E+00

     total cpu time spent up to now is      573.5 secs

     total energy              =   -1842.78605084 Ry
     Harris-Foulkes estimate   =   -1842.78605086 Ry
     estimated scf accuracy    <       0.00000023 Ry

     iteration # 33     ecut=    60.00 Ry     beta= 0.50
     Davidson diagonalization with overlap
     ethr =  9.95E-11,  avg # of iterations =  1.6

     negative rho (up, down):  1.490E-03 0.000E+00

     total cpu time spent up to now is      588.6 secs

     total energy              =   -1842.78605083 Ry
     Harris-Foulkes estimate   =   -1842.78605085 Ry
     estimated scf accuracy    <       0.00000002 Ry

     iteration # 34     ecut=    60.00 Ry     beta= 0.50
     Davidson diagonalization with overlap
     ethr =  1.05E-11,  avg # of iterations =  3.8

     negative rho (up, down):  1.485E-03 0.000E+00

     total cpu time spent up to now is      607.5 secs

     total energy              =   -1842.78605084 Ry
     Harris-Foulkes estimate   =   -1842.78605083 Ry
     estimated scf accuracy    <       0.00000001 Ry

     iteration # 35     ecut=    60.00 Ry     beta= 0.50
     Davidson diagonalization with overlap
     ethr =  4.63E-12,  avg # of iterations =  1.0

     negative rho (up, down):  1.491E-03 0.000E+00

     total cpu time spent up to now is      621.3 secs

     total energy              =   -1842.78605083 Ry
     Harris-Foulkes estimate   =   -1842.78605084 Ry
     estimated scf accuracy    <       0.00000001 Ry

     iteration # 36     ecut=    60.00 Ry     beta= 0.50
     Davidson diagonalization with overlap
     ethr =  4.63E-12,  avg # of iterations =  1.0

     negative rho (up, down):  1.493E-03 0.000E+00

     total cpu time spent up to now is      634.7 secs

     End of self-consistent calculation

          k = 0.0000 0.0000 0.0000 ( 36187 PWs)   bands (ev):

   -36.0128 -35.9884 -23.1701 -23.1667 -23.0213 -22.9964 -17.5135 -17.4945
   -17.0644 -17.0542 -17.0415 -17.0276 -15.7105 -15.7014 -15.0558 -15.0509
   -15.0420 -14.9852 -14.9744 -14.5570 -14.5544 -14.3822 -14.3697 -14.2868
   -14.2466 -14.2310 -13.0693  -8.3026  -8.3001  -8.2635  -8.2604  -8.2344
    -8.1585  -8.0830  -8.0708  -8.0674  -7.9674  -7.9100  -7.7672  -2.7039
    -2.7037  -2.3818  -2.2326  -2.2288  -2.2049  -2.2006  -2.0755  -2.0589
    -1.9628  -1.9430  -1.9101  -1.9002  -1.5945  -1.5905  -1.2509  -0.8335
    -0.8314  -0.7549  -0.7529  -0.7488  -0.7252  -0.7028  -0.6829  -0.6662
    -0.6658  -0.6469  -0.6415  -0.6401  -0.6378  -0.5802  -0.5659  -0.4148
    -0.4111  -0.3880  -0.3156  -0.2960  -0.2866  -0.2798  -0.2747  -0.2719
    -0.2316  -0.2179  -0.2112  -0.1973  -0.1742  -0.1466  -0.0925  -0.0441
     0.1134   0.4006   0.4888   0.5059   0.5090   0.5493   0.5875   0.7854
     0.7895   0.9462   0.9694   0.9804   0.9966   1.0777   1.1006   1.1217
     1.1301   1.1478   1.1528   1.4128   1.4419   1.4896   1.6490   1.6642
     1.7015   1.8406   1.9627   1.9685   2.0686   2.1575   2.1694   4.6052
     4.8430   4.8503   5.7318   5.8238   6.3374   6.3752   6.4214   6.6184
     7.0191   7.5938   7.7318   7.8097   8.0010   8.1518   8.2016   8.2944
     8.7185

          k = 0.0000 0.1320 0.0000 ( 36125 PWs)   bands (ev):

   -36.0110 -35.9866 -23.1435 -23.1400 -22.9956 -22.9730 -17.4775 -17.4585
   -17.1264 -17.1000 -17.0621 -17.0391 -15.6214 -15.6127 -15.0611 -15.0572
   -15.0045 -14.9575 -14.9446 -14.5672 -14.5637 -14.3865 -14.3705 -14.3368
   -14.2764 -14.2751 -13.1295  -8.3020  -8.2989  -8.2353  -8.2157  -8.2126
    -8.1569  -8.1124  -8.1092  -8.0372  -7.9599  -7.9277  -7.7976  -2.7652
    -2.7635  -2.6024  -2.5855  -2.5041  -2.4871  -2.3589  -2.0533  -2.0383
    -2.0194  -2.0152  -1.9459  -1.9271  -1.8347  -1.7352  -1.7313  -1.0907
    -1.0169  -0.9968  -0.9315  -0.9289  -0.8430  -0.8384  -0.7917  -0.7899
    -0.6993  -0.6454  -0.6046  -0.5724  -0.5557  -0.5357  -0.5220  -0.5191
    -0.4960  -0.3931  -0.3893  -0.3866  -0.3800  -0.3104  -0.2928  -0.2727
    -0.2514  -0.2506  -0.2239  -0.1565  -0.1021  -0.0846  -0.0478  -0.0146
     0.3761   0.5670   0.6057   0.6794   0.7028   0.7056   0.7502   0.7511
     0.7764   0.7906   0.7906   1.0348   1.0605   1.0815   1.0844   1.1824
     1.1905   1.2113   1.2940   1.3814   1.4269   1.4698   1.5827   1.6225
     1.6590   1.8319   1.8445   2.1416   2.2082   2.4463   2.4491   4.9215
     5.2183   5.2209   6.0522   6.1150   6.6060   6.6835   6.7046   6.9332
     7.2482   7.7696   7.9197   8.0277   8.1861   8.3409   8.4265   8.5481
     8.8200

          k = 0.0000 0.2640 0.0000 ( 36041 PWs)   bands (ev):

   -36.0066 -35.9822 -23.0776 -23.0741 -22.9321 -22.9155 -17.3860 -17.3668
   -17.2802 -17.2541 -17.0564 -17.0335 -15.4173 -15.4097 -15.1162 -15.1089
   -14.9506 -14.8733 -14.8697 -14.5564 -14.5500 -14.4521 -14.4139 -14.4076
   -14.3628 -14.3220 -13.2679  -8.3013  -8.2977  -8.2357  -8.2035  -8.2000
    -8.1535  -8.0953  -8.0922  -8.0669  -7.9221  -7.8614  -7.8288  -3.2239
    -3.2158  -3.0774  -3.0601  -2.8244  -2.8037  -2.8014  -2.6553  -2.6530
    -2.3623  -1.9945  -1.9837  -1.9111  -1.8906  -1.8800  -1.8750  -1.6372
    -1.4112  -1.3189  -1.1845  -1.1813  -1.0589  -1.0466  -0.9879  -0.9667
    -0.9325  -0.9233  -0.9090  -0.8746  -0.8708  -0.8692  -0.7850  -0.7532
    -0.5704  -0.3646  -0.3607  -0.3324  -0.3029  -0.2848  -0.2554  -0.2446
    -0.1691  -0.1331  -0.0270   0.0052   0.2108   0.2127   0.3132   0.3316
     0.5578   0.5740   0.5787   0.7414   0.7503   0.7883   0.7904   0.8328
     0.8453   0.8975   0.9056   0.9415   1.0280   1.1743   1.2255   1.2767
     1.3082   1.3998   1.4861   1.4886   1.5498   1.5750   1.5882   1.5981
     1.6018   1.6893   1.7744   2.2877   2.5771   2.6751   2.6961   5.6790
     6.1119   6.1145   6.8687   6.8922   7.2042   7.5091   7.5145   7.7959
     7.9614   8.2723   8.3908   8.4505   8.5040   8.6381   8.8163   8.8891
     8.9093

          k = 0.0000 0.3960 0.0000 ( 35976 PWs)   bands (ev):

   -36.0022 -35.9778 -23.0094 -23.0059 -22.8665 -22.8563 -17.4169 -17.3906
   -17.2842 -17.2651 -17.0508 -17.0278 -15.3138 -15.3121 -15.1121 -15.0841
   -14.9725 -14.8068 -14.7511 -14.5141 -14.5100 -14.4967 -14.4921 -14.4683
   -14.4297 -14.3734 -13.3945  -8.3012  -8.2977  -8.2816  -8.2782  -8.2343
    -8.1769  -8.1338  -7.9669  -7.9637  -7.9141  -7.7999  -7.7251  -3.6816
    -3.6719  -3.5995  -3.4990  -3.4770  -3.3710  -3.3674  -2.7460  -2.7455
    -2.3925  -2.2229  -2.1973  -2.0189  -1.9244  -1.9185  -1.7930  -1.7838
    -1.6517  -1.5334  -1.4551  -1.4515  -1.3014  -1.2739  -1.2595  -1.2074
    -1.1870  -1.1666  -1.1345  -1.1188  -1.1047  -1.0710  -0.8210  -0.7738
    -0.5478  -0.4208  -0.3475  -0.3435  -0.2999  -0.2522  -0.2444  -0.2288
    -0.2008  -0.1768   0.0885   0.1206   0.3701   0.3818   0.5401   0.5433
     0.5629   0.5862   0.6439   0.6689   0.6867   0.7275   0.7602   0.7621
     0.8375   1.0000   1.1639   1.2280   1.2294   1.3137   1.3209   1.3240
     1.3322   1.4142   1.4961   1.5714   1.5725   1.6731   1.7248   1.8311
     1.9926   1.9961   2.0155   2.2535   2.5160   2.5810   2.7009   6.5723
     7.0577   7.0607   7.7110   7.8320   7.9040   8.2989   8.3028   8.3937
     8.6357   8.6597   8.6809   8.7078   8.7534   8.9007   9.0189   9.0628
     9.1409

          k = 0.0000-0.5279 0.0000 ( 36018 PWs)   bands (ev):

   -36.0003 -35.9759 -22.9805 -22.9770 -22.8387 -22.8313 -17.4690 -17.4426
   -17.2395 -17.2204 -17.0484 -17.0255 -15.3552 -15.3518 -15.0497 -14.9777
   -14.9744 -14.7867 -14.6915 -14.5539 -14.5509 -14.4990 -14.4565 -14.4482
   -14.4454 -14.4366 -13.4431  -8.3112  -8.3079  -8.3009  -8.2975  -8.2331
    -8.2077  -8.1370  -7.9334  -7.9110  -7.9078  -7.7468  -7.6805  -3.8774
    -3.8489  -3.8423  -3.6681  -3.6570  -3.6002  -3.5967  -2.7621  -2.7617
    -2.4025  -2.3470  -2.3245  -2.1548  -1.8893  -1.8860  -1.7496  -1.7086
    -1.7074  -1.6243  -1.5819  -1.5763  -1.4288  -1.3946  -1.3785  -1.3180
    -1.2763  -1.2463  -1.2118  -1.2088  -1.1835  -1.1560  -0.8042  -0.7392
    -0.5138  -0.4703  -0.3418  -0.3379  -0.3310  -0.2440  -0.2239  -0.2236
    -0.2067  -0.1583   0.0095   0.0247   0.4135   0.4217   0.4586   0.4692
     0.6135   0.6323   0.6372   0.6922   0.7432   0.7452   0.8103   0.8753
     0.8967   0.9155   1.1192   1.2471   1.3076   1.3235   1.3320   1.4867
     1.5955   1.6009   1.6094   1.6095   1.6176   1.6622   1.6687   2.0680
     2.1487   2.1541   2.1577   2.1936   2.3372   2.4284   2.6043   7.2208
     7.4690   7.4724   7.7736   8.0870   8.4722   8.5151   8.5556   8.5756
     8.5873   8.5972   8.8234   8.8904   8.9386   9.0088   9.0302   9.1674
     9.5476

          k = 0.1250 0.0000 0.0000 ( 36127 PWs)   bands (ev):

   -36.0117 -35.9873 -23.1521 -23.1486 -23.0038 -22.9813 -17.4803 -17.4611
   -17.1441 -17.1225 -17.0528 -17.0262 -15.6076 -15.5974 -15.1008 -15.0972
   -15.0702 -14.9894 -14.9796 -14.5661 -14.5632 -14.3919 -14.3806 -14.3069
   -14.2720 -14.2516 -13.1405  -8.3281  -8.3247  -8.2348  -8.2050  -8.1992
    -8.1983  -8.0383  -8.0350  -8.0156  -7.9171  -7.8790  -7.7409  -2.7472
    -2.7465  -2.4517  -2.2581  -2.2554  -2.2275  -2.2140  -2.2105  -2.2083
    -2.1722  -2.1689  -1.8755  -1.8620  -1.5924  -1.5885  -1.2785  -1.0304
    -1.0246  -0.8933  -0.8868  -0.8456  -0.8385  -0.8227  -0.7266  -0.7152
    -0.7132  -0.6718  -0.6671  -0.6661  -0.6063  -0.5968  -0.5651  -0.5429
    -0.4597  -0.4123  -0.3058  -0.2820  -0.2792  -0.2260  -0.2243  -0.1978
    -0.1866  -0.1819  -0.1653  -0.1530  -0.0985  -0.0798  -0.0267   0.0549
     0.1148   0.4124   0.4215   0.4312   0.5148   0.5823   0.6307   0.7683
     0.7839   0.8252   0.8340   0.9592   0.9861   1.0924   1.0940   1.1036
     1.1621   1.1814   1.4328   1.4931   1.5817   1.5955   1.6163   1.6507
     1.6584   1.8392   1.8873   1.9697   2.0327   2.1933   2.2033   4.7666
     5.0227   5.0254   5.9690   6.0410   6.5289   6.5929   6.6159   6.8535
     7.1648   7.7369   7.8646   7.9572   8.1740   8.3662   8.4248   8.5132
     8.8651

          k = 0.1250 0.1320 0.0000 ( 36104 PWs)   bands (ev):

   -36.0099 -35.9855 -23.1262 -23.1228 -22.9788 -22.9585 -17.4453 -17.4261
   -17.1473 -17.1247 -17.1156 -17.0900 -15.5255 -15.5157 -15.0967 -15.0925
   -15.0307 -14.9574 -14.9481 -14.5674 -14.5639 -14.3925 -14.3813 -14.3499
   -14.3002 -14.2931 -13.1823  -8.3467  -8.3433  -8.2649  -8.2620  -8.2329
    -8.2025  -8.1012  -8.0048  -8.0003  -7.9971  -7.8432  -7.6965  -2.8026
    -2.8001  -2.6110  -2.5779  -2.4914  -2.4645  -2.3815  -2.2368  -2.2331
    -2.1997  -2.1862  -2.0135  -2.0093  -1.8468  -1.7256  -1.7236  -1.2217
    -1.1900  -1.0884  -1.0532  -1.0481  -0.9892  -0.9826  -0.8797  -0.8767
    -0.7980  -0.6694  -0.6544  -0.6067  -0.5839  -0.5660  -0.5595  -0.5158
    -0.4720  -0.4484  -0.4187  -0.3750  -0.3744  -0.2813  -0.2387  -0.2217
    -0.2102  -0.2064  -0.1390  -0.1242  -0.0779  -0.0475   0.1046   0.1449
     0.3955   0.6339   0.6530   0.6657   0.7006   0.7494   0.7569   0.8217
     0.8381   0.8607   0.8659   0.9003   0.9093   0.9303   0.9503   1.2065
     1.2182   1.2196   1.2826   1.2864   1.3354   1.4979   1.6825   1.9491
     1.9688   2.0190   2.0653   2.2077   2.2202   2.4514   2.4553   5.0485
     5.3604   5.3629   6.2414   6.2906   6.7581   6.8920   6.9007   7.1609
     7.3955   7.9104   8.0405   8.1526   8.3299   8.4895   8.6075   8.7185
     8.8756

          k = 0.1250 0.2640 0.0000 ( 36031 PWs)   bands (ev):

   -36.0055 -35.9811 -23.0624 -23.0589 -22.9173 -22.9024 -17.3569 -17.3373
   -17.2769 -17.2509 -17.1269 -17.1049 -15.3435 -15.3354 -15.1087 -15.0986
   -14.9582 -14.8710 -14.8653 -14.5512 -14.5462 -14.4557 -14.4302 -14.4245
   -14.3594 -14.3287 -13.2804  -8.4152  -8.4120  -8.3021  -8.2982  -8.2566
    -8.2328  -8.1577  -8.0990  -7.9912  -7.9879  -7.8408  -7.6935  -3.2489
    -3.2398  -3.0825  -3.0636  -2.8156  -2.8043  -2.8021  -2.6549  -2.6523
    -2.4024  -2.1864  -2.1785  -2.1502  -2.1343  -1.9064  -1.8820  -1.6503
    -1.4238  -1.3760  -1.3613  -1.3351  -1.2948  -1.2932  -1.0724  -1.0687
    -1.0144  -0.9706  -0.9332  -0.8974  -0.8811  -0.8212  -0.7813  -0.7608
    -0.6407  -0.5357  -0.4974  -0.3866  -0.3378  -0.2013  -0.1753  -0.1400
    -0.0356   0.0553   0.0846   0.1185   0.3514   0.3721   0.3942   0.4033
     0.6227   0.6476   0.6624   0.7050   0.7138   0.8133   0.8945   0.8946
     0.9404   0.9418   1.0152   1.0181   1.0954   1.1021   1.1591   1.1714
     1.2460   1.2469   1.3002   1.5530   1.5644   1.5656   1.6432   2.0337
     2.1360   2.1669   2.2302   2.4077   2.5816   2.6863   2.7088   5.7587
     6.1728   6.1754   6.9514   6.9731   7.2610   7.6748   7.6783   7.9950
     8.1215   8.3917   8.4422   8.4901   8.5480   8.6715   8.7443   8.7891
     8.8381

          k = 0.1250 0.3960 0.0000 ( 36022 PWs)   bands (ev):

   -36.0011 -35.9767 -22.9965 -22.9930 -22.8538 -22.8448 -17.4118 -17.3855
   -17.2579 -17.2386 -17.1183 -17.0963 -15.2778 -15.2762 -15.0496 -15.0082
   -14.9342 -14.7922 -14.7422 -14.5443 -14.5436 -14.4960 -14.4838 -14.4621
   -14.4145 -14.3651 -13.3724  -8.4457  -8.4424  -8.3177  -8.3126  -8.3097
    -8.2365  -8.1532  -8.0995  -8.0362  -8.0330  -7.8792  -7.7661  -3.7243
    -3.7146  -3.5978  -3.5223  -3.4967  -3.3623  -3.3586  -2.7545  -2.7538
    -2.4237  -2.1754  -2.1693  -2.0836  -2.0577  -2.0525  -2.0186  -1.8851
    -1.7181  -1.7127  -1.6031  -1.5865  -1.5798  -1.5049  -1.2906  -1.2798
    -1.2469  -1.2425  -1.1816  -1.1344  -1.1328  -1.0119  -0.8213  -0.7809
    -0.6589  -0.5681  -0.5235  -0.3624  -0.2899  -0.1741  -0.1700  -0.1098
    -0.0190   0.0752   0.2628   0.2978   0.5158   0.5242   0.5574   0.5776
     0.6476   0.6643   0.6726   0.7555   0.7717   0.8483   0.8541   0.8586
     0.9745   1.0285   1.2434   1.2521   1.3081   1.3257   1.3544   1.4119
     1.4309   1.4712   1.4785   1.7673   1.9595   1.9611   1.9637   1.9991
     2.0887   2.1155   2.2143   2.3543   2.5326   2.6407   2.7305   6.5873
     6.9215   6.9246   7.5683   7.6981   7.7863   8.2820   8.2853   8.3778
     8.4801   8.5265   8.6874   8.9659   8.9753   9.0640   9.1469   9.1855
     9.2838

          k = 0.1250-0.5279 0.0000 ( 35996 PWs)   bands (ev):

   -35.9993 -35.9749 -22.9685 -22.9650 -22.8269 -22.8205 -17.4633 -17.4370
   -17.2149 -17.1955 -17.1145 -17.0925 -15.3101 -15.3071 -15.0068 -14.9024
   -14.9002 -14.7605 -14.6766 -14.5874 -14.5859 -14.4759 -14.4563 -14.4494
   -14.4445 -14.4211 -13.4081  -8.4404  -8.4370  -8.3298  -8.3184  -8.3147
    -8.2382  -8.1522  -8.0705  -8.0673  -8.0634  -7.9028  -7.8290  -3.9131
    -3.8992  -3.8527  -3.6994  -3.6893  -3.5917  -3.5880  -2.7754  -2.7749
    -2.4291  -2.2087  -2.2001  -2.1150  -1.9947  -1.9839  -1.9211  -1.9114
    -1.9045  -1.8570  -1.7654  -1.7513  -1.6577  -1.5864  -1.3882  -1.3857
    -1.3256  -1.3229  -1.2723  -1.2268  -1.2250  -1.0821  -0.8091  -0.7543
    -0.6615  -0.5789  -0.5372  -0.3490  -0.2665  -0.1626  -0.1588  -0.0953
    -0.0174   0.0659   0.2335   0.2481   0.5459   0.5486   0.5754   0.5828
     0.6102   0.6297   0.6568   0.7527   0.8767   0.8895   0.9151   0.9301
     0.9469   1.0788   1.1478   1.3701   1.3727   1.5966   1.5977   1.6112
     1.6138   1.6551   1.6597   1.9016   1.9571   1.9814   2.0537   2.0964
     2.1249   2.1285   2.1830   2.2086   2.3889   2.5352   2.6403   7.0894
     7.1425   7.1470   7.7896   7.8496   7.8849   8.0292   8.5795   8.6673
     8.7802   8.9088   8.9222   8.9325   9.1509   9.2923   9.3365   9.3626
     9.6105

          k = 0.2500 0.0000 0.0000 ( 36150 PWs)   bands (ev):

   -36.0091 -35.9847 -23.1078 -23.1043 -22.9608 -22.9443 -17.3959 -17.3760
   -17.3072 -17.2874 -17.0495 -17.0229 -15.3983 -15.3881 -15.2086 -15.1882
   -15.1423 -15.0054 -14.9991 -14.5805 -14.5771 -14.4377 -14.4248 -14.3436
   -14.3170 -14.2909 -13.3042  -8.3296  -8.3256  -8.2251  -8.2217  -8.1152
    -8.1120  -7.9577  -7.9543  -7.9382  -7.8107  -7.8020  -7.6759  -2.9466
    -2.9399  -2.7901  -2.6996  -2.5886  -2.5839  -2.3678  -2.1611  -2.1571
    -2.0761  -2.0743  -1.8921  -1.8575  -1.5890  -1.5852  -1.3590  -1.3578
    -1.3211  -1.1624  -1.1514  -1.1454  -1.0911  -1.0785  -1.0190  -0.9065
    -0.9046  -0.7216  -0.7026  -0.6854  -0.6824  -0.6413  -0.6196  -0.6141
    -0.5862  -0.4326  -0.2947  -0.2919  -0.2399  -0.2062  -0.1769  -0.1443
    -0.0622  -0.0547  -0.0511  -0.0155  -0.0119   0.0963   0.1083   0.1621
     0.1650   0.2760   0.2827   0.3769   0.5217   0.5254   0.6570   0.8849
     0.8900   0.9193   0.9231   0.9570   1.0029   1.0280   1.0360   1.0910
     1.1440   1.2103   1.4235   1.4738   1.5132   1.5515   1.6368   1.6389
     1.7531   1.8920   1.9171   2.0509   2.1760   2.2986   2.3154   5.1815
     5.4794   5.4817   6.5848   6.6339   6.9808   7.1761   7.1765   7.5107
     7.5800   8.0676   8.1323   8.2766   8.4654   8.5536   8.8098   8.9247
     9.1633

          k = 0.2500 0.1320 0.0000 ( 36087 PWs)   bands (ev):

   -36.0073 -35.9829 -23.0839 -23.0805 -22.9377 -22.9230 -17.3642 -17.3443
   -17.3005 -17.2806 -17.1154 -17.0890 -15.3431 -15.3347 -15.1681 -15.1419
   -15.0910 -14.9700 -14.9614 -14.5662 -14.5626 -14.4311 -14.4205 -14.3648
   -14.3454 -14.3273 -13.3064  -8.3973  -8.3939  -8.2657  -8.2522  -8.2494
    -8.2287  -8.0939  -8.0228  -7.9240  -7.9207  -7.7769  -7.6240  -2.9999
    -2.9901  -2.8275  -2.7308  -2.5802  -2.5752  -2.4988  -2.4980  -2.4030
    -2.3890  -2.3304  -2.0037  -1.9995  -1.8823  -1.7792  -1.7762  -1.4329
    -1.3974  -1.3845  -1.3450  -1.3226  -1.3101  -1.1369  -1.0112  -1.0104
    -0.9613  -0.9426  -0.7457  -0.7195  -0.6463  -0.6267  -0.6075  -0.5788
    -0.5572  -0.4159  -0.4015  -0.3634  -0.3548  -0.2906  -0.2198  -0.1951
    -0.1381  -0.0572  -0.0329  -0.0104   0.1672   0.2467   0.3529   0.3859
     0.4408   0.5276   0.5350   0.6229   0.6541   0.7137   0.7651   0.8207
     0.8275   0.9779   0.9826   1.0051   1.0181   1.0392   1.0997   1.1043
     1.1270   1.1410   1.2389   1.3478   1.3549   1.3748   1.7742   2.1350
     2.2151   2.2981   2.3018   2.4408   2.4601   2.5042   2.5119   5.4055
     5.7405   5.7428   6.7543   6.7873   7.1165   7.4329   7.4357   7.7855
     7.8252   8.1789   8.2305   8.4110   8.5338   8.6565   8.7908   8.8283
     8.9158

          k = 0.2500 0.2640 0.0000 ( 36083 PWs)   bands (ev):

   -36.0029 -35.9785 -23.0253 -23.0218 -22.8809 -22.8705 -17.3038 -17.2828
   -17.2733 -17.2525 -17.2514 -17.2267 -15.2430 -15.2398 -15.0571 -15.0065
   -14.9613 -14.8814 -14.8599 -14.5461 -14.5392 -14.4850 -14.4673 -14.4114
   -14.3607 -14.3477 -13.3122  -8.6172  -8.6139  -8.4559  -8.3146  -8.3109
    -8.3074  -8.2171  -8.1696  -8.0439  -8.0406  -7.9036  -7.7394  -3.3916
    -3.3752  -3.1669  -3.1239  -2.8203  -2.8159  -2.7913  -2.6906  -2.6850
    -2.6453  -2.5966  -2.5492  -2.5425  -2.3295  -1.8531  -1.8433  -1.8039
    -1.7979  -1.7395  -1.6996  -1.5604  -1.3866  -1.3653  -1.1257  -1.1201
    -1.1163  -1.0666  -0.9767  -0.9703  -0.9701  -0.8666  -0.8435  -0.7983
    -0.7683  -0.6654  -0.6453  -0.3940  -0.2542  -0.0970  -0.0003   0.0259
     0.1618   0.2531   0.3723   0.4287   0.4379   0.4575   0.5772   0.5915
     0.6767   0.7508   0.7827   0.8630   0.8685   0.8984   0.9690   0.9731
     1.0482   1.0583   1.1082   1.1131   1.1368   1.1861   1.2001   1.2437
     1.2861   1.3211   1.3787   1.4816   1.4831   1.4982   1.9409   2.1449
     2.5503   2.6188   2.6290   2.8724   2.8798   2.9981   3.0024   5.9673
     6.2817   6.2843   7.1183   7.1556   7.3940   7.9676   7.9704   8.2955
     8.3413   8.4633   8.5155   8.6357   8.6635   8.8161   8.9353   8.9529
     9.0147

          k = 0.2500 0.3960 0.0000 ( 36064 PWs)   bands (ev):

   -35.9985 -35.9741 -22.9648 -22.9614 -22.8225 -22.8167 -17.3997 -17.3735
   -17.2663 -17.2463 -17.1891 -17.1687 -15.1950 -15.1939 -14.9357 -14.8317
   -14.8254 -14.7785 -14.7240 -14.6139 -14.6074 -14.4791 -14.4666 -14.4447
   -14.3803 -14.3522 -13.3178  -8.7373  -8.7339  -8.5918  -8.4052  -8.3647
    -8.3609  -8.2580  -8.2546  -8.2427  -8.1863  -8.1202  -7.9833  -3.8893
    -3.8747  -3.6638  -3.6203  -3.5215  -3.3412  -3.3375  -2.8293  -2.8258
    -2.6460  -2.5595  -2.5086  -2.4920  -2.3095  -2.1899  -2.1776  -2.0635
    -2.0350  -1.8527  -1.8225  -1.6990  -1.5749  -1.5646  -1.3757  -1.3004
    -1.2116  -1.1900  -1.1852  -1.1752  -1.1686  -1.0141  -0.9663  -0.8458
    -0.8288  -0.7204  -0.6891  -0.2852  -0.1423  -0.0501   0.0638   0.0774
     0.3116   0.4786   0.5887   0.6019   0.6087   0.6111   0.7289   0.8462
     0.8511   0.8921   0.9078   0.9330   0.9381   1.0441   1.1253   1.1427
     1.2520   1.2618   1.3021   1.3162   1.3766   1.3853   1.4340   1.4537
     1.5006   1.5037   1.7706   1.8385   1.8810   1.8842   1.9508   2.0710
     2.4320   2.4549   2.6243   3.0952   3.1004   3.2464   3.2479   6.4441
     6.4894   6.4963   7.2492   7.3209   7.5602   8.3331   8.4090   8.4322
     8.5195   8.6096   8.8470   9.1520   9.2806   9.3217   9.3631   9.4227
     9.4752

          k = 0.2500-0.5279 0.0000 ( 36068 PWs)   bands (ev):

   -35.9967 -35.9723 -22.9393 -22.9358 -22.7979 -22.7940 -17.4498 -17.4236
   -17.2608 -17.2408 -17.1499 -17.1295 -15.1918 -15.1901 -14.8943 -14.7530
   -14.7490 -14.7023 -14.6704 -14.6605 -14.6471 -14.4548 -14.4437 -14.4386
   -14.4172 -14.3877 -13.3197  -8.7375  -8.7341  -8.6134  -8.4522  -8.4490
    -8.3699  -8.3247  -8.3212  -8.2604  -8.2492  -8.1819  -8.1469  -4.0883
    -4.0734  -3.8832  -3.8160  -3.7719  -3.5689  -3.5651  -2.8359  -2.8330
    -2.6171  -2.5196  -2.4677  -2.4399  -2.3481  -2.3335  -2.2917  -2.2092
    -2.1719  -1.8771  -1.8474  -1.7529  -1.6508  -1.6396  -1.4681  -1.3939
    -1.2956  -1.2580  -1.2515  -1.2049  -1.1951  -1.0276  -0.9698  -0.8628
    -0.8530  -0.7389  -0.6924  -0.2438  -0.1149  -0.0391   0.0809   0.1160
     0.3426   0.5064   0.6292   0.6404   0.6982   0.7054   0.7965   0.8105
     0.8119   0.9163   0.9442   1.0077   1.0222   1.1059   1.1205   1.1311
     1.1992   1.4692   1.4966   1.5145   1.5774   1.5891   1.5999   1.6396
     1.6578   1.6685   1.6795   1.9752   2.0304   2.0569   2.0604   2.1468
     2.2091   2.2458   2.5420   3.1141   3.1198   3.2828   3.2858   6.4514
     6.4556   6.5414   7.2521   7.2937   7.8676   8.0042   8.6826   8.6910
     8.8102   9.0667   9.1385   9.1443   9.2427   9.4583   9.4989   9.6448
     9.6691

          k = 0.3750 0.0000 0.0000 ( 36078 PWs)   bands (ev):

   -36.0064 -35.9820 -23.0624 -23.0589 -22.9168 -22.9067 -17.4475 -17.4291
   -17.3005 -17.2792 -17.0462 -17.0196 -15.4236 -15.4214 -15.2793 -15.0540
   -15.0341 -15.0081 -14.9936 -14.5960 -14.5902 -14.5364 -14.5257 -14.3683
   -14.3456 -14.3157 -13.4563  -8.3121  -8.3080  -8.2124  -8.2002  -8.0501
    -8.0472  -7.8998  -7.8733  -7.8699  -7.7217  -7.7175  -7.6087  -3.2790
    -3.2678  -3.1530  -3.0869  -2.7074  -2.7060  -2.4192  -2.0869  -2.0809
    -1.9883  -1.9526  -1.9276  -1.9272  -1.6070  -1.5906  -1.5869  -1.4580
    -1.4535  -1.4078  -1.4040  -1.3226  -1.3187  -1.3137  -1.2685  -1.1064
    -1.1047  -0.8543  -0.8097  -0.7242  -0.7224  -0.6880  -0.6648  -0.6120
    -0.6082  -0.4824  -0.3075  -0.3048  -0.2530  -0.2383  -0.2032  -0.1233
    -0.0319  -0.0198   0.0149   0.0260   0.0293   0.0322   0.0519   0.0998
     0.1130   0.2622   0.3371   0.4038   0.6891   0.7951   0.7985   0.8071
     0.8138   0.8208   0.9597   0.9708   1.0578   1.0852   1.1201   1.2001
     1.2755   1.3467   1.3592   1.4150   1.4340   1.4765   1.5555   1.7223
     1.7277   1.9270   1.9587   2.1562   2.2435   2.4107   2.4433   5.8032
     6.1291   6.1313   7.3314   7.3532   7.4619   7.6177   7.6241   7.6615
     8.0703   8.1003   8.2986   8.3887   8.6736   8.9472   9.0645   9.0723
     9.0841

          k = 0.3750 0.1320 0.0000 ( 36137 PWs)   bands (ev):

   -36.0047 -35.9802 -23.0407 -23.0372 -22.8957 -22.8868 -17.4389 -17.4205
   -17.2716 -17.2502 -17.1104 -17.0840 -15.3756 -15.3738 -15.2206 -15.0152
   -14.9912 -14.9465 -14.9333 -14.5661 -14.5610 -14.5156 -14.5050 -14.3862
   -14.3632 -14.3535 -13.4248  -8.3690  -8.3654  -8.2494  -8.2162  -8.2139
    -8.2092  -8.0594  -7.9630  -7.9596  -7.9410  -7.8243  -7.6670  -3.3442
    -3.3295  -3.1960  -3.1211  -2.7068  -2.7049  -2.4814  -2.4629  -2.4005
    -2.2972  -2.2746  -1.9920  -1.9879  -1.9029  -1.8565  -1.8393  -1.6962
    -1.6879  -1.6292  -1.5993  -1.4921  -1.3514  -1.1790  -1.1678  -1.1511
    -1.1168  -1.0548  -0.8101  -0.7953  -0.7060  -0.6529  -0.6525  -0.6401
    -0.5979  -0.4480  -0.4207  -0.3490  -0.3420  -0.3081  -0.2199  -0.1971
    -0.1677   0.0510   0.0691   0.0746   0.2651   0.2751   0.3942   0.4002
     0.4059   0.5342   0.5619   0.6420   0.7446   0.7956   0.8161   0.8323
     0.8340   0.9631   0.9818   0.9842   1.1098   1.1353   1.1511   1.2296
     1.2981   1.3055   1.3593   1.3876   1.3997   1.4002   1.5887   2.1441
     2.2340   2.3770   2.3820   2.5368   2.5398   2.7089   2.7173   5.9627
     6.2776   6.2799   7.3439   7.3867   7.4760   7.6880   7.6908   7.7725
     8.0791   8.1556   8.5076   8.5886   8.6542   8.8572   8.9093   9.1215
     9.2261

          k = 0.3750 0.2640 0.0000 ( 36135 PWs)   bands (ev):

   -36.0003 -35.9759 -22.9874 -22.9839 -22.8439 -22.8381 -17.4186 -17.4000
   -17.2550 -17.2286 -17.1962 -17.1749 -15.2527 -15.2518 -15.0648 -14.9211
   -14.8927 -14.7988 -14.7819 -14.5351 -14.5226 -14.4978 -14.4892 -14.4302
   -14.3961 -14.3609 -13.3454  -8.6700  -8.6667  -8.5106  -8.3579  -8.3490
    -8.3451  -8.2265  -8.2230  -8.2037  -8.1900  -8.1024  -7.9382  -3.6711
    -3.6475  -3.4309  -3.3608  -2.8872  -2.8805  -2.7983  -2.7927  -2.7669
    -2.7571  -2.7542  -2.6263  -2.6239  -2.3886  -2.1772  -2.1643  -1.9998
    -1.9783  -1.6486  -1.6263  -1.4573  -1.3775  -1.3497  -1.2705  -1.2667
    -1.2246  -1.1726  -1.0295  -1.0251  -1.0228  -0.9418  -0.9222  -0.7691
    -0.7639  -0.6977  -0.6666  -0.3851  -0.2129  -0.0315   0.1147   0.1571
     0.2979   0.3509   0.4449   0.4756   0.6242   0.6325   0.6853   0.7535
     0.7630   0.8222   0.8263   0.8917   0.9833   1.0159   1.0197   1.0221
     1.2240   1.2407   1.2524   1.2750   1.3216   1.3446   1.3675   1.3693
     1.3752   1.3895   1.4229   1.4270   1.4302   1.4668   1.9307   2.1209
     2.5479   2.6230   2.6415   3.3256   3.3267   3.4195   3.4208   6.2025
     6.3228   6.3245   7.1716   7.2146   7.4406   8.0184   8.0286   8.1011
     8.4048   8.4901   8.6065   9.0255   9.0465   9.1166   9.1648   9.3599
     9.3770

          k = 0.3750 0.3960 0.0000 ( 36111 PWs)   bands (ev):

   -35.9960 -35.9716 -22.9327 -22.9292 -22.7908 -22.7883 -17.4017 -17.3817
   -17.3810 -17.3560 -17.1170 -17.0957 -15.1162 -15.1162 -14.8799 -14.8302
   -14.7931 -14.6443 -14.6341 -14.6199 -14.6130 -14.4603 -14.4530 -14.4223
   -14.3617 -14.3603 -13.2612  -8.9358  -8.9324  -8.7878  -8.6070  -8.6007
    -8.5975  -8.4144  -8.3519  -8.3483  -8.3058  -8.2199  -8.2122  -4.1521
    -4.1304  -3.8719  -3.8202  -3.5087  -3.3204  -3.3166  -3.0136  -3.0067
    -2.9045  -2.8834  -2.6556  -2.6539  -2.4893  -2.4729  -2.3650  -2.2319
    -2.2107  -1.6681  -1.6216  -1.6162  -1.5837  -1.5801  -1.3754  -1.3509
    -1.3444  -1.2765  -1.2464  -1.2168  -1.2152  -1.1624  -1.1301  -0.7742
    -0.7723  -0.6964  -0.6450  -0.2340  -0.0745   0.0372   0.2755   0.3314
     0.5468   0.7357   0.7680   0.7992   0.8262   0.8889   0.9092   0.9634
     0.9657   1.0839   1.1030   1.1054   1.1333   1.1744   1.1940   1.3076
     1.3837   1.3857   1.4687   1.4774   1.5331   1.5930   1.5981   1.6541
     1.6799   1.6996   1.7793   1.8029   1.8057   1.8860   1.9763   2.1226
     2.4141   2.4516   2.6345   3.8354   3.8372   3.9104   3.9110   6.0133
     6.0207   6.0738   6.9254   6.9576   7.6877   8.2104   8.5279   8.6004
     8.6246   8.9274   8.9651   9.0887   9.1355   9.1776   9.2044   9.2935
     9.3711

          k = 0.3750-0.5279 0.0000 ( 36128 PWs)   bands (ev):

   -35.9942 -35.9698 -22.9097 -22.9062 -22.7685 -22.7673 -17.4365 -17.4103
   -17.3888 -17.3699 -17.0818 -17.0605 -15.0541 -15.0539 -14.7983 -14.7970
   -14.7603 -14.6586 -14.6362 -14.5760 -14.5729 -14.4495 -14.4357 -14.4305
   -14.3646 -14.3527 -13.2246  -9.0179  -9.0144  -8.8844  -8.7457  -8.7427
    -8.6698  -8.5435  -8.4663  -8.3779  -8.3740  -8.2485  -8.2250  -4.3579
    -4.3369  -4.0745  -4.0231  -3.7815  -3.5456  -3.5418  -3.0320  -3.0251
    -2.9140  -2.8862  -2.6498  -2.6481  -2.5954  -2.5793  -2.3454  -2.3164
    -2.2932  -1.7660  -1.7142  -1.6983  -1.6287  -1.6251  -1.4360  -1.3711
    -1.3547  -1.3408  -1.3372  -1.3096  -1.3033  -1.1916  -1.1409  -0.7579
    -0.7568  -0.6910  -0.6232  -0.1871  -0.0447   0.0508   0.3282   0.4215
     0.6191   0.8797   0.8867   0.8997   0.9038   0.9487   0.9533   0.9565
     0.9884   1.1401   1.1515   1.2010   1.2109   1.3886   1.3907   1.4018
     1.4764   1.4861   1.5365   1.6593   1.6638   1.7357   1.7360   1.8083
     1.8426   1.8612   1.9924   1.9936   2.0029   2.0266   2.0302   2.0952
     2.1705   2.2250   2.5520   3.9732   3.9741   4.0623   4.0624   5.8402
     5.8435   5.9236   6.8227   6.8755   7.9012   8.0657   8.7243   8.7320
     8.7565   8.9296   8.9763   9.0330   9.1174   9.3111   9.4535   9.4699
     9.4757

          k =-0.5000 0.0000 0.0000 ( 36070 PWs)   bands (ev):

   -36.0053 -35.9809 -23.0432 -23.0397 -22.8982 -22.8909 -17.4997 -17.4817
   -17.2588 -17.2369 -17.0448 -17.0182 -15.4816 -15.4783 -15.3234 -15.0806
   -15.0382 -14.7844 -14.7670 -14.7317 -14.7072 -14.5737 -14.5699 -14.3767
   -14.3528 -14.3207 -13.5161  -8.3018  -8.2977  -8.1998  -8.1896  -8.0270
    -8.0241  -7.8920  -7.8372  -7.8338  -7.6874  -7.6817  -7.5802  -3.4213
    -3.4099  -3.2972  -3.2355  -2.7319  -2.7309  -2.4300  -2.0549  -2.0440
    -2.0364  -2.0235  -1.8063  -1.8019  -1.7081  -1.5945  -1.5909  -1.5716
    -1.5641  -1.4982  -1.4868  -1.4207  -1.4165  -1.3360  -1.3321  -1.1898
    -1.1880  -0.9235  -0.8645  -0.7499  -0.7326  -0.7058  -0.6888  -0.6009
    -0.5979  -0.4944  -0.3128  -0.3101  -0.2841  -0.2641  -0.2582  -0.1317
    -0.0560  -0.0172   0.0162   0.0260   0.0290   0.0315   0.0518   0.0548
     0.1697   0.1704   0.3795   0.4382   0.7444   0.7452   0.7594   0.7617
     0.9484   0.9630   0.9740   0.9898   1.0072   1.1827   1.1853   1.1938
     1.2784   1.2802   1.3889   1.4509   1.4620   1.5099   1.5666   1.7365
     1.7423   1.9288   1.9563   2.1616   2.2421   2.4422   2.4792   6.5771
     6.6863   6.9004   6.9027   6.9542   6.9563   7.7222   7.8319   8.0192
     8.1077   8.1181   8.5983   8.6225   8.7584   9.0259   9.0452   9.1361
     9.2158

          k =-0.5000 0.1320 0.0000 ( 36134 PWs)   bands (ev):

   -36.0036 -35.9792 -23.0225 -23.0189 -22.8780 -22.8716 -17.4905 -17.4724
   -17.2314 -17.2095 -17.1083 -17.0818 -15.4243 -15.4215 -15.2587 -15.0406
   -14.9983 -14.7458 -14.7285 -14.6715 -14.6480 -14.5520 -14.5482 -14.3928
   -14.3663 -14.3590 -13.4719  -8.3405  -8.3365  -8.2224  -8.2056  -8.1564
    -8.1535  -8.0404  -8.0368  -8.0114  -7.9004  -7.8142  -7.7831  -3.4929
    -3.4781  -3.3484  -3.2773  -2.7374  -2.7360  -2.4810  -2.4337  -2.3890
    -2.2401  -2.2197  -1.9866  -1.9825  -1.9235  -1.9043  -1.8495  -1.8119
    -1.8039  -1.7302  -1.6896  -1.5371  -1.3622  -1.2459  -1.2441  -1.1448
    -1.1437  -1.0736  -0.8469  -0.8325  -0.7259  -0.6729  -0.6658  -0.6639
    -0.6133  -0.4721  -0.4303  -0.3586  -0.3324  -0.3105  -0.2212  -0.1961
    -0.1834   0.1073   0.1399   0.1426   0.1777   0.1838   0.3314   0.3596
     0.4664   0.5142   0.6098   0.6581   0.7607   0.8023   0.8335   0.8827
     0.9019   0.9137   0.9959   1.0095   1.1158   1.2092   1.2199   1.2537
     1.3318   1.3550   1.3885   1.4545   1.4743   1.4746   1.5247   2.1393
     2.2366   2.3800   2.3845   2.5525   2.5528   2.7623   2.7712   6.6149
     6.7481   6.7505   6.8186   7.2550   7.2578   7.7473   7.7505   7.7666
     8.0453   8.2104   8.5299   8.8650   8.9879   9.1191   9.2151   9.3285
     9.3435

          k =-0.5000 0.2640 0.0000 ( 36164 PWs)   bands (ev):

   -35.9992 -35.9748 -22.9715 -22.9680 -22.8283 -22.8245 -17.4685 -17.4503
   -17.2517 -17.2252 -17.1601 -17.1384 -15.2723 -15.2709 -15.0848 -14.9449
   -14.9016 -14.6505 -14.6332 -14.5569 -14.5443 -14.5019 -14.4978 -14.4773
   -14.4312 -14.3559 -13.3593  -8.6090  -8.6054  -8.4576  -8.4546  -8.4532
    -8.3120  -8.2905  -8.2888  -8.2863  -8.1737  -8.1528  -8.1309  -3.8097
    -3.7852  -3.5764  -3.5052  -2.9142  -2.9093  -2.8212  -2.8125  -2.7643
    -2.7622  -2.7570  -2.6339  -2.6315  -2.4071  -2.3044  -2.2882  -2.0871
    -2.0614  -1.5688  -1.5400  -1.4040  -1.3444  -1.3421  -1.3364  -1.3051
    -1.2955  -1.2415  -1.0502  -1.0470  -1.0465  -0.9472  -0.9225  -0.7727
    -0.7688  -0.7130  -0.6699  -0.3809  -0.1978  -0.0106   0.1540   0.2083
     0.3449   0.3890   0.4760   0.4880   0.7004   0.7040   0.7590   0.7728
     0.7734   0.8164   0.8405   0.8623   1.0236   1.0363   1.0669   1.0947
     1.2218   1.3129   1.3177   1.3399   1.3423   1.3626   1.3719   1.4077
     1.4285   1.4756   1.4812   1.4966   1.5008   1.6786   1.6939   2.0929
     2.5416   2.6170   2.6380   3.4647   3.4657   3.5521   3.5543   6.3006
     6.3201   6.3291   7.1256   7.1542   7.4919   7.8489   8.0645   8.0699
     8.4186   8.6128   8.7690   9.1921   9.1951   9.2111   9.2268   9.3465
     9.5115

          k =-0.5000 0.3960 0.0000 ( 36108 PWs)   bands (ev):

   -35.9949 -35.9705 -22.9193 -22.9158 -22.7776 -22.7763 -17.4470 -17.4286
   -17.3805 -17.3542 -17.0850 -17.0632 -15.0879 -15.0874 -14.8863 -14.8607
   -14.7876 -14.6245 -14.6028 -14.5559 -14.5397 -14.4536 -14.4487 -14.4045
   -14.3912 -14.3658 -13.2370  -8.9841  -8.9806  -8.8414  -8.7457  -8.7427
    -8.6494  -8.5522  -8.4466  -8.3684  -8.3644  -8.2377  -8.2259  -4.2840
    -4.2602  -3.9936  -3.9385  -3.5008  -3.3118  -3.3080  -3.0834  -3.0763
    -2.9761  -2.9692  -2.6713  -2.6703  -2.5914  -2.5740  -2.3732  -2.2908
    -2.2676  -1.6728  -1.6180  -1.5949  -1.4936  -1.4877  -1.4580  -1.4334
    -1.3462  -1.2693  -1.2660  -1.2433  -1.2404  -1.2227  -1.2018  -0.7327
    -0.7306  -0.7007  -0.6096  -0.2179  -0.0514   0.0681   0.3729   0.4391
     0.6439   0.8150   0.8782   0.8821   0.8884   0.9876   0.9895   1.0220
     1.0535   1.0937   1.1788   1.1800   1.1851   1.1902   1.2135   1.3833
     1.4356   1.4717   1.4962   1.5031   1.5824   1.6545   1.6653   1.7700
     1.7731   1.7877   1.8093   1.8199   1.8521   1.9077   2.0242   2.0658
     2.4011   2.4416   2.6344   4.0994   4.1052   4.1565   4.1567   5.8196
     5.8251   5.8812   6.7747   6.8232   7.9555   7.9591   8.5376   8.5583
     8.5761   8.9898   9.0014   9.0840   9.1529   9.2191   9.2844   9.3342
     9.4989

          k =-0.5000-0.5279 0.0000 ( 36156 PWs)   bands (ev):

   -35.9931 -35.9687 -22.8973 -22.8938 -22.7562 -22.7561 -17.4383 -17.4310
   -17.4198 -17.4048 -17.0516 -17.0299 -14.9883 -14.9868 -14.8423 -14.8401
   -14.6730 -14.6637 -14.6490 -14.5220 -14.5203 -14.4444 -14.4309 -14.4260
   -14.3610 -14.3237 -13.1830  -9.1301  -9.1266  -8.9937  -8.8618  -8.8588
    -8.7931  -8.6574  -8.5780  -8.3964  -8.3926  -8.2563  -8.2417  -4.4919
    -4.4689  -4.1923  -4.1394  -3.7757  -3.5361  -3.5323  -3.1156  -3.1085
    -3.0018  -2.9883  -2.6824  -2.6659  -2.6614  -2.6604  -2.3580  -2.3449
    -2.3362  -1.7832  -1.7320  -1.7072  -1.5626  -1.5531  -1.4227  -1.4093
    -1.4042  -1.3573  -1.3543  -1.3464  -1.3382  -1.2688  -1.2141  -0.7037
    -0.7017  -0.6905  -0.5805  -0.1705  -0.0199   0.0834   0.4508   0.5627
     0.7417   0.9577   0.9602   0.9625   0.9668   0.9967   1.0048   1.0703
     1.2226   1.2254   1.2256   1.2436   1.2672   1.4632   1.4927   1.5129
     1.5253   1.5979   1.6167   1.6543   1.6888   1.6897   1.7862   1.7937
     1.9628   1.9662   2.0096   2.0203   2.0329   2.0639   2.1464   2.1585
     2.2032   2.2123   2.5561   4.2929   4.2979   4.3661   4.3669   5.5954
     5.5982   5.6675   6.6562   6.7230   7.9459   8.0377   8.6237   8.6486
     8.6621   8.7241   8.9295   8.9975   9.0676   9.1177   9.4043   9.4451
     9.4498

     the Fermi energy is     2.1919 ev

!    total energy              =   -1842.78605083 Ry
     Harris-Foulkes estimate   =   -1842.78605083 Ry
     estimated scf accuracy    <          3.3E-09 Ry

     The total energy is the sum of the following terms:

     one-electron contribution =  -25408.68279145 Ry
     hartree contribution      =   12854.40178388 Ry
     xc contribution           =    -621.62146139 Ry
     ewald contribution        =   11333.12816333 Ry
     smearing contrib. (-TS)   =      -0.01174520 Ry

     convergence has been achieved in  36 iterations

     negative rho (up, down):  1.493E-03 0.000E+00

     Forces acting on atoms (cartesian axes, Ry/au):

     atom    1 type  4   force =     0.00000000    0.00000000   -0.00037259
     atom    2 type  3   force =     0.00000000    0.00000000    0.00043886
     atom    3 type  4   force =     0.00000000    0.00000000   -0.00072353
     atom    4 type  1   force =     0.00000000    0.00000000   -0.00053946
     atom    5 type  3   force =     0.00000000    0.00000000    0.00048956
     atom    6 type  4   force =     0.00000000    0.00000000    0.00093847
     atom    7 type  4   force =     0.00000000    0.00000000    0.00114708
     atom    8 type  2   force =     0.00000000    0.00000000   -0.00279318
     atom    9 type  4   force =     0.00000000    0.00000000    0.00490179
     atom   10 type  4   force =     0.00000000    0.00000000    0.00419134
     atom   11 type  3   force =     0.00000000    0.00000000    0.00117514
     atom   12 type  1   force =     0.00000000    0.00000000    0.00952689
     atom   13 type  4   force =     0.00000000    0.00000000   -0.02000479
     atom   14 type  4   force =     0.00000000    0.00000000    0.03730487
     atom   15 type  3   force =     0.00000000    0.00000000   -0.03448315
     atom   16 type  4   force =     0.00000000    0.00000000    0.02834804
     atom   17 type  1   force =     0.00000000    0.00000000   -0.00583615
     atom   18 type  3   force =     0.00000000    0.00000000   -0.02103726
     atom   19 type  4   force =     0.00000000    0.00000000   -0.00136755
     atom   20 type  4   force =     0.00000000    0.00000000   -0.00212505
     atom   21 type  2   force =     0.00000000    0.00000000    0.00263241
     atom   22 type  4   force =     0.00000000    0.00000000   -0.00178922
     atom   23 type  4   force =     0.00000000    0.00000000   -0.00021604
     atom   24 type  3   force =     0.00000000    0.00000000   -0.00034604
     atom   25 type  1   force =     0.00000000    0.00000000    0.00039142
     atom   26 type  4   force =     0.00000000    0.00000000    0.00025225
     atom   27 type  3   force =     0.00000000    0.00000000   -0.00002106
     atom   28 type  4   force =     0.00000000    0.00000000   -0.00008304

     Total force =     0.066507     Total SCF correction =     0.000272


     Computing stress (Cartesian axis) and pressure


     negative rho (up, down):  1.493E-03 0.000E+00
          total   stress  (Ry/bohr**3)                   (kbar)     P=       -5.61
   0.00000802   0.00000000   0.00000000            1.18        0.00        0.00
   0.00000000  -0.00008843   0.00000000            0.00      -13.01        0.00
   0.00000000   0.00000000  -0.00003399            0.00        0.00       -5.00

 
     init_run     :      8.39s CPU      9.01s WALL (       1 calls)
     electrons    :    574.93s CPU    624.95s WALL (       1 calls)
     forces       :      3.51s CPU      3.89s WALL (       1 calls)
     stress       :     21.69s CPU     22.71s WALL (       1 calls)

     Called by init_run:
     wfcinit      :      5.93s CPU      6.10s WALL (       1 calls)
     potinit      :      0.63s CPU      0.65s WALL (       1 calls)
     hinit0       :      0.97s CPU      1.00s WALL (       1 calls)

     Called by electrons:
     c_bands      :    454.12s CPU    473.20s WALL (      36 calls)
     sum_band     :     80.09s CPU     96.89s WALL (      36 calls)
     v_of_rho     :      2.91s CPU      2.95s WALL (      37 calls)
     newd         :     18.45s CPU     32.68s WALL (      37 calls)
     mix_rho      :     19.65s CPU     19.87s WALL (      36 calls)

     Called by c_bands:
     init_us_2    :      4.00s CPU      4.16s WALL (    1875 calls)
     cegterg      :    428.37s CPU    446.55s WALL (     900 calls)

     Called by sum_band:
     sum_band:bec :      0.25s CPU      0.25s WALL (     900 calls)
     addusdens    :     20.35s CPU     36.23s WALL (      36 calls)

     Called by *egterg:
     h_psi        :    221.53s CPU    232.31s WALL (    3954 calls)
     s_psi        :     24.42s CPU     24.75s WALL (    3954 calls)
     g_psi        :      0.70s CPU      0.71s WALL (    3029 calls)
     cdiaghg      :    104.39s CPU    104.94s WALL (    3929 calls)

     Called by h_psi:
     h_psi:calbec :     26.03s CPU     27.25s WALL (    3954 calls)
     vloc_psi     :    169.11s CPU    172.59s WALL (    3954 calls)
     add_vuspsi   :     24.95s CPU     28.39s WALL (    3954 calls)

     General routines
     calbec       :     40.64s CPU     41.93s WALL (    4979 calls)
     fft          :      2.23s CPU      2.25s WALL (     504 calls)
     ffts         :     10.78s CPU     10.90s WALL (   16900 calls)
     fftw         :    191.81s CPU    195.63s WALL (  641394 calls)
     interpolate  :      0.21s CPU      0.21s WALL (      37 calls)
 
     Parallel routines
     fft_scatt_xy :     26.47s CPU     26.96s WALL (  658798 calls)
     fft_scatt_yz :    113.45s CPU    115.68s WALL (  658798 calls)
 
     PWSCF        :  10m 9.23s CPU  11m 1.33s WALL

 
   This run was terminated on:  21:33:37  21May2021            

=------------------------------------------------------------------------------=
   JOB DONE.
=------------------------------------------------------------------------------=
[1621647217.352233] [holy7c08606:228681:0]          mpool.c:43   UCX  WARN  object 0x30b6640 was not returned to mpool ucp_requests
[1621647217.357986] [holy7c06505:200775:0]          mpool.c:43   UCX  WARN  object 0x3e56680 was not returned to mpool ucp_requests
[1621647217.365661] [holy7c06505:200780:0]          mpool.c:43   UCX  WARN  object 0x3720980 was not returned to mpool ucp_requests
[1621647217.365689] [holy7c06505:200780:0]          mpool.c:43   UCX  WARN  object 0x3721080 was not returned to mpool ucp_requests
[1621647217.356311] [holy7c08606:228684:0]          mpool.c:43   UCX  WARN  object 0x437b800 was not returned to mpool ucp_requests
[1621647217.356408] [holy7c08606:228683:0]          mpool.c:43   UCX  WARN  object 0x3175700 was not returned to mpool ucp_requests
[1621647217.356427] [holy7c08606:228683:0]          mpool.c:43   UCX  WARN  object 0x3175e00 was not returned to mpool ucp_requests
[1621647217.351533] [holy7c08606:228685:0]          mpool.c:43   UCX  WARN  object 0x2979e80 was not returned to mpool ucp_requests
[1621647217.351552] [holy7c08606:228685:0]          mpool.c:43   UCX  WARN  object 0x297a3c0 was not returned to mpool ucp_requests
[1621647217.360805] [holy7c06505:200776:0]          mpool.c:43   UCX  WARN  object 0x3eeba40 was not returned to mpool ucp_requests
