
     Program PWSCF v.6.5 starts on 21May2021 at 21:25: 0 

     This program is part of the open-source Quantum ESPRESSO suite
     for quantum simulation of materials; please cite
         "P. Giannozzi et al., J. Phys.:Condens. Matter 21 395502 (2009);
         "P. Giannozzi et al., J. Phys.:Condens. Matter 29 465901 (2017);
          URL http://www.quantum-espresso.org", 
     in publications or presentations arising from this work. More details at
     http://www.quantum-espresso.org/quote

     Parallel version (MPI), running on    20 processors

     MPI processes distributed on    13 nodes
     R & G space division:  proc/nbgrp/npool/nimage =      20
     Reading input from CBCO_CuO_cleave_5.0_sep.pwi
Warning: card &IONS ignored
Warning: card     ION_DYNAMICS = 'BFGS' ignored
Warning: card / ignored
Warning: card &CELL ignored
Warning: card     CELL_DYNAMICS = 'BFGS' ignored
Warning: card     PRESS_CONV_THR = 5 ignored
Warning: card / ignored

     Current dimensions of program PWSCF are:
     Max number of different atomic species (ntypx) = 10
     Max number of k-points (npk) =  40000
     Max angular momentum in pseudopotentials (lmaxx) =  3

     Subspace diagonalization in iterative solution of the eigenvalue problem:
     one sub-group per band group will be used
     scalapack distributed-memory algorithm (size of sub-group:  4*  4 procs)

     Message from routine setup:
     using ibrav=0 with symmetry is DISCOURAGED, use correct ibrav instead
 
     Parallelization info
     --------------------
     sticks:   dense  smooth     PW     G-vecs:    dense   smooth      PW
     Min         149      50     14                78203    15060    2352
     Max         150      51     15                78244    15085    2401
     Sum        2991    1007    289              1564483   301375   47365
 


     bravais-lattice index     =            0
     lattice parameter (alat)  =       7.4270  a.u.
     unit-cell volume          =    4795.9235 (a.u.)^3
     number of atoms/cell      =           28
     number of atomic types    =            4
     number of electrons       =       227.00
     number of Kohn-Sham states=          137
     kinetic-energy cutoff     =      60.0000  Ry
     charge density cutoff     =     720.0000  Ry
     convergence threshold     =      1.0E-08
     mixing beta               =       0.5000
     number of iterations used =           10  local-TF  mixing
     Exchange-correlation= SLA PW PBE PBE
                           (   1   4   3   4   0   0   0)

     celldm(1)=   7.427040  celldm(2)=   0.000000  celldm(3)=   0.000000
     celldm(4)=   0.000000  celldm(5)=   0.000000  celldm(6)=   0.000000

     crystal axes: (cart. coord. in units of alat)
               a(1) = (   1.000000   0.000000   0.000000 )  
               a(2) = (   0.000000   0.947081   0.000000 )  
               a(3) = (   0.000000   0.000000  12.360550 )  

     reciprocal axes: (cart. coord. in units 2 pi/alat)
               b(1) = (  1.000000  0.000000  0.000000 )  
               b(2) = (  0.000000  1.055876  0.000000 )  
               b(3) = (  0.000000  0.000000  0.080903 )  


     PseudoPot. # 1 for Ba read from file:
     ./pseudo/Ba.pbe-nsp-van.UPF
     MD5 check sum: 2b9c31dd849566dd297d80989662b7a0
     Pseudo is Ultrasoft + core correction, Zval = 10.0
     Generated by new atomic code, or converted to UPF format
     Using radial grid of  907 points,  6 beta functions with: 
                l(1) =   0
                l(2) =   0
                l(3) =   1
                l(4) =   1
                l(5) =   2
                l(6) =   2
     Q(r) pseudized with  6 coefficients,  rinner =    1.200   1.200   1.200
                                                       1.200   1.200

     PseudoPot. # 2 for Ca read from file:
     ./pseudo/Ca.pbe-nsp-van.UPF
     MD5 check sum: 6471098428ff4fa451746d08035ff179
     Pseudo is Ultrasoft + core correction, Zval = 10.0
     Generated by new atomic code, or converted to UPF format
     Using radial grid of  845 points,  6 beta functions with: 
                l(1) =   0
                l(2) =   0
                l(3) =   1
                l(4) =   1
                l(5) =   2
                l(6) =   2
     Q(r) pseudized with  6 coefficients,  rinner =    1.200   1.200   1.200
                                                       1.200   1.200

     PseudoPot. # 3 for Cu read from file:
     ./pseudo/Cu.pbe-n-van_ak.UPF
     MD5 check sum: 34e3282627ffb533726feb647e090d62
     Pseudo is Ultrasoft + core correction, Zval = 11.0
     Generated by new atomic code, or converted to UPF format
     Using radial grid of  867 points,  6 beta functions with: 
                l(1) =   0
                l(2) =   0
                l(3) =   1
                l(4) =   1
                l(5) =   2
                l(6) =   2
     Q(r) pseudized with  8 coefficients,  rinner =    1.400   1.400   1.400
                                                       1.400   1.400

     PseudoPot. # 4 for O  read from file:
     ./pseudo/O.pbe-van_ak.UPF
     MD5 check sum: 783ce7fe4c79b6a4916957118fed0856
     Pseudo is Ultrasoft, Zval =  6.0
     Generated by new atomic code, or converted to UPF format
     Using radial grid of  737 points,  4 beta functions with: 
                l(1) =   0
                l(2) =   0
                l(3) =   1
                l(4) =   1
     Q(r) pseudized with  8 coefficients,  rinner =    0.800   0.800   0.800


     atomic species   valence    mass     pseudopotential
        Ba            10.00   137.32700     Ba( 1.00)
        Ca            10.00    40.07800     Ca( 1.00)
        Cu            11.00    63.54600     Cu( 1.00)
        O              6.00    15.99900     O ( 1.00)

      4 Sym. Ops. (no inversion) found



   Cartesian axes

     site n.     atom                  positions (alat units)
         1           O   tau(   1) = (   0.0000000   0.4735409  -0.0469745  )
         2           Cu  tau(   2) = (   0.0000000   0.0000000   0.0264565  )
         3           O   tau(   3) = (   0.0000000   0.0000000   0.5030914  )
         4           Ba  tau(   4) = (   0.5000000   0.4735409   0.5690292  )
         5           Cu  tau(   5) = (   0.0000000   0.0000000   1.0374254  )
         6           O   tau(   6) = (   0.5000000   0.0000000   1.0768099  )
         7           O   tau(   7) = (   0.0000000   0.4735409   1.1116985  )
         8           Ca  tau(   8) = (   0.5000000   0.4735409   1.4976260  )
         9           O   tau(   9) = (   0.0000000   0.4735409   1.8667529  )
        10           O   tau(  10) = (   0.5000000   0.0000000   1.9044124  )
        11           Cu  tau(  11) = (   0.0000000   0.0000000   1.9512546  )
        12           Ba  tau(  12) = (   0.5000000   0.4735409   2.4295764  )
        13           O   tau(  13) = (   0.0000000   0.0000000   2.5115362  )
        14           O   tau(  14) = (   0.0000000   0.4735409   2.9918528  )
        15           Cu  tau(  15) = (   0.0000000   0.0000000   2.9919088  )
        16           O   tau(  16) = (   0.0000000   0.0000000   4.7444620  )
        17           Ba  tau(  17) = (   0.5000000   0.4735409   4.8264141  )
        18           Cu  tau(  18) = (   0.0000000   0.0000000   5.3047181  )
        19           O   tau(  19) = (   0.5000000   0.0000000   5.3515603  )
        20           O   tau(  20) = (   0.0000000   0.4735409   5.3892147  )
        21           Ca  tau(  21) = (   0.5000000   0.4735409   5.7583518  )
        22           O   tau(  22) = (   0.0000000   0.4735409   6.1442767  )
        23           O   tau(  23) = (   0.5000000   0.0000000   6.1791653  )
        24           Cu  tau(  24) = (   0.0000000   0.0000000   6.2185525  )
        25           Ba  tau(  25) = (   0.5000000   0.4735409   6.6869461  )
        26           O   tau(  26) = (   0.0000000   0.0000000   6.7528737  )
        27           Cu  tau(  27) = (   0.0000000   0.0000000   7.2295136  )
        28           O   tau(  28) = (   0.0000000   0.4735409   7.3029319  )

     number of k points=    25  Gaussian smearing, width (Ry)=  0.0100
                       cart. coord. in units 2pi/alat
        k(    1) = (   0.0000000   0.0000000   0.0000000), wk =   0.0312500
        k(    2) = (   0.0000000   0.1319845   0.0000000), wk =   0.0625000
        k(    3) = (   0.0000000   0.2639689   0.0000000), wk =   0.0625000
        k(    4) = (   0.0000000   0.3959534   0.0000000), wk =   0.0625000
        k(    5) = (   0.0000000  -0.5279378   0.0000000), wk =   0.0312500
        k(    6) = (   0.1250000   0.0000000   0.0000000), wk =   0.0625000
        k(    7) = (   0.1250000   0.1319845   0.0000000), wk =   0.1250000
        k(    8) = (   0.1250000   0.2639689   0.0000000), wk =   0.1250000
        k(    9) = (   0.1250000   0.3959534   0.0000000), wk =   0.1250000
        k(   10) = (   0.1250000  -0.5279378   0.0000000), wk =   0.0625000
        k(   11) = (   0.2500000   0.0000000   0.0000000), wk =   0.0625000
        k(   12) = (   0.2500000   0.1319845   0.0000000), wk =   0.1250000
        k(   13) = (   0.2500000   0.2639689   0.0000000), wk =   0.1250000
        k(   14) = (   0.2500000   0.3959534   0.0000000), wk =   0.1250000
        k(   15) = (   0.2500000  -0.5279378   0.0000000), wk =   0.0625000
        k(   16) = (   0.3750000   0.0000000   0.0000000), wk =   0.0625000
        k(   17) = (   0.3750000   0.1319845   0.0000000), wk =   0.1250000
        k(   18) = (   0.3750000   0.2639689   0.0000000), wk =   0.1250000
        k(   19) = (   0.3750000   0.3959534   0.0000000), wk =   0.1250000
        k(   20) = (   0.3750000  -0.5279378   0.0000000), wk =   0.0625000
        k(   21) = (  -0.5000000   0.0000000   0.0000000), wk =   0.0312500
        k(   22) = (  -0.5000000   0.1319845   0.0000000), wk =   0.0625000
        k(   23) = (  -0.5000000   0.2639689   0.0000000), wk =   0.0625000
        k(   24) = (  -0.5000000   0.3959534   0.0000000), wk =   0.0625000
        k(   25) = (  -0.5000000  -0.5279378   0.0000000), wk =   0.0312500

     Dense  grid:  1564483 G-vectors     FFT dimensions: (  64,  64, 800)

     Smooth grid:   301375 G-vectors     FFT dimensions: (  40,  36, 480)

     Estimated max dynamical RAM per process >     498.50 MB

     Estimated total dynamical RAM >       9.74 GB

     Initial potential from superposition of free atoms

     starting charge  226.84630, renormalised to  227.00000

     negative rho (up, down):  3.409E-03 0.000E+00
     Starting wfcs are  195 randomized atomic wfcs

     total cpu time spent up to now is       11.7 secs

     Self-consistent Calculation

     iteration #  1     ecut=    60.00 Ry     beta= 0.50
     Davidson diagonalization with overlap
     ethr =  1.00E-02,  avg # of iterations =  2.0

     negative rho (up, down):  4.824E-04 0.000E+00

     total cpu time spent up to now is       30.6 secs

     total energy              =   -1840.74556122 Ry
     Harris-Foulkes estimate   =   -1845.36807988 Ry
     estimated scf accuracy    <      19.82789263 Ry

     iteration #  2     ecut=    60.00 Ry     beta= 0.50
     Davidson diagonalization with overlap
     ethr =  8.73E-03,  avg # of iterations =  2.0

     negative rho (up, down):  2.810E-04 0.000E+00

     total cpu time spent up to now is       48.3 secs

     total energy              =   -1842.48619122 Ry
     Harris-Foulkes estimate   =   -1843.36712036 Ry
     estimated scf accuracy    <       7.97345545 Ry

     iteration #  3     ecut=    60.00 Ry     beta= 0.50
     Davidson diagonalization with overlap
     ethr =  3.51E-03,  avg # of iterations =  1.0

     negative rho (up, down):  2.533E-04 0.000E+00

     total cpu time spent up to now is       65.1 secs

     total energy              =   -1842.80196999 Ry
     Harris-Foulkes estimate   =   -1843.04031230 Ry
     estimated scf accuracy    <       8.41316021 Ry

     iteration #  4     ecut=    60.00 Ry     beta= 0.50
     Davidson diagonalization with overlap
     ethr =  3.51E-03,  avg # of iterations =  1.0

     negative rho (up, down):  2.476E-04 0.000E+00

     total cpu time spent up to now is       81.7 secs

     total energy              =   -1842.85498768 Ry
     Harris-Foulkes estimate   =   -1842.92571543 Ry
     estimated scf accuracy    <       2.17229779 Ry

     iteration #  5     ecut=    60.00 Ry     beta= 0.50
     Davidson diagonalization with overlap
     ethr =  9.57E-04,  avg # of iterations =  1.1

     negative rho (up, down):  2.414E-04 0.000E+00

     total cpu time spent up to now is       99.3 secs

     total energy              =   -1842.82600647 Ry
     Harris-Foulkes estimate   =   -1842.89482602 Ry
     estimated scf accuracy    <       1.43362273 Ry

     iteration #  6     ecut=    60.00 Ry     beta= 0.50
     Davidson diagonalization with overlap
     ethr =  6.32E-04,  avg # of iterations =  1.3

     negative rho (up, down):  2.328E-04 0.000E+00

     total cpu time spent up to now is      115.7 secs

     total energy              =   -1842.79864440 Ry
     Harris-Foulkes estimate   =   -1842.85301166 Ry
     estimated scf accuracy    <       0.66475395 Ry

     iteration #  7     ecut=    60.00 Ry     beta= 0.50
     Davidson diagonalization with overlap
     ethr =  2.93E-04,  avg # of iterations =  5.5

     negative rho (up, down):  2.319E-04 0.000E+00

     total cpu time spent up to now is      138.8 secs

     total energy              =   -1842.80495236 Ry
     Harris-Foulkes estimate   =   -1842.81565341 Ry
     estimated scf accuracy    <       0.25500504 Ry

     iteration #  8     ecut=    60.00 Ry     beta= 0.50
     Davidson diagonalization with overlap
     ethr =  1.12E-04,  avg # of iterations =  3.6

     negative rho (up, down):  2.305E-04 0.000E+00

     total cpu time spent up to now is      158.1 secs

     total energy              =   -1842.79587218 Ry
     Harris-Foulkes estimate   =   -1842.81026239 Ry
     estimated scf accuracy    <       0.20377522 Ry

     iteration #  9     ecut=    60.00 Ry     beta= 0.50
     Davidson diagonalization with overlap
     ethr =  8.98E-05,  avg # of iterations =  3.2

     negative rho (up, down):  2.308E-04 0.000E+00

     total cpu time spent up to now is      178.2 secs

     total energy              =   -1842.79454250 Ry
     Harris-Foulkes estimate   =   -1842.80422052 Ry
     estimated scf accuracy    <       0.51821001 Ry

     iteration # 10     ecut=    60.00 Ry     beta= 0.50
     Davidson diagonalization with overlap
     ethr =  8.98E-05,  avg # of iterations =  2.8

     negative rho (up, down):  2.323E-04 0.000E+00

     total cpu time spent up to now is      196.5 secs

     total energy              =   -1842.79174611 Ry
     Harris-Foulkes estimate   =   -1842.79703230 Ry
     estimated scf accuracy    <       0.19088969 Ry

     iteration # 11     ecut=    60.00 Ry     beta= 0.50
     Davidson diagonalization with overlap
     ethr =  8.41E-05,  avg # of iterations =  1.6

     negative rho (up, down):  2.636E-04 0.000E+00

     total cpu time spent up to now is      213.8 secs

     total energy              =   -1842.78746087 Ry
     Harris-Foulkes estimate   =   -1842.79334180 Ry
     estimated scf accuracy    <       0.07530370 Ry

     iteration # 12     ecut=    60.00 Ry     beta= 0.50
     Davidson diagonalization with overlap
     ethr =  3.32E-05,  avg # of iterations =  8.0

     negative rho (up, down):  2.444E-04 0.000E+00

     total cpu time spent up to now is      240.8 secs

     total energy              =   -1842.78901925 Ry
     Harris-Foulkes estimate   =   -1842.78942663 Ry
     estimated scf accuracy    <       0.02096830 Ry

     iteration # 13     ecut=    60.00 Ry     beta= 0.50
     Davidson diagonalization with overlap
     ethr =  9.24E-06,  avg # of iterations =  2.0

     negative rho (up, down):  2.355E-04 0.000E+00

     total cpu time spent up to now is      258.6 secs

     total energy              =   -1842.78881757 Ry
     Harris-Foulkes estimate   =   -1842.78924296 Ry
     estimated scf accuracy    <       0.02310744 Ry

     iteration # 14     ecut=    60.00 Ry     beta= 0.50
     Davidson diagonalization with overlap
     ethr =  9.24E-06,  avg # of iterations =  1.1

     negative rho (up, down):  4.068E-03 0.000E+00

     total cpu time spent up to now is      275.1 secs

     total energy              =   -1842.78828377 Ry
     Harris-Foulkes estimate   =   -1842.78892971 Ry
     estimated scf accuracy    <       0.02666556 Ry

     iteration # 15     ecut=    60.00 Ry     beta= 0.50
     Davidson diagonalization with overlap
     ethr =  9.24E-06,  avg # of iterations =  2.3

     negative rho (up, down):  4.445E-03 0.000E+00

     total cpu time spent up to now is      294.1 secs

     total energy              =   -1842.78820222 Ry
     Harris-Foulkes estimate   =   -1842.78844150 Ry
     estimated scf accuracy    <       0.04518803 Ry

     iteration # 16     ecut=    60.00 Ry     beta= 0.50
     Davidson diagonalization with overlap
     ethr =  9.24E-06,  avg # of iterations =  1.0

     negative rho (up, down):  2.332E-04 0.000E+00

     total cpu time spent up to now is      310.6 secs

     total energy              =   -1842.78857420 Ry
     Harris-Foulkes estimate   =   -1842.78823901 Ry
     estimated scf accuracy    <       0.04109633 Ry

     iteration # 17     ecut=    60.00 Ry     beta= 0.50
     Davidson diagonalization with overlap
     ethr =  9.24E-06,  avg # of iterations =  2.3

     negative rho (up, down):  5.168E-04 0.000E+00

     total cpu time spent up to now is      328.5 secs

     total energy              =   -1842.78791597 Ry
     Harris-Foulkes estimate   =   -1842.78874290 Ry
     estimated scf accuracy    <       0.02164742 Ry

     iteration # 18     ecut=    60.00 Ry     beta= 0.50
     Davidson diagonalization with overlap
     ethr =  9.24E-06,  avg # of iterations =  4.2

     negative rho (up, down):  3.800E-04 0.000E+00

     total cpu time spent up to now is      349.8 secs

     total energy              =   -1842.78755603 Ry
     Harris-Foulkes estimate   =   -1842.78796541 Ry
     estimated scf accuracy    <       0.02343839 Ry

     iteration # 19     ecut=    60.00 Ry     beta= 0.50
     Davidson diagonalization with overlap
     ethr =  9.24E-06,  avg # of iterations =  1.5

     negative rho (up, down):  9.005E-04 0.000E+00

     total cpu time spent up to now is      367.0 secs

     total energy              =   -1842.78586157 Ry
     Harris-Foulkes estimate   =   -1842.78759594 Ry
     estimated scf accuracy    <       0.01617503 Ry

     iteration # 20     ecut=    60.00 Ry     beta= 0.50
     Davidson diagonalization with overlap
     ethr =  7.13E-06,  avg # of iterations =  5.1

     negative rho (up, down):  2.031E-02 0.000E+00

     total cpu time spent up to now is      389.6 secs

     total energy              =   -1842.78498082 Ry
     Harris-Foulkes estimate   =   -1842.78608586 Ry
     estimated scf accuracy    <       0.01067146 Ry

     iteration # 21     ecut=    60.00 Ry     beta= 0.50
     Davidson diagonalization with overlap
     ethr =  4.70E-06,  avg # of iterations =  9.3

     negative rho (up, down):  1.676E-02 0.000E+00

     total cpu time spent up to now is      418.9 secs

     total energy              =   -1842.78475833 Ry
     Harris-Foulkes estimate   =   -1842.78526133 Ry
     estimated scf accuracy    <       0.00267500 Ry

     iteration # 22     ecut=    60.00 Ry     beta= 0.50
     Davidson diagonalization with overlap
     c_bands:  1 eigenvalues not converged
     ethr =  1.18E-06,  avg # of iterations = 10.3

     negative rho (up, down):  8.070E-03 0.000E+00

     total cpu time spent up to now is      448.4 secs

     total energy              =   -1842.78443327 Ry
     Harris-Foulkes estimate   =   -1842.78482052 Ry
     estimated scf accuracy    <       0.00101375 Ry

     iteration # 23     ecut=    60.00 Ry     beta= 0.50
     Davidson diagonalization with overlap
     c_bands:  1 eigenvalues not converged
     c_bands:  1 eigenvalues not converged
     c_bands:  1 eigenvalues not converged
     ethr =  4.47E-07,  avg # of iterations = 10.1

     negative rho (up, down):  5.050E-03 0.000E+00

     total cpu time spent up to now is      477.4 secs

     total energy              =   -1842.78447510 Ry
     Harris-Foulkes estimate   =   -1842.78448761 Ry
     estimated scf accuracy    <       0.00161826 Ry

     iteration # 24     ecut=    60.00 Ry     beta= 0.50
     Davidson diagonalization with overlap
     c_bands:  1 eigenvalues not converged
     ethr =  4.47E-07,  avg # of iterations =  5.2

     negative rho (up, down):  3.796E-03 0.000E+00

     total cpu time spent up to now is      499.9 secs

     total energy              =   -1842.78448640 Ry
     Harris-Foulkes estimate   =   -1842.78450346 Ry
     estimated scf accuracy    <       0.00023908 Ry

     iteration # 25     ecut=    60.00 Ry     beta= 0.50
     Davidson diagonalization with overlap
     c_bands:  1 eigenvalues not converged
     c_bands:  1 eigenvalues not converged
     ethr =  1.05E-07,  avg # of iterations =  5.5

     negative rho (up, down):  1.865E-03 0.000E+00

     total cpu time spent up to now is      522.0 secs

     total energy              =   -1842.78446189 Ry
     Harris-Foulkes estimate   =   -1842.78449233 Ry
     estimated scf accuracy    <       0.00011842 Ry

     iteration # 26     ecut=    60.00 Ry     beta= 0.50
     Davidson diagonalization with overlap
     c_bands:  1 eigenvalues not converged
     ethr =  5.22E-08,  avg # of iterations =  7.0

     negative rho (up, down):  1.376E-03 0.000E+00

     total cpu time spent up to now is      547.7 secs

     total energy              =   -1842.78446533 Ry
     Harris-Foulkes estimate   =   -1842.78446975 Ry
     estimated scf accuracy    <       0.00028204 Ry

     iteration # 27     ecut=    60.00 Ry     beta= 0.50
     Davidson diagonalization with overlap
     ethr =  5.22E-08,  avg # of iterations =  1.0

     negative rho (up, down):  1.826E-03 0.000E+00

     total cpu time spent up to now is      564.8 secs

     total energy              =   -1842.78446747 Ry
     Harris-Foulkes estimate   =   -1842.78446785 Ry
     estimated scf accuracy    <       0.00007736 Ry

     iteration # 28     ecut=    60.00 Ry     beta= 0.50
     Davidson diagonalization with overlap
     ethr =  3.41E-08,  avg # of iterations =  1.0

     negative rho (up, down):  1.292E-03 0.000E+00

     total cpu time spent up to now is      581.2 secs

     total energy              =   -1842.78446641 Ry
     Harris-Foulkes estimate   =   -1842.78446834 Ry
     estimated scf accuracy    <       0.00001897 Ry

     iteration # 29     ecut=    60.00 Ry     beta= 0.50
     Davidson diagonalization with overlap
     ethr =  8.36E-09,  avg # of iterations =  1.4

     negative rho (up, down):  1.294E-03 0.000E+00

     total cpu time spent up to now is      598.0 secs

     total energy              =   -1842.78446757 Ry
     Harris-Foulkes estimate   =   -1842.78446722 Ry
     estimated scf accuracy    <       0.00002617 Ry

     iteration # 30     ecut=    60.00 Ry     beta= 0.50
     Davidson diagonalization with overlap
     ethr =  8.36E-09,  avg # of iterations =  1.0

     negative rho (up, down):  1.383E-03 0.000E+00

     total cpu time spent up to now is      615.5 secs

     total energy              =   -1842.78446719 Ry
     Harris-Foulkes estimate   =   -1842.78446769 Ry
     estimated scf accuracy    <       0.00001865 Ry

     iteration # 31     ecut=    60.00 Ry     beta= 0.50
     Davidson diagonalization with overlap
     ethr =  8.22E-09,  avg # of iterations =  1.1

     negative rho (up, down):  1.457E-03 0.000E+00

     total cpu time spent up to now is      632.4 secs

     total energy              =   -1842.78446720 Ry
     Harris-Foulkes estimate   =   -1842.78446739 Ry
     estimated scf accuracy    <       0.00000635 Ry

     iteration # 32     ecut=    60.00 Ry     beta= 0.50
     Davidson diagonalization with overlap
     ethr =  2.80E-09,  avg # of iterations =  1.0

     negative rho (up, down):  1.454E-03 0.000E+00

     total cpu time spent up to now is      648.7 secs

     total energy              =   -1842.78446734 Ry
     Harris-Foulkes estimate   =   -1842.78446727 Ry
     estimated scf accuracy    <       0.00000243 Ry

     iteration # 33     ecut=    60.00 Ry     beta= 0.50
     Davidson diagonalization with overlap
     ethr =  1.07E-09,  avg # of iterations =  1.4

     negative rho (up, down):  1.483E-03 0.000E+00

     total cpu time spent up to now is      667.0 secs

     total energy              =   -1842.78446732 Ry
     Harris-Foulkes estimate   =   -1842.78446738 Ry
     estimated scf accuracy    <       0.00000052 Ry

     iteration # 34     ecut=    60.00 Ry     beta= 0.50
     Davidson diagonalization with overlap
     ethr =  2.31E-10,  avg # of iterations =  3.0

     negative rho (up, down):  1.495E-03 0.000E+00

     total cpu time spent up to now is      686.3 secs

     total energy              =   -1842.78446732 Ry
     Harris-Foulkes estimate   =   -1842.78446734 Ry
     estimated scf accuracy    <       0.00000008 Ry

     iteration # 35     ecut=    60.00 Ry     beta= 0.50
     Davidson diagonalization with overlap
     ethr =  3.69E-11,  avg # of iterations =  3.4

     negative rho (up, down):  1.490E-03 0.000E+00

     total cpu time spent up to now is      707.5 secs

     total energy              =   -1842.78446733 Ry
     Harris-Foulkes estimate   =   -1842.78446733 Ry
     estimated scf accuracy    <       0.00000005 Ry

     iteration # 36     ecut=    60.00 Ry     beta= 0.50
     Davidson diagonalization with overlap
     ethr =  2.21E-11,  avg # of iterations =  1.1

     negative rho (up, down):  1.490E-03 0.000E+00

     total cpu time spent up to now is      724.4 secs

     total energy              =   -1842.78446733 Ry
     Harris-Foulkes estimate   =   -1842.78446733 Ry
     estimated scf accuracy    <       0.00000002 Ry

     iteration # 37     ecut=    60.00 Ry     beta= 0.50
     Davidson diagonalization with overlap
     ethr =  7.24E-12,  avg # of iterations =  2.8

     negative rho (up, down):  1.486E-03 0.000E+00

     total cpu time spent up to now is      743.1 secs

     total energy              =   -1842.78446733 Ry
     Harris-Foulkes estimate   =   -1842.78446733 Ry
     estimated scf accuracy    <       0.00000001 Ry

     iteration # 38     ecut=    60.00 Ry     beta= 0.50
     Davidson diagonalization with overlap
     ethr =  6.10E-12,  avg # of iterations =  1.0

     negative rho (up, down):  1.473E-03 0.000E+00

     total cpu time spent up to now is      758.9 secs

     End of self-consistent calculation

          k = 0.0000 0.0000 0.0000 ( 37745 PWs)   bands (ev):

   -36.3001 -36.2756 -23.4576 -23.4540 -23.3072 -23.3028 -17.8008 -17.7818
   -17.3517 -17.3415 -17.3286 -17.3148 -15.9978 -15.9887 -15.3429 -15.3382
   -15.3248 -15.2726 -15.2617 -14.8445 -14.8418 -14.6696 -14.6570 -14.5719
   -14.5336 -14.5184 -13.3553  -8.5900  -8.5891  -8.5510  -8.5478  -8.5452
    -8.4440  -8.3690  -8.3582  -8.3548  -8.2720  -8.1960  -8.0716  -2.9914
    -2.9912  -2.6695  -2.5186  -2.5161  -2.4923  -2.4877  -2.3629  -2.3461
    -2.2502  -2.2302  -2.1974  -2.1867  -1.8820  -1.8779  -1.5347  -1.1209
    -1.1188  -1.0424  -1.0383  -1.0362  -1.0125  -0.9876  -0.9702  -0.9531
    -0.9516  -0.9335  -0.9287  -0.9275  -0.9252  -0.8671  -0.8533  -0.7023
    -0.6985  -0.6745  -0.6028  -0.5794  -0.5740  -0.5670  -0.5622  -0.5593
    -0.5178  -0.5062  -0.4983  -0.4828  -0.4614  -0.4316  -0.3790  -0.3315
    -0.1625   0.1169   0.2103   0.2185   0.2216   0.2621   0.3006   0.4980
     0.5024   0.6589   0.6821   0.6932   0.7093   0.7904   0.8137   0.8344
     0.8427   0.8600   0.8655   1.1256   1.1545   1.2025   1.3617   1.3768
     1.4145   1.5554   1.6740   1.6758   1.7801   1.8701   1.8815   4.3693
     4.5558   4.5628   5.3853   5.5106   5.8283   6.0840   6.0974   6.2683
     6.3266   7.3032   7.4201   7.4643   7.6606   7.8435   7.8838   7.9725
     8.1090

          k = 0.0000 0.1320 0.0000 ( 37695 PWs)   bands (ev):

   -36.2983 -36.2738 -23.4309 -23.4273 -23.2815 -23.2795 -17.7648 -17.7457
   -17.4137 -17.3872 -17.3494 -17.3262 -15.9087 -15.9000 -15.3485 -15.3445
   -15.2874 -15.2448 -15.2318 -14.8547 -14.8511 -14.6737 -14.6579 -14.6224
   -14.5628 -14.5625 -13.4157  -8.5894  -8.5873  -8.5467  -8.5032  -8.5000
    -8.4424  -8.3999  -8.3966  -8.3232  -8.2459  -8.2324  -8.1016  -3.0527
    -3.0509  -2.8897  -2.8717  -2.7916  -2.7739  -2.6465  -2.3407  -2.3255
    -2.3068  -2.3026  -2.2333  -2.2142  -2.1189  -2.0219  -2.0179  -1.3754
    -1.3040  -1.2836  -1.2190  -1.2163  -1.1305  -1.1255  -1.0772  -1.0769
    -0.9865  -0.9310  -0.8919  -0.8597  -0.8430  -0.8215  -0.8095  -0.8065
    -0.7818  -0.6806  -0.6768  -0.6740  -0.6670  -0.5974  -0.5765  -0.5601
    -0.5389  -0.5378  -0.5096  -0.4428  -0.3884  -0.3715  -0.3352  -0.3020
     0.0956   0.2851   0.3182   0.3959   0.4153   0.4182   0.4633   0.4635
     0.4891   0.5028   0.5079   0.7477   0.7731   0.7953   0.7972   0.8960
     0.9040   0.9240   1.0060   1.0943   1.1395   1.1826   1.2957   1.3349
     1.3720   1.5430   1.5554   1.8499   1.9213   2.1588   2.1615   4.6881
     4.9311   4.9330   5.6903   5.8062   6.0074   6.3927   6.4017   6.5630
     6.6406   7.4814   7.6187   7.6770   7.8527   8.0187   8.1300   8.1711
     8.2834

          k = 0.0000 0.2640 0.0000 ( 37591 PWs)   bands (ev):

   -36.2939 -36.2694 -23.3650 -23.3615 -23.2221 -23.2180 -17.6733 -17.6541
   -17.5675 -17.5413 -17.3437 -17.3206 -15.7046 -15.6969 -15.4036 -15.3963
   -15.2362 -15.1607 -15.1555 -14.8438 -14.8374 -14.7366 -14.7013 -14.6949
   -14.6502 -14.6080 -13.5546  -8.5888  -8.5854  -8.5477  -8.4910  -8.4873
    -8.4390  -8.3828  -8.3795  -8.3530  -8.2081  -8.1647  -8.1337  -3.5113
    -3.5029  -3.3645  -3.3461  -3.1080  -3.0912  -3.0888  -2.9428  -2.9405
    -2.6500  -2.2819  -2.2709  -2.1981  -2.1780  -2.1672  -2.1619  -1.9222
    -1.6980  -1.6052  -1.4720  -1.4687  -1.3462  -1.3331  -1.2752  -1.2530
    -1.2193  -1.2081  -1.1962  -1.1619  -1.1582  -1.1566  -1.0698  -1.0403
    -0.8573  -0.6521  -0.6482  -0.6165  -0.5903  -0.5722  -0.5426  -0.5320
    -0.4555  -0.4209  -0.3136  -0.2809  -0.0765  -0.0745   0.0258   0.0441
     0.2711   0.2893   0.2903   0.4541   0.4630   0.5009   0.5030   0.5455
     0.5580   0.6111   0.6185   0.6542   0.7419   0.8872   0.9558   0.9894
     1.0140   1.1120   1.1973   1.2013   1.2627   1.2924   1.3001   1.3106
     1.3144   1.4014   1.4875   1.9979   2.2904   2.3876   2.4088   5.4491
     5.8244   5.8271   6.3716   6.5825   6.6135   7.2197   7.2247   7.3659
     7.5085   7.9830   8.0973   8.1616   8.1943   8.2854   8.4235   8.5660
     8.6018

          k = 0.0000 0.3960 0.0000 ( 37522 PWs)   bands (ev):

   -36.2895 -36.2649 -23.2969 -23.2933 -23.1631 -23.1524 -17.7043 -17.6778
   -17.5715 -17.5523 -17.3381 -17.3149 -15.6013 -15.5994 -15.3994 -15.3712
   -15.2595 -15.0943 -15.0376 -14.8009 -14.7971 -14.7826 -14.7796 -14.7530
   -14.7171 -14.6592 -13.6816  -8.5887  -8.5855  -8.5691  -8.5656  -8.5464
    -8.4629  -8.4194  -8.2544  -8.2511  -8.2167  -8.0858  -8.0301  -3.9688
    -3.9591  -3.8837  -3.7849  -3.7636  -3.6585  -3.6548  -3.0335  -3.0329
    -2.6802  -2.5100  -2.4846  -2.3037  -2.2118  -2.2056  -2.0803  -2.0705
    -1.9381  -1.8199  -1.7426  -1.7388  -1.5887  -1.5604  -1.5462  -1.4942
    -1.4715  -1.4538  -1.4216  -1.4063  -1.3919  -1.3582  -1.1056  -1.0610
    -0.8355  -0.7055  -0.6350  -0.6310  -0.5872  -0.5396  -0.5317  -0.5162
    -0.4892  -0.4631  -0.1986  -0.1675   0.0828   0.0936   0.2527   0.2562
     0.2758   0.2989   0.3575   0.3824   0.4005   0.4407   0.4728   0.4747
     0.5507   0.7085   0.8753   0.9409   0.9419   1.0263   1.0341   1.0367
     1.0449   1.1281   1.2095   1.2846   1.2852   1.3874   1.4423   1.5488
     1.7051   1.7087   1.7327   1.9656   2.2292   2.2938   2.4150   6.3557
     6.7702   6.7730   7.0503   7.5289   7.5612   8.0120   8.0124   8.0502
     8.1620   8.3724   8.3752   8.3940   8.4220   8.5388   8.7269   8.7426
     8.8285

          k = 0.0000-0.5279 0.0000 ( 37586 PWs)   bands (ev):

   -36.2876 -36.2631 -23.2680 -23.2643 -23.1381 -23.1246 -17.7563 -17.7298
   -17.5268 -17.5076 -17.3357 -17.3125 -15.6426 -15.6392 -15.3369 -15.2647
   -15.2617 -15.0745 -14.9788 -14.8408 -14.8378 -14.7866 -14.7404 -14.7328
   -14.7323 -14.7240 -13.7304  -8.5987  -8.5952  -8.5883  -8.5855  -8.5450
    -8.4938  -8.4224  -8.2356  -8.1985  -8.1952  -8.0327  -7.9857  -4.1623
    -4.1361  -4.1284  -3.9541  -3.9440  -3.8876  -3.8841  -3.0496  -3.0492
    -2.6901  -2.6341  -2.6118  -2.4395  -2.1767  -2.1730  -2.0358  -1.9958
    -1.9939  -1.9108  -1.8694  -1.8636  -1.7162  -1.6814  -1.6652  -1.6047
    -1.5605  -1.5336  -1.4992  -1.4962  -1.4705  -1.4433  -1.0887  -1.0265
    -0.8017  -0.7552  -0.6293  -0.6253  -0.6182  -0.5322  -0.5113  -0.5111
    -0.4946  -0.4446  -0.2778  -0.2638   0.1261   0.1335   0.1713   0.1816
     0.3265   0.3457   0.3498   0.4065   0.4557   0.4578   0.5234   0.5856
     0.6095   0.6270   0.8300   0.9613   1.0204   1.0369   1.0447   1.1996
     1.3088   1.3142   1.3220   1.3222   1.3310   1.3747   1.3816   1.7894
     1.8635   1.8667   1.8703   1.9106   2.0503   2.1423   2.3183   7.0238
     7.1816   7.1847   7.4443   7.7253   8.0777   8.1828   8.2580   8.2883
     8.2969   8.3103   8.3517   8.4194   8.6502   8.6563   8.7195   8.7663
     9.2053

          k = 0.1250 0.0000 0.0000 ( 37695 PWs)   bands (ev):

   -36.2990 -36.2745 -23.4396 -23.4360 -23.2897 -23.2878 -17.7676 -17.7484
   -17.4314 -17.4095 -17.3401 -17.3134 -15.8950 -15.8847 -15.3882 -15.3845
   -15.3532 -15.2766 -15.2668 -14.8535 -14.8506 -14.6793 -14.6679 -14.5916
   -14.5591 -14.5390 -13.4268  -8.6155  -8.6125  -8.5465  -8.4916  -8.4857
    -8.4857  -8.3258  -8.3223  -8.3014  -8.2215  -8.1650  -8.0453  -3.0347
    -3.0340  -2.7393  -2.5456  -2.5426  -2.5145  -2.5000  -2.4978  -2.4957
    -2.4596  -2.4559  -2.1628  -2.1486  -1.8799  -1.8759  -1.5626  -1.3178
    -1.3115  -1.1808  -1.1742  -1.1328  -1.1236  -1.1100  -1.0127  -1.0027
    -1.0006  -0.9570  -0.9545  -0.9526  -0.8937  -0.8834  -0.8525  -0.8289
    -0.7470  -0.6989  -0.5931  -0.5695  -0.5667  -0.5142  -0.5107  -0.4840
    -0.4741  -0.4692  -0.4498  -0.4398  -0.3857  -0.3646  -0.3114  -0.2320
    -0.1648   0.1260   0.1341   0.1518   0.2307   0.2952   0.3442   0.4811
     0.4967   0.5378   0.5467   0.6718   0.6987   0.8051   0.8068   0.8162
     0.8743   0.8947   1.1457   1.2057   1.2942   1.3082   1.3289   1.3636
     1.3711   1.5508   1.6018   1.6812   1.7400   1.9058   1.9155   4.5321
     4.7359   4.7374   5.6190   5.7308   5.9630   6.3001   6.3104   6.4670
     6.5567   7.4443   7.5542   7.6077   7.8364   7.9774   8.1352   8.2018
     8.3065

          k = 0.1250 0.1320 0.0000 ( 37662 PWs)   bands (ev):

   -36.2972 -36.2727 -23.4137 -23.4101 -23.2650 -23.2647 -17.7326 -17.7133
   -17.4346 -17.4118 -17.4029 -17.3772 -15.8129 -15.8029 -15.3841 -15.3799
   -15.3141 -15.2444 -15.2353 -14.8548 -14.8513 -14.6798 -14.6687 -14.6353
   -14.5864 -14.5805 -13.4687  -8.6341  -8.6307  -8.5533  -8.5523  -8.5413
    -8.4882  -8.3870  -8.3093  -8.2878  -8.2845  -8.1292  -8.0005  -3.0901
    -3.0876  -2.8982  -2.8642  -2.7789  -2.7514  -2.6689  -2.5243  -2.5204
    -2.4865  -2.4736  -2.3010  -2.2967  -2.1311  -2.0123  -2.0105  -1.5085
    -1.4770  -1.3741  -1.3404  -1.3347  -1.2748  -1.2699  -1.1671  -1.1641
    -1.0850  -0.9560  -0.9416  -0.8924  -0.8701  -0.8534  -0.8453  -0.8027
    -0.7593  -0.7357  -0.7045  -0.6624  -0.6618  -0.5683  -0.5244  -0.5092
    -0.4971  -0.4938  -0.4258  -0.4111  -0.3639  -0.3341  -0.1827  -0.1422
     0.1163   0.3498   0.3656   0.3799   0.4133   0.4636   0.4738   0.5342
     0.5512   0.5737   0.5788   0.6129   0.6234   0.6432   0.6627   0.9204
     0.9308   0.9329   0.9952   0.9990   1.0490   1.2085   1.3943   1.6617
     1.6810   1.7321   1.7744   1.9191   1.9333   2.1639   2.1677   4.8175
     5.0730   5.0753   5.8790   5.9832   6.1234   6.6007   6.6080   6.7523
     6.8642   7.6200   7.7365   7.8012   8.0037   8.1237   8.2830   8.3467
     8.4491

          k = 0.1250 0.2640 0.0000 ( 37577 PWs)   bands (ev):

   -36.2928 -36.2683 -23.3499 -23.3463 -23.2090 -23.2031 -17.6442 -17.6246
   -17.5642 -17.5381 -17.4142 -17.3920 -15.6309 -15.6227 -15.3961 -15.3859
   -15.2437 -15.1583 -15.1513 -14.8387 -14.8335 -14.7415 -14.7176 -14.7108
   -14.6468 -14.6145 -13.5671  -8.7027  -8.6993  -8.5896  -8.5857  -8.5451
    -8.5426  -8.4433  -8.4032  -8.2786  -8.2753  -8.1268  -7.9973  -3.5363
    -3.5269  -3.3696  -3.3496  -3.0993  -3.0916  -3.0895  -2.9424  -2.9397
    -2.6900  -2.4739  -2.4658  -2.4369  -2.4217  -2.1935  -2.1692  -1.9355
    -1.7106  -1.6632  -1.6486  -1.6216  -1.5808  -1.5803  -1.3598  -1.3560
    -1.3005  -1.2577  -1.2186  -1.1847  -1.1685  -1.1085  -1.0662  -1.0479
    -0.9260  -0.8217  -0.7848  -0.6739  -0.6248  -0.4887  -0.4625  -0.4267
    -0.3221  -0.2319  -0.2024  -0.1678   0.0639   0.0847   0.1068   0.1158
     0.3361   0.3603   0.3757   0.4177   0.4261   0.5290   0.6072   0.6076
     0.6531   0.6543   0.7279   0.7308   0.8119   0.8155   0.8731   0.8811
     0.9589   0.9596   1.0213   1.2699   1.2776   1.2782   1.3526   1.7446
     1.8486   1.8795   1.9431   2.1201   2.2948   2.3989   2.4215   5.5355
     5.8853   5.8880   6.4637   6.6644   6.6867   7.3870   7.3901   7.5038
     7.7043   8.0916   8.1441   8.2040   8.2493   8.3144   8.4224   8.4636
     8.5116

          k = 0.1250 0.3960 0.0000 ( 37572 PWs)   bands (ev):

   -36.2884 -36.2639 -23.2839 -23.2803 -23.1515 -23.1396 -17.6991 -17.6727
   -17.5452 -17.5258 -17.4056 -17.3834 -15.5653 -15.5635 -15.3368 -15.2954
   -15.2212 -15.0797 -15.0286 -14.8314 -14.8310 -14.7814 -14.7713 -14.7469
   -14.7020 -14.6510 -13.6594  -8.7332  -8.7297  -8.6041  -8.5998  -8.5973
    -8.5488  -8.4387  -8.4028  -8.3237  -8.3204  -8.1651  -8.0703  -4.0117
    -4.0017  -3.8824  -3.8083  -3.7828  -3.6497  -3.6460  -3.0420  -3.0412
    -2.7113  -2.4628  -2.4566  -2.3699  -2.3446  -2.3398  -2.3058  -2.1707
    -2.0054  -1.9998  -1.8904  -1.8729  -1.8664  -1.7914  -1.5765  -1.5664
    -1.5343  -1.5298  -1.4670  -1.4217  -1.4200  -1.2989  -1.1066  -1.0682
    -0.9443  -0.8544  -0.8109  -0.6498  -0.5773  -0.4615  -0.4574  -0.3961
    -0.3060  -0.2123  -0.0243   0.0101   0.2284   0.2366   0.2701   0.2898
     0.3611   0.3769   0.3854   0.4685   0.4849   0.5613   0.5668   0.5723
     0.6881   0.7380   0.9568   0.9647   1.0206   1.0383   1.0663   1.1251
     1.1425   1.1843   1.1912   1.4920   1.6721   1.6723   1.6761   1.7164
     1.8013   1.8280   1.9274   2.0675   2.2462   2.3538   2.4442   6.3802
     6.6340   6.6368   7.0332   7.3965   7.4399   7.9181   7.9950   7.9999
     8.1239   8.1909   8.2462   8.6520   8.6846   8.6988   8.8490   8.8884
     8.9802

          k = 0.1250-0.5279 0.0000 ( 37528 PWs)   bands (ev):

   -36.2866 -36.2621 -23.2560 -23.2524 -23.1272 -23.1127 -17.7506 -17.7242
   -17.5022 -17.4827 -17.4018 -17.3795 -15.5975 -15.5945 -15.2940 -15.1894
   -15.1876 -15.0482 -14.9640 -14.8742 -14.8730 -14.7635 -14.7380 -14.7354
   -14.7319 -14.7085 -13.6952  -8.7279  -8.7244  -8.6159  -8.6059  -8.6024
    -8.5503  -8.4377  -8.3658  -8.3579  -8.3547  -8.1886  -8.1341  -4.2000
    -4.1864  -4.1369  -3.9853  -3.9762  -3.8791  -3.8754  -3.0629  -3.0623
    -2.7168  -2.4960  -2.4874  -2.4001  -2.2819  -2.2710  -2.2078  -2.1989
    -2.1916  -2.1438  -2.0528  -2.0381  -1.9441  -1.8729  -1.6740  -1.6723
    -1.6131  -1.6102  -1.5575  -1.5142  -1.5122  -1.3692  -1.0944  -1.0416
    -0.9469  -0.8653  -0.8246  -0.6363  -0.5541  -0.4501  -0.4462  -0.3815
    -0.3045  -0.2218  -0.0538  -0.0400   0.2585   0.2611   0.2880   0.2955
     0.3229   0.3417   0.3705   0.4660   0.5894   0.6021   0.6289   0.6428
     0.6610   0.7870   0.8585   1.0834   1.0853   1.3100   1.3104   1.3239
     1.3272   1.3677   1.3723   1.6158   1.6697   1.6942   1.7746   1.8094
     1.8375   1.8411   1.9004   1.9225   2.1028   2.2492   2.3540   6.8522
     6.8575   6.8743   7.5131   7.5192   7.5797   7.7465   8.1150   8.2506
     8.3761   8.5178   8.6345   8.6392   8.8439   8.9358   8.9926   9.0258
     9.2954

          k = 0.2500 0.0000 0.0000 ( 37694 PWs)   bands (ev):

   -36.2964 -36.2719 -23.3953 -23.3917 -23.2509 -23.2467 -17.6832 -17.6632
   -17.5945 -17.5744 -17.3368 -17.3101 -15.6857 -15.6755 -15.4953 -15.4755
   -15.4270 -15.2925 -15.2858 -14.8680 -14.8645 -14.7248 -14.7120 -14.6277
   -14.6044 -14.5786 -13.5910  -8.6170  -8.6132  -8.5338  -8.5108  -8.4026
    -8.3994  -8.2451  -8.2416  -8.2241  -8.1143  -8.0880  -7.9804  -3.2341
    -3.2273  -3.0775  -2.9863  -2.8761  -2.8714  -2.6554  -2.4472  -2.4444
    -2.3635  -2.3611  -2.1793  -2.1443  -1.8765  -1.8726  -1.6451  -1.6437
    -1.6078  -1.4495  -1.4389  -1.4327  -1.3767  -1.3657  -1.3048  -1.1939
    -1.1920  -1.0090  -0.9874  -0.9727  -0.9671  -0.9286  -0.9070  -0.9015
    -0.8735  -0.7197  -0.5822  -0.5793  -0.5281  -0.4934  -0.4642  -0.4292
    -0.3421  -0.3418  -0.3385  -0.3003  -0.2992  -0.1905  -0.1766  -0.1252
    -0.1215  -0.0110  -0.0047   0.0975   0.2350   0.2388   0.3731   0.5977
     0.6027   0.6321   0.6358   0.6702   0.7156   0.7408   0.7486   0.8040
     0.8567   0.9225   1.1333   1.1866   1.2258   1.2642   1.3495   1.3520
     1.4646   1.6050   1.6300   1.7643   1.8857   2.0111   2.0275   4.9533
     5.1920   5.1942   6.1923   6.3215   6.3710   6.8792   6.8886   7.0061
     7.2129   7.7561   7.8223   7.9527   8.1163   8.2309   8.4010   8.6437
     8.7356

          k = 0.2500 0.1320 0.0000 ( 37671 PWs)   bands (ev):

   -36.2946 -36.2700 -23.3714 -23.3678 -23.2296 -23.2236 -17.6515 -17.6315
   -17.5879 -17.5676 -17.4028 -17.3762 -15.6305 -15.6221 -15.4548 -15.4292
   -15.3760 -15.2571 -15.2480 -14.8537 -14.8500 -14.7184 -14.7078 -14.6509
   -14.6305 -14.6149 -13.5932  -8.6848  -8.6812  -8.5516  -8.5434  -8.5396
    -8.5340  -8.3796  -8.3274  -8.2115  -8.2081  -8.0629  -7.9278  -3.2874
    -3.2775  -3.1149  -3.0176  -2.8677  -2.8626  -2.7854  -2.7852  -2.6904
    -2.6755  -2.6179  -2.2912  -2.2869  -2.1671  -2.0656  -2.0633  -1.7199
    -1.6847  -1.6718  -1.6313  -1.6098  -1.5966  -1.4223  -1.2986  -1.2974
    -1.2477  -1.2284  -1.0330  -1.0068  -0.9330  -0.9128  -0.8938  -0.8647
    -0.8436  -0.7033  -0.6884  -0.6499  -0.6422  -0.5774  -0.5064  -0.4825
    -0.4247  -0.3445  -0.3202  -0.2969  -0.1194  -0.0402   0.0673   0.0987
     0.1596   0.2408   0.2477   0.3367   0.3673   0.4283   0.4838   0.5333
     0.5411   0.6905   0.6954   0.7182   0.7312   0.7533   0.8123   0.8173
     0.8401   0.8535   0.9489   1.0605   1.0675   1.0879   1.4850   1.8447
     1.9281   2.0109   2.0142   2.1534   2.1735   2.2167   2.2246   5.1826
     5.4530   5.4554   6.3532   6.4723   6.5035   7.1424   7.1483   7.2490
     7.4935   7.8644   7.9243   8.0782   8.2125   8.3315   8.4791   8.4929
     8.5547

          k = 0.2500 0.2640 0.0000 ( 37627 PWs)   bands (ev):

   -36.2902 -36.2657 -23.3127 -23.3091 -23.1772 -23.1668 -17.5911 -17.5699
   -17.5606 -17.5397 -17.5387 -17.5138 -15.5304 -15.5271 -15.3437 -15.2937
   -15.2475 -15.1685 -15.1460 -14.8335 -14.8266 -14.7722 -14.7547 -14.6972
   -14.6481 -14.6326 -13.5989  -8.9047  -8.9013  -8.7418  -8.6130  -8.6021
    -8.5979  -8.5284  -8.4551  -8.3313  -8.3279  -8.1896  -8.0430  -3.6790
    -3.6623  -3.4542  -3.4103  -3.1078  -3.1033  -3.0749  -2.9781  -2.9724
    -2.9327  -2.8829  -2.8367  -2.8299  -2.6171  -2.1405  -2.1304  -2.0913
    -2.0852  -2.0262  -1.9864  -1.8463  -1.6733  -1.6511  -1.4129  -1.4065
    -1.4036  -1.3533  -1.2636  -1.2574  -1.2556  -1.1537  -1.1287  -1.0854
    -1.0542  -0.9509  -0.9326  -0.6813  -0.5413  -0.3843  -0.2876  -0.2609
    -0.1249  -0.0335   0.0850   0.1418   0.1505   0.1703   0.2898   0.3042
     0.3899   0.4643   0.4953   0.5765   0.5813   0.6146   0.6819   0.6858
     0.7609   0.7711   0.8216   0.8264   0.8470   0.8988   0.9131   0.9596
     0.9987   1.0360   1.0948   1.1943   1.1957   1.2155   1.6507   1.8555
     2.2638   2.3314   2.3417   2.5850   2.5930   2.7108   2.7159   5.7555
     5.9943   5.9969   6.6729   6.8612   6.9049   7.6748   7.6803   7.6848
     8.0126   8.0823   8.1775   8.3467   8.3711   8.5295   8.6421   8.6449
     8.6881

          k = 0.2500 0.3960 0.0000 ( 37614 PWs)   bands (ev):

   -36.2859 -36.2613 -23.2523 -23.2487 -23.1235 -23.1084 -17.6870 -17.6607
   -17.5536 -17.5334 -17.4765 -17.4559 -15.4824 -15.4813 -15.2225 -15.1189
   -15.1128 -15.0657 -15.0103 -14.9011 -14.8947 -14.7655 -14.7540 -14.7291
   -14.6678 -14.6379 -13.6044  -9.0248  -9.0213  -8.8778  -8.7090  -8.6521
    -8.6483  -8.5550  -8.5455  -8.5418  -8.4718  -8.4061  -8.2873  -4.1767
    -4.1618  -3.9506  -3.9066  -3.8056  -3.6287  -3.6249  -3.1168  -3.1132
    -2.9334  -2.8461  -2.7961  -2.7792  -2.5972  -2.4772  -2.4649  -2.3505
    -2.3222  -2.1397  -2.1097  -1.9838  -1.8616  -1.8516  -1.6616  -1.5865
    -1.4977  -1.4772  -1.4725  -1.4624  -1.4551  -1.3014  -1.2519  -1.1332
    -1.1154  -1.0076  -0.9738  -0.5726  -0.4297  -0.3375  -0.2228  -0.2100
     0.0249   0.1915   0.3013   0.3145   0.3214   0.3240   0.4422   0.5588
     0.5643   0.6048   0.6203   0.6455   0.6507   0.7581   0.8380   0.8556
     0.9654   0.9718   1.0153   1.0289   1.0894   1.0981   1.1468   1.1666
     1.2136   1.2164   1.4949   1.5465   1.5936   1.5968   1.6688   1.7827
     2.1447   2.1675   2.3398   2.8078   2.8138   2.9590   2.9613   6.1895
     6.2026   6.2315   6.9479   7.0211   7.2142   7.8392   8.0254   8.1256
     8.1436   8.3149   8.3967   8.8556   8.9934   9.0076   9.0686   9.1294
     9.1611

          k = 0.2500-0.5279 0.0000 ( 37612 PWs)   bands (ev):

   -36.2840 -36.2595 -23.2268 -23.2232 -23.1008 -23.0837 -17.7371 -17.7108
   -17.5481 -17.5278 -17.4372 -17.4167 -15.4793 -15.4775 -15.1815 -15.0405
   -15.0362 -14.9900 -14.9570 -14.9477 -14.9344 -14.7349 -14.7312 -14.7260
   -14.7049 -14.6751 -13.6063  -9.0250  -9.0214  -8.8995  -8.7397  -8.7363
    -8.6727  -8.6122  -8.6088  -8.5714  -8.5350  -8.4675  -8.4526  -4.3756
    -4.3605  -4.1690  -4.1022  -4.0570  -3.8564  -3.8525  -3.1234  -3.1205
    -2.9046  -2.8063  -2.7552  -2.7270  -2.6354  -2.6209  -2.5793  -2.4961
    -2.4593  -2.1641  -2.1346  -2.0372  -1.9378  -1.9267  -1.7540  -1.6797
    -1.5812  -1.5452  -1.5383  -1.4923  -1.4824  -1.3148  -1.2556  -1.1502
    -1.1398  -1.0260  -0.9770  -0.5312  -0.4023  -0.3265  -0.2057  -0.1715
     0.0557   0.2192   0.3418   0.3529   0.4108   0.4180   0.5100   0.5231
     0.5248   0.6291   0.6570   0.7205   0.7355   0.8190   0.8331   0.8437
     0.9131   1.1802   1.2093   1.2264   1.2879   1.3017   1.3127   1.3523
     1.3702   1.3811   1.3920   1.6892   1.7505   1.7695   1.7730   1.8646
     1.9218   1.9587   2.2584   2.8267   2.8332   2.9954   2.9991   6.1642
     6.1683   6.2834   6.9764   6.9982   7.6468   7.6733   8.0993   8.3772
     8.5136   8.7324   8.8512   8.8567   8.8875   9.1688   9.1938   9.3570
     9.3634

          k = 0.3750 0.0000 0.0000 ( 37640 PWs)   bands (ev):

   -36.2938 -36.2692 -23.3499 -23.3462 -23.2133 -23.2026 -17.7348 -17.7161
   -17.5878 -17.5665 -17.3335 -17.3067 -15.7111 -15.7088 -15.5642 -15.3410
   -15.3214 -15.2954 -15.2799 -14.8834 -14.8776 -14.8235 -14.8130 -14.6520
   -14.6330 -14.6035 -13.7437  -8.5995  -8.5954  -8.5125  -8.4979  -8.3376
    -8.3345  -8.1857  -8.1608  -8.1572  -8.0204  -8.0077  -7.9134  -3.5665
    -3.5552  -3.4404  -3.3735  -2.9949  -2.9935  -2.7067  -2.3730  -2.3683
    -2.2756  -2.2398  -2.2145  -2.2142  -1.8942  -1.8781  -1.8743  -1.7433
    -1.7397  -1.6951  -1.6910  -1.6099  -1.6050  -1.6009  -1.5543  -1.3939
    -1.3921  -1.1417  -1.0970  -1.0097  -1.0093  -0.9721  -0.9520  -0.8995
    -0.8956  -0.7704  -0.5950  -0.5922  -0.5411  -0.5243  -0.4907  -0.4059
    -0.3170  -0.2990  -0.2724  -0.2614  -0.2581  -0.2553  -0.2354  -0.1878
    -0.1742  -0.0217   0.0497   0.1195   0.4052   0.5088   0.5117   0.5204
     0.5265   0.5343   0.6724   0.6836   0.7675   0.7980   0.8328   0.9129
     0.9878   1.0594   1.0719   1.1272   1.1463   1.1892   1.2674   1.4358
     1.4404   1.6399   1.6715   1.8691   1.9549   2.1233   2.1556   5.5870
     5.8417   5.8438   6.7699   7.0455   7.0947   7.2975   7.3375   7.3414
     7.7787   7.8042   7.9954   8.0744   8.1233   8.6387   8.6965   8.7758
     8.7772

          k = 0.3750 0.1320 0.0000 ( 37681 PWs)   bands (ev):

   -36.2920 -36.2674 -23.3282 -23.3245 -23.1935 -23.1815 -17.7262 -17.7075
   -17.5589 -17.5375 -17.3978 -17.3712 -15.6630 -15.6611 -15.5057 -15.3022
   -15.2783 -15.2338 -15.2198 -14.8535 -14.8484 -14.8027 -14.7923 -14.6736
   -14.6468 -14.6413 -13.7119  -8.6565  -8.6527  -8.5351  -8.5273  -8.5013
    -8.4975  -8.3452  -8.2504  -8.2471  -8.2450  -8.1103  -7.9707  -3.6317
    -3.6169  -3.4834  -3.4078  -2.9943  -2.9924  -2.7687  -2.7492  -2.6880
    -2.5838  -2.5620  -2.2795  -2.2753  -2.1890  -2.1436  -2.1244  -1.9836
    -1.9753  -1.9163  -1.8860  -1.7790  -1.6377  -1.4664  -1.4550  -1.4374
    -1.4025  -1.3406  -1.0975  -1.0827  -0.9927  -0.9397  -0.9381  -0.9258
    -0.8840  -0.7354  -0.7079  -0.6361  -0.6284  -0.5950  -0.5066  -0.4846
    -0.4548  -0.2361  -0.2183  -0.2126  -0.0222  -0.0122   0.1076   0.1184
     0.1193   0.2477   0.2746   0.3565   0.4616   0.5083   0.5289   0.5459
     0.5506   0.6779   0.6944   0.6968   0.8206   0.8480   0.8629   0.9426
     1.0108   1.0181   1.0719   1.1004   1.1123   1.1128   1.2991   1.8551
     1.9471   2.0895   2.0945   2.2494   2.2532   2.4215   2.4304   5.7523
     5.9902   5.9925   6.8413   7.0900   7.1349   7.3443   7.4008   7.4036
     7.7863   7.8363   8.1108   8.2085   8.3123   8.5615   8.6088   8.8211
     8.8607

          k = 0.3750 0.2640 0.0000 ( 37671 PWs)   bands (ev):

   -36.2876 -36.2631 -23.2749 -23.2712 -23.1448 -23.1297 -17.7059 -17.6870
   -17.5423 -17.5158 -17.4835 -17.4622 -15.5401 -15.5391 -15.3504 -15.2080
   -15.1796 -15.0859 -15.0685 -14.8224 -14.8100 -14.7853 -14.7766 -14.7175
   -14.6838 -14.6439 -13.6321  -8.9574  -8.9540  -8.7965  -8.6632  -8.6364
    -8.6326  -8.5146  -8.5140  -8.5103  -8.4756  -8.3884  -8.2418  -3.9585
    -3.9347  -3.7182  -3.6475  -3.1747  -3.1678  -3.0841  -3.0800  -3.0505
    -3.0446  -3.0416  -2.9138  -2.9114  -2.6761  -2.4645  -2.4516  -2.2870
    -2.2656  -1.9359  -1.9136  -1.7427  -1.6636  -1.6365  -1.5579  -1.5537
    -1.5112  -1.4587  -1.3152  -1.3110  -1.3102  -1.2287  -1.2080  -1.0565
    -1.0507  -0.9827  -0.9537  -0.6723  -0.5001  -0.3189  -0.1723  -0.1301
     0.0107   0.0641   0.1575   0.1884   0.3368   0.3451   0.3983   0.4676
     0.4760   0.5351   0.5393   0.6065   0.6963   0.7287   0.7326   0.7358
     0.9367   0.9537   0.9725   0.9861   1.0352   1.0591   1.0790   1.0821
     1.0880   1.1018   1.1358   1.1394   1.1466   1.1799   1.6407   1.8325
     2.2614   2.3356   2.3544   3.0382   3.0400   3.1331   3.1334   5.9783
     6.0364   6.0384   6.8652   6.9238   7.1008   7.5452   7.7415   7.7457
     8.0273   8.1415   8.2212   8.7380   8.7515   8.8076   8.8563   9.0672
     9.0727

          k = 0.3750 0.3960 0.0000 ( 37657 PWs)   bands (ev):

   -36.2833 -36.2588 -23.2202 -23.2166 -23.0950 -23.0767 -17.6890 -17.6687
   -17.6683 -17.6432 -17.4043 -17.3830 -15.4037 -15.4036 -15.1665 -15.1172
   -15.0799 -14.9312 -14.9215 -14.9065 -14.9006 -14.7477 -14.7404 -14.7065
   -14.6480 -14.6469 -13.5474  -9.2233  -9.2198  -9.0738  -8.9110  -8.8881
    -8.8849  -8.7002  -8.6393  -8.6361  -8.6115  -8.5297  -8.4978  -4.4395
    -4.4175  -4.1591  -4.1067  -3.7924  -3.6079  -3.6040  -3.3011  -3.2941
    -3.1918  -3.1694  -2.9431  -2.9414  -2.7766  -2.7605  -2.6526  -2.5190
    -2.4982  -1.9531  -1.9085  -1.9020  -1.8712  -1.8675  -1.6609  -1.6378
    -1.6316  -1.5626  -1.5326  -1.5036  -1.5019  -1.4495  -1.4158  -1.0614
    -1.0598  -0.9808  -0.9321  -0.5213  -0.3619  -0.2503  -0.0115   0.0441
     0.2600   0.4491   0.4806   0.5122   0.5389   0.6018   0.6223   0.6765
     0.6785   0.7968   0.8158   0.8179   0.8461   0.8871   0.9073   1.0213
     1.0964   1.0984   1.1821   1.1900   1.2461   1.3057   1.3108   1.3666
     1.3927   1.4096   1.5009   1.5157   1.5183   1.6045   1.6878   1.8328
     2.1269   2.1642   2.3498   3.5490   3.5498   3.6235   3.6236   5.7275
     5.7333   5.8156   6.6415   6.6677   7.4180   7.8855   7.9953   8.3108
     8.3240   8.6264   8.6492   8.7799   8.8033   8.8695   8.9149   9.0051
     9.0253

          k = 0.3750-0.5279 0.0000 ( 37708 PWs)   bands (ev):

   -36.2815 -36.2570 -23.1971 -23.1935 -23.0741 -23.0543 -17.7238 -17.6975
   -17.6761 -17.6569 -17.3691 -17.3477 -15.3415 -15.3414 -15.0853 -15.0844
   -15.0475 -14.9462 -14.9236 -14.8627 -14.8601 -14.7297 -14.7232 -14.7179
   -14.6520 -14.6405 -13.5106  -9.3054  -9.3018  -9.1704  -9.0332  -9.0301
    -8.9733  -8.8292  -8.7711  -8.6654  -8.6615  -8.5603  -8.5105  -4.6453
    -4.6240  -4.3617  -4.3095  -4.0653  -3.8331  -3.8292  -3.3195  -3.3125
    -3.2014  -3.1721  -2.9374  -2.9356  -2.8826  -2.8670  -2.6332  -2.6035
    -2.5808  -2.0509  -2.0013  -1.9842  -1.9160  -1.9123  -1.7210  -1.6570
    -1.6421  -1.6270  -1.6243  -1.5966  -1.5899  -1.4789  -1.4265  -1.0451
    -1.0443  -0.9752  -0.9103  -0.4745  -0.3321  -0.2367   0.0413   0.1341
     0.3324   0.5923   0.5994   0.6123   0.6168   0.6613   0.6669   0.6696
     0.7017   0.8528   0.8645   0.9136   0.9242   1.1015   1.1033   1.1144
     1.1898   1.1993   1.2494   1.3718   1.3764   1.4485   1.4486   1.5217
     1.5549   1.5740   1.7051   1.7057   1.7151   1.7411   1.7441   1.8132
     1.8832   1.9379   2.2685   3.6867   3.6868   3.7749   3.7755   5.5529
     5.5561   5.6601   6.5374   6.5877   7.6180   7.7342   8.3527   8.4446
     8.4682   8.6604   8.6879   8.7334   8.7474   9.0248   9.1684   9.1886
     9.2185

          k =-0.5000 0.0000 0.0000 ( 37590 PWs)   bands (ev):

   -36.2927 -36.2681 -23.3307 -23.3271 -23.1975 -23.1841 -17.7870 -17.7687
   -17.5461 -17.5242 -17.3321 -17.3054 -15.7690 -15.7656 -15.6085 -15.3675
   -15.3250 -15.0713 -15.0537 -15.0192 -14.9948 -14.8611 -14.8573 -14.6602
   -14.6402 -14.6085 -13.8036  -8.5893  -8.5851  -8.5019  -8.4853  -8.3144
    -8.3114  -8.1781  -8.1247  -8.1211  -7.9842  -7.9734  -7.8849  -3.7087
    -3.6973  -3.5846  -3.5221  -3.0194  -3.0184  -2.7175  -2.3423  -2.3300
    -2.3237  -2.3107  -2.0926  -2.0892  -1.9951  -1.8820  -1.8783  -1.8590
    -1.8512  -1.7835  -1.7728  -1.7080  -1.7031  -1.6232  -1.6179  -1.4772
    -1.4754  -1.2108  -1.1518  -1.0372  -1.0178  -0.9931  -0.9727  -0.8884
    -0.8852  -0.7829  -0.6003  -0.5975  -0.5695  -0.5516  -0.5463  -0.4125
    -0.3414  -0.3008  -0.2711  -0.2619  -0.2585  -0.2560  -0.2357  -0.2327
    -0.1147  -0.1131   0.0919   0.1523   0.4578   0.4627   0.4721   0.4746
     0.6600   0.6757   0.6866   0.7027   0.7186   0.8958   0.8979   0.9066
     0.9909   0.9928   1.1000   1.1635   1.1747   1.2226   1.2793   1.4501
     1.4549   1.6417   1.6691   1.8744   1.9538   2.1548   2.1916   6.3360
     6.5260   6.6133   6.6150   6.6667   6.6689   7.1669   7.5443   7.6692
     7.7632   7.8288   7.9329   8.3270   8.4578   8.7386   8.7518   8.7583
     8.9106

          k =-0.5000 0.1320 0.0000 ( 37674 PWs)   bands (ev):

   -36.2909 -36.2663 -23.3099 -23.3063 -23.1783 -23.1638 -17.7778 -17.7594
   -17.5187 -17.4968 -17.3956 -17.3690 -15.7117 -15.7089 -15.5439 -15.3275
   -15.2851 -15.0327 -15.0152 -14.9589 -14.9356 -14.8394 -14.8355 -14.6802
   -14.6497 -14.6469 -13.7592  -8.6279  -8.6239  -8.5179  -8.5079  -8.4438
    -8.4408  -8.3279  -8.3241  -8.2974  -8.1863  -8.1170  -8.0877  -3.7803
    -3.7655  -3.6358  -3.5639  -3.0249  -3.0235  -2.7684  -2.7199  -2.6765
    -2.5266  -2.5070  -2.2741  -2.2699  -2.2109  -2.1914  -2.1333  -2.0994
    -2.0913  -2.0173  -1.9766  -1.8242  -1.6481  -1.5333  -1.5315  -1.4312
    -1.4295  -1.3592  -1.1343  -1.1198  -1.0128  -0.9565  -0.9532  -0.9508
    -0.8990  -0.7594  -0.7176  -0.6455  -0.6187  -0.5976  -0.5077  -0.4836
    -0.4707  -0.1796  -0.1476  -0.1448  -0.1094  -0.1035   0.0455   0.0722
     0.1831   0.2297   0.3224   0.3720   0.4781   0.5149   0.5497   0.5962
     0.6147   0.6274   0.7087   0.7229   0.8260   0.9224   0.9326   0.9658
     1.0444   1.0676   1.0990   1.1671   1.1868   1.1873   1.2374   1.8507
     1.9497   2.0925   2.0970   2.2652   2.2662   2.4748   2.4844   6.4257
     6.4609   6.4631   6.5888   6.9676   6.9700   7.2368   7.4542   7.4698
     7.7541   7.8809   7.8829   8.5744   8.6879   8.8320   8.9108   8.9367
     9.0562

          k =-0.5000 0.2640 0.0000 ( 37688 PWs)   bands (ev):

   -36.2866 -36.2620 -23.2589 -23.2553 -23.1312 -23.1142 -17.7558 -17.7373
   -17.5390 -17.5124 -17.4475 -17.4257 -15.5597 -15.5583 -15.3704 -15.2319
   -15.1882 -14.9374 -14.9199 -14.8443 -14.8317 -14.7894 -14.7852 -14.7647
   -14.7193 -14.6390 -13.6460  -8.8964  -8.8928  -8.7450  -8.7420  -8.7391
    -8.6198  -8.5779  -8.5747  -8.5737  -8.4614  -8.4593  -8.4343  -4.0971
    -4.0724  -3.8638  -3.7920  -3.2016  -3.1965  -3.1071  -3.0998  -3.0518
    -3.0496  -3.0406  -2.9214  -2.9189  -2.6945  -2.5917  -2.5756  -2.3743
    -2.3488  -1.8561  -1.8272  -1.6885  -1.6318  -1.6295  -1.6233  -1.5919
    -1.5825  -1.5272  -1.3373  -1.3339  -1.3307  -1.2344  -1.2083  -1.0602
    -1.0561  -0.9975  -0.9569  -0.6682  -0.4850  -0.2979  -0.1329  -0.0791
     0.0576   0.1022   0.1886   0.2007   0.4130   0.4168   0.4721   0.4858
     0.4861   0.5290   0.5534   0.5777   0.7367   0.7490   0.7799   0.8080
     0.9436   1.0256   1.0304   1.0537   1.0563   1.0755   1.0876   1.1201
     1.1400   1.1884   1.1945   1.2097   1.2137   1.3889   1.4039   1.8048
     2.2551   2.3296   2.3509   3.1781   3.1783   3.2656   3.2669   6.0260
     6.0328   6.0765   6.8441   6.8744   7.2889   7.4475   7.7714   7.7783
     7.8500   8.3159   8.4563   8.8686   8.9075   8.9237   8.9356   9.0041
     9.2145

          k =-0.5000 0.3960 0.0000 ( 37668 PWs)   bands (ev):

   -36.2822 -36.2577 -23.2067 -23.2031 -23.0831 -23.0634 -17.7344 -17.7157
   -17.6678 -17.6414 -17.3723 -17.3505 -15.3753 -15.3749 -15.1731 -15.1476
   -15.0737 -14.9120 -14.8903 -14.8428 -14.8267 -14.7411 -14.7362 -14.6919
   -14.6732 -14.6536 -13.5230  -9.2716  -9.2679  -9.1274  -9.0331  -9.0300
    -8.9535  -8.8380  -8.7507  -8.6559  -8.6518  -8.5495  -8.5115  -4.5714
    -4.5473  -4.2809  -4.2251  -3.7846  -3.5993  -3.5955  -3.3708  -3.3637
    -3.2634  -3.2549  -2.9588  -2.9578  -2.8787  -2.8617  -2.6609  -2.5780
    -2.5552  -1.9579  -1.9052  -1.8811  -1.7807  -1.7749  -1.7451  -1.7206
    -1.6306  -1.5561  -1.5531  -1.5304  -1.5259  -1.5094  -1.4878  -1.0201
    -1.0180  -0.9848  -0.8967  -0.5053  -0.3388  -0.2194   0.0856   0.1519
     0.3568   0.5288   0.5909   0.5949   0.6013   0.7007   0.7021   0.7351
     0.7670   0.8066   0.8915   0.8930   0.8976   0.9028   0.9269   1.0962
     1.1483   1.1846   1.2094   1.2158   1.2958   1.3672   1.3780   1.4826
     1.4857   1.5102   1.5218   1.5328   1.5698   1.6191   1.7336   1.7764
     2.1139   2.1543   2.3496   3.8132   3.8177   3.8690   3.8697   5.5332
     5.5377   5.6204   6.4877   6.5367   7.6246   7.6959   8.1785   8.2535
     8.2713   8.6707   8.7157   8.7986   8.8630   8.9242   8.9977   9.0483
     9.1721

          k =-0.5000-0.5279 0.0000 ( 37732 PWs)   bands (ev):

   -36.2804 -36.2559 -23.1847 -23.1811 -23.0629 -23.0420 -17.7256 -17.7184
   -17.7068 -17.6920 -17.3389 -17.3172 -15.2757 -15.2742 -15.1293 -15.1274
   -14.9604 -14.9509 -14.9366 -14.8089 -14.8071 -14.7252 -14.7181 -14.7134
   -14.6484 -14.6115 -13.4686  -9.4176  -9.4139  -9.2797  -9.1493  -9.1461
    -9.0969  -8.9432  -8.8825  -8.6839  -8.6802  -8.5680  -8.5273  -4.7793
    -4.7560  -4.4795  -4.4259  -4.0595  -3.8236  -3.8197  -3.4031  -3.3959
    -3.2892  -3.2741  -2.9696  -2.9537  -2.9489  -2.9479  -2.6451  -2.6327
    -2.6239  -2.0683  -2.0192  -1.9933  -1.8496  -1.8403  -1.7101  -1.6921
    -1.6914  -1.6447  -1.6417  -1.6320  -1.6253  -1.5561  -1.4998  -0.9912
    -0.9890  -0.9744  -0.8675  -0.4579  -0.3073  -0.2042   0.1636   0.2753
     0.4548   0.6703   0.6733   0.6751   0.6795   0.7093   0.7184   0.7836
     0.9361   0.9382   0.9384   0.9564   0.9810   1.1759   1.2057   1.2255
     1.2379   1.3112   1.3298   1.3675   1.4015   1.4023   1.4988   1.5064
     1.6754   1.6788   1.7227   1.7330   1.7535   1.7813   1.8591   1.8672
     1.9160   1.9231   2.2723   4.0067   4.0105   4.0787   4.0798   5.3080
     5.3108   5.4041   6.3694   6.4364   7.6228   7.7078   8.3523   8.3611
     8.3746   8.4521   8.6848   8.7066   8.7403   8.8560   8.9786   9.1452
     9.1624

     the Fermi energy is     1.9044 ev

!    total energy              =   -1842.78446735 Ry
     Harris-Foulkes estimate   =   -1842.78446734 Ry
     estimated scf accuracy    <          3.6E-09 Ry

     The total energy is the sum of the following terms:

     one-electron contribution =  -22883.98682205 Ry
     hartree contribution      =   11589.65285113 Ry
     xc contribution           =    -621.62226154 Ry
     ewald contribution        =   10073.18351273 Ry
     smearing contrib. (-TS)   =      -0.01174762 Ry

     convergence has been achieved in  38 iterations

     negative rho (up, down):  1.473E-03 0.000E+00

     Forces acting on atoms (cartesian axes, Ry/au):

     atom    1 type  4   force =     0.00000000    0.00000000   -0.00036882
     atom    2 type  3   force =     0.00000000    0.00000000    0.00047756
     atom    3 type  4   force =     0.00000000    0.00000000   -0.00070383
     atom    4 type  1   force =     0.00000000    0.00000000   -0.00054727
     atom    5 type  3   force =     0.00000000    0.00000000    0.00058768
     atom    6 type  4   force =     0.00000000    0.00000000    0.00093780
     atom    7 type  4   force =     0.00000000    0.00000000    0.00114240
     atom    8 type  2   force =     0.00000000    0.00000000   -0.00280102
     atom    9 type  4   force =     0.00000000    0.00000000    0.00485514
     atom   10 type  4   force =     0.00000000    0.00000000    0.00414443
     atom   11 type  3   force =     0.00000000    0.00000000    0.00116409
     atom   12 type  1   force =     0.00000000    0.00000000    0.00968853
     atom   13 type  4   force =     0.00000000    0.00000000   -0.01994213
     atom   14 type  4   force =     0.00000000    0.00000000    0.03661358
     atom   15 type  3   force =     0.00000000    0.00000000   -0.03504365
     atom   16 type  4   force =     0.00000000    0.00000000    0.02676884
     atom   17 type  1   force =     0.00000000    0.00000000   -0.00331301
     atom   18 type  3   force =     0.00000000    0.00000000   -0.02063527
     atom   19 type  4   force =     0.00000000    0.00000000   -0.00156278
     atom   20 type  4   force =     0.00000000    0.00000000   -0.00226415
     atom   21 type  2   force =     0.00000000    0.00000000    0.00261332
     atom   22 type  4   force =     0.00000000    0.00000000   -0.00179408
     atom   23 type  4   force =     0.00000000    0.00000000   -0.00022672
     atom   24 type  3   force =     0.00000000    0.00000000   -0.00032114
     atom   25 type  1   force =     0.00000000    0.00000000    0.00037961
     atom   26 type  4   force =     0.00000000    0.00000000    0.00022682
     atom   27 type  3   force =     0.00000000    0.00000000    0.00000728
     atom   28 type  4   force =     0.00000000    0.00000000   -0.00008320

     Total force =     0.065461     Total SCF correction =     0.000248


     Computing stress (Cartesian axis) and pressure


     negative rho (up, down):  1.473E-03 0.000E+00
          total   stress  (Ry/bohr**3)                   (kbar)     P=       -5.46
   0.00000683   0.00000000   0.00000000            1.00        0.00        0.00
   0.00000000  -0.00008726   0.00000000            0.00      -12.84        0.00
   0.00000000   0.00000000  -0.00003099            0.00        0.00       -4.56

 
     init_run     :     10.04s CPU     10.56s WALL (       1 calls)
     electrons    :    703.03s CPU    747.23s WALL (       1 calls)
     forces       :      4.96s CPU      5.32s WALL (       1 calls)
     stress       :     26.31s CPU     27.27s WALL (       1 calls)

     Called by init_run:
     wfcinit      :      6.64s CPU      6.78s WALL (       1 calls)
     potinit      :      0.70s CPU      0.71s WALL (       1 calls)
     hinit0       :      1.19s CPU      1.21s WALL (       1 calls)

     Called by electrons:
     c_bands      :    538.52s CPU    557.19s WALL (      38 calls)
     sum_band     :    110.22s CPU    124.20s WALL (      38 calls)
     v_of_rho     :      3.66s CPU      3.70s WALL (      39 calls)
     newd         :     27.61s CPU     39.19s WALL (      39 calls)
     mix_rho      :     23.61s CPU     23.80s WALL (      38 calls)

     Called by c_bands:
     init_us_2    :      4.17s CPU      4.22s WALL (    1975 calls)
     cegterg      :    507.83s CPU    525.82s WALL (     950 calls)

     Called by sum_band:
     sum_band:bec :      0.27s CPU      0.27s WALL (     950 calls)
     addusdens    :     22.09s CPU     35.12s WALL (      38 calls)

     Called by *egterg:
     h_psi        :    265.45s CPU    276.49s WALL (    3955 calls)
     s_psi        :     25.07s CPU     25.47s WALL (    3955 calls)
     g_psi        :      0.76s CPU      0.76s WALL (    2980 calls)
     cdiaghg      :    114.52s CPU    115.02s WALL (    3930 calls)

     Called by h_psi:
     h_psi:calbec :     30.95s CPU     32.22s WALL (    3955 calls)
     vloc_psi     :    206.92s CPU    210.25s WALL (    3955 calls)
     add_vuspsi   :     26.15s CPU     29.87s WALL (    3955 calls)

     General routines
     calbec       :     54.76s CPU     56.13s WALL (    5030 calls)
     fft          :      3.25s CPU      3.28s WALL (     530 calls)
     ffts         :     12.12s CPU     12.22s WALL (   16332 calls)
     fftw         :    238.64s CPU    242.30s WALL (  676996 calls)
     interpolate  :      0.25s CPU      0.25s WALL (      39 calls)
 
     Parallel routines
     fft_scatt_xy :     27.44s CPU     27.87s WALL (  693858 calls)
     fft_scatt_yz :    156.77s CPU    159.13s WALL (  693858 calls)
 
     PWSCF        :  12m25.31s CPU  13m11.50s WALL

 
   This run was terminated on:  21:38:11  21May2021            

=------------------------------------------------------------------------------=
   JOB DONE.
=------------------------------------------------------------------------------=
[1621647491.698186] [holy7c04207:204637:0]          mpool.c:43   UCX  WARN  object 0x2cf3040 was not returned to mpool ucp_requests
[1621647491.698714] [holy7c04301:219780:0]          mpool.c:43   UCX  WARN  object 0x2973080 was not returned to mpool ucp_requests
[1621647491.706423] [holy7c04501:52561:0]          mpool.c:43   UCX  WARN  object 0x2c70a80 was not returned to mpool ucp_requests
[1621647491.708775] [holy7c04503:50264:0]          mpool.c:43   UCX  WARN  object 0x2914fc0 was not returned to mpool ucp_requests
[1621647491.718964] [holy7c04504:243169:0]          mpool.c:43   UCX  WARN  object 0x2f63000 was not returned to mpool ucp_requests
[1621647491.722578] [holy7c04302:272843:0]          mpool.c:43   UCX  WARN  object 0x44959c0 was not returned to mpool ucp_requests
[1621647491.704878] [holy7c04501:52565:0]          mpool.c:43   UCX  WARN  object 0x4569bc0 was not returned to mpool ucp_requests
[1621647491.704896] [holy7c04501:52565:0]          mpool.c:43   UCX  WARN  object 0x4569f40 was not returned to mpool ucp_requests
