
     Program PWSCF v.6.5 starts on 21May2021 at 21:31:55 

     This program is part of the open-source Quantum ESPRESSO suite
     for quantum simulation of materials; please cite
         "P. Giannozzi et al., J. Phys.:Condens. Matter 21 395502 (2009);
         "P. Giannozzi et al., J. Phys.:Condens. Matter 29 465901 (2017);
          URL http://www.quantum-espresso.org", 
     in publications or presentations arising from this work. More details at
     http://www.quantum-espresso.org/quote

     Parallel version (MPI), running on    20 processors

     MPI processes distributed on    13 nodes
     R & G space division:  proc/nbgrp/npool/nimage =      20
     Reading input from CBCO_Y_cleave_0.5_sep.pwi
Warning: card &IONS ignored
Warning: card     ION_DYNAMICS = 'BFGS' ignored
Warning: card / ignored
Warning: card &CELL ignored
Warning: card     CELL_DYNAMICS = 'BFGS' ignored
Warning: card     PRESS_CONV_THR = 5 ignored
Warning: card / ignored

     Current dimensions of program PWSCF are:
     Max number of different atomic species (ntypx) = 10
     Max number of k-points (npk) =  40000
     Max angular momentum in pseudopotentials (lmaxx) =  3

     Subspace diagonalization in iterative solution of the eigenvalue problem:
     one sub-group per band group will be used
     scalapack distributed-memory algorithm (size of sub-group:  4*  4 procs)

     Message from routine setup:
     using ibrav=0 with symmetry is DISCOURAGED, use correct ibrav instead
 
     Parallelization info
     --------------------
     sticks:   dense  smooth     PW     G-vecs:    dense   smooth      PW
     Min         149      50     14                70963    13664    2134
     Max         150      51     15                71000    13687    2179
     Sum        2991    1007    289              1419661   273473   42977
 


     bravais-lattice index     =            0
     lattice parameter (alat)  =       7.4270  a.u.
     unit-cell volume          =    4351.6708 (a.u.)^3
     number of atoms/cell      =           28
     number of atomic types    =            4
     number of electrons       =       227.00
     number of Kohn-Sham states=          137
     kinetic-energy cutoff     =      60.0000  Ry
     charge density cutoff     =     720.0000  Ry
     convergence threshold     =      1.0E-08
     mixing beta               =       0.5000
     number of iterations used =           10  local-TF  mixing
     Exchange-correlation= SLA PW PBE PBE
                           (   1   4   3   4   0   0   0)

     celldm(1)=   7.427040  celldm(2)=   0.000000  celldm(3)=   0.000000
     celldm(4)=   0.000000  celldm(5)=   0.000000  celldm(6)=   0.000000

     crystal axes: (cart. coord. in units of alat)
               a(1) = (   1.000000   0.000000   0.000000 )  
               a(2) = (   0.000000   0.947081   0.000000 )  
               a(3) = (   0.000000   0.000000  11.215576 )  

     reciprocal axes: (cart. coord. in units 2 pi/alat)
               b(1) = (  1.000000  0.000000  0.000000 )  
               b(2) = (  0.000000  1.055876  0.000000 )  
               b(3) = (  0.000000  0.000000  0.089162 )  


     PseudoPot. # 1 for Ba read from file:
     ./pseudo/Ba.pbe-nsp-van.UPF
     MD5 check sum: 2b9c31dd849566dd297d80989662b7a0
     Pseudo is Ultrasoft + core correction, Zval = 10.0
     Generated by new atomic code, or converted to UPF format
     Using radial grid of  907 points,  6 beta functions with: 
                l(1) =   0
                l(2) =   0
                l(3) =   1
                l(4) =   1
                l(5) =   2
                l(6) =   2
     Q(r) pseudized with  6 coefficients,  rinner =    1.200   1.200   1.200
                                                       1.200   1.200

     PseudoPot. # 2 for Ca read from file:
     ./pseudo/Ca.pbe-nsp-van.UPF
     MD5 check sum: 6471098428ff4fa451746d08035ff179
     Pseudo is Ultrasoft + core correction, Zval = 10.0
     Generated by new atomic code, or converted to UPF format
     Using radial grid of  845 points,  6 beta functions with: 
                l(1) =   0
                l(2) =   0
                l(3) =   1
                l(4) =   1
                l(5) =   2
                l(6) =   2
     Q(r) pseudized with  6 coefficients,  rinner =    1.200   1.200   1.200
                                                       1.200   1.200

     PseudoPot. # 3 for Cu read from file:
     ./pseudo/Cu.pbe-n-van_ak.UPF
     MD5 check sum: 34e3282627ffb533726feb647e090d62
     Pseudo is Ultrasoft + core correction, Zval = 11.0
     Generated by new atomic code, or converted to UPF format
     Using radial grid of  867 points,  6 beta functions with: 
                l(1) =   0
                l(2) =   0
                l(3) =   1
                l(4) =   1
                l(5) =   2
                l(6) =   2
     Q(r) pseudized with  8 coefficients,  rinner =    1.400   1.400   1.400
                                                       1.400   1.400

     PseudoPot. # 4 for O  read from file:
     ./pseudo/O.pbe-van_ak.UPF
     MD5 check sum: 783ce7fe4c79b6a4916957118fed0856
     Pseudo is Ultrasoft, Zval =  6.0
     Generated by new atomic code, or converted to UPF format
     Using radial grid of  737 points,  4 beta functions with: 
                l(1) =   0
                l(2) =   0
                l(3) =   1
                l(4) =   1
     Q(r) pseudized with  8 coefficients,  rinner =    0.800   0.800   0.800


     atomic species   valence    mass     pseudopotential
        Ba            10.00   137.32700     Ba( 1.00)
        Ca            10.00    40.07800     Ca( 1.00)
        Cu            11.00    63.54600     Cu( 1.00)
        O              6.00    15.99900     O ( 1.00)

      4 Sym. Ops. (no inversion) found



   Cartesian axes

     site n.     atom                  positions (alat units)
         1           O   tau(   1) = (   0.0000000   0.4735409  -0.0469745  )
         2           Cu  tau(   2) = (   0.0000000   0.0000000   0.0264565  )
         3           O   tau(   3) = (   0.0000000   0.0000000   0.5030914  )
         4           Ba  tau(   4) = (   0.5000000   0.4735409   0.5690292  )
         5           Cu  tau(   5) = (   0.0000000   0.0000000   1.0374254  )
         6           O   tau(   6) = (   0.5000000   0.0000000   1.0768099  )
         7           O   tau(   7) = (   0.0000000   0.4735409   1.1116985  )
         8           Ca  tau(   8) = (   0.5000000   0.4735409   1.4976260  )
         9           O   tau(   9) = (   0.0000000   0.4735409   1.8667529  )
        10           O   tau(  10) = (   0.5000000   0.0000000   1.9044124  )
        11           Cu  tau(  11) = (   0.0000000   0.0000000   1.9512546  )
        12           Ba  tau(  12) = (   0.5000000   0.4735409   2.4295764  )
        13           O   tau(  13) = (   0.0000000   0.0000000   2.5115362  )
        14           O   tau(  14) = (   0.0000000   0.4735409   2.9918528  )
        15           Cu  tau(  15) = (   0.0000000   0.0000000   2.9919088  )
        16           O   tau(  16) = (   0.0000000   0.0000000   3.4722686  )
        17           Ba  tau(  17) = (   0.5000000   0.4735409   3.5542208  )
        18           Cu  tau(  18) = (   0.0000000   0.0000000   4.0325248  )
        19           O   tau(  19) = (   0.5000000   0.0000000   4.0793669  )
        20           O   tau(  20) = (   0.0000000   0.4735409   4.1170213  )
        21           Ca  tau(  21) = (   0.5000000   0.4735409   4.4861584  )
        22           O   tau(  22) = (   0.0000000   0.4735409   4.9993027  )
        23           O   tau(  23) = (   0.5000000   0.0000000   5.0341913  )
        24           Cu  tau(  24) = (   0.0000000   0.0000000   5.0735784  )
        25           Ba  tau(  25) = (   0.5000000   0.4735409   5.5419720  )
        26           O   tau(  26) = (   0.0000000   0.0000000   5.6078996  )
        27           Cu  tau(  27) = (   0.0000000   0.0000000   6.0845396  )
        28           O   tau(  28) = (   0.0000000   0.4735409   6.1579579  )

     number of k points=    25  Gaussian smearing, width (Ry)=  0.0100
                       cart. coord. in units 2pi/alat
        k(    1) = (   0.0000000   0.0000000   0.0000000), wk =   0.0312500
        k(    2) = (   0.0000000   0.1319845   0.0000000), wk =   0.0625000
        k(    3) = (   0.0000000   0.2639689   0.0000000), wk =   0.0625000
        k(    4) = (   0.0000000   0.3959534   0.0000000), wk =   0.0625000
        k(    5) = (   0.0000000  -0.5279378   0.0000000), wk =   0.0312500
        k(    6) = (   0.1250000   0.0000000   0.0000000), wk =   0.0625000
        k(    7) = (   0.1250000   0.1319845   0.0000000), wk =   0.1250000
        k(    8) = (   0.1250000   0.2639689   0.0000000), wk =   0.1250000
        k(    9) = (   0.1250000   0.3959534   0.0000000), wk =   0.1250000
        k(   10) = (   0.1250000  -0.5279378   0.0000000), wk =   0.0625000
        k(   11) = (   0.2500000   0.0000000   0.0000000), wk =   0.0625000
        k(   12) = (   0.2500000   0.1319845   0.0000000), wk =   0.1250000
        k(   13) = (   0.2500000   0.2639689   0.0000000), wk =   0.1250000
        k(   14) = (   0.2500000   0.3959534   0.0000000), wk =   0.1250000
        k(   15) = (   0.2500000  -0.5279378   0.0000000), wk =   0.0625000
        k(   16) = (   0.3750000   0.0000000   0.0000000), wk =   0.0625000
        k(   17) = (   0.3750000   0.1319845   0.0000000), wk =   0.1250000
        k(   18) = (   0.3750000   0.2639689   0.0000000), wk =   0.1250000
        k(   19) = (   0.3750000   0.3959534   0.0000000), wk =   0.1250000
        k(   20) = (   0.3750000  -0.5279378   0.0000000), wk =   0.0625000
        k(   21) = (  -0.5000000   0.0000000   0.0000000), wk =   0.0312500
        k(   22) = (  -0.5000000   0.1319845   0.0000000), wk =   0.0625000
        k(   23) = (  -0.5000000   0.2639689   0.0000000), wk =   0.0625000
        k(   24) = (  -0.5000000   0.3959534   0.0000000), wk =   0.0625000
        k(   25) = (  -0.5000000  -0.5279378   0.0000000), wk =   0.0312500

     Dense  grid:  1419661 G-vectors     FFT dimensions: (  64,  64, 720)

     Smooth grid:   273473 G-vectors     FFT dimensions: (  40,  36, 432)

     Estimated max dynamical RAM per process >     453.21 MB

     Estimated total dynamical RAM >       8.85 GB

     Initial potential from superposition of free atoms

     starting charge  226.84630, renormalised to  227.00000

     negative rho (up, down):  3.441E-03 0.000E+00
     Starting wfcs are  195 randomized atomic wfcs

     total cpu time spent up to now is       11.0 secs

     Self-consistent Calculation

     iteration #  1     ecut=    60.00 Ry     beta= 0.50
     Davidson diagonalization with overlap
     ethr =  1.00E-02,  avg # of iterations =  2.0

     negative rho (up, down):  5.009E-04 0.000E+00

     total cpu time spent up to now is       29.7 secs

     total energy              =   -1840.99894836 Ry
     Harris-Foulkes estimate   =   -1845.31950882 Ry
     estimated scf accuracy    <      17.97045784 Ry

     iteration #  2     ecut=    60.00 Ry     beta= 0.50
     Davidson diagonalization with overlap
     ethr =  7.92E-03,  avg # of iterations =  2.0

     negative rho (up, down):  2.728E-04 0.000E+00

     total cpu time spent up to now is       47.7 secs

     total energy              =   -1842.53869963 Ry
     Harris-Foulkes estimate   =   -1843.23918121 Ry
     estimated scf accuracy    <       3.50720271 Ry

     iteration #  3     ecut=    60.00 Ry     beta= 0.50
     Davidson diagonalization with overlap
     ethr =  1.55E-03,  avg # of iterations =  2.0

     negative rho (up, down):  2.596E-04 0.000E+00

     total cpu time spent up to now is       66.8 secs

     total energy              =   -1842.86826001 Ry
     Harris-Foulkes estimate   =   -1843.00613133 Ry
     estimated scf accuracy    <       2.92785043 Ry

     iteration #  4     ecut=    60.00 Ry     beta= 0.50
     Davidson diagonalization with overlap
     ethr =  1.29E-03,  avg # of iterations =  1.0

     negative rho (up, down):  2.521E-04 0.000E+00

     total cpu time spent up to now is       82.5 secs

     total energy              =   -1842.87058436 Ry
     Harris-Foulkes estimate   =   -1842.94432946 Ry
     estimated scf accuracy    <       0.74074098 Ry

     iteration #  5     ecut=    60.00 Ry     beta= 0.50
     Davidson diagonalization with overlap
     ethr =  3.26E-04,  avg # of iterations =  3.2

     negative rho (up, down):  2.457E-04 0.000E+00

     total cpu time spent up to now is      101.4 secs

     total energy              =   -1842.87614365 Ry
     Harris-Foulkes estimate   =   -1842.92251724 Ry
     estimated scf accuracy    <       1.94999789 Ry

     iteration #  6     ecut=    60.00 Ry     beta= 0.50
     Davidson diagonalization with overlap
     ethr =  3.26E-04,  avg # of iterations =  1.2

     negative rho (up, down):  2.421E-04 0.000E+00

     total cpu time spent up to now is      117.6 secs

     total energy              =   -1842.88279820 Ry
     Harris-Foulkes estimate   =   -1842.89457432 Ry
     estimated scf accuracy    <       0.82299172 Ry

     iteration #  7     ecut=    60.00 Ry     beta= 0.50
     Davidson diagonalization with overlap
     ethr =  3.26E-04,  avg # of iterations =  1.7

     negative rho (up, down):  2.380E-04 0.000E+00

     total cpu time spent up to now is      134.8 secs

     total energy              =   -1842.87739797 Ry
     Harris-Foulkes estimate   =   -1842.88788058 Ry
     estimated scf accuracy    <       0.42605699 Ry

     iteration #  8     ecut=    60.00 Ry     beta= 0.50
     Davidson diagonalization with overlap
     ethr =  1.88E-04,  avg # of iterations =  5.0

     negative rho (up, down):  2.368E-04 0.000E+00

     total cpu time spent up to now is      157.5 secs

     total energy              =   -1842.87639912 Ry
     Harris-Foulkes estimate   =   -1842.88208765 Ry
     estimated scf accuracy    <       0.25739364 Ry

     iteration #  9     ecut=    60.00 Ry     beta= 0.50
     Davidson diagonalization with overlap
     ethr =  1.13E-04,  avg # of iterations =  5.2

     negative rho (up, down):  2.359E-04 0.000E+00

     total cpu time spent up to now is      179.6 secs

     total energy              =   -1842.87435040 Ry
     Harris-Foulkes estimate   =   -1842.87821354 Ry
     estimated scf accuracy    <       0.10473051 Ry

     iteration # 10     ecut=    60.00 Ry     beta= 0.50
     Davidson diagonalization with overlap
     c_bands:  1 eigenvalues not converged
     c_bands:  1 eigenvalues not converged
     ethr =  4.61E-05,  avg # of iterations =  6.0

     negative rho (up, down):  2.360E-04 0.000E+00

     total cpu time spent up to now is      202.7 secs

     total energy              =   -1842.87192394 Ry
     Harris-Foulkes estimate   =   -1842.87522899 Ry
     estimated scf accuracy    <       0.05129961 Ry

     iteration # 11     ecut=    60.00 Ry     beta= 0.50
     Davidson diagonalization with overlap
     ethr =  2.26E-05,  avg # of iterations =  8.8

     negative rho (up, down):  2.376E-04 0.000E+00

     total cpu time spent up to now is      231.4 secs

     total energy              =   -1842.87108273 Ry
     Harris-Foulkes estimate   =   -1842.87263762 Ry
     estimated scf accuracy    <       0.02770847 Ry

     iteration # 12     ecut=    60.00 Ry     beta= 0.50
     Davidson diagonalization with overlap
     ethr =  1.22E-05,  avg # of iterations =  3.6

     negative rho (up, down):  2.435E-04 0.000E+00

     total cpu time spent up to now is      250.5 secs

     total energy              =   -1842.87084359 Ry
     Harris-Foulkes estimate   =   -1842.87148914 Ry
     estimated scf accuracy    <       0.03801223 Ry

     iteration # 13     ecut=    60.00 Ry     beta= 0.50
     Davidson diagonalization with overlap
     ethr =  1.22E-05,  avg # of iterations =  1.1

     negative rho (up, down):  2.933E-03 0.000E+00

     total cpu time spent up to now is      267.9 secs

     total energy              =   -1842.86931284 Ry
     Harris-Foulkes estimate   =   -1842.87095676 Ry
     estimated scf accuracy    <       0.02370189 Ry

     iteration # 14     ecut=    60.00 Ry     beta= 0.50
     Davidson diagonalization with overlap
     ethr =  1.04E-05,  avg # of iterations =  2.8

     negative rho (up, down):  1.593E-02 0.000E+00

     total cpu time spent up to now is      285.9 secs

     total energy              =   -1842.86791347 Ry
     Harris-Foulkes estimate   =   -1842.86948280 Ry
     estimated scf accuracy    <       0.01637277 Ry

     iteration # 15     ecut=    60.00 Ry     beta= 0.50
     Davidson diagonalization with overlap
     ethr =  7.21E-06,  avg # of iterations =  7.8

     negative rho (up, down):  1.347E-02 0.000E+00

     total cpu time spent up to now is      312.5 secs

     total energy              =   -1842.86736703 Ry
     Harris-Foulkes estimate   =   -1842.86811755 Ry
     estimated scf accuracy    <       0.01202895 Ry

     iteration # 16     ecut=    60.00 Ry     beta= 0.50
     Davidson diagonalization with overlap
     ethr =  5.30E-06,  avg # of iterations =  3.7

     negative rho (up, down):  2.373E-02 0.000E+00

     total cpu time spent up to now is      332.4 secs

     total energy              =   -1842.86655894 Ry
     Harris-Foulkes estimate   =   -1842.86744863 Ry
     estimated scf accuracy    <       0.01132731 Ry

     iteration # 17     ecut=    60.00 Ry     beta= 0.50
     Davidson diagonalization with overlap
     ethr =  4.99E-06,  avg # of iterations =  7.3

     negative rho (up, down):  1.974E-02 0.000E+00

     total cpu time spent up to now is      358.9 secs

     total energy              =   -1842.86606717 Ry
     Harris-Foulkes estimate   =   -1842.86665131 Ry
     estimated scf accuracy    <       0.00439272 Ry

     iteration # 18     ecut=    60.00 Ry     beta= 0.50
     Davidson diagonalization with overlap
     ethr =  1.94E-06,  avg # of iterations =  8.5

     negative rho (up, down):  1.293E-02 0.000E+00

     total cpu time spent up to now is      387.4 secs

     total energy              =   -1842.86589378 Ry
     Harris-Foulkes estimate   =   -1842.86613429 Ry
     estimated scf accuracy    <       0.00175446 Ry

     iteration # 19     ecut=    60.00 Ry     beta= 0.50
     Davidson diagonalization with overlap
     ethr =  7.73E-07,  avg # of iterations =  5.0

     negative rho (up, down):  6.745E-03 0.000E+00

     total cpu time spent up to now is      410.5 secs

     total energy              =   -1842.86575740 Ry
     Harris-Foulkes estimate   =   -1842.86592437 Ry
     estimated scf accuracy    <       0.00050250 Ry

     iteration # 20     ecut=    60.00 Ry     beta= 0.50
     Davidson diagonalization with overlap
     c_bands:  1 eigenvalues not converged
     ethr =  2.21E-07,  avg # of iterations =  7.2

     negative rho (up, down):  1.883E-03 0.000E+00

     total cpu time spent up to now is      436.3 secs

     total energy              =   -1842.86571176 Ry
     Harris-Foulkes estimate   =   -1842.86577496 Ry
     estimated scf accuracy    <       0.00030511 Ry

     iteration # 21     ecut=    60.00 Ry     beta= 0.50
     Davidson diagonalization with overlap
     c_bands:  1 eigenvalues not converged
     c_bands:  1 eigenvalues not converged
     c_bands:  1 eigenvalues not converged
     ethr =  1.34E-07,  avg # of iterations =  8.7

     negative rho (up, down):  1.245E-03 0.000E+00

     total cpu time spent up to now is      463.7 secs

     total energy              =   -1842.86576499 Ry
     Harris-Foulkes estimate   =   -1842.86572262 Ry
     estimated scf accuracy    <       0.00019973 Ry

     iteration # 22     ecut=    60.00 Ry     beta= 0.50
     Davidson diagonalization with overlap
     ethr =  8.80E-08,  avg # of iterations =  5.0

     negative rho (up, down):  8.427E-04 0.000E+00

     total cpu time spent up to now is      485.8 secs

     total energy              =   -1842.86578163 Ry
     Harris-Foulkes estimate   =   -1842.86576905 Ry
     estimated scf accuracy    <       0.00007631 Ry

     iteration # 23     ecut=    60.00 Ry     beta= 0.50
     Davidson diagonalization with overlap
     ethr =  3.36E-08,  avg # of iterations =  4.6

     negative rho (up, down):  1.054E-03 0.000E+00

     total cpu time spent up to now is      507.9 secs

     total energy              =   -1842.86578716 Ry
     Harris-Foulkes estimate   =   -1842.86578335 Ry
     estimated scf accuracy    <       0.00002922 Ry

     iteration # 24     ecut=    60.00 Ry     beta= 0.50
     Davidson diagonalization with overlap
     ethr =  1.29E-08,  avg # of iterations =  1.6

     negative rho (up, down):  1.377E-03 0.000E+00

     total cpu time spent up to now is      525.5 secs

     total energy              =   -1842.86578927 Ry
     Harris-Foulkes estimate   =   -1842.86578875 Ry
     estimated scf accuracy    <       0.00001178 Ry

     iteration # 25     ecut=    60.00 Ry     beta= 0.50
     Davidson diagonalization with overlap
     ethr =  5.19E-09,  avg # of iterations =  1.8

     negative rho (up, down):  1.368E-03 0.000E+00

     total cpu time spent up to now is      542.3 secs

     total energy              =   -1842.86578963 Ry
     Harris-Foulkes estimate   =   -1842.86578974 Ry
     estimated scf accuracy    <       0.00000195 Ry

     iteration # 26     ecut=    60.00 Ry     beta= 0.50
     Davidson diagonalization with overlap
     ethr =  8.59E-10,  avg # of iterations =  3.8

     negative rho (up, down):  1.495E-03 0.000E+00

     total cpu time spent up to now is      564.1 secs

     total energy              =   -1842.86578968 Ry
     Harris-Foulkes estimate   =   -1842.86578980 Ry
     estimated scf accuracy    <       0.00000164 Ry

     iteration # 27     ecut=    60.00 Ry     beta= 0.50
     Davidson diagonalization with overlap
     ethr =  7.24E-10,  avg # of iterations =  1.0

     negative rho (up, down):  1.470E-03 0.000E+00

     total cpu time spent up to now is      579.7 secs

     total energy              =   -1842.86578966 Ry
     Harris-Foulkes estimate   =   -1842.86578972 Ry
     estimated scf accuracy    <       0.00000039 Ry

     iteration # 28     ecut=    60.00 Ry     beta= 0.50
     Davidson diagonalization with overlap
     ethr =  1.74E-10,  avg # of iterations =  2.6

     negative rho (up, down):  1.493E-03 0.000E+00

     total cpu time spent up to now is      599.1 secs

     total energy              =   -1842.86578965 Ry
     Harris-Foulkes estimate   =   -1842.86578969 Ry
     estimated scf accuracy    <       0.00000022 Ry

     iteration # 29     ecut=    60.00 Ry     beta= 0.50
     Davidson diagonalization with overlap
     ethr =  9.90E-11,  avg # of iterations =  1.0

     negative rho (up, down):  1.498E-03 0.000E+00

     total cpu time spent up to now is      614.6 secs

     total energy              =   -1842.86578965 Ry
     Harris-Foulkes estimate   =   -1842.86578966 Ry
     estimated scf accuracy    <       0.00000007 Ry

     iteration # 30     ecut=    60.00 Ry     beta= 0.50
     Davidson diagonalization with overlap
     ethr =  2.93E-11,  avg # of iterations =  2.0

     negative rho (up, down):  1.506E-03 0.000E+00

     total cpu time spent up to now is      632.7 secs

     total energy              =   -1842.86578964 Ry
     Harris-Foulkes estimate   =   -1842.86578965 Ry
     estimated scf accuracy    <       0.00000004 Ry

     iteration # 31     ecut=    60.00 Ry     beta= 0.50
     Davidson diagonalization with overlap
     ethr =  1.88E-11,  avg # of iterations =  1.2

     negative rho (up, down):  1.508E-03 0.000E+00

     total cpu time spent up to now is      648.2 secs

     total energy              =   -1842.86578963 Ry
     Harris-Foulkes estimate   =   -1842.86578964 Ry
     estimated scf accuracy    <       0.00000003 Ry

     iteration # 32     ecut=    60.00 Ry     beta= 0.50
     Davidson diagonalization with overlap
     ethr =  1.29E-11,  avg # of iterations =  1.0

     negative rho (up, down):  1.504E-03 0.000E+00

     total cpu time spent up to now is      664.4 secs

     total energy              =   -1842.86578964 Ry
     Harris-Foulkes estimate   =   -1842.86578964 Ry
     estimated scf accuracy    <       0.00000001 Ry

     iteration # 33     ecut=    60.00 Ry     beta= 0.50
     Davidson diagonalization with overlap
     ethr =  4.89E-12,  avg # of iterations =  1.8

     negative rho (up, down):  1.506E-03 0.000E+00

     total cpu time spent up to now is      681.8 secs

     End of self-consistent calculation

          k = 0.0000 0.0000 0.0000 ( 34267 PWs)   bands (ev):

   -36.6663 -35.5200 -22.7249 -22.6588 -22.5612 -22.4626 -17.8138 -17.6862
   -17.6772 -17.0245 -16.5712 -16.5598 -15.2352 -15.1872 -14.9317 -14.7800
   -14.6051 -14.5868 -14.5057 -14.1151 -14.1148 -14.0190 -13.9157 -13.7571
   -13.7200 -13.6803 -13.5664  -7.8562  -7.8187  -7.7621  -7.7621  -7.7492
    -7.6433  -7.6257  -7.6019  -7.5675  -7.5061  -7.4373  -7.3412  -2.2636
    -2.2558  -2.1962  -1.8750  -1.7636  -1.7244  -1.7001  -1.6093  -1.6018
    -1.4723  -1.4168  -1.3658  -1.3429  -1.1544  -1.1539  -1.0065  -0.9774
    -0.7783  -0.5347  -0.5192  -0.3922  -0.3845  -0.3103  -0.2829  -0.2425
    -0.1983  -0.1860  -0.1846  -0.1790  -0.1726  -0.1613  -0.1418  -0.1081
    -0.0875  -0.0203   0.0291   0.0430   0.1640   0.1651   0.1654   0.1987
     0.2090   0.2398   0.2401   0.2460   0.3034   0.3376   0.3760   0.3904
     0.4823   0.8503   0.8680   0.9482   0.9622   1.0237   1.0496   1.2488
     1.2786   1.3340   1.3749   1.4179   1.4431   1.4693   1.5599   1.5918
     1.5921   1.6030   1.6288   1.8158   1.9006   2.0137   2.1026   2.1857
     2.2063   2.2390   2.2559   2.3389   2.3516   2.5893   2.6026   5.2043
     5.2829   5.5597   6.0337   6.4369   6.8291   6.8479   7.1373   7.3360
     8.0118   8.0813   8.2316   8.3693   8.5543   8.6088   8.6550   8.7764
     8.9340

          k = 0.0000 0.1320 0.0000 ( 34203 PWs)   bands (ev):

   -36.6648 -35.5182 -22.6982 -22.6320 -22.5358 -22.4372 -17.8084 -17.7102
   -17.6753 -16.9883 -16.6323 -16.5688 -15.1466 -15.1227 -14.8905 -14.7274
   -14.6102 -14.5810 -14.4784 -14.1246 -14.1232 -14.0464 -13.9211 -13.8024
   -13.7534 -13.7253 -13.6241  -7.8558  -7.7708  -7.7595  -7.7497  -7.7140
    -7.6679  -7.6409  -7.6096  -7.5574  -7.4850  -7.4609  -7.3883  -2.3229
    -2.2993  -2.2727  -2.1461  -2.0952  -1.9874  -1.9701  -1.6953  -1.5987
    -1.5815  -1.5781  -1.5768  -1.4546  -1.3306  -1.2981  -1.2284  -1.0458
    -0.9142  -0.6242  -0.5874  -0.5613  -0.4896  -0.4761  -0.4195  -0.3944
    -0.3520  -0.3167  -0.2934  -0.2719  -0.1378  -0.0939  -0.0814  -0.0813
    -0.0554   0.0158   0.0404   0.0506   0.0627   0.0735   0.1888   0.1888
     0.1897   0.2263   0.2542   0.2553   0.3031   0.3446   0.4240   0.4358
     0.7927   0.9530   1.0024   1.0342   1.1250   1.1396   1.1454   1.1697
     1.2161   1.2553   1.3534   1.4091   1.4773   1.5194   1.5284   1.5830
     1.6125   1.6689   1.7132   1.7871   1.8895   2.0116   2.0403   2.0646
     2.1349   2.1477   2.1700   2.5658   2.8658   2.8862   2.9457   5.5963
     5.6592   5.8377   6.2892   6.6660   7.1327   7.1439   7.4515   7.6131
     8.1996   8.2709   8.3975   8.5670   8.6451   8.7756   8.8248   8.8573
     8.9250

          k = 0.0000 0.2640 0.0000 ( 34079 PWs)   bands (ev):

   -36.6611 -35.5138 -22.6323 -22.5659 -22.4731 -22.3746 -17.8381 -17.7227
   -17.6706 -16.8962 -16.7867 -16.5632 -14.9576 -14.9468 -14.8096 -14.6591
   -14.5882 -14.5709 -14.4165 -14.1440 -14.1119 -14.1068 -13.9609 -13.9285
   -13.8433 -13.8086 -13.7419  -7.8553  -7.7584  -7.7552  -7.7505  -7.7011
    -7.6504  -7.6354  -7.5928  -7.5884  -7.4896  -7.4455  -7.3473  -2.7746
    -2.7484  -2.6620  -2.6240  -2.5317  -2.3622  -2.3505  -2.2147  -2.2097
    -2.1639  -1.6101  -1.6067  -1.5277  -1.4069  -1.3981  -1.3363  -1.2971
    -0.9868  -0.9537  -0.8872  -0.8129  -0.7439  -0.7382  -0.7151  -0.5859
    -0.5587  -0.5495  -0.4967  -0.4685  -0.4499  -0.4308  -0.4268  -0.2597
    -0.2285  -0.0268   0.0528   0.0566   0.0789   0.0906   0.1605   0.2161
     0.2535   0.2774   0.4235   0.4431   0.6837   0.7307   0.7599   0.7647
     0.9761   0.9879   1.0351   1.0997   1.2000   1.2075   1.2308   1.2378
     1.2520   1.2781   1.3152   1.3601   1.3895   1.4439   1.6134   1.7108
     1.7589   1.7640   1.8720   1.9931   2.0059   2.0291   2.0400   2.0577
     2.0639   2.1656   2.2752   2.6833   3.1063   3.1163   3.7881   6.4440
     6.5530   6.5725   6.8642   7.3758   7.9168   7.9548   8.2413   8.4070
     8.4638   8.5577   8.7150   8.7806   8.9004   8.9927   9.0899   9.1644
     9.3675

          k = 0.0000 0.3960 0.0000 ( 34048 PWs)   bands (ev):

   -36.6573 -35.5094 -22.5641 -22.4976 -22.4084 -22.3099 -17.9039 -17.6955
   -17.6660 -16.9229 -16.7946 -16.5575 -14.8681 -14.8610 -14.7220 -14.6167
   -14.4735 -14.4331 -14.3653 -14.2727 -14.0806 -14.0490 -14.0389 -14.0252
   -13.9819 -13.9258 -13.8156  -7.8553  -7.8365  -7.7808  -7.7516  -7.7480
    -7.6862  -7.6228  -7.5781  -7.5219  -7.4634  -7.3271  -7.2267  -3.3841
    -3.2224  -3.1518  -3.1060  -2.9929  -2.9290  -2.9243  -2.3056  -2.2994
    -2.2042  -1.9461  -1.7414  -1.6959  -1.4835  -1.4615  -1.3063  -1.2542
    -1.2016  -1.0804  -1.0606  -1.0094  -0.9752  -0.9593  -0.9413  -0.8670
    -0.8271  -0.7899  -0.7427  -0.6880  -0.6840  -0.6411  -0.6136  -0.2821
    -0.2514  -0.1482  -0.0428   0.0468   0.0958   0.1081   0.1917   0.2057
     0.2276   0.2412   0.4625   0.5596   0.8482   0.9264   0.9533   0.9620
     0.9927   1.0088   1.0245   1.0505   1.1406   1.1560   1.2011   1.2018
     1.2148   1.4487   1.5629   1.5982   1.6749   1.6871   1.7255   1.7751
     1.8021   1.8150   1.9988   2.0503   2.0662   2.1090   2.1407   2.2201
     2.3225   2.4342   2.4360   2.5987   2.9990   3.0079   4.3463   7.2033
     7.4855   7.5063   7.5383   8.2101   8.3279   8.4678   8.5360   8.7466
     8.7730   9.1504   9.1569   9.2182   9.2444   9.3708   9.4954   9.5717
     9.6395

          k = 0.0000-0.5279 0.0000 ( 34110 PWs)   bands (ev):

   -36.6558 -35.5075 -22.5352 -22.4685 -22.3810 -22.2824 -17.9330 -17.6814
   -17.6641 -16.9751 -16.7496 -16.5552 -14.9104 -14.8939 -14.5734 -14.5071
   -14.5016 -14.4208 -14.2747 -14.2033 -14.1664 -14.1236 -14.0610 -14.0092
   -14.0072 -14.0060 -13.8478  -7.8662  -7.8549  -7.8105  -7.7488  -7.7412
    -7.7268  -7.6189  -7.6139  -7.4660  -7.4071  -7.2758  -7.1744  -3.6478
    -3.4011  -3.3297  -3.2757  -3.1715  -3.1529  -3.1492  -2.3217  -2.3160
    -2.2170  -2.0742  -1.8719  -1.8300  -1.4313  -1.3947  -1.2972  -1.2466
    -1.2219  -1.1659  -1.1346  -1.1122  -1.0909  -1.0647  -0.9846  -0.9594
    -0.9555  -0.9001  -0.8559  -0.7709  -0.7690  -0.7170  -0.6725  -0.2584
    -0.2483  -0.2215  -0.0492   0.0476   0.1015   0.1140   0.1864   0.2149
     0.2355   0.2373   0.4142   0.4886   0.8133   0.8819   0.9048   0.9244
     0.9448   0.9533   1.0727   1.1045   1.1787   1.1848   1.1966   1.3803
     1.4185   1.4563   1.5719   1.6570   1.7957   1.8021   1.8036   1.8553
     1.8803   2.0635   2.0793   2.0861   2.0988   2.1313   2.1386   2.2677
     2.3059   2.5547   2.5957   2.5974   2.8201   2.8302   4.5205   7.6293
     7.7958   7.9134   8.0831   8.1165   8.2956   8.4460   8.9687   9.0321
     9.0729   9.2101   9.2251   9.3487   9.3739   9.3966   9.5038   9.7269
     9.8794

          k = 0.1250 0.0000 0.0000 ( 34183 PWs)   bands (ev):

   -36.6655 -35.5189 -22.7068 -22.6406 -22.5440 -22.4455 -17.8093 -17.6992
   -17.6852 -16.9911 -16.6515 -16.5584 -15.1332 -15.1270 -14.9094 -14.8034
   -14.6507 -14.6217 -14.5110 -14.1241 -14.1240 -14.0401 -13.9276 -13.7791
   -13.7525 -13.7357 -13.5947  -7.8820  -7.8002  -7.7908  -7.7568  -7.6872
    -7.6768  -7.5933  -7.5356  -7.5348  -7.4460  -7.4071  -7.3107  -2.3064
    -2.2918  -2.2306  -1.9312  -1.8458  -1.8059  -1.7444  -1.7412  -1.6714
    -1.6349  -1.5841  -1.3869  -1.3379  -1.1523  -1.1518  -1.0459  -0.9980
    -0.8086  -0.6880  -0.5944  -0.5435  -0.4479  -0.3957  -0.3864  -0.3387
    -0.3152  -0.2729  -0.2592  -0.2586  -0.2060  -0.1952  -0.1561  -0.1282
    -0.0953  -0.0587  -0.0082   0.0217   0.1574   0.1582   0.1820   0.2327
     0.2543   0.2608   0.2899   0.3140   0.3954   0.4290   0.4469   0.4889
     0.5210   0.8568   0.8724   0.9124   0.9680   1.0036   1.1047   1.1389
     1.2547   1.2813   1.3212   1.3895   1.4357   1.4538   1.5530   1.5683
     1.6038   1.6433   1.8494   1.9497   2.0399   2.0533   2.1106   2.1278
     2.1615   2.1944   2.2676   2.3199   2.4024   2.6371   2.6385   5.4189
     5.4631   5.7460   6.2100   6.5961   7.0442   7.0504   7.3265   7.5455
     8.1742   8.2321   8.3982   8.5309   8.6404   8.7969   8.8627   8.8748
     8.9691

          k = 0.1250 0.1320 0.0000 ( 34158 PWs)   bands (ev):

   -36.6639 -35.5171 -22.6810 -22.6147 -22.5193 -22.4208 -17.8049 -17.7146
   -17.6908 -16.9559 -16.6545 -16.6216 -15.0660 -15.0516 -14.8706 -14.7480
   -14.6450 -14.6066 -14.4811 -14.1250 -14.1237 -14.0624 -13.9334 -13.8169
   -13.7834 -13.7709 -13.6427  -7.9012  -7.8299  -7.8192  -7.7910  -7.7330
    -7.6809  -7.6263  -7.5555  -7.5376  -7.4975  -7.3654  -7.2693  -2.3599
    -2.3296  -2.2963  -2.1415  -2.0811  -1.9699  -1.9503  -1.8918  -1.7849
    -1.7150  -1.6217  -1.6086  -1.5721  -1.5654  -1.3045  -1.2276  -1.0828
    -0.9402  -0.8018  -0.7353  -0.6153  -0.5780  -0.5551  -0.5134  -0.4792
    -0.4401  -0.4328  -0.4226  -0.2578  -0.1984  -0.1604  -0.1347  -0.0975
    -0.0679  -0.0523   0.0301   0.0513   0.0687   0.0803   0.1998   0.2194
     0.2275   0.2787   0.2922   0.3072   0.3236   0.3576   0.5857   0.6525
     0.7829   0.9962   1.0858   1.1071   1.1155   1.1238   1.1950   1.2048
     1.2278   1.2912   1.3420   1.3537   1.3947   1.4235   1.4560   1.5564
     1.6592   1.6678   1.7275   1.7636   1.8111   1.8600   2.0649   2.2949
     2.4069   2.4683   2.5293   2.6363   2.8778   2.8918   2.9599   5.7649
     5.8016   5.9791   6.4049   6.8060   7.3392   7.3410   7.6310   7.8161
     8.3468   8.4016   8.5166   8.6570   8.7069   8.7116   8.9787   9.0058
     9.1264

          k = 0.1250 0.2640 0.0000 ( 34093 PWs)   bands (ev):

   -36.6602 -35.5127 -22.6171 -22.5507 -22.4584 -22.3599 -17.8350 -17.7338
   -17.6788 -16.8667 -16.7836 -16.6341 -14.9105 -14.8776 -14.7946 -14.6454
   -14.5997 -14.5625 -14.4110 -14.1465 -14.1073 -14.1010 -13.9826 -13.9207
   -13.8642 -13.8225 -13.7477  -7.9702  -7.9118  -7.8561  -7.7944  -7.7611
    -7.7545  -7.6728  -7.6340  -7.5461  -7.4890  -7.3586  -7.2634  -2.7951
    -2.7640  -2.6695  -2.6226  -2.5404  -2.3627  -2.3486  -2.2141  -2.2086
    -2.1769  -1.8402  -1.7353  -1.6784  -1.5716  -1.5642  -1.4168  -1.3614
    -1.0312  -0.9422  -0.9251  -0.9075  -0.8836  -0.8246  -0.8048  -0.7926
    -0.6899  -0.6275  -0.6147  -0.5612  -0.4951  -0.4429  -0.4289  -0.2707
    -0.2541  -0.1347  -0.0565   0.0141   0.0400   0.0988   0.2361   0.2700
     0.3288   0.4621   0.5386   0.5656   0.7906   0.8032   0.8418   0.8737
     0.9502   1.0856   1.0965   1.1062   1.1680   1.2216   1.3439   1.3692
     1.3788   1.4170   1.4266   1.4590   1.4715   1.4802   1.5328   1.6185
     1.6763   1.7131   1.7745   1.8030   2.0042   2.0092   2.1070   2.3157
     2.6037   2.6760   2.7253   2.8629   3.1166   3.1264   3.7888   6.5155
     6.6140   6.6274   6.8444   7.4541   8.0904   8.1190   8.2916   8.3880
     8.5402   8.6324   8.8482   8.8567   8.9556   9.0598   9.1166   9.1993
     9.2573

          k = 0.1250 0.3960 0.0000 ( 34104 PWs)   bands (ev):

   -36.6565 -35.5083 -22.5512 -22.4846 -22.3957 -22.2972 -17.9010 -17.7204
   -17.6601 -16.9178 -16.7680 -16.6255 -14.8332 -14.8285 -14.6845 -14.5427
   -14.4489 -14.4189 -14.3480 -14.2710 -14.0777 -14.0601 -14.0500 -14.0150
   -13.9826 -13.9138 -13.8103  -8.0007  -7.9444  -7.8677  -7.8394  -7.7735
    -7.7624  -7.7173  -7.6423  -7.5912  -7.5335  -7.3930  -7.3033  -3.3746
    -3.2631  -3.1884  -3.1334  -3.0216  -2.9206  -2.9162  -2.3138  -2.3055
    -2.2190  -1.9048  -1.7260  -1.6828  -1.6362  -1.5882  -1.5220  -1.4571
    -1.2682  -1.2516  -1.2059  -1.1239  -1.1148  -1.0438  -1.0287  -0.9375
    -0.8788  -0.8126  -0.8046  -0.7856  -0.7436  -0.6977  -0.6833  -0.3329
    -0.2961  -0.1750  -0.0962   0.0167   0.0480   0.1628   0.2641   0.2741
     0.3357   0.5043   0.6640   0.7371   0.7737   0.9676   0.9797   1.0337
     1.0841   1.1137   1.1410   1.1983   1.2485   1.2671   1.2967   1.3143
     1.3798   1.5331   1.6179   1.6467   1.7154   1.7204   1.7862   1.7951
     1.8520   1.9408   2.0200   2.0401   2.1293   2.4012   2.4036   2.4386
     2.5528   2.6087   2.6880   2.7899   3.0470   3.0645   4.3298   7.0602
     7.2494   7.3661   7.4252   8.1386   8.1979   8.5485   8.5864   8.7290
     8.8198   8.9845   9.1901   9.2750   9.4362   9.5112   9.6147   9.6347
     9.7128

          k = 0.1250-0.5279 0.0000 ( 34036 PWs)   bands (ev):

   -36.6549 -35.5065 -22.5232 -22.4565 -22.3691 -22.2706 -17.9301 -17.7143
   -17.6501 -16.9694 -16.7246 -16.6218 -14.8657 -14.8496 -14.5314 -14.4818
   -14.4301 -14.3824 -14.2796 -14.2041 -14.1463 -14.1066 -14.0936 -14.0069
   -14.0052 -13.9894 -13.8315  -7.9953  -7.9399  -7.8725  -7.8490  -7.7672
    -7.7552  -7.7435  -7.6469  -7.6252  -7.5667  -7.4149  -7.3285  -3.6396
    -3.4497  -3.3710  -3.3136  -3.1999  -3.1490  -3.1454  -2.3349  -2.3273
    -2.2348  -1.9769  -1.7559  -1.7048  -1.5461  -1.5199  -1.4979  -1.4477
    -1.4179  -1.3892  -1.2938  -1.2894  -1.2728  -1.1294  -1.1073  -0.9789
    -0.9635  -0.8813  -0.8731  -0.8628  -0.8053  -0.7904  -0.7833  -0.3462
    -0.2785  -0.1819  -0.1119   0.0083   0.0716   0.1883   0.2758   0.2814
     0.3368   0.5068   0.6500   0.7105   0.7879   0.9650   0.9998   1.0115
     1.0219   1.0353   1.0945   1.1235   1.3216   1.3635   1.3867   1.4133
     1.4529   1.5575   1.5919   1.8118   1.8447   1.8807   1.9027   2.0741
     2.0911   2.0983   2.1070   2.1747   2.2973   2.4119   2.4358   2.5404
     2.5666   2.5690   2.5736   2.6286   2.9064   2.9412   4.4954   7.2463
     7.3577   7.5872   7.6772   8.3382   8.3827   8.4950   8.6022   9.0923
     9.1136   9.3446   9.3605   9.3701   9.4564   9.6180   9.7155   9.7727
     9.9648

          k = 0.2500 0.0000 0.0000 ( 34204 PWs)   bands (ev):

   -36.6634 -35.5163 -22.6625 -22.5961 -22.5018 -22.4034 -17.8275 -17.7202
   -17.6826 -16.9057 -16.8157 -16.5551 -14.9834 -14.9352 -14.8903 -14.8605
   -14.7322 -14.6690 -14.5347 -14.1384 -14.1377 -14.1065 -13.9752 -13.8709
   -13.8410 -13.8106 -13.6508  -7.8837  -7.8488  -7.7904  -7.6704  -7.6684
    -7.6057  -7.5126  -7.4584  -7.4533  -7.3601  -7.3322  -7.2352  -2.4999
    -2.4475  -2.4292  -2.2915  -2.1432  -2.0859  -2.0718  -1.7610  -1.6806
    -1.5819  -1.5105  -1.4047  -1.3577  -1.1662  -1.1488  -1.1485  -1.0573
    -0.9773  -0.8902  -0.8874  -0.7217  -0.7032  -0.6361  -0.6142  -0.5926
    -0.5720  -0.4644  -0.4499  -0.3873  -0.3643  -0.2412  -0.2268  -0.1844
    -0.1753  -0.1251  -0.1113   0.0216   0.1442   0.1455   0.2509   0.2773
     0.3364   0.3819   0.3900   0.4218   0.4793   0.5205   0.5292   0.6144
     0.6892   0.7266   0.8439   0.9718   0.9883   1.0809   1.1144   1.1761
     1.2967   1.3468   1.3603   1.3744   1.4386   1.4476   1.4895   1.5220
     1.6470   1.6795   1.8299   1.9413   1.9935   2.0860   2.0960   2.1168
     2.1325   2.2782   2.3671   2.4993   2.5647   2.7451   2.7631   5.9199
     5.9205   6.2522   6.5629   7.1123   7.5832   7.6210   7.8393   8.0931
     8.5014   8.5560   8.7086   8.7367   8.7740   8.8965   9.1251   9.2372
     9.3640

          k = 0.2500 0.1320 0.0000 ( 34143 PWs)   bands (ev):

   -36.6619 -35.5145 -22.6387 -22.5722 -22.4789 -22.3805 -17.8229 -17.7365
   -17.6873 -16.8736 -16.8093 -16.6213 -14.9328 -14.8848 -14.8517 -14.7994
   -14.6831 -14.6292 -14.4993 -14.1248 -14.1240 -14.1138 -13.9742 -13.8755
   -13.8634 -13.8455 -13.6783  -7.9520  -7.8829  -7.8687  -7.8069  -7.7172
    -7.6928  -7.6471  -7.5397  -7.4789  -7.4215  -7.2948  -7.2015  -2.5506
    -2.4996  -2.4586  -2.3256  -2.1348  -2.0860  -2.0631  -2.0484  -2.0265
    -1.8923  -1.8897  -1.6314  -1.5627  -1.5620  -1.3569  -1.2960  -1.2291
    -1.0557  -0.9794  -0.9465  -0.9002  -0.8603  -0.8399  -0.8138  -0.5959
    -0.5637  -0.5460  -0.4732  -0.4287  -0.3682  -0.2787  -0.2661  -0.1693
    -0.1491  -0.1017   0.0349   0.0567   0.0949   0.1288   0.2045   0.2431
     0.2606   0.3101   0.3913   0.3963   0.5584   0.6584   0.7069   0.8394
     0.9656   0.9748   1.0118   1.0297   1.1058   1.1376   1.2465   1.2815
     1.2967   1.3455   1.3654   1.4069   1.4460   1.5010   1.5443   1.5506
     1.6027   1.6514   1.6964   1.7962   1.8379   1.8661   2.0796   2.4111
     2.7297   2.7650   2.8437   2.9243   2.9432   2.9726   3.0338   6.1816
     6.1871   6.3831   6.6237   7.2617   7.8349   7.8780   8.0710   8.3111
     8.4634   8.6257   8.6732   8.8115   8.9148   9.0153   9.1925   9.2476
     9.2997

          k = 0.2500 0.2640 0.0000 ( 34141 PWs)   bands (ev):

   -36.6582 -35.5101 -22.5800 -22.5134 -22.4225 -22.3242 -17.8320 -17.7859
   -17.6661 -16.8092 -16.7853 -16.7578 -14.8189 -14.7956 -14.7519 -14.6302
   -14.5428 -14.5218 -14.4102 -14.1654 -14.0990 -14.0855 -14.0234 -13.9197
   -13.9041 -13.8617 -13.7528  -8.1722  -8.1146  -7.9913  -7.9031  -7.8687
    -7.7662  -7.7515  -7.6492  -7.5987  -7.5422  -7.4125  -7.3234  -2.9298
    -2.8862  -2.7527  -2.6714  -2.5685  -2.3760  -2.3473  -2.2642  -2.2467
    -2.2288  -2.1700  -2.1050  -2.0437  -2.0314  -1.5521  -1.3926  -1.3846
    -1.3560  -1.2966  -1.2389  -1.1997  -1.0419  -0.9496  -0.8915  -0.7879
    -0.7026  -0.6674  -0.6387  -0.6153  -0.5339  -0.5260  -0.5127  -0.4459
    -0.3328  -0.3028  -0.2727   0.0578   0.1546   0.1896   0.3606   0.4202
     0.5202   0.6477   0.7440   0.8374   0.8570   0.8863   0.9114   1.0260
     1.0293   1.2016   1.2771   1.2866   1.3255   1.3514   1.4118   1.4492
     1.4729   1.5241   1.5404   1.5631   1.6193   1.6436   1.6875   1.7146
     1.7435   1.7738   1.7773   1.7850   1.9241   1.9329   2.2215   2.4224
     3.0527   3.0641   3.3362   3.3442   3.4416   3.4885   3.7922   6.5849
     6.7204   6.7293   6.8013   7.6541   8.0460   8.4100   8.4312   8.5743
     8.7945   8.8313   9.0161   9.1168   9.1910   9.2249   9.3655   9.3992
     9.4293

          k = 0.2500 0.3960 0.0000 ( 34116 PWs)   bands (ev):

   -36.6545 -35.5057 -22.5196 -22.4529 -22.3647 -22.2663 -17.8941 -17.7857
   -17.6383 -16.9057 -16.7736 -16.6994 -14.7520 -14.7494 -14.5928 -14.4136
   -14.3791 -14.3744 -14.3069 -14.2645 -14.1482 -14.0520 -14.0309 -13.9845
   -13.9760 -13.8847 -13.8030  -8.2922  -8.2363  -8.1168  -8.0251  -7.9191
    -7.8319  -7.8127  -7.7929  -7.7390  -7.7114  -7.5924  -7.5309  -3.4324
    -3.3869  -3.3007  -3.2361  -3.1350  -2.8999  -2.8965  -2.3856  -2.3573
    -2.2988  -2.1627  -2.0684  -1.9945  -1.9805  -1.8040  -1.7258  -1.6433
    -1.5715  -1.4948  -1.3797  -1.3340  -1.2098  -1.0974  -1.0383  -0.9233
    -0.9144  -0.7982  -0.7437  -0.7368  -0.7290  -0.7003  -0.6264  -0.5654
    -0.4752  -0.3783  -0.3546   0.1575   0.2334   0.2808   0.4214   0.5004
     0.6527   0.8438   0.8760   1.0421   1.0461   1.0606   1.0817   1.3023
     1.3205   1.3297   1.3607   1.3904   1.4574   1.4807   1.5580   1.6026
     1.6102   1.6585   1.6929   1.7623   1.7795   1.8045   1.8445   1.8745
     1.9554   1.9869   2.1067   2.1322   2.1578   2.3229   2.3281   2.4799
     2.8847   2.8970   3.5577   3.5677   3.6811   3.7248   4.2855   6.5287
     6.8116   6.9324   7.0471   7.8174   8.2258   8.6992   8.8380   8.8839
     9.0446   9.0946   9.1878   9.3591   9.4212   9.7451   9.8227   9.9053
     9.9285

          k = 0.2500-0.5279 0.0000 ( 34148 PWs)   bands (ev):

   -36.6529 -35.5039 -22.4940 -22.4273 -22.3402 -22.2419 -17.9232 -17.7821
   -17.6260 -16.9559 -16.7681 -16.6598 -14.7487 -14.7343 -14.4339 -14.4233
   -14.2976 -14.2914 -14.2876 -14.2032 -14.1583 -14.0940 -14.0682 -14.0014
   -13.9993 -13.9429 -13.7976  -8.2924  -8.2371  -8.1346  -8.0331  -8.0072
    -7.9459  -7.8789  -7.8364  -7.7962  -7.7783  -7.6401  -7.6218  -3.6527
    -3.6083  -3.5197  -3.4351  -3.3289  -3.1276  -3.1246  -2.3929  -2.3692
    -2.3030  -2.1055  -2.0308  -1.9676  -1.9426  -1.9325  -1.8815  -1.7706
    -1.7227  -1.5439  -1.4106  -1.3543  -1.2742  -1.1800  -1.1319  -0.9961
    -0.9612  -0.8742  -0.8230  -0.8013  -0.7492  -0.7180  -0.6297  -0.5817
    -0.4885  -0.4041  -0.3836   0.1744   0.2680   0.3135   0.4467   0.5410
     0.6867   0.9003   0.9809   1.0797   1.1047   1.1468   1.1639   1.2613
     1.2686   1.3177   1.4044   1.4366   1.5096   1.5635   1.5648   1.6056
     1.6199   1.7788   1.8099   1.8201   1.9427   1.9773   2.0313   2.0593
     2.0872   2.1069   2.1433   2.2750   2.3201   2.4986   2.5037   2.5225
     2.6633   2.6779   3.5750   3.5882   3.7081   3.7597   4.4264   6.4479
     6.7840   6.8969   7.0335   7.7862   8.5085   8.7787   8.9549   8.9666
     9.2602   9.3674   9.4643   9.5842   9.6330   9.7150   9.9102   9.9425
    10.0331

          k = 0.3750 0.0000 0.0000 ( 34140 PWs)   bands (ev):

   -36.6613 -35.5136 -22.6171 -22.5504 -22.4586 -22.3602 -17.8794 -17.7036
   -17.6800 -16.9556 -16.8105 -16.5518 -14.9851 -14.9805 -14.9586 -14.7716
   -14.5917 -14.5868 -14.5357 -14.2146 -14.1499 -14.1364 -14.0851 -13.9648
   -13.9601 -13.8504 -13.6924  -7.8708  -7.8637  -7.7645  -7.6347  -7.6054
    -7.5481  -7.4282  -7.4078  -7.3682  -7.3144  -7.2543  -7.1565  -2.8273
    -2.7799  -2.7288  -2.6432  -2.2656  -2.2456  -2.1470  -1.6383  -1.5986
    -1.5160  -1.4626  -1.4371  -1.4013  -1.2884  -1.1973  -1.1501  -1.1500
    -1.1301  -1.0857  -0.9851  -0.9526  -0.9140  -0.8318  -0.8245  -0.8152
    -0.7706  -0.6646  -0.6510  -0.5399  -0.4261  -0.3761  -0.3518  -0.1988
    -0.1708  -0.1652  -0.1241  -0.0421   0.1314   0.1326   0.2366   0.2535
     0.2967   0.4376   0.4690   0.4809   0.4915   0.4977   0.5175   0.5496
     0.6063   0.8159   0.8989   0.9258   1.0237   1.1926   1.2500   1.2583
     1.2969   1.3248   1.4083   1.4167   1.5517   1.5787   1.5955   1.7019
     1.7166   1.7177   1.8120   1.8729   1.8774   1.9858   2.0381   2.1767
     2.2135   2.3009   2.4195   2.5968   2.6790   2.8580   2.8702   6.5701
     6.5800   6.8749   6.9112   7.8367   7.9663   8.0652   8.0953   8.5420
     8.5723   8.6944   8.7641   8.9766   9.0561   9.3885   9.4375   9.5293
     9.5567

          k = 0.3750 0.1320 0.0000 ( 34185 PWs)   bands (ev):

   -36.6598 -35.5118 -22.5954 -22.5287 -22.4376 -22.3392 -17.8748 -17.7337
   -17.6712 -16.9470 -16.7814 -16.6163 -14.9362 -14.9316 -14.8910 -14.7249
   -14.5469 -14.5458 -14.4752 -14.2071 -14.1219 -14.1154 -14.0619 -13.9717
   -13.9485 -13.8846 -13.7023  -7.9235  -7.8884  -7.8411  -7.7686  -7.6913
    -7.6696  -7.5900  -7.5179  -7.4939  -7.4600  -7.3426  -7.2497  -2.8890
    -2.8426  -2.7677  -2.6870  -2.2645  -2.2421  -2.1539  -1.9960  -1.9776
    -1.8176  -1.8024  -1.6366  -1.5511  -1.5508  -1.4163  -1.3805  -1.3582
    -1.2474  -1.2395  -1.1476  -1.1293  -1.1000  -0.9983  -0.8578  -0.7327
    -0.7262  -0.6213  -0.5699  -0.5011  -0.4611  -0.3513  -0.3469  -0.2154
    -0.2030  -0.1459   0.0076   0.0498   0.1034   0.1550   0.2444   0.2452
     0.2945   0.3051   0.5045   0.5076   0.5426   0.6906   0.7343   0.8195
     0.8572   0.9534   1.0316   1.1069   1.1997   1.2268   1.2489   1.2986
     1.3508   1.3865   1.4253   1.4313   1.5690   1.6045   1.6350   1.6813
     1.7258   1.7821   1.8034   1.8559   1.8610   1.9498   1.9670   2.3848
     2.8086   2.8260   2.9269   3.0038   3.0618   3.1420   3.2144   6.7187
     6.7250   6.7601   6.9550   7.8653   7.8839   8.1306   8.1541   8.5639
     8.6252   8.9022   8.9850   9.0637   9.1733   9.3438   9.4182   9.5636
     9.6127

          k = 0.3750 0.2640 0.0000 ( 34193 PWs)   bands (ev):

   -36.6561 -35.5075 -22.5421 -22.4754 -22.3860 -22.2877 -17.8643 -17.8092
   -17.6437 -16.9266 -16.7606 -16.7062 -14.8111 -14.8092 -14.7075 -14.5986
   -14.4501 -14.4343 -14.3261 -14.2101 -14.0816 -14.0690 -14.0487 -13.9942
   -13.9256 -13.8957 -13.7463  -8.2249  -8.1667  -8.0497  -7.9585  -7.9034
    -7.8186  -7.7881  -7.7810  -7.7081  -7.6747  -7.5878  -7.5187  -3.2049
    -3.1584  -2.9941  -2.9268  -2.5547  -2.4361  -2.3941  -2.3697  -2.3161
    -2.3024  -2.2896  -2.1853  -2.1746  -2.1361  -1.7370  -1.7118  -1.5638
    -1.5278  -1.4788  -1.1912  -1.1487  -1.0209  -0.9199  -0.8636  -0.8298
    -0.8114  -0.7686  -0.7290  -0.6735  -0.5860  -0.5831  -0.5684  -0.5282
    -0.4203  -0.3119  -0.3073   0.1045   0.1933   0.3249   0.4733   0.5253
     0.6564   0.7601   0.8178   0.8888   0.8939   1.0709   1.0776   1.0946
     1.2070   1.2444   1.2909   1.3282   1.4237   1.4719   1.4835   1.5119
     1.5931   1.6439   1.6935   1.6954   1.7144   1.7705   1.7976   1.8135
     1.8278   1.8438   1.8807   1.8949   1.9068   2.0619   2.1921   2.3613
     3.0538   3.0619   3.7353   3.7880   3.8252   3.8636   3.9266   6.3963
     6.7282   6.7650   6.8864   7.7077   7.9954   8.4706   8.4711   8.8424
     8.9047   9.1163   9.2910   9.3338   9.4824   9.5548   9.5939   9.7227
     9.7895

          k = 0.3750 0.3960 0.0000 ( 34177 PWs)   bands (ev):

   -36.6524 -35.5032 -22.4874 -22.4207 -22.3332 -22.2349 -17.8872 -17.8498
   -17.6149 -16.9093 -16.8874 -16.6265 -14.6742 -14.6700 -14.5072 -14.4019
   -14.3548 -14.3211 -14.2500 -14.1684 -14.1619 -14.0477 -14.0148 -13.9951
   -13.9209 -13.8559 -13.8119  -8.4907  -8.4347  -8.3157  -8.2218  -8.1557
    -8.1009  -7.9642  -7.9059  -7.8622  -7.8014  -7.7949  -7.6477  -3.6849
    -3.6263  -3.4422  -3.3792  -3.2669  -2.8793  -2.8769  -2.5662  -2.5150
    -2.4900  -2.4051  -2.2139  -2.1925  -2.1416  -2.0418  -2.0192  -1.7986
    -1.7750  -1.5733  -1.2037  -1.1436  -1.1369  -1.1338  -1.0787  -0.8958
    -0.8932  -0.8801  -0.8513  -0.8009  -0.7842  -0.7532  -0.7272  -0.6285
    -0.5480  -0.3304  -0.3244   0.2420   0.3424   0.3827   0.6430   0.7322
     0.9131   1.0669   1.0991   1.2227   1.2315   1.2943   1.3559   1.4144
     1.4248   1.4702   1.5489   1.5521   1.5708   1.5891   1.6524   1.7492
     1.8054   1.8334   1.8375   1.8804   1.9086   1.9492   1.9874   2.0307
     2.0654   2.0881   2.1530   2.2420   2.2443   2.2508   2.4019   2.4962
     2.8746   2.8838   4.1829   4.2909   4.3290   4.3699   4.4022   5.9690
     6.4415   6.4618   6.6570   7.4426   8.4659   8.8056   8.9869   9.0361
     9.0867   9.3365   9.3986   9.4761   9.5647   9.5681   9.6179   9.6913
     9.7672

          k = 0.3750-0.5279 0.0000 ( 34192 PWs)   bands (ev):

   -36.6509 -35.5014 -22.4644 -22.3976 -22.3109 -22.2127 -17.9164 -17.8464
   -17.6026 -16.9426 -16.8967 -16.5910 -14.6129 -14.6033 -14.4132 -14.3319
   -14.3029 -14.2780 -14.2175 -14.2013 -14.0799 -14.0448 -14.0144 -13.9934
   -13.9914 -13.8960 -13.7806  -8.5727  -8.5172  -8.4099  -8.3100  -8.3009
    -8.2477  -8.1198  -7.9350  -7.9317  -7.8500  -7.8246  -7.6632  -3.8920
    -3.8292  -3.6508  -3.5989  -3.5083  -3.1045  -3.1027  -2.5848  -2.5326
    -2.5013  -2.4154  -2.2082  -2.1862  -2.1469  -2.1403  -2.1240  -1.8939
    -1.8565  -1.5954  -1.2775  -1.2357  -1.2162  -1.1698  -1.1365  -0.9693
    -0.9259  -0.8928  -0.8887  -0.8776  -0.8450  -0.8154  -0.7858  -0.6536
    -0.5162  -0.3161  -0.3105   0.2750   0.3759   0.4011   0.7044   0.8278
     0.9967   1.1987   1.2565   1.3319   1.3581   1.3652   1.3805   1.4168
     1.4496   1.5460   1.5970   1.6287   1.6736   1.7382   1.8048   1.8330
     1.8538   1.8725   1.9073   1.9801   2.0524   2.0949   2.1036   2.1270
     2.2067   2.2417   2.3064   2.3544   2.4289   2.4352   2.5626   2.5781
     2.6312   2.6424   4.2698   4.4266   4.4826   4.5177   4.5497   5.7776
     6.2745   6.2840   6.5807   7.3510   8.7434   8.7774   8.9634   9.0247
     9.1979   9.3525   9.3690   9.4386   9.5179   9.6809   9.8243   9.8489
     9.9104

          k =-0.5000 0.0000 0.0000 ( 34130 PWs)   bands (ev):

   -36.6605 -35.5125 -22.5979 -22.5312 -22.4404 -22.3420 -17.9038 -17.6929
   -17.6790 -17.0080 -16.7683 -16.5504 -15.0382 -15.0301 -14.9943 -14.7041
   -14.6001 -14.4948 -14.3245 -14.2907 -14.2551 -14.1341 -14.1324 -14.0307
   -14.0074 -13.8626 -13.7063  -7.8710  -7.8548  -7.7497  -7.6161  -7.5822
    -7.5291  -7.3928  -7.3920  -7.3317  -7.3027  -7.2210  -7.1229  -2.9692
    -2.9173  -2.8695  -2.7873  -2.2906  -2.2769  -2.1456  -1.5875  -1.5603
    -1.5510  -1.5303  -1.3237  -1.3133  -1.3113  -1.3080  -1.1676  -1.1605
    -1.1540  -1.1535  -1.1100  -1.0689  -1.0179  -0.9288  -0.9263  -0.8375
    -0.7918  -0.7481  -0.7354  -0.6090  -0.4439  -0.4405  -0.4034  -0.2123
    -0.1639  -0.1514  -0.1283  -0.1219   0.1261   0.1273   0.2038   0.2513
     0.2804   0.4415   0.4687   0.4688   0.4694   0.4944   0.5144   0.5470
     0.6116   0.8329   0.8897   0.9125   0.9719   1.1997   1.2082   1.2642
     1.4272   1.4344   1.4630   1.4923   1.5409   1.6548   1.6570   1.6926
     1.7196   1.7272   1.8203   1.8860   1.9357   2.0232   2.0233   2.1927
     2.2216   2.2896   2.4242   2.5963   2.6984   2.8765   2.9065   7.0141
     7.3427   7.3705   7.3773   7.3949   7.4710   7.6585   8.3371   8.5197
     8.6122   8.9391   9.1108   9.1716   9.3006   9.4426   9.5220   9.5687
     9.6418

          k =-0.5000 0.1320 0.0000 ( 34202 PWs)   bands (ev):

   -36.6589 -35.5108 -22.5772 -22.5104 -22.4202 -22.3219 -17.8991 -17.7305
   -17.6626 -16.9988 -16.7408 -16.6141 -14.9800 -14.9725 -14.9215 -14.6600
   -14.5602 -14.4557 -14.2838 -14.2760 -14.1972 -14.1118 -14.1103 -14.0350
   -13.9763 -13.9000 -13.7095  -7.8949  -7.8847  -7.7938  -7.7117  -7.6589
    -7.6411  -7.5950  -7.5307  -7.5175  -7.4355  -7.4202  -7.3354  -3.0374
    -2.9874  -2.9150  -2.8390  -2.2956  -2.2795  -2.1640  -1.9602  -1.9418
    -1.7747  -1.7468  -1.6275  -1.5458  -1.5457  -1.4483  -1.4400  -1.4227
    -1.3619  -1.3171  -1.2372  -1.2266  -1.1522  -1.0199  -0.8731  -0.8038
    -0.7947  -0.6324  -0.5820  -0.5388  -0.4789  -0.3877  -0.3838  -0.2267
    -0.2230  -0.1845  -0.0068   0.0511   0.1133   0.1554   0.2461   0.2472
     0.2944   0.3990   0.4112   0.5801   0.5811   0.6494   0.7000   0.7564
     0.8394   0.9535   1.0498   1.1043   1.1506   1.2346   1.2476   1.3451
     1.3523   1.3815   1.4835   1.5176   1.6249   1.6855   1.6960   1.7129
     1.7843   1.8052   1.8118   1.8609   1.9430   1.9874   2.0468   2.3596
     2.8151   2.8216   2.9413   3.0222   3.0792   3.1820   3.2677   6.8082
     7.1903   7.2192   7.2872   7.6280   7.6976   7.7417   8.2423   8.5450
     8.7159   9.0211   9.3274   9.3609   9.4016   9.4662   9.6229   9.7134
     9.8081

          k =-0.5000 0.2640 0.0000 ( 34216 PWs)   bands (ev):

   -36.6553 -35.5064 -22.5262 -22.4594 -22.3706 -22.2724 -17.8879 -17.8086
   -17.6336 -16.9767 -16.7573 -16.6697 -14.8280 -14.8205 -14.7199 -14.5482
   -14.4647 -14.3637 -14.2514 -14.1809 -14.1002 -14.0599 -14.0596 -14.0411
   -13.9667 -13.9001 -13.7404  -8.1637  -8.0998  -8.0128  -8.0114  -7.9607
    -7.8965  -7.8445  -7.8180  -7.7898  -7.7445  -7.6848  -7.6013  -3.3431
    -3.2962  -3.1309  -3.0720  -2.5456  -2.4616  -2.4184  -2.3916  -2.3291
    -2.3115  -2.3054  -2.1931  -2.1862  -2.1425  -1.8608  -1.8291  -1.6320
    -1.6027  -1.5564  -1.1138  -1.0588  -0.9753  -0.9032  -0.8972  -0.8603
    -0.8514  -0.8011  -0.7622  -0.6979  -0.6086  -0.6058  -0.5722  -0.5567
    -0.4243  -0.3291  -0.3194   0.1228   0.2074   0.3677   0.5324   0.5686
     0.7039   0.7995   0.8838   0.9179   0.9188   1.1254   1.1559   1.1632
     1.2160   1.2434   1.2564   1.2653   1.4430   1.4917   1.5349   1.5730
     1.6429   1.6540   1.7308   1.7500   1.7657   1.7903   1.8272   1.8543
     1.8843   1.9149   1.9328   1.9774   2.0075   2.0454   2.2012   2.3042
     3.0470   3.0542   3.7582   3.9277   3.9395   3.9908   4.0569   6.2871
     6.7605   6.7783   6.8127   7.6408   8.0726   8.4608   8.5083   8.9193
     9.0794   9.1750   9.2858   9.4523   9.6548   9.6823   9.7393   9.8918
     9.9564

          k =-0.5000 0.3960 0.0000 ( 34176 PWs)   bands (ev):

   -36.6516 -35.5021 -22.4740 -22.4072 -22.3200 -22.2218 -17.8833 -17.8768
   -17.6049 -16.9552 -16.8865 -16.5941 -14.6451 -14.6376 -14.4818 -14.4091
   -14.3656 -14.2851 -14.2452 -14.1546 -14.0724 -14.0383 -14.0115 -14.0094
   -13.9069 -13.8474 -13.8191  -8.5389  -8.4822  -8.3708  -8.3008  -8.2710
    -8.2490  -8.1168  -7.9261  -7.9225  -7.8819  -7.8158  -7.6527  -3.8150
    -3.7572  -3.5549  -3.4944  -3.2677  -2.8708  -2.8688  -2.6360  -2.5872
    -2.5542  -2.4755  -2.2303  -2.2168  -2.1545  -2.1506  -2.1020  -1.8758
    -1.8099  -1.6244  -1.1688  -1.1453  -1.1274  -1.0415  -1.0113  -0.9811
    -0.9381  -0.8767  -0.8557  -0.8436  -0.8214  -0.8000  -0.7158  -0.7040
    -0.5272  -0.2923  -0.2866   0.2672   0.3662   0.4367   0.7492   0.8292
     1.0193   1.1785   1.1803   1.3396   1.3474   1.3697   1.3890   1.4510
     1.4679   1.4813   1.6031   1.6270   1.6282   1.6401   1.6640   1.7976
     1.8114   1.8825   1.9210   1.9267   1.9884   1.9914   2.0574   2.0719
     2.1233   2.1398   2.2113   2.2141   2.2786   2.3479   2.4434   2.5317
     2.8626   2.8707   4.1874   4.5408   4.5770   4.6237   4.6460   5.7508
     6.2656   6.2733   6.5145   7.2920   8.6187   8.6785   8.9888   8.9938
     9.1442   9.3156   9.3416   9.5048   9.5856   9.7019   9.7049   9.7307
     9.8163

          k =-0.5000-0.5279 0.0000 ( 34236 PWs)   bands (ev):

   -36.6501 -35.5003 -22.4520 -22.3852 -22.2986 -22.2005 -17.9136 -17.8722
   -17.5929 -16.9463 -16.9371 -16.5607 -14.5473 -14.5419 -14.4145 -14.3723
   -14.2675 -14.2484 -14.1999 -14.1998 -14.0345 -14.0288 -13.9877 -13.9876
   -13.9756 -13.8665 -13.7901  -8.6849  -8.6292  -8.5215  -8.4219  -8.4169
    -8.3651  -8.2400  -8.0198  -7.9507  -7.8993  -7.8422  -7.6698  -4.0236
    -3.9604  -3.7587  -3.6977  -3.5298  -3.0950  -3.0935  -2.6684  -2.6188
    -2.5789  -2.5020  -2.2442  -2.2203  -2.2070  -2.1875  -2.1543  -1.9544
    -1.8775  -1.6459  -1.2830  -1.2603  -1.1759  -1.1049  -1.0756  -0.9604
    -0.9564  -0.9162  -0.9135  -0.9133  -0.8950  -0.8705  -0.8164  -0.7333
    -0.4841  -0.2635  -0.2592   0.3041   0.4024   0.4525   0.8294   0.9607
     1.1361   1.2743   1.4121   1.4291   1.4423   1.4456   1.4505   1.4685
     1.5048   1.6045   1.6231   1.6639   1.7013   1.7326   1.8895   1.9149
     1.9531   1.9942   2.0139   2.0531   2.1207   2.1259   2.1384   2.1899
     2.2253   2.2710   2.4050   2.4065   2.4499   2.4960   2.6065   2.6145
     2.6171   2.6998   4.2710   4.7306   4.7820   4.8324   4.8482   5.5190
     6.0384   6.0429   6.4387   7.1874   8.6911   8.7667   8.9983   9.0800
     9.0940   9.1625   9.1715   9.2994   9.4344   9.6369   9.6556   9.8610
    10.0522

     the Fermi energy is     2.6336 ev

!    total energy              =   -1842.86578963 Ry
     Harris-Foulkes estimate   =   -1842.86578964 Ry
     estimated scf accuracy    <          4.8E-09 Ry

     The total energy is the sum of the following terms:

     one-electron contribution =  -30459.09024139 Ry
     hartree contribution      =   15382.83268858 Ry
     xc contribution           =    -621.68863733 Ry
     ewald contribution        =   13855.08869034 Ry
     smearing contrib. (-TS)   =      -0.00828984 Ry

     convergence has been achieved in  33 iterations

     negative rho (up, down):  1.506E-03 0.000E+00

     Forces acting on atoms (cartesian axes, Ry/au):

     atom    1 type  4   force =     0.00000000    0.00000000   -0.00016440
     atom    2 type  3   force =     0.00000000    0.00000000    0.00028877
     atom    3 type  4   force =     0.00000000    0.00000000   -0.00077539
     atom    4 type  1   force =     0.00000000    0.00000000   -0.00028753
     atom    5 type  3   force =     0.00000000    0.00000000    0.00047517
     atom    6 type  4   force =     0.00000000    0.00000000   -0.00002209
     atom    7 type  4   force =     0.00000000    0.00000000    0.00033275
     atom    8 type  2   force =     0.00000000    0.00000000   -0.00058577
     atom    9 type  4   force =     0.00000000    0.00000000    0.00021382
     atom   10 type  4   force =     0.00000000    0.00000000    0.00020006
     atom   11 type  3   force =     0.00000000    0.00000000    0.00023447
     atom   12 type  1   force =     0.00000000    0.00000000    0.00019691
     atom   13 type  4   force =     0.00000000    0.00000000    0.00170388
     atom   14 type  4   force =     0.00000000    0.00000000    0.00109052
     atom   15 type  3   force =     0.00000000    0.00000000   -0.00161718
     atom   16 type  4   force =     0.00000000    0.00000000    0.00005281
     atom   17 type  1   force =     0.00000000    0.00000000   -0.00609441
     atom   18 type  3   force =     0.00000000    0.00000000    0.00083982
     atom   19 type  4   force =     0.00000000    0.00000000    0.02239767
     atom   20 type  4   force =     0.00000000    0.00000000    0.02540130
     atom   21 type  2   force =     0.00000000    0.00000000    0.01976692
     atom   22 type  4   force =     0.00000000    0.00000000   -0.02233474
     atom   23 type  4   force =     0.00000000    0.00000000   -0.01919832
     atom   24 type  3   force =     0.00000000    0.00000000   -0.01010562
     atom   25 type  1   force =     0.00000000    0.00000000   -0.01229018
     atom   26 type  4   force =     0.00000000    0.00000000    0.00054747
     atom   27 type  3   force =     0.00000000    0.00000000   -0.00036836
     atom   28 type  4   force =     0.00000000    0.00000000    0.00010164

     Total force =     0.052008     Total SCF correction =     0.000367


     Computing stress (Cartesian axis) and pressure


     negative rho (up, down):  1.506E-03 0.000E+00
          total   stress  (Ry/bohr**3)                   (kbar)     P=       -5.37
  -0.00001108   0.00000000   0.00000000           -1.63        0.00        0.00
   0.00000000  -0.00000163   0.00000000            0.00       -0.24        0.00
   0.00000000   0.00000000  -0.00009676            0.00        0.00      -14.23

 
     init_run     :      9.39s CPU     10.07s WALL (       1 calls)
     electrons    :    645.18s CPU    670.88s WALL (       1 calls)
     forces       :      3.66s CPU      4.02s WALL (       1 calls)
     stress       :     24.37s CPU     25.31s WALL (       1 calls)

     Called by init_run:
     wfcinit      :      7.02s CPU      7.22s WALL (       1 calls)
     potinit      :      0.61s CPU      0.62s WALL (       1 calls)
     hinit0       :      0.94s CPU      1.03s WALL (       1 calls)

     Called by electrons:
     c_bands      :    502.82s CPU    507.30s WALL (      33 calls)
     sum_band     :     93.50s CPU    105.18s WALL (      33 calls)
     v_of_rho     :      3.32s CPU      3.36s WALL (      34 calls)
     newd         :     23.40s CPU     33.02s WALL (      34 calls)
     mix_rho      :     22.27s CPU     22.44s WALL (      33 calls)

     Called by c_bands:
     init_us_2    :      3.33s CPU      3.36s WALL (    1725 calls)
     cegterg      :    476.89s CPU    480.88s WALL (     825 calls)

     Called by sum_band:
     sum_band:bec :      0.23s CPU      0.23s WALL (     825 calls)
     addusdens    :     17.75s CPU     28.57s WALL (      33 calls)

     Called by *egterg:
     h_psi        :    226.52s CPU    229.52s WALL (    3881 calls)
     s_psi        :     20.18s CPU     20.26s WALL (    3881 calls)
     g_psi        :      0.61s CPU      0.61s WALL (    3031 calls)
     cdiaghg      :    129.15s CPU    129.76s WALL (    3856 calls)

     Called by h_psi:
     h_psi:calbec :     28.23s CPU     28.39s WALL (    3881 calls)
     vloc_psi     :    176.35s CPU    179.03s WALL (    3881 calls)
     add_vuspsi   :     21.03s CPU     21.19s WALL (    3881 calls)

     General routines
     calbec       :     50.26s CPU     50.50s WALL (    4831 calls)
     fft          :      3.13s CPU      3.22s WALL (     465 calls)
     ffts         :     11.51s CPU     11.61s WALL (   14939 calls)
     fftw         :    206.41s CPU    209.51s WALL (  589859 calls)
     interpolate  :      0.24s CPU      0.24s WALL (      34 calls)
 
     Parallel routines
     fft_scatt_xy :     22.00s CPU     22.32s WALL (  605263 calls)
     fft_scatt_yz :    144.36s CPU    146.44s WALL (  605263 calls)
 
     PWSCF        :  11m23.34s CPU  11m51.22s WALL

 
   This run was terminated on:  21:43:47  21May2021            

=------------------------------------------------------------------------------=
   JOB DONE.
=------------------------------------------------------------------------------=
[1621647827.150364] [holy7c06108:16784:0]          mpool.c:43   UCX  WARN  object 0x3547ec0 was not returned to mpool ucp_requests
[1621647827.156950] [holy7c06601:40815:0]          mpool.c:43   UCX  WARN  object 0x478bc40 was not returned to mpool ucp_requests
[1621647827.156971] [holy7c06601:40815:0]          mpool.c:43   UCX  WARN  object 0x478bfc0 was not returned to mpool ucp_requests
[1621647827.153358] [holy7c06412:39877:0]          mpool.c:43   UCX  WARN  object 0x3d26c40 was not returned to mpool ucp_requests
[1621647827.159372] [holy7c06501:259711:0]          mpool.c:43   UCX  WARN  object 0x2ee2580 was not returned to mpool ucp_requests
[1621647827.159390] [holy7c06501:259711:0]          mpool.c:43   UCX  WARN  object 0x2ee2900 was not returned to mpool ucp_requests
[1621647827.159287] [holy7c06501:259712:0]          mpool.c:43   UCX  WARN  object 0x2a1ad40 was not returned to mpool ucp_requests
[1621647827.168399] [holy7c04311:275828:0]          mpool.c:43   UCX  WARN  object 0x3d38280 was not returned to mpool ucp_requests
[1621647827.168428] [holy7c04311:275828:0]          mpool.c:43   UCX  WARN  object 0x3d38980 was not returned to mpool ucp_requests
[1621647827.184594] [holy7c06302:225187:0]          mpool.c:43   UCX  WARN  object 0x3e881c0 was not returned to mpool ucp_requests
[1621647827.184614] [holy7c06302:225187:0]          mpool.c:43   UCX  WARN  object 0x3e88700 was not returned to mpool ucp_requests
