
     Program PWSCF v.6.5 starts on 21May2021 at 21:31:56 

     This program is part of the open-source Quantum ESPRESSO suite
     for quantum simulation of materials; please cite
         "P. Giannozzi et al., J. Phys.:Condens. Matter 21 395502 (2009);
         "P. Giannozzi et al., J. Phys.:Condens. Matter 29 465901 (2017);
          URL http://www.quantum-espresso.org", 
     in publications or presentations arising from this work. More details at
     http://www.quantum-espresso.org/quote

     Parallel version (MPI), running on    20 processors

     MPI processes distributed on     6 nodes
     R & G space division:  proc/nbgrp/npool/nimage =      20
     Reading input from CBCO_Y_cleave_1.5_sep.pwi
Warning: card &IONS ignored
Warning: card     ION_DYNAMICS = 'BFGS' ignored
Warning: card / ignored
Warning: card &CELL ignored
Warning: card     CELL_DYNAMICS = 'BFGS' ignored
Warning: card     PRESS_CONV_THR = 5 ignored
Warning: card / ignored

     Current dimensions of program PWSCF are:
     Max number of different atomic species (ntypx) = 10
     Max number of k-points (npk) =  40000
     Max angular momentum in pseudopotentials (lmaxx) =  3

     Subspace diagonalization in iterative solution of the eigenvalue problem:
     one sub-group per band group will be used
     scalapack distributed-memory algorithm (size of sub-group:  4*  4 procs)

     Message from routine setup:
     using ibrav=0 with symmetry is DISCOURAGED, use correct ibrav instead
 
     Parallelization info
     --------------------
     sticks:   dense  smooth     PW     G-vecs:    dense   smooth      PW
     Min         149      50     14                72573    13974    2182
     Max         150      51     15                72612    13999    2227
     Sum        2991    1007    289              1451873   279687   43947
 


     bravais-lattice index     =            0
     lattice parameter (alat)  =       7.4270  a.u.
     unit-cell volume          =    4450.3936 (a.u.)^3
     number of atoms/cell      =           28
     number of atomic types    =            4
     number of electrons       =       227.00
     number of Kohn-Sham states=          137
     kinetic-energy cutoff     =      60.0000  Ry
     charge density cutoff     =     720.0000  Ry
     convergence threshold     =      1.0E-08
     mixing beta               =       0.5000
     number of iterations used =           10  local-TF  mixing
     Exchange-correlation= SLA PW PBE PBE
                           (   1   4   3   4   0   0   0)

     celldm(1)=   7.427040  celldm(2)=   0.000000  celldm(3)=   0.000000
     celldm(4)=   0.000000  celldm(5)=   0.000000  celldm(6)=   0.000000

     crystal axes: (cart. coord. in units of alat)
               a(1) = (   1.000000   0.000000   0.000000 )  
               a(2) = (   0.000000   0.947081   0.000000 )  
               a(3) = (   0.000000   0.000000  11.470015 )  

     reciprocal axes: (cart. coord. in units 2 pi/alat)
               b(1) = (  1.000000  0.000000  0.000000 )  
               b(2) = (  0.000000  1.055876  0.000000 )  
               b(3) = (  0.000000  0.000000  0.087184 )  


     PseudoPot. # 1 for Ba read from file:
     ./pseudo/Ba.pbe-nsp-van.UPF
     MD5 check sum: 2b9c31dd849566dd297d80989662b7a0
     Pseudo is Ultrasoft + core correction, Zval = 10.0
     Generated by new atomic code, or converted to UPF format
     Using radial grid of  907 points,  6 beta functions with: 
                l(1) =   0
                l(2) =   0
                l(3) =   1
                l(4) =   1
                l(5) =   2
                l(6) =   2
     Q(r) pseudized with  6 coefficients,  rinner =    1.200   1.200   1.200
                                                       1.200   1.200

     PseudoPot. # 2 for Ca read from file:
     ./pseudo/Ca.pbe-nsp-van.UPF
     MD5 check sum: 6471098428ff4fa451746d08035ff179
     Pseudo is Ultrasoft + core correction, Zval = 10.0
     Generated by new atomic code, or converted to UPF format
     Using radial grid of  845 points,  6 beta functions with: 
                l(1) =   0
                l(2) =   0
                l(3) =   1
                l(4) =   1
                l(5) =   2
                l(6) =   2
     Q(r) pseudized with  6 coefficients,  rinner =    1.200   1.200   1.200
                                                       1.200   1.200

     PseudoPot. # 3 for Cu read from file:
     ./pseudo/Cu.pbe-n-van_ak.UPF
     MD5 check sum: 34e3282627ffb533726feb647e090d62
     Pseudo is Ultrasoft + core correction, Zval = 11.0
     Generated by new atomic code, or converted to UPF format
     Using radial grid of  867 points,  6 beta functions with: 
                l(1) =   0
                l(2) =   0
                l(3) =   1
                l(4) =   1
                l(5) =   2
                l(6) =   2
     Q(r) pseudized with  8 coefficients,  rinner =    1.400   1.400   1.400
                                                       1.400   1.400

     PseudoPot. # 4 for O  read from file:
     ./pseudo/O.pbe-van_ak.UPF
     MD5 check sum: 783ce7fe4c79b6a4916957118fed0856
     Pseudo is Ultrasoft, Zval =  6.0
     Generated by new atomic code, or converted to UPF format
     Using radial grid of  737 points,  4 beta functions with: 
                l(1) =   0
                l(2) =   0
                l(3) =   1
                l(4) =   1
     Q(r) pseudized with  8 coefficients,  rinner =    0.800   0.800   0.800


     atomic species   valence    mass     pseudopotential
        Ba            10.00   137.32700     Ba( 1.00)
        Ca            10.00    40.07800     Ca( 1.00)
        Cu            11.00    63.54600     Cu( 1.00)
        O              6.00    15.99900     O ( 1.00)

      4 Sym. Ops. (no inversion) found



   Cartesian axes

     site n.     atom                  positions (alat units)
         1           O   tau(   1) = (   0.0000000   0.4735409  -0.0469745  )
         2           Cu  tau(   2) = (   0.0000000   0.0000000   0.0264565  )
         3           O   tau(   3) = (   0.0000000   0.0000000   0.5030914  )
         4           Ba  tau(   4) = (   0.5000000   0.4735409   0.5690292  )
         5           Cu  tau(   5) = (   0.0000000   0.0000000   1.0374254  )
         6           O   tau(   6) = (   0.5000000   0.0000000   1.0768099  )
         7           O   tau(   7) = (   0.0000000   0.4735409   1.1116985  )
         8           Ca  tau(   8) = (   0.5000000   0.4735409   1.4976260  )
         9           O   tau(   9) = (   0.0000000   0.4735409   1.8667529  )
        10           O   tau(  10) = (   0.5000000   0.0000000   1.9044124  )
        11           Cu  tau(  11) = (   0.0000000   0.0000000   1.9512546  )
        12           Ba  tau(  12) = (   0.5000000   0.4735409   2.4295764  )
        13           O   tau(  13) = (   0.0000000   0.0000000   2.5115362  )
        14           O   tau(  14) = (   0.0000000   0.4735409   2.9918528  )
        15           Cu  tau(  15) = (   0.0000000   0.0000000   2.9919088  )
        16           O   tau(  16) = (   0.0000000   0.0000000   3.4722686  )
        17           Ba  tau(  17) = (   0.5000000   0.4735409   3.5542208  )
        18           Cu  tau(  18) = (   0.0000000   0.0000000   4.0325248  )
        19           O   tau(  19) = (   0.5000000   0.0000000   4.0793669  )
        20           O   tau(  20) = (   0.0000000   0.4735409   4.1170213  )
        21           Ca  tau(  21) = (   0.5000000   0.4735409   4.4861584  )
        22           O   tau(  22) = (   0.0000000   0.4735409   5.2537414  )
        23           O   tau(  23) = (   0.5000000   0.0000000   5.2886300  )
        24           Cu  tau(  24) = (   0.0000000   0.0000000   5.3280171  )
        25           Ba  tau(  25) = (   0.5000000   0.4735409   5.7964107  )
        26           O   tau(  26) = (   0.0000000   0.0000000   5.8623383  )
        27           Cu  tau(  27) = (   0.0000000   0.0000000   6.3389783  )
        28           O   tau(  28) = (   0.0000000   0.4735409   6.4123966  )

     number of k points=    25  Gaussian smearing, width (Ry)=  0.0100
                       cart. coord. in units 2pi/alat
        k(    1) = (   0.0000000   0.0000000   0.0000000), wk =   0.0312500
        k(    2) = (   0.0000000   0.1319845   0.0000000), wk =   0.0625000
        k(    3) = (   0.0000000   0.2639689   0.0000000), wk =   0.0625000
        k(    4) = (   0.0000000   0.3959534   0.0000000), wk =   0.0625000
        k(    5) = (   0.0000000  -0.5279378   0.0000000), wk =   0.0312500
        k(    6) = (   0.1250000   0.0000000   0.0000000), wk =   0.0625000
        k(    7) = (   0.1250000   0.1319845   0.0000000), wk =   0.1250000
        k(    8) = (   0.1250000   0.2639689   0.0000000), wk =   0.1250000
        k(    9) = (   0.1250000   0.3959534   0.0000000), wk =   0.1250000
        k(   10) = (   0.1250000  -0.5279378   0.0000000), wk =   0.0625000
        k(   11) = (   0.2500000   0.0000000   0.0000000), wk =   0.0625000
        k(   12) = (   0.2500000   0.1319845   0.0000000), wk =   0.1250000
        k(   13) = (   0.2500000   0.2639689   0.0000000), wk =   0.1250000
        k(   14) = (   0.2500000   0.3959534   0.0000000), wk =   0.1250000
        k(   15) = (   0.2500000  -0.5279378   0.0000000), wk =   0.0625000
        k(   16) = (   0.3750000   0.0000000   0.0000000), wk =   0.0625000
        k(   17) = (   0.3750000   0.1319845   0.0000000), wk =   0.1250000
        k(   18) = (   0.3750000   0.2639689   0.0000000), wk =   0.1250000
        k(   19) = (   0.3750000   0.3959534   0.0000000), wk =   0.1250000
        k(   20) = (   0.3750000  -0.5279378   0.0000000), wk =   0.0625000
        k(   21) = (  -0.5000000   0.0000000   0.0000000), wk =   0.0312500
        k(   22) = (  -0.5000000   0.1319845   0.0000000), wk =   0.0625000
        k(   23) = (  -0.5000000   0.2639689   0.0000000), wk =   0.0625000
        k(   24) = (  -0.5000000   0.3959534   0.0000000), wk =   0.0625000
        k(   25) = (  -0.5000000  -0.5279378   0.0000000), wk =   0.0312500

     Dense  grid:  1451873 G-vectors     FFT dimensions: (  64,  64, 729)

     Smooth grid:   279687 G-vectors     FFT dimensions: (  40,  36, 432)

     Estimated max dynamical RAM per process >     463.32 MB

     Estimated total dynamical RAM >       9.05 GB

     Initial potential from superposition of free atoms

     starting charge  226.84630, renormalised to  227.00000

     negative rho (up, down):  3.488E-03 0.000E+00
     Starting wfcs are  195 randomized atomic wfcs

     total cpu time spent up to now is       10.0 secs

     Self-consistent Calculation

     iteration #  1     ecut=    60.00 Ry     beta= 0.50
     Davidson diagonalization with overlap
     ethr =  1.00E-02,  avg # of iterations =  2.0

     negative rho (up, down):  5.217E-04 0.000E+00

     total cpu time spent up to now is       26.2 secs

     total energy              =   -1840.97225163 Ry
     Harris-Foulkes estimate   =   -1845.29841148 Ry
     estimated scf accuracy    <      17.64955815 Ry

     iteration #  2     ecut=    60.00 Ry     beta= 0.50
     Davidson diagonalization with overlap
     ethr =  7.78E-03,  avg # of iterations =  2.0

     negative rho (up, down):  2.836E-04 0.000E+00

     total cpu time spent up to now is       42.3 secs

     total energy              =   -1842.53566591 Ry
     Harris-Foulkes estimate   =   -1843.19171923 Ry
     estimated scf accuracy    <       4.87247729 Ry

     iteration #  3     ecut=    60.00 Ry     beta= 0.50
     Davidson diagonalization with overlap
     ethr =  2.15E-03,  avg # of iterations =  1.5

     negative rho (up, down):  2.667E-04 0.000E+00

     total cpu time spent up to now is       57.6 secs

     total energy              =   -1842.77113717 Ry
     Harris-Foulkes estimate   =   -1842.93574701 Ry
     estimated scf accuracy    <       4.12072389 Ry

     iteration #  4     ecut=    60.00 Ry     beta= 0.50
     Davidson diagonalization with overlap
     ethr =  1.82E-03,  avg # of iterations =  1.0

     negative rho (up, down):  2.555E-04 0.000E+00

     total cpu time spent up to now is       72.2 secs

     total energy              =   -1842.75566071 Ry
     Harris-Foulkes estimate   =   -1842.86878605 Ry
     estimated scf accuracy    <       1.13403351 Ry

     iteration #  5     ecut=    60.00 Ry     beta= 0.50
     Davidson diagonalization with overlap
     ethr =  5.00E-04,  avg # of iterations =  4.3

     negative rho (up, down):  2.460E-04 0.000E+00

     total cpu time spent up to now is       91.2 secs

     total energy              =   -1842.75451139 Ry
     Harris-Foulkes estimate   =   -1842.80496656 Ry
     estimated scf accuracy    <       0.84783495 Ry

     iteration #  6     ecut=    60.00 Ry     beta= 0.50
     Davidson diagonalization with overlap
     ethr =  3.73E-04,  avg # of iterations =  4.6

     negative rho (up, down):  2.400E-04 0.000E+00

     total cpu time spent up to now is      110.8 secs

     total energy              =   -1842.75873020 Ry
     Harris-Foulkes estimate   =   -1842.77889562 Ry
     estimated scf accuracy    <       0.60690498 Ry

     iteration #  7     ecut=    60.00 Ry     beta= 0.50
     Davidson diagonalization with overlap
     ethr =  2.67E-04,  avg # of iterations =  4.2

     negative rho (up, down):  2.334E-04 0.000E+00

     total cpu time spent up to now is      130.1 secs

     total energy              =   -1842.75250597 Ry
     Harris-Foulkes estimate   =   -1842.76981542 Ry
     estimated scf accuracy    <       0.19693012 Ry

     iteration #  8     ecut=    60.00 Ry     beta= 0.50
     Davidson diagonalization with overlap
     ethr =  8.68E-05,  avg # of iterations =  6.6

     negative rho (up, down):  2.299E-04 0.000E+00

     total cpu time spent up to now is      152.9 secs

     total energy              =   -1842.75111174 Ry
     Harris-Foulkes estimate   =   -1842.76393932 Ry
     estimated scf accuracy    <       0.46649378 Ry

     iteration #  9     ecut=    60.00 Ry     beta= 0.50
     Davidson diagonalization with overlap
     ethr =  8.68E-05,  avg # of iterations =  2.2

     negative rho (up, down):  2.302E-04 0.000E+00

     total cpu time spent up to now is      168.9 secs

     total energy              =   -1842.75211944 Ry
     Harris-Foulkes estimate   =   -1842.75566515 Ry
     estimated scf accuracy    <       0.09495735 Ry

     iteration # 10     ecut=    60.00 Ry     beta= 0.50
     Davidson diagonalization with overlap
     ethr =  4.18E-05,  avg # of iterations =  4.8

     negative rho (up, down):  2.327E-04 0.000E+00

     total cpu time spent up to now is      187.7 secs

     total energy              =   -1842.74984105 Ry
     Harris-Foulkes estimate   =   -1842.75340590 Ry
     estimated scf accuracy    <       0.06932404 Ry

     iteration # 11     ecut=    60.00 Ry     beta= 0.50
     Davidson diagonalization with overlap
     ethr =  3.05E-05,  avg # of iterations =  4.4

     negative rho (up, down):  2.334E-04 0.000E+00

     total cpu time spent up to now is      205.4 secs

     total energy              =   -1842.74954256 Ry
     Harris-Foulkes estimate   =   -1842.75098536 Ry
     estimated scf accuracy    <       0.07766934 Ry

     iteration # 12     ecut=    60.00 Ry     beta= 0.50
     Davidson diagonalization with overlap
     ethr =  3.05E-05,  avg # of iterations =  1.8

     negative rho (up, down):  2.339E-04 0.000E+00

     total cpu time spent up to now is      220.3 secs

     total energy              =   -1842.74902871 Ry
     Harris-Foulkes estimate   =   -1842.74991015 Ry
     estimated scf accuracy    <       0.05288320 Ry

     iteration # 13     ecut=    60.00 Ry     beta= 0.50
     Davidson diagonalization with overlap
     ethr =  2.33E-05,  avg # of iterations =  1.7

     negative rho (up, down):  2.349E-04 0.000E+00

     total cpu time spent up to now is      235.4 secs

     total energy              =   -1842.74815989 Ry
     Harris-Foulkes estimate   =   -1842.74921929 Ry
     estimated scf accuracy    <       0.03878000 Ry

     iteration # 14     ecut=    60.00 Ry     beta= 0.50
     Davidson diagonalization with overlap
     ethr =  1.71E-05,  avg # of iterations =  5.0

     negative rho (up, down):  4.110E-04 0.000E+00

     total cpu time spent up to now is      254.6 secs

     total energy              =   -1842.74715448 Ry
     Harris-Foulkes estimate   =   -1842.74835894 Ry
     estimated scf accuracy    <       0.03531945 Ry

     iteration # 15     ecut=    60.00 Ry     beta= 0.50
     Davidson diagonalization with overlap
     ethr =  1.56E-05,  avg # of iterations =  1.5

     negative rho (up, down):  3.220E-03 0.000E+00

     total cpu time spent up to now is      269.6 secs

     total energy              =   -1842.74634491 Ry
     Harris-Foulkes estimate   =   -1842.74730416 Ry
     estimated scf accuracy    <       0.02980856 Ry

     iteration # 16     ecut=    60.00 Ry     beta= 0.50
     Davidson diagonalization with overlap
     ethr =  1.31E-05,  avg # of iterations =  4.8

     negative rho (up, down):  4.705E-03 0.000E+00

     total cpu time spent up to now is      288.6 secs

     total energy              =   -1842.74515785 Ry
     Harris-Foulkes estimate   =   -1842.74640909 Ry
     estimated scf accuracy    <       0.02137207 Ry

     iteration # 17     ecut=    60.00 Ry     beta= 0.50
     Davidson diagonalization with overlap
     ethr =  9.42E-06,  avg # of iterations =  6.5

     negative rho (up, down):  5.127E-03 0.000E+00

     total cpu time spent up to now is      310.2 secs

     total energy              =   -1842.74423863 Ry
     Harris-Foulkes estimate   =   -1842.74532200 Ry
     estimated scf accuracy    <       0.01288608 Ry

     iteration # 18     ecut=    60.00 Ry     beta= 0.50
     Davidson diagonalization with overlap
     c_bands:  1 eigenvalues not converged
     ethr =  5.68E-06,  avg # of iterations =  8.0

     negative rho (up, down):  6.307E-03 0.000E+00

     total cpu time spent up to now is      333.6 secs

     total energy              =   -1842.74424782 Ry
     Harris-Foulkes estimate   =   -1842.74443562 Ry
     estimated scf accuracy    <       0.00456463 Ry

     iteration # 19     ecut=    60.00 Ry     beta= 0.50
     Davidson diagonalization with overlap
     c_bands:  1 eigenvalues not converged
     ethr =  2.01E-06,  avg # of iterations =  9.1

     negative rho (up, down):  1.622E-03 0.000E+00

     total cpu time spent up to now is      358.6 secs

     total energy              =   -1842.74417023 Ry
     Harris-Foulkes estimate   =   -1842.74429995 Ry
     estimated scf accuracy    <       0.00145581 Ry

     iteration # 20     ecut=    60.00 Ry     beta= 0.50
     Davidson diagonalization with overlap
     ethr =  6.41E-07,  avg # of iterations =  6.5

     negative rho (up, down):  2.044E-03 0.000E+00

     total cpu time spent up to now is      380.1 secs

     total energy              =   -1842.74415838 Ry
     Harris-Foulkes estimate   =   -1842.74419718 Ry
     estimated scf accuracy    <       0.00117703 Ry

     iteration # 21     ecut=    60.00 Ry     beta= 0.50
     Davidson diagonalization with overlap
     ethr =  5.19E-07,  avg # of iterations =  4.3

     negative rho (up, down):  1.096E-03 0.000E+00

     total cpu time spent up to now is      398.6 secs

     total energy              =   -1842.74419422 Ry
     Harris-Foulkes estimate   =   -1842.74417615 Ry
     estimated scf accuracy    <       0.00048597 Ry

     iteration # 22     ecut=    60.00 Ry     beta= 0.50
     Davidson diagonalization with overlap
     c_bands:  1 eigenvalues not converged
     ethr =  2.14E-07,  avg # of iterations =  5.6

     negative rho (up, down):  1.118E-03 0.000E+00

     total cpu time spent up to now is      418.7 secs

     total energy              =   -1842.74419246 Ry
     Harris-Foulkes estimate   =   -1842.74420875 Ry
     estimated scf accuracy    <       0.00022045 Ry

     iteration # 23     ecut=    60.00 Ry     beta= 0.50
     Davidson diagonalization with overlap
     ethr =  9.71E-08,  avg # of iterations =  4.1

     negative rho (up, down):  1.334E-03 0.000E+00

     total cpu time spent up to now is      437.1 secs

     total energy              =   -1842.74421260 Ry
     Harris-Foulkes estimate   =   -1842.74419935 Ry
     estimated scf accuracy    <       0.00007057 Ry

     iteration # 24     ecut=    60.00 Ry     beta= 0.50
     Davidson diagonalization with overlap
     ethr =  3.11E-08,  avg # of iterations =  3.1

     negative rho (up, down):  1.283E-03 0.000E+00

     total cpu time spent up to now is      454.2 secs

     total energy              =   -1842.74421444 Ry
     Harris-Foulkes estimate   =   -1842.74421507 Ry
     estimated scf accuracy    <       0.00001456 Ry

     iteration # 25     ecut=    60.00 Ry     beta= 0.50
     Davidson diagonalization with overlap
     ethr =  6.42E-09,  avg # of iterations =  2.5

     negative rho (up, down):  1.546E-03 0.000E+00

     total cpu time spent up to now is      470.6 secs

     total energy              =   -1842.74421526 Ry
     Harris-Foulkes estimate   =   -1842.74421541 Ry
     estimated scf accuracy    <       0.00001245 Ry

     iteration # 26     ecut=    60.00 Ry     beta= 0.50
     Davidson diagonalization with overlap
     ethr =  5.48E-09,  avg # of iterations =  1.0

     negative rho (up, down):  1.525E-03 0.000E+00

     total cpu time spent up to now is      485.0 secs

     total energy              =   -1842.74421506 Ry
     Harris-Foulkes estimate   =   -1842.74421566 Ry
     estimated scf accuracy    <       0.00000442 Ry

     iteration # 27     ecut=    60.00 Ry     beta= 0.50
     Davidson diagonalization with overlap
     ethr =  1.95E-09,  avg # of iterations =  1.7

     negative rho (up, down):  1.536E-03 0.000E+00

     total cpu time spent up to now is      500.9 secs

     total energy              =   -1842.74421513 Ry
     Harris-Foulkes estimate   =   -1842.74421525 Ry
     estimated scf accuracy    <       0.00000168 Ry

     iteration # 28     ecut=    60.00 Ry     beta= 0.50
     Davidson diagonalization with overlap
     ethr =  7.38E-10,  avg # of iterations =  2.2

     negative rho (up, down):  1.509E-03 0.000E+00

     total cpu time spent up to now is      517.3 secs

     total energy              =   -1842.74421520 Ry
     Harris-Foulkes estimate   =   -1842.74421523 Ry
     estimated scf accuracy    <       0.00000062 Ry

     iteration # 29     ecut=    60.00 Ry     beta= 0.50
     Davidson diagonalization with overlap
     ethr =  2.73E-10,  avg # of iterations =  2.2

     negative rho (up, down):  1.523E-03 0.000E+00

     total cpu time spent up to now is      534.0 secs

     total energy              =   -1842.74421520 Ry
     Harris-Foulkes estimate   =   -1842.74421524 Ry
     estimated scf accuracy    <       0.00000032 Ry

     iteration # 30     ecut=    60.00 Ry     beta= 0.50
     Davidson diagonalization with overlap
     ethr =  1.42E-10,  avg # of iterations =  1.5

     negative rho (up, down):  1.521E-03 0.000E+00

     total cpu time spent up to now is      549.5 secs

     total energy              =   -1842.74421521 Ry
     Harris-Foulkes estimate   =   -1842.74421522 Ry
     estimated scf accuracy    <       0.00000015 Ry

     iteration # 31     ecut=    60.00 Ry     beta= 0.50
     Davidson diagonalization with overlap
     ethr =  6.71E-11,  avg # of iterations =  2.1

     negative rho (up, down):  1.509E-03 0.000E+00

     total cpu time spent up to now is      565.4 secs

     total energy              =   -1842.74421522 Ry
     Harris-Foulkes estimate   =   -1842.74421522 Ry
     estimated scf accuracy    <       0.00000010 Ry

     iteration # 32     ecut=    60.00 Ry     beta= 0.50
     Davidson diagonalization with overlap
     ethr =  4.55E-11,  avg # of iterations =  1.0

     negative rho (up, down):  1.485E-03 0.000E+00

     total cpu time spent up to now is      580.1 secs

     total energy              =   -1842.74421526 Ry
     Harris-Foulkes estimate   =   -1842.74421523 Ry
     estimated scf accuracy    <       0.00000003 Ry

     iteration # 33     ecut=    60.00 Ry     beta= 0.50
     Davidson diagonalization with overlap
     ethr =  1.44E-11,  avg # of iterations =  2.6

     negative rho (up, down):  1.486E-03 0.000E+00

     total cpu time spent up to now is      595.8 secs

     End of self-consistent calculation

          k = 0.0000 0.0000 0.0000 ( 35029 PWs)   bands (ev):

   -38.2843 -35.5945 -22.7991 -22.7942 -22.6814 -22.5395 -19.3366 -19.2861
   -19.2688 -17.0988 -16.6457 -16.6343 -15.6019 -15.3093 -15.0017 -14.8643
   -14.6793 -14.6529 -14.5800 -14.4688 -14.1893 -14.1798 -13.9899 -13.8312
   -13.7766 -13.6715 -13.6541  -8.0051  -7.9304  -7.8928  -7.8215  -7.7909
    -7.7587  -7.7205  -7.6999  -7.6663  -7.5938  -7.5843  -7.4183  -2.3379
    -2.3213  -2.2926  -2.2453  -2.1455  -1.8378  -1.7742  -1.6760  -1.6562
    -1.5464  -1.5316  -1.4915  -1.2282  -1.2186  -1.2022  -1.1060  -1.0610
    -0.8663  -0.7290  -0.6266  -0.5329  -0.4665  -0.4471  -0.3845  -0.3345
    -0.3171  -0.2725  -0.2578  -0.2525  -0.2443  -0.2114  -0.2093  -0.1928
    -0.1742  -0.1156  -0.0450  -0.0130   0.0881   0.0910   0.0911   0.0979
     0.1115   0.1655   0.1656   0.1700   0.2177   0.3009   0.3159   0.3226
     0.3883   0.7385   0.7913   0.8740   0.9011   0.9302   0.9530   1.0263
     1.0368   1.1502   1.1771   1.3414   1.3599   1.4473   1.4623   1.5148
     1.5247   1.5589   1.6464   1.7068   1.8203   2.0269   2.0669   2.0707
     2.1206   2.1380   2.2146   2.2486   2.2646   2.5134   2.5280   3.8723
     5.2083   5.2486   5.8475   6.1995   6.3661   6.5176   6.7563   6.8944
     7.1765   7.4014   7.4468   7.8829   7.9206   7.9704   8.1385   8.1770
     8.3959

          k = 0.0000 0.1320 0.0000 ( 34975 PWs)   bands (ev):

   -38.2829 -35.5927 -22.7724 -22.7689 -22.6545 -22.5141 -19.3467 -19.2947
   -19.2670 -17.0627 -16.7068 -16.6433 -15.5472 -15.2207 -14.9509 -14.8105
   -14.6845 -14.6458 -14.5527 -14.4989 -14.1988 -14.1865 -13.9953 -13.8770
   -13.8237 -13.7114 -13.7042  -8.0033  -7.9299  -7.8450  -7.7773  -7.7577
    -7.7425  -7.7423  -7.7285  -7.7035  -7.6350  -7.5392  -7.4660  -2.5489
    -2.3966  -2.3551  -2.2994  -2.1736  -2.1079  -2.0636  -1.9211  -1.6896
    -1.6557  -1.6524  -1.6399  -1.5478  -1.5287  -1.3547  -1.2005  -1.1475
    -1.0077  -0.7590  -0.6813  -0.6363  -0.5639  -0.5369  -0.5069  -0.4889
    -0.4688  -0.3938  -0.3938  -0.3873  -0.3458  -0.2169  -0.1703  -0.1557
    -0.1467  -0.0784  -0.0292  -0.0236  -0.0011   0.0052   0.1002   0.1145
     0.1253   0.1334   0.1720   0.1751   0.2408   0.2697   0.3616   0.4754
     0.5613   0.6948   0.8539   0.9369   1.0489   1.0702   1.0712   1.1120
     1.1353   1.1415   1.1803   1.3831   1.4246   1.4498   1.4591   1.4974
     1.5184   1.5961   1.6220   1.6860   1.8081   1.9362   1.9738   2.0398
     2.0475   2.0798   2.1506   2.4553   2.7857   2.8215   2.8537   4.0777
     5.5850   5.6128   6.1219   6.3812   6.5672   6.6252   7.0600   7.1783
     7.2885   7.4202   7.5951   7.9309   7.9547   8.1467   8.3191   8.4593
     8.6219

          k = 0.0000 0.2640 0.0000 ( 34841 PWs)   bands (ev):

   -38.2793 -35.5882 -22.7065 -22.7065 -22.5882 -22.4513 -19.3993 -19.2864
   -19.2627 -16.9706 -16.8611 -16.6377 -15.3986 -15.0210 -14.8657 -14.7333
   -14.6755 -14.6121 -14.5898 -14.4908 -14.1861 -14.1666 -14.0351 -14.0069
   -13.9246 -13.8220 -13.7950  -7.9997  -7.9295  -7.8325  -7.8210  -7.7561
    -7.7246  -7.7237  -7.7100  -7.6663  -7.6207  -7.5691  -7.4258  -3.0311
    -2.8420  -2.7324  -2.6501  -2.6091  -2.4364  -2.4027  -2.2890  -2.2713
    -2.2577  -1.9959  -1.7381  -1.6019  -1.4961  -1.4724  -1.3657  -1.2820
    -1.1977  -1.0549  -0.9781  -0.9060  -0.8540  -0.8150  -0.7724  -0.7293
    -0.6593  -0.6351  -0.5434  -0.5400  -0.5216  -0.5156  -0.5051  -0.4764
    -0.3246  -0.1261  -0.0483  -0.0358   0.0047   0.0328   0.0857   0.1371
     0.1686   0.1690   0.2059   0.3633   0.4986   0.6099   0.6901   0.7163
     0.8590   0.8911   0.9565   0.9777   1.1211   1.1492   1.1566   1.1934
     1.1935   1.1967   1.3023   1.3129   1.3397   1.3577   1.4231   1.6243
     1.6534   1.6691   1.7714   1.8866   1.9263   1.9657   1.9662   1.9744
     2.1273   2.1440   2.1640   2.5732   3.0323   3.0682   3.6899   4.5219
     6.4789   6.5053   6.5357   6.7740   6.8505   6.9923   7.3010   7.8464
     7.8804   8.0011   8.0116   8.2678   8.3723   8.6493   8.7785   8.7990
     8.9711

          k = 0.0000 0.3960 0.0000 ( 34822 PWs)   bands (ev):

   -38.2758 -35.5838 -22.6421 -22.6383 -22.5196 -22.3865 -19.4591 -19.2694
   -19.2585 -16.9974 -16.8690 -16.6320 -15.1955 -14.9423 -14.9047 -14.7742
   -14.6910 -14.5047 -14.4396 -14.4262 -14.1566 -14.1146 -14.1038 -14.1001
   -14.0678 -13.9385 -13.8942  -7.9939  -7.9295  -7.9121  -7.9107  -7.8029
    -7.7518  -7.7056  -7.6589  -7.5961  -7.5488  -7.4906  -7.3055  -3.4893
    -3.3832  -3.2966  -3.1359  -3.0671  -3.0033  -2.9795  -2.3798  -2.3643
    -2.2986  -2.0580  -1.8182  -1.8159  -1.7201  -1.5367  -1.4506  -1.3818
    -1.2004  -1.1891  -1.1838  -1.1311  -1.0833  -1.0612  -1.0297  -0.9700
    -0.9316  -0.8706  -0.8284  -0.7585  -0.7481  -0.7161  -0.6099  -0.5769
    -0.3439  -0.2420  -0.1432  -0.0168   0.0216   0.0509   0.0583   0.1174
     0.1506   0.1536   0.1560   0.4844   0.7736   0.7781   0.8651   0.9132
     0.9306   0.9418   0.9690   1.0325   1.0676   1.0907   1.1276   1.1539
     1.1725   1.3578   1.4638   1.4720   1.4928   1.6093   1.6112   1.7100
     1.7186   1.7399   1.9139   1.9757   1.9814   2.0549   2.1094   2.1893
     2.2450   2.3599   2.3722   2.5000   2.9266   2.9678   4.2469   5.0301
     6.5150   6.7536   7.1282   7.3777   7.4278   7.4740   8.0559   8.1353
     8.2556   8.5245   8.6737   8.7566   9.0809   9.0824   9.1058   9.1720
     9.3839

          k = 0.0000-0.5279 0.0000 ( 34886 PWs)   bands (ev):

   -38.2743 -35.5820 -22.6148 -22.6094 -22.4905 -22.3591 -19.4840 -19.2619
   -19.2567 -17.0495 -16.8240 -16.6297 -15.0022 -14.9845 -14.9549 -14.9468
   -14.5769 -14.5017 -14.2834 -14.2751 -14.2567 -14.1588 -14.1353 -14.0803
   -14.0734 -14.0679 -13.9303  -7.9860  -7.9521  -7.9404  -7.9291  -7.8318
    -7.7508  -7.6999  -7.6966  -7.5402  -7.4980  -7.4339  -7.2534  -3.7374
    -3.5536  -3.4753  -3.3310  -3.2456  -3.2234  -3.2046  -2.3959  -2.3815
    -2.3113  -2.1829  -1.9479  -1.8577  -1.6521  -1.5245  -1.5034  -1.4062
    -1.3243  -1.2698  -1.2087  -1.2011  -1.1989  -1.1429  -1.0677  -1.0607
    -1.0398  -0.9858  -0.9436  -0.8452  -0.8326  -0.7921  -0.6192  -0.6098
    -0.3426  -0.3094  -0.1081  -0.0723   0.0273   0.0570   0.0618   0.1114
     0.1470   0.1518   0.1624   0.4141   0.6939   0.8063   0.8463   0.8465
     0.8494   0.9908   1.0354   1.1106   1.1154   1.1358   1.1491   1.2197
     1.3113   1.3634   1.4692   1.5397   1.5605   1.7186   1.7293   1.7881
     1.8232   1.9024   2.0050   2.0120   2.0432   2.0568   2.1617   2.2167
     2.2210   2.4748   2.5214   2.5331   2.7491   2.7967   4.4154   5.3175
     6.4128   6.6652   7.2686   7.6486   7.8388   7.9078   8.0774   8.3142
     8.5202   8.7743   8.9138   8.9685   8.9985   9.2174   9.2276   9.3285
     9.4057

          k = 0.1250 0.0000 0.0000 ( 34971 PWs)   bands (ev):

   -38.2835 -35.5934 -22.7810 -22.7772 -22.6632 -22.5223 -19.3414 -19.2851
   -19.2790 -17.0654 -16.7260 -16.6329 -15.5554 -15.2071 -14.9682 -14.8872
   -14.7249 -14.6852 -14.5853 -14.4940 -14.1983 -14.1881 -14.0018 -13.8554
   -13.8304 -13.7026 -13.6827  -8.0387  -7.9561  -7.8311  -7.8084  -7.7861
    -7.7309  -7.7044  -7.6675  -7.6367  -7.5609  -7.5235  -7.3878  -2.3969
    -2.3800  -2.3527  -2.2428  -2.2118  -1.8802  -1.8206  -1.8154  -1.7455
    -1.6264  -1.5303  -1.5092  -1.4616  -1.2261  -1.2165  -1.1439  -1.0823
    -0.8971  -0.8317  -0.6974  -0.6358  -0.5749  -0.5221  -0.4604  -0.4570
    -0.4338  -0.3889  -0.3471  -0.3233  -0.3182  -0.2759  -0.2179  -0.2057
    -0.1821  -0.1122  -0.1014  -0.0566   0.0829   0.0839   0.0915   0.1208
     0.1867   0.1913   0.2134   0.2512   0.2779   0.3389   0.3711   0.4136
     0.5250   0.6073   0.7828   0.8138   0.8521   0.8915   1.0061   1.0636
     1.1266   1.1794   1.2037   1.3441   1.3585   1.3782   1.4765   1.5189
     1.5265   1.6497   1.6504   1.8549   1.9318   1.9744   2.0015   2.1002
     2.1206   2.1787   2.1883   2.1962   2.3144   2.5627   2.5810   4.0463
     5.3888   5.4191   6.0146   6.3383   6.4928   6.6100   6.9698   7.0965
     7.3633   7.3714   7.4184   7.8988   7.9414   8.1226   8.2773   8.4264
     8.6102

          k = 0.1250 0.1320 0.0000 ( 34962 PWs)   bands (ev):

   -38.2821 -35.5916 -22.7551 -22.7526 -22.6371 -22.4976 -19.3480 -19.3031
   -19.2714 -17.0303 -16.7290 -16.6961 -15.5023 -15.1258 -14.9236 -14.8308
   -14.7192 -14.6665 -14.5554 -14.5195 -14.1993 -14.1865 -14.0076 -13.8912
   -13.8688 -13.7324 -13.7305  -8.0322  -7.9754  -7.8934  -7.8720  -7.8529
    -7.7437  -7.7391  -7.6298  -7.6185  -7.5893  -7.5237  -7.3470  -2.5747
    -2.4332  -2.3804  -2.3228  -2.2419  -2.1579  -2.0419  -1.9022  -1.8593
    -1.7906  -1.6996  -1.6465  -1.6394  -1.5368  -1.5070  -1.3590  -1.1848
    -1.0282  -0.9363  -0.8115  -0.7039  -0.6870  -0.6598  -0.5665  -0.5537
    -0.5315  -0.5105  -0.4922  -0.4859  -0.3553  -0.2745  -0.2147  -0.1671
    -0.1422  -0.1380  -0.0540  -0.0289   0.0036   0.0092   0.0734   0.1449
     0.1569   0.1760   0.2104   0.2190   0.2584   0.2819   0.5106   0.6338
     0.6952   0.7529   0.8254   0.9532   1.0243   1.0539   1.0583   1.1274
     1.1925   1.2137   1.2609   1.2764   1.3141   1.4412   1.4555   1.5318
     1.5843   1.6091   1.6392   1.6543   1.7558   1.8481   1.9434   2.1543
     2.3037   2.3399   2.5385   2.5460   2.8001   2.8291   2.8663   4.1985
     5.7274   5.7524   6.2394   6.4605   6.6629   6.7302   7.1988   7.2655
     7.3697   7.5517   7.6465   7.9075   8.0924   8.2934   8.4497   8.6248
     8.8203

          k = 0.1250 0.2640 0.0000 ( 34855 PWs)   bands (ev):

   -38.2785 -35.5872 -22.6919 -22.6913 -22.5729 -22.4366 -19.3975 -19.3049
   -19.2599 -16.9411 -16.8580 -16.7086 -15.3582 -14.9518 -14.8543 -14.7196
   -14.6842 -14.6017 -14.5941 -14.4854 -14.1816 -14.1603 -14.0569 -13.9997
   -13.9323 -13.8297 -13.8144  -8.0444  -8.0217  -7.9964  -7.9374  -7.9303
    -7.7591  -7.7564  -7.7183  -7.6203  -7.5802  -7.5146  -7.3415  -3.0611
    -2.8650  -2.7220  -2.6593  -2.6179  -2.4369  -2.3986  -2.2912  -2.2880
    -2.2695  -2.1620  -1.8100  -1.7696  -1.6777  -1.5037  -1.4934  -1.3848
    -1.3114  -1.1295  -1.0348  -1.0167  -0.9881  -0.8981  -0.8688  -0.8299
    -0.7776  -0.7016  -0.6749  -0.6289  -0.5768  -0.5597  -0.5084  -0.5017
    -0.3309  -0.1778  -0.1480  -0.0666  -0.0581   0.0602   0.1102   0.1895
     0.2472   0.2584   0.3843   0.4892   0.6423   0.7201   0.7538   0.7603
     0.7946   1.0104   1.0236   1.0573   1.0951   1.1125   1.2141   1.2965
     1.3133   1.3534   1.3648   1.3852   1.4079   1.4361   1.5172   1.5194
     1.5915   1.6367   1.6773   1.8582   1.9294   1.9510   2.0032   2.1933
     2.4990   2.5414   2.6977   2.7732   3.0431   3.0810   3.6910   4.5834
     6.5399   6.5677   6.5819   6.7430   6.8877   6.8964   7.3796   7.8540
     7.8937   8.0449   8.1497   8.4724   8.5484   8.7648   8.8332   8.9027
     9.0030

          k = 0.1250 0.3960 0.0000 ( 34872 PWs)   bands (ev):

   -38.2750 -35.5828 -22.6295 -22.6254 -22.5066 -22.3738 -19.4571 -19.2963
   -19.2472 -16.9922 -16.8424 -16.7000 -15.1618 -14.9074 -14.8753 -14.7629
   -14.6170 -14.4946 -14.4168 -14.4148 -14.1520 -14.1361 -14.1016 -14.0902
   -14.0512 -13.9407 -13.8887  -8.0749  -8.0657  -8.0047  -7.9673  -7.9418
    -7.8129  -7.7651  -7.7290  -7.6654  -7.6088  -7.5592  -7.3810  -3.5072
    -3.4069  -3.3370  -3.1549  -3.0958  -2.9949  -2.9731  -2.3880  -2.3690
    -2.3204  -2.0876  -1.9206  -1.8002  -1.6635  -1.6604  -1.6077  -1.5327
    -1.4380  -1.3868  -1.3339  -1.2040  -1.1666  -1.1208  -1.1082  -1.0334
    -0.9407  -0.8992  -0.8803  -0.8326  -0.8249  -0.7612  -0.7580  -0.6449
    -0.3813  -0.2177  -0.1707  -0.0824  -0.0424   0.1069   0.1836   0.1961
     0.2293   0.3038   0.4246   0.6575   0.6812   0.8910   0.8967   0.9457
     0.9662   1.0476   1.0893   1.1175   1.1790   1.2207   1.2405   1.2611
     1.3607   1.4223   1.4570   1.5400   1.5877   1.6435   1.7118   1.7499
     1.7614   1.8580   1.9443   2.0425   2.0890   2.3269   2.3352   2.3397
     2.4687   2.4990   2.6080   2.7055   2.9851   3.0176   4.2265   5.0551
     6.5492   6.6583   7.0797   7.1755   7.2915   7.3628   7.9890   8.1072
     8.1631   8.5689   8.6559   8.7450   8.9065   9.1719   9.2869   9.3718
     9.5207

          k = 0.1250-0.5279 0.0000 ( 34840 PWs)   bands (ev):

   -38.2735 -35.5810 -22.6030 -22.5974 -22.4784 -22.3472 -19.4820 -19.2927
   -19.2415 -17.0439 -16.7990 -16.6963 -14.9654 -14.9435 -14.9398 -14.9040
   -14.5044 -14.4628 -14.2827 -14.2705 -14.2363 -14.1680 -14.1329 -14.0812
   -14.0664 -14.0558 -13.9144  -8.0751  -8.0695  -8.0021  -7.9611  -7.9467
    -7.8237  -7.7701  -7.7402  -7.6996  -7.6242  -7.5928  -7.4063  -3.7373
    -3.6063  -3.5239  -3.3530  -3.2740  -3.2232  -3.2008  -2.4091  -2.3915
    -2.3330  -2.0974  -1.8311  -1.8094  -1.8061  -1.7224  -1.6218  -1.5262
    -1.5200  -1.4593  -1.3715  -1.3433  -1.2549  -1.2455  -1.2065  -1.0613
    -1.0368  -0.9558  -0.9516  -0.9047  -0.8975  -0.8581  -0.8533  -0.6621
    -0.3705  -0.2355  -0.1734  -0.0866  -0.0198   0.1198   0.1999   0.2015
     0.2055   0.3300   0.4255   0.6359   0.6940   0.8482   0.9240   0.9477
     0.9528   1.0000   1.0190   1.2118   1.2285   1.2614   1.2854   1.3433
     1.3779   1.4656   1.4958   1.5430   1.7705   1.7847   1.7920   1.9998
     2.0237   2.0327   2.0359   2.2109   2.2608   2.3371   2.3662   2.4185
     2.4601   2.4924   2.5059   2.5487   2.8625   2.8764   4.3836   5.3129
     6.4517   6.5952   7.1877   7.3006   7.5128   7.5915   8.0156   8.3042
     8.4733   8.5653   8.8355   9.0487   9.1900   9.2995   9.3515   9.3661
     9.5262

          k = 0.2500 0.0000 0.0000 ( 34980 PWs)   bands (ev):

   -38.2816 -35.5908 -22.7367 -22.7355 -22.6184 -22.4800 -19.3717 -19.2845
   -19.2828 -16.9801 -16.8902 -16.6296 -15.4324 -15.0094 -14.9516 -14.9455
   -14.8065 -14.7010 -14.6095 -14.5700 -14.2125 -14.1983 -14.0510 -13.9683
   -13.8873 -13.7886 -13.7392  -8.0769  -7.9576  -7.7979  -7.7687  -7.7444
    -7.6746  -7.6283  -7.5867  -7.5631  -7.4789  -7.4395  -7.3122  -2.7364
    -2.5737  -2.4659  -2.3895  -2.2174  -2.1851  -2.1142  -2.0538  -1.7547
    -1.6560  -1.5943  -1.4794  -1.4450  -1.2533  -1.2228  -1.2129  -1.1440
    -1.1104  -0.9816  -0.9714  -0.8903  -0.8154  -0.7773  -0.7530  -0.6458
    -0.6322  -0.5386  -0.5111  -0.5083  -0.4620  -0.3157  -0.2685  -0.2587
    -0.2338  -0.2048  -0.1982  -0.1265   0.0133   0.0712   0.0783   0.1767
     0.2260   0.2545   0.3158   0.3651   0.3734   0.4423   0.4500   0.5387
     0.6363   0.6514   0.6930   0.8970   0.9649   0.9668   1.0306   1.0803
     1.1589   1.2581   1.2722   1.2999   1.3467   1.4051   1.4105   1.4435
     1.5686   1.6578   1.7256   1.8379   1.8821   1.9721   2.0303   2.0320
     2.1460   2.2207   2.2578   2.3715   2.4821   2.6707   2.7268   4.4498
     5.8463   5.8670   6.2607   6.5137   6.7311   7.0386   7.2166   7.5462
     7.5968   7.6868   7.9363   7.9744   8.1794   8.4882   8.6188   8.8005
     8.9872

          k = 0.2500 0.1320 0.0000 ( 34937 PWs)   bands (ev):

   -38.2802 -35.5889 -22.7129 -22.7127 -22.5944 -22.4571 -19.3699 -19.3186
   -19.2672 -16.9480 -16.8837 -16.6957 -15.3835 -14.9590 -14.9135 -14.8880
   -14.7574 -14.6545 -14.5851 -14.5725 -14.1983 -14.1835 -14.0489 -13.9718
   -13.9220 -13.8095 -13.7665  -8.0921  -8.0262  -7.9052  -7.8812  -7.8772
    -7.7875  -7.7233  -7.6223  -7.5531  -7.5192  -7.4470  -7.2787  -2.8133
    -2.6236  -2.4886  -2.4213  -2.3605  -2.2093  -2.1746  -2.1009  -2.0451
    -1.9645  -1.8510  -1.7219  -1.6370  -1.6250  -1.5076  -1.4174  -1.3245
    -1.2038  -1.1611  -1.0688  -1.0204  -0.9535  -0.8902  -0.8234  -0.7182
    -0.6642  -0.6312  -0.6139  -0.5467  -0.4647  -0.3512  -0.3441  -0.2345
    -0.2237  -0.1807  -0.0398  -0.0030   0.0148   0.0389   0.1177   0.1791
     0.1844   0.2010   0.2337   0.3220   0.3303   0.5635   0.6127   0.7618
     0.7954   0.8833   0.9188   0.9263   1.0351   1.0581   1.1365   1.1659
     1.2060   1.2878   1.2929   1.3634   1.3714   1.4261   1.4697   1.5008
     1.5256   1.5983   1.6790   1.7160   1.7329   1.9157   1.9816   2.3006
     2.5675   2.6587   2.7796   2.8495   2.8624   2.9397   2.9423   4.5292
     6.1075   6.1306   6.3778   6.5290   6.8166   7.0475   7.1870   7.7228
     7.8037   7.8642   7.9290   8.2289   8.3676   8.6087   8.7624   8.9162
     9.0935

          k = 0.2500 0.2640 0.0000 ( 34895 PWs)   bands (ev):

   -38.2767 -35.5846 -22.6564 -22.6542 -22.5355 -22.4008 -19.3940 -19.3507
   -19.2503 -16.8836 -16.8597 -16.8323 -15.2518 -14.8698 -14.8474 -14.7167
   -14.6360 -14.6173 -14.5267 -14.4848 -14.1732 -14.1446 -14.0977 -13.9876
   -13.9565 -13.8664 -13.8388  -8.2464  -8.2154  -8.1400  -8.0439  -7.9430
    -7.9352  -7.7683  -7.7398  -7.6729  -7.6291  -7.5662  -7.4010  -3.2185
    -3.0021  -2.7516  -2.7389  -2.6513  -2.5060  -2.4502  -2.3882  -2.3212
    -2.2806  -2.2722  -2.1801  -2.1345  -2.0181  -1.7000  -1.6119  -1.4599
    -1.4312  -1.3922  -1.3134  -1.2591  -1.1760  -1.0497  -0.9872  -0.8797
    -0.7766  -0.7568  -0.7437  -0.7391  -0.6298  -0.6180  -0.6004  -0.5607
    -0.4076  -0.3575  -0.3306  -0.0217   0.0965   0.1395   0.2066   0.3407
     0.4424   0.4953   0.5720   0.6745   0.7788   0.8032   0.8349   0.9512
     0.9567   0.9705   1.0890   1.1165   1.2431   1.2582   1.3356   1.3741
     1.4476   1.4525   1.5146   1.5267   1.5486   1.5788   1.6114   1.6235
     1.6817   1.6968   1.7309   1.8496   1.8718   1.8964   2.1179   2.3205
     2.9784   3.0162   3.1317   3.2631   3.4107   3.4143   3.6936   4.7723
     6.4863   6.5668   6.6501   6.6841   6.7768   7.0457   7.5791   7.8449
     7.9079   8.3360   8.3918   8.7237   8.8865   8.9533   9.0483   9.2095
     9.2505

          k = 0.2500 0.3960 0.0000 ( 34882 PWs)   bands (ev):

   -38.2731 -35.5802 -22.5987 -22.5937 -22.4748 -22.3429 -19.4523 -19.3463
   -19.2343 -16.9802 -16.8481 -16.7738 -15.0760 -14.8262 -14.8038 -14.7414
   -14.4909 -14.4489 -14.3797 -14.3603 -14.2224 -14.1054 -14.0956 -14.0520
   -14.0086 -13.9480 -13.8814  -8.3664  -8.3445  -8.2593  -8.1140  -8.0240
    -7.9932  -7.8869  -7.8845  -7.8484  -7.7491  -7.7218  -7.6140  -3.6752
    -3.5022  -3.4012  -3.2386  -3.2096  -2.9742  -2.9564  -2.4962  -2.4597
    -2.4077  -2.3038  -2.1470  -2.0838  -2.0546  -1.9705  -1.8163  -1.7517
    -1.5871  -1.5278  -1.4741  -1.3974  -1.3385  -1.2080  -1.1272  -1.0330
    -1.0225  -0.8831  -0.8746  -0.8117  -0.8056  -0.8023  -0.7177  -0.7044
    -0.5506  -0.4315  -0.3983   0.0715   0.1489   0.2524   0.2927   0.4147
     0.5896   0.6757   0.7496   0.7842   0.9700   0.9972   1.0034   1.0698
     1.2396   1.2788   1.3156   1.3213   1.3758   1.4349   1.4441   1.5006
     1.5118   1.5633   1.5897   1.6668   1.7146   1.7219   1.7687   1.8369
     1.8765   1.9092   2.0103   2.0561   2.2266   2.2486   2.2788   2.3934
     2.8105   2.8560   3.3474   3.4931   3.6435   3.6508   4.1708   5.1209
     6.4366   6.4426   6.6404   6.8580   6.9174   7.3102   7.7406   7.9321
     8.1902   8.7684   8.8181   8.8846   9.0163   9.2115   9.6623   9.6804
     9.7444

          k = 0.2500-0.5279 0.0000 ( 34904 PWs)   bands (ev):

   -38.2717 -35.5784 -22.5743 -22.5682 -22.4491 -22.3184 -19.4771 -19.3435
   -19.2276 -17.0303 -16.8426 -16.7342 -14.9179 -14.8731 -14.8229 -14.7939
   -14.3718 -14.3693 -14.2798 -14.2619 -14.2326 -14.1837 -14.0757 -14.0669
   -14.0612 -14.0165 -13.8813  -8.3666  -8.3631  -8.2579  -8.1119  -8.0814
    -8.0580  -8.0041  -7.9716  -7.9530  -7.7809  -7.7424  -7.7157  -3.8635
    -3.7068  -3.6590  -3.4452  -3.4034  -3.2019  -3.1847  -2.4677  -2.4619
    -2.4235  -2.2762  -2.2345  -2.1112  -2.0245  -1.9698  -1.9293  -1.8664
    -1.6722  -1.6429  -1.5116  -1.4387  -1.3571  -1.2798  -1.2151  -1.1311
    -1.0634  -0.9508  -0.9078  -0.8805  -0.8763  -0.8235  -0.7222  -0.7178
    -0.5639  -0.4593  -0.4219   0.0869   0.1882   0.2789   0.3227   0.4507
     0.6478   0.7129   0.7944   0.8690   1.0261   1.0722   1.1307   1.1629
     1.1942   1.2248   1.3292   1.3852   1.4289   1.4535   1.4967   1.4986
     1.5529   1.6363   1.6772   1.7420   1.8085   1.9030   1.9227   1.9847
     2.0291   2.0322   2.0689   2.1866   2.4048   2.4243   2.4407   2.4605
     2.5891   2.6456   3.3685   3.5134   3.6607   3.6856   4.2978   5.2996
     6.3295   6.4615   6.5487   6.8227   6.9235   7.4007   7.7102   7.9503
     8.5949   8.7512   9.0017   9.2044   9.2907   9.5103   9.5696   9.5932
     9.8148

          k = 0.3750 0.0000 0.0000 ( 34922 PWs)   bands (ev):

   -38.2797 -35.5881 -22.6929 -22.6913 -22.5725 -22.4368 -19.4139 -19.2805
   -19.2771 -17.0300 -16.8849 -16.6263 -15.2881 -15.0538 -15.0328 -15.0153
   -14.6899 -14.6603 -14.6098 -14.5814 -14.2249 -14.1976 -14.1660 -14.0648
   -13.9250 -13.9074 -13.7809  -8.0879  -7.9401  -7.7675  -7.7421  -7.6795
    -7.6257  -7.5747  -7.5024  -7.4867  -7.3931  -7.3925  -7.2334  -3.0553
    -2.9014  -2.7251  -2.7189  -2.3398  -2.2925  -2.2451  -1.9715  -1.6728
    -1.6270  -1.5891  -1.5113  -1.3735  -1.3537  -1.3531  -1.2264  -1.2244
    -1.2138  -1.1772  -1.1465  -1.0603  -1.0512  -1.0267  -0.9020  -0.8891
    -0.8203  -0.7388  -0.7108  -0.6687  -0.4802  -0.4427  -0.3962  -0.3039
    -0.2531  -0.2313  -0.2266  -0.2112   0.0583   0.0654   0.0672   0.1576
     0.2041   0.2569   0.3693   0.3949   0.4194   0.4375   0.4623   0.4663
     0.5239   0.7359   0.8050   0.8907   0.9936   1.0700   1.1348   1.1757
     1.1967   1.2221   1.2922   1.3416   1.3924   1.4978   1.5053   1.6163
     1.6620   1.7047   1.7074   1.7742   1.8010   1.9095   2.0651   2.1269
     2.1283   2.2501   2.3057   2.4607   2.5893   2.7949   2.8186   4.9312
     6.0224   6.4960   6.5220   6.7379   6.9806   7.0836   7.7620   7.9909
     7.9977   8.0104   8.0667   8.4629   8.5191   8.6757   8.7714   8.9485
     9.4860

          k = 0.3750 0.1320 0.0000 ( 34945 PWs)   bands (ev):

   -38.2783 -35.5863 -22.6719 -22.6696 -22.5507 -22.4157 -19.4107 -19.3186
   -19.2586 -17.0214 -16.8558 -16.6907 -15.2423 -15.0056 -14.9855 -14.9465
   -14.6876 -14.6204 -14.5500 -14.5357 -14.1963 -14.1763 -14.1406 -14.0482
   -13.9596 -13.9142 -13.7903  -8.1064  -7.9977  -7.8576  -7.8429  -7.8229
    -7.7676  -7.7040  -7.5921  -7.5884  -7.5543  -7.4840  -7.3267  -3.1362
    -2.9629  -2.7631  -2.7611  -2.3387  -2.3179  -2.2871  -2.2210  -2.0544
    -1.8777  -1.7862  -1.7246  -1.6254  -1.6141  -1.5634  -1.5038  -1.4778
    -1.4568  -1.3214  -1.2772  -1.2059  -1.0951  -1.0714  -0.9506  -0.8683
    -0.8076  -0.7790  -0.7005  -0.6239  -0.5473  -0.4252  -0.4012  -0.2773
    -0.2696  -0.2030  -0.0669  -0.0088   0.0220   0.0748   0.1620   0.1796
     0.1900   0.2237   0.2600   0.4306   0.4469   0.4749   0.6568   0.7681
     0.7782   0.8431   0.9462   1.0371   1.1401   1.1621   1.1941   1.2165
     1.2362   1.2719   1.2833   1.3510   1.3676   1.5287   1.5414   1.6276
     1.7010   1.7033   1.7612   1.7857   1.7945   1.8628   2.0692   2.2753
     2.7251   2.7504   2.7892   2.9143   2.9685   3.0868   3.1332   4.9669
     6.0690   6.6436   6.6538   6.6796   6.9281   7.0357   7.8086   7.9473
     8.0564   8.0763   8.1076   8.4895   8.7205   8.9124   8.9658   9.1874
     9.2912

          k = 0.3750 0.2640 0.0000 ( 34983 PWs)   bands (ev):

   -38.2748 -35.5820 -22.6203 -22.6163 -22.4973 -22.3642 -19.4045 -19.3823
   -19.2399 -17.0011 -16.8350 -16.7806 -15.1237 -14.8833 -14.8649 -14.7562
   -14.6940 -14.5251 -14.4208 -14.4013 -14.1560 -14.1283 -14.1231 -14.0045
   -13.9922 -13.9342 -13.8331  -8.2991  -8.2754  -8.1910  -8.0794  -7.9799
    -7.9774  -7.8576  -7.8553  -7.8352  -7.7188  -7.7176  -7.5991  -3.4933
    -3.2781  -3.0029  -2.9667  -2.6366  -2.6202  -2.5103  -2.3903  -2.3825
    -2.3635  -2.3547  -2.2596  -2.2331  -2.2307  -2.0388  -1.7873  -1.6497
    -1.5699  -1.4600  -1.3288  -1.2547  -1.1443  -1.0220  -0.9655  -0.9208
    -0.9044  -0.8701  -0.8443  -0.7645  -0.6903  -0.6584  -0.6429  -0.6387
    -0.4957  -0.3830  -0.3556   0.0299   0.1785   0.2320   0.3228   0.4469
     0.6008   0.6791   0.6990   0.7903   0.8246   0.8404   0.9975   1.0206
     1.0305   1.1504   1.1955   1.2248   1.2491   1.3191   1.4007   1.4130
     1.5150   1.5223   1.6004   1.6299   1.6675   1.7084   1.7135   1.7370
     1.7595   1.8085   1.8159   1.8247   1.8839   2.0927   2.1846   2.2563
     2.9797   3.0142   3.5613   3.6871   3.7246   3.8172   3.8491   5.0576
     6.1405   6.3517   6.6906   6.7260   6.7321   7.2242   7.6333   7.9139
     8.1492   8.3964   8.4453   8.8238   9.2288   9.3423   9.4084   9.4856
     9.5772

          k = 0.3750 0.3960 0.0000 ( 34949 PWs)   bands (ev):

   -38.2713 -35.5777 -22.5674 -22.5616 -22.4425 -22.3114 -19.4474 -19.3937
   -19.2231 -16.9837 -16.9619 -16.7009 -14.9810 -14.7484 -14.7327 -14.7318
   -14.4920 -14.4312 -14.3020 -14.2430 -14.2364 -14.0891 -14.0832 -13.9965
   -13.9639 -13.9621 -13.8918  -8.5649  -8.5456  -8.4566  -8.3027  -8.2299
    -8.1635  -8.1274  -8.0835  -7.9801  -7.8950  -7.8009  -7.7497  -3.9566
    -3.7574  -3.4589  -3.4116  -3.3496  -2.9536  -2.9387  -2.6961  -2.6404
    -2.5415  -2.4813  -2.3444  -2.2882  -2.2419  -2.2374  -2.0980  -1.8526
    -1.7292  -1.6703  -1.3433  -1.2407  -1.2169  -1.1915  -1.1397  -1.0992
    -1.0609  -0.9702  -0.9608  -0.8760  -0.8676  -0.8041  -0.7688  -0.7044
    -0.6402  -0.4047  -0.3796   0.1632   0.2838   0.3324   0.5281   0.6449
     0.8273   0.9284   0.9943   1.1024   1.1544   1.1896   1.2230   1.2331
     1.3467   1.4213   1.4379   1.4575   1.4753   1.5124   1.5731   1.5950
     1.6452   1.7085   1.7547   1.8013   1.8892   1.8944   1.9188   1.9497
     1.9844   1.9999   2.0732   2.1562   2.1705   2.1844   2.4056   2.5078
     2.8010   2.8412   3.9998   4.1404   4.2414   4.3252   4.3353   5.1971
     5.8576   6.2444   6.3874   6.5050   6.6476   7.3671   7.4164   8.0325
     8.3417   8.9668   9.0482   9.1081   9.1748   9.4006   9.4560   9.4927
     9.5275

          k = 0.3750-0.5279 0.0000 ( 34968 PWs)   bands (ev):

   -38.2698 -35.5759 -22.5451 -22.5386 -22.4194 -22.2891 -19.4723 -19.3908
   -19.2163 -17.0170 -16.9712 -16.6655 -14.8949 -14.7752 -14.6871 -14.6712
   -14.4061 -14.2923 -14.2781 -14.2570 -14.1542 -14.1119 -14.0676 -14.0533
   -13.9897 -13.9843 -13.8666  -8.6469  -8.6410  -8.5371  -8.3878  -8.3751
    -8.3138  -8.2754  -8.1102  -8.0078  -8.0025  -7.8242  -7.7645  -4.1515
    -3.9637  -3.6893  -3.6199  -3.5883  -3.1788  -3.1648  -2.7003  -2.6589
    -2.5615  -2.4936  -2.4482  -2.2825  -2.2365  -2.2355  -2.2048  -1.9338
    -1.8236  -1.6943  -1.3921  -1.3301  -1.2695  -1.2588  -1.2117  -1.1377
    -1.1278  -1.0016  -0.9674  -0.9630  -0.9343  -0.8909  -0.7831  -0.7300
    -0.6072  -0.3903  -0.3707   0.1939   0.3068   0.3557   0.6012   0.7531
     0.9131   1.0560   1.1264   1.1372   1.2561   1.2837   1.2993   1.3494
     1.3496   1.4718   1.5419   1.5444   1.5921   1.5998   1.6249   1.7237
     1.7508   1.8090   1.8461   1.8956   1.9150   2.0134   2.0420   2.0458
     2.1305   2.1525   2.2058   2.2795   2.3609   2.3688   2.4774   2.5585
     2.6058   2.6737   4.0679   4.2707   4.3897   4.4689   4.4801   5.2861
     5.6602   6.1701   6.2097   6.4981   6.5996   7.2751   7.4942   8.0931
     8.5997   8.9116   9.1089   9.1179   9.3019   9.3577   9.4019   9.5490
     9.6829

          k =-0.5000 0.0000 0.0000 ( 34926 PWs)   bands (ev):

   -38.2789 -35.5870 -22.6749 -22.6721 -22.5531 -22.4185 -19.4322 -19.2795
   -19.2728 -17.0825 -16.8427 -16.6249 -15.2275 -15.1100 -15.0825 -15.0188
   -14.7653 -14.6794 -14.4988 -14.4035 -14.3292 -14.2076 -14.1924 -14.1118
   -13.9805 -13.9366 -13.7949  -8.0871  -7.9298  -7.7507  -7.7261  -7.6564
    -7.6108  -7.5574  -7.4662  -7.4540  -7.3800  -7.3563  -7.1997  -3.1812
    -3.0434  -2.8666  -2.8622  -2.3648  -2.3325  -2.2414  -1.8781  -1.6643
    -1.6523  -1.6252  -1.4679  -1.4220  -1.3854  -1.3147  -1.2945  -1.2587
    -1.2450  -1.2283  -1.2168  -1.1841  -1.1062  -1.0793  -1.0026  -0.9114
    -0.9104  -0.8223  -0.7969  -0.7405  -0.5121  -0.4708  -0.4571  -0.3438
    -0.2869  -0.2258  -0.2252  -0.2154   0.0530   0.0601   0.0647   0.1640
     0.1755   0.2572   0.3572   0.3946   0.4060   0.4198   0.4589   0.4622
     0.5157   0.7199   0.8226   0.8490   0.9792   1.1254   1.1463   1.1633
     1.2457   1.3584   1.3663   1.3887   1.4118   1.4407   1.5830   1.5940
     1.6453   1.6631   1.7305   1.8618   1.9175   1.9484   2.0851   2.1266
     2.1407   2.2299   2.3071   2.4685   2.6029   2.8288   2.8312   5.3149
     5.6789   6.8391   7.0327   7.0965   7.2685   7.3207   7.3247   7.3381
     8.0063   8.2620   8.3524   8.3836   8.5380   8.9744   9.0577   9.1358
     9.4475

          k =-0.5000 0.1320 0.0000 ( 34958 PWs)   bands (ev):

   -38.2775 -35.5852 -22.6547 -22.6513 -22.5323 -22.3983 -19.4289 -19.3173
   -19.2547 -17.0732 -16.8152 -16.6886 -15.1772 -15.0531 -15.0260 -14.9526
   -14.7586 -14.6390 -14.4581 -14.3622 -14.2713 -14.1852 -14.1709 -14.0799
   -13.9776 -13.9740 -13.7975  -8.1019  -7.9688  -7.7992  -7.7858  -7.7509
    -7.7330  -7.6873  -7.6693  -7.6680  -7.5498  -7.4997  -7.4130  -3.2691
    -3.1114  -2.9142  -2.9087  -2.3698  -2.3329  -2.2978  -2.2040  -2.0227
    -1.8228  -1.7503  -1.7098  -1.7097  -1.6201  -1.6090  -1.5228  -1.5191
    -1.4956  -1.4361  -1.3126  -1.2847  -1.1775  -1.1019  -0.9618  -0.9115
    -0.8780  -0.8575  -0.7067  -0.6628  -0.5686  -0.4615  -0.4323  -0.3010
    -0.2782  -0.2213  -0.0812  -0.0062   0.0340   0.0767   0.1718   0.1797
     0.1898   0.2166   0.3260   0.3884   0.5059   0.5178   0.5884   0.6913
     0.7606   0.8376   0.9498   1.0588   1.1570   1.1655   1.2070   1.2664
     1.2733   1.2757   1.3031   1.3616   1.4096   1.5621   1.5922   1.6253
     1.6985   1.7318   1.7732   1.8690   1.9094   1.9126   2.1589   2.2506
     2.7388   2.7620   2.7965   2.9298   2.9887   3.1091   3.1864   5.2968
     5.7557   6.6937   6.8926   7.1084   7.1163   7.1756   7.6234   7.6576
     7.9657   8.1675   8.4612   8.4722   8.5193   9.2467   9.2941   9.3641
     9.5038

          k =-0.5000 0.2640 0.0000 ( 34964 PWs)   bands (ev):

   -38.2740 -35.5809 -22.6051 -22.6004 -22.4812 -22.3488 -19.4210 -19.3831
   -19.2355 -17.0512 -16.8318 -16.7442 -15.0568 -14.9021 -14.8773 -14.7626
   -14.7451 -14.5423 -14.3614 -14.2578 -14.1744 -14.1341 -14.1212 -14.0406
   -14.0015 -13.9732 -13.8267  -8.2382  -8.2365  -8.1209  -8.0870  -8.0467
    -8.0239  -7.9891  -7.9500  -7.9187  -7.7737  -7.7453  -7.7028  -3.6246
    -3.4165  -3.1476  -3.1028  -2.6397  -2.6268  -2.5357  -2.4091  -2.4032
    -2.3793  -2.3653  -2.2674  -2.2461  -2.2381  -2.1629  -1.9103  -1.6830
    -1.6512  -1.5621  -1.3023  -1.1750  -0.9911  -0.9890  -0.9774  -0.9769
    -0.9581  -0.9328  -0.8673  -0.7962  -0.7090  -0.6830  -0.6690  -0.6524
    -0.4992  -0.4033  -0.3662   0.0496   0.2006   0.2556   0.3991   0.4920
     0.6608   0.7232   0.7618   0.8436   0.8638   0.8700   1.0047   1.0815
     1.1257   1.1651   1.1807   1.2145   1.2985   1.3339   1.4213   1.4737
     1.5069   1.5246   1.5760   1.6890   1.6894   1.6905   1.7528   1.8276
     1.8360   1.8734   1.9018   1.9167   1.9227   1.9591   2.1979   2.3213
     2.9730   3.0055   3.6361   3.7554   3.8561   3.9398   3.9807   5.2448
     5.9266   6.2597   6.6863   6.6888   6.7287   7.2927   7.5660   7.9206
     8.4339   8.4366   8.7156   8.7283   9.0017   9.4187   9.5712   9.5806
     9.7625

          k =-0.5000 0.3960 0.0000 ( 34948 PWs)   bands (ev):

   -38.2705 -35.5766 -22.5543 -22.5482 -22.4290 -22.2982 -19.4451 -19.4131
   -19.2186 -17.0296 -16.9609 -16.6686 -14.9365 -14.7355 -14.7192 -14.7022
   -14.5007 -14.4486 -14.2779 -14.2287 -14.1474 -14.0857 -14.0721 -13.9808
   -13.9730 -13.9468 -13.9031  -8.6131  -8.6024  -8.5025  -8.3750  -8.3491
    -8.3119  -8.2770  -8.1051  -8.0263  -7.9964  -7.8146  -7.7586  -4.0919
    -3.8877  -3.5710  -3.5176  -3.3507  -2.9450  -2.9312  -2.7512  -2.7101
    -2.6159  -2.5498  -2.4402  -2.3045  -2.2753  -2.2490  -2.1946  -1.8904
    -1.8048  -1.7223  -1.2634  -1.2434  -1.1978  -1.1818  -1.1411  -1.1158
    -1.0541  -0.9859  -0.9471  -0.9348  -0.8958  -0.8131  -0.7910  -0.7795
    -0.6186  -0.3665  -0.3472   0.1903   0.3285   0.3616   0.6446   0.7383
     0.9300   1.0272   1.0733   1.2343   1.2664   1.2706   1.3502   1.3740
     1.3786   1.3800   1.4285   1.4787   1.5528   1.5693   1.5811   1.6534
     1.6578   1.7204   1.8214   1.8475   1.9588   1.9685   1.9742   1.9765
     2.0386   2.0632   2.1398   2.1531   2.1913   2.2605   2.3533   2.6318
     2.7898   2.8242   4.0370   4.3372   4.5013   4.5704   4.5877   5.2396
     5.6271   6.1129   6.1913   6.4049   6.5980   7.2169   7.4599   8.0924
     8.7956   8.8092   8.9183   8.9849   9.2957   9.3584   9.4245   9.4619
     9.5494

          k =-0.5000-0.5279 0.0000 ( 35004 PWs)   bands (ev):

   -38.2690 -35.5748 -22.5329 -22.5262 -22.4069 -22.2769 -19.4703 -19.4099
   -19.2118 -17.0208 -17.0115 -16.6351 -14.8862 -14.7328 -14.6215 -14.6154
   -14.4465 -14.2778 -14.2739 -14.2561 -14.1031 -14.0697 -14.0620 -14.0491
   -13.9744 -13.9405 -13.8814  -8.7591  -8.7539  -8.6486  -8.4994  -8.4911
    -8.4311  -8.3929  -8.1245  -8.1232  -8.0241  -7.8409  -7.7756  -4.2905
    -4.0958  -3.7765  -3.7228  -3.6136  -3.1693  -3.1562  -2.7696  -2.7426
    -2.6499  -2.5769  -2.5282  -2.2946  -2.2846  -2.2660  -2.2485  -1.9586
    -1.8823  -1.7467  -1.3579  -1.2943  -1.2723  -1.2690  -1.2067  -1.1780
    -1.0592  -1.0306  -0.9905  -0.9864  -0.9751  -0.8917  -0.8426  -0.8096
    -0.5759  -0.3377  -0.3227   0.2256   0.3524   0.3851   0.7359   0.9052
     1.0350   1.1050   1.2748   1.2956   1.3244   1.3354   1.3571   1.4005
     1.4557   1.4819   1.5454   1.6259   1.6419   1.6503   1.6686   1.8295
     1.8590   1.8800   1.9125   1.9443   2.0430   2.0460   2.0727   2.1085
     2.1328   2.1940   2.3322   2.3426   2.3496   2.4219   2.5270   2.5358
     2.5711   2.7880   4.0898   4.5237   4.7039   4.7715   4.7922   5.2842
     5.3992   5.9466   5.9642   6.4375   6.5838   7.1113   7.5282   8.3312
     8.6327   8.8470   8.8750   9.0303   9.0767   9.1464   9.3213   9.5591
     9.6243

     the Fermi energy is     2.5594 ev

!    total energy              =   -1842.74421525 Ry
     Harris-Foulkes estimate   =   -1842.74421526 Ry
     estimated scf accuracy    <          8.0E-09 Ry

     The total energy is the sum of the following terms:

     one-electron contribution =  -29580.82849765 Ry
     hartree contribution      =   14942.38490314 Ry
     xc contribution           =    -621.57192323 Ry
     ewald contribution        =   13417.27951399 Ry
     smearing contrib. (-TS)   =      -0.00821151 Ry

     convergence has been achieved in  33 iterations

     negative rho (up, down):  1.486E-03 0.000E+00

     Forces acting on atoms (cartesian axes, Ry/au):

     atom    1 type  4   force =     0.00000000    0.00000000   -0.00018335
     atom    2 type  3   force =     0.00000000    0.00000000    0.00024858
     atom    3 type  4   force =     0.00000000    0.00000000   -0.00074146
     atom    4 type  1   force =     0.00000000    0.00000000   -0.00028787
     atom    5 type  3   force =     0.00000000    0.00000000    0.00064714
     atom    6 type  4   force =     0.00000000    0.00000000   -0.00001049
     atom    7 type  4   force =     0.00000000    0.00000000    0.00033366
     atom    8 type  2   force =     0.00000000    0.00000000   -0.00059995
     atom    9 type  4   force =     0.00000000    0.00000000    0.00027964
     atom   10 type  4   force =     0.00000000    0.00000000    0.00034352
     atom   11 type  3   force =     0.00000000    0.00000000    0.00026304
     atom   12 type  1   force =     0.00000000    0.00000000    0.00009544
     atom   13 type  4   force =     0.00000000    0.00000000    0.00280895
     atom   14 type  4   force =     0.00000000    0.00000000    0.00297613
     atom   15 type  3   force =     0.00000000    0.00000000   -0.00498286
     atom   16 type  4   force =     0.00000000    0.00000000    0.00327838
     atom   17 type  1   force =     0.00000000    0.00000000   -0.01520596
     atom   18 type  3   force =     0.00000000    0.00000000    0.00384519
     atom   19 type  4   force =     0.00000000    0.00000000    0.05067968
     atom   20 type  4   force =     0.00000000    0.00000000    0.05710076
     atom   21 type  2   force =     0.00000000    0.00000000   -0.04696133
     atom   22 type  4   force =     0.00000000    0.00000000   -0.01175591
     atom   23 type  4   force =     0.00000000    0.00000000   -0.00468902
     atom   24 type  3   force =     0.00000000    0.00000000   -0.01951869
     atom   25 type  1   force =     0.00000000    0.00000000   -0.01696540
     atom   26 type  4   force =     0.00000000    0.00000000   -0.00098076
     atom   27 type  3   force =     0.00000000    0.00000000    0.00088042
     atom   28 type  4   force =     0.00000000    0.00000000   -0.00089749

     Total force =     0.095739     Total SCF correction =     0.000438


     Computing stress (Cartesian axis) and pressure


     negative rho (up, down):  1.486E-03 0.000E+00
          total   stress  (Ry/bohr**3)                   (kbar)     P=       -6.88
  -0.00000658   0.00000000   0.00000000           -0.97        0.00        0.00
   0.00000000   0.00001444   0.00000000            0.00        2.12        0.00
   0.00000000   0.00000000  -0.00014823            0.00        0.00      -21.80

 
     init_run     :      8.71s CPU      9.21s WALL (       1 calls)
     electrons    :    549.84s CPU    585.90s WALL (       1 calls)
     forces       :      3.82s CPU      4.14s WALL (       1 calls)
     stress       :     26.17s CPU     27.12s WALL (       1 calls)

     Called by init_run:
     wfcinit      :      6.08s CPU      6.25s WALL (       1 calls)
     potinit      :      0.63s CPU      0.64s WALL (       1 calls)
     hinit0       :      1.03s CPU      1.04s WALL (       1 calls)

     Called by electrons:
     c_bands      :    432.32s CPU    447.24s WALL (      33 calls)
     sum_band     :     77.60s CPU     89.27s WALL (      33 calls)
     v_of_rho     :      3.14s CPU      3.19s WALL (      34 calls)
     newd         :     19.85s CPU     29.35s WALL (      34 calls)
     mix_rho      :     17.16s CPU     17.32s WALL (      33 calls)

     Called by c_bands:
     init_us_2    :      3.36s CPU      3.41s WALL (    1725 calls)
     cegterg      :    408.22s CPU    422.52s WALL (     825 calls)

     Called by sum_band:
     sum_band:bec :      0.23s CPU      0.23s WALL (     825 calls)
     addusdens    :     17.88s CPU     28.86s WALL (      33 calls)

     Called by *egterg:
     h_psi        :    195.76s CPU    204.40s WALL (    3758 calls)
     s_psi        :     20.39s CPU     20.71s WALL (    3758 calls)
     g_psi        :      0.61s CPU      0.61s WALL (    2908 calls)
     cdiaghg      :    111.76s CPU    112.26s WALL (    3733 calls)

     Called by h_psi:
     h_psi:calbec :     24.29s CPU     25.39s WALL (    3758 calls)
     vloc_psi     :    148.98s CPU    151.63s WALL (    3758 calls)
     add_vuspsi   :     21.36s CPU     24.18s WALL (    3758 calls)

     General routines
     calbec       :     46.06s CPU     47.24s WALL (    4708 calls)
     fft          :      2.91s CPU      2.93s WALL (     465 calls)
     ffts         :      8.56s CPU      8.64s WALL (   13397 calls)
     fftw         :    170.29s CPU    173.13s WALL (  584989 calls)
     interpolate  :      0.24s CPU      0.24s WALL (      34 calls)
 
     Parallel routines
     fft_scatt_xy :     21.32s CPU     21.67s WALL (  598851 calls)
     fft_scatt_yz :    106.00s CPU    107.72s WALL (  598851 calls)
 
     PWSCF        :   9m49.27s CPU  10m27.14s WALL

 
   This run was terminated on:  21:42:23  21May2021            

=------------------------------------------------------------------------------=
   JOB DONE.
=------------------------------------------------------------------------------=
[1621647743.193889] [holy7c10403:236336:0]          mpool.c:43   UCX  WARN  object 0x3cfda80 was not returned to mpool ucp_requests
[1621647743.193602] [holy7c08502:175154:0]          mpool.c:43   UCX  WARN  object 0x3891740 was not returned to mpool ucp_requests
[1621647743.193627] [holy7c08502:175154:0]          mpool.c:43   UCX  WARN  object 0x38921c0 was not returned to mpool ucp_requests
[1621647743.194766] [holy7c10403:236335:0]          mpool.c:43   UCX  WARN  object 0x4335080 was not returned to mpool ucp_requests
[1621647743.194789] [holy7c10403:236335:0]          mpool.c:43   UCX  WARN  object 0x43355c0 was not returned to mpool ucp_requests
[1621647743.196151] [holy7c10403:236337:0]          mpool.c:43   UCX  WARN  object 0x2b5bec0 was not returned to mpool ucp_requests
[1621647743.203777] [holy7c10309:50929:0]          mpool.c:43   UCX  WARN  object 0x374a200 was not returned to mpool ucp_requests
[1621647743.203935] [holy7c10309:50925:0]          mpool.c:43   UCX  WARN  object 0x29c04c0 was not returned to mpool ucp_requests
