
     Program PWSCF v.6.5 starts on 21May2021 at 11:34:36 

     This program is part of the open-source Quantum ESPRESSO suite
     for quantum simulation of materials; please cite
         "P. Giannozzi et al., J. Phys.:Condens. Matter 21 395502 (2009);
         "P. Giannozzi et al., J. Phys.:Condens. Matter 29 465901 (2017);
          URL http://www.quantum-espresso.org", 
     in publications or presentations arising from this work. More details at
     http://www.quantum-espresso.org/quote

     Parallel version (MPI), running on    20 processors

     MPI processes distributed on     7 nodes
     R & G space division:  proc/nbgrp/npool/nimage =      20
     Reading input from CBCO_BaO_cleave_2.5_sep.pwi
Warning: card &IONS ignored
Warning: card     ION_DYNAMICS = 'BFGS' ignored
Warning: card / ignored
Warning: card &CELL ignored
Warning: card     CELL_DYNAMICS = 'BFGS' ignored
Warning: card     PRESS_CONV_THR = 5 ignored
Warning: card / ignored

     Current dimensions of program PWSCF are:
     Max number of different atomic species (ntypx) = 10
     Max number of k-points (npk) =  40000
     Max angular momentum in pseudopotentials (lmaxx) =  3

     Subspace diagonalization in iterative solution of the eigenvalue problem:
     one sub-group per band group will be used
     scalapack distributed-memory algorithm (size of sub-group:  4*  4 procs)

     Message from routine setup:
     using ibrav=0 with symmetry is DISCOURAGED, use correct ibrav instead
 
     Parallelization info
     --------------------
     sticks:   dense  smooth     PW     G-vecs:    dense   smooth      PW
     Min         149      50     14                74181    14286    2232
     Max         150      51     15                74220    14311    2279
     Sum        2991    1007    289              1484037   285927   44931
 


     bravais-lattice index     =            0
     lattice parameter (alat)  =       7.4270  a.u.
     unit-cell volume          =    4549.1164 (a.u.)^3
     number of atoms/cell      =           28
     number of atomic types    =            4
     number of electrons       =       227.00
     number of Kohn-Sham states=          137
     kinetic-energy cutoff     =      60.0000  Ry
     charge density cutoff     =     720.0000  Ry
     convergence threshold     =      1.0E-08
     mixing beta               =       0.5000
     number of iterations used =           10  local-TF  mixing
     Exchange-correlation= SLA PW PBE PBE
                           (   1   4   3   4   0   0   0)

     celldm(1)=   7.427040  celldm(2)=   0.000000  celldm(3)=   0.000000
     celldm(4)=   0.000000  celldm(5)=   0.000000  celldm(6)=   0.000000

     crystal axes: (cart. coord. in units of alat)
               a(1) = (   1.000000   0.000000   0.000000 )  
               a(2) = (   0.000000   0.947081   0.000000 )  
               a(3) = (   0.000000   0.000000  11.724453 )  

     reciprocal axes: (cart. coord. in units 2 pi/alat)
               b(1) = (  1.000000  0.000000  0.000000 )  
               b(2) = (  0.000000  1.055876  0.000000 )  
               b(3) = (  0.000000  0.000000  0.085292 )  


     PseudoPot. # 1 for Ba read from file:
     ./pseudo/Ba.pbe-nsp-van.UPF
     MD5 check sum: 2b9c31dd849566dd297d80989662b7a0
     Pseudo is Ultrasoft + core correction, Zval = 10.0
     Generated by new atomic code, or converted to UPF format
     Using radial grid of  907 points,  6 beta functions with: 
                l(1) =   0
                l(2) =   0
                l(3) =   1
                l(4) =   1
                l(5) =   2
                l(6) =   2
     Q(r) pseudized with  6 coefficients,  rinner =    1.200   1.200   1.200
                                                       1.200   1.200

     PseudoPot. # 2 for Ca read from file:
     ./pseudo/Ca.pbe-nsp-van.UPF
     MD5 check sum: 6471098428ff4fa451746d08035ff179
     Pseudo is Ultrasoft + core correction, Zval = 10.0
     Generated by new atomic code, or converted to UPF format
     Using radial grid of  845 points,  6 beta functions with: 
                l(1) =   0
                l(2) =   0
                l(3) =   1
                l(4) =   1
                l(5) =   2
                l(6) =   2
     Q(r) pseudized with  6 coefficients,  rinner =    1.200   1.200   1.200
                                                       1.200   1.200

     PseudoPot. # 3 for Cu read from file:
     ./pseudo/Cu.pbe-n-van_ak.UPF
     MD5 check sum: 34e3282627ffb533726feb647e090d62
     Pseudo is Ultrasoft + core correction, Zval = 11.0
     Generated by new atomic code, or converted to UPF format
     Using radial grid of  867 points,  6 beta functions with: 
                l(1) =   0
                l(2) =   0
                l(3) =   1
                l(4) =   1
                l(5) =   2
                l(6) =   2
     Q(r) pseudized with  8 coefficients,  rinner =    1.400   1.400   1.400
                                                       1.400   1.400

     PseudoPot. # 4 for O  read from file:
     ./pseudo/O.pbe-van_ak.UPF
     MD5 check sum: 783ce7fe4c79b6a4916957118fed0856
     Pseudo is Ultrasoft, Zval =  6.0
     Generated by new atomic code, or converted to UPF format
     Using radial grid of  737 points,  4 beta functions with: 
                l(1) =   0
                l(2) =   0
                l(3) =   1
                l(4) =   1
     Q(r) pseudized with  8 coefficients,  rinner =    0.800   0.800   0.800


     atomic species   valence    mass     pseudopotential
        Ba            10.00   137.32700     Ba( 1.00)
        Ca            10.00    40.07800     Ca( 1.00)
        Cu            11.00    63.54600     Cu( 1.00)
        O              6.00    15.99900     O ( 1.00)

      4 Sym. Ops. (no inversion) found



   Cartesian axes

     site n.     atom                  positions (alat units)
         1           O   tau(   1) = (   0.0000000   0.4735409  -0.0469745  )
         2           Cu  tau(   2) = (   0.0000000   0.0000000   0.0264565  )
         3           O   tau(   3) = (   0.0000000   0.0000000   0.5030914  )
         4           Ba  tau(   4) = (   0.5000000   0.4735409   0.5690292  )
         5           Cu  tau(   5) = (   0.0000000   0.0000000   1.0374254  )
         6           O   tau(   6) = (   0.5000000   0.0000000   1.0768099  )
         7           O   tau(   7) = (   0.0000000   0.4735409   1.1116985  )
         8           Ca  tau(   8) = (   0.5000000   0.4735409   1.4976260  )
         9           O   tau(   9) = (   0.0000000   0.4735409   1.8667529  )
        10           O   tau(  10) = (   0.5000000   0.0000000   1.9044124  )
        11           Cu  tau(  11) = (   0.0000000   0.0000000   1.9512546  )
        12           Ba  tau(  12) = (   0.5000000   0.4735409   2.4295764  )
        13           O   tau(  13) = (   0.0000000   0.0000000   2.5115362  )
        14           O   tau(  14) = (   0.0000000   0.4735409   2.9918528  )
        15           Cu  tau(  15) = (   0.0000000   0.0000000   2.9919088  )
        16           O   tau(  16) = (   0.0000000   0.0000000   3.4722686  )
        17           Ba  tau(  17) = (   0.5000000   0.4735409   3.5542208  )
        18           Cu  tau(  18) = (   0.0000000   0.0000000   4.6686215  )
        19           O   tau(  19) = (   0.5000000   0.0000000   4.7154636  )
        20           O   tau(  20) = (   0.0000000   0.4735409   4.7531180  )
        21           Ca  tau(  21) = (   0.5000000   0.4735409   5.1222551  )
        22           O   tau(  22) = (   0.0000000   0.4735409   5.5081800  )
        23           O   tau(  23) = (   0.5000000   0.0000000   5.5430687  )
        24           Cu  tau(  24) = (   0.0000000   0.0000000   5.5824558  )
        25           Ba  tau(  25) = (   0.5000000   0.4735409   6.0508494  )
        26           O   tau(  26) = (   0.0000000   0.0000000   6.1167770  )
        27           Cu  tau(  27) = (   0.0000000   0.0000000   6.5934170  )
        28           O   tau(  28) = (   0.0000000   0.4735409   6.6668352  )

     number of k points=    25  Gaussian smearing, width (Ry)=  0.0100
                       cart. coord. in units 2pi/alat
        k(    1) = (   0.0000000   0.0000000   0.0000000), wk =   0.0312500
        k(    2) = (   0.0000000   0.1319845   0.0000000), wk =   0.0625000
        k(    3) = (   0.0000000   0.2639689   0.0000000), wk =   0.0625000
        k(    4) = (   0.0000000   0.3959534   0.0000000), wk =   0.0625000
        k(    5) = (   0.0000000  -0.5279378   0.0000000), wk =   0.0312500
        k(    6) = (   0.1250000   0.0000000   0.0000000), wk =   0.0625000
        k(    7) = (   0.1250000   0.1319845   0.0000000), wk =   0.1250000
        k(    8) = (   0.1250000   0.2639689   0.0000000), wk =   0.1250000
        k(    9) = (   0.1250000   0.3959534   0.0000000), wk =   0.1250000
        k(   10) = (   0.1250000  -0.5279378   0.0000000), wk =   0.0625000
        k(   11) = (   0.2500000   0.0000000   0.0000000), wk =   0.0625000
        k(   12) = (   0.2500000   0.1319845   0.0000000), wk =   0.1250000
        k(   13) = (   0.2500000   0.2639689   0.0000000), wk =   0.1250000
        k(   14) = (   0.2500000   0.3959534   0.0000000), wk =   0.1250000
        k(   15) = (   0.2500000  -0.5279378   0.0000000), wk =   0.0625000
        k(   16) = (   0.3750000   0.0000000   0.0000000), wk =   0.0625000
        k(   17) = (   0.3750000   0.1319845   0.0000000), wk =   0.1250000
        k(   18) = (   0.3750000   0.2639689   0.0000000), wk =   0.1250000
        k(   19) = (   0.3750000   0.3959534   0.0000000), wk =   0.1250000
        k(   20) = (   0.3750000  -0.5279378   0.0000000), wk =   0.0625000
        k(   21) = (  -0.5000000   0.0000000   0.0000000), wk =   0.0312500
        k(   22) = (  -0.5000000   0.1319845   0.0000000), wk =   0.0625000
        k(   23) = (  -0.5000000   0.2639689   0.0000000), wk =   0.0625000
        k(   24) = (  -0.5000000   0.3959534   0.0000000), wk =   0.0625000
        k(   25) = (  -0.5000000  -0.5279378   0.0000000), wk =   0.0312500

     Dense  grid:  1484037 G-vectors     FFT dimensions: (  64,  64, 750)

     Smooth grid:   285927 G-vectors     FFT dimensions: (  40,  36, 432)

     Estimated max dynamical RAM per process >     473.42 MB

     Estimated total dynamical RAM >       9.25 GB

     Initial potential from superposition of free atoms

     starting charge  226.84630, renormalised to  227.00000

     negative rho (up, down):  3.526E-03 0.000E+00
     Starting wfcs are  195 randomized atomic wfcs

     total cpu time spent up to now is       11.0 secs

     Self-consistent Calculation

     iteration #  1     ecut=    60.00 Ry     beta= 0.50
     Davidson diagonalization with overlap
     ethr =  1.00E-02,  avg # of iterations =  2.0

     negative rho (up, down):  5.104E-04 0.000E+00

     total cpu time spent up to now is       30.9 secs

     total energy              =   -1840.79555989 Ry
     Harris-Foulkes estimate   =   -1845.40575644 Ry
     estimated scf accuracy    <      19.56440285 Ry

     iteration #  2     ecut=    60.00 Ry     beta= 0.50
     Davidson diagonalization with overlap
     ethr =  8.62E-03,  avg # of iterations =  2.0

     negative rho (up, down):  2.698E-04 0.000E+00

     total cpu time spent up to now is       49.8 secs

     total energy              =   -1842.50063257 Ry
     Harris-Foulkes estimate   =   -1843.34940510 Ry
     estimated scf accuracy    <       4.97229900 Ry

     iteration #  3     ecut=    60.00 Ry     beta= 0.50
     Davidson diagonalization with overlap
     ethr =  2.19E-03,  avg # of iterations =  2.0

     negative rho (up, down):  2.532E-04 0.000E+00

     total cpu time spent up to now is       68.0 secs

     total energy              =   -1842.85492812 Ry
     Harris-Foulkes estimate   =   -1842.99888951 Ry
     estimated scf accuracy    <       4.32288836 Ry

     iteration #  4     ecut=    60.00 Ry     beta= 0.50
     Davidson diagonalization with overlap
     ethr =  1.90E-03,  avg # of iterations =  1.0

     negative rho (up, down):  2.457E-04 0.000E+00

     total cpu time spent up to now is       86.6 secs

     total energy              =   -1842.84826404 Ry
     Harris-Foulkes estimate   =   -1842.93006378 Ry
     estimated scf accuracy    <       1.34852743 Ry

     iteration #  5     ecut=    60.00 Ry     beta= 0.50
     Davidson diagonalization with overlap
     ethr =  5.94E-04,  avg # of iterations =  1.8

     negative rho (up, down):  2.410E-04 0.000E+00

     total cpu time spent up to now is      104.5 secs

     total energy              =   -1842.83991713 Ry
     Harris-Foulkes estimate   =   -1842.89867190 Ry
     estimated scf accuracy    <       2.61027187 Ry

     iteration #  6     ecut=    60.00 Ry     beta= 0.50
     Davidson diagonalization with overlap
     ethr =  5.94E-04,  avg # of iterations =  1.4

     negative rho (up, down):  2.366E-04 0.000E+00

     total cpu time spent up to now is      122.5 secs

     total energy              =   -1842.82640760 Ry
     Harris-Foulkes estimate   =   -1842.86091790 Ry
     estimated scf accuracy    <       0.95880908 Ry

     iteration #  7     ecut=    60.00 Ry     beta= 0.50
     Davidson diagonalization with overlap
     ethr =  4.22E-04,  avg # of iterations =  4.0

     negative rho (up, down):  2.351E-04 0.000E+00

     total cpu time spent up to now is      142.8 secs

     total energy              =   -1842.82849656 Ry
     Harris-Foulkes estimate   =   -1842.83934855 Ry
     estimated scf accuracy    <       0.60255408 Ry

     iteration #  8     ecut=    60.00 Ry     beta= 0.50
     Davidson diagonalization with overlap
     ethr =  2.65E-04,  avg # of iterations =  3.0

     negative rho (up, down):  2.344E-04 0.000E+00

     total cpu time spent up to now is      162.1 secs

     total energy              =   -1842.82406051 Ry
     Harris-Foulkes estimate   =   -1842.83407861 Ry
     estimated scf accuracy    <       0.28301239 Ry

     iteration #  9     ecut=    60.00 Ry     beta= 0.50
     Davidson diagonalization with overlap
     ethr =  1.25E-04,  avg # of iterations =  6.0

     negative rho (up, down):  2.360E-04 0.000E+00

     total cpu time spent up to now is      186.9 secs

     total energy              =   -1842.82068664 Ry
     Harris-Foulkes estimate   =   -1842.82795389 Ry
     estimated scf accuracy    <       0.20255284 Ry

     iteration # 10     ecut=    60.00 Ry     beta= 0.50
     Davidson diagonalization with overlap
     ethr =  8.92E-05,  avg # of iterations =  3.4

     negative rho (up, down):  2.376E-04 0.000E+00

     total cpu time spent up to now is      206.2 secs

     total energy              =   -1842.81717354 Ry
     Harris-Foulkes estimate   =   -1842.82305972 Ry
     estimated scf accuracy    <       0.07446732 Ry

     iteration # 11     ecut=    60.00 Ry     beta= 0.50
     Davidson diagonalization with overlap
     c_bands:  1 eigenvalues not converged
     c_bands:  1 eigenvalues not converged
     ethr =  3.28E-05,  avg # of iterations =  8.4

     negative rho (up, down):  2.387E-04 0.000E+00

     total cpu time spent up to now is      234.7 secs

     total energy              =   -1842.81613601 Ry
     Harris-Foulkes estimate   =   -1842.81898015 Ry
     estimated scf accuracy    <       0.02100895 Ry

     iteration # 12     ecut=    60.00 Ry     beta= 0.50
     Davidson diagonalization with overlap
     c_bands:  1 eigenvalues not converged
     ethr =  9.26E-06,  avg # of iterations = 10.1

     negative rho (up, down):  2.384E-04 0.000E+00

     total cpu time spent up to now is      267.2 secs

     total energy              =   -1842.81611001 Ry
     Harris-Foulkes estimate   =   -1842.81696732 Ry
     estimated scf accuracy    <       0.01882198 Ry

     iteration # 13     ecut=    60.00 Ry     beta= 0.50
     Davidson diagonalization with overlap
     ethr =  8.29E-06,  avg # of iterations =  1.1

     negative rho (up, down):  4.202E-04 0.000E+00

     total cpu time spent up to now is      282.8 secs

     total energy              =   -1842.81516584 Ry
     Harris-Foulkes estimate   =   -1842.81628356 Ry
     estimated scf accuracy    <       0.02212739 Ry

     iteration # 14     ecut=    60.00 Ry     beta= 0.50
     Davidson diagonalization with overlap
     ethr =  8.29E-06,  avg # of iterations =  2.9

     negative rho (up, down):  6.031E-04 0.000E+00

     total cpu time spent up to now is      303.7 secs

     total energy              =   -1842.81486750 Ry
     Harris-Foulkes estimate   =   -1842.81539173 Ry
     estimated scf accuracy    <       0.03434689 Ry

     iteration # 15     ecut=    60.00 Ry     beta= 0.50
     Davidson diagonalization with overlap
     ethr =  8.29E-06,  avg # of iterations =  1.3

     negative rho (up, down):  2.369E-04 0.000E+00

     total cpu time spent up to now is      320.0 secs

     total energy              =   -1842.81488370 Ry
     Harris-Foulkes estimate   =   -1842.81494733 Ry
     estimated scf accuracy    <       0.03397491 Ry

     iteration # 16     ecut=    60.00 Ry     beta= 0.50
     Davidson diagonalization with overlap
     ethr =  8.29E-06,  avg # of iterations =  2.1

     negative rho (up, down):  2.426E-04 0.000E+00

     total cpu time spent up to now is      337.7 secs

     total energy              =   -1842.81386734 Ry
     Harris-Foulkes estimate   =   -1842.81497361 Ry
     estimated scf accuracy    <       0.02742938 Ry

     iteration # 17     ecut=    60.00 Ry     beta= 0.50
     Davidson diagonalization with overlap
     ethr =  8.29E-06,  avg # of iterations =  3.4

     negative rho (up, down):  3.482E-03 0.000E+00

     total cpu time spent up to now is      359.4 secs

     total energy              =   -1842.81223604 Ry
     Harris-Foulkes estimate   =   -1842.81398203 Ry
     estimated scf accuracy    <       0.02077002 Ry

     iteration # 18     ecut=    60.00 Ry     beta= 0.50
     Davidson diagonalization with overlap
     ethr =  8.29E-06,  avg # of iterations =  5.7

     negative rho (up, down):  2.900E-03 0.000E+00

     total cpu time spent up to now is      382.0 secs

     total energy              =   -1842.81188190 Ry
     Harris-Foulkes estimate   =   -1842.81240879 Ry
     estimated scf accuracy    <       0.00981335 Ry

     iteration # 19     ecut=    60.00 Ry     beta= 0.50
     Davidson diagonalization with overlap
     c_bands:  1 eigenvalues not converged
     ethr =  4.32E-06,  avg # of iterations =  6.6

     negative rho (up, down):  4.027E-03 0.000E+00

     total cpu time spent up to now is      406.1 secs

     total energy              =   -1842.81168718 Ry
     Harris-Foulkes estimate   =   -1842.81195269 Ry
     estimated scf accuracy    <       0.00521987 Ry

     iteration # 20     ecut=    60.00 Ry     beta= 0.50
     Davidson diagonalization with overlap
     ethr =  2.30E-06,  avg # of iterations =  8.4

     negative rho (up, down):  3.726E-04 0.000E+00

     total cpu time spent up to now is      434.1 secs

     total energy              =   -1842.81162606 Ry
     Harris-Foulkes estimate   =   -1842.81173401 Ry
     estimated scf accuracy    <       0.00244682 Ry

     iteration # 21     ecut=    60.00 Ry     beta= 0.50
     Davidson diagonalization with overlap
     c_bands:  1 eigenvalues not converged
     ethr =  1.08E-06,  avg # of iterations =  4.4

     negative rho (up, down):  3.759E-04 0.000E+00

     total cpu time spent up to now is      454.4 secs

     total energy              =   -1842.81163166 Ry
     Harris-Foulkes estimate   =   -1842.81168743 Ry
     estimated scf accuracy    <       0.00109147 Ry

     iteration # 22     ecut=    60.00 Ry     beta= 0.50
     Davidson diagonalization with overlap
     ethr =  4.81E-07,  avg # of iterations =  4.5

     negative rho (up, down):  2.377E-03 0.000E+00

     total cpu time spent up to now is      477.2 secs

     total energy              =   -1842.81163948 Ry
     Harris-Foulkes estimate   =   -1842.81166207 Ry
     estimated scf accuracy    <       0.00066890 Ry

     iteration # 23     ecut=    60.00 Ry     beta= 0.50
     Davidson diagonalization with overlap
     ethr =  2.95E-07,  avg # of iterations =  5.7

     negative rho (up, down):  1.484E-03 0.000E+00

     total cpu time spent up to now is      499.8 secs

     total energy              =   -1842.81164124 Ry
     Harris-Foulkes estimate   =   -1842.81166080 Ry
     estimated scf accuracy    <       0.00038626 Ry

     iteration # 24     ecut=    60.00 Ry     beta= 0.50
     Davidson diagonalization with overlap
     c_bands:  1 eigenvalues not converged
     ethr =  1.70E-07,  avg # of iterations =  6.0

     negative rho (up, down):  1.806E-03 0.000E+00

     total cpu time spent up to now is      523.6 secs

     total energy              =   -1842.81165832 Ry
     Harris-Foulkes estimate   =   -1842.81165329 Ry
     estimated scf accuracy    <       0.00013652 Ry

     iteration # 25     ecut=    60.00 Ry     beta= 0.50
     Davidson diagonalization with overlap
     ethr =  6.01E-08,  avg # of iterations =  2.2

     negative rho (up, down):  1.341E-03 0.000E+00

     total cpu time spent up to now is      541.5 secs

     total energy              =   -1842.81165476 Ry
     Harris-Foulkes estimate   =   -1842.81166123 Ry
     estimated scf accuracy    <       0.00006678 Ry

     iteration # 26     ecut=    60.00 Ry     beta= 0.50
     Davidson diagonalization with overlap
     ethr =  2.94E-08,  avg # of iterations =  3.0

     negative rho (up, down):  1.559E-03 0.000E+00

     total cpu time spent up to now is      562.2 secs

     total energy              =   -1842.81165462 Ry
     Harris-Foulkes estimate   =   -1842.81165615 Ry
     estimated scf accuracy    <       0.00000986 Ry

     iteration # 27     ecut=    60.00 Ry     beta= 0.50
     Davidson diagonalization with overlap
     ethr =  4.34E-09,  avg # of iterations =  2.6

     negative rho (up, down):  1.578E-03 0.000E+00

     total cpu time spent up to now is      581.1 secs

     total energy              =   -1842.81165482 Ry
     Harris-Foulkes estimate   =   -1842.81165527 Ry
     estimated scf accuracy    <       0.00000730 Ry

     iteration # 28     ecut=    60.00 Ry     beta= 0.50
     Davidson diagonalization with overlap
     ethr =  3.21E-09,  avg # of iterations =  1.1

     negative rho (up, down):  1.503E-03 0.000E+00

     total cpu time spent up to now is      598.0 secs

     total energy              =   -1842.81165503 Ry
     Harris-Foulkes estimate   =   -1842.81165509 Ry
     estimated scf accuracy    <       0.00000249 Ry

     iteration # 29     ecut=    60.00 Ry     beta= 0.50
     Davidson diagonalization with overlap
     ethr =  1.10E-09,  avg # of iterations =  2.1

     negative rho (up, down):  1.527E-03 0.000E+00

     total cpu time spent up to now is      617.4 secs

     total energy              =   -1842.81165509 Ry
     Harris-Foulkes estimate   =   -1842.81165514 Ry
     estimated scf accuracy    <       0.00000033 Ry

     iteration # 30     ecut=    60.00 Ry     beta= 0.50
     Davidson diagonalization with overlap
     ethr =  1.44E-10,  avg # of iterations =  3.2

     negative rho (up, down):  1.498E-03 0.000E+00

     total cpu time spent up to now is      638.8 secs

     total energy              =   -1842.81165516 Ry
     Harris-Foulkes estimate   =   -1842.81165513 Ry
     estimated scf accuracy    <       0.00000013 Ry

     iteration # 31     ecut=    60.00 Ry     beta= 0.50
     Davidson diagonalization with overlap
     ethr =  5.93E-11,  avg # of iterations =  1.5

     negative rho (up, down):  1.493E-03 0.000E+00

     total cpu time spent up to now is      655.6 secs

     total energy              =   -1842.81165516 Ry
     Harris-Foulkes estimate   =   -1842.81165516 Ry
     estimated scf accuracy    <       0.00000019 Ry

     iteration # 32     ecut=    60.00 Ry     beta= 0.50
     Davidson diagonalization with overlap
     ethr =  5.93E-11,  avg # of iterations =  1.0

     negative rho (up, down):  1.480E-03 0.000E+00

     total cpu time spent up to now is      672.5 secs

     total energy              =   -1842.81165517 Ry
     Harris-Foulkes estimate   =   -1842.81165516 Ry
     estimated scf accuracy    <       0.00000007 Ry

     iteration # 33     ecut=    60.00 Ry     beta= 0.50
     Davidson diagonalization with overlap
     ethr =  3.29E-11,  avg # of iterations =  1.0

     negative rho (up, down):  1.476E-03 0.000E+00

     total cpu time spent up to now is      689.1 secs

     total energy              =   -1842.81165518 Ry
     Harris-Foulkes estimate   =   -1842.81165517 Ry
     estimated scf accuracy    <       0.00000004 Ry

     iteration # 34     ecut=    60.00 Ry     beta= 0.50
     Davidson diagonalization with overlap
     ethr =  1.79E-11,  avg # of iterations =  1.0

     negative rho (up, down):  1.474E-03 0.000E+00

     total cpu time spent up to now is      707.9 secs

     total energy              =   -1842.81165519 Ry
     Harris-Foulkes estimate   =   -1842.81165518 Ry
     estimated scf accuracy    <       0.00000003 Ry

     iteration # 35     ecut=    60.00 Ry     beta= 0.50
     Davidson diagonalization with overlap
     ethr =  1.10E-11,  avg # of iterations =  1.0

     negative rho (up, down):  1.473E-03 0.000E+00

     total cpu time spent up to now is      724.6 secs

     total energy              =   -1842.81165519 Ry
     Harris-Foulkes estimate   =   -1842.81165519 Ry
     estimated scf accuracy    <       0.00000002 Ry

     iteration # 36     ecut=    60.00 Ry     beta= 0.50
     Davidson diagonalization with overlap
     ethr =  9.10E-12,  avg # of iterations =  1.0

     negative rho (up, down):  1.493E-03 0.000E+00

     total cpu time spent up to now is      741.5 secs

     total energy              =   -1842.81165516 Ry
     Harris-Foulkes estimate   =   -1842.81165519 Ry
     estimated scf accuracy    <       0.00000001 Ry

     iteration # 37     ecut=    60.00 Ry     beta= 0.50
     Davidson diagonalization with overlap
     ethr =  6.13E-12,  avg # of iterations =  1.2

     negative rho (up, down):  1.512E-03 0.000E+00

     total cpu time spent up to now is      757.7 secs

     End of self-consistent calculation

          k = 0.0000 0.0000 0.0000 ( 35809 PWs)   bands (ev):

   -35.7847 -35.5960 -24.4622 -22.9775 -22.9754 -22.7832 -17.2886 -17.0761
   -16.8359 -16.8244 -16.6621 -16.6426 -15.4973 -15.3564 -15.2220 -14.8590
   -14.8498 -14.7695 -14.5217 -14.3674 -14.3615 -14.1731 -14.1405 -14.1052
   -14.0252 -13.9312 -13.6528  -9.7228  -9.2941  -9.2177  -8.1094  -8.1049
    -8.0712  -8.0698  -7.9706  -7.8783  -7.8762  -7.8266  -7.6604  -2.5173
    -2.5154  -2.3912  -2.0171  -2.0095  -1.9685  -1.8611  -1.8169  -1.7394
    -1.7163  -1.6808  -1.5943  -1.4272  -1.4085  -1.4078  -1.4062  -1.1752
    -1.0091  -0.9869  -0.6462  -0.6443  -0.5671  -0.5621  -0.5472  -0.4977
    -0.4759  -0.4581  -0.4523  -0.4504  -0.4431  -0.4275  -0.3475  -0.3285
    -0.2995  -0.2846  -0.2246  -0.2229  -0.0891  -0.0878  -0.0869  -0.0830
    -0.0703  -0.0214  -0.0156   0.0200   0.1003   0.1312   0.2154   0.2326
     0.4744   0.4747   0.5235   0.6951   0.6959   0.7504   0.7856   0.9720
     0.9907   1.0451   1.1541   1.1931   1.1990   1.2186   1.2682   1.2875
     1.3710   1.4162   1.4452   1.6047   1.6280   1.8090   1.8154   1.8356
     1.8504   1.8515   1.9957   1.9981   2.0077   2.3404   2.3474   4.3421
     4.9845   5.0310   5.0930   5.8056   6.1375   6.4710   6.5756   6.6094
     7.0807   7.4333   7.7882   7.9343   8.0791   8.2253   8.3482   8.4500
     8.4889

          k = 0.0000 0.1320 0.0000 ( 35759 PWs)   bands (ev):

   -35.7829 -35.5942 -24.4414 -22.9508 -22.9487 -22.7577 -17.2525 -17.0397
   -16.8969 -16.8335 -16.7146 -16.6597 -15.4082 -15.2775 -15.1683 -14.8647
   -14.8486 -14.7419 -14.4928 -14.3770 -14.3663 -14.1770 -14.1660 -14.1563
   -14.0754 -13.9829 -13.6758  -9.7122  -9.2587  -9.2578  -8.1088  -8.1049
    -8.0234  -8.0219  -7.9687  -7.9200  -7.9180  -7.7815  -7.7087  -2.5746
    -2.5735  -2.4394  -2.3464  -2.3363  -2.2435  -2.0435  -2.0217  -1.8403
    -1.8319  -1.8305  -1.8001  -1.7220  -1.5686  -1.4312  -1.4259  -1.3939
    -1.0370  -0.9209  -0.8495  -0.8122  -0.8029  -0.7435  -0.7417  -0.6485
    -0.6472  -0.5388  -0.4808  -0.3751  -0.3696  -0.3392  -0.3358  -0.3340
    -0.3337  -0.2188  -0.2034  -0.2015  -0.1833  -0.1198  -0.0674  -0.0647
    -0.0638  -0.0267   0.0759   0.0885   0.1495   0.1737   0.2738   0.2855
     0.3159   0.6185   0.6782   0.8226   0.8885   0.8928   0.8930   0.9440
     0.9519   0.9734   0.9774   1.0746   1.2215   1.2567   1.2900   1.3309
     1.4038   1.4226   1.5522   1.5866   1.6047   1.6152   1.7458   1.8075
     1.8139   1.8409   2.0781   2.1453   2.4934   2.6279   2.6394   4.6117
     5.3284   5.4071   5.4183   6.1104   6.3949   6.6784   6.8802   6.8995
     7.3052   7.6194   7.9604   8.1039   8.1505   8.3003   8.4659   8.4926
     8.5267

          k = 0.0000 0.2640 0.0000 ( 35649 PWs)   bands (ev):

   -35.7785 -35.5898 -24.3901 -22.8849 -22.8828 -22.6950 -17.1605 -17.0510
   -16.9478 -16.8671 -16.8279 -16.6541 -15.2065 -15.1197 -15.0274 -14.9150
   -14.8664 -14.6810 -14.4321 -14.3652 -14.3331 -14.3235 -14.2201 -14.2146
   -14.1956 -14.0585 -13.7333  -9.6807  -9.3503  -9.1675  -8.1082  -8.1049
    -8.0110  -8.0085  -7.9634  -7.9030  -7.9015  -7.8133  -7.6683  -3.0481
    -3.0072  -3.0055  -2.8200  -2.6194  -2.6144  -2.5830  -2.4691  -2.4668
    -2.3815  -1.9656  -1.7855  -1.7526  -1.6673  -1.6625  -1.6452  -1.3516
    -1.2619  -1.1805  -1.1606  -1.1031  -0.9933  -0.9933  -0.8692  -0.8409
    -0.8279  -0.7378  -0.7193  -0.6859  -0.6833  -0.6427  -0.5456  -0.5308
    -0.4273  -0.3485  -0.1893  -0.1752  -0.1731  -0.0946  -0.0748   0.0204
     0.0634   0.1770   0.2543   0.3413   0.3557   0.4205   0.5028   0.5120
     0.5723   0.6163   0.7745   0.7886   0.8757   0.9423   0.9562   0.9776
     0.9785   1.0236   1.0816   1.1071   1.1243   1.2013   1.3478   1.3578
     1.5162   1.5234   1.5350   1.6768   1.7159   1.7856   1.7875   1.8060
     1.8606   1.9207   2.2110   2.2433   2.8509   2.8537   3.3365   5.1622
     6.1470   6.2998   6.3007   6.4993   7.1099   7.2442   7.6970   7.7017
     7.7410   7.9746   8.4118   8.4656   8.5861   8.6042   8.6831   8.7746
     8.8722

          k = 0.0000 0.3960 0.0000 ( 35582 PWs)   bands (ev):

   -35.7741 -35.5853 -24.3376 -22.8168 -22.8146 -22.6302 -17.1874 -17.0588
   -17.0038 -16.8446 -16.8222 -16.6484 -15.1211 -15.1110 -14.8804 -14.8537
   -14.7749 -14.6513 -14.5038 -14.4068 -14.3724 -14.3028 -14.2874 -14.2834
   -14.1676 -14.1142 -13.8158  -9.6304  -9.4449  -9.0733  -8.1081  -8.1050
    -8.0892  -8.0866  -7.9581  -7.9043  -7.7745  -7.7730  -7.5483  -3.7684
    -3.4764  -3.4679  -3.2606  -3.1852  -3.1816  -3.0293  -2.5595  -2.5574
    -2.4075  -2.3161  -1.9967  -1.9907  -1.7215  -1.6888  -1.5992  -1.4860
    -1.4015  -1.3255  -1.3011  -1.2950  -1.2620  -1.2487  -1.0611  -1.0354
    -1.0137  -0.9395  -0.9324  -0.9062  -0.8533  -0.8423  -0.7102  -0.5469
    -0.4391  -0.4301  -0.4059  -0.1581  -0.1563  -0.0610  -0.0605  -0.0320
     0.0540   0.2564   0.2593   0.3050   0.3877   0.3908   0.5832   0.7362
     0.7377   0.7451   0.7735   0.8244   0.8879   0.9235   0.9481   0.9497
     1.0395   1.0428   1.1820   1.2061   1.4292   1.4394   1.5278   1.5492
     1.5856   1.6746   1.7145   1.7414   1.7716   1.7931   1.9836   2.0006
     2.1642   2.1776   2.1804   2.1818   2.7452   2.7471   3.8923   5.6600
     6.3256   7.2038   7.2481   7.2485   7.8366   8.0340   8.1790   8.3246
     8.4931   8.5090   8.8441   8.8821   8.8935   8.9464   9.0266   9.0525
     9.2074

          k = 0.0000-0.5279 0.0000 ( 35638 PWs)   bands (ev):

   -35.7722 -35.5835 -24.3155 -22.7878 -22.7857 -22.6028 -17.2395 -17.0555
   -17.0139 -16.8199 -16.7998 -16.6460 -15.1631 -15.1556 -14.7649 -14.7513
   -14.6752 -14.6458 -14.6347 -14.4462 -14.4201 -14.3274 -14.2658 -14.2593
   -14.1510 -14.0971 -13.8801  -9.5888  -9.5011  -9.0331  -8.1188  -8.1162
    -8.1077  -8.1045  -7.9500  -7.9445  -7.7186  -7.7170  -7.4963  -4.0362
    -3.6546  -3.6477  -3.4332  -3.4156  -3.4069  -3.1988  -2.5756  -2.5736
    -2.4454  -2.4165  -2.1268  -2.1226  -1.6971  -1.6526  -1.6250  -1.4949
    -1.4538  -1.4031  -1.3892  -1.3842  -1.3822  -1.2215  -1.1862  -1.1538
    -1.1110  -1.0249  -1.0232  -0.9836  -0.9368  -0.8336  -0.7814  -0.5240
    -0.5143  -0.4263  -0.4199  -0.1524  -0.1507  -0.0714  -0.0502  -0.0202
     0.0542   0.1244   0.2246   0.2267   0.3564   0.4033   0.6192   0.6445
     0.6625   0.8057   0.8230   0.9150   0.9311   0.9327   0.9432   0.9833
     1.1368   1.1662   1.1915   1.2287   1.5444   1.5448   1.5530   1.6074
     1.8099   1.8232   1.8354   1.8637   1.8698   1.9243   1.9373   2.0317
     2.0338   2.1264   2.3419   2.3434   2.5667   2.5682   4.0730   5.7808
     6.4950   7.3820   7.6602   7.6620   7.7709   8.4430   8.7233   8.7631
     8.8090   8.8310   8.8502   8.9245   8.9672   9.0145   9.1297   9.1458
     9.2474

          k = 0.1250 0.0000 0.0000 ( 35737 PWs)   bands (ev):

   -35.7836 -35.5949 -24.4488 -22.9595 -22.9573 -22.7659 -17.2553 -17.0419
   -16.9160 -16.8230 -16.7437 -16.6412 -15.3948 -15.2650 -15.2429 -14.9049
   -14.8888 -14.7745 -14.5239 -14.3764 -14.3714 -14.1869 -14.1638 -14.1532
   -14.0450 -13.9650 -13.6617  -9.7465  -9.2387  -9.1943  -8.1350  -8.1312
    -8.0108  -8.0076  -8.0029  -7.8459  -7.8437  -7.7669  -7.6300  -2.5594
    -2.5583  -2.4144  -2.0602  -2.0467  -2.0071  -1.9955  -1.9851  -1.9389
    -1.6946  -1.6873  -1.6505  -1.5496  -1.4461  -1.4064  -1.4041  -1.2032
    -1.1130  -0.9911  -0.8217  -0.8003  -0.7028  -0.6999  -0.5819  -0.5811
    -0.5282  -0.5252  -0.5052  -0.4602  -0.4502  -0.4318  -0.3897  -0.3891
    -0.3733  -0.3488  -0.2541  -0.0963  -0.0941  -0.0928  -0.0874  -0.0699
     0.0084   0.0095   0.0161   0.0317   0.0933   0.1692   0.2276   0.3189
     0.5460   0.5856   0.5984   0.6192   0.6454   0.7802   0.8320   0.8473
     0.9967   1.0206   1.0278   1.1652   1.2159   1.2623   1.2652   1.2925
     1.3652   1.4169   1.5221   1.5495   1.7138   1.7319   1.7893   1.8011
     1.9004   1.9428   2.0065   2.0427   2.1657   2.3810   2.3834   4.5398
     5.1860   5.2112   5.2573   6.0367   6.3332   6.6258   6.7899   6.8156
     7.2380   7.7272   7.9322   8.0639   8.2208   8.3248   8.4091   8.5675
     8.5764

          k = 0.1250 0.1320 0.0000 ( 35712 PWs)   bands (ev):

   -35.7818 -35.5931 -24.4284 -22.9336 -22.9314 -22.7412 -17.2202 -17.0065
   -16.9190 -16.8862 -16.7448 -16.7058 -15.3130 -15.1962 -15.1871 -14.8997
   -14.8765 -14.7447 -14.4872 -14.3774 -14.3705 -14.2078 -14.1881 -14.1706
   -14.0898 -14.0094 -13.6819  -9.7244  -9.3917  -9.1036  -8.1539  -8.1514
    -8.0720  -8.0690  -7.9991  -7.8616  -7.8079  -7.8060  -7.5896  -2.6116
    -2.6092  -2.4567  -2.3324  -2.3201  -2.2227  -2.0392  -2.0373  -2.0300
    -2.0170  -1.9783  -1.8259  -1.8246  -1.6615  -1.5844  -1.4493  -1.4296
    -1.1063  -1.0041  -0.9503  -0.9009  -0.8765  -0.8552  -0.8418  -0.7441
    -0.6888  -0.6887  -0.5589  -0.4666  -0.4274  -0.4123  -0.3816  -0.3702
    -0.3222  -0.2259  -0.2234  -0.1835  -0.1665  -0.0470  -0.0355  -0.0172
     0.0026   0.0201   0.0858   0.0986   0.1304   0.1836   0.2345   0.3351
     0.4900   0.6952   0.7519   0.8385   0.8517   0.8556   0.9248   0.9952
     1.0167   1.0509   1.0750   1.0951   1.1155   1.1241   1.2056   1.3739
     1.3924   1.4084   1.4726   1.4755   1.5742   1.6539   1.6817   1.7851
     2.1540   2.1694   2.3077   2.4965   2.5074   2.6386   2.6445   4.7633
     5.5022   5.5494   5.5566   6.2704   6.5443   6.7969   7.0858   7.1001
     7.4665   7.7132   8.1009   8.1256   8.2419   8.4179   8.4679   8.6072
     8.7176

          k = 0.1250 0.2640 0.0000 ( 35637 PWs)   bands (ev):

   -35.7774 -35.5887 -24.3784 -22.8698 -22.8676 -22.6803 -17.1311 -17.0479
   -16.9179 -16.8987 -16.8638 -16.7262 -15.1355 -15.0741 -15.0383 -14.9028
   -14.8412 -14.6761 -14.4090 -14.3601 -14.3343 -14.3231 -14.2400 -14.2175
   -14.2054 -14.0720 -13.7305  -9.6785  -9.5313  -9.0910  -8.2228  -8.2208
    -8.1089  -8.1057  -8.0070  -7.9649  -7.7988  -7.7969  -7.5844  -3.0546
    -3.0256  -3.0120  -2.8314  -2.6208  -2.6149  -2.5848  -2.4684  -2.4662
    -2.3886  -2.0016  -1.9827  -1.9795  -1.8891  -1.6735  -1.6650  -1.6017
    -1.3137  -1.2069  -1.1719  -1.1715  -1.1287  -1.1013  -1.0488  -0.8804
    -0.8792  -0.8637  -0.8525  -0.7687  -0.7216  -0.6917  -0.6286  -0.5254
    -0.3826  -0.3812  -0.3516  -0.2336  -0.1920  -0.0154  -0.0030   0.0355
     0.1556   0.1739   0.2538   0.2987   0.4029   0.5537   0.5601   0.5988
     0.7771   0.8216   0.8288   0.8388   0.9089   0.9656   1.0399   1.0764
     1.1075   1.1388   1.1613   1.1782   1.2013   1.2245   1.2327   1.3473
     1.4051   1.4439   1.5275   1.6501   1.7433   1.7537   1.7763   1.8963
     2.3512   2.3639   2.5477   2.6921   2.8604   2.8733   3.3379   5.2697
     6.1728   6.3609   6.3617   6.5062   7.1902   7.3409   7.6835   7.8662
     7.8714   7.9833   8.4678   8.5582   8.6058   8.6729   8.7378   8.8181
     8.9246

          k = 0.1250 0.3960 0.0000 ( 35638 PWs)   bands (ev):

   -35.7730 -35.5843 -24.3271 -22.8038 -22.8017 -22.6175 -17.1822 -17.0323
   -16.9987 -16.8901 -16.8173 -16.7178 -15.0859 -15.0782 -14.8487 -14.8042
   -14.7138 -14.6291 -14.4755 -14.3865 -14.3535 -14.3345 -14.2817 -14.2780
   -14.1907 -14.1091 -13.7994  -9.6494  -9.5740  -9.1387  -8.2533  -8.2509
    -8.1204  -8.1173  -8.0580  -7.9655  -7.8438  -7.8421  -7.6243  -3.7556
    -3.5182  -3.5057  -3.2900  -3.1765  -3.1731  -3.0476  -2.5676  -2.5657
    -2.4193  -2.2585  -1.9793  -1.9719  -1.8457  -1.8162  -1.7870  -1.5741
    -1.5474  -1.5082  -1.4629  -1.3891  -1.3303  -1.2860  -1.2447  -1.1228
    -1.0641  -1.0534  -1.0455  -0.9677  -0.9450  -0.8291  -0.8188  -0.5784
    -0.4877  -0.4181  -0.3863  -0.2079  -0.1998   0.0118   0.0124   0.0349
     0.1031   0.2468   0.2735   0.4620   0.5378   0.5699   0.7126   0.7179
     0.7790   0.8679   0.8792   0.9834   1.0039   1.0233   1.0396   1.0808
     1.0946   1.1738   1.2164   1.3976   1.4664   1.4987   1.5277   1.5717
     1.6230   1.6915   1.7184   1.7906   1.9584   2.0323   2.1479   2.1489
     2.2986   2.3139   2.5002   2.6077   2.8007   2.8271   3.8876   5.6934
     6.1986   7.1100   7.1136   7.1546   7.6641   7.9217   8.0607   8.2571
     8.4748   8.4842   8.7184   8.7633   9.0048   9.0187   9.1756   9.2691
     9.3640

          k = 0.1250-0.5279 0.0000 ( 35600 PWs)   bands (ev):

   -35.7712 -35.5824 -24.3055 -22.7759 -22.7737 -22.5910 -17.2338 -17.0499
   -16.9890 -16.8864 -16.7740 -16.7141 -15.1183 -15.1116 -14.7079 -14.6930
   -14.6312 -14.6171 -14.6054 -14.4303 -14.3986 -14.3614 -14.2626 -14.2594
   -14.1357 -14.1168 -13.8520  -9.6238  -9.5904  -9.1684  -8.2480  -8.2454
    -8.1253  -8.1221  -8.0679  -7.9642  -7.8780  -7.8765  -7.6502  -4.0249
    -3.7039  -3.6930  -3.4670  -3.4064  -3.4018  -3.2235  -2.5887  -2.5867
    -2.4314  -2.3542  -2.0094  -2.0014  -1.8002  -1.7780  -1.7074  -1.6812
    -1.6716  -1.6367  -1.5556  -1.4199  -1.4149  -1.3597  -1.3076  -1.2776
    -1.1548  -1.1341  -1.1286  -1.0553  -1.0385  -0.9198  -0.8108  -0.5760
    -0.4881  -0.4278  -0.3961  -0.1810  -0.1799   0.0241   0.0252   0.0360
     0.1074   0.2680   0.3007   0.3056   0.4505   0.5582   0.7417   0.7598
     0.7690   0.7694   0.8275   1.0501   1.0727   1.0901   1.1006   1.1107
     1.1321   1.1783   1.2640   1.4267   1.5855   1.6448   1.7945   1.8300
     1.8355   1.8399   1.8669   2.0107   2.0670   2.1106   2.1584   2.1658
     2.3130   2.3142   2.3555   2.4516   2.6784   2.7142   4.0675   5.6766
     6.6080   7.0340   7.3339   7.3368   7.5854   8.0434   8.1369   8.5528
     8.7968   8.9202   9.0459   9.1151   9.1294   9.1898   9.4320   9.4887
     9.6388

          k = 0.2500 0.0000 0.0000 ( 35764 PWs)   bands (ev):

   -35.7810 -35.5923 -24.4160 -22.9152 -22.9130 -22.7237 -17.1701 -17.0799
   -16.9555 -16.9091 -16.8197 -16.6379 -15.3045 -15.1920 -15.1403 -14.9906
   -14.9240 -14.7995 -14.5339 -14.3909 -14.3881 -14.3139 -14.2239 -14.1792
   -14.0877 -14.0287 -13.6853  -9.7700  -9.1420  -9.1366  -8.1364  -8.1328
    -8.0280  -7.9228  -7.9212  -7.7652  -7.7630  -7.6834  -7.5545  -2.7525
    -2.7474  -2.5794  -2.3957  -2.3941  -2.3169  -2.1720  -1.9369  -1.9153
    -1.8472  -1.6702  -1.6303  -1.5735  -1.4997  -1.4031  -1.4008  -1.2838
    -1.2779  -1.1513  -1.0645  -1.0426  -0.9556  -0.9547  -0.8397  -0.8367
    -0.7199  -0.7166  -0.6039  -0.5817  -0.5240  -0.5225  -0.4496  -0.4390
    -0.4335  -0.4290  -0.3731  -0.2276  -0.1419  -0.1091  -0.1068  -0.0023
    -0.0016   0.1361   0.1380   0.2387   0.2571   0.3224   0.3596   0.4391
     0.4736   0.5176   0.5219   0.6741   0.7227   0.7522   0.7675   0.8703
     1.0732   1.0880   1.1152   1.1175   1.1401   1.2134   1.2292   1.2796
     1.3725   1.3798   1.5363   1.5889   1.6838   1.6904   1.8104   1.8477
     1.8975   2.0327   2.0846   2.2517   2.4034   2.4903   2.4913   5.0051
     5.6658   5.6682   5.7165   6.5130   6.8503   7.0858   7.3674   7.3837
     7.5799   7.9343   8.2933   8.3384   8.5132   8.6215   8.6583   8.7600
     8.9616

          k = 0.2500 0.1320 0.0000 ( 35725 PWs)   bands (ev):

   -35.7792 -35.5904 -24.3968 -22.8913 -22.8891 -22.7008 -17.1381 -17.0735
   -16.9248 -16.9009 -16.8858 -16.7037 -15.2412 -15.1404 -15.1041 -14.9428
   -14.8726 -14.7647 -14.4853 -14.3765 -14.3759 -14.3117 -14.2264 -14.1931
   -14.1214 -14.0563 -13.6993  -9.7464  -9.4210  -9.0331  -8.2047  -8.2025
    -8.0604  -8.0568  -8.0498  -7.8644  -7.7316  -7.7296  -7.5211  -2.8035
    -2.7926  -2.6153  -2.3873  -2.3864  -2.3104  -2.2833  -2.2776  -2.1686
    -2.1539  -2.0444  -1.9636  -1.8168  -1.8151  -1.6452  -1.5459  -1.5261
    -1.2517  -1.2015  -1.2005  -1.1551  -1.0816  -1.0093  -0.9416  -0.8691
    -0.8509  -0.8100  -0.7922  -0.6983  -0.5541  -0.5315  -0.4547  -0.4039
    -0.3602  -0.2925  -0.2223  -0.2126  -0.1861  -0.0718  -0.0683   0.0110
     0.0164   0.1376   0.1400   0.1465   0.2482   0.4044   0.4803   0.5787
     0.5876   0.7115   0.7225   0.7355   0.8558   0.8917   0.9137   1.0071
     1.0107   1.0713   1.1158   1.1702   1.2127   1.2298   1.2571   1.2931
     1.2948   1.3546   1.5376   1.5436   1.5988   1.6323   1.8357   1.8429
     2.4646   2.4976   2.5579   2.6653   2.6824   2.7091   2.8752   5.1584
     5.9272   5.9293   5.9403   6.4881   6.9955   7.2089   7.5924   7.6250
     7.6331   7.9350   8.3461   8.4260   8.4643   8.6624   8.6896   8.8662
     8.9723

          k = 0.2500 0.2640 0.0000 ( 35681 PWs)   bands (ev):

   -35.7748 -35.5861 -24.3497 -22.8326 -22.8304 -22.6444 -17.0744 -17.0489
   -17.0223 -16.8972 -16.8450 -16.8342 -15.0693 -15.0487 -15.0367 -14.8055
   -14.7444 -14.6787 -14.3592 -14.3521 -14.3481 -14.3271 -14.2796 -14.2401
   -14.1789 -14.1035 -13.7258  -9.7330  -9.6728  -9.1399  -8.4248  -8.4228
    -8.2053  -8.1215  -8.1184  -7.9781  -7.8514  -7.8493  -7.6442  -3.1851
    -3.1514  -2.9983  -2.9219  -2.6453  -2.6283  -2.6088  -2.4997  -2.4995
    -2.4456  -2.3574  -2.3551  -2.2879  -2.0981  -1.9320  -1.6432  -1.6091
    -1.6080  -1.5908  -1.5021  -1.3475  -1.2463  -1.1968  -1.0947  -1.0901
    -0.9229  -0.9064  -0.8584  -0.8334  -0.7842  -0.7821  -0.7180  -0.6074
    -0.5440  -0.4652  -0.3429  -0.2296  -0.1815  -0.1261   0.0920   0.1315
     0.1937   0.3279   0.3894   0.5947   0.5970   0.6421   0.7370   0.7725
     0.7749   0.8888   1.0160   1.0494   1.0693   1.1338   1.1692   1.1772
     1.1847   1.2260   1.2673   1.2886   1.3263   1.3561   1.3833   1.4143
     1.4873   1.4924   1.5766   1.6689   1.6701   1.7498   1.8762   1.9487
     2.7985   2.7996   3.0812   3.1002   3.2212   3.3448   3.3866   5.5665
     5.9428   6.4714   6.4718   6.6866   7.3815   7.5308   7.7039   8.1319
     8.1579   8.1592   8.4339   8.5339   8.8350   8.8565   8.8982   9.0243
     9.0948

          k = 0.2500 0.3960 0.0000 ( 35662 PWs)   bands (ev):

   -35.7705 -35.5817 -24.3016 -22.7722 -22.7700 -22.5866 -17.1702 -17.0382
   -16.9869 -16.9636 -16.8673 -16.7477 -15.0043 -15.0003 -14.8377 -14.6336
   -14.6049 -14.5888 -14.4098 -14.4023 -14.3579 -14.2977 -14.2684 -14.2585
   -14.2060 -14.1036 -13.7578  -9.8879  -9.6217  -9.3513  -8.5448  -8.5425
    -8.3360  -8.1718  -8.1691  -8.0653  -8.0631  -7.9966  -7.8623  -3.7335
    -3.6723  -3.6506  -3.4071  -3.1576  -3.1523  -3.1217  -2.6378  -2.6378
    -2.4853  -2.3226  -2.3176  -2.2590  -2.1240  -2.0413  -1.9719  -1.9533
    -1.8023  -1.6681  -1.6454  -1.5592  -1.5519  -1.3539  -1.3349  -1.1638
    -1.0543  -1.0124  -0.9911  -0.9809  -0.9764  -0.8269  -0.7977  -0.7479
    -0.6488  -0.6142  -0.4021  -0.2158  -0.0707  -0.0283   0.1621   0.1657
     0.2755   0.4648   0.6084   0.7863   0.7908   0.7931   0.9003   0.9353
     1.0658   1.1025   1.1258   1.1320   1.1362   1.2205   1.3042   1.3061
     1.3687   1.3947   1.5026   1.5190   1.5554   1.5728   1.6062   1.6268
     1.6524   1.7140   1.7672   1.8048   2.0427   2.0693   2.0705   2.0817
     2.6302   2.6318   3.3094   3.3423   3.4608   3.6029   3.8722   5.4554
     6.1379   6.6783   6.6804   7.0100   7.4709   7.5495   7.7151   8.3573
     8.6061   8.6196   8.8225   8.9191   9.1018   9.2337   9.4830   9.5568
     9.5900

          k = 0.2500-0.5279 0.0000 ( 35700 PWs)   bands (ev):

   -35.7687 -35.5799 -24.2814 -22.7466 -22.7445 -22.5621 -17.2203 -17.0366
   -17.0327 -16.9241 -16.8620 -16.7082 -15.0011 -14.9967 -14.6306 -14.5975
   -14.5517 -14.5327 -14.5101 -14.4297 -14.3966 -14.3379 -14.2557 -14.2538
   -14.1279 -14.1049 -13.7825  -9.9178  -9.5963  -9.4687  -8.5450  -8.5424
    -8.3552  -8.2598  -8.2580  -8.1317  -8.1286  -8.0119  -7.9731  -4.0020
    -3.8746  -3.8511  -3.5992  -3.3842  -3.3799  -3.3162  -2.6454  -2.6450
    -2.4859  -2.2874  -2.2787  -2.2439  -2.1955  -2.1155  -2.1101  -1.9894
    -1.9050  -1.7391  -1.7229  -1.6204  -1.6103  -1.4366  -1.4259  -1.1816
    -1.1495  -1.0929  -1.0622  -1.0037  -0.9912  -0.9044  -0.7791  -0.7559
    -0.6858  -0.6397  -0.4017  -0.2133  -0.0401   0.0235   0.1771   0.2240
     0.3760   0.4998   0.6787   0.7336   0.8507   0.8930   0.8957   0.9155
     1.0109   1.0401   1.1524   1.2395   1.2976   1.3033   1.3147   1.3439
     1.4183   1.4343   1.4680   1.6015   1.7168   1.7664   1.7723   1.8160
     1.8367   1.8597   1.8809   1.9786   2.0869   2.2002   2.2455   2.2462
     2.4081   2.4103   3.3288   3.3691   3.4971   3.6331   4.0429   5.2572
     6.6316   6.6438   6.6946   6.8029   7.4080   7.4222   7.5358   8.3182
     8.9276   9.0568   9.3231   9.3310   9.3377   9.5448   9.6218   9.7079
     9.7683

          k = 0.3750 0.0000 0.0000 ( 35706 PWs)   bands (ev):

   -35.7783 -35.5896 -24.3826 -22.8697 -22.8675 -22.6804 -17.2199 -17.0748
   -17.0519 -16.8559 -16.8164 -16.6346 -15.3795 -15.2305 -15.2240 -14.8490
   -14.8101 -14.8080 -14.5037 -14.4540 -14.3977 -14.3952 -14.3168 -14.2221
   -14.1206 -14.0749 -13.7161  -9.7660  -9.0777  -9.0773  -8.1189  -8.1154
    -8.0206  -7.8579  -7.8565  -7.6808  -7.6785  -7.6346  -7.4758  -3.0809
    -3.0723  -2.9181  -2.5808  -2.5189  -2.5176  -2.3605  -1.8566  -1.8177
    -1.7772  -1.7154  -1.7004  -1.5654  -1.5321  -1.4572  -1.4047  -1.4024
    -1.3629  -1.2899  -1.2065  -1.1953  -1.1921  -1.0829  -1.0679  -1.0529
    -0.9197  -0.9167  -0.8094  -0.7791  -0.6492  -0.5708  -0.5374  -0.5159
    -0.4352  -0.4306  -0.4105  -0.3081  -0.1708  -0.1219  -0.1197  -0.0130
    -0.0100   0.2143   0.2171   0.2333   0.2398   0.2424   0.2619   0.3453
     0.4068   0.5581   0.6786   0.7702   0.7758   0.8053   0.9033   0.9968
     0.9970   1.0238   1.1157   1.1204   1.1591   1.1843   1.3124   1.3686
     1.4371   1.5660   1.5716   1.5865   1.6034   1.7081   1.8559   1.9383
     1.9904   2.0634   2.1191   2.3629   2.4259   2.6084   2.6113   5.5396
     6.1703   6.3171   6.3179   6.8284   7.3521   7.5705   7.8118   7.8134
     7.8375   8.2772   8.3656   8.4822   8.7213   8.8008   9.1356   9.2269
     9.3117

          k = 0.3750 0.1320 0.0000 ( 35739 PWs)   bands (ev):

   -35.7766 -35.5878 -24.3646 -22.8480 -22.8458 -22.6594 -17.2113 -17.0457
   -17.0432 -16.8808 -16.8268 -16.6987 -15.3070 -15.1829 -15.1771 -14.8096
   -14.7642 -14.7485 -14.4536 -14.4165 -14.3733 -14.3721 -14.2999 -14.2152
   -14.1565 -14.0831 -13.7264  -9.7452  -9.3579  -9.0829  -8.1762  -8.1736
    -8.0464  -8.0211  -8.0190  -7.8145  -7.7705  -7.7683  -7.5690  -3.1434
    -3.1286  -2.9627  -2.6025  -2.5175  -2.5165  -2.3702  -2.2351  -2.2022
    -2.0718  -2.0390  -1.9000  -1.8054  -1.8035  -1.6927  -1.6443  -1.6109
    -1.5007  -1.4920  -1.4179  -1.3235  -1.1806  -1.0892  -1.0125  -0.9938
    -0.9797  -0.8913  -0.8844  -0.8396  -0.6950  -0.6079  -0.5829  -0.4563
    -0.4487  -0.2548  -0.2325  -0.1903  -0.1740  -0.0876  -0.0443  -0.0028
     0.0065   0.0717   0.2479   0.2532   0.2911   0.4574   0.5044   0.5063
     0.6058   0.6539   0.7484   0.8039   0.8711   0.9643   0.9931   1.0326
     1.0380   1.0594   1.1402   1.1722   1.1852   1.1866   1.3445   1.4017
     1.4746   1.5195   1.5600   1.5822   1.6155   1.8279   1.8744   2.0068
     2.5274   2.5639   2.5956   2.7544   2.7920   2.9293   3.0367   5.6501
     6.2059   6.4665   6.4668   6.5945   7.4296   7.6176   7.8129   7.8781
     7.8792   8.2831   8.4176   8.5001   8.6856   8.7756   9.0833   9.2398
     9.3126

          k = 0.3750 0.2640 0.0000 ( 35737 PWs)   bands (ev):

   -35.7722 -35.5835 -24.3207 -22.7947 -22.7925 -22.6079 -17.1910 -17.0252
   -17.0225 -16.9705 -16.8421 -16.7521 -15.1075 -15.0609 -15.0572 -14.7139
   -14.6619 -14.5997 -14.3647 -14.3464 -14.3269 -14.3111 -14.3009 -14.2026
   -14.1949 -14.1172 -13.7325  -9.7929  -9.6692  -9.3240  -8.4775  -8.4754
    -8.2625  -8.1561  -8.1536  -8.0338  -8.0313  -7.9920  -7.8446  -3.4615
    -3.4203  -3.2002  -2.9626  -2.8242  -2.6891  -2.6797  -2.5689  -2.5687
    -2.5547  -2.4395  -2.4374  -2.3645  -2.3528  -1.9796  -1.9201  -1.9171
    -1.7833  -1.5380  -1.4688  -1.4047  -1.3550  -1.1732  -1.1144  -1.0946
    -1.0640  -1.0312  -0.9184  -0.8385  -0.8370  -0.8200  -0.7308  -0.6933
    -0.5635  -0.5612  -0.4413  -0.1246  -0.1093  -0.0388   0.1968   0.2032
     0.2819   0.4449   0.4987   0.6299   0.6401   0.8185   0.8190   0.8280
     0.9485   1.0068   1.0369   1.0600   1.1279   1.1942   1.2534   1.2621
     1.2690   1.2893   1.4020   1.4058   1.4436   1.4921   1.5215   1.5656
     1.5662   1.5980   1.6269   1.6275   1.7538   1.8645   1.9038   2.0796
     2.7986   2.8006   3.3524   3.5352   3.5467   3.6518   3.7966   5.5786
     5.9867   6.5115   6.5125   6.7292   7.4385   7.4772   7.8682   8.2142
     8.2233   8.3611   8.5644   8.6998   8.9429   9.1692   9.2295   9.3282
     9.3811

          k = 0.3750 0.3960 0.0000 ( 35709 PWs)   bands (ev):

   -35.7679 -35.5791 -24.2758 -22.7401 -22.7379 -22.5551 -17.1737 -17.1519
   -17.0032 -16.9704 -16.8909 -16.6723 -14.9264 -14.9245 -14.8343 -14.6215
   -14.5694 -14.4424 -14.4231 -14.3593 -14.3221 -14.2680 -14.2638 -14.2083
   -14.1245 -14.1226 -13.7181 -10.1017  -9.6391  -9.5982  -8.7433  -8.7408
    -8.5351  -8.4083  -8.4066  -8.1598  -8.1554  -8.1530  -8.0210  -3.9417
    -3.8922  -3.7106  -3.6119  -3.2902  -3.1333  -3.1316  -2.8187  -2.8184
    -2.6745  -2.4679  -2.4659  -2.4279  -2.3638  -2.2912  -2.2174  -2.0853
    -1.9812  -1.8222  -1.6018  -1.4076  -1.3964  -1.3942  -1.3852  -1.1505
    -1.1306  -1.0685  -1.0491  -1.0447  -0.9874  -0.9016  -0.7912  -0.7781
    -0.6476  -0.5822  -0.5803  -0.0371  -0.0034   0.0587   0.2686   0.4181
     0.5451   0.6559   0.8246   0.9682   0.9696   1.0198   1.0987   1.1444
     1.1649   1.2039   1.2940   1.2944   1.3456   1.3922   1.4561   1.5052
     1.5495   1.5619   1.5827   1.5920   1.6150   1.7376   1.7593   1.7958
     1.8072   1.8110   1.8924   1.8980   1.9919   1.9923   2.0662   2.3134
     2.6182   2.6222   3.8431   4.0555   4.0640   4.1336   4.2714   4.9824
     6.2084   6.2087   6.3609   6.8639   7.0996   7.1869   7.7552   8.2010
     8.7915   8.8066   9.0938   9.1753   9.2943   9.3485   9.3651   9.4061
     9.4679

          k = 0.3750-0.5279 0.0000 ( 35732 PWs)   bands (ev):

   -35.7661 -35.5773 -24.2570 -22.7170 -22.7148 -22.5328 -17.2070 -17.1611
   -17.0234 -16.9925 -16.8555 -16.6370 -14.8649 -14.8643 -14.6290 -14.5881
   -14.5401 -14.4882 -14.4237 -14.3747 -14.3476 -14.2478 -14.2457 -14.2399
   -14.0958 -14.0713 -13.7099 -10.2122  -9.7455  -9.5982  -8.8254  -8.8226
    -8.6306  -8.5534  -8.5520  -8.2827  -8.1847  -8.1809  -8.0351  -4.1492
    -4.0985  -3.9766  -3.8136  -3.4942  -3.3586  -3.3569  -2.8372  -2.8368
    -2.6872  -2.4631  -2.4602  -2.4258  -2.3988  -2.3652  -2.3242  -2.1559
    -2.0330  -1.9277  -1.6729  -1.5104  -1.5019  -1.4297  -1.4200  -1.1498
    -1.1460  -1.1403  -1.1216  -1.0891  -1.0561  -0.9095  -0.8909  -0.7664
    -0.6457  -0.5693  -0.5680  -0.0039   0.0122   0.0989   0.2863   0.5038
     0.7129   0.7254   0.9592   1.0784   1.0824   1.0971   1.1301   1.1700
     1.1973   1.2096   1.3623   1.4231   1.4581   1.4844   1.5858   1.5910
     1.5930   1.6216   1.7526   1.7828   1.8088   1.8286   1.8526   1.8725
     1.8956   1.9497   2.0177   2.0773   2.1320   2.1801   2.1826   2.3736
     2.3795   2.4503   3.9741   4.2035   4.2097   4.2808   4.4120   4.7512
     6.0313   6.0314   6.6333   6.7943   6.9677   7.0950   7.6167   8.0451
     8.9356   8.9669   9.0923   9.1646   9.2797   9.3891   9.5457   9.6415
     9.6459

          k =-0.5000 0.0000 0.0000 ( 35702 PWs)   bands (ev):

   -35.7773 -35.5885 -24.3686 -22.8506 -22.8484 -22.6621 -17.2723 -17.1047
   -17.0327 -16.8150 -16.8123 -16.6332 -15.4150 -15.2862 -15.2801 -14.8764
   -14.7798 -14.6226 -14.5160 -14.4468 -14.4051 -14.4031 -14.3796 -14.2843
   -14.1288 -14.0918 -13.7319  -9.7587  -9.0582  -9.0522  -8.1086  -8.1051
    -8.0115  -7.8348  -7.8334  -7.6447  -7.6423  -7.6211  -7.4422  -3.2228
    -3.2147  -3.0610  -2.7356  -2.5441  -2.5425  -2.3581  -1.8470  -1.8097
    -1.7993  -1.7591  -1.5972  -1.5724  -1.5283  -1.4464  -1.4084  -1.4063
    -1.4003  -1.3656  -1.3372  -1.3357  -1.2513  -1.1938  -1.0990  -1.0034
    -1.0021  -1.0002  -0.9021  -0.8951  -0.7164  -0.6272  -0.5427  -0.5347
    -0.4751  -0.4282  -0.4064  -0.3207  -0.1628  -0.1272  -0.1250  -0.0484
    -0.0434   0.1734   0.2142   0.2166   0.2267   0.2395   0.2439   0.3120
     0.3731   0.6188   0.7426   0.7858   0.8040   0.8219   0.8381   0.9467
     0.9469   1.0503   1.1727   1.1872   1.1996   1.3009   1.3986   1.4650
     1.4659   1.4699   1.4700   1.6127   1.6722   1.7523   1.9540   1.9926
     2.0117   2.0772   2.1236   2.3671   2.3987   2.6352   2.6419   6.0203
     6.0282   6.9633   7.0904   7.0909   7.1413   7.1426   7.3432   8.0665
     8.3475   8.3785   8.4572   8.7170   8.7762   8.8338   9.2581   9.2777
     9.3164

          k =-0.5000 0.1320 0.0000 ( 35734 PWs)   bands (ev):

   -35.7755 -35.5867 -24.3511 -22.8298 -22.8276 -22.6420 -17.2630 -17.0954
   -17.0052 -16.8787 -16.7848 -16.6966 -15.3381 -15.2294 -15.2239 -14.8346
   -14.7419 -14.5786 -14.4572 -14.4115 -14.3774 -14.3705 -14.3580 -14.2511
   -14.1671 -14.0915 -13.7425  -9.7374  -9.2679  -9.1762  -8.1474  -8.1444
    -8.0311  -7.9642  -7.9628  -7.8477  -7.8451  -7.7419  -7.6562  -3.2918
    -3.2777  -3.1134  -2.7632  -2.5489  -2.5476  -2.3828  -2.2032  -2.1666
    -2.0492  -1.9992  -1.8584  -1.8002  -1.7981  -1.7077  -1.6913  -1.6419
    -1.6154  -1.6062  -1.5237  -1.3564  -1.2042  -1.1815  -1.0577  -1.0560
    -1.0098  -0.8948  -0.8806  -0.8297  -0.8048  -0.6448  -0.6257  -0.4798
    -0.4776  -0.2647  -0.2402  -0.1613  -0.1348  -0.1079  -0.0336  -0.0063
     0.0001   0.0366   0.3008   0.3273   0.3279   0.3865   0.4251   0.4720
     0.5978   0.6374   0.6567   0.8470   0.9107   0.9591   0.9949   1.0400
     1.0409   1.0905   1.0946   1.1672   1.2317   1.3155   1.4229   1.4342
     1.4973   1.5261   1.5370   1.6776   1.7165   1.8093   1.9979   2.0922
     2.5395   2.5663   2.5956   2.7727   2.8140   2.9834   3.0645   6.0294
     6.0963   6.5717   6.9379   6.9389   7.4449   7.4463   7.5166   7.9760
     8.0373   8.2701   8.5846   8.6499   8.7460   9.0868   9.3499   9.4287
     9.4312

          k =-0.5000 0.2640 0.0000 ( 35768 PWs)   bands (ev):

   -35.7712 -35.5824 -24.3085 -22.7788 -22.7766 -22.5925 -17.2411 -17.0732
   -17.0219 -16.9341 -16.8388 -16.7143 -15.1261 -15.0783 -15.0748 -14.7349
   -14.6532 -14.4668 -14.3550 -14.3297 -14.3283 -14.3191 -14.3079 -14.2389
   -14.1659 -14.1102 -13.7423  -9.7589  -9.6674  -9.4577  -8.4164  -8.4138
    -8.2653  -8.2640  -8.2154  -8.0973  -8.0940  -8.0229  -7.9725  -3.5998
    -3.5589  -3.3446  -2.9628  -2.9548  -2.7148  -2.7066  -2.5851  -2.5785
    -2.5666  -2.4484  -2.4452  -2.3961  -2.3573  -2.0985  -2.0360  -1.9175
    -1.8843  -1.6197  -1.4271  -1.3200  -1.3155  -1.1571  -1.1553  -1.1217
    -1.0973  -1.0506  -0.9576  -0.8632  -0.8607  -0.8135  -0.7691  -0.6941
    -0.5818  -0.5775  -0.4566  -0.1072  -0.0989   0.0540   0.2246   0.2934
     0.3162   0.4863   0.5356   0.6614   0.6657   0.7972   0.8998   0.9090
     0.9571   0.9924   0.9992   1.0469   1.0605   1.2669   1.2777   1.2843
     1.3032   1.3664   1.3988   1.4848   1.5221   1.5252   1.5671   1.5930
     1.6160   1.6236   1.6361   1.7059   1.7349   1.8592   1.9841   2.1902
     2.7916   2.7940   3.3581   3.6747   3.6866   3.7859   3.9190   5.4193
     6.2869   6.5066   6.5080   6.5952   7.3589   7.3912   7.9328   8.2258
     8.2555   8.4293   8.6429   8.9414   9.1650   9.3682   9.3988   9.4289
     9.4802

          k =-0.5000 0.3960 0.0000 ( 35736 PWs)   bands (ev):

   -35.7668 -35.5780 -24.2651 -22.7266 -22.7244 -22.5419 -17.2195 -17.1509
   -17.0515 -16.9676 -16.8586 -16.6388 -14.8976 -14.8950 -14.8350 -14.6476
   -14.5794 -14.4131 -14.3492 -14.3461 -14.2857 -14.2657 -14.2638 -14.1753
   -14.1559 -14.0736 -13.7037 -10.1716  -9.7362  -9.6239  -8.7915  -8.7888
    -8.5912  -8.5534  -8.5520  -8.2896  -8.1752  -8.1716  -8.0346  -4.0720
    -4.0184  -3.7740  -3.6620  -3.3966  -3.1250  -3.1231  -2.8889  -2.8884
    -2.7425  -2.5297  -2.4839  -2.4822  -2.3885  -2.3715  -2.3133  -2.0963
    -2.0327  -1.8982  -1.5913  -1.4225  -1.4129  -1.2957  -1.2777  -1.2382
    -1.2202  -1.0760  -1.0706  -1.0102  -0.9907  -0.9649  -0.7852  -0.7670
    -0.7353  -0.5461  -0.5444  -0.0253   0.0665   0.1198   0.3012   0.5198
     0.7010   0.7461   0.8993   1.0791   1.0909   1.1063   1.1072   1.1594
     1.1925   1.2392   1.3673   1.3683   1.3737   1.4550   1.5079   1.5588
     1.5662   1.5914   1.6149   1.6312   1.7089   1.7748   1.7977   1.8715
     1.8840   1.8865   1.9508   1.9610   1.9990   2.0198   2.0457   2.4421
     2.6059   2.6111   3.8382   4.3203   4.3266   4.3797   4.5055   4.7834
     6.0128   6.0137   6.4955   6.7966   6.9392   7.0317   7.8278   8.0585
     8.7372   8.7525   9.1639   9.2108   9.2771   9.3906   9.4681   9.5217
     9.5316

          k =-0.5000-0.5279 0.0000 ( 35804 PWs)   bands (ev):

   -35.7651 -35.5763 -24.2468 -22.7046 -22.7024 -22.5206 -17.2107 -17.2015
   -17.0426 -17.0181 -16.8252 -16.6056 -14.8012 -14.7990 -14.6404 -14.6174
   -14.5640 -14.4595 -14.3796 -14.3720 -14.2952 -14.2442 -14.2406 -14.1506
   -14.1338 -14.0332 -13.6789 -10.3354  -9.8512  -9.6011  -8.9375  -8.9347
    -8.7420  -8.6695  -8.6681  -8.3959  -8.2032  -8.1989  -8.0509  -4.2805
    -4.2255  -4.0011  -3.9015  -3.5990  -3.3494  -3.3474  -2.9214  -2.9208
    -2.7700  -2.5444  -2.4809  -2.4740  -2.4722  -2.4078  -2.3716  -2.1666
    -2.0678  -1.9943  -1.6584  -1.5371  -1.5298  -1.3604  -1.3425  -1.2130
    -1.1894  -1.1702  -1.1686  -1.0916  -1.0410  -0.9263  -0.8844  -0.7897
    -0.7254  -0.5177  -0.5156   0.0105   0.1057   0.1408   0.3209   0.6303
     0.8402   0.8404   1.0655   1.1584   1.1648   1.1712   1.1995   1.2312
     1.2572   1.3141   1.4278   1.4945   1.5023   1.5851   1.6436   1.6607
     1.7086   1.7142   1.7476   1.8133   1.8279   1.8848   1.9199   1.9453
     2.0026   2.0106   2.0743   2.1536   2.1564   2.1849   2.2314   2.3490
     2.3570   2.5841   3.9602   4.5216   4.5297   4.5405   4.5837   4.6961
     5.7860   5.7867   6.6294   6.7606   6.8347   6.9168   7.7950   7.9078
     8.8465   8.8608   8.8712   8.8967   9.2298   9.3359   9.3951   9.4886
     9.6328

     the Fermi energy is     2.3813 ev

!    total energy              =   -1842.81165513 Ry
     Harris-Foulkes estimate   =   -1842.81165516 Ry
     estimated scf accuracy    <          5.6E-09 Ry

     The total energy is the sum of the following terms:

     one-electron contribution =  -26574.05857791 Ry
     hartree contribution      =   13438.03482732 Ry
     xc contribution           =    -621.54879125 Ry
     ewald contribution        =   11914.76821370 Ry
     smearing contrib. (-TS)   =      -0.00732699 Ry

     convergence has been achieved in  37 iterations

     negative rho (up, down):  1.512E-03 0.000E+00

     Forces acting on atoms (cartesian axes, Ry/au):

     atom    1 type  4   force =     0.00000000    0.00000000   -0.00014698
     atom    2 type  3   force =     0.00000000    0.00000000    0.00033471
     atom    3 type  4   force =     0.00000000    0.00000000   -0.00077642
     atom    4 type  1   force =     0.00000000    0.00000000   -0.00031650
     atom    5 type  3   force =     0.00000000    0.00000000    0.00061797
     atom    6 type  4   force =     0.00000000    0.00000000    0.00016839
     atom    7 type  4   force =     0.00000000    0.00000000    0.00051472
     atom    8 type  2   force =     0.00000000    0.00000000   -0.00112547
     atom    9 type  4   force =     0.00000000    0.00000000    0.00055150
     atom   10 type  4   force =     0.00000000    0.00000000    0.00082110
     atom   11 type  3   force =     0.00000000    0.00000000    0.00052063
     atom   12 type  1   force =     0.00000000    0.00000000   -0.00284630
     atom   13 type  4   force =     0.00000000    0.00000000    0.00710604
     atom   14 type  4   force =     0.00000000    0.00000000    0.01968458
     atom   15 type  3   force =     0.00000000    0.00000000   -0.02224506
     atom   16 type  4   force =     0.00000000    0.00000000    0.03569388
     atom   17 type  1   force =     0.00000000    0.00000000   -0.02965276
     atom   18 type  3   force =     0.00000000    0.00000000   -0.01052566
     atom   19 type  4   force =     0.00000000    0.00000000    0.01178252
     atom   20 type  4   force =     0.00000000    0.00000000    0.00372889
     atom   21 type  2   force =     0.00000000    0.00000000   -0.01790824
     atom   22 type  4   force =     0.00000000    0.00000000    0.00069483
     atom   23 type  4   force =     0.00000000    0.00000000    0.00233456
     atom   24 type  3   force =     0.00000000    0.00000000    0.00003242
     atom   25 type  1   force =     0.00000000    0.00000000    0.00019162
     atom   26 type  4   force =     0.00000000    0.00000000    0.00111520
     atom   27 type  3   force =     0.00000000    0.00000000   -0.00067676
     atom   28 type  4   force =     0.00000000    0.00000000    0.00032658

     Total force =     0.060748     Total SCF correction =     0.000312


     Computing stress (Cartesian axis) and pressure


     negative rho (up, down):  1.512E-03 0.000E+00
          total   stress  (Ry/bohr**3)                   (kbar)     P=       -8.37
  -0.00009664   0.00000000   0.00000000          -14.22        0.00        0.00
   0.00000000  -0.00004028   0.00000000            0.00       -5.93        0.00
   0.00000000   0.00000000  -0.00003384            0.00        0.00       -4.98

 
     init_run     :      9.51s CPU      9.86s WALL (       1 calls)
     electrons    :    723.66s CPU    746.78s WALL (       1 calls)
     forces       :      4.06s CPU      4.24s WALL (       1 calls)
     stress       :     28.84s CPU     29.30s WALL (       1 calls)

     Called by init_run:
     wfcinit      :      6.46s CPU      6.60s WALL (       1 calls)
     potinit      :      0.63s CPU      0.64s WALL (       1 calls)
     hinit0       :      1.13s CPU      1.15s WALL (       1 calls)

     Called by electrons:
     c_bands      :    557.99s CPU    569.74s WALL (      37 calls)
     sum_band     :    106.89s CPU    113.01s WALL (      37 calls)
     v_of_rho     :      3.59s CPU      3.63s WALL (      38 calls)
     newd         :     29.59s CPU     34.66s WALL (      38 calls)
     mix_rho      :     25.93s CPU     26.15s WALL (      37 calls)

     Called by c_bands:
     init_us_2    :      3.86s CPU      3.88s WALL (    1925 calls)
     cegterg      :    528.09s CPU    539.17s WALL (     925 calls)

     Called by sum_band:
     sum_band:bec :      0.28s CPU      0.29s WALL (     925 calls)
     addusdens    :     27.25s CPU     32.48s WALL (      37 calls)

     Called by *egterg:
     h_psi        :    261.56s CPU    269.08s WALL (    3925 calls)
     s_psi        :     23.90s CPU     24.10s WALL (    3925 calls)
     g_psi        :      0.71s CPU      0.72s WALL (    2975 calls)
     cdiaghg      :    130.50s CPU    131.08s WALL (    3900 calls)

     Called by h_psi:
     h_psi:calbec :     32.26s CPU     33.47s WALL (    3925 calls)
     vloc_psi     :    203.47s CPU    206.35s WALL (    3925 calls)
     add_vuspsi   :     24.59s CPU     26.42s WALL (    3925 calls)

     General routines
     calbec       :     59.71s CPU     61.01s WALL (    4975 calls)
     fft          :      3.32s CPU      3.34s WALL (     517 calls)
     ffts         :     13.70s CPU     13.82s WALL (   17507 calls)
     fftw         :    235.69s CPU    239.06s WALL (  656893 calls)
     interpolate  :      0.27s CPU      0.27s WALL (      38 calls)
 
     Parallel routines
     fft_scatt_xy :     25.05s CPU     25.38s WALL (  674917 calls)
     fft_scatt_yz :    168.03s CPU    170.37s WALL (  674917 calls)
 
     PWSCF        :  12m47.28s CPU  13m11.40s WALL

 
   This run was terminated on:  11:47:48  21May2021            

=------------------------------------------------------------------------------=
   JOB DONE.
=------------------------------------------------------------------------------=
[1621612068.514739] [holy7c08504:118612:0]          mpool.c:43   UCX  WARN  object 0x3465000 was not returned to mpool ucp_requests
[1621612068.514754] [holy7c08504:118612:0]          mpool.c:43   UCX  WARN  object 0x3465380 was not returned to mpool ucp_requests
[1621612068.526745] [holy7c08503:109385:0]          mpool.c:43   UCX  WARN  object 0x46d1900 was not returned to mpool ucp_requests
[1621612068.514857] [holy7c08504:118613:0]          mpool.c:43   UCX  WARN  object 0x341f000 was not returned to mpool ucp_requests
[1621612068.514974] [holy7c08504:118614:0]          mpool.c:43   UCX  WARN  object 0x4066580 was not returned to mpool ucp_requests
[1621612068.527920] [holy7c08503:109389:0]          mpool.c:43   UCX  WARN  object 0x4419cc0 was not returned to mpool ucp_requests
[1621612068.527964] [holy7c08503:109389:0]          mpool.c:43   UCX  WARN  object 0x441a3c0 was not returned to mpool ucp_requests
[1621612068.540393] [holy7c08410:267048:0]          mpool.c:43   UCX  WARN  object 0x394c1c0 was not returned to mpool ucp_requests
[1621612068.540417] [holy7c08410:267048:0]          mpool.c:43   UCX  WARN  object 0x394c8c0 was not returned to mpool ucp_requests
