
     Program PWSCF v.6.5 starts on 21May2021 at 11:35:47 

     This program is part of the open-source Quantum ESPRESSO suite
     for quantum simulation of materials; please cite
         "P. Giannozzi et al., J. Phys.:Condens. Matter 21 395502 (2009);
         "P. Giannozzi et al., J. Phys.:Condens. Matter 29 465901 (2017);
          URL http://www.quantum-espresso.org", 
     in publications or presentations arising from this work. More details at
     http://www.quantum-espresso.org/quote

     Parallel version (MPI), running on    20 processors

     MPI processes distributed on     7 nodes
     R & G space division:  proc/nbgrp/npool/nimage =      20
     Reading input from CBCO_BaO_cleave_3.0_sep.pwi
Warning: card &IONS ignored
Warning: card     ION_DYNAMICS = 'BFGS' ignored
Warning: card / ignored
Warning: card &CELL ignored
Warning: card     CELL_DYNAMICS = 'BFGS' ignored
Warning: card     PRESS_CONV_THR = 5 ignored
Warning: card / ignored

     Current dimensions of program PWSCF are:
     Max number of different atomic species (ntypx) = 10
     Max number of k-points (npk) =  40000
     Max angular momentum in pseudopotentials (lmaxx) =  3

     Subspace diagonalization in iterative solution of the eigenvalue problem:
     one sub-group per band group will be used
     scalapack distributed-memory algorithm (size of sub-group:  4*  4 procs)

     Message from routine setup:
     using ibrav=0 with symmetry is DISCOURAGED, use correct ibrav instead
 
     Parallelization info
     --------------------
     sticks:   dense  smooth     PW     G-vecs:    dense   smooth      PW
     Min         149      50     14                74989    14436    2256
     Max         150      51     15                75028    14461    2303
     Sum        2991    1007    289              1500193   288917   45419
 


     bravais-lattice index     =            0
     lattice parameter (alat)  =       7.4270  a.u.
     unit-cell volume          =    4598.4779 (a.u.)^3
     number of atoms/cell      =           28
     number of atomic types    =            4
     number of electrons       =       227.00
     number of Kohn-Sham states=          137
     kinetic-energy cutoff     =      60.0000  Ry
     charge density cutoff     =     720.0000  Ry
     convergence threshold     =      1.0E-08
     mixing beta               =       0.5000
     number of iterations used =           10  local-TF  mixing
     Exchange-correlation= SLA PW PBE PBE
                           (   1   4   3   4   0   0   0)

     celldm(1)=   7.427040  celldm(2)=   0.000000  celldm(3)=   0.000000
     celldm(4)=   0.000000  celldm(5)=   0.000000  celldm(6)=   0.000000

     crystal axes: (cart. coord. in units of alat)
               a(1) = (   1.000000   0.000000   0.000000 )  
               a(2) = (   0.000000   0.947081   0.000000 )  
               a(3) = (   0.000000   0.000000  11.851673 )  

     reciprocal axes: (cart. coord. in units 2 pi/alat)
               b(1) = (  1.000000  0.000000  0.000000 )  
               b(2) = (  0.000000  1.055876  0.000000 )  
               b(3) = (  0.000000  0.000000  0.084376 )  


     PseudoPot. # 1 for Ba read from file:
     ./pseudo/Ba.pbe-nsp-van.UPF
     MD5 check sum: 2b9c31dd849566dd297d80989662b7a0
     Pseudo is Ultrasoft + core correction, Zval = 10.0
     Generated by new atomic code, or converted to UPF format
     Using radial grid of  907 points,  6 beta functions with: 
                l(1) =   0
                l(2) =   0
                l(3) =   1
                l(4) =   1
                l(5) =   2
                l(6) =   2
     Q(r) pseudized with  6 coefficients,  rinner =    1.200   1.200   1.200
                                                       1.200   1.200

     PseudoPot. # 2 for Ca read from file:
     ./pseudo/Ca.pbe-nsp-van.UPF
     MD5 check sum: 6471098428ff4fa451746d08035ff179
     Pseudo is Ultrasoft + core correction, Zval = 10.0
     Generated by new atomic code, or converted to UPF format
     Using radial grid of  845 points,  6 beta functions with: 
                l(1) =   0
                l(2) =   0
                l(3) =   1
                l(4) =   1
                l(5) =   2
                l(6) =   2
     Q(r) pseudized with  6 coefficients,  rinner =    1.200   1.200   1.200
                                                       1.200   1.200

     PseudoPot. # 3 for Cu read from file:
     ./pseudo/Cu.pbe-n-van_ak.UPF
     MD5 check sum: 34e3282627ffb533726feb647e090d62
     Pseudo is Ultrasoft + core correction, Zval = 11.0
     Generated by new atomic code, or converted to UPF format
     Using radial grid of  867 points,  6 beta functions with: 
                l(1) =   0
                l(2) =   0
                l(3) =   1
                l(4) =   1
                l(5) =   2
                l(6) =   2
     Q(r) pseudized with  8 coefficients,  rinner =    1.400   1.400   1.400
                                                       1.400   1.400

     PseudoPot. # 4 for O  read from file:
     ./pseudo/O.pbe-van_ak.UPF
     MD5 check sum: 783ce7fe4c79b6a4916957118fed0856
     Pseudo is Ultrasoft, Zval =  6.0
     Generated by new atomic code, or converted to UPF format
     Using radial grid of  737 points,  4 beta functions with: 
                l(1) =   0
                l(2) =   0
                l(3) =   1
                l(4) =   1
     Q(r) pseudized with  8 coefficients,  rinner =    0.800   0.800   0.800


     atomic species   valence    mass     pseudopotential
        Ba            10.00   137.32700     Ba( 1.00)
        Ca            10.00    40.07800     Ca( 1.00)
        Cu            11.00    63.54600     Cu( 1.00)
        O              6.00    15.99900     O ( 1.00)

      4 Sym. Ops. (no inversion) found



   Cartesian axes

     site n.     atom                  positions (alat units)
         1           O   tau(   1) = (   0.0000000   0.4735409  -0.0469745  )
         2           Cu  tau(   2) = (   0.0000000   0.0000000   0.0264565  )
         3           O   tau(   3) = (   0.0000000   0.0000000   0.5030914  )
         4           Ba  tau(   4) = (   0.5000000   0.4735409   0.5690292  )
         5           Cu  tau(   5) = (   0.0000000   0.0000000   1.0374254  )
         6           O   tau(   6) = (   0.5000000   0.0000000   1.0768099  )
         7           O   tau(   7) = (   0.0000000   0.4735409   1.1116985  )
         8           Ca  tau(   8) = (   0.5000000   0.4735409   1.4976260  )
         9           O   tau(   9) = (   0.0000000   0.4735409   1.8667529  )
        10           O   tau(  10) = (   0.5000000   0.0000000   1.9044124  )
        11           Cu  tau(  11) = (   0.0000000   0.0000000   1.9512546  )
        12           Ba  tau(  12) = (   0.5000000   0.4735409   2.4295764  )
        13           O   tau(  13) = (   0.0000000   0.0000000   2.5115362  )
        14           O   tau(  14) = (   0.0000000   0.4735409   2.9918528  )
        15           Cu  tau(  15) = (   0.0000000   0.0000000   2.9919088  )
        16           O   tau(  16) = (   0.0000000   0.0000000   3.4722686  )
        17           Ba  tau(  17) = (   0.5000000   0.4735409   3.5542208  )
        18           Cu  tau(  18) = (   0.0000000   0.0000000   4.7958408  )
        19           O   tau(  19) = (   0.5000000   0.0000000   4.8426830  )
        20           O   tau(  20) = (   0.0000000   0.4735409   4.8803373  )
        21           Ca  tau(  21) = (   0.5000000   0.4735409   5.2494744  )
        22           O   tau(  22) = (   0.0000000   0.4735409   5.6353994  )
        23           O   tau(  23) = (   0.5000000   0.0000000   5.6702880  )
        24           Cu  tau(  24) = (   0.0000000   0.0000000   5.7096751  )
        25           Ba  tau(  25) = (   0.5000000   0.4735409   6.1780687  )
        26           O   tau(  26) = (   0.0000000   0.0000000   6.2439963  )
        27           Cu  tau(  27) = (   0.0000000   0.0000000   6.7206363  )
        28           O   tau(  28) = (   0.0000000   0.4735409   6.7940546  )

     number of k points=    25  Gaussian smearing, width (Ry)=  0.0100
                       cart. coord. in units 2pi/alat
        k(    1) = (   0.0000000   0.0000000   0.0000000), wk =   0.0312500
        k(    2) = (   0.0000000   0.1319845   0.0000000), wk =   0.0625000
        k(    3) = (   0.0000000   0.2639689   0.0000000), wk =   0.0625000
        k(    4) = (   0.0000000   0.3959534   0.0000000), wk =   0.0625000
        k(    5) = (   0.0000000  -0.5279378   0.0000000), wk =   0.0312500
        k(    6) = (   0.1250000   0.0000000   0.0000000), wk =   0.0625000
        k(    7) = (   0.1250000   0.1319845   0.0000000), wk =   0.1250000
        k(    8) = (   0.1250000   0.2639689   0.0000000), wk =   0.1250000
        k(    9) = (   0.1250000   0.3959534   0.0000000), wk =   0.1250000
        k(   10) = (   0.1250000  -0.5279378   0.0000000), wk =   0.0625000
        k(   11) = (   0.2500000   0.0000000   0.0000000), wk =   0.0625000
        k(   12) = (   0.2500000   0.1319845   0.0000000), wk =   0.1250000
        k(   13) = (   0.2500000   0.2639689   0.0000000), wk =   0.1250000
        k(   14) = (   0.2500000   0.3959534   0.0000000), wk =   0.1250000
        k(   15) = (   0.2500000  -0.5279378   0.0000000), wk =   0.0625000
        k(   16) = (   0.3750000   0.0000000   0.0000000), wk =   0.0625000
        k(   17) = (   0.3750000   0.1319845   0.0000000), wk =   0.1250000
        k(   18) = (   0.3750000   0.2639689   0.0000000), wk =   0.1250000
        k(   19) = (   0.3750000   0.3959534   0.0000000), wk =   0.1250000
        k(   20) = (   0.3750000  -0.5279378   0.0000000), wk =   0.0625000
        k(   21) = (  -0.5000000   0.0000000   0.0000000), wk =   0.0312500
        k(   22) = (  -0.5000000   0.1319845   0.0000000), wk =   0.0625000
        k(   23) = (  -0.5000000   0.2639689   0.0000000), wk =   0.0625000
        k(   24) = (  -0.5000000   0.3959534   0.0000000), wk =   0.0625000
        k(   25) = (  -0.5000000  -0.5279378   0.0000000), wk =   0.0312500

     Dense  grid:  1500193 G-vectors     FFT dimensions: (  64,  64, 768)

     Smooth grid:   288917 G-vectors     FFT dimensions: (  40,  36, 450)

     Estimated max dynamical RAM per process >     478.58 MB

     Estimated total dynamical RAM >       9.35 GB

     Initial potential from superposition of free atoms

     starting charge  226.84630, renormalised to  227.00000

     negative rho (up, down):  3.419E-03 0.000E+00
     Starting wfcs are  195 randomized atomic wfcs

     total cpu time spent up to now is       11.6 secs

     Self-consistent Calculation

     iteration #  1     ecut=    60.00 Ry     beta= 0.50
     Davidson diagonalization with overlap
     ethr =  1.00E-02,  avg # of iterations =  2.0

     negative rho (up, down):  4.999E-04 0.000E+00

     total cpu time spent up to now is       29.4 secs

     total energy              =   -1840.77745951 Ry
     Harris-Foulkes estimate   =   -1845.41482589 Ry
     estimated scf accuracy    <      20.09977905 Ry

     iteration #  2     ecut=    60.00 Ry     beta= 0.50
     Davidson diagonalization with overlap
     ethr =  8.85E-03,  avg # of iterations =  2.0

     negative rho (up, down):  2.732E-04 0.000E+00

     total cpu time spent up to now is       46.9 secs

     total energy              =   -1842.51027591 Ry
     Harris-Foulkes estimate   =   -1843.37085487 Ry
     estimated scf accuracy    <       5.07524217 Ry

     iteration #  3     ecut=    60.00 Ry     beta= 0.50
     Davidson diagonalization with overlap
     ethr =  2.24E-03,  avg # of iterations =  2.0

     negative rho (up, down):  2.561E-04 0.000E+00

     total cpu time spent up to now is       63.9 secs

     total energy              =   -1842.86219818 Ry
     Harris-Foulkes estimate   =   -1843.00841076 Ry
     estimated scf accuracy    <       4.47923288 Ry

     iteration #  4     ecut=    60.00 Ry     beta= 0.50
     Davidson diagonalization with overlap
     ethr =  1.97E-03,  avg # of iterations =  1.0

     negative rho (up, down):  2.471E-04 0.000E+00

     total cpu time spent up to now is       80.2 secs

     total energy              =   -1842.85895694 Ry
     Harris-Foulkes estimate   =   -1842.93748080 Ry
     estimated scf accuracy    <       1.61250109 Ry

     iteration #  5     ecut=    60.00 Ry     beta= 0.50
     Davidson diagonalization with overlap
     ethr =  7.10E-04,  avg # of iterations =  1.6

     negative rho (up, down):  2.404E-04 0.000E+00

     total cpu time spent up to now is       96.2 secs

     total energy              =   -1842.83793390 Ry
     Harris-Foulkes estimate   =   -1842.90963385 Ry
     estimated scf accuracy    <       2.88453528 Ry

     iteration #  6     ecut=    60.00 Ry     beta= 0.50
     Davidson diagonalization with overlap
     ethr =  7.10E-04,  avg # of iterations =  1.4

     negative rho (up, down):  2.351E-04 0.000E+00

     total cpu time spent up to now is      113.4 secs

     total energy              =   -1842.82167568 Ry
     Harris-Foulkes estimate   =   -1842.86242829 Ry
     estimated scf accuracy    <       1.09339045 Ry

     iteration #  7     ecut=    60.00 Ry     beta= 0.50
     Davidson diagonalization with overlap
     ethr =  4.82E-04,  avg # of iterations =  3.5

     negative rho (up, down):  2.332E-04 0.000E+00

     total cpu time spent up to now is      132.7 secs

     total energy              =   -1842.82097399 Ry
     Harris-Foulkes estimate   =   -1842.83584055 Ry
     estimated scf accuracy    <       0.55375580 Ry

     iteration #  8     ecut=    60.00 Ry     beta= 0.50
     Davidson diagonalization with overlap
     ethr =  2.44E-04,  avg # of iterations =  5.3

     negative rho (up, down):  2.336E-04 0.000E+00

     total cpu time spent up to now is      154.5 secs

     total energy              =   -1842.81703455 Ry
     Harris-Foulkes estimate   =   -1842.82794879 Ry
     estimated scf accuracy    <       0.27235267 Ry

     iteration #  9     ecut=    60.00 Ry     beta= 0.50
     Davidson diagonalization with overlap
     ethr =  1.20E-04,  avg # of iterations =  5.3

     negative rho (up, down):  2.360E-04 0.000E+00

     total cpu time spent up to now is      175.4 secs

     total energy              =   -1842.81147799 Ry
     Harris-Foulkes estimate   =   -1842.82083922 Ry
     estimated scf accuracy    <       0.20397796 Ry

     iteration # 10     ecut=    60.00 Ry     beta= 0.50
     Davidson diagonalization with overlap
     ethr =  8.99E-05,  avg # of iterations =  5.1

     negative rho (up, down):  2.375E-04 0.000E+00

     total cpu time spent up to now is      196.2 secs

     total energy              =   -1842.80966898 Ry
     Harris-Foulkes estimate   =   -1842.81399956 Ry
     estimated scf accuracy    <       0.06082279 Ry

     iteration # 11     ecut=    60.00 Ry     beta= 0.50
     Davidson diagonalization with overlap
     c_bands:  1 eigenvalues not converged
     ethr =  2.68E-05,  avg # of iterations =  9.5

     negative rho (up, down):  2.419E-04 0.000E+00

     total cpu time spent up to now is      223.1 secs

     total energy              =   -1842.80880867 Ry
     Harris-Foulkes estimate   =   -1842.81124410 Ry
     estimated scf accuracy    <       0.02654788 Ry

     iteration # 12     ecut=    60.00 Ry     beta= 0.50
     Davidson diagonalization with overlap
     ethr =  1.17E-05,  avg # of iterations =  7.2

     negative rho (up, down):  2.396E-04 0.000E+00

     total cpu time spent up to now is      247.2 secs

     total energy              =   -1842.80871896 Ry
     Harris-Foulkes estimate   =   -1842.80965501 Ry
     estimated scf accuracy    <       0.01356298 Ry

     iteration # 13     ecut=    60.00 Ry     beta= 0.50
     Davidson diagonalization with overlap
     ethr =  5.97E-06,  avg # of iterations =  4.5

     negative rho (up, down):  4.368E-04 0.000E+00

     total cpu time spent up to now is      266.9 secs

     total energy              =   -1842.80775820 Ry
     Harris-Foulkes estimate   =   -1842.80891418 Ry
     estimated scf accuracy    <       0.01660266 Ry

     iteration # 14     ecut=    60.00 Ry     beta= 0.50
     Davidson diagonalization with overlap
     ethr =  5.97E-06,  avg # of iterations =  6.1

     negative rho (up, down):  7.936E-04 0.000E+00

     total cpu time spent up to now is      288.6 secs

     total energy              =   -1842.80746680 Ry
     Harris-Foulkes estimate   =   -1842.80802803 Ry
     estimated scf accuracy    <       0.03118834 Ry

     iteration # 15     ecut=    60.00 Ry     beta= 0.50
     Davidson diagonalization with overlap
     ethr =  5.97E-06,  avg # of iterations =  2.4

     negative rho (up, down):  2.362E-04 0.000E+00

     total cpu time spent up to now is      306.1 secs

     total energy              =   -1842.80749808 Ry
     Harris-Foulkes estimate   =   -1842.80756286 Ry
     estimated scf accuracy    <       0.03308972 Ry

     iteration # 16     ecut=    60.00 Ry     beta= 0.50
     Davidson diagonalization with overlap
     ethr =  5.97E-06,  avg # of iterations =  3.6

     negative rho (up, down):  2.383E-04 0.000E+00

     total cpu time spent up to now is      325.2 secs

     total energy              =   -1842.80645729 Ry
     Harris-Foulkes estimate   =   -1842.80761696 Ry
     estimated scf accuracy    <       0.02135533 Ry

     iteration # 17     ecut=    60.00 Ry     beta= 0.50
     Davidson diagonalization with overlap
     ethr =  5.97E-06,  avg # of iterations =  4.2

     negative rho (up, down):  6.229E-04 0.000E+00

     total cpu time spent up to now is      345.6 secs

     total energy              =   -1842.80530200 Ry
     Harris-Foulkes estimate   =   -1842.80659917 Ry
     estimated scf accuracy    <       0.01731225 Ry

     iteration # 18     ecut=    60.00 Ry     beta= 0.50
     Davidson diagonalization with overlap
     ethr =  5.97E-06,  avg # of iterations =  5.5

     negative rho (up, down):  6.262E-04 0.000E+00

     total cpu time spent up to now is      366.9 secs

     total energy              =   -1842.80488046 Ry
     Harris-Foulkes estimate   =   -1842.80541979 Ry
     estimated scf accuracy    <       0.00944297 Ry

     iteration # 19     ecut=    60.00 Ry     beta= 0.50
     Davidson diagonalization with overlap
     ethr =  4.16E-06,  avg # of iterations =  4.8

     negative rho (up, down):  8.371E-04 0.000E+00

     total cpu time spent up to now is      388.1 secs

     total energy              =   -1842.80450509 Ry
     Harris-Foulkes estimate   =   -1842.80493070 Ry
     estimated scf accuracy    <       0.00549353 Ry

     iteration # 20     ecut=    60.00 Ry     beta= 0.50
     Davidson diagonalization with overlap
     c_bands:  1 eigenvalues not converged
     ethr =  2.42E-06,  avg # of iterations =  8.9

     negative rho (up, down):  2.599E-04 0.000E+00

     total cpu time spent up to now is      414.2 secs

     total energy              =   -1842.80440561 Ry
     Harris-Foulkes estimate   =   -1842.80456782 Ry
     estimated scf accuracy    <       0.00289426 Ry

     iteration # 21     ecut=    60.00 Ry     beta= 0.50
     Davidson diagonalization with overlap
     c_bands:  1 eigenvalues not converged
     c_bands:  1 eigenvalues not converged
     ethr =  1.28E-06,  avg # of iterations =  8.0

     negative rho (up, down):  3.346E-04 0.000E+00

     total cpu time spent up to now is      439.1 secs

     total energy              =   -1842.80442674 Ry
     Harris-Foulkes estimate   =   -1842.80447918 Ry
     estimated scf accuracy    <       0.00138039 Ry

     iteration # 22     ecut=    60.00 Ry     beta= 0.50
     Davidson diagonalization with overlap
     ethr =  6.08E-07,  avg # of iterations =  3.5

     negative rho (up, down):  8.881E-04 0.000E+00

     total cpu time spent up to now is      458.2 secs

     total energy              =   -1842.80441899 Ry
     Harris-Foulkes estimate   =   -1842.80445315 Ry
     estimated scf accuracy    <       0.00090561 Ry

     iteration # 23     ecut=    60.00 Ry     beta= 0.50
     Davidson diagonalization with overlap
     c_bands:  1 eigenvalues not converged
     ethr =  3.99E-07,  avg # of iterations =  3.9

     negative rho (up, down):  1.876E-03 0.000E+00

     total cpu time spent up to now is      477.3 secs

     total energy              =   -1842.80443624 Ry
     Harris-Foulkes estimate   =   -1842.80443916 Ry
     estimated scf accuracy    <       0.00037920 Ry

     iteration # 24     ecut=    60.00 Ry     beta= 0.50
     Davidson diagonalization with overlap
     ethr =  1.67E-07,  avg # of iterations =  5.3

     negative rho (up, down):  1.604E-03 0.000E+00

     total cpu time spent up to now is      499.0 secs

     total energy              =   -1842.80444424 Ry
     Harris-Foulkes estimate   =   -1842.80444904 Ry
     estimated scf accuracy    <       0.00013557 Ry

     iteration # 25     ecut=    60.00 Ry     beta= 0.50
     Davidson diagonalization with overlap
     ethr =  5.97E-08,  avg # of iterations =  3.0

     negative rho (up, down):  1.269E-03 0.000E+00

     total cpu time spent up to now is      516.8 secs

     total energy              =   -1842.80444640 Ry
     Harris-Foulkes estimate   =   -1842.80444843 Ry
     estimated scf accuracy    <       0.00004623 Ry

     iteration # 26     ecut=    60.00 Ry     beta= 0.50
     Davidson diagonalization with overlap
     c_bands:  1 eigenvalues not converged
     ethr =  2.04E-08,  avg # of iterations =  5.0

     negative rho (up, down):  1.548E-03 0.000E+00

     total cpu time spent up to now is      538.0 secs

     total energy              =   -1842.80444780 Ry
     Harris-Foulkes estimate   =   -1842.80444892 Ry
     estimated scf accuracy    <       0.00001990 Ry

     iteration # 27     ecut=    60.00 Ry     beta= 0.50
     Davidson diagonalization with overlap
     ethr =  8.76E-09,  avg # of iterations =  1.9

     negative rho (up, down):  1.516E-03 0.000E+00

     total cpu time spent up to now is      554.9 secs

     total energy              =   -1842.80444791 Ry
     Harris-Foulkes estimate   =   -1842.80444844 Ry
     estimated scf accuracy    <       0.00000484 Ry

     iteration # 28     ecut=    60.00 Ry     beta= 0.50
     Davidson diagonalization with overlap
     ethr =  2.13E-09,  avg # of iterations =  2.2

     negative rho (up, down):  1.571E-03 0.000E+00

     total cpu time spent up to now is      572.0 secs

     total energy              =   -1842.80444789 Ry
     Harris-Foulkes estimate   =   -1842.80444813 Ry
     estimated scf accuracy    <       0.00000287 Ry

     iteration # 29     ecut=    60.00 Ry     beta= 0.50
     Davidson diagonalization with overlap
     ethr =  1.27E-09,  avg # of iterations =  1.3

     negative rho (up, down):  1.541E-03 0.000E+00

     total cpu time spent up to now is      588.2 secs

     total energy              =   -1842.80444793 Ry
     Harris-Foulkes estimate   =   -1842.80444801 Ry
     estimated scf accuracy    <       0.00000072 Ry

     iteration # 30     ecut=    60.00 Ry     beta= 0.50
     Davidson diagonalization with overlap
     ethr =  3.18E-10,  avg # of iterations =  3.0

     negative rho (up, down):  1.482E-03 0.000E+00

     total cpu time spent up to now is      607.1 secs

     total energy              =   -1842.80444805 Ry
     Harris-Foulkes estimate   =   -1842.80444801 Ry
     estimated scf accuracy    <       0.00000019 Ry

     iteration # 31     ecut=    60.00 Ry     beta= 0.50
     Davidson diagonalization with overlap
     ethr =  8.33E-11,  avg # of iterations =  2.8

     negative rho (up, down):  1.480E-03 0.000E+00

     total cpu time spent up to now is      625.2 secs

     total energy              =   -1842.80444807 Ry
     Harris-Foulkes estimate   =   -1842.80444807 Ry
     estimated scf accuracy    <       0.00000009 Ry

     iteration # 32     ecut=    60.00 Ry     beta= 0.50
     Davidson diagonalization with overlap
     ethr =  4.15E-11,  avg # of iterations =  1.0

     negative rho (up, down):  1.474E-03 0.000E+00

     total cpu time spent up to now is      641.5 secs

     total energy              =   -1842.80444808 Ry
     Harris-Foulkes estimate   =   -1842.80444808 Ry
     estimated scf accuracy    <       0.00000005 Ry

     iteration # 33     ecut=    60.00 Ry     beta= 0.50
     Davidson diagonalization with overlap
     ethr =  2.33E-11,  avg # of iterations =  1.0

     negative rho (up, down):  1.479E-03 0.000E+00

     total cpu time spent up to now is      657.8 secs

     total energy              =   -1842.80444807 Ry
     Harris-Foulkes estimate   =   -1842.80444808 Ry
     estimated scf accuracy    <       0.00000002 Ry

     iteration # 34     ecut=    60.00 Ry     beta= 0.50
     Davidson diagonalization with overlap
     ethr =  9.64E-12,  avg # of iterations =  1.7

     negative rho (up, down):  1.481E-03 0.000E+00

     total cpu time spent up to now is      674.2 secs

     total energy              =   -1842.80444807 Ry
     Harris-Foulkes estimate   =   -1842.80444807 Ry
     estimated scf accuracy    <       0.00000001 Ry

     iteration # 35     ecut=    60.00 Ry     beta= 0.50
     Davidson diagonalization with overlap
     ethr =  5.99E-12,  avg # of iterations =  1.1

     negative rho (up, down):  1.477E-03 0.000E+00

     total cpu time spent up to now is      689.3 secs

     End of self-consistent calculation

          k = 0.0000 0.0000 0.0000 ( 36187 PWs)   bands (ev):

   -35.8384 -35.6380 -24.6665 -23.0290 -23.0262 -22.8502 -17.3422 -17.1187
   -16.8895 -16.8781 -16.7044 -16.6842 -15.5507 -15.4028 -15.3157 -14.9106
   -14.9011 -14.8229 -14.5623 -14.4187 -14.4119 -14.2412 -14.2241 -14.1902
   -14.0795 -14.0074 -13.6871  -9.9379  -9.4928  -9.4190  -8.1610  -8.1556
    -8.1226  -8.1207  -8.0378  -7.9298  -7.9270  -7.8937  -7.7271  -2.5687
    -2.5667  -2.4760  -2.0689  -2.0599  -2.0227  -1.9138  -1.8666  -1.7931
    -1.7554  -1.7346  -1.6346  -1.5166  -1.4598  -1.4574  -1.4440  -1.2454
    -1.1183  -1.0718  -0.6975  -0.6956  -0.6184  -0.6159  -0.6135  -0.5649
    -0.5313  -0.5054  -0.5036  -0.5016  -0.4960  -0.4822  -0.4009  -0.3727
    -0.3456  -0.3263  -0.2758  -0.2743  -0.1455  -0.1405  -0.1394  -0.1381
    -0.1339  -0.0980  -0.0674  -0.0298   0.0449   0.0783   0.1738   0.2006
     0.4347   0.4427   0.4777   0.6439   0.6446   0.6960   0.7428   0.8518
     0.9381   0.9955   1.0982   1.1430   1.1439   1.1681   1.1910   1.2018
     1.3053   1.3065   1.3603   1.5549   1.5749   1.7445   1.7684   1.7858
     1.7986   1.8202   1.9308   1.9442   1.9604   2.2895   2.2957   4.0786
     4.7944   4.9788   4.9937   5.7065   6.0184   6.3396   6.5232   6.5439
     6.9600   7.2174   7.7385   7.8786   7.9650   8.1199   8.2477   8.2564
     8.3604

          k = 0.0000 0.1320 0.0000 ( 36125 PWs)   bands (ev):

   -35.8366 -35.6361 -24.6456 -23.0023 -22.9995 -22.8248 -17.3061 -17.0823
   -16.9506 -16.8872 -16.7561 -16.7021 -15.4616 -15.3242 -15.2628 -14.9164
   -14.8998 -14.7953 -14.5340 -14.4283 -14.4159 -14.3022 -14.2292 -14.2062
   -14.1324 -14.0547 -13.7100  -9.9272  -9.4595  -9.4566  -8.1603  -8.1556
    -8.0748  -8.0729  -8.0360  -7.9715  -7.9688  -7.8486  -7.7754  -2.6261
    -2.6247  -2.5175  -2.4025  -2.3865  -2.3008  -2.1029  -2.0827  -1.8929
    -1.8832  -1.8818  -1.8498  -1.7759  -1.6338  -1.4948  -1.4721  -1.4304
    -1.1236  -1.0264  -0.9236  -0.8666  -0.8520  -0.7948  -0.7930  -0.6996
    -0.6987  -0.5920  -0.5540  -0.4293  -0.4105  -0.3901  -0.3871  -0.3850
    -0.3847  -0.2632  -0.2546  -0.2529  -0.2354  -0.1675  -0.1276  -0.1160
    -0.1152  -0.0814   0.0270   0.0361   0.1172   0.1205   0.1912   0.2418
     0.2781   0.5920   0.6098   0.7629   0.8348   0.8418   0.8445   0.8497
     0.8869   0.9105   0.9280   0.9739   1.1715   1.2010   1.2323   1.2803
     1.3327   1.3427   1.4768   1.5365   1.5497   1.5788   1.6802   1.7548
     1.7665   1.8000   2.0080   2.1098   2.4223   2.5769   2.5869   4.3240
     5.1086   5.3555   5.3585   5.9935   6.3053   6.5298   6.8281   6.8417
     7.2041   7.4208   7.8438   7.9114   8.0621   8.2001   8.2606   8.3817
     8.4280

          k = 0.0000 0.2640 0.0000 ( 36041 PWs)   bands (ev):

   -35.8321 -35.6317 -24.5945 -22.9364 -22.9336 -22.7620 -17.2141 -17.1047
   -16.9905 -16.9087 -16.8815 -16.6964 -15.2593 -15.1682 -15.1254 -14.9671
   -14.9165 -14.7347 -14.4765 -14.4605 -14.4165 -14.3797 -14.2840 -14.2665
   -14.2448 -14.1210 -13.7673  -9.8949  -9.5504  -9.3667  -8.1596  -8.1557
    -8.0625  -8.0593  -8.0308  -7.9544  -7.9524  -7.8800  -7.7354  -3.1228
    -3.0639  -3.0560  -2.8754  -2.6699  -2.6656  -2.6230  -2.5204  -2.5180
    -2.4640  -2.0474  -1.8379  -1.8026  -1.7215  -1.7162  -1.6939  -1.3890
    -1.3406  -1.2477  -1.2350  -1.1465  -1.0446  -1.0444  -0.9784  -0.8928
    -0.8785  -0.7916  -0.7731  -0.7372  -0.7346  -0.6858  -0.5896  -0.5852
    -0.5013  -0.3873  -0.2626  -0.2264  -0.2245  -0.1466  -0.1254  -0.0340
     0.0255   0.1225   0.2068   0.2520   0.3099   0.3669   0.4547   0.4589
     0.4893   0.5307   0.7214   0.7712   0.8281   0.8848   0.9000   0.9264
     0.9272   0.9753   1.0258   1.0613   1.0686   1.1087   1.2803   1.2887
     1.4590   1.4855   1.4873   1.6001   1.6611   1.7343   1.7362   1.7570
     1.7992   1.8786   2.1459   2.2039   2.7992   2.8029   3.2535   4.8408
     5.9632   6.2485   6.2494   6.3033   7.0552   7.0941   7.5348   7.6495
     7.6607   7.8425   8.2133   8.3729   8.4100   8.5238   8.6188   8.6740
     8.7337

          k = 0.0000 0.3960 0.0000 ( 35976 PWs)   bands (ev):

   -35.8277 -35.6273 -24.5421 -22.8682 -22.8655 -22.6973 -17.2410 -17.1124
   -17.0456 -16.8870 -16.8759 -16.6907 -15.1726 -15.1617 -14.9620 -14.9330
   -14.8234 -14.7093 -14.6323 -14.4534 -14.4336 -14.3556 -14.3382 -14.3356
   -14.2098 -14.1742 -13.8496  -9.8437  -9.6446  -9.2730  -8.1596  -8.1557
    -8.1406  -8.1374  -8.0254  -7.9711  -7.8259  -7.8239  -7.6154  -3.8466
    -3.5282  -3.5186  -3.3145  -3.2364  -3.2329  -3.0686  -2.6110  -2.6086
    -2.4915  -2.4009  -2.0491  -2.0411  -1.7746  -1.7391  -1.6615  -1.5541
    -1.4573  -1.4179  -1.3470  -1.3382  -1.3136  -1.2957  -1.1145  -1.0908
    -1.0633  -0.9915  -0.9836  -0.9595  -0.9549  -0.8831  -0.7487  -0.6065
    -0.5040  -0.4938  -0.4834  -0.2093  -0.2077  -0.1122  -0.1119  -0.0872
     0.0159   0.1305   0.1667   0.2469   0.3432   0.3567   0.5295   0.6845
     0.6872   0.6990   0.7217   0.7942   0.8340   0.8968   0.8984   0.9032
     0.9723   0.9980   1.1167   1.1285   1.3774   1.3891   1.4750   1.4956
     1.5359   1.5942   1.6733   1.6869   1.7233   1.7395   1.9062   1.9575
     2.1013   2.1291   2.1306   2.1328   2.6936   2.6965   3.8011   5.3631
     6.1101   6.9950   7.1963   7.1972   7.6618   7.8978   8.0514   8.2258
     8.4409   8.4576   8.6144   8.7869   8.8394   8.8843   8.8978   9.0103
     9.1280

          k = 0.0000-0.5279 0.0000 ( 36018 PWs)   bands (ev):

   -35.8259 -35.6255 -24.5200 -22.8393 -22.8365 -22.6698 -17.2931 -17.0973
   -17.0675 -16.8735 -16.8422 -16.6884 -15.2145 -15.2065 -14.8683 -14.8190
   -14.7388 -14.7236 -14.7208 -14.4946 -14.4789 -14.3809 -14.3170 -14.3107
   -14.2112 -14.1378 -13.9132  -9.8035  -9.6987  -9.2330  -8.1703  -8.1670
    -8.1593  -8.1553  -8.0174  -8.0112  -7.7700  -7.7679  -7.5633  -4.1139
    -3.7062  -3.6985  -3.4864  -3.4669  -3.4587  -3.2381  -2.6271  -2.6248
    -2.5311  -2.5007  -2.1790  -2.1733  -1.7560  -1.7031  -1.6933  -1.5512
    -1.5097  -1.4948  -1.4379  -1.4360  -1.4330  -1.2617  -1.2407  -1.2094
    -1.1598  -1.0762  -1.0744  -1.0377  -0.9684  -0.9426  -0.8193  -0.6064
    -0.5877  -0.4891  -0.4720  -0.2036  -0.2020  -0.1257  -0.1006  -0.0731
    -0.0061   0.0156   0.1382   0.1709   0.3093   0.3725   0.5663   0.5935
     0.6099   0.7625   0.7714   0.8799   0.8814   0.9010   0.9093   0.9116
     1.0832   1.0903   1.1280   1.1830   1.4918   1.4920   1.5040   1.5577
     1.7448   1.7712   1.7843   1.7952   1.8172   1.8690   1.8947   1.9903
     1.9919   2.0364   2.2905   2.2921   2.5160   2.5167   3.9803   5.5457
     6.1794   7.2584   7.5686   7.6087   7.6109   8.2203   8.6045   8.6985
     8.7554   8.7716   8.7843   8.7913   8.7939   8.9251   9.0754   9.0951
     9.1695

          k = 0.1250 0.0000 0.0000 ( 36127 PWs)   bands (ev):

   -35.8373 -35.6369 -24.6531 -23.0109 -23.0082 -22.8330 -17.3088 -17.0845
   -16.9696 -16.8767 -16.7862 -16.6828 -15.4485 -15.3373 -15.3118 -14.9565
   -14.9398 -14.8278 -14.5644 -14.4277 -14.4219 -14.2994 -14.2357 -14.2027
   -14.0995 -14.0432 -13.6958  -9.9611  -9.4373  -9.3957  -8.1866  -8.1820
    -8.0724  -8.0600  -8.0585  -7.8973  -7.8946  -7.8341  -7.6967  -2.6107
    -2.6095  -2.4973  -2.1123  -2.0967  -2.0635  -2.0475  -2.0354  -1.9929
    -1.7338  -1.7232  -1.7044  -1.5911  -1.5362  -1.4578  -1.4554  -1.2737
    -1.2140  -1.0848  -0.8755  -0.8495  -0.7540  -0.7513  -0.6502  -0.6344
    -0.5795  -0.5765  -0.5724  -0.5127  -0.4985  -0.4924  -0.4380  -0.4300
    -0.4277  -0.3926  -0.3084  -0.1717  -0.1477  -0.1453  -0.1401  -0.1294
    -0.0430  -0.0416  -0.0217  -0.0179   0.0466   0.1136   0.1745   0.2770
     0.5133   0.5237   0.5504   0.5629   0.6152   0.7074   0.7307   0.8052
     0.9405   0.9658   0.9791   1.0959   1.1562   1.1658   1.2151   1.2401
     1.2898   1.3160   1.4723   1.4854   1.6577   1.6832   1.7391   1.7492
     1.8439   1.8803   1.9690   1.9776   2.1300   2.3303   2.3319   4.2656
     4.9877   5.1594   5.1656   5.9296   6.2364   6.4848   6.7376   6.7552
     7.1346   7.4938   7.8820   8.0083   8.0416   8.1639   8.3089   8.3527
     8.3976

          k = 0.1250 0.1320 0.0000 ( 36104 PWs)   bands (ev):

   -35.8355 -35.6351 -24.6327 -22.9850 -22.9823 -22.8083 -17.2737 -17.0491
   -16.9726 -16.9398 -16.7871 -16.7475 -15.3665 -15.2822 -15.2435 -14.9514
   -14.9274 -14.7980 -14.5279 -14.4287 -14.4205 -14.3415 -14.2402 -14.2203
   -14.1461 -14.0840 -13.7158  -9.9392  -9.5917  -9.3031  -8.2054  -8.2023
    -8.1236  -8.1198  -8.0664  -7.9286  -7.8594  -7.8569  -7.6565  -2.6632
    -2.6603  -2.5336  -2.3885  -2.3702  -2.2797  -2.1113  -2.0912  -2.0831
    -2.0604  -2.0345  -1.8771  -1.8759  -1.6977  -1.6539  -1.5139  -1.4736
    -1.1988  -1.0633  -0.9981  -0.9969  -0.9401  -0.9050  -0.9036  -0.7985
    -0.7401  -0.7400  -0.5987  -0.5239  -0.4932  -0.4626  -0.4401  -0.4206
    -0.3784  -0.2773  -0.2730  -0.2360  -0.2122  -0.1045  -0.0850  -0.0720
    -0.0355  -0.0342   0.0412   0.0462   0.0831   0.1428   0.1558   0.2796
     0.4503   0.6032   0.7210   0.7677   0.7958   0.8014   0.8589   0.9569
     0.9633   1.0065   1.0078   1.0250   1.0548   1.0654   1.1159   1.2963
     1.3417   1.3555   1.4220   1.4240   1.5367   1.5701   1.6473   1.7062
     2.1019   2.1197   2.2486   2.4353   2.4590   2.5884   2.5921   4.4704
     5.2826   5.4980   5.4990   6.1403   6.4726   6.6509   7.0340   7.0450
     7.3717   7.5046   7.8506   8.0527   8.1626   8.1880   8.3547   8.5350
     8.5981

          k = 0.1250 0.2640 0.0000 ( 36031 PWs)   bands (ev):

   -35.8311 -35.6306 -24.5828 -22.9212 -22.9185 -22.7474 -17.1847 -17.1016
   -16.9606 -16.9523 -16.9053 -16.7687 -15.1881 -15.1368 -15.1234 -14.9551
   -14.8909 -14.7299 -14.4587 -14.4533 -14.4114 -14.3801 -14.2947 -14.2672
   -14.2669 -14.1350 -13.7643  -9.8928  -9.7314  -9.2899  -8.2743  -8.2717
    -8.1604  -8.1565  -8.0740  -8.0323  -7.8502  -7.8478  -7.6514  -3.1185
    -3.0791  -3.0760  -2.8870  -2.6710  -2.6661  -2.6248  -2.5197  -2.5175
    -2.4699  -2.0757  -2.0376  -2.0297  -1.9504  -1.7271  -1.7133  -1.6393
    -1.3890  -1.2786  -1.2260  -1.2223  -1.1978  -1.1446  -1.1051  -0.9690
    -0.9317  -0.9303  -0.8935  -0.8233  -0.7719  -0.7441  -0.6742  -0.5811
    -0.4589  -0.4249  -0.4155  -0.2916  -0.2345  -0.0583  -0.0577  -0.0018
     0.0757   0.1328   0.1768   0.2443   0.3553   0.5011   0.5103   0.5437
     0.7062   0.7333   0.7806   0.7832   0.8542   0.9392   0.9991   1.0111
     1.0467   1.0733   1.0984   1.1306   1.1408   1.1608   1.1737   1.2849
     1.3568   1.3911   1.4878   1.5772   1.6945   1.7022   1.7366   1.8076
     2.2991   2.3137   2.4907   2.6523   2.8083   2.8243   3.2548   4.9523
     6.0180   6.2781   6.3096   6.3104   7.1365   7.2083   7.5126   7.7979
     7.8174   7.8220   8.1697   8.3991   8.5413   8.6041   8.6613   8.7612
     8.8694

          k = 0.1250 0.3960 0.0000 ( 36022 PWs)   bands (ev):

   -35.8267 -35.6262 -24.5317 -22.8553 -22.8525 -22.6846 -17.2359 -17.0859
   -17.0405 -16.9437 -16.8597 -16.7602 -15.1373 -15.1290 -14.9535 -14.8586
   -14.7628 -14.6860 -14.6060 -14.4337 -14.4147 -14.3870 -14.3324 -14.3307
   -14.2321 -14.1691 -13.8331  -9.8577  -9.7792  -9.3377  -8.3047  -8.3017
    -8.1720  -8.1681  -8.1247  -8.0330  -7.8952  -7.8930  -7.6914  -3.8334
    -3.5701  -3.5563  -3.3440  -3.2277  -3.2243  -3.0868  -2.6190  -2.6169
    -2.5023  -2.3431  -2.0309  -2.0225  -1.8987  -1.8661  -1.8425  -1.6487
    -1.5903  -1.5628  -1.5073  -1.4497  -1.3862  -1.3333  -1.3299  -1.1609
    -1.1176  -1.1030  -1.0997  -1.0180  -0.9972  -0.9330  -0.8552  -0.6353
    -0.5349  -0.4851  -0.4650  -0.2714  -0.2452  -0.0417  -0.0363   0.0015
     0.0162   0.2062   0.2083   0.3732   0.4458   0.5218   0.6608   0.6673
     0.7246   0.8159   0.8289   0.9282   0.9617   0.9833   0.9862   1.0100
     1.0674   1.1357   1.1457   1.3289   1.4132   1.4486   1.4749   1.5218
     1.5553   1.6270   1.6617   1.7490   1.9180   1.9417   2.0966   2.0976
     2.2465   2.2637   2.4455   2.5647   2.7484   2.7805   3.7977   5.4137
     5.9898   6.9364   7.0612   7.0625   7.5056   7.8449   7.9764   8.0445
     8.4230   8.4334   8.5060   8.6556   8.8687   8.9375   9.1171   9.1896
     9.2952

          k = 0.1250-0.5279 0.0000 ( 35996 PWs)   bands (ev):

   -35.8249 -35.6244 -24.5101 -22.8273 -22.8245 -22.6580 -17.2875 -17.0917
   -17.0426 -16.9400 -16.8164 -16.7566 -15.1697 -15.1625 -14.8234 -14.7508
   -14.7136 -14.6982 -14.6661 -14.4787 -14.4585 -14.4151 -14.3138 -14.3107
   -14.1961 -14.1569 -13.8851  -9.8217  -9.8052  -9.3676  -8.2994  -8.2962
    -8.1768  -8.1729  -8.1346  -8.0317  -7.9294  -7.9274  -7.7174  -4.1023
    -3.7556  -3.7436  -3.5208  -3.4577  -3.4532  -3.2626  -2.6401  -2.6379
    -2.5152  -2.4389  -2.0611  -2.0522  -1.8531  -1.8281  -1.7606  -1.7469
    -1.7213  -1.7022  -1.6130  -1.4698  -1.4609  -1.4050  -1.4002  -1.3148
    -1.2099  -1.1855  -1.1788  -1.1056  -1.0900  -0.9522  -0.9154  -0.6357
    -0.5366  -0.4920  -0.4751  -0.2447  -0.2258  -0.0272  -0.0261   0.0043
     0.0237   0.1739   0.2288   0.2338   0.3965   0.5102   0.6898   0.7090
     0.7180   0.7181   0.7738   1.0131   1.0192   1.0206   1.0514   1.0649
     1.0869   1.1217   1.2194   1.3609   1.5329   1.5949   1.7253   1.7750
     1.7842   1.7843   1.8079   1.9705   2.0204   2.0247   2.1067   2.1152
     2.2617   2.2630   2.3021   2.4073   2.6260   2.6686   3.9766   5.4536
     6.2877   6.9187   7.2825   7.2852   7.3788   7.9177   8.0743   8.4179
     8.6979   8.8636   8.9075   8.9785   9.0624   9.0774   9.3316   9.3398
     9.5448

          k = 0.2500 0.0000 0.0000 ( 36150 PWs)   bands (ev):

   -35.8347 -35.6342 -24.6204 -22.9666 -22.9638 -22.7907 -17.2238 -17.1335
   -16.9982 -16.9515 -16.8734 -16.6795 -15.4020 -15.2443 -15.1899 -15.0430
   -14.9736 -14.8532 -14.5743 -14.4453 -14.4390 -14.4344 -14.2798 -14.2274
   -14.1442 -14.1080 -13.7190  -9.9843  -9.3395  -9.3384  -8.1880  -8.1836
    -8.0955  -7.9742  -7.9721  -7.8166  -7.8138  -7.7506  -7.6211  -2.8042
    -2.7982  -2.6430  -2.4471  -2.4449  -2.3920  -2.2076  -1.9892  -1.9655
    -1.9008  -1.7242  -1.6699  -1.6188  -1.5919  -1.4544  -1.4520  -1.3822
    -1.3492  -1.2280  -1.1434  -1.0881  -1.0071  -1.0055  -0.9057  -0.8934
    -0.7712  -0.7678  -0.6438  -0.6235  -0.5900  -0.5839  -0.4995  -0.4937
    -0.4882  -0.4782  -0.4302  -0.2640  -0.2240  -0.1604  -0.1581  -0.0533
    -0.0528   0.0848   0.0866   0.1817   0.2010   0.2736   0.3068   0.3917
     0.3983   0.4220   0.4784   0.6408   0.6579   0.6919   0.7458   0.8286
     0.9393   1.0357   1.0642   1.0681   1.0896   1.1502   1.1731   1.2294
     1.3013   1.3212   1.4319   1.5549   1.6334   1.6374   1.7511   1.7939
     1.8485   1.9951   2.0250   2.1938   2.3645   2.4387   2.4423   4.7118
     5.4868   5.6167   5.6169   6.3686   6.7919   6.9709   7.3146   7.3292
     7.3807   7.7630   8.2237   8.2860   8.3642   8.4002   8.4952   8.5808
     8.7098

          k = 0.2500 0.1320 0.0000 ( 36087 PWs)   bands (ev):

   -35.8328 -35.6324 -24.6012 -22.9428 -22.9400 -22.7678 -17.1917 -17.1270
   -16.9678 -16.9430 -16.9395 -16.7453 -15.3391 -15.1924 -15.1542 -14.9955
   -14.9221 -14.8185 -14.5253 -14.4392 -14.4270 -14.4270 -14.2798 -14.2414
   -14.1763 -14.1361 -13.7328  -9.9606  -9.6216  -9.2319  -8.2561  -8.2533
    -8.1192  -8.1100  -8.1076  -7.9315  -7.7830  -7.7804  -7.5880  -2.8554
    -2.8432  -2.6777  -2.4388  -2.4371  -2.3857  -2.3356  -2.3261  -2.2089
    -2.2054  -2.1266  -2.0035  -1.8681  -1.8663  -1.7187  -1.6089  -1.5741
    -1.3355  -1.2582  -1.2518  -1.2217  -1.1374  -1.0519  -1.0346  -0.9437
    -0.8914  -0.8630  -0.8409  -0.7581  -0.6029  -0.5840  -0.4985  -0.4556
    -0.4003  -0.3673  -0.2780  -0.2633  -0.2460  -0.1344  -0.1142  -0.0422
    -0.0300   0.0634   0.0882   0.0916   0.2160   0.3496   0.4332   0.4810
     0.5311   0.6641   0.6705   0.6914   0.7989   0.8305   0.8542   0.9483
     0.9593   1.0014   1.0450   1.1057   1.1531   1.1808   1.1972   1.2408
     1.2436   1.2968   1.4881   1.4912   1.5466   1.5641   1.7571   1.8064
     2.4079   2.4475   2.4891   2.6124   2.6315   2.6554   2.8365   4.8600
     5.7287   5.8772   5.8780   6.3187   6.9414   7.1072   7.3598   7.5731
     7.5812   7.8174   8.0704   8.3203   8.3849   8.4204   8.6143   8.7797
     8.8846

          k = 0.2500 0.2640 0.0000 ( 36083 PWs)   bands (ev):

   -35.8285 -35.6280 -24.5542 -22.8841 -22.8813 -22.7115 -17.1281 -17.1023
   -17.0760 -16.9399 -16.8872 -16.8760 -15.1685 -15.1002 -15.0874 -14.8588
   -14.7941 -14.7330 -14.4585 -14.4035 -14.4012 -14.3968 -14.3329 -14.2882
   -14.2406 -14.1699 -13.7592  -9.9348  -9.8858  -9.3380  -8.4762  -8.4737
    -8.2724  -8.1729  -8.1692  -8.0457  -7.9028  -7.9002  -7.7112  -3.2378
    -3.2014  -3.0741  -2.9797  -2.6919  -2.6797  -2.6515  -2.5510  -2.5508
    -2.5114  -2.4094  -2.4059  -2.3593  -2.1350  -2.0159  -1.6957  -1.6607
    -1.6587  -1.6404  -1.5637  -1.4164  -1.2830  -1.2725  -1.1590  -1.1414
    -0.9753  -0.9567  -0.9533  -0.8997  -0.8352  -0.8337  -0.7611  -0.6623
    -0.5988  -0.5086  -0.3734  -0.3076  -0.2456  -0.1670   0.0039   0.0851
     0.1270   0.2831   0.3342   0.5414   0.5453   0.5872   0.6887   0.7204
     0.7245   0.8005   0.9539   1.0047   1.0084   1.0623   1.0904   1.1213
     1.1453   1.1522   1.2119   1.2258   1.2815   1.2941   1.3432   1.3599
     1.4335   1.4436   1.5417   1.6165   1.6191   1.6737   1.8410   1.8634
     2.7474   2.7481   3.0291   3.0500   3.1669   3.2618   3.3468   5.2640
     5.7963   6.4200   6.4206   6.4491   7.3255   7.4728   7.5171   7.8445
     8.1064   8.1081   8.1457   8.4783   8.7342   8.7809   8.8076   8.9366
     9.0121

          k = 0.2500 0.3960 0.0000 ( 36064 PWs)   bands (ev):

   -35.8241 -35.6237 -24.5063 -22.8236 -22.8209 -22.6536 -17.2238 -17.0918
   -17.0286 -17.0172 -16.9100 -16.7900 -15.0557 -15.0514 -14.9391 -14.6867
   -14.6548 -14.6451 -14.5358 -14.4631 -14.4071 -14.3557 -14.3192 -14.3144
   -14.2444 -14.1637 -13.7911 -10.0873  -9.8365  -9.5492  -8.5963  -8.5934
    -8.4029  -8.2232  -8.2199  -8.1168  -8.1139  -8.0642  -7.9295  -3.8084
    -3.7265  -3.7008  -3.4615  -3.2081  -3.2035  -3.1607  -2.6891  -2.6889
    -2.5570  -2.3773  -2.3681  -2.3284  -2.1995  -2.0779  -2.0252  -2.0034
    -1.8609  -1.7318  -1.6931  -1.6221  -1.5914  -1.4076  -1.3843  -1.2505
    -1.1130  -1.0630  -1.0433  -1.0341  -1.0269  -0.8987  -0.8600  -0.8029
    -0.6962  -0.6689  -0.4311  -0.2949  -0.1140  -0.0902   0.0753   0.1186
     0.1994   0.4216   0.5471   0.7139   0.7395   0.7397   0.8333   0.8516
     1.0114   1.0531   1.0670   1.0765   1.0877   1.1399   1.2496   1.2582
     1.3333   1.3417   1.4574   1.4675   1.4912   1.5264   1.5426   1.5783
     1.5906   1.6573   1.7062   1.7640   1.9511   2.0182   2.0192   2.0425
     2.5791   2.5804   3.2570   3.2926   3.4075   3.5627   3.7848   5.2649
     5.8967   6.6262   6.6292   6.7847   7.3674   7.4743   7.5469   8.1720
     8.5537   8.5677   8.6475   8.7558   8.9334   9.1392   9.3844   9.4359
     9.5127

          k = 0.2500-0.5279 0.0000 ( 36068 PWs)   bands (ev):

   -35.8223 -35.6218 -24.4861 -22.7981 -22.7953 -22.6292 -17.2740 -17.0863
   -17.0783 -16.9777 -16.9047 -16.7504 -15.0525 -15.0478 -14.7180 -14.7077
   -14.6036 -14.6010 -14.5827 -14.4840 -14.4451 -14.4030 -14.3069 -14.3050
   -14.1670 -14.1658 -13.8154 -10.1166  -9.8111  -9.6666  -8.5964  -8.5932
    -8.4218  -8.3112  -8.3089  -8.1832  -8.1794  -8.0797  -8.0405  -4.0782
    -3.9271  -3.9013  -3.6534  -3.4352  -3.4312  -3.3547  -2.6966  -2.6964
    -2.5614  -2.3416  -2.3291  -2.3196  -2.2566  -2.1706  -2.1603  -2.0259
    -1.9665  -1.7923  -1.7784  -1.6688  -1.6672  -1.4891  -1.4759  -1.2761
    -1.2040  -1.1433  -1.1144  -1.0556  -1.0416  -0.9357  -0.8734  -0.8143
    -0.7359  -0.6951  -0.4298  -0.2926  -0.0839  -0.0324   0.1304   0.1568
     0.2790   0.4565   0.6031   0.6128   0.7948   0.8414   0.8447   0.8663
     0.9589   0.9898   1.0972   1.1844   1.2364   1.2517   1.2654   1.2776
     1.3485   1.3962   1.4478   1.5350   1.6636   1.6924   1.7223   1.7597
     1.7859   1.8052   1.8269   1.9383   1.9954   2.1596   2.1944   2.1949
     2.3571   2.3588   3.2764   3.3197   3.4441   3.5926   3.9557   5.0726
     6.4877   6.5489   6.5925   6.6031   7.1830   7.3288   7.4733   8.1831
     8.8588   9.0046   9.1509   9.1983   9.2794   9.3026   9.4493   9.6157
     9.6410

          k = 0.3750 0.0000 0.0000 ( 36078 PWs)   bands (ev):

   -35.8320 -35.6316 -24.5872 -22.9212 -22.9184 -22.7474 -17.2735 -17.1284
   -17.0948 -16.8981 -16.8701 -16.6761 -15.4793 -15.2820 -15.2750 -14.9038
   -14.8655 -14.8578 -14.5656 -14.5454 -14.4518 -14.4464 -14.3768 -14.2676
   -14.1772 -14.1543 -13.7495  -9.9806  -9.2796  -9.2737  -8.1704  -8.1662
    -8.0884  -7.9093  -7.9074  -7.7322  -7.7293  -7.7018  -7.5424  -3.1326
    -3.1227  -2.9738  -2.6163  -2.5701  -2.5689  -2.4421  -1.9091  -1.8674
    -1.8308  -1.7643  -1.7538  -1.6598  -1.5729  -1.5395  -1.4560  -1.4537
    -1.4350  -1.3891  -1.2814  -1.2583  -1.2457  -1.1366  -1.1165  -1.1103
    -0.9710  -0.9680  -0.8485  -0.8157  -0.7083  -0.6135  -0.6050  -0.5850
    -0.4909  -0.4816  -0.4651  -0.3477  -0.2431  -0.1733  -0.1709  -0.0654
    -0.0604   0.1439   0.1630   0.1657   0.1808   0.1886   0.1913   0.2847
     0.3595   0.5044   0.6389   0.7084   0.7368   0.7703   0.7859   0.9453
     0.9458   0.9700   1.0401   1.0722   1.1067   1.1360   1.2579   1.3183
     1.3791   1.4804   1.5113   1.5211   1.5466   1.6528   1.8228   1.8845
     1.9422   2.0255   2.0590   2.3064   2.3839   2.5560   2.5638   5.2552
     5.9725   6.2658   6.2666   6.6478   7.0660   7.5160   7.7459   7.7614
     7.7684   8.2195   8.3137   8.3417   8.4241   8.5032   9.0841   9.1584
     9.2529

          k = 0.3750 0.1320 0.0000 ( 36137 PWs)   bands (ev):

   -35.8302 -35.6298 -24.5692 -22.8995 -22.8967 -22.7264 -17.2649 -17.0993
   -17.0860 -16.9345 -16.8690 -16.7403 -15.4068 -15.2344 -15.2281 -14.8643
   -14.8139 -14.8041 -14.5316 -14.4961 -14.4254 -14.4232 -14.3585 -14.2603
   -14.2114 -14.1637 -13.7594  -9.9595  -9.5585  -9.2808  -8.2277  -8.2244
    -8.1142  -8.0726  -8.0699  -7.8816  -7.8219  -7.8192  -7.6358  -3.1953
    -3.1789  -3.0186  -2.6377  -2.5687  -2.5678  -2.4497  -2.2884  -2.2519
    -2.1426  -2.1067  -1.9403  -1.8567  -1.8547  -1.7700  -1.7076  -1.6600
    -1.5528  -1.5425  -1.4797  -1.4004  -1.2616  -1.1279  -1.0813  -1.0605
    -1.0401  -0.9547  -0.9270  -0.9033  -0.7336  -0.6598  -0.6281  -0.5078
    -0.4985  -0.3122  -0.2829  -0.2606  -0.2480  -0.1499  -0.0904  -0.0551
    -0.0397   0.0033   0.1979   0.2018   0.2583   0.3773   0.4315   0.4547
     0.5484   0.6051   0.6592   0.7367   0.8327   0.8924   0.9534   0.9729
     0.9890   0.9994   1.0926   1.1086   1.1218   1.1357   1.2909   1.3522
     1.4062   1.4632   1.5097   1.5224   1.5596   1.7449   1.8432   1.9701
     2.4625   2.5131   2.5350   2.7014   2.7426   2.8754   2.9963   5.3757
     6.0467   6.3502   6.4153   6.4155   7.1748   7.5633   7.7554   7.8267
     7.8279   8.1218   8.2300   8.3660   8.4690   8.6924   9.0150   9.1591
     9.2539

          k = 0.3750 0.2640 0.0000 ( 36135 PWs)   bands (ev):

   -35.8259 -35.6254 -24.5253 -22.8462 -22.8434 -22.6749 -17.2446 -17.0789
   -17.0653 -17.0241 -16.8838 -16.7942 -15.2069 -15.1125 -15.1083 -14.7680
   -14.7117 -14.6563 -14.4620 -14.4119 -14.3871 -14.3612 -14.3542 -14.2497
   -14.2444 -14.1938 -13.7651  -9.9945  -9.8830  -9.5211  -8.5289  -8.5263
    -8.3297  -8.2076  -8.2044  -8.0852  -8.0821  -8.0597  -7.9117  -3.5141
    -3.4701  -3.2557  -3.0396  -2.8603  -2.7408  -2.7296  -2.6202  -2.6201
    -2.6080  -2.4908  -2.4886  -2.4363  -2.4039  -2.0409  -1.9946  -1.9700
    -1.8411  -1.5773  -1.5297  -1.4519  -1.4234  -1.2450  -1.1639  -1.1588
    -1.1178  -1.0805  -0.9813  -0.9193  -0.8895  -0.8867  -0.7634  -0.7479
    -0.6156  -0.6065  -0.4774  -0.1852  -0.1506  -0.1132   0.0964   0.1588
     0.2184   0.3981   0.4448   0.5792   0.5880   0.7259   0.7676   0.7678
     0.8884   0.9592   0.9813   1.0097   1.0334   1.1271   1.1838   1.1987
     1.2341   1.2443   1.3319   1.3628   1.3908   1.4428   1.4616   1.5137
     1.5153   1.5419   1.5727   1.5778   1.6788   1.8251   1.8368   2.0428
     2.7475   2.7491   3.2696   3.4830   3.4963   3.5980   3.7565   5.4349
     5.7125   6.4577   6.4611   6.4897   7.3801   7.3986   7.6155   8.1401
     8.1698   8.1813   8.3674   8.6213   8.7957   9.0238   9.1754   9.2507
     9.3089

          k = 0.3750 0.3960 0.0000 ( 36111 PWs)   bands (ev):

   -35.8216 -35.6211 -24.4805 -22.7915 -22.7887 -22.6221 -17.2273 -17.2055
   -17.0460 -17.0121 -16.9445 -16.7144 -14.9778 -14.9758 -14.9326 -14.6747
   -14.6191 -14.4993 -14.4765 -14.4555 -14.4082 -14.3196 -14.3149 -14.2709
   -14.1835 -14.1637 -13.7508 -10.3021  -9.8488  -9.8001  -8.7947  -8.7917
    -8.6019  -8.4597  -8.4576  -8.2221  -8.2097  -8.2061  -8.0887  -3.9945
    -3.9419  -3.7831  -3.6698  -3.3269  -3.1846  -3.1828  -2.8702  -2.8692
    -2.7298  -2.5190  -2.5172  -2.4661  -2.4467  -2.3461  -2.2663  -2.1556
    -2.0495  -1.8592  -1.6772  -1.4611  -1.4476  -1.4456  -1.4342  -1.2030
    -1.1806  -1.1435  -1.1092  -1.0955  -1.0454  -0.9580  -0.8806  -0.8202
    -0.6762  -0.6336  -0.6295  -0.0850  -0.0778   0.0047   0.2247   0.3523
     0.4380   0.6092   0.7659   0.9161   0.9187   0.9334   1.0494   1.0618
     1.1071   1.1544   1.2417   1.2434   1.2815   1.3226   1.3856   1.4632
     1.4751   1.5177   1.5338   1.5374   1.5496   1.6768   1.7136   1.7435
     1.7548   1.7605   1.8383   1.8548   1.9403   1.9414   1.9815   2.2747
     2.5672   2.5707   3.7587   4.0025   4.0136   4.0801   4.2309   4.8253
     6.1427   6.1573   6.1633   6.6335   7.0049   7.1274   7.5124   8.0469
     8.7292   8.7403   8.8775   9.0245   9.2275   9.2796   9.2986   9.3405
     9.3889

          k = 0.3750-0.5279 0.0000 ( 36128 PWs)   bands (ev):

   -35.8198 -35.6193 -24.4617 -22.7685 -22.7657 -22.5999 -17.2606 -17.2147
   -17.0652 -17.0352 -16.9091 -16.6792 -14.9162 -14.9156 -14.7158 -14.6410
   -14.5897 -14.5787 -14.5234 -14.4231 -14.4015 -14.3133 -14.2990 -14.2970
   -14.1575 -14.1108 -13.7428 -10.4125  -9.9427  -9.8125  -8.8768  -8.8734
    -8.6972  -8.6048  -8.6029  -8.3505  -8.2363  -8.2317  -8.1028  -4.2024
    -4.1481  -4.0502  -3.8694  -3.5311  -3.4098  -3.4081  -2.8887  -2.8876
    -2.7431  -2.5139  -2.5115  -2.4639  -2.4536  -2.4478  -2.3726  -2.2202
    -2.1056  -1.9650  -1.7482  -1.5629  -1.5523  -1.4816  -1.4702  -1.2019
    -1.1993  -1.1914  -1.1715  -1.1433  -1.1419  -0.9676  -0.9211  -0.8669
    -0.6727  -0.6201  -0.6193  -0.0710  -0.0438   0.0459   0.2431   0.4456
     0.6013   0.6781   0.8946   0.9962   1.0265   1.0316   1.0642   1.1205
     1.1274   1.1599   1.3061   1.3668   1.3828   1.4360   1.5360   1.5404
     1.5519   1.5569   1.6744   1.7221   1.7792   1.7846   1.7990   1.8008
     1.8516   1.8966   1.9710   2.0125   2.0510   2.1289   2.1313   2.3228
     2.3280   2.4106   3.8910   4.1492   4.1595   4.2269   4.3714   4.5944
     5.9800   5.9804   6.5197   6.5271   6.8598   7.0324   7.3407   7.8995
     8.8824   8.8834   8.9166   9.1082   9.2034   9.2856   9.4746   9.5461
     9.5704

          k =-0.5000 0.0000 0.0000 ( 36070 PWs)   bands (ev):

   -35.8309 -35.6305 -24.5732 -22.9020 -22.8992 -22.7291 -17.3258 -17.1476
   -17.0863 -16.8687 -16.8544 -16.6748 -15.5155 -15.3380 -15.3311 -14.9333
   -14.8290 -14.6971 -14.5691 -14.5438 -14.4533 -14.4528 -14.4330 -14.3254
   -14.1827 -14.1741 -13.7652  -9.9734  -9.2547  -9.2537  -8.1602  -8.1558
    -8.0795  -7.8862  -7.8843  -7.6961  -7.6932  -7.6883  -7.5088  -3.2746
    -3.2651  -3.1161  -2.7710  -2.5954  -2.5937  -2.4396  -1.9000  -1.8622
    -1.8490  -1.8080  -1.6929  -1.6256  -1.6029  -1.4881  -1.4728  -1.4597
    -1.4575  -1.4481  -1.4177  -1.3876  -1.3495  -1.2471  -1.1528  -1.0535
    -1.0514  -1.0486  -0.9410  -0.9277  -0.7766  -0.6707  -0.6104  -0.6085
    -0.5284  -0.4788  -0.4581  -0.3611  -0.2326  -0.1786  -0.1762  -0.1013
    -0.0936   0.0615   0.1629   0.1653   0.1670   0.1882   0.1921   0.2540
     0.3262   0.5645   0.7027   0.7061   0.7309   0.7710   0.7903   0.8954
     0.8954   0.9720   1.1205   1.1388   1.1464   1.2546   1.3461   1.4035
     1.4136   1.4166   1.4204   1.5041   1.6189   1.6979   1.9008   1.9430
     1.9820   2.0391   2.0629   2.3107   2.3553   2.5868   2.5894   5.7853
     5.7956   6.7453   7.0386   7.0395   7.0678   7.0900   7.0912   8.0107
     8.2475   8.3000   8.3216   8.4499   8.5598   8.7740   9.2046   9.2164
     9.2534

          k =-0.5000 0.1320 0.0000 ( 36134 PWs)   bands (ev):

   -35.8291 -35.6287 -24.5558 -22.8812 -22.8784 -22.7090 -17.3166 -17.1383
   -17.0589 -16.9323 -16.8269 -16.7382 -15.4384 -15.2812 -15.2749 -14.8909
   -14.7911 -14.6526 -14.5101 -14.5101 -14.4279 -14.4188 -14.4117 -14.2918
   -14.2211 -14.1729 -13.7752  -9.9520  -9.4701  -9.3717  -8.1989  -8.1952
    -8.0991  -8.0156  -8.0138  -7.8992  -7.8959  -7.8091  -7.7228  -3.3437
    -3.3279  -3.1687  -2.7982  -2.6002  -2.5988  -2.4621  -2.2568  -2.2161
    -2.1319  -2.0556  -1.8989  -1.8515  -1.8493  -1.7816  -1.7605  -1.6910
    -1.6671  -1.6567  -1.5821  -1.4300  -1.2932  -1.2196  -1.1091  -1.1088
    -1.1057  -0.9509  -0.9499  -0.8597  -0.8498  -0.6966  -0.6731  -0.5312
    -0.5284  -0.3173  -0.2902  -0.2277  -0.2273  -0.1663  -0.0791  -0.0579
    -0.0469  -0.0249   0.2660   0.2767   0.2793   0.3196   0.3749   0.3855
     0.5398   0.5473   0.5886   0.7925   0.8754   0.8846   0.9549   0.9705
     1.0029   1.0382   1.0437   1.0911   1.1762   1.2685   1.3503   1.3814
     1.4478   1.4717   1.4866   1.6240   1.6622   1.7215   1.9685   2.0545
     2.4743   2.5153   2.5348   2.7196   2.7652   2.9296   3.0230   5.8616
     5.8717   6.2741   6.8866   6.8876   7.2600   7.3934   7.3945   7.9076
     7.9310   8.2124   8.3736   8.5127   8.5708   9.0265   9.2106   9.2952
     9.3662

          k =-0.5000 0.2640 0.0000 ( 36164 PWs)   bands (ev):

   -35.8248 -35.6243 -24.5132 -22.8303 -22.8275 -22.6595 -17.2946 -17.1161
   -17.0756 -16.9877 -16.8805 -16.7564 -15.2252 -15.1305 -15.1259 -14.7897
   -14.7024 -14.5387 -14.4337 -14.4069 -14.3788 -14.3702 -14.3628 -14.2939
   -14.2061 -14.1871 -13.7743  -9.9617  -9.8808  -9.6535  -8.4678  -8.4646
    -8.3168  -8.3149  -8.2824  -8.1487  -8.1448  -8.0903  -8.0400  -3.6523
    -3.6086  -3.3996  -3.0316  -2.9978  -2.7664  -2.7569  -2.6374  -2.6298
    -2.6190  -2.4996  -2.4965  -2.4407  -2.4362  -2.1518  -2.0856  -2.0068
    -1.9396  -1.6571  -1.4985  -1.3758  -1.3682  -1.2085  -1.2066  -1.2015
    -1.1504  -1.0995  -1.0214  -0.9144  -0.9120  -0.9117  -0.7964  -0.7489
    -0.6331  -0.6275  -0.4920  -0.1593  -0.1454  -0.0199   0.1809   0.2059
     0.2393   0.4389   0.4820   0.6102   0.6139   0.6785   0.8460   0.8580
     0.8886   0.9418   0.9463   0.9828   0.9980   1.2104   1.2166   1.2264
     1.2481   1.3183   1.3577   1.4139   1.4662   1.4749   1.5144   1.5216
     1.5533   1.5743   1.5873   1.6519   1.6788   1.7848   1.9554   2.1528
     2.7404   2.7425   3.2752   3.6227   3.6362   3.7322   3.8788   5.2745
     6.0896   6.2832   6.4566   6.4581   7.2670   7.3242   7.6820   8.1384
     8.2037   8.2892   8.4981   8.8607   9.0244   9.1154   9.3398   9.3538
     9.3891

          k =-0.5000 0.3960 0.0000 ( 36108 PWs)   bands (ev):

   -35.8205 -35.6200 -24.4698 -22.7781 -22.7753 -22.6090 -17.2731 -17.2046
   -17.0943 -17.0093 -16.9123 -16.6809 -14.9497 -14.9463 -14.9312 -14.7011
   -14.6286 -14.4658 -14.4267 -14.3979 -14.3960 -14.3170 -14.3151 -14.2296
   -14.2257 -14.1136 -13.7361 -10.3728  -9.9324  -9.8386  -8.8430  -8.8396
    -8.6578  -8.6048  -8.6029  -8.3573  -8.2267  -8.2223  -8.1023  -4.1246
    -4.0679  -3.8326  -3.7336  -3.4325  -3.1763  -3.1743  -2.9399  -2.9398
    -2.7965  -2.5685  -2.5352  -2.5334  -2.4552  -2.4423  -2.3616  -2.1520
    -2.1167  -1.9354  -1.6683  -1.4742  -1.4635  -1.3476  -1.3278  -1.2904
    -1.2699  -1.1281  -1.1216  -1.0876  -1.0456  -1.0265  -0.8875  -0.7980
    -0.7614  -0.5974  -0.5957  -0.0680   0.0018   0.0522   0.2581   0.4644
     0.5845   0.6983   0.8428   0.9794   1.0380   1.0559   1.0570   1.0824
     1.1393   1.1894   1.3078   1.3162   1.3222   1.3881   1.4370   1.4849
     1.5136   1.5498   1.5715   1.5757   1.6358   1.7147   1.7546   1.8105
     1.8199   1.8427   1.9025   1.9097   1.9370   1.9631   1.9909   2.4031
     2.5549   2.5596   3.7536   4.2681   4.2761   4.3264   4.4652   4.6323
     5.9615   5.9626   6.3316   6.5474   6.8277   6.9734   7.5648   7.9069
     8.6736   8.6851   8.9536   9.1459   9.2134   9.2948   9.3575   9.4167
     9.4608

          k =-0.5000-0.5279 0.0000 ( 36156 PWs)   bands (ev):

   -35.8187 -35.6182 -24.4516 -22.7561 -22.7533 -22.5877 -17.2643 -17.2552
   -17.0854 -17.0598 -16.8788 -16.6477 -14.8527 -14.8502 -14.7185 -14.6790
   -14.6132 -14.5141 -14.5123 -14.4204 -14.3489 -14.2955 -14.2919 -14.2336
   -14.1879 -14.0732 -13.7117 -10.5365 -10.0477  -9.8158  -8.9890  -8.9855
    -8.8086  -8.7209  -8.7190  -8.4638  -8.2548  -8.2496  -8.1187  -4.3333
    -4.2750  -4.0675  -3.9649  -3.6352  -3.4007  -3.3986  -2.9723  -2.9723
    -2.8243  -2.5828  -2.5349  -2.5253  -2.5235  -2.4557  -2.4554  -2.2225
    -2.1490  -2.0320  -1.7351  -1.5888  -1.5805  -1.4124  -1.3926  -1.2655
    -1.2392  -1.2216  -1.2198  -1.1466  -1.1081  -0.9977  -0.9144  -0.8948
    -0.7514  -0.5691  -0.5668  -0.0323   0.0345   0.0797   0.2785   0.5741
     0.7224   0.7921   1.0049   1.1065   1.1142   1.1185   1.1237   1.1818
     1.2073   1.2096   1.3727   1.4273   1.4316   1.5361   1.6022   1.6035
     1.6586   1.6620   1.6684   1.7478   1.7812   1.8312   1.8770   1.9195
     1.9345   1.9496   2.0247   2.0956   2.1023   2.1052   2.1780   2.2982
     2.3054   2.5442   3.8757   4.3900   4.4690   4.4795   4.5306   4.6554
     5.7346   5.7356   6.4988   6.6188   6.6245   6.8614   7.4999   7.7510
     8.7370   8.7946   8.8210   8.8386   9.1571   9.2667   9.2821   9.3537
     9.5674

     the Fermi energy is     2.3300 ev

!    total energy              =   -1842.80444807 Ry
     Harris-Foulkes estimate   =   -1842.80444807 Ry
     estimated scf accuracy    <          7.3E-09 Ry

     The total energy is the sum of the following terms:

     one-electron contribution =  -25875.30948745 Ry
     hartree contribution      =   13088.13969373 Ry
     xc contribution           =    -621.54838351 Ry
     ewald contribution        =   11565.92114256 Ry
     smearing contrib. (-TS)   =      -0.00741340 Ry

     convergence has been achieved in  35 iterations

     negative rho (up, down):  1.477E-03 0.000E+00

     Forces acting on atoms (cartesian axes, Ry/au):

     atom    1 type  4   force =     0.00000000    0.00000000   -0.00015792
     atom    2 type  3   force =     0.00000000    0.00000000    0.00034563
     atom    3 type  4   force =     0.00000000    0.00000000   -0.00078553
     atom    4 type  1   force =     0.00000000    0.00000000   -0.00033592
     atom    5 type  3   force =     0.00000000    0.00000000    0.00069508
     atom    6 type  4   force =     0.00000000    0.00000000    0.00020176
     atom    7 type  4   force =     0.00000000    0.00000000    0.00056749
     atom    8 type  2   force =     0.00000000    0.00000000   -0.00124845
     atom    9 type  4   force =     0.00000000    0.00000000    0.00071803
     atom   10 type  4   force =     0.00000000    0.00000000    0.00105223
     atom   11 type  3   force =     0.00000000    0.00000000    0.00043555
     atom   12 type  1   force =     0.00000000    0.00000000   -0.00351479
     atom   13 type  4   force =     0.00000000    0.00000000    0.00743641
     atom   14 type  4   force =     0.00000000    0.00000000    0.02130202
     atom   15 type  3   force =     0.00000000    0.00000000   -0.02490815
     atom   16 type  4   force =     0.00000000    0.00000000    0.04211898
     atom   17 type  1   force =     0.00000000    0.00000000   -0.03733326
     atom   18 type  3   force =     0.00000000    0.00000000   -0.01201095
     atom   19 type  4   force =     0.00000000    0.00000000    0.01430050
     atom   20 type  4   force =     0.00000000    0.00000000    0.00523676
     atom   21 type  2   force =     0.00000000    0.00000000   -0.01812802
     atom   22 type  4   force =     0.00000000    0.00000000    0.00080578
     atom   23 type  4   force =     0.00000000    0.00000000    0.00250356
     atom   24 type  3   force =     0.00000000    0.00000000   -0.00009490
     atom   25 type  1   force =     0.00000000    0.00000000    0.00015770
     atom   26 type  4   force =     0.00000000    0.00000000    0.00112197
     atom   27 type  3   force =     0.00000000    0.00000000   -0.00080571
     atom   28 type  4   force =     0.00000000    0.00000000    0.00032413

     Total force =     0.070912     Total SCF correction =     0.000391


     Computing stress (Cartesian axis) and pressure


     negative rho (up, down):  1.477E-03 0.000E+00
          total   stress  (Ry/bohr**3)                   (kbar)     P=       -8.49
  -0.00010085   0.00000000   0.00000000          -14.84        0.00        0.00
   0.00000000  -0.00004128   0.00000000            0.00       -6.07        0.00
   0.00000000   0.00000000  -0.00003100            0.00        0.00       -4.56

 
     init_run     :     10.19s CPU     10.49s WALL (       1 calls)
     electrons    :    655.81s CPU    677.78s WALL (       1 calls)
     forces       :      4.32s CPU      4.50s WALL (       1 calls)
     stress       :     22.99s CPU     23.45s WALL (       1 calls)

     Called by init_run:
     wfcinit      :      7.25s CPU      7.37s WALL (       1 calls)
     potinit      :      0.64s CPU      0.66s WALL (       1 calls)
     hinit0       :      1.11s CPU      1.12s WALL (       1 calls)

     Called by electrons:
     c_bands      :    505.57s CPU    516.88s WALL (      35 calls)
     sum_band     :     99.18s CPU    104.99s WALL (      35 calls)
     v_of_rho     :      3.04s CPU      3.07s WALL (      36 calls)
     newd         :     26.82s CPU     31.56s WALL (      36 calls)
     mix_rho      :     21.70s CPU     21.85s WALL (      35 calls)

     Called by c_bands:
     init_us_2    :      3.57s CPU      3.60s WALL (    1825 calls)
     cegterg      :    479.43s CPU    490.15s WALL (     875 calls)

     Called by sum_band:
     sum_band:bec :      0.25s CPU      0.25s WALL (     875 calls)
     addusdens    :     25.29s CPU     30.29s WALL (      35 calls)

     Called by *egterg:
     h_psi        :    238.69s CPU    245.86s WALL (    4162 calls)
     s_psi        :     22.34s CPU     22.61s WALL (    4162 calls)
     g_psi        :      0.67s CPU      0.67s WALL (    3262 calls)
     cdiaghg      :    124.67s CPU    125.17s WALL (    4137 calls)

     Called by h_psi:
     h_psi:calbec :     28.30s CPU     29.44s WALL (    4162 calls)
     vloc_psi     :    186.32s CPU    189.02s WALL (    4162 calls)
     add_vuspsi   :     23.11s CPU     24.75s WALL (    4162 calls)

     General routines
     calbec       :     48.14s CPU     49.37s WALL (    5162 calls)
     fft          :      2.57s CPU      2.59s WALL (     491 calls)
     ffts         :     11.33s CPU     11.41s WALL (   15775 calls)
     fftw         :    216.82s CPU    219.94s WALL (  622805 calls)
     interpolate  :      0.22s CPU      0.23s WALL (      36 calls)
 
     Parallel routines
     fft_scatt_xy :     24.12s CPU     24.45s WALL (  639071 calls)
     fft_scatt_yz :    144.99s CPU    146.99s WALL (  639071 calls)
 
     PWSCF        :  11m34.37s CPU  11m57.33s WALL

 
   This run was terminated on:  11:47:44  21May2021            

=------------------------------------------------------------------------------=
   JOB DONE.
=------------------------------------------------------------------------------=
[1621612064.393463] [holy7c08610:275306:0]          mpool.c:43   UCX  WARN  object 0x39c03c0 was not returned to mpool ucp_requests
[1621612064.396980] [holy7c08602:148674:0]          mpool.c:43   UCX  WARN  object 0x4001c80 was not returned to mpool ucp_requests
[1621612064.396996] [holy7c08602:148674:0]          mpool.c:43   UCX  WARN  object 0x4002000 was not returned to mpool ucp_requests
[1621612064.397656] [holy7c08407:163825:0]          mpool.c:43   UCX  WARN  object 0x3251980 was not returned to mpool ucp_requests
[1621612064.414757] [holy7c08606:177648:0]          mpool.c:43   UCX  WARN  object 0x3086640 was not returned to mpool ucp_requests
[1621612064.403073] [holy7c08407:163824:0]          mpool.c:43   UCX  WARN  object 0x3e24100 was not returned to mpool ucp_requests
[1621612064.424924] [holy7c08606:177645:0]          mpool.c:43   UCX  WARN  object 0x3381580 was not returned to mpool ucp_requests
[1621612064.426649] [holy7c08606:177647:0]          mpool.c:43   UCX  WARN  object 0x4629600 was not returned to mpool ucp_requests
[1621612064.426674] [holy7c08606:177647:0]          mpool.c:43   UCX  WARN  object 0x46297c0 was not returned to mpool ucp_requests
