
     Program PWSCF v.6.5 starts on 21May2021 at 21:28:23 

     This program is part of the open-source Quantum ESPRESSO suite
     for quantum simulation of materials; please cite
         "P. Giannozzi et al., J. Phys.:Condens. Matter 21 395502 (2009);
         "P. Giannozzi et al., J. Phys.:Condens. Matter 29 465901 (2017);
          URL http://www.quantum-espresso.org", 
     in publications or presentations arising from this work. More details at
     http://www.quantum-espresso.org/quote

     Parallel version (MPI), running on    20 processors

     MPI processes distributed on     8 nodes
     R & G space division:  proc/nbgrp/npool/nimage =      20
     Reading input from CBCO_Y_cleave_2.0_sep.pwi
Warning: card &IONS ignored
Warning: card     ION_DYNAMICS = 'BFGS' ignored
Warning: card / ignored
Warning: card &CELL ignored
Warning: card     CELL_DYNAMICS = 'BFGS' ignored
Warning: card     PRESS_CONV_THR = 5 ignored
Warning: card / ignored

     Current dimensions of program PWSCF are:
     Max number of different atomic species (ntypx) = 10
     Max number of k-points (npk) =  40000
     Max angular momentum in pseudopotentials (lmaxx) =  3

     Subspace diagonalization in iterative solution of the eigenvalue problem:
     one sub-group per band group will be used
     scalapack distributed-memory algorithm (size of sub-group:  4*  4 procs)

     Message from routine setup:
     using ibrav=0 with symmetry is DISCOURAGED, use correct ibrav instead
 
     Parallelization info
     --------------------
     sticks:   dense  smooth     PW     G-vecs:    dense   smooth      PW
     Min         149      50     14                73377    14130    2206
     Max         150      51     15                73416    14155    2249
     Sum        2991    1007    289              1467957   282791   44429
 


     bravais-lattice index     =            0
     lattice parameter (alat)  =       7.4270  a.u.
     unit-cell volume          =    4499.7550 (a.u.)^3
     number of atoms/cell      =           28
     number of atomic types    =            4
     number of electrons       =       227.00
     number of Kohn-Sham states=          137
     kinetic-energy cutoff     =      60.0000  Ry
     charge density cutoff     =     720.0000  Ry
     convergence threshold     =      1.0E-08
     mixing beta               =       0.5000
     number of iterations used =           10  local-TF  mixing
     Exchange-correlation= SLA PW PBE PBE
                           (   1   4   3   4   0   0   0)

     celldm(1)=   7.427040  celldm(2)=   0.000000  celldm(3)=   0.000000
     celldm(4)=   0.000000  celldm(5)=   0.000000  celldm(6)=   0.000000

     crystal axes: (cart. coord. in units of alat)
               a(1) = (   1.000000   0.000000   0.000000 )  
               a(2) = (   0.000000   0.947081   0.000000 )  
               a(3) = (   0.000000   0.000000  11.597234 )  

     reciprocal axes: (cart. coord. in units 2 pi/alat)
               b(1) = (  1.000000  0.000000  0.000000 )  
               b(2) = (  0.000000  1.055876  0.000000 )  
               b(3) = (  0.000000  0.000000  0.086227 )  


     PseudoPot. # 1 for Ba read from file:
     ./pseudo/Ba.pbe-nsp-van.UPF
     MD5 check sum: 2b9c31dd849566dd297d80989662b7a0
     Pseudo is Ultrasoft + core correction, Zval = 10.0
     Generated by new atomic code, or converted to UPF format
     Using radial grid of  907 points,  6 beta functions with: 
                l(1) =   0
                l(2) =   0
                l(3) =   1
                l(4) =   1
                l(5) =   2
                l(6) =   2
     Q(r) pseudized with  6 coefficients,  rinner =    1.200   1.200   1.200
                                                       1.200   1.200

     PseudoPot. # 2 for Ca read from file:
     ./pseudo/Ca.pbe-nsp-van.UPF
     MD5 check sum: 6471098428ff4fa451746d08035ff179
     Pseudo is Ultrasoft + core correction, Zval = 10.0
     Generated by new atomic code, or converted to UPF format
     Using radial grid of  845 points,  6 beta functions with: 
                l(1) =   0
                l(2) =   0
                l(3) =   1
                l(4) =   1
                l(5) =   2
                l(6) =   2
     Q(r) pseudized with  6 coefficients,  rinner =    1.200   1.200   1.200
                                                       1.200   1.200

     PseudoPot. # 3 for Cu read from file:
     ./pseudo/Cu.pbe-n-van_ak.UPF
     MD5 check sum: 34e3282627ffb533726feb647e090d62
     Pseudo is Ultrasoft + core correction, Zval = 11.0
     Generated by new atomic code, or converted to UPF format
     Using radial grid of  867 points,  6 beta functions with: 
                l(1) =   0
                l(2) =   0
                l(3) =   1
                l(4) =   1
                l(5) =   2
                l(6) =   2
     Q(r) pseudized with  8 coefficients,  rinner =    1.400   1.400   1.400
                                                       1.400   1.400

     PseudoPot. # 4 for O  read from file:
     ./pseudo/O.pbe-van_ak.UPF
     MD5 check sum: 783ce7fe4c79b6a4916957118fed0856
     Pseudo is Ultrasoft, Zval =  6.0
     Generated by new atomic code, or converted to UPF format
     Using radial grid of  737 points,  4 beta functions with: 
                l(1) =   0
                l(2) =   0
                l(3) =   1
                l(4) =   1
     Q(r) pseudized with  8 coefficients,  rinner =    0.800   0.800   0.800


     atomic species   valence    mass     pseudopotential
        Ba            10.00   137.32700     Ba( 1.00)
        Ca            10.00    40.07800     Ca( 1.00)
        Cu            11.00    63.54600     Cu( 1.00)
        O              6.00    15.99900     O ( 1.00)

      4 Sym. Ops. (no inversion) found



   Cartesian axes

     site n.     atom                  positions (alat units)
         1           O   tau(   1) = (   0.0000000   0.4735409  -0.0469745  )
         2           Cu  tau(   2) = (   0.0000000   0.0000000   0.0264565  )
         3           O   tau(   3) = (   0.0000000   0.0000000   0.5030914  )
         4           Ba  tau(   4) = (   0.5000000   0.4735409   0.5690292  )
         5           Cu  tau(   5) = (   0.0000000   0.0000000   1.0374254  )
         6           O   tau(   6) = (   0.5000000   0.0000000   1.0768099  )
         7           O   tau(   7) = (   0.0000000   0.4735409   1.1116985  )
         8           Ca  tau(   8) = (   0.5000000   0.4735409   1.4976260  )
         9           O   tau(   9) = (   0.0000000   0.4735409   1.8667529  )
        10           O   tau(  10) = (   0.5000000   0.0000000   1.9044124  )
        11           Cu  tau(  11) = (   0.0000000   0.0000000   1.9512546  )
        12           Ba  tau(  12) = (   0.5000000   0.4735409   2.4295764  )
        13           O   tau(  13) = (   0.0000000   0.0000000   2.5115362  )
        14           O   tau(  14) = (   0.0000000   0.4735409   2.9918528  )
        15           Cu  tau(  15) = (   0.0000000   0.0000000   2.9919088  )
        16           O   tau(  16) = (   0.0000000   0.0000000   3.4722686  )
        17           Ba  tau(  17) = (   0.5000000   0.4735409   3.5542208  )
        18           Cu  tau(  18) = (   0.0000000   0.0000000   4.0325248  )
        19           O   tau(  19) = (   0.5000000   0.0000000   4.0793669  )
        20           O   tau(  20) = (   0.0000000   0.4735409   4.1170213  )
        21           Ca  tau(  21) = (   0.5000000   0.4735409   4.4861584  )
        22           O   tau(  22) = (   0.0000000   0.4735409   5.3809607  )
        23           O   tau(  23) = (   0.5000000   0.0000000   5.4158493  )
        24           Cu  tau(  24) = (   0.0000000   0.0000000   5.4552364  )
        25           Ba  tau(  25) = (   0.5000000   0.4735409   5.9236300  )
        26           O   tau(  26) = (   0.0000000   0.0000000   5.9895576  )
        27           Cu  tau(  27) = (   0.0000000   0.0000000   6.4661976  )
        28           O   tau(  28) = (   0.0000000   0.4735409   6.5396159  )

     number of k points=    25  Gaussian smearing, width (Ry)=  0.0100
                       cart. coord. in units 2pi/alat
        k(    1) = (   0.0000000   0.0000000   0.0000000), wk =   0.0312500
        k(    2) = (   0.0000000   0.1319845   0.0000000), wk =   0.0625000
        k(    3) = (   0.0000000   0.2639689   0.0000000), wk =   0.0625000
        k(    4) = (   0.0000000   0.3959534   0.0000000), wk =   0.0625000
        k(    5) = (   0.0000000  -0.5279378   0.0000000), wk =   0.0312500
        k(    6) = (   0.1250000   0.0000000   0.0000000), wk =   0.0625000
        k(    7) = (   0.1250000   0.1319845   0.0000000), wk =   0.1250000
        k(    8) = (   0.1250000   0.2639689   0.0000000), wk =   0.1250000
        k(    9) = (   0.1250000   0.3959534   0.0000000), wk =   0.1250000
        k(   10) = (   0.1250000  -0.5279378   0.0000000), wk =   0.0625000
        k(   11) = (   0.2500000   0.0000000   0.0000000), wk =   0.0625000
        k(   12) = (   0.2500000   0.1319845   0.0000000), wk =   0.1250000
        k(   13) = (   0.2500000   0.2639689   0.0000000), wk =   0.1250000
        k(   14) = (   0.2500000   0.3959534   0.0000000), wk =   0.1250000
        k(   15) = (   0.2500000  -0.5279378   0.0000000), wk =   0.0625000
        k(   16) = (   0.3750000   0.0000000   0.0000000), wk =   0.0625000
        k(   17) = (   0.3750000   0.1319845   0.0000000), wk =   0.1250000
        k(   18) = (   0.3750000   0.2639689   0.0000000), wk =   0.1250000
        k(   19) = (   0.3750000   0.3959534   0.0000000), wk =   0.1250000
        k(   20) = (   0.3750000  -0.5279378   0.0000000), wk =   0.0625000
        k(   21) = (  -0.5000000   0.0000000   0.0000000), wk =   0.0312500
        k(   22) = (  -0.5000000   0.1319845   0.0000000), wk =   0.0625000
        k(   23) = (  -0.5000000   0.2639689   0.0000000), wk =   0.0625000
        k(   24) = (  -0.5000000   0.3959534   0.0000000), wk =   0.0625000
        k(   25) = (  -0.5000000  -0.5279378   0.0000000), wk =   0.0312500

     Dense  grid:  1467957 G-vectors     FFT dimensions: (  64,  64, 750)

     Smooth grid:   282791 G-vectors     FFT dimensions: (  40,  36, 432)

     Estimated max dynamical RAM per process >     468.50 MB

     Estimated total dynamical RAM >       9.15 GB

     Initial potential from superposition of free atoms

     starting charge  226.84630, renormalised to  227.00000

     negative rho (up, down):  3.491E-03 0.000E+00
     Starting wfcs are  195 randomized atomic wfcs

     total cpu time spent up to now is        9.6 secs

     Self-consistent Calculation

     iteration #  1     ecut=    60.00 Ry     beta= 0.50
     Davidson diagonalization with overlap
     ethr =  1.00E-02,  avg # of iterations =  2.0

     negative rho (up, down):  5.183E-04 0.000E+00

     total cpu time spent up to now is       24.9 secs

     total energy              =   -1840.97017199 Ry
     Harris-Foulkes estimate   =   -1845.30564814 Ry
     estimated scf accuracy    <      17.62122728 Ry

     iteration #  2     ecut=    60.00 Ry     beta= 0.50
     Davidson diagonalization with overlap
     ethr =  7.76E-03,  avg # of iterations =  2.0

     negative rho (up, down):  2.870E-04 0.000E+00

     total cpu time spent up to now is       40.8 secs

     total energy              =   -1842.54722485 Ry
     Harris-Foulkes estimate   =   -1843.19316118 Ry
     estimated scf accuracy    <       6.19008899 Ry

     iteration #  3     ecut=    60.00 Ry     beta= 0.50
     Davidson diagonalization with overlap
     ethr =  2.73E-03,  avg # of iterations =  1.0

     negative rho (up, down):  2.650E-04 0.000E+00

     total cpu time spent up to now is       54.6 secs

     total energy              =   -1842.74790963 Ry
     Harris-Foulkes estimate   =   -1842.93374151 Ry
     estimated scf accuracy    <       4.37711792 Ry

     iteration #  4     ecut=    60.00 Ry     beta= 0.50
     Davidson diagonalization with overlap
     ethr =  1.93E-03,  avg # of iterations =  1.0

     negative rho (up, down):  2.545E-04 0.000E+00

     total cpu time spent up to now is       68.7 secs

     total energy              =   -1842.72409721 Ry
     Harris-Foulkes estimate   =   -1842.85544917 Ry
     estimated scf accuracy    <       1.27284536 Ry

     iteration #  5     ecut=    60.00 Ry     beta= 0.50
     Davidson diagonalization with overlap
     ethr =  5.61E-04,  avg # of iterations =  4.5

     negative rho (up, down):  2.505E-04 0.000E+00

     total cpu time spent up to now is       86.7 secs

     total energy              =   -1842.75260377 Ry
     Harris-Foulkes estimate   =   -1842.78248114 Ry
     estimated scf accuracy    <       1.56243776 Ry

     iteration #  6     ecut=    60.00 Ry     beta= 0.50
     Davidson diagonalization with overlap
     ethr =  5.61E-04,  avg # of iterations =  1.3

     negative rho (up, down):  2.373E-04 0.000E+00

     total cpu time spent up to now is      101.1 secs

     total energy              =   -1842.70758158 Ry
     Harris-Foulkes estimate   =   -1842.76523516 Ry
     estimated scf accuracy    <       0.98353752 Ry

     iteration #  7     ecut=    60.00 Ry     beta= 0.50
     Davidson diagonalization with overlap
     ethr =  4.33E-04,  avg # of iterations =  5.2

     negative rho (up, down):  2.309E-04 0.000E+00

     total cpu time spent up to now is      120.1 secs

     total energy              =   -1842.70708962 Ry
     Harris-Foulkes estimate   =   -1842.72797054 Ry
     estimated scf accuracy    <       0.77560487 Ry

     iteration #  8     ecut=    60.00 Ry     beta= 0.50
     Davidson diagonalization with overlap
     ethr =  3.42E-04,  avg # of iterations =  3.3

     negative rho (up, down):  2.278E-04 0.000E+00

     total cpu time spent up to now is      137.1 secs

     total energy              =   -1842.71310339 Ry
     Harris-Foulkes estimate   =   -1842.72253362 Ry
     estimated scf accuracy    <       0.53794696 Ry

     iteration #  9     ecut=    60.00 Ry     beta= 0.50
     Davidson diagonalization with overlap
     ethr =  2.37E-04,  avg # of iterations =  3.0

     negative rho (up, down):  2.285E-04 0.000E+00

     total cpu time spent up to now is      153.2 secs

     total energy              =   -1842.70672442 Ry
     Harris-Foulkes estimate   =   -1842.71753740 Ry
     estimated scf accuracy    <       0.12560626 Ry

     iteration # 10     ecut=    60.00 Ry     beta= 0.50
     Davidson diagonalization with overlap
     c_bands:  1 eigenvalues not converged
     ethr =  5.53E-05,  avg # of iterations =  6.8

     negative rho (up, down):  2.292E-04 0.000E+00

     total cpu time spent up to now is      174.0 secs

     total energy              =   -1842.70525718 Ry
     Harris-Foulkes estimate   =   -1842.71042006 Ry
     estimated scf accuracy    <       0.12790401 Ry

     iteration # 11     ecut=    60.00 Ry     beta= 0.50
     Davidson diagonalization with overlap
     ethr =  5.53E-05,  avg # of iterations =  1.2

     negative rho (up, down):  2.281E-04 0.000E+00

     total cpu time spent up to now is      188.0 secs

     total energy              =   -1842.70543841 Ry
     Harris-Foulkes estimate   =   -1842.70686449 Ry
     estimated scf accuracy    <       0.06397897 Ry

     iteration # 12     ecut=    60.00 Ry     beta= 0.50
     Davidson diagonalization with overlap
     ethr =  2.82E-05,  avg # of iterations =  2.8

     negative rho (up, down):  2.277E-04 0.000E+00

     total cpu time spent up to now is      203.7 secs

     total energy              =   -1842.70509739 Ry
     Harris-Foulkes estimate   =   -1842.70586206 Ry
     estimated scf accuracy    <       0.03801924 Ry

     iteration # 13     ecut=    60.00 Ry     beta= 0.50
     Davidson diagonalization with overlap
     ethr =  1.67E-05,  avg # of iterations =  3.5

     negative rho (up, down):  2.277E-04 0.000E+00

     total cpu time spent up to now is      220.3 secs

     total energy              =   -1842.70432861 Ry
     Harris-Foulkes estimate   =   -1842.70528350 Ry
     estimated scf accuracy    <       0.03775338 Ry

     iteration # 14     ecut=    60.00 Ry     beta= 0.50
     Davidson diagonalization with overlap
     ethr =  1.66E-05,  avg # of iterations =  2.0

     negative rho (up, down):  2.291E-04 0.000E+00

     total cpu time spent up to now is      235.1 secs

     total energy              =   -1842.70394931 Ry
     Harris-Foulkes estimate   =   -1842.70446728 Ry
     estimated scf accuracy    <       0.03846978 Ry

     iteration # 15     ecut=    60.00 Ry     beta= 0.50
     Davidson diagonalization with overlap
     ethr =  1.66E-05,  avg # of iterations =  1.3

     negative rho (up, down):  2.601E-04 0.000E+00

     total cpu time spent up to now is      249.4 secs

     total energy              =   -1842.70272170 Ry
     Harris-Foulkes estimate   =   -1842.70408930 Ry
     estimated scf accuracy    <       0.04722411 Ry

     iteration # 16     ecut=    60.00 Ry     beta= 0.50
     Davidson diagonalization with overlap
     ethr =  1.66E-05,  avg # of iterations =  1.5

     negative rho (up, down):  1.367E-03 0.000E+00

     total cpu time spent up to now is      263.7 secs

     total energy              =   -1842.70156340 Ry
     Harris-Foulkes estimate   =   -1842.70285777 Ry
     estimated scf accuracy    <       0.02323114 Ry

     iteration # 17     ecut=    60.00 Ry     beta= 0.50
     Davidson diagonalization with overlap
     c_bands:  1 eigenvalues not converged
     ethr =  1.02E-05,  avg # of iterations =  7.1

     negative rho (up, down):  3.177E-03 0.000E+00

     total cpu time spent up to now is      284.5 secs

     total energy              =   -1842.70103343 Ry
     Harris-Foulkes estimate   =   -1842.70171238 Ry
     estimated scf accuracy    <       0.00866962 Ry

     iteration # 18     ecut=    60.00 Ry     beta= 0.50
     Davidson diagonalization with overlap
     c_bands:  1 eigenvalues not converged
     ethr =  3.82E-06,  avg # of iterations = 10.8

     negative rho (up, down):  6.203E-03 0.000E+00

     total cpu time spent up to now is      310.0 secs

     total energy              =   -1842.70020858 Ry
     Harris-Foulkes estimate   =   -1842.70113170 Ry
     estimated scf accuracy    <       0.00702319 Ry

     iteration # 19     ecut=    60.00 Ry     beta= 0.50
     Davidson diagonalization with overlap
     ethr =  3.09E-06,  avg # of iterations =  7.8

     negative rho (up, down):  2.517E-03 0.000E+00

     total cpu time spent up to now is      332.4 secs

     total energy              =   -1842.70017267 Ry
     Harris-Foulkes estimate   =   -1842.70036838 Ry
     estimated scf accuracy    <       0.00166818 Ry

     iteration # 20     ecut=    60.00 Ry     beta= 0.50
     Davidson diagonalization with overlap
     ethr =  7.35E-07,  avg # of iterations =  5.4

     negative rho (up, down):  3.403E-03 0.000E+00

     total cpu time spent up to now is      351.6 secs

     total energy              =   -1842.70019926 Ry
     Harris-Foulkes estimate   =   -1842.70021867 Ry
     estimated scf accuracy    <       0.00133810 Ry

     iteration # 21     ecut=    60.00 Ry     beta= 0.50
     Davidson diagonalization with overlap
     c_bands:  1 eigenvalues not converged
     ethr =  5.89E-07,  avg # of iterations =  4.5

     negative rho (up, down):  8.940E-04 0.000E+00

     total cpu time spent up to now is      369.5 secs

     total energy              =   -1842.70021419 Ry
     Harris-Foulkes estimate   =   -1842.70022782 Ry
     estimated scf accuracy    <       0.00150164 Ry

     iteration # 22     ecut=    60.00 Ry     beta= 0.50
     Davidson diagonalization with overlap
     c_bands:  1 eigenvalues not converged
     ethr =  5.89E-07,  avg # of iterations =  5.2

     negative rho (up, down):  1.114E-03 0.000E+00

     total cpu time spent up to now is      388.2 secs

     total energy              =   -1842.70024434 Ry
     Harris-Foulkes estimate   =   -1842.70023392 Ry
     estimated scf accuracy    <       0.00042080 Ry

     iteration # 23     ecut=    60.00 Ry     beta= 0.50
     Davidson diagonalization with overlap
     ethr =  1.85E-07,  avg # of iterations =  4.7

     negative rho (up, down):  1.223E-03 0.000E+00

     total cpu time spent up to now is      406.7 secs

     total energy              =   -1842.70025274 Ry
     Harris-Foulkes estimate   =   -1842.70025120 Ry
     estimated scf accuracy    <       0.00005327 Ry

     iteration # 24     ecut=    60.00 Ry     beta= 0.50
     Davidson diagonalization with overlap
     ethr =  2.35E-08,  avg # of iterations =  2.2

     negative rho (up, down):  1.371E-03 0.000E+00

     total cpu time spent up to now is      422.0 secs

     total energy              =   -1842.70025511 Ry
     Harris-Foulkes estimate   =   -1842.70025618 Ry
     estimated scf accuracy    <       0.00006692 Ry

     iteration # 25     ecut=    60.00 Ry     beta= 0.50
     Davidson diagonalization with overlap
     ethr =  2.35E-08,  avg # of iterations =  1.0

     negative rho (up, down):  1.337E-03 0.000E+00

     total cpu time spent up to now is      436.2 secs

     total energy              =   -1842.70025574 Ry
     Harris-Foulkes estimate   =   -1842.70025631 Ry
     estimated scf accuracy    <       0.00003224 Ry

     iteration # 26     ecut=    60.00 Ry     beta= 0.50
     Davidson diagonalization with overlap
     ethr =  1.42E-08,  avg # of iterations =  1.0

     negative rho (up, down):  1.416E-03 0.000E+00

     total cpu time spent up to now is      449.9 secs

     total energy              =   -1842.70025613 Ry
     Harris-Foulkes estimate   =   -1842.70025657 Ry
     estimated scf accuracy    <       0.00001050 Ry

     iteration # 27     ecut=    60.00 Ry     beta= 0.50
     Davidson diagonalization with overlap
     ethr =  4.62E-09,  avg # of iterations =  1.7

     negative rho (up, down):  1.432E-03 0.000E+00

     total cpu time spent up to now is      464.8 secs

     total energy              =   -1842.70025619 Ry
     Harris-Foulkes estimate   =   -1842.70025644 Ry
     estimated scf accuracy    <       0.00000395 Ry

     iteration # 28     ecut=    60.00 Ry     beta= 0.50
     Davidson diagonalization with overlap
     ethr =  1.74E-09,  avg # of iterations =  2.0

     negative rho (up, down):  1.393E-03 0.000E+00

     total cpu time spent up to now is      479.7 secs

     total energy              =   -1842.70025636 Ry
     Harris-Foulkes estimate   =   -1842.70025635 Ry
     estimated scf accuracy    <       0.00000168 Ry

     iteration # 29     ecut=    60.00 Ry     beta= 0.50
     Davidson diagonalization with overlap
     ethr =  7.39E-10,  avg # of iterations =  1.4

     negative rho (up, down):  1.435E-03 0.000E+00

     total cpu time spent up to now is      494.1 secs

     total energy              =   -1842.70025628 Ry
     Harris-Foulkes estimate   =   -1842.70025642 Ry
     estimated scf accuracy    <       0.00000069 Ry

     iteration # 30     ecut=    60.00 Ry     beta= 0.50
     Davidson diagonalization with overlap
     ethr =  3.05E-10,  avg # of iterations =  1.6

     negative rho (up, down):  1.444E-03 0.000E+00

     total cpu time spent up to now is      508.6 secs

     total energy              =   -1842.70025627 Ry
     Harris-Foulkes estimate   =   -1842.70025631 Ry
     estimated scf accuracy    <       0.00000035 Ry

     iteration # 31     ecut=    60.00 Ry     beta= 0.50
     Davidson diagonalization with overlap
     ethr =  1.56E-10,  avg # of iterations =  1.6

     negative rho (up, down):  1.454E-03 0.000E+00

     total cpu time spent up to now is      523.4 secs

     total energy              =   -1842.70025626 Ry
     Harris-Foulkes estimate   =   -1842.70025628 Ry
     estimated scf accuracy    <       0.00000021 Ry

     iteration # 32     ecut=    60.00 Ry     beta= 0.50
     Davidson diagonalization with overlap
     ethr =  9.08E-11,  avg # of iterations =  1.2

     negative rho (up, down):  1.451E-03 0.000E+00

     total cpu time spent up to now is      537.6 secs

     total energy              =   -1842.70025627 Ry
     Harris-Foulkes estimate   =   -1842.70025627 Ry
     estimated scf accuracy    <       0.00000011 Ry

     iteration # 33     ecut=    60.00 Ry     beta= 0.50
     Davidson diagonalization with overlap
     ethr =  4.98E-11,  avg # of iterations =  1.2

     negative rho (up, down):  1.460E-03 0.000E+00

     total cpu time spent up to now is      551.9 secs

     total energy              =   -1842.70025626 Ry
     Harris-Foulkes estimate   =   -1842.70025627 Ry
     estimated scf accuracy    <       0.00000005 Ry

     iteration # 34     ecut=    60.00 Ry     beta= 0.50
     Davidson diagonalization with overlap
     ethr =  2.07E-11,  avg # of iterations =  1.5

     negative rho (up, down):  1.464E-03 0.000E+00

     total cpu time spent up to now is      566.5 secs

     total energy              =   -1842.70025625 Ry
     Harris-Foulkes estimate   =   -1842.70025626 Ry
     estimated scf accuracy    <       0.00000002 Ry

     iteration # 35     ecut=    60.00 Ry     beta= 0.50
     Davidson diagonalization with overlap
     ethr =  8.74E-12,  avg # of iterations =  2.0

     negative rho (up, down):  1.459E-03 0.000E+00

     total cpu time spent up to now is      582.0 secs

     total energy              =   -1842.70025626 Ry
     Harris-Foulkes estimate   =   -1842.70025625 Ry
     estimated scf accuracy    <       0.00000001 Ry

     iteration # 36     ecut=    60.00 Ry     beta= 0.50
     Davidson diagonalization with overlap
     ethr =  4.46E-12,  avg # of iterations =  2.3

     negative rho (up, down):  1.461E-03 0.000E+00

     total cpu time spent up to now is      596.9 secs

     End of self-consistent calculation

          k = 0.0000 0.0000 0.0000 ( 35431 PWs)   bands (ev):

   -38.7505 -35.6350 -22.8931 -22.8392 -22.6945 -22.5806 -19.8177 -19.7442
   -19.7264 -17.1393 -16.6862 -16.6748 -15.7910 -15.3497 -14.9926 -14.9076
   -14.7196 -14.6842 -14.6475 -14.6205 -14.2295 -14.2112 -14.0302 -13.8720
   -13.8283 -13.6997 -13.6655  -8.1099  -7.9705  -7.9330  -7.9162  -7.8057
    -7.7677  -7.7641  -7.7618  -7.7401  -7.6256  -7.6074  -7.4595  -2.3974
    -2.3781  -2.3525  -2.3444  -2.3137  -1.8780  -1.8526  -1.8149  -1.7164
    -1.5871  -1.5322  -1.5222  -1.2684  -1.2506  -1.1817  -1.1586  -1.1043
    -0.9118  -0.7354  -0.6742  -0.6698  -0.5066  -0.4777  -0.4246  -0.3679
    -0.3582  -0.3127  -0.2988  -0.2933  -0.2734  -0.2524  -0.2370  -0.2341
    -0.2191  -0.1612  -0.0852  -0.0436  -0.0217   0.0507   0.0509   0.0533
     0.0646   0.1202   0.1253   0.1445   0.1931   0.2597   0.2753   0.3174
     0.3393   0.6791   0.7501   0.7586   0.8339   0.8690   0.9040   0.9116
     1.0239   1.0802   1.1358   1.3010   1.3178   1.4156   1.4615   1.4735
     1.4830   1.5326   1.6301   1.6553   1.7786   1.9840   2.0070   2.0495
     2.0701   2.0883   2.2040   2.2065   2.2201   2.4763   2.4878   3.1810
     5.1673   5.1792   5.5485   5.8172   6.0131   6.3149   6.7158   6.8603
     6.9868   7.0933   7.2342   7.3487   7.4032   7.9074   7.9904   8.0944
     8.3088

          k = 0.0000 0.1320 0.0000 ( 35365 PWs)   bands (ev):

   -38.7490 -35.6332 -22.8678 -22.8126 -22.6676 -22.5552 -19.8192 -19.7617
   -19.7246 -17.1032 -16.7473 -16.6839 -15.7360 -15.2611 -14.9439 -14.8535
   -14.7247 -14.6782 -14.6752 -14.5932 -14.2390 -14.2174 -14.0356 -13.9180
   -13.8760 -13.7565 -13.6980  -8.1080  -7.9701  -7.8852  -7.8721  -7.8150
    -7.7823  -7.7671  -7.7573  -7.7563  -7.6483  -7.5804  -7.5073  -2.6869
    -2.4370  -2.3845  -2.3541  -2.2739  -2.2146  -2.1049  -1.9155  -1.7783
    -1.6973  -1.6961  -1.6923  -1.6710  -1.5694  -1.3989  -1.1993  -1.1844
    -1.0598  -0.7612  -0.7301  -0.6770  -0.6623  -0.6040  -0.5669  -0.5525
    -0.5090  -0.4599  -0.4153  -0.3898  -0.3867  -0.2591  -0.2117  -0.1959
    -0.1798  -0.1270  -0.0638  -0.0582  -0.0415  -0.0256   0.0438   0.0553
     0.0744   0.0941   0.1278   0.1289   0.2201   0.2290   0.3210   0.4069
     0.4774   0.6415   0.7935   0.8926   0.9258   1.0078   1.0310   1.0807
     1.0985   1.1393   1.1433   1.3289   1.3776   1.4074   1.4404   1.4742
     1.5061   1.5418   1.5922   1.6380   1.7659   1.8810   1.9261   1.9856
     1.9987   2.0802   2.1403   2.4019   2.7388   2.7856   2.8094   3.3618
     5.5328   5.5450   5.7219   6.0588   6.0978   6.5252   6.8222   7.0196
     7.1475   7.2323   7.4050   7.4858   7.5692   8.1043   8.2453   8.2919
     8.4879

          k = 0.0000 0.2640 0.0000 ( 35261 PWs)   bands (ev):

   -38.7455 -35.6288 -22.8055 -22.7467 -22.6012 -22.4924 -19.8562 -19.7697
   -19.7203 -17.0111 -16.9016 -16.6782 -15.5861 -15.0614 -14.8756 -14.7823
   -14.7735 -14.7059 -14.6248 -14.5313 -14.2264 -14.1966 -14.0753 -14.0499
   -13.9799 -13.8642 -13.7886  -8.1039  -7.9697  -7.9177  -7.8727  -7.7668
    -7.7647  -7.7615  -7.7522  -7.7357  -7.6352  -7.6108  -7.4671  -3.1590
    -2.8827  -2.7787  -2.6577  -2.6505  -2.4766  -2.4291  -2.3292  -2.3073
    -2.3014  -2.1552  -1.8319  -1.6423  -1.5598  -1.5131  -1.4450  -1.3318
    -1.1937  -1.1115  -1.0208  -0.9608  -0.9167  -0.8553  -0.8060  -0.8011
    -0.7146  -0.6998  -0.6285  -0.5845  -0.5683  -0.5453  -0.5412  -0.4981
    -0.3661  -0.1924  -0.0904  -0.0390  -0.0355   0.0026   0.0161   0.0470
     0.1196   0.1427   0.1625   0.3173   0.3720   0.5693   0.6497   0.7015
     0.8385   0.8566   0.9040   0.9263   1.0760   1.1036   1.1164   1.1517
     1.1629   1.1681   1.1858   1.2597   1.3134   1.3425   1.4639   1.5812
     1.6003   1.6217   1.7240   1.8245   1.8838   1.9162   1.9255   1.9413
     2.1036   2.1278   2.1416   2.5205   2.9919   3.0461   3.6316   3.7592
     5.9067   6.1896   6.4388   6.4772   6.5246   6.6894   7.2600   7.4278
     7.4797   7.8402   7.9584   8.1433   8.3056   8.6073   8.7005   8.7456
     8.8583

          k = 0.0000 0.3960 0.0000 ( 35206 PWs)   bands (ev):

   -38.7419 -35.6244 -22.7411 -22.6785 -22.5325 -22.4276 -19.9125 -19.7570
   -19.7161 -17.0379 -16.9095 -16.6726 -15.3799 -14.9825 -14.9493 -14.9299
   -14.7315 -14.5506 -14.4693 -14.4367 -14.1977 -14.1566 -14.1405 -14.1335
   -14.1266 -13.9362 -13.9320  -8.0976  -8.0094  -7.9696  -7.9509  -7.8153
    -7.7623  -7.7475  -7.7007  -7.6444  -7.6363  -7.5049  -7.3468  -3.5713
    -3.4681  -3.3368  -3.1476  -3.1077  -3.0435  -3.0066  -2.4200  -2.3955
    -2.3490  -2.1218  -1.9625  -1.8607  -1.7359  -1.5821  -1.5770  -1.4229
    -1.3046  -1.2299  -1.2078  -1.1846  -1.1237  -1.1203  -1.0575  -1.0239
    -0.9389  -0.9119  -0.8711  -0.7988  -0.7804  -0.7780  -0.7571  -0.5777
    -0.3850  -0.2953  -0.2607  -0.1168  -0.0186   0.0213   0.0701   0.0771
     0.1027   0.1133   0.1256   0.4435   0.6834   0.7335   0.8119   0.8583
     0.8804   0.9125   0.9197   0.9850   1.0437   1.0602   1.0874   1.1238
     1.1998   1.3101   1.3587   1.4399   1.4765   1.5556   1.5704   1.6774
     1.6989   1.7083   1.8536   1.9161   1.9349   2.0115   2.0955   2.1876
     2.2037   2.3197   2.3392   2.4512   2.8862   2.9516   4.1683   4.2649
     5.8225   6.2870   6.4598   7.2988   7.3867   7.4383   7.5351   7.7199
     8.2124   8.3371   8.6307   8.7033   8.7662   9.0316   9.0418   9.0612
     9.3235

          k = 0.0000-0.5279 0.0000 ( 35270 PWs)   bands (ev):

   -38.7405 -35.6225 -22.7138 -22.6495 -22.5034 -22.4002 -19.9367 -19.7505
   -19.7143 -17.0901 -16.8645 -16.6702 -15.1783 -15.1382 -15.0248 -14.9742
   -14.6173 -14.5440 -14.3237 -14.3063 -14.2700 -14.2169 -14.1758 -14.1205
   -14.0984 -14.0659 -13.9732  -8.0898  -8.0491  -7.9806  -7.9692  -7.8438
    -7.7617  -7.7418  -7.7385  -7.5937  -7.5804  -7.4481  -7.2947  -3.7891
    -3.6665  -3.5155  -3.3469  -3.2860  -3.2638  -3.2295  -2.4361  -2.4128
    -2.3617  -2.2427  -1.9895  -1.8750  -1.7759  -1.6470  -1.5575  -1.5439
    -1.3671  -1.3168  -1.2489  -1.2447  -1.2152  -1.1707  -1.1216  -1.1170
    -1.0467  -1.0286  -0.9866  -0.8853  -0.8655  -0.8333  -0.7890  -0.6038
    -0.3956  -0.3506  -0.2668  -0.1560  -0.0129   0.0276   0.0703   0.0958
     0.0969   0.1215   0.1230   0.3736   0.6286   0.7654   0.7923   0.8082
     0.8193   0.9374   0.9773   1.0704   1.0977   1.1059   1.1672   1.1745
     1.2669   1.3164   1.4171   1.4273   1.5102   1.6728   1.6890   1.7737
     1.8123   1.8554   1.9647   1.9715   2.0162   2.0163   2.1126   2.1774
     2.2149   2.4332   2.4813   2.4999   2.7087   2.7838   4.3234   4.5721
     5.6627   6.1991   6.6053   7.5566   7.5703   7.7985   7.8724   7.9885
     8.1849   8.3995   8.8617   8.9235   8.9579   9.1313   9.2018   9.2620
     9.2823

          k = 0.1250 0.0000 0.0000 ( 35357 PWs)   bands (ev):

   -38.7497 -35.6339 -22.8762 -22.8212 -22.6763 -22.5634 -19.8175 -19.7433
   -19.7416 -17.1059 -16.7665 -16.6734 -15.7442 -15.2475 -14.9620 -14.9310
   -14.7652 -14.7140 -14.6730 -14.6257 -14.2385 -14.2191 -14.0421 -13.8991
   -13.8790 -13.7284 -13.6959  -8.1420  -7.9963  -7.8717  -7.8688  -7.8201
    -7.7850  -7.7346  -7.7168  -7.7076  -7.5744  -7.5648  -7.4290  -2.5247
    -2.4207  -2.3828  -2.3627  -2.3227  -1.9205  -1.8625  -1.8557  -1.8150
    -1.7862  -1.5210  -1.5024  -1.5009  -1.2663  -1.2485  -1.1954  -1.1259
    -0.9428  -0.8148  -0.7929  -0.7151  -0.6644  -0.5622  -0.5347  -0.4667
    -0.4639  -0.4297  -0.3873  -0.3673  -0.3472  -0.3164  -0.2472  -0.2446
    -0.2269  -0.1474  -0.1377  -0.0987   0.0076   0.0437   0.0582   0.0748
     0.1465   0.1629   0.1723   0.1760   0.2515   0.2883   0.3298   0.3726
     0.3882   0.5978   0.7418   0.7821   0.7920   0.8500   0.9330   0.9622
     1.1257   1.1383   1.1622   1.2907   1.3180   1.3901   1.4350   1.4852
     1.4981   1.5603   1.6314   1.8074   1.8797   1.9240   1.9482   2.0548
     2.1101   2.1347   2.1376   2.1823   2.2696   2.5225   2.5526   3.3367
     5.3485   5.3581   5.6536   5.9202   6.1063   6.4748   6.9083   6.9294
     7.0466   7.1055   7.3001   7.4277   7.5857   8.0765   8.2013   8.2354
     8.4774

          k = 0.1250 0.1320 0.0000 ( 35338 PWs)   bands (ev):

   -38.7483 -35.6321 -22.8516 -22.7953 -22.6502 -22.5387 -19.8185 -19.7635
   -19.7375 -17.0708 -16.7695 -16.7366 -15.6908 -15.1662 -14.9208 -14.8744
   -14.7595 -14.6993 -14.6922 -14.5958 -14.2395 -14.2173 -14.0478 -13.9323
   -13.9206 -13.7760 -13.7256  -8.1352  -8.0156  -7.9673  -7.9335  -7.8667
    -7.7876  -7.7491  -7.6890  -7.6699  -7.6565  -7.5374  -7.3883  -2.7158
    -2.4738  -2.4298  -2.4088  -2.3378  -2.2002  -2.0837  -1.8996  -1.8969
    -1.8320  -1.7713  -1.6886  -1.6856  -1.6701  -1.5040  -1.4049  -1.2364
    -1.0804  -0.9473  -0.8526  -0.7954  -0.7346  -0.7092  -0.6831  -0.5942
    -0.5900  -0.5603  -0.5491  -0.5169  -0.3412  -0.3152  -0.2562  -0.1945
    -0.1847  -0.1638  -0.0987  -0.0710  -0.0377  -0.0215  -0.0020   0.1027
     0.1240   0.1262   0.1638   0.1764   0.2352   0.2411   0.4673   0.4808
     0.6402   0.7068   0.7659   0.8883   0.9811   1.0057   1.0271   1.0858
     1.1724   1.1967   1.2182   1.2350   1.2721   1.4055   1.4271   1.5435
     1.5459   1.5779   1.5816   1.6136   1.7034   1.8455   1.8831   2.0874
     2.2390   2.2974   2.5008   2.5288   2.7562   2.7966   2.8202   3.4684
     5.6734   5.6874   5.8090   6.0684   6.2042   6.6765   6.7389   7.2104
     7.2264   7.3149   7.3722   7.6830   7.7773   8.2533   8.4066   8.4468
     8.6369

          k = 0.1250 0.2640 0.0000 ( 35247 PWs)   bands (ev):

   -38.7447 -35.6277 -22.7910 -22.7315 -22.5859 -22.4777 -19.8543 -19.7749
   -19.7307 -16.9816 -16.8986 -16.7491 -15.5455 -14.9921 -14.8685 -14.7878
   -14.7599 -14.7220 -14.6033 -14.5259 -14.2218 -14.1903 -14.0972 -14.0433
   -13.9856 -13.8724 -13.8074  -8.1222  -8.0956  -8.0846  -7.9705  -7.9510
    -7.8014  -7.7665  -7.7633  -7.6733  -7.6604  -7.5281  -7.3828  -3.1941
    -2.9056  -2.7674  -2.6668  -2.6593  -2.4771  -2.4242  -2.3789  -2.3286
    -2.2994  -2.2683  -1.8512  -1.8285  -1.7479  -1.5641  -1.4925  -1.4585
    -1.3635  -1.2471  -1.0885  -1.0621  -1.0296  -0.9460  -0.9106  -0.8508
    -0.8267  -0.7419  -0.7220  -0.6946  -0.6468  -0.6172  -0.5490  -0.5285
    -0.3722  -0.2035  -0.1788  -0.1144  -0.1117   0.0218   0.0823   0.1251
     0.1515   0.2409   0.3417   0.4472   0.5061   0.6735   0.7079   0.7409
     0.7529   0.9574   0.9744   1.0027   1.0538   1.1257   1.1354   1.2547
     1.2688   1.3111   1.3277   1.3396   1.3634   1.4311   1.4694   1.5480
     1.5523   1.5956   1.6287   1.8542   1.8889   1.9230   1.9519   2.1313
     2.4202   2.4964   2.6824   2.7289   3.0027   3.0608   3.6390   3.8197
     5.9675   6.1931   6.4081   6.4998   6.5384   6.6815   7.3389   7.3860
     7.4317   8.0048   8.1087   8.3406   8.4811   8.7067   8.7798   8.8482
     8.9305

          k = 0.1250 0.3960 0.0000 ( 35256 PWs)   bands (ev):

   -38.7412 -35.6233 -22.7285 -22.6655 -22.5195 -22.4149 -19.9106 -19.7654
   -19.7230 -17.0328 -16.8829 -16.7406 -15.3464 -14.9476 -14.9400 -14.9013
   -14.6575 -14.5405 -14.4569 -14.4137 -14.1924 -14.1773 -14.1312 -14.1308
   -14.1104 -13.9341 -13.9307  -8.1627  -8.1150  -8.1079  -7.9820  -7.9799
    -7.8557  -7.7805  -7.7760  -7.7056  -7.6943  -7.5728  -7.4223  -3.6154
    -3.4698  -3.3774  -3.1646  -3.1365  -3.0351  -3.0014  -2.4282  -2.3998
    -2.3784  -2.2006  -2.0003  -1.8405  -1.7043  -1.6832  -1.6633  -1.6618
    -1.5424  -1.3890  -1.3759  -1.2508  -1.2183  -1.1627  -1.1214  -1.0875
    -0.9535  -0.9470  -0.9208  -0.8796  -0.8486  -0.8090  -0.7954  -0.7863
    -0.4227  -0.2670  -0.1845  -0.1383  -0.0931   0.0487   0.0706   0.1558
     0.1610   0.3184   0.3817   0.6119   0.6319   0.7918   0.8531   0.9165
     0.9221   1.0062   1.0612   1.0749   1.1323   1.1754   1.1834   1.2413
     1.3244   1.3823   1.3981   1.4880   1.6029   1.6117   1.6715   1.7006
     1.7471   1.8149   1.8984   1.9987   2.0890   2.2725   2.2869   2.3066
     2.4025   2.4455   2.5905   2.6627   2.9445   3.0052   4.1498   4.3134
     5.8670   6.1639   6.4865   7.0308   7.2511   7.3129   7.4828   7.7294
     8.0837   8.4101   8.6144   8.7085   8.8514   8.8975   9.0937   9.3263
     9.4543

          k = 0.1250-0.5279 0.0000 ( 35232 PWs)   bands (ev):

   -38.7397 -35.6215 -22.7021 -22.6376 -22.4913 -22.3883 -19.9348 -19.7606
   -19.7195 -17.0844 -16.8395 -16.7368 -15.1429 -15.1273 -14.9801 -14.9319
   -14.5447 -14.5049 -14.3228 -14.2852 -14.2651 -14.2085 -14.1902 -14.1214
   -14.0973 -14.0479 -13.9573  -8.1723  -8.1097  -8.1061  -7.9868  -7.9731
    -7.8655  -7.7988  -7.7814  -7.7399  -7.7026  -7.6066  -7.4477  -3.8062
    -3.7062  -3.5641  -3.3656  -3.3147  -3.2634  -3.2280  -2.4492  -2.4225
    -2.3862  -2.1667  -1.9397  -1.9317  -1.8706  -1.7438  -1.6726  -1.6214
    -1.5671  -1.5045  -1.4139  -1.3473  -1.3136  -1.2518  -1.2482  -1.1150
    -1.0497  -0.9962  -0.9931  -0.9633  -0.9177  -0.8984  -0.8842  -0.8179
    -0.4134  -0.2853  -0.1871  -0.1360  -0.0687   0.0166   0.0666   0.1651
     0.1730   0.3581   0.3826   0.5953   0.6409   0.7821   0.8832   0.9074
     0.9251   0.9778   0.9809   1.1391   1.1416   1.2175   1.2980   1.3017
     1.3845   1.4100   1.4367   1.4457   1.7284   1.7301   1.8169   1.9594
     1.9831   1.9923   2.0079   2.1672   2.2605   2.2754   2.2990   2.3904
     2.4183   2.4522   2.4731   2.5072   2.8226   2.8671   4.2893   4.6119
     5.7086   6.0967   6.6256   7.1228   7.4726   7.5060   7.5531   8.1297
     8.2165   8.2878   8.4897   9.0040   9.0689   9.2577   9.3169   9.3211
     9.4798

          k = 0.2500 0.0000 0.0000 ( 35374 PWs)   bands (ev):

   -38.7478 -35.6313 -22.8346 -22.7769 -22.6314 -22.5211 -19.8312 -19.7635
   -19.7410 -17.0206 -16.9307 -16.6701 -15.6196 -15.0497 -14.9974 -14.9592
   -14.8468 -14.7502 -14.7115 -14.6494 -14.2527 -14.2287 -14.0922 -14.0188
   -13.9288 -13.7850 -13.7802  -8.1775  -7.9978  -7.8189  -7.8084  -7.7846
    -7.7637  -7.6615  -7.6421  -7.6269  -7.4922  -7.4810  -7.3534  -2.8703
    -2.6140  -2.4891  -2.4367  -2.2617  -2.2577  -2.2351  -2.0609  -1.7950
    -1.7656  -1.6966  -1.5200  -1.4394  -1.3047  -1.2630  -1.2448  -1.1897
    -1.1098  -1.0467  -1.0304  -0.9934  -0.9099  -0.8175  -0.8130  -0.6866
    -0.6571  -0.5788  -0.5609  -0.5371  -0.4434  -0.3580  -0.2990  -0.2880
    -0.2765  -0.2603  -0.2431  -0.2266  -0.0706   0.0310   0.0450   0.1364
     0.1966   0.2054   0.2757   0.3008   0.3457   0.3998   0.4078   0.4969
     0.5698   0.6055   0.6126   0.8450   0.9124   0.9726   0.9870   1.0297
     1.0371   1.2318   1.2521   1.2596   1.3362   1.3698   1.4011   1.4253
     1.5268   1.6329   1.6742   1.7767   1.8384   1.8846   1.9873   1.9894
     2.1448   2.1927   2.2155   2.3154   2.4392   2.6304   2.7066   3.7079
     5.7607   5.8062   5.8154   5.9542   6.4113   6.7507   6.9961   7.2421
     7.4644   7.5064   7.6243   7.8173   8.0206   8.4364   8.5660   8.5923
     8.7779

          k = 0.2500 0.1320 0.0000 ( 35315 PWs)   bands (ev):

   -38.7464 -35.6295 -22.8118 -22.7530 -22.6074 -22.4982 -19.8293 -19.7782
   -19.7451 -16.9885 -16.9243 -16.7363 -15.5704 -14.9993 -14.9341 -14.9298
   -14.7979 -14.7638 -14.6624 -14.6141 -14.2385 -14.2139 -14.0896 -14.0230
   -13.9633 -13.8121 -13.8009  -8.1914  -8.0664  -7.9748  -7.9213  -7.9187
    -7.8323  -7.7338  -7.6679  -7.6118  -7.5933  -7.4604  -7.3199  -2.9551
    -2.6640  -2.5099  -2.4937  -2.4639  -2.2498  -2.2249  -2.1412  -2.0528
    -2.0053  -1.8471  -1.7793  -1.6772  -1.6573  -1.6520  -1.4662  -1.3770
    -1.3103  -1.1852  -1.1248  -1.0632  -0.9988  -0.9322  -0.8562  -0.8407
    -0.7221  -0.6732  -0.6349  -0.5950  -0.5092  -0.3863  -0.3660  -0.2641
    -0.2493  -0.1749  -0.0803  -0.0342  -0.0313  -0.0135   0.0413   0.0799
     0.1416   0.1585   0.1884   0.2817   0.3015   0.5092   0.5633   0.6818
     0.7197   0.8341   0.8785   0.8870   0.9160   1.0159   1.1200   1.1331
     1.1592   1.2437   1.2782   1.3310   1.3851   1.3928   1.4293   1.4811
     1.4836   1.5483   1.6650   1.6693   1.6873   1.9196   1.9317   2.2456
     2.4682   2.6177   2.7572   2.8085   2.8190   2.8943   2.9221   3.7831
     5.8328   6.0089   6.0674   6.1133   6.4448   6.5831   7.1461   7.3009
     7.4201   7.7637   7.8764   8.0870   8.2529   8.5629   8.7289   8.8065
     8.8867

          k = 0.2500 0.2640 0.0000 ( 35309 PWs)   bands (ev):

   -38.7428 -35.6251 -22.7555 -22.6943 -22.5484 -22.4419 -19.8505 -19.8066
   -19.7352 -16.9242 -16.9002 -16.8728 -15.4380 -14.9100 -14.8701 -14.8197
   -14.7599 -14.6578 -14.5287 -14.5254 -14.2134 -14.1746 -14.1380 -14.0359
   -14.0024 -13.8830 -13.8579  -8.3119  -8.2865  -8.1535  -8.1364  -7.9880
    -7.9830  -7.7938  -7.7791  -7.7141  -7.7123  -7.5790  -7.4423  -3.3630
    -3.0426  -2.7937  -2.7441  -2.6941  -2.6217  -2.4904  -2.4118  -2.3614
    -2.3210  -2.3084  -2.2206  -2.1800  -2.0272  -1.8158  -1.6948  -1.5222
    -1.4982  -1.4692  -1.3367  -1.3109  -1.1838  -1.0961  -1.0425  -0.9315
    -0.9024  -0.8072  -0.7817  -0.7650  -0.6626  -0.6549  -0.6415  -0.5799
    -0.4487  -0.3987  -0.3429  -0.0709   0.0497   0.0992   0.1687   0.2981
     0.3520   0.4307   0.5293   0.6161   0.7370   0.7854   0.7936   0.8219
     0.9108   0.9390   0.9847   1.0661   1.1934   1.2148   1.3330   1.3349
     1.3993   1.4086   1.4795   1.5004   1.5190   1.5697   1.5781   1.5933
     1.6323   1.6536   1.7136   1.8094   1.8633   1.8978   2.0662   2.2692
     2.9381   2.9918   3.0325   3.2228   3.3735   3.3950   3.6432   4.0291
     5.9185   6.1510   6.3352   6.5413   6.6102   6.6614   7.3844   7.4363
     7.5385   8.2960   8.3636   8.6803   8.7667   8.8768   9.0029   9.1432
     9.2160

          k = 0.2500 0.3960 0.0000 ( 35278 PWs)   bands (ev):

   -38.7393 -35.6208 -22.6978 -22.6339 -22.4877 -22.3839 -19.9060 -19.8026
   -19.7223 -17.0207 -16.8886 -16.8143 -15.2608 -14.9233 -14.8664 -14.8316
   -14.5354 -14.4892 -14.4209 -14.3568 -14.2628 -14.1458 -14.1249 -14.0931
   -14.0658 -13.9405 -13.9233  -8.4417  -8.4066  -8.2718  -8.1765  -8.1068
    -8.0334  -7.9732  -7.9270  -7.8619  -7.7697  -7.7599  -7.6563  -3.8119
    -3.5431  -3.4463  -3.2504  -3.2428  -3.0144  -2.9866  -2.6046  -2.4999
    -2.4355  -2.3604  -2.1896  -2.1821  -2.1284  -1.9809  -1.8609  -1.7995
    -1.6422  -1.5594  -1.5374  -1.4659  -1.3522  -1.2634  -1.1778  -1.0926
    -1.0452  -1.0070  -0.9191  -0.8525  -0.8465  -0.8312  -0.7660  -0.7205
    -0.5916  -0.4725  -0.4094   0.0227   0.0997   0.2056   0.2462   0.3671
     0.5192   0.5958   0.6917   0.7332   0.9297   0.9416   0.9635   0.9850
     1.1979   1.2356   1.2727   1.2780   1.3104   1.3543   1.4243   1.4477
     1.4667   1.5378   1.5766   1.6196   1.6784   1.7277   1.7399   1.8275
     1.8349   1.8670   1.9619   2.0079   2.2084   2.2155   2.2634   2.3482
     2.7702   2.8342   3.2419   3.4527   3.6096   3.6297   4.0907   4.4625
     5.8980   5.9488   6.3774   6.5770   6.8178   6.9030   7.4557   7.6923
     7.7768   8.6845   8.7555   8.8497   8.9531   9.0762   9.3747   9.5928
     9.6482

          k = 0.2500-0.5279 0.0000 ( 35312 PWs)   bands (ev):

   -38.7379 -35.6189 -22.6734 -22.6084 -22.4620 -22.3595 -19.9301 -19.7997
   -19.7166 -17.0709 -16.8832 -16.7747 -15.1024 -15.0543 -14.8631 -14.8234
   -14.4121 -14.4109 -14.3197 -14.2732 -14.2562 -14.2320 -14.1210 -14.1159
   -14.0927 -14.0073 -13.9247  -8.4607  -8.4067  -8.2697  -8.1585  -8.1535
    -8.1215  -8.0962  -7.9932  -7.9858  -7.7918  -7.7881  -7.7596  -3.9941
    -3.7506  -3.7051  -3.4508  -3.4441  -3.2420  -3.2150  -2.5577  -2.5072
    -2.4522  -2.3677  -2.3418  -2.1526  -2.0680  -2.0124  -1.9404  -1.9127
    -1.6970  -1.6772  -1.6006  -1.5002  -1.3708  -1.3347  -1.2681  -1.1427
    -1.1334  -1.0390  -0.9918  -0.9169  -0.9082  -0.8637  -0.7670  -0.7377
    -0.6049  -0.5002  -0.4332   0.0392   0.1411   0.2433   0.2619   0.3999
     0.5482   0.6577   0.7457   0.8100   0.9846   1.0318   1.0781   1.1106
     1.1516   1.1975   1.2700   1.3331   1.3465   1.4070   1.4268   1.4552
     1.5203   1.6244   1.6520   1.6942   1.8336   1.8626   1.8704   1.9442
     1.9917   1.9999   2.0283   2.1423   2.3841   2.3875   2.3981   2.4483
     2.5489   2.6277   3.2605   3.4729   3.6438   3.6485   4.2011   4.7192
     5.8113   5.8824   6.2813   6.7107   6.7825   6.8656   7.4768   7.6689
     8.3444   8.3476   8.7699   9.0761   9.1519   9.4703   9.4880   9.5288
     9.7470

          k = 0.3750 0.0000 0.0000 ( 35310 PWs)   bands (ev):

   -38.7459 -35.6286 -22.7921 -22.7314 -22.5854 -22.4778 -19.8655 -19.7638
   -19.7387 -17.0706 -16.9254 -16.6668 -15.4678 -15.0946 -15.0663 -15.0582
   -14.8691 -14.7018 -14.6516 -14.5836 -14.2654 -14.2271 -14.2093 -14.1145
   -13.9658 -13.8959 -13.8265  -8.1865  -7.9803  -7.7896  -7.7776  -7.7197
    -7.7190  -7.5890  -7.5855  -7.5425  -7.4339  -7.4061  -7.2746  -3.1795
    -2.9416  -2.7603  -2.7365  -2.3800  -2.3181  -2.2973  -2.1140  -1.7706
    -1.7132  -1.6305  -1.5518  -1.4227  -1.3704  -1.3509  -1.2991  -1.2646
    -1.2452  -1.2404  -1.2292  -1.1820  -1.1087  -1.0670  -0.9459  -0.9299
    -0.8405  -0.7790  -0.7396  -0.7332  -0.5025  -0.4481  -0.4114  -0.3943
    -0.3040  -0.2753  -0.2615  -0.2562  -0.0206   0.0181   0.0321   0.1148
     0.1534   0.2301   0.3064   0.3548   0.3789   0.4097   0.4228   0.4323
     0.4809   0.6901   0.7400   0.8245   0.9748   1.0204   1.0719   1.1355
     1.1657   1.1773   1.1810   1.3013   1.3882   1.4547   1.4569   1.5694
     1.6328   1.6510   1.7297   1.7421   1.7598   1.8682   1.9938   2.0821
     2.1304   2.2208   2.2649   2.3960   2.5451   2.7543   2.8014   4.1628
     5.3762   6.1542   6.4559   6.4917   6.6171   6.7306   7.4888   7.5654
     7.7214   7.9509   8.0101   8.1848   8.4237   8.5586   8.7026   8.7686
     9.4454

          k = 0.3750 0.1320 0.0000 ( 35339 PWs)   bands (ev):

   -38.7445 -35.6269 -22.7711 -22.7097 -22.5636 -22.4568 -19.8624 -19.7815
   -19.7408 -17.0620 -16.8963 -16.7313 -15.4229 -15.0459 -15.0114 -14.9985
   -14.8673 -14.6613 -14.5911 -14.5373 -14.2365 -14.2060 -14.1833 -14.0982
   -14.0006 -13.9027 -13.8357  -8.2046  -8.0379  -7.9178  -7.8830  -7.8704
    -7.8160  -7.7158  -7.6738  -7.6322  -7.6073  -7.4967  -7.3680  -3.2677
    -3.0032  -2.8045  -2.7712  -2.4381  -2.3788  -2.3123  -2.2808  -2.0950
    -1.9186  -1.7851  -1.7779  -1.6943  -1.6656  -1.6458  -1.6201  -1.5376
    -1.5078  -1.3616  -1.2854  -1.2474  -1.1422  -1.0812  -1.0419  -0.9892
    -0.8482  -0.8038  -0.7444  -0.6790  -0.5925  -0.4658  -0.4258  -0.3175
    -0.2905  -0.1730  -0.1074  -0.0333  -0.0234   0.0201   0.0420   0.1305
     0.1616   0.1686   0.1873   0.3900   0.4157   0.4207   0.6149   0.7338
     0.7404   0.7881   0.8883   0.9541   1.0894   1.1125   1.1559   1.1801
     1.1893   1.2150   1.2343   1.3107   1.3420   1.4849   1.4950   1.5748
     1.6604   1.7127   1.7146   1.7451   1.8041   1.8178   2.0769   2.2203
     2.6482   2.6988   2.7618   2.8657   2.9206   3.0699   3.0911   4.2170
     5.4260   6.2329   6.4352   6.6044   6.6288   6.6482   7.4542   7.6078
     7.7688   8.0163   8.0763   8.4081   8.4489   8.8340   8.8915   8.9778
     9.2350

          k = 0.3750 0.2640 0.0000 ( 35367 PWs)   bands (ev):

   -38.7410 -35.6225 -22.7195 -22.6564 -22.5101 -22.4053 -19.8570 -19.8378
   -19.7291 -17.0416 -16.8756 -16.8211 -15.3063 -14.9235 -14.8924 -14.8877
   -14.7940 -14.5656 -14.4422 -14.4206 -14.1963 -14.1634 -14.1585 -14.0534
   -14.0364 -13.9230 -13.8778  -8.3725  -8.3393  -8.2043  -8.1632  -8.0396
    -8.0178  -7.9489  -7.8955  -7.8487  -7.7661  -7.7279  -7.6409  -3.6387
    -3.3186  -3.0440  -2.9679  -2.7274  -2.6790  -2.5505  -2.4305  -2.4042
    -2.3987  -2.3801  -2.2999  -2.2846  -2.2593  -2.1793  -1.8279  -1.6961
    -1.6159  -1.4709  -1.4543  -1.2996  -1.1605  -1.0928  -1.0685  -0.9857
    -0.9508  -0.9146  -0.8599  -0.8123  -0.6995  -0.6988  -0.6892  -0.6653
    -0.5367  -0.4234  -0.3769  -0.0162   0.1325   0.2169   0.2610   0.4051
     0.5801   0.5930   0.6447   0.6866   0.7792   0.8183   0.9510   0.9647
     0.9963   1.0853   1.0975   1.1462   1.1870   1.2993   1.3593   1.3690
     1.4583   1.5237   1.5532   1.5879   1.6163   1.6630   1.6958   1.7002
     1.7167   1.7729   1.7834   1.8162   1.8902   2.0426   2.1930   2.2039
     2.9394   2.9902   3.4683   3.6300   3.6807   3.7963   3.8080   4.3776
     5.5396   6.1126   6.2671   6.4793   6.6505   6.7299   7.4446   7.5934
     7.6868   8.3563   8.4111   8.7819   8.9414   9.1897   9.3593   9.3955
     9.4803

          k = 0.3750 0.3960 0.0000 ( 35343 PWs)   bands (ev):

   -38.7375 -35.6182 -22.6666 -22.6018 -22.4553 -22.3525 -19.9012 -19.8457
   -19.7148 -17.0243 -17.0024 -16.7414 -15.1653 -14.9189 -14.7886 -14.7619
   -14.5355 -14.4720 -14.2986 -14.2836 -14.2770 -14.1293 -14.1132 -14.0378
   -14.0182 -13.9521 -13.9342  -8.6436  -8.6050  -8.4687  -8.3483  -8.2702
    -8.2514  -8.1831  -8.1413  -8.0203  -7.9397  -7.8115  -7.7953  -4.1020
    -3.7979  -3.5005  -3.4095  -3.3921  -2.9937  -2.9698  -2.7964  -2.6805
    -2.5620  -2.5230  -2.4861  -2.3284  -2.2880  -2.2686  -2.1387  -1.8947
    -1.7240  -1.7190  -1.4577  -1.2938  -1.2573  -1.2417  -1.2198  -1.1947
    -1.0632  -1.0178  -1.0073  -0.9164  -0.8915  -0.8454  -0.7703  -0.7461
    -0.6875  -0.4449  -0.4068   0.1153   0.2400   0.3125   0.4534   0.5920
     0.8193   0.8427   0.9399   1.0021   1.1040   1.1164   1.1793   1.1849
     1.2847   1.3062   1.3755   1.4349   1.4470   1.4946   1.5236   1.5361
     1.6496   1.6602   1.7101   1.7538   1.8419   1.9072   1.9158   1.9222
     1.9401   1.9573   2.0305   2.1096   2.1303   2.1542   2.3586   2.5119
     2.7607   2.8198   3.8892   4.0638   4.1977   4.2830   4.3183   4.6650
     5.6415   5.8009   5.9404   6.3473   6.4114   6.7391   7.3256   7.5948
     7.9120   8.9191   8.9440   9.0280   9.0859   9.2765   9.3783   9.3970
     9.4657

          k = 0.3750-0.5279 0.0000 ( 35336 PWs)   bands (ev):

   -38.7360 -35.6164 -22.6443 -22.5787 -22.4322 -22.3302 -19.9255 -19.8429
   -19.7088 -17.0575 -17.0117 -16.7060 -15.0799 -14.9610 -14.7273 -14.7031
   -14.4464 -14.3329 -14.3179 -14.2518 -14.1947 -14.1614 -14.1078 -14.0847
   -14.0373 -13.9732 -13.9111  -8.7394  -8.6871  -8.5486  -8.4293  -8.4153
    -8.4030  -8.2895  -8.2068  -8.0554  -8.0456  -7.8351  -7.8099  -4.2952
    -4.0043  -3.7322  -3.6301  -3.6186  -3.2190  -3.1961  -2.7980  -2.6991
    -2.5908  -2.5829  -2.5355  -2.3228  -2.2868  -2.2622  -2.2456  -1.9756
    -1.8174  -1.7451  -1.4921  -1.3787  -1.3119  -1.2963  -1.2776  -1.2687
    -1.1306  -1.0565  -1.0077  -1.0033  -0.9616  -0.9319  -0.7769  -0.7720
    -0.6543  -0.4305  -0.4004   0.1456   0.2643   0.3327   0.5332   0.6934
     0.9034   0.9842   0.9927   1.0848   1.1841   1.2154   1.2565   1.3073
     1.3368   1.4459   1.4590   1.4635   1.5019   1.5505   1.6305   1.6722
     1.7071   1.7621   1.8487   1.8646   1.9362   1.9713   2.0007   2.0215
     2.0890   2.1087   2.1555   2.2388   2.3207   2.3369   2.4328   2.5182
     2.5882   2.6756   3.9381   4.1932   4.3431   4.4279   4.4596   4.8502
     5.5981   5.6906   5.8550   6.1696   6.2565   6.8362   7.2341   7.6493
     8.4285   8.5277   8.9646   9.0538   9.1746   9.2844   9.3240   9.4098
     9.4363

          k =-0.5000 0.0000 0.0000 ( 35302 PWs)   bands (ev):

   -38.7451 -35.6275 -22.7743 -22.7123 -22.5660 -22.4596 -19.8823 -19.7611
   -19.7377 -17.1230 -16.8832 -16.6654 -15.3914 -15.1509 -15.1096 -15.0784
   -14.9534 -14.7204 -14.5025 -14.4455 -14.3696 -14.2483 -14.2209 -14.1636
   -13.9772 -13.9663 -13.8404  -8.1851  -7.9700  -7.7738  -7.7607  -7.7046
    -7.6966  -7.5720  -7.5531  -7.5064  -7.4213  -7.3693  -7.2410  -3.3017
    -3.0836  -2.9033  -2.8774  -2.4049  -2.3610  -2.2926  -2.0172  -1.7908
    -1.7019  -1.6656  -1.4921  -1.4731  -1.4352  -1.4260  -1.3028  -1.2948
    -1.2891  -1.2685  -1.2471  -1.2292  -1.2244  -1.1520  -1.0432  -0.9521
    -0.9289  -0.8625  -0.8259  -0.8123  -0.5704  -0.4712  -0.4513  -0.4237
    -0.3275  -0.2661  -0.2604  -0.2552  -0.0235   0.0128   0.0268   0.1187
     0.1200   0.2331   0.2947   0.3544   0.3741   0.3796   0.4183   0.4311
     0.4718   0.6614   0.7814   0.7861   0.9993   1.0851   1.1134   1.1148
     1.1283   1.2489   1.3180   1.3480   1.3904   1.4084   1.5401   1.5427
     1.6051   1.6325   1.6842   1.8213   1.9075   1.9571   2.0175   2.0969
     2.1296   2.2046   2.2594   2.4046   2.5564   2.7898   2.8123   4.5149
     5.0119   6.2567   6.5662   6.8659   7.2284   7.2806   7.2927   7.3045
     7.4975   7.7691   8.0107   8.2218   8.4972   8.8736   9.0097   9.0658
     9.4070

          k =-0.5000 0.1320 0.0000 ( 35362 PWs)   bands (ev):

   -38.7437 -35.6258 -22.7540 -22.6915 -22.5451 -22.4394 -19.8791 -19.7803
   -19.7382 -17.1137 -16.8557 -16.7291 -15.3460 -15.0937 -15.0534 -15.0082
   -14.9468 -14.6799 -14.4610 -14.4040 -14.3117 -14.2257 -14.1999 -14.1317
   -14.0146 -13.9636 -13.8428  -8.1999  -8.0090  -7.8265  -7.8260  -7.8105
    -7.8017  -7.7640  -7.7094  -7.7018  -7.5613  -7.5412  -7.4543  -3.3967
    -3.1517  -2.9554  -2.9182  -2.4099  -2.4032  -2.3609  -2.2766  -2.0633
    -1.8639  -1.8499  -1.7527  -1.7493  -1.6602  -1.6407  -1.6278  -1.5708
    -1.5628  -1.4763  -1.3537  -1.2874  -1.1848  -1.1446  -1.0876  -1.0098
    -0.9182  -0.8876  -0.7475  -0.7218  -0.6146  -0.5021  -0.4566  -0.3412
    -0.3060  -0.1821  -0.1215  -0.0258  -0.0114   0.0250   0.0326   0.1315
     0.1621   0.1692   0.2800   0.3135   0.4657   0.4859   0.5467   0.6639
     0.7185   0.7778   0.8944   1.0142   1.1149   1.1469   1.1902   1.1945
     1.2251   1.2308   1.2436   1.2718   1.3687   1.5118   1.5356   1.5837
     1.6528   1.6898   1.7583   1.8283   1.8716   1.9487   2.1642   2.1952
     2.6859   2.7084   2.7543   2.8781   2.9396   3.0936   3.1443   4.5454
     5.0798   6.3283   6.3855   6.6768   7.0760   7.1403   7.4653   7.5833
     7.6230   7.8737   8.1251   8.1612   8.4299   9.1391   9.2480   9.3105
     9.4356

          k =-0.5000 0.2640 0.0000 ( 35376 PWs)   bands (ev):

   -38.7402 -35.6215 -22.7043 -22.6405 -22.4941 -22.3899 -19.8716 -19.8394
   -19.7257 -17.0917 -16.8723 -16.7847 -15.2345 -14.9423 -14.9333 -14.9060
   -14.8109 -14.5831 -14.3619 -14.2992 -14.2146 -14.1744 -14.1516 -14.0813
   -14.0534 -13.9598 -13.8713  -8.3350  -8.2781  -8.1404  -8.1336  -8.1272
    -8.1158  -8.0035  -7.9989  -7.9589  -7.8166  -7.7552  -7.7483  -3.7682
    -3.4569  -3.1886  -3.1040  -2.7453  -2.6694  -2.5759  -2.4435  -2.4259
    -2.4200  -2.3908  -2.3077  -2.3060  -2.2887  -2.2759  -1.9510  -1.7245
    -1.7012  -1.5573  -1.4346  -1.2181  -1.1434  -1.0278  -1.0176  -0.9887
    -0.9880  -0.9796  -0.9142  -0.8430  -0.7232  -0.7081  -0.7014  -0.7000
    -0.5400  -0.4435  -0.3909   0.0047   0.1536   0.2384   0.3415   0.4508
     0.6555   0.6577   0.6821   0.7505   0.8031   0.8387   0.9427   1.0409
     1.1007   1.1227   1.1397   1.1920   1.1940   1.2184   1.3725   1.4319
     1.4603   1.5101   1.5267   1.6384   1.6498   1.6665   1.7123   1.7839
     1.7882   1.8609   1.8689   1.8700   1.9148   1.9582   2.1450   2.3276
     2.9327   2.9811   3.5666   3.6686   3.8156   3.9195   3.9399   4.6272
     5.2769   6.0847   6.1412   6.5438   6.6462   6.7394   7.4516   7.5252
     8.1138   8.3543   8.3940   8.4482   8.9571   9.2985   9.5146   9.5398
     9.6255

          k =-0.5000 0.3960 0.0000 ( 35336 PWs)   bands (ev):

   -38.7367 -35.6171 -22.6535 -22.5883 -22.4418 -22.3393 -19.8990 -19.8640
   -19.7113 -17.0702 -17.0014 -16.7091 -15.1199 -14.9236 -14.7594 -14.7333
   -14.5436 -14.4901 -14.2748 -14.2691 -14.1882 -14.1259 -14.1038 -14.0215
   -13.9998 -13.9603 -13.9463  -8.7010  -8.6532  -8.5142  -8.4152  -8.4015
    -8.3908  -8.2913  -8.2050  -8.0717  -8.0366  -7.8252  -7.8052  -4.2385
    -3.9282  -3.6121  -3.5137  -3.3934  -2.9852  -2.9626  -2.8481  -2.7503
    -2.6363  -2.5908  -2.5836  -2.3446  -2.3049  -2.2993  -2.2360  -1.9317
    -1.7967  -1.7745  -1.3732  -1.3293  -1.2832  -1.2200  -1.2101  -1.1562
    -1.0948  -0.9986  -0.9856  -0.9572  -0.9360  -0.8320  -0.8208  -0.8162
    -0.6659  -0.4067  -0.3772   0.1430   0.2843   0.3396   0.5739   0.6840
     0.9176   0.9429   1.0212   1.1729   1.1789   1.2218   1.2886   1.2950
     1.3337   1.3563   1.3654   1.3755   1.5125   1.5397   1.5425   1.5934
     1.6584   1.6752   1.7722   1.8038   1.9286   1.9298   1.9706   1.9905
     1.9955   2.0223   2.0996   2.1247   2.1449   2.2163   2.3064   2.6346
     2.7495   2.8019   3.9385   4.2440   4.4602   4.5275   4.5697   4.7876
     5.4881   5.6063   5.8964   6.1512   6.2227   6.8001   7.1761   7.6628
     8.3644   8.5738   8.8678   8.8929   9.0871   9.1824   9.3747   9.3936
     9.4404

          k =-0.5000-0.5279 0.0000 ( 35396 PWs)   bands (ev):

   -38.7352 -35.6153 -22.6321 -22.5663 -22.4197 -22.3180 -19.9236 -19.8609
   -19.7052 -17.0613 -17.0521 -16.6756 -15.0713 -14.9208 -14.6617 -14.6487
   -14.4868 -14.3177 -14.3143 -14.2514 -14.1436 -14.1204 -14.1022 -14.0803
   -13.9811 -13.9619 -13.9295  -8.8527  -8.7992  -8.6598  -8.5408  -8.5313
    -8.5195  -8.4070  -8.2233  -8.1711  -8.0643  -7.8518  -7.8221  -4.4363
    -4.1364  -3.8179  -3.7191  -3.6564  -3.2095  -3.1877  -2.8644  -2.7828
    -2.6712  -2.6712  -2.6180  -2.3347  -2.3263  -2.2986  -2.2957  -1.9999
    -1.8736  -1.8014  -1.4074  -1.3902  -1.3482  -1.3165  -1.3156  -1.2186
    -1.0709  -1.0607  -1.0381  -1.0307  -1.0072  -0.9328  -0.8512  -0.8338
    -0.6232  -0.3779  -0.3539   0.1777   0.3089   0.3614   0.6759   0.8471
     1.0147   1.0203   1.1695   1.1881   1.2685   1.2942   1.3166   1.3590
     1.4096   1.4485   1.4906   1.5399   1.5853   1.6077   1.6554   1.7849
     1.8092   1.8676   1.8839   1.8924   2.0050   2.0552   2.0667   2.0685
     2.0880   2.1531   2.2921   2.2993   2.3104   2.3814   2.4812   2.4955
     2.5509   2.7885   3.9683   4.4289   4.6605   4.7275   4.7708   4.9216
     5.3409   5.5889   5.8384   5.9241   6.0223   6.8940   7.0703   7.8673
     8.4874   8.7042   8.7484   8.9882   9.0079   9.0644   9.1524   9.2619
     9.5099

     the Fermi energy is     2.5191 ev

!    total energy              =   -1842.70025625 Ry
     Harris-Foulkes estimate   =   -1842.70025626 Ry
     estimated scf accuracy    <          4.1E-09 Ry

     The total energy is the sum of the following terms:

     one-electron contribution =  -29218.95696428 Ry
     hartree contribution      =   14760.92181804 Ry
     xc contribution           =    -621.55239241 Ry
     ewald contribution        =   13236.89513580 Ry
     smearing contrib. (-TS)   =      -0.00785341 Ry

     convergence has been achieved in  36 iterations

     negative rho (up, down):  1.461E-03 0.000E+00

     Forces acting on atoms (cartesian axes, Ry/au):

     atom    1 type  4   force =     0.00000000    0.00000000   -0.00016600
     atom    2 type  3   force =     0.00000000    0.00000000    0.00034401
     atom    3 type  4   force =     0.00000000    0.00000000   -0.00077929
     atom    4 type  1   force =     0.00000000    0.00000000   -0.00027712
     atom    5 type  3   force =     0.00000000    0.00000000    0.00048465
     atom    6 type  4   force =     0.00000000    0.00000000   -0.00000872
     atom    7 type  4   force =     0.00000000    0.00000000    0.00032698
     atom    8 type  2   force =     0.00000000    0.00000000   -0.00058974
     atom    9 type  4   force =     0.00000000    0.00000000    0.00030482
     atom   10 type  4   force =     0.00000000    0.00000000    0.00036957
     atom   11 type  3   force =     0.00000000    0.00000000    0.00014830
     atom   12 type  1   force =     0.00000000    0.00000000    0.00011693
     atom   13 type  4   force =     0.00000000    0.00000000    0.00317049
     atom   14 type  4   force =     0.00000000    0.00000000    0.00367952
     atom   15 type  3   force =     0.00000000    0.00000000   -0.00639047
     atom   16 type  4   force =     0.00000000    0.00000000    0.00519314
     atom   17 type  1   force =     0.00000000    0.00000000   -0.01844842
     atom   18 type  3   force =     0.00000000    0.00000000    0.00670793
     atom   19 type  4   force =     0.00000000    0.00000000    0.05839702
     atom   20 type  4   force =     0.00000000    0.00000000    0.06493696
     atom   21 type  2   force =     0.00000000    0.00000000   -0.07796769
     atom   22 type  4   force =     0.00000000    0.00000000   -0.00406869
     atom   23 type  4   force =     0.00000000    0.00000000    0.00358262
     atom   24 type  3   force =     0.00000000    0.00000000   -0.01997973
     atom   25 type  1   force =     0.00000000    0.00000000   -0.01760060
     atom   26 type  4   force =     0.00000000    0.00000000   -0.00164473
     atom   27 type  3   force =     0.00000000    0.00000000    0.00145152
     atom   28 type  4   force =     0.00000000    0.00000000   -0.00129323

     Total force =     0.122186     Total SCF correction =     0.000307


     Computing stress (Cartesian axis) and pressure


     negative rho (up, down):  1.461E-03 0.000E+00
          total   stress  (Ry/bohr**3)                   (kbar)     P=       -6.40
  -0.00000430   0.00000000   0.00000000           -0.63        0.00        0.00
   0.00000000   0.00002032   0.00000000            0.00        2.99        0.00
   0.00000000   0.00000000  -0.00014652            0.00        0.00      -21.55

 
     init_run     :      8.31s CPU      8.84s WALL (       1 calls)
     electrons    :    546.38s CPU    587.33s WALL (       1 calls)
     forces       :      3.45s CPU      3.83s WALL (       1 calls)
     stress       :     19.63s CPU     20.54s WALL (       1 calls)

     Called by init_run:
     wfcinit      :      5.87s CPU      5.99s WALL (       1 calls)
     potinit      :      0.62s CPU      0.64s WALL (       1 calls)
     hinit0       :      0.96s CPU      1.00s WALL (       1 calls)

     Called by electrons:
     c_bands      :    432.09s CPU    448.83s WALL (      36 calls)
     sum_band     :     77.49s CPU     90.95s WALL (      36 calls)
     v_of_rho     :      2.57s CPU      2.61s WALL (      37 calls)
     newd         :     18.19s CPU     28.98s WALL (      37 calls)
     mix_rho      :     16.40s CPU     16.56s WALL (      36 calls)

     Called by c_bands:
     init_us_2    :      3.63s CPU      3.72s WALL (    1875 calls)
     cegterg      :    407.26s CPU    423.34s WALL (     900 calls)

     Called by sum_band:
     sum_band:bec :      0.25s CPU      0.25s WALL (     900 calls)
     addusdens    :     19.88s CPU     32.54s WALL (      36 calls)

     Called by *egterg:
     h_psi        :    206.96s CPU    216.74s WALL (    3642 calls)
     s_psi        :     21.61s CPU     21.92s WALL (    3642 calls)
     g_psi        :      0.65s CPU      0.66s WALL (    2717 calls)
     cdiaghg      :    105.43s CPU    105.92s WALL (    3617 calls)

     Called by h_psi:
     h_psi:calbec :     24.32s CPU     25.53s WALL (    3642 calls)
     vloc_psi     :    159.11s CPU    161.95s WALL (    3642 calls)
     add_vuspsi   :     22.46s CPU     25.68s WALL (    3642 calls)

     General routines
     calbec       :     40.36s CPU     41.63s WALL (    4667 calls)
     fft          :      1.94s CPU      1.98s WALL (     504 calls)
     ffts         :      8.70s CPU      8.79s WALL (   15740 calls)
     fftw         :    180.24s CPU    183.36s WALL (  635544 calls)
     interpolate  :      0.16s CPU      0.16s WALL (      37 calls)
 
     Parallel routines
     fft_scatt_xy :     23.59s CPU     24.00s WALL (  651788 calls)
     fft_scatt_yz :    107.69s CPU    109.55s WALL (  651788 calls)
 
     PWSCF        :   9m38.51s CPU  10m21.31s WALL

 
   This run was terminated on:  21:38:45  21May2021            

=------------------------------------------------------------------------------=
   JOB DONE.
=------------------------------------------------------------------------------=
[1621647525.226937] [holy7c04405:169143:0]          mpool.c:43   UCX  WARN  object 0x39b7080 was not returned to mpool ucp_requests
[1621647525.233302] [holy7c04201:95876:0]          mpool.c:43   UCX  WARN  object 0x371ae00 was not returned to mpool ucp_requests
[1621647525.234121] [holy7c04405:169142:0]          mpool.c:43   UCX  WARN  object 0x363e480 was not returned to mpool ucp_requests
[1621647525.234136] [holy7c04405:169142:0]          mpool.c:43   UCX  WARN  object 0x363eb80 was not returned to mpool ucp_requests
[1621647525.233900] [holy7c04405:169144:0]          mpool.c:43   UCX  WARN  object 0x37b8000 was not returned to mpool ucp_requests
[1621647525.233938] [holy7c04104:157046:0]          mpool.c:43   UCX  WARN  object 0x3b12940 was not returned to mpool ucp_requests
[1621647525.235634] [holy7c04201:95875:0]          mpool.c:43   UCX  WARN  object 0x32af500 was not returned to mpool ucp_requests
[1621647525.233711] [holy7c04205:150198:0]          mpool.c:43   UCX  WARN  object 0x424e800 was not returned to mpool ucp_requests
[1621647525.233736] [holy7c04205:150198:0]          mpool.c:43   UCX  WARN  object 0x424eb80 was not returned to mpool ucp_requests
