
     Program PWSCF v.6.5 starts on 21May2021 at 23: 5:51 

     This program is part of the open-source Quantum ESPRESSO suite
     for quantum simulation of materials; please cite
         "P. Giannozzi et al., J. Phys.:Condens. Matter 21 395502 (2009);
         "P. Giannozzi et al., J. Phys.:Condens. Matter 29 465901 (2017);
          URL http://www.quantum-espresso.org", 
     in publications or presentations arising from this work. More details at
     http://www.quantum-espresso.org/quote

     Parallel version (MPI), running on    20 processors

     MPI processes distributed on     9 nodes
     R & G space division:  proc/nbgrp/npool/nimage =      20
     Reading input from CBCO_BaO_cleave_2.25_sep.pwi
Warning: card &IONS ignored
Warning: card     ION_DYNAMICS = 'BFGS' ignored
Warning: card / ignored
Warning: card &CELL ignored
Warning: card     CELL_DYNAMICS = 'BFGS' ignored
Warning: card     PRESS_CONV_THR = 5 ignored
Warning: card / ignored

     Current dimensions of program PWSCF are:
     Max number of different atomic species (ntypx) = 10
     Max number of k-points (npk) =  40000
     Max angular momentum in pseudopotentials (lmaxx) =  3

     Subspace diagonalization in iterative solution of the eigenvalue problem:
     one sub-group per band group will be used
     scalapack distributed-memory algorithm (size of sub-group:  4*  4 procs)

     Message from routine setup:
     using ibrav=0 with symmetry is DISCOURAGED, use correct ibrav instead
 
     Parallelization info
     --------------------
     sticks:   dense  smooth     PW     G-vecs:    dense   smooth      PW
     Min         149      50     14                73779    14206    2222
     Max         150      51     15                73818    14229    2267
     Sum        2991    1007    289              1475989   284301   44707
 


     bravais-lattice index     =            0
     lattice parameter (alat)  =       7.4270  a.u.
     unit-cell volume          =    4524.4357 (a.u.)^3
     number of atoms/cell      =           28
     number of atomic types    =            4
     number of electrons       =       227.00
     number of Kohn-Sham states=          137
     kinetic-energy cutoff     =      60.0000  Ry
     charge density cutoff     =     720.0000  Ry
     convergence threshold     =      1.0E-08
     mixing beta               =       0.5000
     number of iterations used =           10  local-TF  mixing
     Exchange-correlation= SLA PW PBE PBE
                           (   1   4   3   4   0   0   0)

     celldm(1)=   7.427040  celldm(2)=   0.000000  celldm(3)=   0.000000
     celldm(4)=   0.000000  celldm(5)=   0.000000  celldm(6)=   0.000000

     crystal axes: (cart. coord. in units of alat)
               a(1) = (   1.000000   0.000000   0.000000 )  
               a(2) = (   0.000000   0.947081   0.000000 )  
               a(3) = (   0.000000   0.000000  11.660844 )  

     reciprocal axes: (cart. coord. in units 2 pi/alat)
               b(1) = (  1.000000  0.000000  0.000000 )  
               b(2) = (  0.000000  1.055876  0.000000 )  
               b(3) = (  0.000000  0.000000  0.085757 )  


     PseudoPot. # 1 for Ba read from file:
     ./pseudo/Ba.pbe-nsp-van.UPF
     MD5 check sum: 2b9c31dd849566dd297d80989662b7a0
     Pseudo is Ultrasoft + core correction, Zval = 10.0
     Generated by new atomic code, or converted to UPF format
     Using radial grid of  907 points,  6 beta functions with: 
                l(1) =   0
                l(2) =   0
                l(3) =   1
                l(4) =   1
                l(5) =   2
                l(6) =   2
     Q(r) pseudized with  6 coefficients,  rinner =    1.200   1.200   1.200
                                                       1.200   1.200

     PseudoPot. # 2 for Ca read from file:
     ./pseudo/Ca.pbe-nsp-van.UPF
     MD5 check sum: 6471098428ff4fa451746d08035ff179
     Pseudo is Ultrasoft + core correction, Zval = 10.0
     Generated by new atomic code, or converted to UPF format
     Using radial grid of  845 points,  6 beta functions with: 
                l(1) =   0
                l(2) =   0
                l(3) =   1
                l(4) =   1
                l(5) =   2
                l(6) =   2
     Q(r) pseudized with  6 coefficients,  rinner =    1.200   1.200   1.200
                                                       1.200   1.200

     PseudoPot. # 3 for Cu read from file:
     ./pseudo/Cu.pbe-n-van_ak.UPF
     MD5 check sum: 34e3282627ffb533726feb647e090d62
     Pseudo is Ultrasoft + core correction, Zval = 11.0
     Generated by new atomic code, or converted to UPF format
     Using radial grid of  867 points,  6 beta functions with: 
                l(1) =   0
                l(2) =   0
                l(3) =   1
                l(4) =   1
                l(5) =   2
                l(6) =   2
     Q(r) pseudized with  8 coefficients,  rinner =    1.400   1.400   1.400
                                                       1.400   1.400

     PseudoPot. # 4 for O  read from file:
     ./pseudo/O.pbe-van_ak.UPF
     MD5 check sum: 783ce7fe4c79b6a4916957118fed0856
     Pseudo is Ultrasoft, Zval =  6.0
     Generated by new atomic code, or converted to UPF format
     Using radial grid of  737 points,  4 beta functions with: 
                l(1) =   0
                l(2) =   0
                l(3) =   1
                l(4) =   1
     Q(r) pseudized with  8 coefficients,  rinner =    0.800   0.800   0.800


     atomic species   valence    mass     pseudopotential
        Ba            10.00   137.32700     Ba( 1.00)
        Ca            10.00    40.07800     Ca( 1.00)
        Cu            11.00    63.54600     Cu( 1.00)
        O              6.00    15.99900     O ( 1.00)

      4 Sym. Ops. (no inversion) found



   Cartesian axes

     site n.     atom                  positions (alat units)
         1           O   tau(   1) = (   0.0000000   0.4735409  -0.0469745  )
         2           Cu  tau(   2) = (   0.0000000   0.0000000   0.0264565  )
         3           O   tau(   3) = (   0.0000000   0.0000000   0.5030914  )
         4           Ba  tau(   4) = (   0.5000000   0.4735409   0.5690292  )
         5           Cu  tau(   5) = (   0.0000000   0.0000000   1.0374254  )
         6           O   tau(   6) = (   0.5000000   0.0000000   1.0768099  )
         7           O   tau(   7) = (   0.0000000   0.4735409   1.1116985  )
         8           Ca  tau(   8) = (   0.5000000   0.4735409   1.4976260  )
         9           O   tau(   9) = (   0.0000000   0.4735409   1.8667529  )
        10           O   tau(  10) = (   0.5000000   0.0000000   1.9044124  )
        11           Cu  tau(  11) = (   0.0000000   0.0000000   1.9512546  )
        12           Ba  tau(  12) = (   0.5000000   0.4735409   2.4295764  )
        13           O   tau(  13) = (   0.0000000   0.0000000   2.5115362  )
        14           O   tau(  14) = (   0.0000000   0.4735409   2.9918528  )
        15           Cu  tau(  15) = (   0.0000000   0.0000000   2.9919088  )
        16           O   tau(  16) = (   0.0000000   0.0000000   3.4722686  )
        17           Ba  tau(  17) = (   0.5000000   0.4735409   3.5542208  )
        18           Cu  tau(  18) = (   0.0000000   0.0000000   4.6050118  )
        19           O   tau(  19) = (   0.5000000   0.0000000   4.6518539  )
        20           O   tau(  20) = (   0.0000000   0.4735409   4.6895083  )
        21           Ca  tau(  21) = (   0.5000000   0.4735409   5.0586454  )
        22           O   tau(  22) = (   0.0000000   0.4735409   5.4445704  )
        23           O   tau(  23) = (   0.5000000   0.0000000   5.4794590  )
        24           Cu  tau(  24) = (   0.0000000   0.0000000   5.5188461  )
        25           Ba  tau(  25) = (   0.5000000   0.4735409   5.9872397  )
        26           O   tau(  26) = (   0.0000000   0.0000000   6.0531673  )
        27           Cu  tau(  27) = (   0.0000000   0.0000000   6.5298073  )
        28           O   tau(  28) = (   0.0000000   0.4735409   6.6032256  )

     number of k points=    25  Gaussian smearing, width (Ry)=  0.0100
                       cart. coord. in units 2pi/alat
        k(    1) = (   0.0000000   0.0000000   0.0000000), wk =   0.0312500
        k(    2) = (   0.0000000   0.1319845   0.0000000), wk =   0.0625000
        k(    3) = (   0.0000000   0.2639689   0.0000000), wk =   0.0625000
        k(    4) = (   0.0000000   0.3959534   0.0000000), wk =   0.0625000
        k(    5) = (   0.0000000  -0.5279378   0.0000000), wk =   0.0312500
        k(    6) = (   0.1250000   0.0000000   0.0000000), wk =   0.0625000
        k(    7) = (   0.1250000   0.1319845   0.0000000), wk =   0.1250000
        k(    8) = (   0.1250000   0.2639689   0.0000000), wk =   0.1250000
        k(    9) = (   0.1250000   0.3959534   0.0000000), wk =   0.1250000
        k(   10) = (   0.1250000  -0.5279378   0.0000000), wk =   0.0625000
        k(   11) = (   0.2500000   0.0000000   0.0000000), wk =   0.0625000
        k(   12) = (   0.2500000   0.1319845   0.0000000), wk =   0.1250000
        k(   13) = (   0.2500000   0.2639689   0.0000000), wk =   0.1250000
        k(   14) = (   0.2500000   0.3959534   0.0000000), wk =   0.1250000
        k(   15) = (   0.2500000  -0.5279378   0.0000000), wk =   0.0625000
        k(   16) = (   0.3750000   0.0000000   0.0000000), wk =   0.0625000
        k(   17) = (   0.3750000   0.1319845   0.0000000), wk =   0.1250000
        k(   18) = (   0.3750000   0.2639689   0.0000000), wk =   0.1250000
        k(   19) = (   0.3750000   0.3959534   0.0000000), wk =   0.1250000
        k(   20) = (   0.3750000  -0.5279378   0.0000000), wk =   0.0625000
        k(   21) = (  -0.5000000   0.0000000   0.0000000), wk =   0.0312500
        k(   22) = (  -0.5000000   0.1319845   0.0000000), wk =   0.0625000
        k(   23) = (  -0.5000000   0.2639689   0.0000000), wk =   0.0625000
        k(   24) = (  -0.5000000   0.3959534   0.0000000), wk =   0.0625000
        k(   25) = (  -0.5000000  -0.5279378   0.0000000), wk =   0.0312500

     Dense  grid:  1475989 G-vectors     FFT dimensions: (  64,  64, 750)

     Smooth grid:   284301 G-vectors     FFT dimensions: (  40,  36, 432)

     Estimated max dynamical RAM per process >     470.95 MB

     Estimated total dynamical RAM >       9.20 GB

     Initial potential from superposition of free atoms

     starting charge  226.84630, renormalised to  227.00000

     negative rho (up, down):  3.442E-03 0.000E+00
     Starting wfcs are  195 randomized atomic wfcs

     total cpu time spent up to now is        9.7 secs

     Self-consistent Calculation

     iteration #  1     ecut=    60.00 Ry     beta= 0.50
     Davidson diagonalization with overlap
     ethr =  1.00E-02,  avg # of iterations =  2.0

     negative rho (up, down):  4.953E-04 0.000E+00

     total cpu time spent up to now is       25.1 secs

     total energy              =   -1840.80873894 Ry
     Harris-Foulkes estimate   =   -1845.39936907 Ry
     estimated scf accuracy    <      19.25095925 Ry

     iteration #  2     ecut=    60.00 Ry     beta= 0.50
     Davidson diagonalization with overlap
     ethr =  8.48E-03,  avg # of iterations =  2.0

     negative rho (up, down):  2.658E-04 0.000E+00

     total cpu time spent up to now is       40.5 secs

     total energy              =   -1842.49868840 Ry
     Harris-Foulkes estimate   =   -1843.33621736 Ry
     estimated scf accuracy    <       4.91108868 Ry

     iteration #  3     ecut=    60.00 Ry     beta= 0.50
     Davidson diagonalization with overlap
     ethr =  2.16E-03,  avg # of iterations =  1.9

     negative rho (up, down):  2.464E-04 0.000E+00

     total cpu time spent up to now is       55.8 secs

     total energy              =   -1842.85321016 Ry
     Harris-Foulkes estimate   =   -1842.99528499 Ry
     estimated scf accuracy    <       4.21826185 Ry

     iteration #  4     ecut=    60.00 Ry     beta= 0.50
     Davidson diagonalization with overlap
     ethr =  1.86E-03,  avg # of iterations =  1.0

     negative rho (up, down):  2.384E-04 0.000E+00

     total cpu time spent up to now is       69.9 secs

     total energy              =   -1842.84396868 Ry
     Harris-Foulkes estimate   =   -1842.92706801 Ry
     estimated scf accuracy    <       1.19537798 Ry

     iteration #  5     ecut=    60.00 Ry     beta= 0.50
     Davidson diagonalization with overlap
     ethr =  5.27E-04,  avg # of iterations =  2.0

     negative rho (up, down):  2.340E-04 0.000E+00

     total cpu time spent up to now is       84.8 secs

     total energy              =   -1842.84249587 Ry
     Harris-Foulkes estimate   =   -1842.89273216 Ry
     estimated scf accuracy    <       2.37242241 Ry

     iteration #  6     ecut=    60.00 Ry     beta= 0.50
     Davidson diagonalization with overlap
     ethr =  5.27E-04,  avg # of iterations =  1.0

     negative rho (up, down):  2.299E-04 0.000E+00

     total cpu time spent up to now is       99.0 secs

     total energy              =   -1842.83066318 Ry
     Harris-Foulkes estimate   =   -1842.86111718 Ry
     estimated scf accuracy    <       0.88182342 Ry

     iteration #  7     ecut=    60.00 Ry     beta= 0.50
     Davidson diagonalization with overlap
     ethr =  3.88E-04,  avg # of iterations =  3.4

     negative rho (up, down):  2.294E-04 0.000E+00

     total cpu time spent up to now is      115.7 secs

     total energy              =   -1842.83350647 Ry
     Harris-Foulkes estimate   =   -1842.84267278 Ry
     estimated scf accuracy    <       0.64391929 Ry

     iteration #  8     ecut=    60.00 Ry     beta= 0.50
     Davidson diagonalization with overlap
     ethr =  2.84E-04,  avg # of iterations =  2.4

     negative rho (up, down):  2.291E-04 0.000E+00

     total cpu time spent up to now is      131.1 secs

     total energy              =   -1842.82825181 Ry
     Harris-Foulkes estimate   =   -1842.83845604 Ry
     estimated scf accuracy    <       0.31496926 Ry

     iteration #  9     ecut=    60.00 Ry     beta= 0.50
     Davidson diagonalization with overlap
     ethr =  1.39E-04,  avg # of iterations =  4.6

     negative rho (up, down):  2.304E-04 0.000E+00

     total cpu time spent up to now is      149.0 secs

     total energy              =   -1842.82552093 Ry
     Harris-Foulkes estimate   =   -1842.83239875 Ry
     estimated scf accuracy    <       0.20112473 Ry

     iteration # 10     ecut=    60.00 Ry     beta= 0.50
     Davidson diagonalization with overlap
     ethr =  8.86E-05,  avg # of iterations =  5.3

     negative rho (up, down):  2.328E-04 0.000E+00

     total cpu time spent up to now is      167.5 secs

     total energy              =   -1842.82175821 Ry
     Harris-Foulkes estimate   =   -1842.82783923 Ry
     estimated scf accuracy    <       0.07332694 Ry

     iteration # 11     ecut=    60.00 Ry     beta= 0.50
     Davidson diagonalization with overlap
     ethr =  3.23E-05,  avg # of iterations =  8.7

     negative rho (up, down):  2.341E-04 0.000E+00

     total cpu time spent up to now is      190.6 secs

     total energy              =   -1842.82086290 Ry
     Harris-Foulkes estimate   =   -1842.82353819 Ry
     estimated scf accuracy    <       0.02011006 Ry

     iteration # 12     ecut=    60.00 Ry     beta= 0.50
     Davidson diagonalization with overlap
     c_bands:  1 eigenvalues not converged
     ethr =  8.86E-06,  avg # of iterations =  9.5

     negative rho (up, down):  2.336E-04 0.000E+00

     total cpu time spent up to now is      214.9 secs

     total energy              =   -1842.82083244 Ry
     Harris-Foulkes estimate   =   -1842.82160431 Ry
     estimated scf accuracy    <       0.02236540 Ry

     iteration # 13     ecut=    60.00 Ry     beta= 0.50
     Davidson diagonalization with overlap
     ethr =  8.86E-06,  avg # of iterations =  1.0

     negative rho (up, down):  2.960E-04 0.000E+00

     total cpu time spent up to now is      228.8 secs

     total energy              =   -1842.82001812 Ry
     Harris-Foulkes estimate   =   -1842.82099229 Ry
     estimated scf accuracy    <       0.02502671 Ry

     iteration # 14     ecut=    60.00 Ry     beta= 0.50
     Davidson diagonalization with overlap
     ethr =  8.86E-06,  avg # of iterations =  2.2

     negative rho (up, down):  7.052E-04 0.000E+00

     total cpu time spent up to now is      244.1 secs

     total energy              =   -1842.81955725 Ry
     Harris-Foulkes estimate   =   -1842.82020446 Ry
     estimated scf accuracy    <       0.03369093 Ry

     iteration # 15     ecut=    60.00 Ry     beta= 0.50
     Davidson diagonalization with overlap
     ethr =  8.86E-06,  avg # of iterations =  1.6

     negative rho (up, down):  2.324E-04 0.000E+00

     total cpu time spent up to now is      258.7 secs

     total energy              =   -1842.81953192 Ry
     Harris-Foulkes estimate   =   -1842.81964310 Ry
     estimated scf accuracy    <       0.03480698 Ry

     iteration # 16     ecut=    60.00 Ry     beta= 0.50
     Davidson diagonalization with overlap
     c_bands:  1 eigenvalues not converged
     ethr =  8.86E-06,  avg # of iterations =  2.5

     negative rho (up, down):  2.680E-04 0.000E+00

     total cpu time spent up to now is      274.1 secs

     total energy              =   -1842.81852317 Ry
     Harris-Foulkes estimate   =   -1842.81961196 Ry
     estimated scf accuracy    <       0.03061975 Ry

     iteration # 17     ecut=    60.00 Ry     beta= 0.50
     Davidson diagonalization with overlap
     ethr =  8.86E-06,  avg # of iterations =  3.2

     negative rho (up, down):  6.392E-03 0.000E+00

     total cpu time spent up to now is      290.4 secs

     total energy              =   -1842.81670357 Ry
     Harris-Foulkes estimate   =   -1842.81862487 Ry
     estimated scf accuracy    <       0.02290587 Ry

     iteration # 18     ecut=    60.00 Ry     beta= 0.50
     Davidson diagonalization with overlap
     ethr =  8.86E-06,  avg # of iterations =  6.6

     negative rho (up, down):  5.357E-03 0.000E+00

     total cpu time spent up to now is      311.1 secs

     total energy              =   -1842.81644604 Ry
     Harris-Foulkes estimate   =   -1842.81691050 Ry
     estimated scf accuracy    <       0.00865093 Ry

     iteration # 19     ecut=    60.00 Ry     beta= 0.50
     Davidson diagonalization with overlap
     ethr =  3.81E-06,  avg # of iterations =  7.3

     negative rho (up, down):  5.617E-03 0.000E+00

     total cpu time spent up to now is      332.3 secs

     total energy              =   -1842.81630909 Ry
     Harris-Foulkes estimate   =   -1842.81651441 Ry
     estimated scf accuracy    <       0.00458067 Ry

     iteration # 20     ecut=    60.00 Ry     beta= 0.50
     Davidson diagonalization with overlap
     c_bands:  1 eigenvalues not converged
     ethr =  2.02E-06,  avg # of iterations = 10.0

     negative rho (up, down):  1.134E-03 0.000E+00

     total cpu time spent up to now is      356.9 secs

     total energy              =   -1842.81624792 Ry
     Harris-Foulkes estimate   =   -1842.81635587 Ry
     estimated scf accuracy    <       0.00196807 Ry

     iteration # 21     ecut=    60.00 Ry     beta= 0.50
     Davidson diagonalization with overlap
     c_bands:  1 eigenvalues not converged
     c_bands:  1 eigenvalues not converged
     ethr =  8.67E-07,  avg # of iterations =  6.7

     negative rho (up, down):  6.962E-04 0.000E+00

     total cpu time spent up to now is      377.3 secs

     total energy              =   -1842.81625334 Ry
     Harris-Foulkes estimate   =   -1842.81629645 Ry
     estimated scf accuracy    <       0.00100945 Ry

     iteration # 22     ecut=    60.00 Ry     beta= 0.50
     Davidson diagonalization with overlap
     c_bands:  1 eigenvalues not converged
     ethr =  4.45E-07,  avg # of iterations =  6.5

     negative rho (up, down):  2.431E-03 0.000E+00

     total cpu time spent up to now is      397.8 secs

     total energy              =   -1842.81629335 Ry
     Harris-Foulkes estimate   =   -1842.81629345 Ry
     estimated scf accuracy    <       0.00040200 Ry

     iteration # 23     ecut=    60.00 Ry     beta= 0.50
     Davidson diagonalization with overlap
     c_bands:  1 eigenvalues not converged
     c_bands:  1 eigenvalues not converged
     ethr =  1.77E-07,  avg # of iterations =  6.1

     negative rho (up, down):  1.829E-03 0.000E+00

     total cpu time spent up to now is      417.7 secs

     total energy              =   -1842.81629307 Ry
     Harris-Foulkes estimate   =   -1842.81630357 Ry
     estimated scf accuracy    <       0.00024587 Ry

     iteration # 24     ecut=    60.00 Ry     beta= 0.50
     Davidson diagonalization with overlap
     c_bands:  1 eigenvalues not converged
     c_bands:  1 eigenvalues not converged
     ethr =  1.08E-07,  avg # of iterations =  5.1

     negative rho (up, down):  1.849E-03 0.000E+00

     total cpu time spent up to now is      436.3 secs

     total energy              =   -1842.81629632 Ry
     Harris-Foulkes estimate   =   -1842.81629806 Ry
     estimated scf accuracy    <       0.00019859 Ry

     iteration # 25     ecut=    60.00 Ry     beta= 0.50
     Davidson diagonalization with overlap
     ethr =  8.75E-08,  avg # of iterations =  1.0

     negative rho (up, down):  1.690E-03 0.000E+00

     total cpu time spent up to now is      450.3 secs

     total energy              =   -1842.81629298 Ry
     Harris-Foulkes estimate   =   -1842.81629841 Ry
     estimated scf accuracy    <       0.00008953 Ry

     iteration # 26     ecut=    60.00 Ry     beta= 0.50
     Davidson diagonalization with overlap
     ethr =  3.94E-08,  avg # of iterations =  1.0

     negative rho (up, down):  1.640E-03 0.000E+00

     total cpu time spent up to now is      464.4 secs

     total energy              =   -1842.81629142 Ry
     Harris-Foulkes estimate   =   -1842.81629466 Ry
     estimated scf accuracy    <       0.00001689 Ry

     iteration # 27     ecut=    60.00 Ry     beta= 0.50
     Davidson diagonalization with overlap
     c_bands:  1 eigenvalues not converged
     ethr =  7.44E-09,  avg # of iterations =  3.0

     negative rho (up, down):  1.503E-03 0.000E+00

     total cpu time spent up to now is      480.6 secs

     total energy              =   -1842.81629113 Ry
     Harris-Foulkes estimate   =   -1842.81629226 Ry
     estimated scf accuracy    <       0.00001324 Ry

     iteration # 28     ecut=    60.00 Ry     beta= 0.50
     Davidson diagonalization with overlap
     ethr =  5.83E-09,  avg # of iterations =  1.0

     negative rho (up, down):  1.504E-03 0.000E+00

     total cpu time spent up to now is      494.6 secs

     total energy              =   -1842.81629115 Ry
     Harris-Foulkes estimate   =   -1842.81629158 Ry
     estimated scf accuracy    <       0.00000339 Ry

     iteration # 29     ecut=    60.00 Ry     beta= 0.50
     Davidson diagonalization with overlap
     ethr =  1.49E-09,  avg # of iterations =  2.1

     negative rho (up, down):  1.507E-03 0.000E+00

     total cpu time spent up to now is      509.9 secs

     total energy              =   -1842.81629134 Ry
     Harris-Foulkes estimate   =   -1842.81629135 Ry
     estimated scf accuracy    <       0.00000079 Ry

     iteration # 30     ecut=    60.00 Ry     beta= 0.50
     Davidson diagonalization with overlap
     ethr =  3.49E-10,  avg # of iterations =  2.6

     negative rho (up, down):  1.497E-03 0.000E+00

     total cpu time spent up to now is      525.8 secs

     total energy              =   -1842.81629138 Ry
     Harris-Foulkes estimate   =   -1842.81629140 Ry
     estimated scf accuracy    <       0.00000021 Ry

     iteration # 31     ecut=    60.00 Ry     beta= 0.50
     Davidson diagonalization with overlap
     ethr =  9.37E-11,  avg # of iterations =  3.0

     negative rho (up, down):  1.501E-03 0.000E+00

     total cpu time spent up to now is      542.5 secs

     total energy              =   -1842.81629138 Ry
     Harris-Foulkes estimate   =   -1842.81629140 Ry
     estimated scf accuracy    <       0.00000013 Ry

     iteration # 32     ecut=    60.00 Ry     beta= 0.50
     Davidson diagonalization with overlap
     ethr =  5.53E-11,  avg # of iterations =  1.0

     negative rho (up, down):  1.505E-03 0.000E+00

     total cpu time spent up to now is      556.5 secs

     total energy              =   -1842.81629138 Ry
     Harris-Foulkes estimate   =   -1842.81629139 Ry
     estimated scf accuracy    <       0.00000006 Ry

     iteration # 33     ecut=    60.00 Ry     beta= 0.50
     Davidson diagonalization with overlap
     ethr =  2.84E-11,  avg # of iterations =  1.0

     negative rho (up, down):  1.512E-03 0.000E+00

     total cpu time spent up to now is      570.4 secs

     total energy              =   -1842.81629137 Ry
     Harris-Foulkes estimate   =   -1842.81629138 Ry
     estimated scf accuracy    <       0.00000004 Ry

     iteration # 34     ecut=    60.00 Ry     beta= 0.50
     Davidson diagonalization with overlap
     ethr =  1.58E-11,  avg # of iterations =  1.1

     negative rho (up, down):  1.512E-03 0.000E+00

     total cpu time spent up to now is      584.6 secs

     total energy              =   -1842.81629137 Ry
     Harris-Foulkes estimate   =   -1842.81629137 Ry
     estimated scf accuracy    <       0.00000001 Ry

     iteration # 35     ecut=    60.00 Ry     beta= 0.50
     Davidson diagonalization with overlap
     ethr =  5.20E-12,  avg # of iterations =  2.2

     negative rho (up, down):  1.515E-03 0.000E+00

     total cpu time spent up to now is      599.3 secs

     End of self-consistent calculation

          k = 0.0000 0.0000 0.0000 ( 35607 PWs)   bands (ev):

   -35.7572 -35.5758 -24.3408 -22.9513 -22.9494 -22.7475 -17.2611 -17.0555
   -16.8083 -16.7969 -16.6416 -16.6226 -15.4699 -15.3334 -15.1710 -14.8327
   -14.8237 -14.7420 -14.5023 -14.3413 -14.3359 -14.1461 -14.1153 -14.0320
   -13.9969 -13.8875 -13.6373  -9.5951  -9.1766  -9.0982  -8.0831  -8.0790
    -8.0450  -8.0438  -7.9348  -7.8522  -7.8503  -7.7910  -7.6249  -2.4911
    -2.4894  -2.3451  -1.9908  -1.9839  -1.9404  -1.8341  -1.7918  -1.7117
    -1.6971  -1.6530  -1.5749  -1.3909  -1.3823  -1.3802  -1.3782  -1.1363
    -0.9489  -0.9399  -0.6201  -0.6182  -0.5409  -0.5359  -0.5103  -0.4603
    -0.4467  -0.4345  -0.4262  -0.4243  -0.4159  -0.3989  -0.3199  -0.3062
    -0.2765  -0.2636  -0.1986  -0.1968  -0.0629  -0.0616  -0.0608  -0.0571
    -0.0358   0.0108   0.0263   0.0452   0.1291   0.1583   0.2365   0.2481
     0.4808   0.4898   0.5601   0.7212   0.7220   0.7784   0.8079   1.0176
     1.0375   1.0702   1.1820   1.2185   1.2279   1.2443   1.3067   1.3252
     1.4072   1.4875   1.4958   1.6298   1.6552   1.8285   1.8546   1.8607
     1.8654   1.8767   2.0158   2.0307   2.0416   2.3662   2.3737   4.4829
     5.0395   5.0578   5.2001   5.8562   6.1997   6.5382   6.6023   6.6528
     7.1502   7.5589   7.8124   7.9608   8.1154   8.2648   8.3901   8.4891
     8.6203

          k = 0.0000 0.1320 0.0000 ( 35551 PWs)   bands (ev):

   -35.7553 -35.5740 -24.3199 -22.9247 -22.9228 -22.7221 -17.2250 -17.0191
   -16.8693 -16.8060 -16.6946 -16.6392 -15.3809 -15.2542 -15.1169 -14.8383
   -14.8226 -14.7145 -14.4731 -14.3509 -14.3411 -14.1503 -14.1310 -14.0911
   -14.0454 -13.9423 -13.6604  -9.5846  -9.1401  -9.1395  -8.0825  -8.0790
    -7.9972  -7.9960  -7.9329  -7.8938  -7.8920  -7.7459  -7.6732  -2.5484
    -2.5474  -2.3988  -2.3166  -2.3109  -2.2129  -2.0243  -1.9773  -1.8133
    -1.8058  -1.8045  -1.7749  -1.6943  -1.5349  -1.4105  -1.3885  -1.3768
    -0.9891  -0.8645  -0.8086  -0.7830  -0.7779  -0.7174  -0.7156  -0.6225
    -0.6210  -0.5113  -0.4406  -0.3490  -0.3471  -0.3167  -0.3096  -0.3077
    -0.3046  -0.1967  -0.1774  -0.1754  -0.1568  -0.0959  -0.0386  -0.0377
    -0.0360   0.0017   0.1005   0.1154   0.1656   0.2009   0.2892   0.3349
     0.3379   0.6288   0.7147   0.8536   0.9081   0.9190   0.9191   0.9722
     0.9974   1.0083   1.0155   1.1338   1.2469   1.2862   1.3199   1.3565
     1.4367   1.4722   1.5947   1.6119   1.6317   1.6331   1.7818   1.8344
     1.8378   1.8607   2.1151   2.1633   2.5324   2.6538   2.6664   4.7660
     5.4180   5.4334   5.4882   6.1704   6.4426   6.7616   6.9067   6.9320
     7.3620   7.7330   7.9846   8.1380   8.2689   8.3520   8.5124   8.5666
     8.6240

          k = 0.0000 0.2640 0.0000 ( 35461 PWs)   bands (ev):

   -35.7509 -35.5696 -24.2685 -22.8588 -22.8569 -22.6594 -17.1330 -17.0235
   -16.9272 -16.8472 -16.8003 -16.6336 -15.1794 -15.0953 -14.9743 -14.8884
   -14.8410 -14.6534 -14.4106 -14.3389 -14.3096 -14.2474 -14.1886 -14.1845
   -14.1707 -14.0250 -13.7180  -9.5534  -9.2317  -9.0495  -8.0820  -8.0790
    -7.9848  -7.9826  -7.9276  -7.8768  -7.8755  -7.7778  -7.6327  -3.0111
    -2.9799  -2.9744  -2.7911  -2.5939  -2.5883  -2.5631  -2.4429  -2.4408
    -2.3364  -1.9210  -1.7586  -1.7273  -1.6394  -1.6348  -1.6207  -1.3339
    -1.2186  -1.1524  -1.1125  -1.0820  -0.9672  -0.9671  -0.8144  -0.8097
    -0.8022  -0.7100  -0.6917  -0.6597  -0.6572  -0.6215  -0.5259  -0.5005
    -0.3854  -0.3296  -0.1513  -0.1491  -0.1465  -0.0681  -0.0492   0.0485
     0.0829   0.2051   0.2781   0.3564   0.4145   0.4480   0.5270   0.5385
     0.5933   0.6873   0.7949   0.8020   0.8996   0.9709   0.9866   1.0038
     1.0046   1.0479   1.1108   1.1291   1.1547   1.2535   1.3847   1.3948
     1.5398   1.5466   1.5601   1.7170   1.7445   1.8117   1.8136   1.8308
     1.8935   1.9412   2.2406   2.2684   2.8771   2.8797   3.3821   5.3419
     6.2518   6.3258   6.3267   6.6146   7.1378   7.3104   7.7275   7.7318
     7.8404   8.0462   8.4772   8.5213   8.6215   8.7153   8.7357   8.8014
     8.9018

          k = 0.0000 0.3960 0.0000 ( 35408 PWs)   bands (ev):

   -35.7465 -35.5651 -24.2159 -22.7906 -22.7887 -22.5946 -17.1598 -17.0313
   -16.9837 -16.8241 -16.7947 -16.6279 -15.0949 -15.0852 -14.8526 -14.7976
   -14.7504 -14.6211 -14.4292 -14.3836 -14.3403 -14.2756 -14.2616 -14.2566
   -14.1469 -14.0824 -13.8006  -9.5037  -9.3265  -8.9550  -8.0819  -8.0791
    -8.0630  -8.0606  -7.9222  -7.8688  -7.7483  -7.7470  -7.5126  -3.7256
    -3.4501  -3.4422  -3.2327  -3.1591  -3.1555  -3.0100  -2.5334  -2.5314
    -2.3617  -2.2697  -1.9698  -1.9651  -1.6944  -1.6633  -1.5670  -1.4480
    -1.3726  -1.2785  -1.2752  -1.2743  -1.2356  -1.2245  -1.0337  -1.0068
    -0.9886  -0.9130  -0.9064  -0.8788  -0.8350  -0.7858  -0.6914  -0.5161
    -0.4169  -0.3885  -0.3584  -0.1320  -0.1302  -0.0351  -0.0342  -0.0033
     0.0735   0.3120   0.3137   0.3485   0.4026   0.4146   0.6108   0.7625
     0.7628   0.7674   0.7999   0.8367   0.9157   0.9333   0.9743   0.9758
     1.0603   1.0806   1.2173   1.2494   1.4557   1.4649   1.5549   1.5769
     1.6107   1.7189   1.7346   1.7693   1.7960   1.8208   2.0220   2.0241
     2.1871   2.2065   2.2079   2.2122   2.7713   2.7729   3.9420   5.8299
     6.4422   7.2730   7.2744   7.3289   7.9266   8.0774   8.2351   8.4228
     8.5200   8.5363   8.9154   8.9199   8.9726   8.9768   9.0733   9.1068
     9.2435

          k = 0.0000-0.5279 0.0000 ( 35442 PWs)   bands (ev):

   -35.7447 -35.5633 -24.1938 -22.7617 -22.7597 -22.5672 -17.2119 -17.0354
   -16.9864 -16.7924 -16.7793 -16.6255 -15.1369 -15.1296 -14.7372 -14.7027
   -14.6508 -14.5876 -14.5794 -14.4219 -14.3884 -14.2997 -14.2398 -14.2331
   -14.1190 -14.0773 -13.8654  -9.4610  -9.3842  -8.9146  -8.0927  -8.0903
    -8.0815  -8.0786  -7.9141  -7.9090  -7.6924  -7.6911  -7.4606  -3.9936
    -3.6282  -3.6220  -3.4057  -3.3895  -3.3803  -3.1795  -2.5495  -2.5475
    -2.3985  -2.3706  -2.1001  -2.0969  -1.6677  -1.6270  -1.5868  -1.4657
    -1.4243  -1.3660  -1.3642  -1.3563  -1.3458  -1.2018  -1.1580  -1.1250
    -1.0864  -0.9988  -0.9971  -0.9558  -0.9221  -0.7744  -0.7630  -0.4909
    -0.4640  -0.4034  -0.3809  -0.1264  -0.1246  -0.0434  -0.0247   0.0070
     0.0739   0.1977   0.2521   0.2769   0.3798   0.4180   0.6462   0.6705
     0.6895   0.8243   0.8494   0.9213   0.9572   0.9573   0.9588   1.0235
     1.1646   1.2084   1.2255   1.2516   1.5713   1.5718   1.5778   1.6326
     1.8415   1.8498   1.8614   1.8969   1.9039   1.9518   1.9601   2.0511
     2.0554   2.1758   2.3680   2.3694   2.5922   2.5946   4.1235   5.9149
     6.6718   7.4531   7.6863   7.6881   7.8880   8.5570   8.7659   8.7974
     8.8365   8.8572   8.8862   8.9876   9.0164   9.1471   9.1569   9.1716
     9.2950

          k = 0.1250 0.0000 0.0000 ( 35561 PWs)   bands (ev):

   -35.7561 -35.5747 -24.3273 -22.9333 -22.9314 -22.7303 -17.2277 -17.0213
   -16.8885 -16.7955 -16.7232 -16.6213 -15.3674 -15.2417 -15.1915 -14.8785
   -14.8628 -14.7470 -14.5045 -14.3503 -14.3457 -14.1583 -14.1281 -14.0939
   -14.0166 -13.9200 -13.6464  -9.6191  -9.1213  -9.0746  -8.1087  -8.1053
    -7.9838  -7.9816  -7.9679  -7.8197  -7.8178  -7.7312  -7.5945  -2.5333
    -2.5322  -2.3694  -2.0336  -2.0214  -1.9778  -1.9691  -1.9595  -1.9110
    -1.6753  -1.6706  -1.6227  -1.5296  -1.3967  -1.3803  -1.3781  -1.1641
    -1.0582  -0.9392  -0.7938  -0.7754  -0.6768  -0.6737  -0.5536  -0.5455
    -0.5021  -0.4991  -0.4678  -0.4334  -0.4263  -0.3994  -0.3687  -0.3656
    -0.3446  -0.3265  -0.2260  -0.0702  -0.0691  -0.0681  -0.0535  -0.0271
     0.0332   0.0346   0.0355   0.0594   0.1171   0.1982   0.2549   0.3398
     0.5617   0.6063   0.6259   0.6459   0.6698   0.8095   0.8682   0.8976
     1.0261   1.0495   1.0532   1.1953   1.2413   1.2906   1.3159   1.3193
     1.4181   1.4733   1.5392   1.5923   1.7435   1.7566   1.8147   1.8276
     1.9302   1.9760   2.0239   2.0778   2.1825   2.4068   2.4096   4.6864
     5.2299   5.2376   5.3783   6.0914   6.3839   6.7031   6.8164   6.8515
     7.2964   7.8581   7.9565   8.0901   8.2593   8.4283   8.4635   8.6245
     8.7049

          k = 0.1250 0.1320 0.0000 ( 35510 PWs)   bands (ev):

   -35.7542 -35.5729 -24.3069 -22.9074 -22.9055 -22.7056 -17.1926 -16.9859
   -16.8915 -16.8586 -16.7243 -16.6858 -15.2856 -15.1725 -15.1352 -14.8733
   -14.8506 -14.7172 -14.4678 -14.3513 -14.3451 -14.1619 -14.1454 -14.1338
   -14.0607 -13.9668 -13.6666  -9.5968  -9.2731  -8.9854  -8.1277  -8.1255
    -8.0458  -8.0431  -7.9632  -7.8260  -7.7817  -7.7801  -7.5541  -2.5853
    -2.5831  -2.4164  -2.3029  -2.2947  -2.1926  -2.0156  -2.0126  -1.9941
    -1.9858  -1.9489  -1.7998  -1.7986  -1.6445  -1.5483  -1.4140  -1.4076
    -1.0559  -0.9743  -0.9266  -0.8481  -0.8455  -0.8300  -0.8043  -0.7157
    -0.6627  -0.6626  -0.5393  -0.4378  -0.3927  -0.3868  -0.3493  -0.3445
    -0.2926  -0.2026  -0.1957  -0.1567  -0.1434  -0.0181  -0.0110   0.0113
     0.0216   0.0481   0.1089   0.1254   0.1543   0.1989   0.2831   0.3646
     0.5095   0.7433   0.7661   0.8687   0.8775   0.8930   0.9621   1.0132
     1.0448   1.0743   1.1038   1.1275   1.1409   1.1634   1.2649   1.4152
     1.4181   1.4372   1.4982   1.5018   1.5920   1.6967   1.7015   1.8288
     2.1806   2.1946   2.3388   2.5149   2.5466   2.6642   2.6715   4.9209
     5.5704   5.5755   5.6475   6.3391   6.5832   6.8778   7.1122   7.1290
     7.5171   7.8323   8.1267   8.2376   8.2902   8.4559   8.5732   8.6811
     8.7638

          k = 0.1250 0.2640 0.0000 ( 35453 PWs)   bands (ev):

   -35.7499 -35.5685 -24.2567 -22.8436 -22.8417 -22.6447 -17.1036 -17.0204
   -16.8973 -16.8711 -16.8439 -16.7057 -15.1086 -15.0492 -14.9850 -14.8760
   -14.8160 -14.6485 -14.3877 -14.3340 -14.3111 -14.2481 -14.2118 -14.1924
   -14.1716 -14.0380 -13.7153  -9.5511  -9.4126  -8.9732  -8.1967  -8.1949
    -8.0827  -8.0798  -7.9713  -7.9290  -7.7726  -7.7709  -7.5488  -3.0245
    -3.0000  -2.9726  -2.8024  -2.5956  -2.5888  -2.5647  -2.4422  -2.4402
    -2.3443  -1.9676  -1.9540  -1.9497  -1.8557  -1.6460  -1.6409  -1.5837
    -1.2731  -1.1708  -1.1463  -1.1433  -1.0895  -1.0800  -1.0187  -0.8542
    -0.8532  -0.8372  -0.8014  -0.7406  -0.6962  -0.6650  -0.6059  -0.4966
    -0.3597  -0.3407  -0.3177  -0.2035  -0.1705   0.0042   0.0247   0.0557
     0.1928   0.1968   0.3019   0.3266   0.4267   0.5804   0.5853   0.6268
     0.7985   0.8529   0.8583   0.8933   0.9386   0.9760   1.0606   1.1112
     1.1365   1.1708   1.1976   1.2024   1.2252   1.2574   1.2776   1.3805
     1.4292   1.4710   1.5465   1.6902   1.7669   1.7800   1.7963   1.9453
     2.3778   2.3893   2.5774   2.7115   2.8869   2.8983   3.3836   5.4471
     6.2631   6.3869   6.3877   6.6381   7.2179   7.3959   7.7862   7.8926
     7.8981   8.0685   8.5521   8.6196   8.6891   8.7186   8.8173   8.8449
     8.9518

          k = 0.1250 0.3960 0.0000 ( 35460 PWs)   bands (ev):

   -35.7455 -35.5641 -24.2054 -22.7777 -22.7757 -22.5819 -17.1547 -17.0048
   -16.9786 -16.8626 -16.7969 -16.6973 -15.0597 -15.0523 -14.7950 -14.7745
   -14.6891 -14.5996 -14.4002 -14.3630 -14.3212 -14.3075 -14.2560 -14.2509
   -14.1705 -14.0773 -13.7843  -9.5267  -9.4514  -9.0210  -8.2271  -8.2250
    -8.0943  -8.0914  -8.0224  -7.9295  -7.8176  -7.8161  -7.5886  -3.7130
    -3.4917  -3.4801  -3.2619  -3.1504  -3.1470  -3.0284  -2.5415  -2.5396
    -2.3742  -2.2122  -1.9530  -1.9462  -1.8186  -1.7910  -1.7581  -1.5342
    -1.5268  -1.4791  -1.4404  -1.3584  -1.3013  -1.2624  -1.1970  -1.1048
    -1.0369  -1.0281  -1.0172  -0.9423  -0.9184  -0.8045  -0.7692  -0.5490
    -0.4640  -0.3832  -0.3425  -0.1775  -0.1742   0.0337   0.0394   0.0537
     0.1514   0.2669   0.3104   0.4967   0.5940   0.6022   0.7390   0.7437
     0.8072   0.8945   0.9048   1.0118   1.0213   1.0416   1.0664   1.1041
     1.1270   1.1916   1.2551   1.4348   1.4940   1.5241   1.5546   1.5970
     1.6573   1.7274   1.7490   1.8110   1.9780   2.0819   2.1739   2.1750
     2.3251   2.3393   2.5285   2.6289   2.8274   2.8508   3.9367   5.8506
     6.3141   7.1375   7.1395   7.2800   7.7503   7.9541   8.0899   8.3862
     8.5012   8.5101   8.7512   8.8949   9.0647   9.0916   9.2046   9.3039
     9.3986

          k = 0.1250-0.5279 0.0000 ( 35396 PWs)   bands (ev):

   -35.7436 -35.5622 -24.1838 -22.7497 -22.7478 -22.5553 -17.2063 -17.0298
   -16.9615 -16.8588 -16.7535 -16.6936 -15.0921 -15.0856 -14.6647 -14.6604
   -14.5924 -14.5849 -14.5395 -14.4059 -14.3658 -14.3336 -14.2365 -14.2334
   -14.1035 -14.0974 -13.8374  -9.5067  -9.4626  -9.0505  -8.2218  -8.2194
    -8.0991  -8.0962  -8.0324  -7.9282  -7.8518  -7.8506  -7.6145  -3.9825
    -3.6775  -3.6673  -3.4391  -3.3803  -3.3757  -3.2043  -2.5625  -2.5607
    -2.3858  -2.3077  -1.9831  -1.9756  -1.7732  -1.7527  -1.6802  -1.6485
    -1.6465  -1.5989  -1.5262  -1.4003  -1.3865  -1.3370  -1.2615  -1.2549
    -1.1263  -1.1079  -1.1030  -1.0298  -1.0122  -0.9044  -0.7539  -0.5453
    -0.4636  -0.3943  -0.3520  -0.1583  -0.1463   0.0463   0.0517   0.0548
     0.1533   0.2878   0.3389   0.3789   0.4787   0.5822   0.7682   0.7857
     0.7948   0.7956   0.8551   1.0621   1.0995   1.1158   1.1277   1.1283
     1.1762   1.2087   1.2862   1.4623   1.6124   1.6700   1.8284   1.8584
     1.8615   1.8688   1.9013   2.0304   2.0878   2.1602   2.1847   2.1914
     2.3391   2.3403   2.3830   2.4737   2.7053   2.7373   4.1171   5.8027
     6.7881   7.1008   7.3601   7.3632   7.7032   8.0974   8.1722   8.6378
     8.8371   8.9469   9.1280   9.1414   9.1553   9.3060   9.4968   9.5326
     9.6695

          k = 0.2500 0.0000 0.0000 ( 35576 PWs)   bands (ev):

   -35.7534 -35.5721 -24.2943 -22.8890 -22.8871 -22.6880 -17.1426 -17.0524
   -16.9349 -16.8885 -16.7922 -16.6179 -15.2516 -15.1653 -15.1152 -14.9637
   -14.8990 -14.7719 -14.5146 -14.3647 -14.3622 -14.2498 -14.1921 -14.1549
   -14.0586 -13.9828 -13.6703  -9.6427  -9.0253  -9.0167  -8.1102  -8.1070
    -7.9919  -7.8966  -7.8952  -7.7390  -7.7370  -7.6476  -7.5190  -2.7263
    -2.7216  -2.5465  -2.3695  -2.3683  -2.2760  -2.1553  -1.9102  -1.8899
    -1.8195  -1.6424  -1.6107  -1.5511  -1.4493  -1.3769  -1.3747  -1.2384
    -1.2317  -1.1129  -1.0199  -1.0183  -0.9294  -0.9288  -0.8120  -0.7993
    -0.6938  -0.6905  -0.5843  -0.5619  -0.4935  -0.4849  -0.4274  -0.4120
    -0.4072  -0.3963  -0.3422  -0.2095  -0.0962  -0.0829  -0.0808   0.0234
     0.0247   0.1621   0.1641   0.2685   0.2859   0.3470   0.3865   0.4625
     0.5000   0.5436   0.5849   0.6902   0.7526   0.7762   0.7886   0.8918
     1.1148   1.1398   1.1439   1.1475   1.1658   1.2463   1.2595   1.3051
     1.4109   1.4124   1.5939   1.6059   1.7094   1.7175   1.8418   1.8754
     1.9223   2.0501   2.1162   2.2823   2.4220   2.5162   2.5166   5.1631
     5.6931   5.6943   5.8511   6.5933   6.8810   7.1449   7.3939   7.4116
     7.6675   8.0497   8.3218   8.3658   8.5437   8.7490   8.7651   8.7918
     9.0685

          k = 0.2500 0.1320 0.0000 ( 35521 PWs)   bands (ev):

   -35.7516 -35.5702 -24.2751 -22.8651 -22.8632 -22.6651 -17.1106 -17.0460
   -16.9040 -16.8805 -16.8583 -16.6837 -15.1881 -15.1138 -15.0787 -14.9158
   -14.8476 -14.7370 -14.4662 -14.3504 -14.3499 -14.2439 -14.1976 -14.1687
   -14.0929 -14.0107 -13.6844  -9.6192  -9.3020  -8.9154  -8.1785  -8.1765
    -8.0338  -8.0309  -8.0142  -7.8287  -7.7054  -7.7036  -7.4856  -2.7770
    -2.7669  -2.5828  -2.3610  -2.3606  -2.2701  -2.2563  -2.2531  -2.1509
    -2.1254  -1.9993  -1.9439  -1.7907  -1.7890  -1.6075  -1.5106  -1.5020
    -1.2110  -1.1757  -1.1701  -1.1170  -1.0521  -0.9885  -0.8918  -0.8326
    -0.8257  -0.7820  -0.7674  -0.6668  -0.5297  -0.5047  -0.4336  -0.3776
    -0.3397  -0.2509  -0.1943  -0.1868  -0.1548  -0.0455  -0.0390   0.0383
     0.0404   0.1634   0.1685   0.1884   0.2645   0.4328   0.5038   0.6106
     0.6391   0.7344   0.7490   0.7584   0.8839   0.9101   0.9577   1.0306
     1.0406   1.0882   1.1796   1.2028   1.2451   1.2547   1.2906   1.3200
     1.3210   1.3855   1.5623   1.5701   1.6154   1.6799   1.8559   1.8829
     2.4933   2.5230   2.5960   2.6924   2.7084   2.7369   2.8940   5.3203
     5.9543   5.9554   6.0636   6.5869   7.0233   7.2574   7.6509   7.6585
     7.7219   7.9931   8.4119   8.4560   8.5579   8.6912   8.8642   8.9086
     9.0140

          k = 0.2500 0.2640 0.0000 ( 35483 PWs)   bands (ev):

   -35.7473 -35.5659 -24.2280 -22.8064 -22.8045 -22.6088 -17.0467 -17.0214
   -16.9948 -16.8765 -16.8247 -16.8141 -15.0227 -15.0154 -15.0109 -14.7781
   -14.7193 -14.6506 -14.3402 -14.3259 -14.3224 -14.2595 -14.2467 -14.2158
   -14.1467 -14.0663 -13.7110  -9.6137  -9.5458  -9.0227  -8.3986  -8.3969
    -8.1696  -8.0953  -8.0926  -7.9421  -7.8252  -7.8233  -7.6086  -3.1582
    -3.1260  -2.9577  -2.8908  -2.6230  -2.6021  -2.5868  -2.4737  -2.4733
    -2.4118  -2.3310  -2.3293  -2.2486  -2.0806  -1.8858  -1.6164  -1.5828
    -1.5823  -1.5657  -1.4702  -1.3101  -1.2290  -1.1573  -1.0714  -1.0517
    -0.8964  -0.8808  -0.8191  -0.7860  -0.7584  -0.7556  -0.6969  -0.5788
    -0.5159  -0.4436  -0.3287  -0.1859  -0.1490  -0.1051   0.1360   0.1553
     0.2349   0.3509   0.4183   0.6201   0.6250   0.6702   0.7612   0.7988
     0.8006   0.9338   1.0497   1.0713   1.1002   1.1726   1.1930   1.1984
     1.2184   1.2805   1.2963   1.3212   1.3493   1.3898   1.4033   1.4426
     1.5152   1.5171   1.5929   1.6954   1.6961   1.7924   1.8923   1.9961
     2.8245   2.8258   3.1078   3.1256   3.2491   3.3902   3.4064   5.7310
     6.0320   6.4974   6.4978   6.8234   7.4100   7.5525   7.8153   8.1836
     8.1852   8.2571   8.5626   8.5936   8.8696   8.9008   8.9672   9.0693
     9.1451

          k = 0.2500 0.3960 0.0000 ( 35466 PWs)   bands (ev):

   -35.7429 -35.5615 -24.1799 -22.7460 -22.7441 -22.5509 -17.1426 -17.0107
   -16.9668 -16.9361 -16.8466 -16.7274 -14.9782 -14.9743 -14.7837 -14.6064
   -14.5796 -14.5594 -14.3824 -14.3330 -14.3261 -14.2680 -14.2426 -14.2287
   -14.1877 -14.0716 -13.7430  -9.7698  -9.4939  -9.2343  -8.5187  -8.5166
    -8.3004  -8.1456  -8.1432  -8.0391  -8.0371  -7.9605  -7.8265  -3.6937
    -3.6434  -3.6252  -3.3788  -3.1322  -3.1262  -3.1024  -2.6118  -2.6116
    -2.4477  -2.2949  -2.2919  -2.2213  -2.0826  -2.0239  -1.9444  -1.9278
    -1.7717  -1.6351  -1.6217  -1.5346  -1.5226  -1.3263  -1.3100  -1.1175
    -1.0227  -0.9868  -0.9644  -0.9534  -0.9509  -0.8109  -0.7439  -0.7190
    -0.6247  -0.5855  -0.3891  -0.1717  -0.0485   0.0029   0.1897   0.2040
     0.3234   0.4871   0.6409   0.8156   0.8168   0.8243   0.9249   0.9943
     1.0943   1.1275   1.1547   1.1602   1.1651   1.2656   1.3289   1.3330
     1.3809   1.4270   1.5187   1.5486   1.5892   1.5965   1.6429   1.6515
     1.6849   1.7438   1.8003   1.8249   2.0931   2.0950   2.0969   2.1006
     2.6561   2.6580   3.3361   3.3674   3.4882   3.6228   3.9201   5.5587
     6.2732   6.7046   6.7065   7.1382   7.5203   7.5824   7.8179   8.4576
     8.6327   8.6457   8.8609   9.0526   9.1863   9.3057   9.5119   9.5850
     9.6386

          k = 0.2500-0.5279 0.0000 ( 35512 PWs)   bands (ev):

   -35.7411 -35.5597 -24.1596 -22.7205 -22.7185 -22.5265 -17.1928 -17.0165
   -17.0052 -16.8966 -16.8413 -16.6878 -14.9750 -14.9706 -14.5831 -14.5544
   -14.5252 -14.5073 -14.4460 -14.4014 -14.3722 -14.3003 -14.2296 -14.2277
   -14.1092 -14.0722 -13.7680  -9.8000  -9.4685  -9.3516  -8.5188  -8.5164
    -8.3197  -8.2336  -8.2320  -8.1055  -8.1027  -7.9758  -7.9372  -3.9604
    -3.8475  -3.8257  -3.5711  -3.3582  -3.3539  -3.2974  -2.6194  -2.6189
    -2.4458  -2.2596  -2.2532  -2.2036  -2.1628  -2.0866  -2.0847  -1.9720
    -1.8724  -1.7205  -1.6863  -1.5967  -1.5787  -1.4097  -1.4006  -1.1296
    -1.1212  -1.0673  -1.0354  -0.9773  -0.9656  -0.8899  -0.7382  -0.7161
    -0.6604  -0.6100  -0.3892  -0.1692  -0.0176   0.0521   0.2010   0.2566
     0.4317   0.5221   0.7153   0.8033   0.8824   0.9192   0.9216   0.9403
     1.0376   1.0657   1.1810   1.2681   1.3204   1.3339   1.3394   1.3845
     1.4517   1.4574   1.4760   1.6378   1.7440   1.7975   1.8042   1.8469
     1.8625   1.8887   1.9092   1.9984   2.1373   2.2197   2.2715   2.2722
     2.4340   2.4364   3.3557   3.3941   3.5243   3.6532   4.0906   5.3599
     6.6618   6.6700   6.7580   6.9800   7.4728   7.5341   7.5717   8.3945
     8.9616   9.0832   9.3571   9.3666   9.3867   9.6731   9.7367   9.7862
     9.8095

          k = 0.3750 0.0000 0.0000 ( 35488 PWs)   bands (ev):

   -35.7508 -35.5694 -24.2608 -22.8436 -22.8416 -22.6447 -17.1924 -17.0473
   -17.0310 -16.8356 -16.7889 -16.6146 -15.3255 -15.2042 -15.1981 -14.8211
   -14.7828 -14.7814 -14.4835 -14.3994 -14.3692 -14.3662 -14.2824 -14.1995
   -14.0921 -14.0289 -13.7013  -9.6385  -8.9619  -8.9570  -8.0927  -8.0895
    -7.9843  -7.8317  -7.8305  -7.6546  -7.6526  -7.5988  -7.4403  -3.0545
    -3.0467  -2.8892  -2.5642  -2.4928  -2.4915  -2.3163  -1.8297  -1.7926
    -1.7498  -1.6907  -1.6729  -1.5138  -1.5117  -1.4154  -1.3785  -1.3764
    -1.3229  -1.2350  -1.1802  -1.1697  -1.1442  -1.0552  -1.0469  -1.0173
    -0.8936  -0.8906  -0.7902  -0.7620  -0.6192  -0.5491  -0.4998  -0.4786
    -0.4063  -0.4046  -0.3810  -0.2884  -0.1307  -0.0957  -0.0936   0.0138
     0.0156   0.2404   0.2433   0.2623   0.2683   0.2708   0.3166   0.3822
     0.4303   0.5857   0.6975   0.7864   0.8012   0.8241   0.9791   1.0231
     1.0232   1.0515   1.1408   1.1616   1.1862   1.2089   1.3405   1.3942
     1.4674   1.5944   1.5972   1.6276   1.6514   1.7368   1.8711   1.9660
     2.0148   2.0811   2.1511   2.3924   2.4466   2.6351   2.6355   5.6940
     6.2828   6.3432   6.3441   6.9352   7.5081   7.5988   7.8386   7.8406
     7.8889   8.3067   8.3905   8.5181   8.8475   9.0237   9.1608   9.2629
     9.3423

          k = 0.3750 0.1320 0.0000 ( 35549 PWs)   bands (ev):

   -35.7490 -35.5676 -24.2429 -22.8219 -22.8199 -22.6238 -17.1838 -17.0223
   -17.0182 -16.8533 -16.8064 -16.6788 -15.2530 -15.1566 -15.1512 -14.7816
   -14.7390 -14.7198 -14.4330 -14.3591 -14.3460 -14.3440 -14.2663 -14.1927
   -14.1282 -14.0371 -13.7119  -9.6178  -9.2389  -8.9659  -8.1500  -8.1477
    -8.0103  -7.9948  -7.9931  -7.7788  -7.7443  -7.7424  -7.5335  -3.1169
    -3.1031  -2.9337  -2.5861  -2.4915  -2.4904  -2.3274  -2.2075  -2.1770
    -2.0397  -1.9971  -1.8801  -1.7793  -1.7774  -1.6562  -1.6056  -1.5861
    -1.4742  -1.4664  -1.3863  -1.2837  -1.1347  -1.0707  -0.9883  -0.9625
    -0.9329  -0.8656  -0.8545  -0.8046  -0.6767  -0.5815  -0.5598  -0.4301
    -0.4233  -0.2265  -0.2069  -0.1542  -0.1322  -0.0537  -0.0212   0.0239
     0.0304   0.1100   0.2728   0.2794   0.3075   0.4913   0.5296   0.5555
     0.6356   0.6785   0.7872   0.8458   0.8907   0.9983   1.0113   1.0537
     1.0674   1.1063   1.1643   1.1986   1.2105   1.2297   1.3718   1.4267
     1.5098   1.5496   1.5856   1.6131   1.6455   1.8717   1.8906   2.0238
     2.5604   2.5898   2.6296   2.7817   2.8170   2.9572   3.0567   5.7955
     6.3008   6.4925   6.4929   6.7368   7.5690   7.6455   7.8519   7.9041
     7.9052   8.3159   8.4721   8.5848   8.8241   8.8721   9.1200   9.2802
     9.3385

          k = 0.3750 0.2640 0.0000 ( 35547 PWs)   bands (ev):

   -35.7447 -35.5633 -24.1989 -22.7686 -22.7666 -22.5722 -17.1635 -17.0017
   -16.9977 -16.9430 -16.8220 -16.7318 -15.0543 -15.0341 -15.0312 -14.6862
   -14.6367 -14.5707 -14.3412 -14.3121 -14.2856 -14.2802 -14.2593 -14.1820
   -14.1666 -14.0739 -13.7182  -9.6735  -9.5420  -9.2076  -8.4513  -8.4495
    -8.2268  -8.1299  -8.1277  -8.0076  -8.0054  -7.9559  -7.8090  -3.4347
    -3.3951  -3.1715  -2.9203  -2.8072  -2.6628  -2.6543  -2.5428  -2.5426
    -2.5272  -2.4134  -2.4113  -2.3450  -2.3076  -1.9501  -1.8949  -1.8728
    -1.7527  -1.5195  -1.4378  -1.3810  -1.3172  -1.1370  -1.0894  -1.0593
    -1.0355  -1.0063  -0.8849  -0.8125  -0.8102  -0.7671  -0.7157  -0.6649
    -0.5383  -0.5368  -0.4239  -0.0963  -0.0858   0.0032   0.2260   0.2464
     0.3221   0.4689   0.5265   0.6557   0.6666   0.8446   0.8454   0.8809
     0.9803   1.0308   1.0648   1.0854   1.1787   1.2269   1.2806   1.2896
     1.3079   1.3135   1.4230   1.4439   1.4706   1.5171   1.5527   1.5920
     1.5922   1.6272   1.6520   1.6555   1.7958   1.8773   1.9463   2.0964
     2.8246   2.8268   3.3978   3.5620   3.5723   3.6797   3.8165   5.6564
     6.1395   6.5377   6.5385   6.8672   7.4677   7.5179   8.0102   8.2416
     8.2498   8.4596   8.6650   8.7564   8.9946   9.2460   9.2637   9.3801
     9.4217

          k = 0.3750 0.3960 0.0000 ( 35519 PWs)   bands (ev):

   -35.7404 -35.5589 -24.1540 -22.7139 -22.7120 -22.5195 -17.1461 -17.1243
   -16.9825 -16.9503 -16.8634 -16.6520 -14.9003 -14.8984 -14.7817 -14.5941
   -14.5443 -14.4132 -14.3960 -14.3346 -14.2466 -14.2412 -14.2379 -14.1751
   -14.1057 -14.0898 -13.7037  -9.9828  -9.5165  -9.4768  -8.7171  -8.7149
    -8.4995  -8.3821  -8.3807  -8.1329  -8.1295  -8.1177  -7.9849  -3.9147
    -3.8671  -3.6719  -3.5808  -3.2728  -3.1072  -3.1055  -2.7925  -2.7925
    -2.6460  -2.4420  -2.4398  -2.4093  -2.3186  -2.2630  -2.1928  -2.0490
    -1.9428  -1.8050  -1.5605  -1.3800  -1.3703  -1.3680  -1.3605  -1.1238
    -1.1053  -1.0368  -1.0190  -1.0103  -0.9552  -0.8722  -0.7762  -0.7239
    -0.6353  -0.5560  -0.5549  -0.0154   0.0409   0.0867   0.2914   0.4495
     0.6074   0.6799   0.8556   0.9946   0.9955   1.0591   1.1237   1.1814
     1.2074   1.2289   1.3198   1.3211   1.3793   1.4301   1.4954   1.5250
     1.5817   1.5905   1.6053   1.6257   1.6508   1.7689   1.7816   1.8128
     1.8345   1.8468   1.9112   1.9293   2.0180   2.0182   2.1139   2.3314
     2.6441   2.6484   3.8889   4.0828   4.0896   4.1612   4.2915   5.0693
     6.2346   6.2347   6.4671   6.9892   7.1637   7.2210   7.8911   8.2838
     8.8181   8.8367   9.1372   9.3206   9.3255   9.3759   9.4058   9.4658
     9.5070

          k = 0.3750-0.5279 0.0000 ( 35528 PWs)   bands (ev):

   -35.7386 -35.5571 -24.1352 -22.6909 -22.6889 -22.4972 -17.1794 -17.1336
   -17.0034 -16.9717 -16.8280 -16.6167 -14.8388 -14.8381 -14.5825 -14.5603
   -14.5151 -14.4569 -14.3559 -14.3503 -14.3197 -14.2217 -14.2197 -14.1970
   -14.0617 -14.0523 -13.6955 -10.0935  -9.6290  -9.4705  -8.7992  -8.7967
    -8.5952  -8.5272  -8.5260  -8.2465  -8.1585  -8.1551  -7.9990  -4.1220
    -4.0733  -3.9366  -3.7843  -3.4766  -3.3325  -3.3308  -2.8110  -2.8110
    -2.6583  -2.4373  -2.4341  -2.4071  -2.3706  -2.3201  -2.3000  -2.1228
    -1.9925  -1.9104  -1.6314  -1.4836  -1.4763  -1.4031  -1.3946  -1.1231
    -1.1190  -1.1143  -1.0964  -1.0609  -1.0093  -0.8785  -0.8770  -0.7114
    -0.6341  -0.5434  -0.5418   0.0188   0.0562   0.1261   0.3088   0.5335
     0.7491   0.7745   0.9947   1.1050   1.1082   1.1321   1.1704   1.1950
     1.2348   1.2479   1.3919   1.4530   1.4992   1.5088   1.6097   1.6110
     1.6201   1.6562   1.7941   1.8168   1.8183   1.8534   1.8790   1.9135
     1.9175   1.9768   2.0413   2.1076   2.1806   2.2062   2.2087   2.3995
     2.4058   2.4690   4.0189   4.2312   4.2357   4.3086   4.4322   4.8386
     6.0573   6.0574   6.6751   6.9465   7.0399   7.1352   7.7711   8.1183
     8.9627   8.9924   9.1936   9.1953   9.3204   9.4676   9.5824   9.6807
     9.6826

          k =-0.5000 0.0000 0.0000 ( 35494 PWs)   bands (ev):

   -35.7497 -35.5683 -24.2468 -22.8244 -22.8224 -22.6265 -17.2448 -17.0838
   -17.0052 -16.7920 -16.7875 -16.6132 -15.3607 -15.2597 -15.2541 -14.8472
   -14.7550 -14.5864 -14.4888 -14.3922 -14.3811 -14.3778 -14.3498 -14.2643
   -14.1011 -14.0452 -13.7172  -9.6310  -8.9429  -8.9318  -8.0824  -8.0792
    -7.9752  -7.8086  -7.8074  -7.6185  -7.6164  -7.5854  -7.4067  -3.1965
    -3.1891  -3.0325  -2.7190  -2.5180  -2.5164  -2.3139  -1.8199  -1.7827
    -1.7742  -1.7344  -1.5484  -1.5416  -1.4897  -1.4255  -1.3823  -1.3802
    -1.3600  -1.3391  -1.3116  -1.2739  -1.1964  -1.1663  -1.0713  -0.9808
    -0.9760  -0.9741  -0.8832  -0.8804  -0.6856  -0.6051  -0.5051  -0.4933
    -0.4477  -0.4026  -0.3800  -0.3005  -0.1240  -0.1011  -0.0989  -0.0214
    -0.0179   0.2349   0.2404   0.2426   0.2577   0.2656   0.2706   0.3438
     0.3963   0.6469   0.7615   0.7985   0.8203   0.8531   0.9131   0.9728
     0.9730   1.0942   1.1993   1.2118   1.2269   1.3241   1.4255   1.4912
     1.4932   1.4949   1.5034   1.6735   1.6996   1.7804   1.9814   2.0177
     2.0249   2.0949   2.1560   2.3966   2.4203   2.6597   2.6689   6.1467
     6.1513   7.0929   7.1167   7.1184   7.1674   7.1686   7.5144   8.0955
     8.3754   8.4087   8.4853   8.8648   8.9017   8.9353   9.2856   9.3053
     9.3508

          k =-0.5000 0.1320 0.0000 ( 35562 PWs)   bands (ev):

   -35.7479 -35.5665 -24.2293 -22.8036 -22.8017 -22.6063 -17.2355 -17.0745
   -16.9777 -16.8511 -16.7645 -16.6766 -15.2841 -15.2028 -15.1979 -14.8057
   -14.7171 -14.5430 -14.4301 -14.3577 -14.3518 -14.3462 -14.3262 -14.2313
   -14.1393 -14.0453 -13.7281  -9.6098  -9.1477  -9.0609  -8.1212  -8.1185
    -7.9947  -7.9380  -7.9368  -7.8215  -7.8192  -7.7062  -7.6208  -3.2654
    -3.2522  -3.0848  -2.7468  -2.5228  -2.5215  -2.3400  -2.1756  -2.1416
    -2.0055  -1.9685  -1.8382  -1.7741  -1.7720  -1.6806  -1.6417  -1.6171
    -1.5890  -1.5805  -1.4933  -1.3190  -1.1654  -1.1514  -1.0316  -1.0299
    -0.9567  -0.8655  -0.8428  -0.8158  -0.7823  -0.6184  -0.6015  -0.4536
    -0.4518  -0.2378  -0.2148  -0.1273  -0.0830  -0.0760  -0.0111   0.0199
     0.0245   0.0700   0.3164   0.3530   0.3540   0.4174   0.4505   0.5225
     0.6302   0.6619   0.7141   0.8753   0.9276   0.9955   1.0139   1.0604
     1.0842   1.1170   1.1206   1.2086   1.2618   1.3390   1.4613   1.4617
     1.5224   1.5540   1.5627   1.7052   1.7446   1.8580   2.0107   2.1096
     2.5721   2.5923   2.6302   2.8001   2.8387   3.0113   3.0852   6.1121
     6.2205   6.7523   6.9640   6.9650   7.4710   7.4726   7.6704   8.0042
     8.0818   8.2997   8.6137   8.8117   8.8531   9.1188   9.3802   9.4601
     9.4889

          k =-0.5000 0.2640 0.0000 ( 35556 PWs)   bands (ev):

   -35.7436 -35.5622 -24.1867 -22.7527 -22.7507 -22.5569 -17.2135 -17.0524
   -16.9943 -16.9066 -16.8188 -16.6941 -15.0743 -15.0501 -15.0487 -14.7067
   -14.6284 -14.4332 -14.3285 -14.3049 -14.2931 -14.2885 -14.2571 -14.2105
   -14.1465 -14.0665 -13.7285  -9.6386  -9.5403  -9.3421  -8.3902  -8.3878
    -8.2392  -8.2380  -8.1796  -8.0711  -8.0682  -7.9871  -7.9365  -3.5730
    -3.5337  -3.3161  -2.9464  -2.9127  -2.6885  -2.6810  -2.5584  -2.5525
    -2.5396  -2.4224  -2.4191  -2.3762  -2.3121  -2.0712  -2.0110  -1.8681
    -1.8557  -1.6023  -1.3896  -1.2954  -1.2830  -1.1310  -1.1292  -1.0787
    -1.0701  -1.0260  -0.9225  -0.8371  -0.8347  -0.7597  -0.7572  -0.6656
    -0.5556  -0.5520  -0.4399  -0.0863  -0.0693   0.0953   0.2472   0.3214
     0.3777   0.5106   0.5633   0.6874   0.6920   0.8614   0.9267   0.9349
     0.9906   1.0181   1.0265   1.0717   1.1061   1.2920   1.2959   1.3154
     1.3515   1.3906   1.4188   1.5209   1.5508   1.5543   1.5942   1.6279
     1.6486   1.6529   1.6612   1.7338   1.7643   1.9002   1.9965   2.2073
     2.8176   2.8203   3.4037   3.7013   3.7122   3.8137   3.9390   5.4988
     6.3908   6.5336   6.5341   6.7719   7.3950   7.4406   8.0779   8.2622
     8.2817   8.5191   8.7188   8.9918   9.1893   9.4260   9.4413   9.4632
     9.5761

          k =-0.5000 0.3960 0.0000 ( 35540 PWs)   bands (ev):

   -35.7393 -35.5579 -24.1433 -22.7005 -22.6985 -22.5063 -17.1920 -17.1234
   -17.0307 -16.9476 -16.8311 -16.6186 -14.8713 -14.8688 -14.7831 -14.6199
   -14.5545 -14.3862 -14.3246 -14.3165 -14.2397 -14.2378 -14.2102 -14.1473
   -14.1175 -14.0543 -13.6895 -10.0523  -9.6203  -9.4961  -8.7654  -8.7629
    -8.5558  -8.5272  -8.5260  -8.2536  -8.1490  -8.1457  -7.9984  -4.0450
    -3.9934  -3.7438  -3.6223  -3.3796  -3.0989  -3.0970  -2.8630  -2.8622
    -2.7146  -2.5108  -2.4578  -2.4561  -2.3608  -2.3259  -2.2892  -2.0675
    -1.9863  -1.8808  -1.5488  -1.3961  -1.3872  -1.2692  -1.2523  -1.2116
    -1.1950  -1.0496  -1.0447  -0.9713  -0.9621  -0.9285  -0.7543  -0.7278
    -0.7241  -0.5199  -0.5184  -0.0037   0.0981   0.1598   0.3237   0.5485
     0.7655   0.7705   0.9288   1.1181   1.1201   1.1320   1.1328   1.2123
     1.2197   1.2643   1.3933   1.3993   1.3999   1.4903   1.5474   1.5817
     1.6112   1.6117   1.6369   1.6601   1.7477   1.8069   1.8196   1.8991
     1.9070   1.9237   1.9744   1.9872   2.0173   2.0663   2.0742   2.4603
     2.6318   2.6373   3.8843   4.3469   4.3522   4.4072   4.5256   4.8674
     6.0390   6.0397   6.5619   6.9371   7.0155   7.0708   7.9764   8.1363
     8.7638   8.7877   9.2404   9.2705   9.3111   9.4321   9.5490   9.5791
     9.6014

          k =-0.5000-0.5279 0.0000 ( 35564 PWs)   bands (ev):

   -35.7375 -35.5561 -24.1250 -22.6785 -22.6765 -22.4850 -17.1832 -17.1740
   -17.0218 -16.9980 -16.7977 -16.5854 -14.7749 -14.7730 -14.6079 -14.5756
   -14.5392 -14.4324 -14.3477 -14.3083 -14.2675 -14.2182 -14.2145 -14.1060
   -14.1011 -14.0139 -13.6645 -10.2162  -9.7352  -9.4734  -8.9114  -8.9088
    -8.7066  -8.6433  -8.6421  -8.3597  -8.1770  -8.1730  -8.0148  -4.2535
    -4.2005  -3.9667  -3.8664  -3.5819  -3.3233  -3.3213  -2.8956  -2.8946
    -2.7420  -2.5256  -2.4531  -2.4478  -2.4462  -2.3842  -2.3258  -2.1377
    -2.0229  -1.9768  -1.6160  -1.5108  -1.5041  -1.3339  -1.3171  -1.1863
    -1.1642  -1.1441  -1.1425  -1.0630  -1.0065  -0.8860  -0.8707  -0.7324
    -0.7143  -0.4915  -0.4895   0.0321   0.1397   0.1784   0.3432   0.6594
     0.8650   0.9050   1.0976   1.1849   1.1905   1.1982   1.2320   1.2562
     1.2825   1.3767   1.4561   1.5305   1.5436   1.6098   1.6629   1.6912
     1.7339   1.7409   1.7914   1.8473   1.8516   1.9127   1.9415   1.9558
     2.0299   2.0532   2.0993   2.1798   2.1824   2.2349   2.2589   2.3749
     2.3833   2.6030   4.0061   4.5484   4.5552   4.6110   4.6243   4.7164
     5.8121   5.8127   6.6356   6.9057   6.9454   6.9542   7.9589   7.9834
     8.8730   8.8967   8.9167   8.9442   9.2684   9.3684   9.4901   9.5610
     9.6663

     the Fermi energy is     2.4074 ev

!    total energy              =   -1842.81629136 Ry
     Harris-Foulkes estimate   =   -1842.81629137 Ry
     estimated scf accuracy    <          9.9E-09 Ry

     The total energy is the sum of the following terms:

     one-electron contribution =  -26945.10639300 Ry
     hartree contribution      =   13623.82625914 Ry
     xc contribution           =    -621.54966058 Ry
     ewald contribution        =   12100.02080148 Ry
     smearing contrib. (-TS)   =      -0.00729840 Ry

     convergence has been achieved in  35 iterations

     negative rho (up, down):  1.515E-03 0.000E+00

     Forces acting on atoms (cartesian axes, Ry/au):

     atom    1 type  4   force =     0.00000000    0.00000000   -0.00017976
     atom    2 type  3   force =     0.00000000    0.00000000    0.00035650
     atom    3 type  4   force =     0.00000000    0.00000000   -0.00079877
     atom    4 type  1   force =     0.00000000    0.00000000   -0.00031873
     atom    5 type  3   force =     0.00000000    0.00000000    0.00064455
     atom    6 type  4   force =     0.00000000    0.00000000    0.00014389
     atom    7 type  4   force =     0.00000000    0.00000000    0.00047228
     atom    8 type  2   force =     0.00000000    0.00000000   -0.00107551
     atom    9 type  4   force =     0.00000000    0.00000000    0.00045411
     atom   10 type  4   force =     0.00000000    0.00000000    0.00068257
     atom   11 type  3   force =     0.00000000    0.00000000    0.00063181
     atom   12 type  1   force =     0.00000000    0.00000000   -0.00246670
     atom   13 type  4   force =     0.00000000    0.00000000    0.00688445
     atom   14 type  4   force =     0.00000000    0.00000000    0.01868505
     atom   15 type  3   force =     0.00000000    0.00000000   -0.02044127
     atom   16 type  4   force =     0.00000000    0.00000000    0.03189448
     atom   17 type  1   force =     0.00000000    0.00000000   -0.02490382
     atom   18 type  3   force =     0.00000000    0.00000000   -0.00956300
     atom   19 type  4   force =     0.00000000    0.00000000    0.01013054
     atom   20 type  4   force =     0.00000000    0.00000000    0.00277562
     atom   21 type  2   force =     0.00000000    0.00000000   -0.01778646
     atom   22 type  4   force =     0.00000000    0.00000000    0.00064065
     atom   23 type  4   force =     0.00000000    0.00000000    0.00220516
     atom   24 type  3   force =     0.00000000    0.00000000    0.00003111
     atom   25 type  1   force =     0.00000000    0.00000000    0.00019353
     atom   26 type  4   force =     0.00000000    0.00000000    0.00112186
     atom   27 type  3   force =     0.00000000    0.00000000   -0.00070556
     atom   28 type  4   force =     0.00000000    0.00000000    0.00029140

     Total force =     0.054653     Total SCF correction =     0.000421


     Computing stress (Cartesian axis) and pressure


     negative rho (up, down):  1.515E-03 0.000E+00
          total   stress  (Ry/bohr**3)                   (kbar)     P=       -8.56
  -0.00009565   0.00000000   0.00000000          -14.07        0.00        0.00
   0.00000000  -0.00004141   0.00000000            0.00       -6.09        0.00
   0.00000000   0.00000000  -0.00003746            0.00        0.00       -5.51

 
     init_run     :      8.29s CPU      8.81s WALL (       1 calls)
     electrons    :    551.77s CPU    589.62s WALL (       1 calls)
     forces       :      3.53s CPU      3.88s WALL (       1 calls)
     stress       :     19.04s CPU     19.95s WALL (       1 calls)

     Called by init_run:
     wfcinit      :      5.85s CPU      6.00s WALL (       1 calls)
     potinit      :      0.62s CPU      0.64s WALL (       1 calls)
     hinit0       :      0.98s CPU      1.00s WALL (       1 calls)

     Called by electrons:
     c_bands      :    435.58s CPU    450.91s WALL (      35 calls)
     sum_band     :     77.48s CPU     89.62s WALL (      35 calls)
     v_of_rho     :      2.83s CPU      2.87s WALL (      36 calls)
     newd         :     18.05s CPU     28.46s WALL (      36 calls)
     mix_rho      :     18.12s CPU     18.32s WALL (      35 calls)

     Called by c_bands:
     init_us_2    :      3.49s CPU      3.52s WALL (    1825 calls)
     cegterg      :    409.42s CPU    424.22s WALL (     875 calls)

     Called by sum_band:
     sum_band:bec :      0.23s CPU      0.24s WALL (     875 calls)
     addusdens    :     19.39s CPU     30.67s WALL (      35 calls)

     Called by *egterg:
     h_psi        :    201.99s CPU    210.99s WALL (    3939 calls)
     s_psi        :     20.51s CPU     20.87s WALL (    3939 calls)
     g_psi        :      0.63s CPU      0.64s WALL (    3039 calls)
     cdiaghg      :    110.80s CPU    111.29s WALL (    3914 calls)

     Called by h_psi:
     h_psi:calbec :     24.54s CPU     25.63s WALL (    3939 calls)
     vloc_psi     :    154.55s CPU    157.54s WALL (    3939 calls)
     add_vuspsi   :     21.74s CPU     24.62s WALL (    3939 calls)

     General routines
     calbec       :     40.20s CPU     41.37s WALL (    4939 calls)
     fft          :      2.32s CPU      2.35s WALL (     491 calls)
     ffts         :     10.02s CPU     10.12s WALL (   16757 calls)
     fftw         :    176.10s CPU    179.38s WALL (  622519 calls)
     interpolate  :      0.16s CPU      0.17s WALL (      36 calls)
 
     Parallel routines
     fft_scatt_xy :     23.09s CPU     23.49s WALL (  639767 calls)
     fft_scatt_yz :    107.12s CPU    109.08s WALL (  639767 calls)
 
     PWSCF        :   9m43.41s CPU  10m23.14s WALL

 
   This run was terminated on:  23:16:14  21May2021            

=------------------------------------------------------------------------------=
   JOB DONE.
=------------------------------------------------------------------------------=
[1621653375.021097] [holy7c04209:130198:0]          mpool.c:43   UCX  WARN  object 0x3d13ac0 was not returned to mpool ucp_requests
[1621653375.027727] [holy7c04201:104144:0]          mpool.c:43   UCX  WARN  object 0x3a5cec0 was not returned to mpool ucp_requests
[1621653375.027748] [holy7c04201:104144:0]          mpool.c:43   UCX  WARN  object 0x3a5d080 was not returned to mpool ucp_requests
[1621653375.026309] [holy7c04207:213959:0]          mpool.c:43   UCX  WARN  object 0x46bfa80 was not returned to mpool ucp_requests
[1621653375.026407] [holy7c04207:213959:0]          mpool.c:43   UCX  WARN  object 0x46bffc0 was not returned to mpool ucp_requests
[1621653375.028363] [holy7c04209:130197:0]          mpool.c:43   UCX  WARN  object 0x3b580c0 was not returned to mpool ucp_requests
[1621653375.027586] [holy7c04201:104145:0]          mpool.c:43   UCX  WARN  object 0x2df0b00 was not returned to mpool ucp_requests
[1621653375.026209] [holy7c04207:213957:0]          mpool.c:43   UCX  WARN  object 0x2d1cec0 was not returned to mpool ucp_requests
[1621653375.026558] [holy7c04205:158405:0]          mpool.c:43   UCX  WARN  object 0x35f8c40 was not returned to mpool ucp_requests
[1621653375.026583] [holy7c04205:158405:0]          mpool.c:43   UCX  WARN  object 0x35f8e00 was not returned to mpool ucp_requests
