
     Program PWSCF v.6.5 starts on 21May2021 at 21:28:36 

     This program is part of the open-source Quantum ESPRESSO suite
     for quantum simulation of materials; please cite
         "P. Giannozzi et al., J. Phys.:Condens. Matter 21 395502 (2009);
         "P. Giannozzi et al., J. Phys.:Condens. Matter 29 465901 (2017);
          URL http://www.quantum-espresso.org", 
     in publications or presentations arising from this work. More details at
     http://www.quantum-espresso.org/quote

     Parallel version (MPI), running on    20 processors

     MPI processes distributed on     1 nodes
     R & G space division:  proc/nbgrp/npool/nimage =      20
     Reading input from CBCO_Y_cleave_1.0_sep.pwi
Warning: card &IONS ignored
Warning: card     ION_DYNAMICS = 'BFGS' ignored
Warning: card / ignored
Warning: card &CELL ignored
Warning: card     CELL_DYNAMICS = 'BFGS' ignored
Warning: card     PRESS_CONV_THR = 5 ignored
Warning: card / ignored

     Current dimensions of program PWSCF are:
     Max number of different atomic species (ntypx) = 10
     Max number of k-points (npk) =  40000
     Max angular momentum in pseudopotentials (lmaxx) =  3

     Subspace diagonalization in iterative solution of the eigenvalue problem:
     one sub-group per band group will be used
     scalapack distributed-memory algorithm (size of sub-group:  4*  4 procs)

     Message from routine setup:
     using ibrav=0 with symmetry is DISCOURAGED, use correct ibrav instead
 
     Parallelization info
     --------------------
     sticks:   dense  smooth     PW     G-vecs:    dense   smooth      PW
     Min         149      50     14                71773    13820    2160
     Max         150      51     15                71810    13841    2205
     Sum        2991    1007    289              1435837   276553   43473
 


     bravais-lattice index     =            0
     lattice parameter (alat)  =       7.4270  a.u.
     unit-cell volume          =    4401.0322 (a.u.)^3
     number of atoms/cell      =           28
     number of atomic types    =            4
     number of electrons       =       227.00
     number of Kohn-Sham states=          137
     kinetic-energy cutoff     =      60.0000  Ry
     charge density cutoff     =     720.0000  Ry
     convergence threshold     =      1.0E-08
     mixing beta               =       0.5000
     number of iterations used =           10  local-TF  mixing
     Exchange-correlation= SLA PW PBE PBE
                           (   1   4   3   4   0   0   0)

     celldm(1)=   7.427040  celldm(2)=   0.000000  celldm(3)=   0.000000
     celldm(4)=   0.000000  celldm(5)=   0.000000  celldm(6)=   0.000000

     crystal axes: (cart. coord. in units of alat)
               a(1) = (   1.000000   0.000000   0.000000 )  
               a(2) = (   0.000000   0.947081   0.000000 )  
               a(3) = (   0.000000   0.000000  11.342795 )  

     reciprocal axes: (cart. coord. in units 2 pi/alat)
               b(1) = (  1.000000  0.000000  0.000000 )  
               b(2) = (  0.000000  1.055876  0.000000 )  
               b(3) = (  0.000000  0.000000  0.088162 )  


     PseudoPot. # 1 for Ba read from file:
     ./pseudo/Ba.pbe-nsp-van.UPF
     MD5 check sum: 2b9c31dd849566dd297d80989662b7a0
     Pseudo is Ultrasoft + core correction, Zval = 10.0
     Generated by new atomic code, or converted to UPF format
     Using radial grid of  907 points,  6 beta functions with: 
                l(1) =   0
                l(2) =   0
                l(3) =   1
                l(4) =   1
                l(5) =   2
                l(6) =   2
     Q(r) pseudized with  6 coefficients,  rinner =    1.200   1.200   1.200
                                                       1.200   1.200

     PseudoPot. # 2 for Ca read from file:
     ./pseudo/Ca.pbe-nsp-van.UPF
     MD5 check sum: 6471098428ff4fa451746d08035ff179
     Pseudo is Ultrasoft + core correction, Zval = 10.0
     Generated by new atomic code, or converted to UPF format
     Using radial grid of  845 points,  6 beta functions with: 
                l(1) =   0
                l(2) =   0
                l(3) =   1
                l(4) =   1
                l(5) =   2
                l(6) =   2
     Q(r) pseudized with  6 coefficients,  rinner =    1.200   1.200   1.200
                                                       1.200   1.200

     PseudoPot. # 3 for Cu read from file:
     ./pseudo/Cu.pbe-n-van_ak.UPF
     MD5 check sum: 34e3282627ffb533726feb647e090d62
     Pseudo is Ultrasoft + core correction, Zval = 11.0
     Generated by new atomic code, or converted to UPF format
     Using radial grid of  867 points,  6 beta functions with: 
                l(1) =   0
                l(2) =   0
                l(3) =   1
                l(4) =   1
                l(5) =   2
                l(6) =   2
     Q(r) pseudized with  8 coefficients,  rinner =    1.400   1.400   1.400
                                                       1.400   1.400

     PseudoPot. # 4 for O  read from file:
     ./pseudo/O.pbe-van_ak.UPF
     MD5 check sum: 783ce7fe4c79b6a4916957118fed0856
     Pseudo is Ultrasoft, Zval =  6.0
     Generated by new atomic code, or converted to UPF format
     Using radial grid of  737 points,  4 beta functions with: 
                l(1) =   0
                l(2) =   0
                l(3) =   1
                l(4) =   1
     Q(r) pseudized with  8 coefficients,  rinner =    0.800   0.800   0.800


     atomic species   valence    mass     pseudopotential
        Ba            10.00   137.32700     Ba( 1.00)
        Ca            10.00    40.07800     Ca( 1.00)
        Cu            11.00    63.54600     Cu( 1.00)
        O              6.00    15.99900     O ( 1.00)

      4 Sym. Ops. (no inversion) found



   Cartesian axes

     site n.     atom                  positions (alat units)
         1           O   tau(   1) = (   0.0000000   0.4735409  -0.0469745  )
         2           Cu  tau(   2) = (   0.0000000   0.0000000   0.0264565  )
         3           O   tau(   3) = (   0.0000000   0.0000000   0.5030914  )
         4           Ba  tau(   4) = (   0.5000000   0.4735409   0.5690292  )
         5           Cu  tau(   5) = (   0.0000000   0.0000000   1.0374254  )
         6           O   tau(   6) = (   0.5000000   0.0000000   1.0768099  )
         7           O   tau(   7) = (   0.0000000   0.4735409   1.1116985  )
         8           Ca  tau(   8) = (   0.5000000   0.4735409   1.4976260  )
         9           O   tau(   9) = (   0.0000000   0.4735409   1.8667529  )
        10           O   tau(  10) = (   0.5000000   0.0000000   1.9044124  )
        11           Cu  tau(  11) = (   0.0000000   0.0000000   1.9512546  )
        12           Ba  tau(  12) = (   0.5000000   0.4735409   2.4295764  )
        13           O   tau(  13) = (   0.0000000   0.0000000   2.5115362  )
        14           O   tau(  14) = (   0.0000000   0.4735409   2.9918528  )
        15           Cu  tau(  15) = (   0.0000000   0.0000000   2.9919088  )
        16           O   tau(  16) = (   0.0000000   0.0000000   3.4722686  )
        17           Ba  tau(  17) = (   0.5000000   0.4735409   3.5542208  )
        18           Cu  tau(  18) = (   0.0000000   0.0000000   4.0325248  )
        19           O   tau(  19) = (   0.5000000   0.0000000   4.0793669  )
        20           O   tau(  20) = (   0.0000000   0.4735409   4.1170213  )
        21           Ca  tau(  21) = (   0.5000000   0.4735409   4.4861584  )
        22           O   tau(  22) = (   0.0000000   0.4735409   5.1265220  )
        23           O   tau(  23) = (   0.5000000   0.0000000   5.1614106  )
        24           Cu  tau(  24) = (   0.0000000   0.0000000   5.2007978  )
        25           Ba  tau(  25) = (   0.5000000   0.4735409   5.6691914  )
        26           O   tau(  26) = (   0.0000000   0.0000000   5.7351190  )
        27           Cu  tau(  27) = (   0.0000000   0.0000000   6.2117589  )
        28           O   tau(  28) = (   0.0000000   0.4735409   6.2851772  )

     number of k points=    25  Gaussian smearing, width (Ry)=  0.0100
                       cart. coord. in units 2pi/alat
        k(    1) = (   0.0000000   0.0000000   0.0000000), wk =   0.0312500
        k(    2) = (   0.0000000   0.1319845   0.0000000), wk =   0.0625000
        k(    3) = (   0.0000000   0.2639689   0.0000000), wk =   0.0625000
        k(    4) = (   0.0000000   0.3959534   0.0000000), wk =   0.0625000
        k(    5) = (   0.0000000  -0.5279378   0.0000000), wk =   0.0312500
        k(    6) = (   0.1250000   0.0000000   0.0000000), wk =   0.0625000
        k(    7) = (   0.1250000   0.1319845   0.0000000), wk =   0.1250000
        k(    8) = (   0.1250000   0.2639689   0.0000000), wk =   0.1250000
        k(    9) = (   0.1250000   0.3959534   0.0000000), wk =   0.1250000
        k(   10) = (   0.1250000  -0.5279378   0.0000000), wk =   0.0625000
        k(   11) = (   0.2500000   0.0000000   0.0000000), wk =   0.0625000
        k(   12) = (   0.2500000   0.1319845   0.0000000), wk =   0.1250000
        k(   13) = (   0.2500000   0.2639689   0.0000000), wk =   0.1250000
        k(   14) = (   0.2500000   0.3959534   0.0000000), wk =   0.1250000
        k(   15) = (   0.2500000  -0.5279378   0.0000000), wk =   0.0625000
        k(   16) = (   0.3750000   0.0000000   0.0000000), wk =   0.0625000
        k(   17) = (   0.3750000   0.1319845   0.0000000), wk =   0.1250000
        k(   18) = (   0.3750000   0.2639689   0.0000000), wk =   0.1250000
        k(   19) = (   0.3750000   0.3959534   0.0000000), wk =   0.1250000
        k(   20) = (   0.3750000  -0.5279378   0.0000000), wk =   0.0625000
        k(   21) = (  -0.5000000   0.0000000   0.0000000), wk =   0.0312500
        k(   22) = (  -0.5000000   0.1319845   0.0000000), wk =   0.0625000
        k(   23) = (  -0.5000000   0.2639689   0.0000000), wk =   0.0625000
        k(   24) = (  -0.5000000   0.3959534   0.0000000), wk =   0.0625000
        k(   25) = (  -0.5000000  -0.5279378   0.0000000), wk =   0.0312500

     Dense  grid:  1435837 G-vectors     FFT dimensions: (  64,  64, 720)

     Smooth grid:   276553 G-vectors     FFT dimensions: (  40,  36, 432)

     Estimated max dynamical RAM per process >     458.17 MB

     Estimated total dynamical RAM >       8.95 GB

     Initial potential from superposition of free atoms

     starting charge  226.84630, renormalised to  227.00000

     negative rho (up, down):  3.524E-03 0.000E+00
     Starting wfcs are  195 randomized atomic wfcs

     total cpu time spent up to now is        9.1 secs

     Self-consistent Calculation

     iteration #  1     ecut=    60.00 Ry     beta= 0.50
     Davidson diagonalization with overlap
     ethr =  1.00E-02,  avg # of iterations =  2.0

     negative rho (up, down):  5.164E-04 0.000E+00

     total cpu time spent up to now is       23.8 secs

     total energy              =   -1840.98393114 Ry
     Harris-Foulkes estimate   =   -1845.29923179 Ry
     estimated scf accuracy    <      17.71640533 Ry

     iteration #  2     ecut=    60.00 Ry     beta= 0.50
     Davidson diagonalization with overlap
     ethr =  7.80E-03,  avg # of iterations =  2.0

     negative rho (up, down):  2.714E-04 0.000E+00

     total cpu time spent up to now is       38.2 secs

     total energy              =   -1842.53219599 Ry
     Harris-Foulkes estimate   =   -1843.20221385 Ry
     estimated scf accuracy    <       3.67046740 Ry

     iteration #  3     ecut=    60.00 Ry     beta= 0.50
     Davidson diagonalization with overlap
     ethr =  1.62E-03,  avg # of iterations =  2.0

     negative rho (up, down):  2.589E-04 0.000E+00

     total cpu time spent up to now is       52.3 secs

     total energy              =   -1842.82307698 Ry
     Harris-Foulkes estimate   =   -1842.96360439 Ry
     estimated scf accuracy    <       3.63529893 Ry

     iteration #  4     ecut=    60.00 Ry     beta= 0.50
     Davidson diagonalization with overlap
     ethr =  1.60E-03,  avg # of iterations =  1.0

     negative rho (up, down):  2.513E-04 0.000E+00

     total cpu time spent up to now is       65.4 secs

     total energy              =   -1842.81790813 Ry
     Harris-Foulkes estimate   =   -1842.90323168 Ry
     estimated scf accuracy    <       1.03905477 Ry

     iteration #  5     ecut=    60.00 Ry     beta= 0.50
     Davidson diagonalization with overlap
     ethr =  4.58E-04,  avg # of iterations =  2.8

     negative rho (up, down):  2.427E-04 0.000E+00

     total cpu time spent up to now is       80.1 secs

     total energy              =   -1842.81029403 Ry
     Harris-Foulkes estimate   =   -1842.85566730 Ry
     estimated scf accuracy    <       0.86785579 Ry

     iteration #  6     ecut=    60.00 Ry     beta= 0.50
     Davidson diagonalization with overlap
     ethr =  3.82E-04,  avg # of iterations =  4.0

     negative rho (up, down):  2.406E-04 0.000E+00

     total cpu time spent up to now is       95.9 secs

     total energy              =   -1842.82507385 Ry
     Harris-Foulkes estimate   =   -1842.83307389 Ry
     estimated scf accuracy    <       1.58233421 Ry

     iteration #  7     ecut=    60.00 Ry     beta= 0.50
     Davidson diagonalization with overlap
     ethr =  3.82E-04,  avg # of iterations =  1.1

     negative rho (up, down):  2.367E-04 0.000E+00

     total cpu time spent up to now is      109.3 secs

     total energy              =   -1842.81865367 Ry
     Harris-Foulkes estimate   =   -1842.82906522 Ry
     estimated scf accuracy    <       1.00895177 Ry

     iteration #  8     ecut=    60.00 Ry     beta= 0.50
     Davidson diagonalization with overlap
     ethr =  3.82E-04,  avg # of iterations =  1.4

     negative rho (up, down):  2.341E-04 0.000E+00

     total cpu time spent up to now is      122.9 secs

     total energy              =   -1842.80842694 Ry
     Harris-Foulkes estimate   =   -1842.82416861 Ry
     estimated scf accuracy    <       1.04272170 Ry

     iteration #  9     ecut=    60.00 Ry     beta= 0.50
     Davidson diagonalization with overlap
     ethr =  3.82E-04,  avg # of iterations =  2.4

     negative rho (up, down):  2.335E-04 0.000E+00

     total cpu time spent up to now is      137.2 secs

     total energy              =   -1842.81033041 Ry
     Harris-Foulkes estimate   =   -1842.81424963 Ry
     estimated scf accuracy    <       0.22644913 Ry

     iteration # 10     ecut=    60.00 Ry     beta= 0.50
     Davidson diagonalization with overlap
     ethr =  9.98E-05,  avg # of iterations =  8.6

     negative rho (up, down):  2.332E-04 0.000E+00

     total cpu time spent up to now is      157.8 secs

     total energy              =   -1842.80855731 Ry
     Harris-Foulkes estimate   =   -1842.81151457 Ry
     estimated scf accuracy    <       0.09204247 Ry

     iteration # 11     ecut=    60.00 Ry     beta= 0.50
     Davidson diagonalization with overlap
     ethr =  4.05E-05,  avg # of iterations =  4.2

     negative rho (up, down):  2.335E-04 0.000E+00

     total cpu time spent up to now is      173.8 secs

     total energy              =   -1842.80771325 Ry
     Harris-Foulkes estimate   =   -1842.80950470 Ry
     estimated scf accuracy    <       0.10409382 Ry

     iteration # 12     ecut=    60.00 Ry     beta= 0.50
     Davidson diagonalization with overlap
     ethr =  4.05E-05,  avg # of iterations =  1.6

     negative rho (up, down):  2.338E-04 0.000E+00

     total cpu time spent up to now is      187.2 secs

     total energy              =   -1842.80722537 Ry
     Harris-Foulkes estimate   =   -1842.80825334 Ry
     estimated scf accuracy    <       0.06180180 Ry

     iteration # 13     ecut=    60.00 Ry     beta= 0.50
     Davidson diagonalization with overlap
     ethr =  2.72E-05,  avg # of iterations =  2.1

     negative rho (up, down):  2.918E-04 0.000E+00

     total cpu time spent up to now is      201.1 secs

     total energy              =   -1842.80562491 Ry
     Harris-Foulkes estimate   =   -1842.80745512 Ry
     estimated scf accuracy    <       0.05518657 Ry

     iteration # 14     ecut=    60.00 Ry     beta= 0.50
     Davidson diagonalization with overlap
     ethr =  2.43E-05,  avg # of iterations =  2.1

     negative rho (up, down):  1.131E-03 0.000E+00

     total cpu time spent up to now is      215.0 secs

     total energy              =   -1842.80488679 Ry
     Harris-Foulkes estimate   =   -1842.80587035 Ry
     estimated scf accuracy    <       0.03086422 Ry

     iteration # 15     ecut=    60.00 Ry     beta= 0.50
     Davidson diagonalization with overlap
     ethr =  1.36E-05,  avg # of iterations =  3.8

     negative rho (up, down):  6.207E-03 0.000E+00

     total cpu time spent up to now is      230.4 secs

     total energy              =   -1842.80375197 Ry
     Harris-Foulkes estimate   =   -1842.80499699 Ry
     estimated scf accuracy    <       0.02183699 Ry

     iteration # 16     ecut=    60.00 Ry     beta= 0.50
     Davidson diagonalization with overlap
     ethr =  9.62E-06,  avg # of iterations =  8.2

     negative rho (up, down):  1.303E-02 0.000E+00

     total cpu time spent up to now is      250.2 secs

     total energy              =   -1842.80277019 Ry
     Harris-Foulkes estimate   =   -1842.80388004 Ry
     estimated scf accuracy    <       0.01465020 Ry

     iteration # 17     ecut=    60.00 Ry     beta= 0.50
     Davidson diagonalization with overlap
     ethr =  6.45E-06,  avg # of iterations =  8.0

     negative rho (up, down):  1.600E-02 0.000E+00

     total cpu time spent up to now is      269.8 secs

     total energy              =   -1842.80214068 Ry
     Harris-Foulkes estimate   =   -1842.80288945 Ry
     estimated scf accuracy    <       0.00732644 Ry

     iteration # 18     ecut=    60.00 Ry     beta= 0.50
     Davidson diagonalization with overlap
     ethr =  3.23E-06,  avg # of iterations =  9.1

     negative rho (up, down):  1.402E-02 0.000E+00

     total cpu time spent up to now is      290.5 secs

     total energy              =   -1842.80182415 Ry
     Harris-Foulkes estimate   =   -1842.80224556 Ry
     estimated scf accuracy    <       0.00278925 Ry

     iteration # 19     ecut=    60.00 Ry     beta= 0.50
     Davidson diagonalization with overlap
     ethr =  1.23E-06,  avg # of iterations =  8.2

     negative rho (up, down):  4.991E-03 0.000E+00

     total cpu time spent up to now is      310.3 secs

     total energy              =   -1842.80163284 Ry
     Harris-Foulkes estimate   =   -1842.80187813 Ry
     estimated scf accuracy    <       0.00249432 Ry

     iteration # 20     ecut=    60.00 Ry     beta= 0.50
     Davidson diagonalization with overlap
     c_bands:  1 eigenvalues not converged
     ethr =  1.10E-06,  avg # of iterations =  9.0

     negative rho (up, down):  1.897E-03 0.000E+00

     total cpu time spent up to now is      331.3 secs

     total energy              =   -1842.80157362 Ry
     Harris-Foulkes estimate   =   -1842.80165596 Ry
     estimated scf accuracy    <       0.00157599 Ry

     iteration # 21     ecut=    60.00 Ry     beta= 0.50
     Davidson diagonalization with overlap
     ethr =  6.94E-07,  avg # of iterations =  5.4

     negative rho (up, down):  5.146E-04 0.000E+00

     total cpu time spent up to now is      348.3 secs

     total energy              =   -1842.80159948 Ry
     Harris-Foulkes estimate   =   -1842.80159329 Ry
     estimated scf accuracy    <       0.00040997 Ry

     iteration # 22     ecut=    60.00 Ry     beta= 0.50
     Davidson diagonalization with overlap
     ethr =  1.81E-07,  avg # of iterations =  4.2

     negative rho (up, down):  1.032E-03 0.000E+00

     total cpu time spent up to now is      364.1 secs

     total energy              =   -1842.80163939 Ry
     Harris-Foulkes estimate   =   -1842.80161455 Ry
     estimated scf accuracy    <       0.00020585 Ry

     iteration # 23     ecut=    60.00 Ry     beta= 0.50
     Davidson diagonalization with overlap
     c_bands:  1 eigenvalues not converged
     c_bands:  1 eigenvalues not converged
     ethr =  9.07E-08,  avg # of iterations =  5.4

     negative rho (up, down):  8.748E-04 0.000E+00

     total cpu time spent up to now is      381.0 secs

     total energy              =   -1842.80163775 Ry
     Harris-Foulkes estimate   =   -1842.80164376 Ry
     estimated scf accuracy    <       0.00006586 Ry

     iteration # 24     ecut=    60.00 Ry     beta= 0.50
     Davidson diagonalization with overlap
     ethr =  2.90E-08,  avg # of iterations =  1.5

     negative rho (up, down):  1.022E-03 0.000E+00

     total cpu time spent up to now is      394.5 secs

     total energy              =   -1842.80165325 Ry
     Harris-Foulkes estimate   =   -1842.80163968 Ry
     estimated scf accuracy    <       0.00004326 Ry

     iteration # 25     ecut=    60.00 Ry     beta= 0.50
     Davidson diagonalization with overlap
     ethr =  1.91E-08,  avg # of iterations =  5.6

     negative rho (up, down):  1.348E-03 0.000E+00

     total cpu time spent up to now is      411.6 secs

     total energy              =   -1842.80165411 Ry
     Harris-Foulkes estimate   =   -1842.80165444 Ry
     estimated scf accuracy    <       0.00001258 Ry

     iteration # 26     ecut=    60.00 Ry     beta= 0.50
     Davidson diagonalization with overlap
     ethr =  5.54E-09,  avg # of iterations =  1.5

     negative rho (up, down):  1.328E-03 0.000E+00

     total cpu time spent up to now is      425.1 secs

     total energy              =   -1842.80165473 Ry
     Harris-Foulkes estimate   =   -1842.80165460 Ry
     estimated scf accuracy    <       0.00000554 Ry

     iteration # 27     ecut=    60.00 Ry     beta= 0.50
     Davidson diagonalization with overlap
     ethr =  2.44E-09,  avg # of iterations =  2.1

     negative rho (up, down):  1.399E-03 0.000E+00

     total cpu time spent up to now is      439.1 secs

     total energy              =   -1842.80165481 Ry
     Harris-Foulkes estimate   =   -1842.80165504 Ry
     estimated scf accuracy    <       0.00000548 Ry

     iteration # 28     ecut=    60.00 Ry     beta= 0.50
     Davidson diagonalization with overlap
     ethr =  2.42E-09,  avg # of iterations =  1.0

     negative rho (up, down):  1.467E-03 0.000E+00

     total cpu time spent up to now is      452.3 secs

     total energy              =   -1842.80165476 Ry
     Harris-Foulkes estimate   =   -1842.80165488 Ry
     estimated scf accuracy    <       0.00000111 Ry

     iteration # 29     ecut=    60.00 Ry     beta= 0.50
     Davidson diagonalization with overlap
     ethr =  4.88E-10,  avg # of iterations =  2.4

     negative rho (up, down):  1.472E-03 0.000E+00

     total cpu time spent up to now is      467.1 secs

     total energy              =   -1842.80165480 Ry
     Harris-Foulkes estimate   =   -1842.80165481 Ry
     estimated scf accuracy    <       0.00000031 Ry

     iteration # 30     ecut=    60.00 Ry     beta= 0.50
     Davidson diagonalization with overlap
     ethr =  1.36E-10,  avg # of iterations =  2.2

     negative rho (up, down):  1.470E-03 0.000E+00

     total cpu time spent up to now is      481.2 secs

     total energy              =   -1842.80165482 Ry
     Harris-Foulkes estimate   =   -1842.80165482 Ry
     estimated scf accuracy    <       0.00000017 Ry

     iteration # 31     ecut=    60.00 Ry     beta= 0.50
     Davidson diagonalization with overlap
     ethr =  7.28E-11,  avg # of iterations =  1.5

     negative rho (up, down):  1.490E-03 0.000E+00

     total cpu time spent up to now is      494.9 secs

     total energy              =   -1842.80165479 Ry
     Harris-Foulkes estimate   =   -1842.80165483 Ry
     estimated scf accuracy    <       0.00000011 Ry

     iteration # 32     ecut=    60.00 Ry     beta= 0.50
     Davidson diagonalization with overlap
     ethr =  4.75E-11,  avg # of iterations =  1.1

     negative rho (up, down):  1.498E-03 0.000E+00

     total cpu time spent up to now is      508.0 secs

     total energy              =   -1842.80165478 Ry
     Harris-Foulkes estimate   =   -1842.80165479 Ry
     estimated scf accuracy    <       0.00000006 Ry

     iteration # 33     ecut=    60.00 Ry     beta= 0.50
     Davidson diagonalization with overlap
     ethr =  2.77E-11,  avg # of iterations =  1.1

     negative rho (up, down):  1.506E-03 0.000E+00

     total cpu time spent up to now is      521.3 secs

     total energy              =   -1842.80165477 Ry
     Harris-Foulkes estimate   =   -1842.80165478 Ry
     estimated scf accuracy    <       0.00000002 Ry

     iteration # 34     ecut=    60.00 Ry     beta= 0.50
     Davidson diagonalization with overlap
     ethr =  1.07E-11,  avg # of iterations =  1.8

     negative rho (up, down):  1.499E-03 0.000E+00

     total cpu time spent up to now is      534.6 secs

     End of self-consistent calculation

          k = 0.0000 0.0000 0.0000 ( 34661 PWs)   bands (ev):

   -37.6095 -35.5563 -22.7611 -22.6846 -22.6701 -22.5006 -18.6693 -18.6198
   -18.6044 -17.0607 -16.6075 -16.5961 -15.3765 -15.2713 -15.0176 -14.8228
   -14.6414 -14.6213 -14.5420 -14.2606 -14.1514 -14.1485 -13.9519 -13.7932
   -13.7279 -13.6884 -13.6102  -7.8925  -7.8875  -7.8549  -7.7772  -7.7548
    -7.7175  -7.6815  -7.6620  -7.5814  -7.5584  -7.5452  -7.3793  -2.2999
    -2.2895  -2.2438  -2.0720  -1.9500  -1.7999  -1.7362  -1.6381  -1.5580
    -1.5084  -1.4734  -1.4532  -1.2511  -1.1902  -1.1872  -1.0558  -1.0193
    -0.8226  -0.7041  -0.5810  -0.4285  -0.4166  -0.3466  -0.3350  -0.3049
    -0.2775  -0.2346  -0.2189  -0.2152  -0.2146  -0.1879  -0.1807  -0.1523
    -0.1312  -0.0701  -0.0071   0.0160   0.1288   0.1291   0.1305   0.1580
     0.1899   0.1937   0.2036   0.2072   0.2383   0.3223   0.3394   0.3541
     0.4353   0.7937   0.8302   0.9120   0.9318   0.9915   1.0301   1.1270
     1.1928   1.2099   1.2247   1.3796   1.4004   1.4348   1.5090   1.5538
     1.5641   1.5798   1.6507   1.7586   1.8603   2.0542   2.0658   2.1291
     2.1870   2.1872   2.2126   2.2924   2.3075   2.5483   2.5661   4.6331
     5.2464   5.3153   5.9308   6.3611   6.7549   6.7957   6.9163   7.2243
     7.3578   7.7690   8.0096   8.0909   8.1852   8.3029   8.5281   8.5600
     8.6276

          k = 0.0000 0.1320 0.0000 ( 34589 PWs)   bands (ev):

   -37.6080 -35.5545 -22.7344 -22.6592 -22.6433 -22.4752 -18.6837 -18.6239
   -18.6026 -17.0246 -16.6686 -16.6052 -15.3219 -15.1827 -14.9657 -14.7692
   -14.6465 -14.6155 -14.5147 -14.2897 -14.1609 -14.1560 -13.9574 -13.8387
   -13.7741 -13.7214 -13.6679  -7.8921  -7.8860  -7.8071  -7.7535  -7.7289
    -7.7042  -7.6806  -7.6731  -7.6231  -7.6046  -7.5000  -7.4268  -2.4030
    -2.3580  -2.3263  -2.2394  -2.1346  -2.0247  -1.9397  -1.9158  -1.6423
    -1.6178  -1.6144  -1.6089  -1.4907  -1.3776  -1.3036  -1.2441  -1.0941
    -0.9602  -0.7315  -0.6345  -0.5981  -0.5259  -0.5071  -0.4634  -0.4308
    -0.4095  -0.3652  -0.3397  -0.3078  -0.2480  -0.1769  -0.1313  -0.1177
    -0.1144  -0.0321  -0.0005   0.0143   0.0346   0.0370   0.1468   0.1525
     0.1570   0.1867   0.2155   0.2168   0.2656   0.3080   0.3996   0.4549
     0.7443   0.7563   0.9104   0.9804   1.0878   1.1092   1.1311   1.1416
     1.1784   1.2187   1.2373   1.4142   1.4386   1.4717   1.4966   1.5223
     1.5624   1.6483   1.6508   1.7338   1.8487   1.9888   2.0186   2.0598
     2.0961   2.0962   2.1533   2.5085   2.8274   2.8520   2.8984   4.8928
     5.6229   5.6601   6.1966   6.6141   6.9683   7.0983   7.2185   7.4523
     7.5644   7.8567   7.9335   8.1827   8.3643   8.4840   8.5787   8.6356
     8.7634

          k = 0.0000 0.2640 0.0000 ( 34465 PWs)   bands (ev):

   -37.6044 -35.5501 -22.6685 -22.5967 -22.5771 -22.4125 -18.7417 -18.6092
   -18.5982 -16.9325 -16.8230 -16.5995 -15.1744 -14.9831 -14.8648 -14.6953
   -14.6301 -14.5986 -14.4528 -14.3847 -14.1482 -14.1376 -13.9972 -13.9668
   -13.8693 -13.8126 -13.7818  -7.8916  -7.8833  -7.7946  -7.7506  -7.7162
    -7.7132  -7.6866  -7.6678  -7.6074  -7.5617  -7.5294  -7.3866  -2.8940
    -2.8030  -2.6855  -2.6516  -2.5700  -2.3985  -2.3772  -2.2510  -2.2412
    -2.2106  -1.8143  -1.6649  -1.5640  -1.4467  -1.4343  -1.3435  -1.2266
    -1.1377  -1.0029  -0.9355  -0.8589  -0.7961  -0.7768  -0.7440  -0.6467
    -0.6208  -0.6162  -0.5051  -0.4998  -0.4893  -0.4671  -0.4537  -0.3608
    -0.2841  -0.0720  -0.0469   0.0119   0.0426   0.0621   0.1241   0.1890
     0.2127   0.2371   0.2875   0.4033   0.6452   0.6562   0.7276   0.7327
     0.8657   0.9400   0.9976   1.0359   1.1621   1.1938   1.1945   1.2153
     1.2232   1.2396   1.3318   1.3469   1.3620   1.4008   1.4571   1.6659
     1.7046   1.7154   1.8191   1.9425   1.9669   2.0037   2.0058   2.0166
     2.1046   2.1557   2.2132   2.6262   3.0704   3.0900   3.7386   5.4378
     6.5167   6.5363   6.7933   7.3312   7.3414   7.6315   7.7537   7.9184
     8.0210   8.3160   8.4282   8.5797   8.6869   8.7009   8.8312   8.8789
     9.0458

          k = 0.0000 0.3960 0.0000 ( 34424 PWs)   bands (ev):

   -37.6008 -35.5457 -22.6004 -22.5322 -22.5086 -22.3477 -18.8045 -18.5939
   -18.5880 -16.9592 -16.8308 -16.5939 -14.9766 -14.9044 -14.8815 -14.6531
   -14.5819 -14.4564 -14.4462 -14.3813 -14.1179 -14.0759 -14.0758 -14.0619
   -14.0051 -13.9558 -13.8545  -7.8916  -7.8785  -7.8728  -7.8050  -7.7925
    -7.7464  -7.6651  -7.6188  -7.5581  -7.4776  -7.4438  -7.2662  -3.4319
    -3.2662  -3.2581  -3.1309  -3.0290  -2.9653  -2.9528  -2.3419  -2.3327
    -2.2509  -1.9998  -1.7785  -1.7083  -1.6545  -1.4987  -1.3432  -1.3132
    -1.2087  -1.1346  -1.1119  -1.0487  -1.0397  -1.0079  -1.0022  -0.9189
    -0.9106  -0.8312  -0.7869  -0.7204  -0.7174  -0.6776  -0.5884  -0.4228
    -0.3043  -0.1940  -0.0760  -0.0101   0.0595   0.0796   0.1552   0.1746
     0.1852   0.1986   0.2283   0.5228   0.8120   0.8607   0.9141   0.9548
     0.9686   0.9827   1.0097   1.0515   1.1088   1.1196   1.1482   1.1655
     1.1839   1.4032   1.4707   1.5426   1.5887   1.6498   1.6717   1.7127
     1.7578   1.7782   1.9596   2.0139   2.0420   2.0968   2.1393   2.1672
     2.2842   2.3979   2.4038   2.5482   2.9646   2.9843   4.2968   6.0355
     7.3343   7.3868   7.4476   7.4675   7.5062   8.0437   8.2905   8.5028
     8.7100   8.7563   8.7870   8.8795   9.1206   9.1257   9.2248   9.3629
     9.4435

          k = 0.0000-0.5279 0.0000 ( 34482 PWs)   bands (ev):

   -37.5993 -35.5438 -22.5714 -22.5049 -22.4795 -22.3203 -18.8305 -18.5921
   -18.5788 -17.0114 -16.7859 -16.5915 -14.9466 -14.9203 -14.7989 -14.7385
   -14.5389 -14.4615 -14.2881 -14.2443 -14.2103 -14.0980 -14.0973 -14.0901
   -14.0423 -14.0382 -13.8893  -7.9024  -7.8912  -7.8704  -7.8453  -7.8218
    -7.7450  -7.6598  -7.6561  -7.5022  -7.4211  -7.3927  -7.2141  -3.6918
    -3.4375  -3.4280  -3.3207  -3.2076  -3.1854  -3.1799  -2.3580  -2.3496
    -2.2637  -2.1270  -1.9088  -1.8439  -1.5236  -1.4648  -1.3996  -1.2833
    -1.2385  -1.2191  -1.1997  -1.1707  -1.1573  -1.1156  -1.0299  -1.0187
    -1.0059  -0.9445  -0.9015  -0.8072  -0.8010  -0.7536  -0.6315  -0.4254
    -0.2944  -0.2699  -0.0646   0.0141   0.0652   0.0855   0.1498   0.1574
     0.1824   0.1924   0.2007   0.4521   0.7558   0.8449   0.8749   0.8876
     0.8961   1.0339   1.0466   1.0997   1.1220   1.1485   1.1655   1.3219
     1.3583   1.4099   1.5189   1.6086   1.6645   1.7592   1.7673   1.7868
     1.8433   1.9773   2.0430   2.0500   2.0699   2.0949   2.1949   2.2119
     2.2629   2.5148   2.5594   2.5650   2.7870   2.8092   4.4696   6.3722
     7.2797   7.2962   7.7194   7.8769   7.9494   8.0893   8.5290   8.7789
     8.8639   9.0037   9.0069   9.0367   9.2379   9.3235   9.3459   9.4215
     9.4410

          k = 0.1250 0.0000 0.0000 ( 34573 PWs)   bands (ev):

   -37.6086 -35.5552 -22.7431 -22.6675 -22.6519 -22.4834 -18.6781 -18.6188
   -18.6111 -17.0273 -16.6878 -16.5947 -15.3296 -15.1691 -14.9825 -14.8455
   -14.6870 -14.6556 -14.5472 -14.2846 -14.1604 -14.1572 -13.9639 -13.8160
   -13.7829 -13.7204 -13.6386  -7.9240  -7.9179  -7.8002  -7.7931  -7.7241
    -7.6950  -7.6476  -7.6295  -7.5486  -7.5285  -7.4844  -7.3488  -2.3427
    -2.3226  -2.2972  -2.1150  -2.0403  -1.8422  -1.7817  -1.7775  -1.7075
    -1.5709  -1.5343  -1.4409  -1.4231  -1.1881  -1.1851  -1.0949  -1.0402
    -0.8531  -0.8121  -0.6449  -0.5883  -0.4842  -0.4419  -0.4090  -0.3975
    -0.3928  -0.3509  -0.3091  -0.2893  -0.2780  -0.2377  -0.1897  -0.1666
    -0.1390  -0.0889  -0.0562  -0.0170   0.1219   0.1240   0.1398   0.1759
     0.2181   0.2246   0.2522   0.2996   0.3227   0.3845   0.4098   0.4521
     0.5518   0.7376   0.8217   0.8438   0.9131   0.9313   1.0502   1.1266
     1.2153   1.2179   1.2430   1.3472   1.3969   1.4009   1.5157   1.5423
     1.5657   1.6589   1.7449   1.9008   1.9846   2.0157   2.0627   2.1143
     2.1499   2.1819   2.2219   2.2559   2.3577   2.6007   2.6080   4.8380
     5.4267   5.4737   6.1073   6.5362   6.9100   7.0078   7.0932   7.4051
     7.5534   7.7766   8.0164   8.1540   8.3124   8.3854   8.5585   8.6254
     8.7862

          k = 0.1250 0.1320 0.0000 ( 34564 PWs)   bands (ev):

   -37.6072 -35.5534 -22.7172 -22.6428 -22.6260 -22.4587 -18.6862 -18.6387
   -18.5997 -16.9922 -16.6908 -16.6579 -15.2767 -15.0879 -14.9351 -14.7894
   -14.6813 -14.6397 -14.5173 -14.3089 -14.1613 -14.1562 -13.9697 -13.8530
   -13.8195 -13.7506 -13.6867  -7.9375  -7.9178  -7.8554  -7.8411  -7.7702
    -7.7337  -7.6983  -7.5918  -7.5776  -7.5113  -7.4843  -7.3079  -2.4278
    -2.3940  -2.3531  -2.2446  -2.1253  -2.0831  -2.0012  -1.9199  -1.8213
    -1.7519  -1.6527  -1.6113  -1.6085  -1.5446  -1.3733  -1.3015  -1.1299
    -0.9842  -0.9025  -0.7728  -0.6540  -0.6265  -0.6028  -0.5443  -0.5153
    -0.4799  -0.4707  -0.4581  -0.3428  -0.3091  -0.2355  -0.1749  -0.1375
    -0.1136  -0.1004  -0.0116   0.0112   0.0390   0.0425   0.1421   0.1845
     0.1882   0.2256   0.2515   0.2590   0.2854   0.3204   0.5492   0.7088
     0.7363   0.8357   0.9475   1.0252   1.0662   1.0887   1.1102   1.1669
     1.1905   1.2526   1.3015   1.3154   1.3542   1.4422   1.5000   1.5075
     1.6225   1.6378   1.6904   1.7010   1.8068   1.8373   2.0028   2.2225
     2.3640   2.3901   2.5400   2.5896   2.8405   2.8585   2.9121   5.0353
     5.7653   5.7935   6.3173   6.7624   7.0961   7.3034   7.3827   7.5864
     7.7442   7.8238   7.9369   8.3233   8.4332   8.4931   8.6828   8.7386
     8.9012

          k = 0.1250 0.2640 0.0000 ( 34463 PWs)   bands (ev):

   -37.6036 -35.5490 -22.6534 -22.5821 -22.5618 -22.3978 -18.7398 -18.6402
   -18.5834 -16.9030 -16.8199 -16.6704 -15.1339 -14.9138 -14.8480 -14.6816
   -14.6412 -14.5859 -14.4473 -14.3920 -14.1436 -14.1313 -14.0189 -13.9592
   -13.8792 -13.8328 -13.7888  -8.0065  -7.9252  -7.9125  -7.8924  -7.8851
    -7.7517  -7.7179  -7.6763  -7.5824  -7.5025  -7.4760  -7.3022  -2.9167
    -2.8262  -2.6771  -2.6609  -2.5788  -2.3990  -2.3740  -2.2505  -2.2397
    -2.2292  -2.0146  -1.7718  -1.7226  -1.6169  -1.5157  -1.4559  -1.3708
    -1.1686  -1.0134  -0.9844  -0.9705  -0.9471  -0.8513  -0.8298  -0.8180
    -0.7318  -0.6638  -0.6508  -0.6075  -0.5357  -0.4755  -0.4683  -0.3953
    -0.2922  -0.1709  -0.1042  -0.0242  -0.0081   0.0745   0.1661   0.2301
     0.2800   0.3833   0.4256   0.5279   0.7550   0.7634   0.7985   0.8321
     0.8360   1.0468   1.0501   1.0882   1.1293   1.1450   1.2996   1.3357
     1.3591   1.3700   1.4156   1.4294   1.4436   1.4570   1.4668   1.5646
     1.6334   1.6755   1.7249   1.8433   1.9676   1.9792   2.0539   2.2533
     2.5617   2.6036   2.7071   2.8165   3.0813   3.1009   3.7394   5.4970
     6.5777   6.5975   6.7787   7.3985   7.4179   7.5033   7.8311   8.0827
     8.1521   8.4107   8.4524   8.6335   8.7658   8.8145   8.9149   8.9623
     9.1009

          k = 0.1250 0.3960 0.0000 ( 34482 PWs)   bands (ev):

   -37.6000 -35.5446 -22.5874 -22.5196 -22.4956 -22.3350 -18.8023 -18.6320
   -18.5662 -16.9541 -16.8043 -16.6618 -14.9423 -14.8695 -14.8512 -14.5798
   -14.5647 -14.4438 -14.4264 -14.3732 -14.1140 -14.0973 -14.0743 -14.0519
   -13.9896 -13.9581 -13.8490  -8.0369  -7.9588  -7.9565  -7.9039  -7.8906
    -7.7709  -7.7594  -7.6843  -7.6274  -7.5471  -7.5085  -7.3418  -3.4281
    -3.3076  -3.2971  -3.1520  -3.0577  -2.9569  -2.9454  -2.3501  -2.3379
    -2.2684  -1.9841  -1.8183  -1.7621  -1.6481  -1.6247  -1.5620  -1.4232
    -1.3846  -1.3220  -1.2860  -1.1590  -1.1168  -1.0942  -1.0803  -0.9839
    -0.9264  -0.8549  -0.8419  -0.8047  -0.7886  -0.7297  -0.7218  -0.4736
    -0.3415  -0.1840  -0.1521  -0.0325   0.0045   0.1468   0.2115   0.2350
     0.2896   0.4350   0.4674   0.6982   0.7280   0.9312   0.9479   0.9943
     1.0394   1.0882   1.0964   1.1769   1.2214   1.2478   1.2598   1.3162
     1.3266   1.4844   1.5483   1.5804   1.6021   1.6817   1.7499   1.7754
     1.7986   1.8993   1.9901   2.0685   2.0859   2.3649   2.3714   2.3886
     2.5146   2.5715   2.6264   2.7469   3.0218   3.0319   4.2787   6.0102
     7.1492   7.2879   7.3294   7.3489   7.4793   8.0953   8.1603   8.4912
     8.6911   8.7066   8.8020   8.8659   8.9489   9.3015   9.4211   9.4994
     9.5825

          k = 0.1250-0.5279 0.0000 ( 34444 PWs)   bands (ev):

   -37.5985 -35.5428 -22.5594 -22.4931 -22.4675 -22.3084 -18.8283 -18.6286
   -18.5586 -17.0057 -16.7609 -16.6581 -14.9019 -14.8768 -14.7601 -14.7258
   -14.4664 -14.4228 -14.2843 -14.2439 -14.1903 -14.1300 -14.0784 -14.0687
   -14.0432 -14.0365 -13.8732  -8.0316  -7.9681  -7.9511  -7.9087  -7.8860
    -7.7839  -7.7641  -7.6913  -7.6616  -7.5804  -7.5283  -7.3671  -3.6856
    -3.4865  -3.4807  -3.3463  -3.2360  -3.1853  -3.1740  -2.3711  -2.3602
    -2.2832  -2.0349  -1.7924  -1.7194  -1.6631  -1.6583  -1.5809  -1.4875
    -1.4402  -1.4005  -1.3465  -1.3317  -1.2511  -1.1840  -1.1662  -1.0242
    -1.0115  -0.9177  -0.9122  -0.8802  -0.8537  -0.8230  -0.8199  -0.4899
    -0.3281  -0.1907  -0.1652  -0.0398   0.0271   0.1672   0.2293   0.2437
     0.3058   0.4134   0.4660   0.6740   0.7421   0.9097   0.9628   0.9812
     0.9856   1.0166   1.0577   1.1964   1.2754   1.3128   1.3610   1.3682
     1.3891   1.5124   1.5436   1.6681   1.7897   1.8085   1.8415   2.0378
     2.0619   2.0632   2.0707   2.2364   2.2536   2.3756   2.4112   2.4862
     2.5003   2.5303   2.5372   2.5883   2.8840   2.9035   4.4420   6.2570
     7.2444   7.3075   7.3248   7.5508   7.6621   8.1596   8.3451   8.6023
     8.7619   8.8830   9.0859   9.3297   9.3324   9.4038   9.4292   9.5629
     9.7289

          k = 0.2500 0.0000 0.0000 ( 34590 PWs)   bands (ev):

   -37.6067 -35.5526 -22.6987 -22.6256 -22.6073 -22.4412 -18.7172 -18.6164
   -18.6082 -16.9420 -16.8520 -16.5914 -15.2075 -14.9714 -14.9401 -14.9083
   -14.7685 -14.6915 -14.5711 -14.3583 -14.1745 -14.1683 -14.0123 -13.9197
   -13.8483 -13.8092 -13.6951  -7.9669  -7.9195  -7.7917  -7.7215  -7.7065
    -7.6167  -7.5728  -7.5488  -7.4668  -7.4544  -7.4000  -7.2732  -2.5921
    -2.5355  -2.4474  -2.3433  -2.1795  -2.1366  -2.0573  -1.9478  -1.7168
    -1.6180  -1.4662  -1.4413  -1.4378  -1.2089  -1.1848  -1.1815  -1.1005
    -1.0842  -0.9359  -0.9280  -0.7833  -0.7395  -0.7239  -0.6678  -0.6154
    -0.6078  -0.5007  -0.4797  -0.4758  -0.4431  -0.2759  -0.2527  -0.2207
    -0.2055  -0.1630  -0.1551  -0.0393   0.1092   0.1108   0.1607   0.2150
     0.2538   0.3030   0.3538   0.3991   0.4226   0.4820   0.4899   0.5775
     0.6652   0.6901   0.8240   0.9376   0.9437   1.0205   1.0725   1.1284
     1.2579   1.2962   1.3103   1.3380   1.3486   1.4063   1.4491   1.4832
     1.6083   1.6764   1.7763   1.8946   1.9300   2.0468   2.0731   2.0769
     2.1298   2.2385   2.3109   2.4311   2.5232   2.7087   2.7449   5.3118
     5.8841   5.9030   6.4707   7.0620   7.1221   7.5404   7.5846   7.8454
     7.8604   7.9440   8.1020   8.5023   8.5965   8.6534   8.6568   8.8398
     9.0577

          k = 0.2500 0.1320 0.0000 ( 34551 PWs)   bands (ev):

   -37.6052 -35.5508 -22.6749 -22.6027 -22.5833 -22.4183 -18.7151 -18.6547
   -18.5887 -16.9099 -16.8456 -16.6575 -15.1589 -14.9211 -14.9044 -14.8450
   -14.7193 -14.6483 -14.5356 -14.3704 -14.1604 -14.1536 -14.0107 -13.9230
   -13.8833 -13.8304 -13.7225  -7.9885  -7.9837  -7.8938  -7.8432  -7.7704
    -7.7414  -7.7174  -7.5810  -7.5152  -7.4350  -7.4140  -7.2396  -2.6581
    -2.5852  -2.4728  -2.3758  -2.2196  -2.1711  -2.1244  -2.0629  -2.0477
    -1.9263  -1.8667  -1.6754  -1.5990  -1.5941  -1.4040  -1.3488  -1.2663
    -1.1544  -1.0678  -1.0065  -0.9756  -0.9097  -0.8512  -0.8195  -0.6392
    -0.5987  -0.5875  -0.5450  -0.4967  -0.4198  -0.3294  -0.3054  -0.2269
    -0.1856  -0.1614  -0.0017   0.0265   0.0557   0.0846   0.1628   0.2120
     0.2229   0.2735   0.3564   0.3599   0.3701   0.6106   0.6599   0.8013
     0.9144   0.9299   0.9573   0.9782   1.0970   1.1156   1.1762   1.2088
     1.2536   1.2942   1.3276   1.3422   1.4095   1.4645   1.5078   1.5238
     1.5650   1.6466   1.6783   1.7583   1.7830   1.8969   2.0300   2.3548
     2.6656   2.6991   2.8019   2.8878   2.9037   2.9576   2.9863   5.4093
     6.1453   6.1622   6.5552   7.1789   7.2252   7.6495   7.7901   7.8416
     7.9768   8.1449   8.3026   8.5113   8.6532   8.7787   8.8086   8.9508
     9.1374

          k = 0.2500 0.2640 0.0000 ( 34523 PWs)   bands (ev):

   -37.6017 -35.5464 -22.6162 -22.5465 -22.5245 -22.3620 -18.7366 -18.6935
   -18.5668 -16.8455 -16.8216 -16.7941 -15.0287 -14.8319 -14.8289 -14.6744
   -14.5792 -14.5298 -14.4466 -14.4201 -14.1353 -14.1156 -14.0597 -13.9440
   -13.9102 -13.8874 -13.7961  -8.2084  -8.1280  -8.1093  -7.9617  -7.9050
    -7.8622  -7.7630  -7.6935  -7.6350  -7.5551  -7.5288  -7.3617  -3.0571
    -2.9637  -2.7442  -2.7115  -2.6101  -2.4124  -2.3855  -2.3670  -2.2832
    -2.2542  -2.2243  -2.1418  -2.0902  -2.0189  -1.6129  -1.5082  -1.4216
    -1.3924  -1.3272  -1.2613  -1.2022  -1.1515  -1.0030  -0.9369  -0.8308
    -0.7378  -0.7070  -0.7017  -0.6344  -0.5968  -0.5745  -0.5598  -0.5384
    -0.3692  -0.3259  -0.3118   0.0217   0.1373   0.1526   0.2768   0.3809
     0.4641   0.6062   0.6492   0.7412   0.8192   0.8239   0.8738   0.9895
     0.9965   1.1135   1.1674   1.2124   1.2880   1.3053   1.3179   1.4126
     1.4869   1.4935   1.5099   1.5567   1.5723   1.5959   1.6503   1.6684
     1.7290   1.7391   1.7421   1.8392   1.8877   1.9112   2.1688   2.3707
     3.0164   3.0394   3.2344   3.3010   3.4238   3.4523   3.7425   5.6611
     6.6354   6.6885   6.7165   7.2066   7.5454   7.6179   8.0292   8.3736
     8.4074   8.4295   8.5441   8.7638   9.0105   9.0568   9.0987   9.2890
     9.3058

          k = 0.2500 0.3960 0.0000 ( 34490 PWs)   bands (ev):

   -37.5981 -35.5421 -22.5558 -22.4887 -22.4638 -22.3041 -18.7970 -18.6897
   -18.5472 -16.9420 -16.8099 -16.7356 -14.8557 -14.7883 -14.7769 -14.5323
   -14.4434 -14.4106 -14.3720 -14.3408 -14.1844 -14.0698 -14.0673 -14.0133
   -13.9663 -13.9505 -13.8417  -8.3285  -8.2485  -8.2373  -8.0666  -7.9553
    -7.9172  -7.8489  -7.8380  -7.7938  -7.7423  -7.6679  -7.5730  -3.5290
    -3.4621  -3.3542  -3.2428  -3.1714  -2.9362  -2.9270  -2.4219  -2.3912
    -2.3812  -2.2422  -2.1075  -2.0400  -1.9698  -1.9227  -1.7726  -1.7016
    -1.5451  -1.5338  -1.4190  -1.3504  -1.2852  -1.1485  -1.0688  -1.0129
    -0.9692  -0.8377  -0.7746  -0.7734  -0.7667  -0.7355  -0.6934  -0.6689
    -0.5121  -0.3949  -0.3898   0.1164   0.1928   0.2703   0.3601   0.4625
     0.5945   0.7844   0.8242   0.8792   1.0082   1.0258   1.0384   1.1930
     1.2793   1.3187   1.3257   1.3539   1.4314   1.4864   1.5201   1.5395
     1.5576   1.5705   1.6459   1.6888   1.7194   1.7620   1.8073   1.8479
     1.9161   1.9488   2.0577   2.1046   2.2049   2.2866   2.3009   2.4368
     2.8485   2.8759   3.4524   3.5310   3.6571   3.6886   4.2301   5.9268
     6.5069   6.8960   6.9238   7.2361   7.5735   7.7805   8.2548   8.5755
     8.6377   8.8222   8.9195   8.9423   9.0825   9.4064   9.7081   9.8269
     9.8422

          k = 0.2500-0.5279 0.0000 ( 34528 PWs)   bands (ev):

   -37.5966 -35.5402 -22.5302 -22.4643 -22.4382 -22.2796 -18.8229 -18.6867
   -18.5391 -16.9922 -16.8045 -16.6961 -14.7850 -14.7645 -14.6977 -14.6617
   -14.3339 -14.3301 -14.2765 -14.2415 -14.1946 -14.1378 -14.0394 -14.0377
   -14.0308 -14.0105 -13.8398  -8.3286  -8.2553  -8.2481  -8.0724  -8.0434
    -7.9591  -7.9493  -7.9154  -7.9038  -7.7754  -7.6953  -7.6717  -3.7349
    -3.6607  -3.6037  -3.4471  -3.3653  -3.1639  -3.1553  -2.4292  -2.3960
    -2.3763  -2.1996  -2.0959  -2.0714  -1.9827  -1.9278  -1.9266  -1.8187
    -1.6882  -1.5943  -1.4524  -1.3745  -1.3341  -1.2253  -1.1524  -1.1091
    -1.0093  -0.9119  -0.8534  -0.8380  -0.7855  -0.7556  -0.7124  -0.6712
    -0.5254  -0.4212  -0.4155   0.1316   0.2302   0.2988   0.3897   0.5035
     0.6419   0.8434   0.8951   0.9254   1.0648   1.1103   1.1470   1.2225
     1.2372   1.2642   1.3818   1.4306   1.4734   1.5104   1.5113   1.5408
     1.6176   1.6839   1.7269   1.7742   1.8197   1.9410   1.9750   2.0228
     2.0574   2.0704   2.1070   2.2300   2.3906   2.4623   2.4780   2.4817
     2.6272   2.6610   3.4738   3.5514   3.6762   3.7235   4.3662   6.0234
     6.4015   6.8606   6.8783   7.4482   7.4629   7.7492   8.3121   8.5997
     8.8021   8.8813   9.2357   9.4504   9.5478   9.5968   9.6793   9.8168
     9.8939

          k = 0.3750 0.0000 0.0000 ( 34518 PWs)   bands (ev):

   -37.6047 -35.5499 -22.6533 -22.5827 -22.5615 -22.3980 -18.7645 -18.6141
   -18.5960 -16.9919 -16.8468 -16.5881 -15.0872 -15.0151 -15.0094 -14.9532
   -14.6237 -14.5886 -14.5734 -14.4676 -14.1867 -14.1688 -14.1252 -14.0160
   -13.9322 -13.8868 -13.7369  -7.9811  -7.9021  -7.7625  -7.6929  -7.6416
    -7.5618  -7.5227  -7.4644  -7.3813  -7.3773  -7.3533  -7.1944  -2.9223
    -2.8634  -2.7226  -2.6803  -2.3019  -2.2687  -2.1957  -1.8124  -1.6348
    -1.5529  -1.5010  -1.4733  -1.3685  -1.3553  -1.2926  -1.1864  -1.1826
    -1.1754  -1.1314  -1.0511  -1.0052  -0.9888  -0.8989  -0.8529  -0.8512
    -0.8114  -0.7009  -0.6819  -0.6067  -0.5033  -0.4032  -0.3862  -0.2403
    -0.2040  -0.2018  -0.1680  -0.1378   0.0963   0.0979   0.1757   0.1979
     0.2713   0.2851   0.4257   0.4329   0.4581   0.4647   0.4900   0.5078
     0.5649   0.7771   0.8662   0.9527   0.9589   1.1375   1.2137   1.2213
     1.2327   1.2613   1.3797   1.3958   1.4189   1.5367   1.5536   1.6603
     1.6796   1.6899   1.7578   1.8195   1.8399   1.9483   2.1028   2.1259
     2.1712   2.2679   2.3594   2.5277   2.6329   2.8330   2.8355   5.8647
     6.5338   6.5458   6.7800   6.9447   7.7251   7.8002   7.8727   8.0289
     8.1261   8.4926   8.5413   8.6751   8.7267   8.7831   8.9039   9.3580
     9.4647

          k = 0.3750 0.1320 0.0000 ( 34583 PWs)   bands (ev):

   -37.6033 -35.5481 -22.6316 -22.5617 -22.5397 -22.3770 -18.7609 -18.6538
   -18.5761 -16.9833 -16.8176 -16.6526 -15.0362 -14.9673 -14.9614 -14.8888
   -14.5831 -14.5438 -14.5133 -14.4653 -14.1583 -14.1471 -14.1006 -13.9993
   -13.9393 -13.9213 -13.7464  -8.0003  -7.9597  -7.8478  -7.8049  -7.7330
    -7.7026  -7.6958  -7.5541  -7.5353  -7.4728  -7.4610  -7.2877  -2.9936
    -2.9249  -2.7603  -2.7243  -2.3007  -2.2640  -2.2168  -2.1322  -2.0161
    -1.8393  -1.7988  -1.6796  -1.5874  -1.5831  -1.4572  -1.4296  -1.4193
    -1.3495  -1.2836  -1.2493  -1.1670  -1.0784  -1.0488  -0.9033  -0.7693
    -0.7552  -0.6926  -0.6585  -0.5664  -0.5041  -0.3870  -0.3775  -0.2670
    -0.2393  -0.2066  -0.0288   0.0182   0.0636   0.1161   0.2073   0.2155
     0.2467   0.2658   0.4195   0.4691   0.4779   0.5392   0.6961   0.7935
     0.8188   0.8971   0.9914   1.1179   1.1566   1.1850   1.2265   1.2472
     1.2912   1.3293   1.3890   1.3942   1.4096   1.5677   1.5879   1.6733
     1.6776   1.7443   1.7943   1.8071   1.8240   1.9063   2.0376   2.3293
     2.7707   2.7959   2.8465   2.9600   3.0172   3.1056   3.1735   5.8815
     6.6826   6.7019   6.7247   6.9030   7.6354   7.8470   8.0026   8.0943
     8.1395   8.5270   8.5880   8.6595   8.9367   8.9742   9.0782   9.3209
     9.5168

          k = 0.3750 0.2640 0.0000 ( 34595 PWs)   bands (ev):

   -37.5997 -35.5438 -22.5783 -22.5102 -22.4863 -22.3254 -18.7536 -18.7231
   -18.5526 -16.9629 -16.7969 -16.7425 -14.9091 -14.8454 -14.8386 -14.7049
   -14.4879 -14.4771 -14.4275 -14.3628 -14.1180 -14.0990 -14.0851 -13.9629
   -13.9593 -13.9454 -13.7899  -8.2611  -8.1794  -8.1686  -8.0107  -7.9397
    -7.8968  -7.8249  -7.8173  -7.7625  -7.7114  -7.6657  -7.5590  -3.3306
    -3.2399  -2.9771  -2.9641  -2.5957  -2.5097  -2.4724  -2.3745  -2.3524
    -2.3288  -2.3255  -2.2216  -2.2028  -2.1844  -1.8879  -1.7491  -1.6058
    -1.5275  -1.4829  -1.2330  -1.1822  -1.1180  -0.9744  -0.9052  -0.8631
    -0.8394  -0.8173  -0.7891  -0.7180  -0.6783  -0.6200  -0.6100  -0.5945
    -0.4572  -0.3448  -0.3356   0.0707   0.1914   0.2706   0.3912   0.4864
     0.6147   0.7218   0.7625   0.8549   0.8616   0.9589   1.0367   1.0484
     1.1002   1.1978   1.2508   1.3071   1.3419   1.3896   1.4423   1.4541
     1.5039   1.5809   1.6464   1.6702   1.6998   1.7181   1.7543   1.7760
     1.8002   1.8098   1.8561   1.8642   1.8790   2.1415   2.1501   2.3080
     3.0177   3.0369   3.6515   3.7396   3.7703   3.8350   3.8884   5.8638
     6.3731   6.7285   6.7601   7.0065   7.5978   7.6725   8.1805   8.4342
     8.4819   8.5542   8.7225   8.8633   9.3398   9.4452   9.5235   9.6307
     9.6386

          k = 0.3750 0.3960 0.0000 ( 34549 PWs)   bands (ev):

   -37.5962 -35.5395 -22.5237 -22.4573 -22.4316 -22.2726 -18.7915 -18.7420
   -18.5324 -16.9456 -16.9237 -16.6627 -14.7618 -14.7105 -14.7016 -14.5125
   -14.4493 -14.3926 -14.3136 -14.2048 -14.1983 -14.0574 -14.0511 -13.9831
   -13.9579 -13.9110 -13.8515  -8.5269  -8.4463  -8.4374  -8.2612  -8.1920
    -8.1149  -8.0671  -7.9751  -7.9421  -7.8493  -7.7963  -7.7028  -3.7946
    -3.7187  -3.4257  -3.4184  -3.3086  -2.9156  -2.9083  -2.6025  -2.5957
    -2.5254  -2.4424  -2.2502  -2.2168  -2.1946  -2.1851  -2.0595  -1.8131
    -1.7588  -1.6228  -1.2579  -1.1835  -1.1774  -1.1643  -1.0853  -1.0250
    -0.9653  -0.9308  -0.9021  -0.8492  -0.8377  -0.7745  -0.7651  -0.6654
    -0.5945  -0.3667  -0.3531   0.2059   0.3216   0.3507   0.5921   0.6972
     0.8466   1.0011   1.0446   1.1814   1.2091   1.2246   1.2841   1.3256
     1.3861   1.4437   1.4954   1.5134   1.5288   1.6019   1.6136   1.6375
     1.6731   1.7570   1.7966   1.8469   1.8675   1.9213   1.9364   1.9900
     2.0262   2.0424   2.1136   2.2019   2.2087   2.2131   2.4509   2.4807
     2.8390   2.8610   4.0975   4.2123   4.2831   4.3501   4.3650   5.8139
     5.9459   6.4254   6.4429   7.2699   7.4056   7.6305   8.2958   8.5953
     8.8073   9.0072   9.1536   9.2220   9.3302   9.4939   9.5213   9.5570
     9.6430

          k = 0.3750-0.5279 0.0000 ( 34580 PWs)   bands (ev):

   -37.5947 -35.5377 -22.5006 -22.4351 -22.4085 -22.2504 -18.8176 -18.7389
   -18.5243 -16.9788 -16.9330 -16.6273 -14.6738 -14.6491 -14.6384 -14.5559
   -14.3682 -14.2712 -14.2541 -14.2398 -14.1162 -14.0648 -14.0297 -14.0229
   -14.0098 -13.9437 -13.8238  -8.6090  -8.5322  -8.5277  -8.3486  -8.3371
    -8.2625  -8.2188  -8.0145  -7.9683  -7.9419  -7.8195  -7.7178  -3.9928
    -3.9244  -3.6485  -3.6307  -3.5484  -3.1408  -3.1343  -2.6210  -2.6031
    -2.5442  -2.4541  -2.2930  -2.2445  -2.2103  -2.1884  -2.1662  -1.8945
    -1.8547  -1.6455  -1.3229  -1.2760  -1.2456  -1.2101  -1.1468  -1.1030
    -1.0004  -0.9367  -0.9293  -0.9249  -0.9075  -0.8523  -0.8043  -0.6909
    -0.5620  -0.3524  -0.3415   0.2374   0.3461   0.3754   0.6584   0.8052
     0.9339   1.1269   1.1919   1.2591   1.2947   1.3343   1.3543   1.3732
     1.4011   1.4917   1.5849   1.5918   1.6329   1.6332   1.7675   1.7837
     1.7922   1.8468   1.8557   1.8883   1.9423   2.0540   2.0714   2.0824
     2.1695   2.1957   2.2552   2.3177   2.3989   2.3990   2.5201   2.5964
     2.6218   2.6504   4.1774   4.3462   4.4339   4.4937   4.5125   5.7129
     5.8503   6.2477   6.2664   7.3132   7.4536   7.5918   8.3284   8.6834
     8.7508   9.1209   9.2205   9.2425   9.4002   9.4432   9.5253   9.7759
     9.8102

          k =-0.5000 0.0000 0.0000 ( 34514 PWs)   bands (ev):

   -37.6039 -35.5488 -22.6342 -22.5647 -22.5421 -22.3797 -18.7845 -18.6131
   -18.5901 -17.0443 -16.8046 -16.5867 -15.0854 -15.0660 -15.0556 -14.9116
   -14.6403 -14.5425 -14.5019 -14.3637 -14.2913 -14.1692 -14.1644 -14.0608
   -14.0092 -13.8987 -13.7508  -7.9814  -7.8918  -7.7461  -7.6759  -7.6185
    -7.5441  -7.5078  -7.4283  -7.3447  -7.3444  -7.3410  -7.1608  -3.0533
    -3.0054  -2.8643  -2.8238  -2.3268  -2.3048  -2.1931  -1.7240  -1.6240
    -1.5872  -1.5454  -1.4379  -1.3618  -1.3474  -1.3053  -1.2154  -1.2027
    -1.1911  -1.1903  -1.1861  -1.1462  -1.0623  -0.9646  -0.9112  -0.9059
    -0.8727  -0.7844  -0.7674  -0.6730  -0.5125  -0.4685  -0.4418  -0.2488
    -0.2273  -0.1956  -0.1877  -0.1722   0.0910   0.0926   0.1490   0.2073
     0.2601   0.2862   0.4137   0.4325   0.4371   0.4579   0.4864   0.5043
     0.5598   0.7769   0.8618   0.9098   0.9410   1.1634   1.1765   1.2123
     1.3767   1.3967   1.4144   1.4268   1.4897   1.4996   1.6209   1.6440
     1.6832   1.6940   1.7751   1.8777   1.8997   1.9867   2.0978   2.1430
     2.1825   2.2512   2.3630   2.5329   2.6496   2.8478   2.8692   6.3704
     6.4869   6.9507   7.3064   7.3462   7.3586   7.3737   7.6731   8.0027
     8.3010   8.5758   8.6836   8.8590   8.9871   9.0598   9.1300   9.4857
     9.5606

          k =-0.5000 0.1320 0.0000 ( 34570 PWs)   bands (ev):

   -37.6025 -35.5471 -22.6134 -22.5445 -22.5214 -22.3596 -18.7808 -18.6525
   -18.5707 -17.0351 -16.7770 -16.6504 -15.0220 -15.0077 -14.9980 -14.8597
   -14.6000 -14.5353 -14.4621 -14.3226 -14.2334 -14.1470 -14.1425 -14.0292
   -14.0064 -13.9361 -13.7537  -7.9961  -7.9308  -7.7927  -7.7479  -7.7003
    -7.6740  -7.6312  -7.6307  -7.5590  -7.5404  -7.4601  -7.3738  -3.1319
    -3.0734  -2.9081  -2.8758  -2.3318  -2.3062  -2.2205  -2.0943  -1.9841
    -1.7841  -1.7607  -1.6686  -1.5821  -1.5780  -1.5644  -1.4846  -1.4704
    -1.3982  -1.3739  -1.2741  -1.2709  -1.1858  -1.0612  -0.9168  -0.8401
    -0.8273  -0.7198  -0.6680  -0.6025  -0.5242  -0.4232  -0.4102  -0.2630
    -0.2586  -0.2515  -0.0432   0.0188   0.0747   0.1170   0.2098   0.2176
     0.2574   0.3134   0.3689   0.5093   0.5439   0.5489   0.6296   0.7155
     0.8003   0.8951   1.0017   1.1005   1.1377   1.1969   1.2236   1.3087
     1.3200   1.3267   1.4022   1.4482   1.4946   1.6131   1.6452   1.6653
     1.7425   1.7719   1.7864   1.8659   1.9069   1.9508   2.1272   2.3046
     2.7784   2.7906   2.8683   2.9778   3.0378   3.1323   3.2268   6.2484
     6.5621   6.7904   7.1541   7.1945   7.6238   7.6613   7.7031   8.0477
     8.2059   8.5084   8.6520   8.9544   9.1889   9.3200   9.3805   9.5625
     9.6772

          k =-0.5000 0.2640 0.0000 ( 34584 PWs)   bands (ev):

   -37.5989 -35.5428 -22.5624 -22.4949 -22.4703 -22.3101 -18.7721 -18.7233
   -18.5468 -17.0131 -16.7936 -16.7060 -14.8659 -14.8585 -14.8470 -14.7026
   -14.5211 -14.5037 -14.3683 -14.2187 -14.1365 -14.0960 -14.0914 -14.0026
   -14.0018 -13.9513 -13.7836  -8.2000  -8.1292  -8.1103  -8.0490  -7.9758
    -7.9598  -7.9245  -7.8865  -7.8807  -7.7409  -7.7314  -7.6561  -3.4649
    -3.3782  -3.1131  -3.1089  -2.5865  -2.5305  -2.4978  -2.3999  -2.3653
    -2.3414  -2.3391  -2.2294  -2.2166  -2.1900  -2.0084  -1.8716  -1.6443
    -1.6036  -1.5900  -1.1780  -1.1246  -0.9962  -0.9394  -0.9285  -0.9225
    -0.8996  -0.8435  -0.8095  -0.7495  -0.7003  -0.6449  -0.6377  -0.6057
    -0.4609  -0.3653  -0.3434   0.0895   0.2097   0.3022   0.4599   0.5310
     0.6696   0.7621   0.8268   0.8818   0.8895   1.0383   1.0648   1.1197
     1.1481   1.2043   1.2196   1.2371   1.3925   1.4465   1.4931   1.4992
     1.5282   1.5888   1.6295   1.7105   1.7285   1.7396   1.7908   1.8684
     1.8733   1.8769   1.8877   1.9404   1.9619   2.0017   2.2502   2.2893
     3.0110   3.0286   3.6987   3.8444   3.8945   3.9590   4.0195   5.9867
     6.2103   6.7210   6.7249   6.9817   7.5886   7.6054   8.2076   8.4719
     8.4916   8.5717   9.0433   9.0465   9.5578   9.5590   9.6191   9.6334
     9.8153

          k =-0.5000 0.3960 0.0000 ( 34556 PWs)   bands (ev):

   -37.5954 -35.5384 -22.5102 -22.4442 -22.4181 -22.2594 -18.7889 -18.7634
   -18.5266 -16.9915 -16.9228 -16.6304 -14.7195 -14.6813 -14.6702 -14.5118
   -14.4590 -14.4088 -14.2888 -14.1908 -14.1091 -14.0478 -14.0413 -14.0008
   -13.9429 -13.8966 -13.8613  -8.5751  -8.4934  -8.4928  -8.3371  -8.3097
    -8.2640  -8.2165  -7.9968  -7.9798  -7.9583  -7.8101  -7.7102  -3.9281
    -3.8491  -3.5347  -3.5311  -3.3095  -2.9070  -2.9005  -2.6723  -2.6552
    -2.5994  -2.5116  -2.2855  -2.2665  -2.2462  -2.2015  -2.1541  -1.8527
    -1.8362  -1.6729  -1.2052  -1.1855  -1.1639  -1.0780  -1.0570  -1.0267
    -1.0084  -0.9822  -0.9245  -0.8994  -0.8578  -0.8128  -0.7525  -0.7408
    -0.5732  -0.3285  -0.3177   0.2323   0.3559   0.3924   0.7030   0.7929
     0.9533   1.1061   1.1239   1.2908   1.3091   1.3432   1.3773   1.3975
     1.4109   1.4172   1.5235   1.5908   1.5967   1.6197   1.6279   1.7009
     1.7257   1.7664   1.8707   1.8893   1.9215   1.9672   2.0164   2.0227
     2.0805   2.1020   2.1778   2.1812   2.2354   2.3036   2.3984   2.6073
     2.8277   2.8454   4.1171   4.4341   4.5397   4.6041   4.6093   5.6889
     5.8131   6.2292   6.2304   7.2553   7.3181   7.5852   8.3191   8.6280
     8.9455   8.9961   9.1031   9.1684   9.4213   9.4667   9.5543   9.6567
     9.6948

          k =-0.5000-0.5279 0.0000 ( 34620 PWs)   bands (ev):

   -37.5939 -35.5366 -22.4882 -22.4228 -22.3961 -22.2381 -18.8153 -18.7598
   -18.5185 -16.9826 -16.9734 -16.5969 -14.6653 -14.5836 -14.5804 -14.5094
   -14.4086 -14.2697 -14.2393 -14.2360 -14.0651 -14.0240 -14.0220 -14.0190
   -14.0016 -13.9026 -13.8355  -8.7211  -8.6446  -8.6394  -8.4603  -8.4532
    -8.3800  -8.3373  -8.0760  -8.0151  -7.9854  -7.8364  -7.7272  -4.1284
    -4.0569  -3.7404  -3.7352  -3.5722  -3.1313  -3.1254  -2.7047  -2.6764
    -2.6322  -2.5385  -2.3743  -2.2566  -2.2430  -2.2366  -2.2011  -1.9233
    -1.9125  -1.6956  -1.3194  -1.2758  -1.2233  -1.1465  -1.1313  -1.0579
    -1.0527  -0.9926  -0.9525  -0.9445  -0.9392  -0.8673  -0.8532  -0.7706
    -0.5304  -0.2997  -0.2918   0.2683   0.3858   0.4123   0.7871   0.9467
     1.0706   1.1895   1.3692   1.3745   1.3834   1.3958   1.4075   1.4446
     1.4521   1.5449   1.5637   1.6196   1.6645   1.6910   1.8704   1.8773
     1.8819   1.9069   1.9588   1.9967   2.0121   2.0853   2.0939   2.1487
     2.1769   2.2327   2.3702   2.3733   2.3989   2.4599   2.5709   2.5734
     2.5908   2.7675   4.1884   4.6228   4.7433   4.8080   4.8132   5.4579
     5.7866   6.0022   6.0039   7.1500   7.4532   7.5929   8.3453   8.7717
     8.9589   8.9954   9.0218   9.0774   9.1223   9.2702   9.4216   9.5983
     9.7647

     the Fermi energy is     2.5973 ev

!    total energy              =   -1842.80165477 Ry
     Harris-Foulkes estimate   =   -1842.80165477 Ry
     estimated scf accuracy    <          5.5E-09 Ry

     The total energy is the sum of the following terms:

     one-electron contribution =  -29993.94387753 Ry
     hartree contribution      =   15149.54146926 Ry
     xc contribution           =    -621.60985429 Ry
     ewald contribution        =   13623.21903313 Ry
     smearing contrib. (-TS)   =      -0.00842534 Ry

     convergence has been achieved in  34 iterations

     negative rho (up, down):  1.499E-03 0.000E+00

     Forces acting on atoms (cartesian axes, Ry/au):

     atom    1 type  4   force =     0.00000000    0.00000000   -0.00016275
     atom    2 type  3   force =     0.00000000    0.00000000    0.00035235
     atom    3 type  4   force =     0.00000000    0.00000000   -0.00077258
     atom    4 type  1   force =     0.00000000    0.00000000   -0.00028465
     atom    5 type  3   force =     0.00000000    0.00000000    0.00054408
     atom    6 type  4   force =     0.00000000    0.00000000   -0.00001935
     atom    7 type  4   force =     0.00000000    0.00000000    0.00033187
     atom    8 type  2   force =     0.00000000    0.00000000   -0.00058143
     atom    9 type  4   force =     0.00000000    0.00000000    0.00024216
     atom   10 type  4   force =     0.00000000    0.00000000    0.00027250
     atom   11 type  3   force =     0.00000000    0.00000000    0.00026416
     atom   12 type  1   force =     0.00000000    0.00000000    0.00012410
     atom   13 type  4   force =     0.00000000    0.00000000    0.00233505
     atom   14 type  4   force =     0.00000000    0.00000000    0.00212890
     atom   15 type  3   force =     0.00000000    0.00000000   -0.00339433
     atom   16 type  4   force =     0.00000000    0.00000000    0.00158262
     atom   17 type  1   force =     0.00000000    0.00000000   -0.01113465
     atom   18 type  3   force =     0.00000000    0.00000000    0.00158717
     atom   19 type  4   force =     0.00000000    0.00000000    0.03901283
     atom   20 type  4   force =     0.00000000    0.00000000    0.04434128
     atom   21 type  2   force =     0.00000000    0.00000000   -0.00973882
     atom   22 type  4   force =     0.00000000    0.00000000   -0.02004019
     atom   23 type  4   force =     0.00000000    0.00000000   -0.01429659
     atom   24 type  3   force =     0.00000000    0.00000000   -0.01662728
     atom   25 type  1   force =     0.00000000    0.00000000   -0.01567365
     atom   26 type  4   force =     0.00000000    0.00000000   -0.00020831
     atom   27 type  3   force =     0.00000000    0.00000000    0.00023126
     atom   28 type  4   force =     0.00000000    0.00000000   -0.00041575

     Total force =     0.069740     Total SCF correction =     0.000366


     Computing stress (Cartesian axis) and pressure


     negative rho (up, down):  1.499E-03 0.000E+00
          total   stress  (Ry/bohr**3)                   (kbar)     P=       -6.93
  -0.00001036   0.00000000   0.00000000           -1.52        0.00        0.00
   0.00000000   0.00000621   0.00000000            0.00        0.91        0.00
   0.00000000   0.00000000  -0.00013711            0.00        0.00      -20.17

 
     init_run     :      7.83s CPU      8.38s WALL (       1 calls)
     electrons    :    478.43s CPU    525.44s WALL (       1 calls)
     forces       :      3.75s CPU      4.20s WALL (       1 calls)
     stress       :     26.54s CPU     27.70s WALL (       1 calls)

     Called by init_run:
     wfcinit      :      5.42s CPU      5.55s WALL (       1 calls)
     potinit      :      0.60s CPU      0.62s WALL (       1 calls)
     hinit0       :      0.95s CPU      0.96s WALL (       1 calls)

     Called by electrons:
     c_bands      :    373.08s CPU    390.77s WALL (      34 calls)
     sum_band     :     69.40s CPU     85.38s WALL (      34 calls)
     v_of_rho     :      3.01s CPU      3.07s WALL (      35 calls)
     newd         :     17.54s CPU     31.01s WALL (      35 calls)
     mix_rho      :     15.68s CPU     15.85s WALL (      34 calls)

     Called by c_bands:
     init_us_2    :      4.86s CPU      5.01s WALL (    1775 calls)
     cegterg      :    348.73s CPU    365.66s WALL (     850 calls)

     Called by sum_band:
     sum_band:bec :      0.25s CPU      0.25s WALL (     850 calls)
     addusdens    :     19.77s CPU     34.99s WALL (      34 calls)

     Called by *egterg:
     h_psi        :    176.21s CPU    185.48s WALL (    3884 calls)
     s_psi        :     22.90s CPU     23.25s WALL (    3884 calls)
     g_psi        :      0.72s CPU      0.74s WALL (    3009 calls)
     cdiaghg      :     74.41s CPU     74.76s WALL (    3859 calls)

     Called by h_psi:
     h_psi:calbec :     25.15s CPU     26.31s WALL (    3884 calls)
     vloc_psi     :    125.97s CPU    128.73s WALL (    3884 calls)
     add_vuspsi   :     23.72s CPU     26.70s WALL (    3884 calls)

     General routines
     calbec       :     39.55s CPU     40.77s WALL (    4859 calls)
     fft          :      2.48s CPU      2.51s WALL (     478 calls)
     ffts         :      8.00s CPU      8.08s WALL (   14294 calls)
     fftw         :    141.84s CPU    144.87s WALL (  603902 calls)
     interpolate  :      0.22s CPU      0.22s WALL (      35 calls)
 
     Parallel routines
     fft_scatt_xy :     22.09s CPU     22.54s WALL (  618674 calls)
     fft_scatt_yz :     74.45s CPU     75.98s WALL (  618674 calls)
 
     PWSCF        :   8m37.30s CPU   9m26.54s WALL

 
   This run was terminated on:  21:38: 3  21May2021            

=------------------------------------------------------------------------------=
   JOB DONE.
=------------------------------------------------------------------------------=
[1621647483.186626] [holy7c10209:191630:0]          mpool.c:43   UCX  WARN  object 0x45e7340 was not returned to mpool ucp_requests
[1621647483.194750] [holy7c10209:191629:0]          mpool.c:43   UCX  WARN  object 0x385bb80 was not returned to mpool ucp_requests
[1621647483.194781] [holy7c10209:191629:0]          mpool.c:43   UCX  WARN  object 0x385bd40 was not returned to mpool ucp_requests
[1621647483.194785] [holy7c10209:191629:0]          mpool.c:43   UCX  WARN  object 0x385bf00 was not returned to mpool ucp_requests
[1621647483.196529] [holy7c10209:191639:0]          mpool.c:43   UCX  WARN  object 0x30d8100 was not returned to mpool ucp_requests
[1621647483.199058] [holy7c10209:191638:0]          mpool.c:43   UCX  WARN  object 0x295d0c0 was not returned to mpool ucp_requests
[1621647483.199090] [holy7c10209:191638:0]          mpool.c:43   UCX  WARN  object 0x295d440 was not returned to mpool ucp_requests
[1621647483.206290] [holy7c10209:191635:0]          mpool.c:43   UCX  WARN  object 0x3f91b40 was not returned to mpool ucp_requests
[1621647483.203272] [holy7c10209:191640:0]          mpool.c:43   UCX  WARN  object 0x2b78240 was not returned to mpool ucp_requests
