
     Program PWSCF v.6.5 starts on 21May2021 at 21:26: 6 

     This program is part of the open-source Quantum ESPRESSO suite
     for quantum simulation of materials; please cite
         "P. Giannozzi et al., J. Phys.:Condens. Matter 21 395502 (2009);
         "P. Giannozzi et al., J. Phys.:Condens. Matter 29 465901 (2017);
          URL http://www.quantum-espresso.org", 
     in publications or presentations arising from this work. More details at
     http://www.quantum-espresso.org/quote

     Parallel version (MPI), running on    20 processors

     MPI processes distributed on    14 nodes
     R & G space division:  proc/nbgrp/npool/nimage =      20
     Reading input from CBCO_Y_cleave_5.0_sep.pwi
Warning: card &IONS ignored
Warning: card     ION_DYNAMICS = 'BFGS' ignored
Warning: card / ignored
Warning: card &CELL ignored
Warning: card     CELL_DYNAMICS = 'BFGS' ignored
Warning: card     PRESS_CONV_THR = 5 ignored
Warning: card / ignored

     Current dimensions of program PWSCF are:
     Max number of different atomic species (ntypx) = 10
     Max number of k-points (npk) =  40000
     Max angular momentum in pseudopotentials (lmaxx) =  3

     Subspace diagonalization in iterative solution of the eigenvalue problem:
     one sub-group per band group will be used
     scalapack distributed-memory algorithm (size of sub-group:  4*  4 procs)

     Message from routine setup:
     using ibrav=0 with symmetry is DISCOURAGED, use correct ibrav instead
 
     Parallelization info
     --------------------
     sticks:   dense  smooth     PW     G-vecs:    dense   smooth      PW
     Min         149      50     14                78203    15060    2352
     Max         150      51     15                78244    15085    2401
     Sum        2991    1007    289              1564483   301375   47365
 


     bravais-lattice index     =            0
     lattice parameter (alat)  =       7.4270  a.u.
     unit-cell volume          =    4795.9235 (a.u.)^3
     number of atoms/cell      =           28
     number of atomic types    =            4
     number of electrons       =       227.00
     number of Kohn-Sham states=          137
     kinetic-energy cutoff     =      60.0000  Ry
     charge density cutoff     =     720.0000  Ry
     convergence threshold     =      1.0E-08
     mixing beta               =       0.5000
     number of iterations used =           10  local-TF  mixing
     Exchange-correlation= SLA PW PBE PBE
                           (   1   4   3   4   0   0   0)

     celldm(1)=   7.427040  celldm(2)=   0.000000  celldm(3)=   0.000000
     celldm(4)=   0.000000  celldm(5)=   0.000000  celldm(6)=   0.000000

     crystal axes: (cart. coord. in units of alat)
               a(1) = (   1.000000   0.000000   0.000000 )  
               a(2) = (   0.000000   0.947081   0.000000 )  
               a(3) = (   0.000000   0.000000  12.360550 )  

     reciprocal axes: (cart. coord. in units 2 pi/alat)
               b(1) = (  1.000000  0.000000  0.000000 )  
               b(2) = (  0.000000  1.055876  0.000000 )  
               b(3) = (  0.000000  0.000000  0.080903 )  


     PseudoPot. # 1 for Ba read from file:
     ./pseudo/Ba.pbe-nsp-van.UPF
     MD5 check sum: 2b9c31dd849566dd297d80989662b7a0
     Pseudo is Ultrasoft + core correction, Zval = 10.0
     Generated by new atomic code, or converted to UPF format
     Using radial grid of  907 points,  6 beta functions with: 
                l(1) =   0
                l(2) =   0
                l(3) =   1
                l(4) =   1
                l(5) =   2
                l(6) =   2
     Q(r) pseudized with  6 coefficients,  rinner =    1.200   1.200   1.200
                                                       1.200   1.200

     PseudoPot. # 2 for Ca read from file:
     ./pseudo/Ca.pbe-nsp-van.UPF
     MD5 check sum: 6471098428ff4fa451746d08035ff179
     Pseudo is Ultrasoft + core correction, Zval = 10.0
     Generated by new atomic code, or converted to UPF format
     Using radial grid of  845 points,  6 beta functions with: 
                l(1) =   0
                l(2) =   0
                l(3) =   1
                l(4) =   1
                l(5) =   2
                l(6) =   2
     Q(r) pseudized with  6 coefficients,  rinner =    1.200   1.200   1.200
                                                       1.200   1.200

     PseudoPot. # 3 for Cu read from file:
     ./pseudo/Cu.pbe-n-van_ak.UPF
     MD5 check sum: 34e3282627ffb533726feb647e090d62
     Pseudo is Ultrasoft + core correction, Zval = 11.0
     Generated by new atomic code, or converted to UPF format
     Using radial grid of  867 points,  6 beta functions with: 
                l(1) =   0
                l(2) =   0
                l(3) =   1
                l(4) =   1
                l(5) =   2
                l(6) =   2
     Q(r) pseudized with  8 coefficients,  rinner =    1.400   1.400   1.400
                                                       1.400   1.400

     PseudoPot. # 4 for O  read from file:
     ./pseudo/O.pbe-van_ak.UPF
     MD5 check sum: 783ce7fe4c79b6a4916957118fed0856
     Pseudo is Ultrasoft, Zval =  6.0
     Generated by new atomic code, or converted to UPF format
     Using radial grid of  737 points,  4 beta functions with: 
                l(1) =   0
                l(2) =   0
                l(3) =   1
                l(4) =   1
     Q(r) pseudized with  8 coefficients,  rinner =    0.800   0.800   0.800


     atomic species   valence    mass     pseudopotential
        Ba            10.00   137.32700     Ba( 1.00)
        Ca            10.00    40.07800     Ca( 1.00)
        Cu            11.00    63.54600     Cu( 1.00)
        O              6.00    15.99900     O ( 1.00)

      4 Sym. Ops. (no inversion) found



   Cartesian axes

     site n.     atom                  positions (alat units)
         1           O   tau(   1) = (   0.0000000   0.4735409  -0.0469745  )
         2           Cu  tau(   2) = (   0.0000000   0.0000000   0.0264565  )
         3           O   tau(   3) = (   0.0000000   0.0000000   0.5030914  )
         4           Ba  tau(   4) = (   0.5000000   0.4735409   0.5690292  )
         5           Cu  tau(   5) = (   0.0000000   0.0000000   1.0374254  )
         6           O   tau(   6) = (   0.5000000   0.0000000   1.0768099  )
         7           O   tau(   7) = (   0.0000000   0.4735409   1.1116985  )
         8           Ca  tau(   8) = (   0.5000000   0.4735409   1.4976260  )
         9           O   tau(   9) = (   0.0000000   0.4735409   1.8667529  )
        10           O   tau(  10) = (   0.5000000   0.0000000   1.9044124  )
        11           Cu  tau(  11) = (   0.0000000   0.0000000   1.9512546  )
        12           Ba  tau(  12) = (   0.5000000   0.4735409   2.4295764  )
        13           O   tau(  13) = (   0.0000000   0.0000000   2.5115362  )
        14           O   tau(  14) = (   0.0000000   0.4735409   2.9918528  )
        15           Cu  tau(  15) = (   0.0000000   0.0000000   2.9919088  )
        16           O   tau(  16) = (   0.0000000   0.0000000   3.4722686  )
        17           Ba  tau(  17) = (   0.5000000   0.4735409   3.5542208  )
        18           Cu  tau(  18) = (   0.0000000   0.0000000   4.0325248  )
        19           O   tau(  19) = (   0.5000000   0.0000000   4.0793669  )
        20           O   tau(  20) = (   0.0000000   0.4735409   4.1170213  )
        21           Ca  tau(  21) = (   0.5000000   0.4735409   4.4861584  )
        22           O   tau(  22) = (   0.0000000   0.4735409   6.1442767  )
        23           O   tau(  23) = (   0.5000000   0.0000000   6.1791653  )
        24           Cu  tau(  24) = (   0.0000000   0.0000000   6.2185525  )
        25           Ba  tau(  25) = (   0.5000000   0.4735409   6.6869461  )
        26           O   tau(  26) = (   0.0000000   0.0000000   6.7528737  )
        27           Cu  tau(  27) = (   0.0000000   0.0000000   7.2295136  )
        28           O   tau(  28) = (   0.0000000   0.4735409   7.3029319  )

     number of k points=    25  Gaussian smearing, width (Ry)=  0.0100
                       cart. coord. in units 2pi/alat
        k(    1) = (   0.0000000   0.0000000   0.0000000), wk =   0.0312500
        k(    2) = (   0.0000000   0.1319845   0.0000000), wk =   0.0625000
        k(    3) = (   0.0000000   0.2639689   0.0000000), wk =   0.0625000
        k(    4) = (   0.0000000   0.3959534   0.0000000), wk =   0.0625000
        k(    5) = (   0.0000000  -0.5279378   0.0000000), wk =   0.0312500
        k(    6) = (   0.1250000   0.0000000   0.0000000), wk =   0.0625000
        k(    7) = (   0.1250000   0.1319845   0.0000000), wk =   0.1250000
        k(    8) = (   0.1250000   0.2639689   0.0000000), wk =   0.1250000
        k(    9) = (   0.1250000   0.3959534   0.0000000), wk =   0.1250000
        k(   10) = (   0.1250000  -0.5279378   0.0000000), wk =   0.0625000
        k(   11) = (   0.2500000   0.0000000   0.0000000), wk =   0.0625000
        k(   12) = (   0.2500000   0.1319845   0.0000000), wk =   0.1250000
        k(   13) = (   0.2500000   0.2639689   0.0000000), wk =   0.1250000
        k(   14) = (   0.2500000   0.3959534   0.0000000), wk =   0.1250000
        k(   15) = (   0.2500000  -0.5279378   0.0000000), wk =   0.0625000
        k(   16) = (   0.3750000   0.0000000   0.0000000), wk =   0.0625000
        k(   17) = (   0.3750000   0.1319845   0.0000000), wk =   0.1250000
        k(   18) = (   0.3750000   0.2639689   0.0000000), wk =   0.1250000
        k(   19) = (   0.3750000   0.3959534   0.0000000), wk =   0.1250000
        k(   20) = (   0.3750000  -0.5279378   0.0000000), wk =   0.0625000
        k(   21) = (  -0.5000000   0.0000000   0.0000000), wk =   0.0312500
        k(   22) = (  -0.5000000   0.1319845   0.0000000), wk =   0.0625000
        k(   23) = (  -0.5000000   0.2639689   0.0000000), wk =   0.0625000
        k(   24) = (  -0.5000000   0.3959534   0.0000000), wk =   0.0625000
        k(   25) = (  -0.5000000  -0.5279378   0.0000000), wk =   0.0312500

     Dense  grid:  1564483 G-vectors     FFT dimensions: (  64,  64, 800)

     Smooth grid:   301375 G-vectors     FFT dimensions: (  40,  36, 480)

     Estimated max dynamical RAM per process >     498.50 MB

     Estimated total dynamical RAM >       9.74 GB

     Initial potential from superposition of free atoms

     starting charge  226.84630, renormalised to  227.00000

     negative rho (up, down):  3.412E-03 0.000E+00
     Starting wfcs are  195 randomized atomic wfcs

     total cpu time spent up to now is       12.2 secs

     Self-consistent Calculation

     iteration #  1     ecut=    60.00 Ry     beta= 0.50
     Davidson diagonalization with overlap
     ethr =  1.00E-02,  avg # of iterations =  2.0

     negative rho (up, down):  4.893E-04 0.000E+00

     total cpu time spent up to now is       31.7 secs

     total energy              =   -1840.98662912 Ry
     Harris-Foulkes estimate   =   -1845.32418205 Ry
     estimated scf accuracy    <      17.48703864 Ry

     iteration #  2     ecut=    60.00 Ry     beta= 0.50
     Davidson diagonalization with overlap
     ethr =  7.70E-03,  avg # of iterations =  2.0

     negative rho (up, down):  2.781E-04 0.000E+00

     total cpu time spent up to now is       50.1 secs

     total energy              =   -1842.59234876 Ry
     Harris-Foulkes estimate   =   -1843.20824286 Ry
     estimated scf accuracy    <       7.93574133 Ry

     iteration #  3     ecut=    60.00 Ry     beta= 0.50
     Davidson diagonalization with overlap
     ethr =  3.50E-03,  avg # of iterations =  1.0

     negative rho (up, down):  2.527E-04 0.000E+00

     total cpu time spent up to now is       66.9 secs

     total energy              =   -1842.74591688 Ry
     Harris-Foulkes estimate   =   -1842.95485447 Ry
     estimated scf accuracy    <       4.55227800 Ry

     iteration #  4     ecut=    60.00 Ry     beta= 0.50
     Davidson diagonalization with overlap
     ethr =  2.01E-03,  avg # of iterations =  1.0

     negative rho (up, down):  2.448E-04 0.000E+00

     total cpu time spent up to now is       85.6 secs

     total energy              =   -1842.72406302 Ry
     Harris-Foulkes estimate   =   -1842.86341562 Ry
     estimated scf accuracy    <       1.93224335 Ry

     iteration #  5     ecut=    60.00 Ry     beta= 0.50
     Davidson diagonalization with overlap
     ethr =  8.51E-04,  avg # of iterations =  3.3

     negative rho (up, down):  2.415E-04 0.000E+00

     total cpu time spent up to now is      104.9 secs

     total energy              =   -1842.73880047 Ry
     Harris-Foulkes estimate   =   -1842.77921875 Ry
     estimated scf accuracy    <       2.70934231 Ry

     iteration #  6     ecut=    60.00 Ry     beta= 0.50
     Davidson diagonalization with overlap
     ethr =  8.51E-04,  avg # of iterations =  1.4

     negative rho (up, down):  2.294E-04 0.000E+00

     total cpu time spent up to now is      124.0 secs

     total energy              =   -1842.64561272 Ry
     Harris-Foulkes estimate   =   -1842.75268235 Ry
     estimated scf accuracy    <       1.99192951 Ry

     iteration #  7     ecut=    60.00 Ry     beta= 0.50
     Davidson diagonalization with overlap
     ethr =  8.51E-04,  avg # of iterations =  4.7

     negative rho (up, down):  2.217E-04 0.000E+00

     total cpu time spent up to now is      146.9 secs

     total energy              =   -1842.62532100 Ry
     Harris-Foulkes estimate   =   -1842.67091120 Ry
     estimated scf accuracy    <       2.11018983 Ry

     iteration #  8     ecut=    60.00 Ry     beta= 0.50
     Davidson diagonalization with overlap
     ethr =  8.51E-04,  avg # of iterations =  3.4

     negative rho (up, down):  2.216E-04 0.000E+00

     total cpu time spent up to now is      167.2 secs

     total energy              =   -1842.62084328 Ry
     Harris-Foulkes estimate   =   -1842.65121971 Ry
     estimated scf accuracy    <       0.90488245 Ry

     iteration #  9     ecut=    60.00 Ry     beta= 0.50
     Davidson diagonalization with overlap
     ethr =  3.99E-04,  avg # of iterations =  3.9

     negative rho (up, down):  2.225E-04 0.000E+00

     total cpu time spent up to now is      189.5 secs

     total energy              =   -1842.62698666 Ry
     Harris-Foulkes estimate   =   -1842.63377723 Ry
     estimated scf accuracy    <       0.19259145 Ry

     iteration # 10     ecut=    60.00 Ry     beta= 0.50
     Davidson diagonalization with overlap
     ethr =  8.48E-05,  avg # of iterations =  5.8

     negative rho (up, down):  2.235E-04 0.000E+00

     total cpu time spent up to now is      214.0 secs

     total energy              =   -1842.62435292 Ry
     Harris-Foulkes estimate   =   -1842.63059369 Ry
     estimated scf accuracy    <       0.17722600 Ry

     iteration # 11     ecut=    60.00 Ry     beta= 0.50
     Davidson diagonalization with overlap
     ethr =  7.81E-05,  avg # of iterations =  1.1

     negative rho (up, down):  2.236E-04 0.000E+00

     total cpu time spent up to now is      230.2 secs

     total energy              =   -1842.62570527 Ry
     Harris-Foulkes estimate   =   -1842.62699697 Ry
     estimated scf accuracy    <       0.12952153 Ry

     iteration # 12     ecut=    60.00 Ry     beta= 0.50
     Davidson diagonalization with overlap
     ethr =  5.71E-05,  avg # of iterations =  1.8

     negative rho (up, down):  2.243E-04 0.000E+00

     total cpu time spent up to now is      249.4 secs

     total energy              =   -1842.62585684 Ry
     Harris-Foulkes estimate   =   -1842.62628041 Ry
     estimated scf accuracy    <       0.09571125 Ry

     iteration # 13     ecut=    60.00 Ry     beta= 0.50
     Davidson diagonalization with overlap
     ethr =  4.22E-05,  avg # of iterations =  1.2

     negative rho (up, down):  2.245E-04 0.000E+00

     total cpu time spent up to now is      266.6 secs

     total energy              =   -1842.62430509 Ry
     Harris-Foulkes estimate   =   -1842.62630638 Ry
     estimated scf accuracy    <       0.11706233 Ry

     iteration # 14     ecut=    60.00 Ry     beta= 0.50
     Davidson diagonalization with overlap
     ethr =  4.22E-05,  avg # of iterations =  1.4

     negative rho (up, down):  2.257E-04 0.000E+00

     total cpu time spent up to now is      283.7 secs

     total energy              =   -1842.62385139 Ry
     Harris-Foulkes estimate   =   -1842.62484880 Ry
     estimated scf accuracy    <       0.06055832 Ry

     iteration # 15     ecut=    60.00 Ry     beta= 0.50
     Davidson diagonalization with overlap
     ethr =  2.67E-05,  avg # of iterations =  2.0

     negative rho (up, down):  2.269E-04 0.000E+00

     total cpu time spent up to now is      302.9 secs

     total energy              =   -1842.62345123 Ry
     Harris-Foulkes estimate   =   -1842.62417631 Ry
     estimated scf accuracy    <       0.05050066 Ry

     iteration # 16     ecut=    60.00 Ry     beta= 0.50
     Davidson diagonalization with overlap
     ethr =  2.22E-05,  avg # of iterations =  1.6

     negative rho (up, down):  2.277E-04 0.000E+00

     total cpu time spent up to now is      320.1 secs

     total energy              =   -1842.62296028 Ry
     Harris-Foulkes estimate   =   -1842.62355124 Ry
     estimated scf accuracy    <       0.03285735 Ry

     iteration # 17     ecut=    60.00 Ry     beta= 0.50
     Davidson diagonalization with overlap
     ethr =  1.45E-05,  avg # of iterations =  4.0

     negative rho (up, down):  1.107E-03 0.000E+00

     total cpu time spent up to now is      341.8 secs

     total energy              =   -1842.62145309 Ry
     Harris-Foulkes estimate   =   -1842.62329334 Ry
     estimated scf accuracy    <       0.02711102 Ry

     iteration # 18     ecut=    60.00 Ry     beta= 0.50
     Davidson diagonalization with overlap
     c_bands:  1 eigenvalues not converged
     ethr =  1.19E-05,  avg # of iterations =  5.2

     negative rho (up, down):  1.899E-03 0.000E+00

     total cpu time spent up to now is      364.6 secs

     total energy              =   -1842.62119969 Ry
     Harris-Foulkes estimate   =   -1842.62180627 Ry
     estimated scf accuracy    <       0.01711161 Ry

     iteration # 19     ecut=    60.00 Ry     beta= 0.50
     Davidson diagonalization with overlap
     ethr =  7.54E-06,  avg # of iterations =  5.0

     negative rho (up, down):  8.648E-04 0.000E+00

     total cpu time spent up to now is      386.6 secs

     total energy              =   -1842.62090009 Ry
     Harris-Foulkes estimate   =   -1842.62131624 Ry
     estimated scf accuracy    <       0.01224515 Ry

     iteration # 20     ecut=    60.00 Ry     beta= 0.50
     Davidson diagonalization with overlap
     c_bands:  1 eigenvalues not converged
     ethr =  5.39E-06,  avg # of iterations =  4.0

     negative rho (up, down):  1.396E-03 0.000E+00

     total cpu time spent up to now is      408.2 secs

     total energy              =   -1842.62055445 Ry
     Harris-Foulkes estimate   =   -1842.62095712 Ry
     estimated scf accuracy    <       0.00597718 Ry

     iteration # 21     ecut=    60.00 Ry     beta= 0.50
     Davidson diagonalization with overlap
     ethr =  2.63E-06,  avg # of iterations =  8.6

     negative rho (up, down):  5.112E-04 0.000E+00

     total cpu time spent up to now is      435.3 secs

     total energy              =   -1842.62054804 Ry
     Harris-Foulkes estimate   =   -1842.62062773 Ry
     estimated scf accuracy    <       0.00296059 Ry

     iteration # 22     ecut=    60.00 Ry     beta= 0.50
     Davidson diagonalization with overlap
     ethr =  1.30E-06,  avg # of iterations =  3.3

     negative rho (up, down):  4.426E-04 0.000E+00

     total cpu time spent up to now is      454.9 secs

     total energy              =   -1842.62058602 Ry
     Harris-Foulkes estimate   =   -1842.62057883 Ry
     estimated scf accuracy    <       0.00088919 Ry

     iteration # 23     ecut=    60.00 Ry     beta= 0.50
     Davidson diagonalization with overlap
     ethr =  3.92E-07,  avg # of iterations =  6.4

     negative rho (up, down):  4.716E-04 0.000E+00

     total cpu time spent up to now is      480.5 secs

     total energy              =   -1842.62060896 Ry
     Harris-Foulkes estimate   =   -1842.62060208 Ry
     estimated scf accuracy    <       0.00026441 Ry

     iteration # 24     ecut=    60.00 Ry     beta= 0.50
     Davidson diagonalization with overlap
     ethr =  1.16E-07,  avg # of iterations =  1.4

     negative rho (up, down):  1.060E-03 0.000E+00

     total cpu time spent up to now is      498.1 secs

     total energy              =   -1842.62061440 Ry
     Harris-Foulkes estimate   =   -1842.62061510 Ry
     estimated scf accuracy    <       0.00012406 Ry

     iteration # 25     ecut=    60.00 Ry     beta= 0.50
     Davidson diagonalization with overlap
     ethr =  5.47E-08,  avg # of iterations =  2.9

     negative rho (up, down):  1.084E-03 0.000E+00

     total cpu time spent up to now is      517.6 secs

     total energy              =   -1842.62061599 Ry
     Harris-Foulkes estimate   =   -1842.62062124 Ry
     estimated scf accuracy    <       0.00008610 Ry

     iteration # 26     ecut=    60.00 Ry     beta= 0.50
     Davidson diagonalization with overlap
     ethr =  3.79E-08,  avg # of iterations =  1.3

     negative rho (up, down):  1.284E-03 0.000E+00

     total cpu time spent up to now is      535.3 secs

     total energy              =   -1842.62061783 Ry
     Harris-Foulkes estimate   =   -1842.62061835 Ry
     estimated scf accuracy    <       0.00003393 Ry

     iteration # 27     ecut=    60.00 Ry     beta= 0.50
     Davidson diagonalization with overlap
     ethr =  1.49E-08,  avg # of iterations =  1.3

     negative rho (up, down):  1.329E-03 0.000E+00

     total cpu time spent up to now is      552.8 secs

     total energy              =   -1842.62061784 Ry
     Harris-Foulkes estimate   =   -1842.62061836 Ry
     estimated scf accuracy    <       0.00001058 Ry

     iteration # 28     ecut=    60.00 Ry     beta= 0.50
     Davidson diagonalization with overlap
     ethr =  4.66E-09,  avg # of iterations =  2.5

     negative rho (up, down):  1.386E-03 0.000E+00

     total cpu time spent up to now is      573.6 secs

     total energy              =   -1842.62061789 Ry
     Harris-Foulkes estimate   =   -1842.62061823 Ry
     estimated scf accuracy    <       0.00000278 Ry

     iteration # 29     ecut=    60.00 Ry     beta= 0.50
     Davidson diagonalization with overlap
     ethr =  1.23E-09,  avg # of iterations =  3.6

     negative rho (up, down):  1.401E-03 0.000E+00

     total cpu time spent up to now is      596.1 secs

     total energy              =   -1842.62061791 Ry
     Harris-Foulkes estimate   =   -1842.62061809 Ry
     estimated scf accuracy    <       0.00000127 Ry

     iteration # 30     ecut=    60.00 Ry     beta= 0.50
     Davidson diagonalization with overlap
     ethr =  5.61E-10,  avg # of iterations =  2.2

     negative rho (up, down):  1.397E-03 0.000E+00

     total cpu time spent up to now is      615.2 secs

     total energy              =   -1842.62061796 Ry
     Harris-Foulkes estimate   =   -1842.62061800 Ry
     estimated scf accuracy    <       0.00000048 Ry

     iteration # 31     ecut=    60.00 Ry     beta= 0.50
     Davidson diagonalization with overlap
     ethr =  2.13E-10,  avg # of iterations =  2.0

     negative rho (up, down):  1.458E-03 0.000E+00

     total cpu time spent up to now is      635.7 secs

     total energy              =   -1842.62061787 Ry
     Harris-Foulkes estimate   =   -1842.62061799 Ry
     estimated scf accuracy    <       0.00000052 Ry

     iteration # 32     ecut=    60.00 Ry     beta= 0.50
     Davidson diagonalization with overlap
     ethr =  2.13E-10,  avg # of iterations =  1.0

     negative rho (up, down):  1.463E-03 0.000E+00

     total cpu time spent up to now is      652.9 secs

     total energy              =   -1842.62061787 Ry
     Harris-Foulkes estimate   =   -1842.62061789 Ry
     estimated scf accuracy    <       0.00000007 Ry

     iteration # 33     ecut=    60.00 Ry     beta= 0.50
     Davidson diagonalization with overlap
     ethr =  3.06E-11,  avg # of iterations =  3.4

     negative rho (up, down):  1.455E-03 0.000E+00

     total cpu time spent up to now is      676.4 secs

     total energy              =   -1842.62061789 Ry
     Harris-Foulkes estimate   =   -1842.62061788 Ry
     estimated scf accuracy    <       0.00000003 Ry

     iteration # 34     ecut=    60.00 Ry     beta= 0.50
     Davidson diagonalization with overlap
     ethr =  1.33E-11,  avg # of iterations =  1.6

     negative rho (up, down):  1.455E-03 0.000E+00

     total cpu time spent up to now is      695.8 secs

     total energy              =   -1842.62061789 Ry
     Harris-Foulkes estimate   =   -1842.62061789 Ry
     estimated scf accuracy    <       0.00000002 Ry

     iteration # 35     ecut=    60.00 Ry     beta= 0.50
     Davidson diagonalization with overlap
     ethr =  1.06E-11,  avg # of iterations =  1.1

     negative rho (up, down):  1.439E-03 0.000E+00

     total cpu time spent up to now is      714.2 secs

     total energy              =   -1842.62061791 Ry
     Harris-Foulkes estimate   =   -1842.62061789 Ry
     estimated scf accuracy    <       0.00000002 Ry

     iteration # 36     ecut=    60.00 Ry     beta= 0.50
     Davidson diagonalization with overlap
     ethr =  8.83E-12,  avg # of iterations =  1.7

     negative rho (up, down):  1.440E-03 0.000E+00

     total cpu time spent up to now is      732.9 secs

     total energy              =   -1842.62061791 Ry
     Harris-Foulkes estimate   =   -1842.62061791 Ry
     estimated scf accuracy    <       0.00000001 Ry

     iteration # 37     ecut=    60.00 Ry     beta= 0.50
     Davidson diagonalization with overlap
     ethr =  5.11E-12,  avg # of iterations =  1.0

     negative rho (up, down):  1.440E-03 0.000E+00

     total cpu time spent up to now is      751.0 secs

     End of self-consistent calculation

          k = 0.0000 0.0000 0.0000 ( 37745 PWs)   bands (ev):

   -39.1610 -36.1006 -23.3428 -23.3052 -23.0518 -23.0448 -20.2801 -20.1380
   -20.1264 -17.6050 -17.1518 -17.1404 -16.2234 -15.8155 -15.3707 -15.2873
   -15.1855 -15.0984 -15.0862 -15.0758 -14.6955 -14.6294 -14.4960 -14.3375
   -14.2915 -14.1631 -13.9658  -8.5575  -8.4365  -8.3990  -8.3675  -8.2260
    -8.2141  -8.2060  -8.1671  -8.1171  -8.0898  -7.9654  -7.9237  -2.8441
    -2.8324  -2.8062  -2.7640  -2.7457  -2.3439  -2.3047  -2.2804  -2.1822
    -2.0527  -1.9977  -1.8107  -1.7342  -1.6717  -1.6214  -1.5671  -1.4563
    -1.3735  -1.1501  -1.1359  -0.9726  -0.8906  -0.8902  -0.8236  -0.8170
    -0.7955  -0.7787  -0.7643  -0.7589  -0.7322  -0.7000  -0.6806  -0.6805
    -0.6243  -0.6099  -0.5512  -0.4787  -0.4579  -0.4192  -0.4152  -0.4151
    -0.3627  -0.3458  -0.3406  -0.2547  -0.2062  -0.2054  -0.1904  -0.1225
    -0.0247   0.2118   0.2853   0.3202   0.3680   0.4399   0.4457   0.4550
     0.6090   0.6699   0.7395   0.8352   0.8525   0.9514   1.0084   1.0164
     1.1255   1.1917   1.2169   1.2476   1.3129   1.4223   1.5187   1.5437
     1.6255   1.7300   1.7355   1.7401   1.7608   1.8560   2.0220   2.1161
     4.3204   4.7032   4.8048   5.3112   5.4670   5.8413   6.2500   6.4870
     6.5723   6.5880   6.6295   6.6836   6.8001   6.8473   7.4947   7.5802
     7.7441

          k = 0.0000 0.1320 0.0000 ( 37695 PWs)   bands (ev):

   -39.1595 -36.0988 -23.3175 -23.2785 -23.0248 -23.0194 -20.2749 -20.1626
   -20.1246 -17.5688 -17.2130 -17.1495 -16.1681 -15.7268 -15.3168 -15.2500
   -15.1906 -15.1065 -15.0779 -15.0588 -14.7049 -14.6354 -14.5015 -14.3834
   -14.3392 -14.2199 -13.9980  -8.5557  -8.4361  -8.3512  -8.3233  -8.2658
    -8.2482  -8.2196  -8.1184  -8.1178  -8.0446  -8.0050  -7.9715  -3.1269
    -2.9029  -2.8155  -2.7920  -2.7070  -2.6802  -2.5703  -2.2318  -2.2126
    -2.1619  -2.1589  -2.1548  -2.0927  -2.0350  -1.8638  -1.6616  -1.5218
    -1.4759  -1.1918  -1.1427  -1.1051  -1.0931  -1.0700  -1.0145  -0.9772
    -0.9749  -0.9293  -0.8523  -0.8220  -0.7243  -0.6770  -0.6619  -0.6078
    -0.5895  -0.5780  -0.5298  -0.5073  -0.4602  -0.4403  -0.4276  -0.4130
    -0.3915  -0.3379  -0.3373  -0.3289  -0.2368  -0.1447  -0.1173  -0.0453
     0.1360   0.1797   0.3247   0.4271   0.4782   0.5426   0.5651   0.6327
     0.6589   0.6738   0.8633   0.8792   0.9137   0.9413   1.0092   1.0504
     1.0675   1.1730   1.1737   1.2606   1.3004   1.3900   1.4611   1.5175
     1.5356   1.7455   1.7552   1.7961   1.9452   2.2827   2.3493   2.4228
     4.4856   5.0796   5.1686   5.4686   5.6013   6.0568   6.3617   6.5539
     6.6752   6.7548   6.7854   6.8036   7.0536   7.0982   7.6686   7.8075
     7.9731

          k = 0.0000 0.2640 0.0000 ( 37591 PWs)   bands (ev):

   -39.1559 -36.0944 -23.2551 -23.2126 -22.9582 -22.9566 -20.2732 -20.2101
   -20.1202 -17.4767 -17.3673 -17.1438 -16.0175 -15.5272 -15.2426 -15.2395
   -15.2161 -15.1641 -14.9970 -14.9652 -14.6922 -14.6145 -14.5412 -14.5144
   -14.4425 -14.3283 -14.0884  -8.5519  -8.4356  -8.3677  -8.3387  -8.2307
    -8.2162  -8.2126  -8.1217  -8.0886  -8.0749  -7.9957  -7.9313  -3.6023
    -3.3484  -3.2414  -3.1152  -3.0072  -2.9425  -2.8247  -2.7951  -2.7695
    -2.7087  -2.5912  -2.2849  -2.1081  -2.0200  -1.9787  -1.8988  -1.7059
    -1.5734  -1.5261  -1.4861  -1.4206  -1.3771  -1.3212  -1.2666  -1.2074
    -1.1656  -1.1448  -1.0500  -1.0336  -1.0113  -0.9650  -0.9609  -0.8669
    -0.8314  -0.6496  -0.5586  -0.5015  -0.4460  -0.4185  -0.4099  -0.3481
    -0.3337  -0.3030  -0.1956  -0.1489  -0.0998   0.1036   0.1839   0.3482
     0.3736   0.4344   0.4597   0.5557   0.6105   0.6380   0.6504   0.6859
     0.7301   0.7498   0.7885   0.7947   0.8479   1.0523   1.1164   1.1296
     1.1590   1.2565   1.2601   1.3600   1.4188   1.4482   1.4596   1.5084
     1.6352   1.7872   1.7955   2.0488   2.1676   2.5261   2.6739   3.1809
     4.7538   5.4237   5.9736   6.0522   6.0578   6.2271   6.7941   6.8737
     6.8746   7.1919   7.3751   7.5847   7.7273   7.8421   8.1713   8.2298
     8.3239

          k = 0.0000 0.3960 0.0000 ( 37522 PWs)   bands (ev):

   -39.1524 -36.0900 -23.1907 -23.1444 -22.8918 -22.8893 -20.3100 -20.2178
   -20.1159 -17.5035 -17.3751 -17.1382 -15.8107 -15.4485 -15.3800 -15.3269
   -15.1972 -15.0140 -14.9338 -14.7452 -14.6628 -14.6218 -14.6061 -14.5881
   -14.5512 -14.4008 -14.2321  -8.5460  -8.4591  -8.4356  -8.4168  -8.2116
    -8.1696  -8.1648  -8.1162  -8.1022  -8.0953  -7.8645  -7.8110  -4.0228
    -3.9245  -3.8027  -3.5732  -3.5127  -3.5094  -3.3979  -2.8860  -2.8111
    -2.8075  -2.5803  -2.4045  -2.3260  -2.1105  -2.0429  -2.0325  -1.8882
    -1.7518  -1.6944  -1.6462  -1.5896  -1.5807  -1.5795  -1.4857  -1.4602
    -1.3774  -1.3365  -1.2763  -1.2647  -1.2227  -1.2085  -1.2078  -0.8976
    -0.8505  -0.7618  -0.7037  -0.5703  -0.4845  -0.3889  -0.3885  -0.3649
    -0.3521  -0.3074  -0.1576  -0.0222   0.2188   0.2678   0.3463   0.3937
     0.4151   0.4533   0.5081   0.5172   0.5783   0.6214   0.7135   0.7717
     0.8459   0.8970   0.9456   0.9747   1.0927   1.1045   1.2065   1.2118
     1.2333   1.3839   1.4291   1.4492   1.4695   1.5488   1.7386   1.7621
     1.8339   1.8538   1.9086   1.9830   2.4202   2.5982   2.7276   3.7364
     4.5163   5.6381   5.8109   6.8229   6.9211   6.9367   7.0215   7.1997
     7.6125   7.7469   7.9176   8.1538   8.1876   8.3294   8.5720   8.5762
     8.6007

          k = 0.0000-0.5279 0.0000 ( 37586 PWs)   bands (ev):

   -39.1509 -36.0881 -23.1634 -23.1155 -22.8644 -22.8600 -20.3322 -20.2136
   -20.1141 -17.5557 -17.3301 -17.1359 -15.6071 -15.5709 -15.4908 -15.3750
   -15.0830 -15.0087 -14.7873 -14.7695 -14.6790 -14.6413 -14.5863 -14.5778
   -14.5108 -14.4377 -14.3672  -8.5385  -8.4986  -8.4465  -8.4352  -8.2058
    -8.2026  -8.1970  -8.1170  -8.0463  -8.0446  -7.8074  -7.7589  -4.2490
    -4.1154  -3.9814  -3.7517  -3.7294  -3.7286  -3.6089  -2.9021  -2.8253
    -2.8238  -2.7021  -2.4551  -2.2522  -2.2302  -2.0969  -2.0097  -1.9901
    -1.8314  -1.7812  -1.7149  -1.7078  -1.6008  -1.5809  -1.5796  -1.5736
    -1.4937  -1.4518  -1.3844  -1.3513  -1.2989  -1.2943  -1.2160  -0.9069
    -0.8615  -0.8160  -0.7012  -0.6176  -0.4789  -0.3952  -0.3811  -0.3716
    -0.3441  -0.3025  -0.1459  -0.0921   0.1669   0.2996   0.3266   0.3425
     0.4185   0.4735   0.5126   0.6044   0.6366   0.6972   0.8014   0.8522
     0.8967   0.9497   0.9511   0.9640   1.0472   1.2050   1.2232   1.3086
     1.4989   1.5052   1.5059   1.5507   1.5688   1.6449   1.6778   1.7149
     1.8601   1.9694   2.0154   2.0662   2.2428   2.4482   3.1383   3.9280
     4.1145   5.7221   5.8294   6.9614   7.1085   7.3275   7.3328   7.4627
     7.6874   7.9145   8.0986   8.3963   8.4581   8.4923   8.6679   8.8010
     8.8181

          k = 0.1250 0.0000 0.0000 ( 37695 PWs)   bands (ev):

   -39.1602 -36.0995 -23.3258 -23.2871 -23.0334 -23.0276 -20.2760 -20.1458
   -20.1370 -17.5716 -17.2321 -17.1391 -16.1765 -15.7132 -15.3941 -15.2720
   -15.2311 -15.1137 -15.1015 -15.0914 -14.7044 -14.6372 -14.5080 -14.3639
   -14.3430 -14.1918 -13.9951  -8.5900  -8.4622  -8.3373  -8.3220  -8.2474
    -8.1845  -8.1750  -8.1736  -8.0730  -8.0289  -7.9321  -7.8932  -2.9652
    -2.8866  -2.7981  -2.7920  -2.7798  -2.3863  -2.3277  -2.3215  -2.2635
    -2.2516  -1.9679  -1.8213  -1.7924  -1.7322  -1.6694  -1.6587  -1.5887
    -1.4045  -1.2342  -1.1713  -1.1266  -1.0960  -1.0282  -1.0014  -0.8952
    -0.8825  -0.8532  -0.8325  -0.7821  -0.7542  -0.7472  -0.7124  -0.6883
    -0.6203  -0.6103  -0.5638  -0.5275  -0.4591  -0.4223  -0.3910  -0.3689
    -0.3195  -0.2934  -0.2927  -0.2399  -0.1744  -0.1508  -0.1353  -0.0929
    -0.0723   0.2761   0.2794   0.3284   0.3548   0.3852   0.4829   0.4972
     0.6729   0.6965   0.8266   0.8408   0.8522   0.9688   1.0201   1.0488
     1.0761   1.1994   1.2421   1.3335   1.3981   1.4602   1.4834   1.5703
     1.6560   1.6706   1.7828   1.7970   1.8252   1.8353   2.0566   2.1760
     4.4489   4.8835   4.9737   5.3169   5.5889   6.0053   6.4539   6.4690
     6.4740   6.6916   6.7936   6.8429   6.8644   7.0995   7.6405   7.7545
     7.9161

          k = 0.1250 0.1320 0.0000 ( 37662 PWs)   bands (ev):

   -39.1587 -36.0977 -23.3012 -23.2613 -23.0073 -23.0029 -20.2711 -20.1619
   -20.1433 -17.5364 -17.2351 -17.2022 -16.1228 -15.6320 -15.3375 -15.2485
   -15.2254 -15.1276 -15.0741 -15.0615 -14.7054 -14.6352 -14.5137 -14.3976
   -14.3839 -14.2393 -14.0244  -8.5834  -8.4815  -8.4179  -8.3994  -8.2512
    -8.2254  -8.1408  -8.1358  -8.1196  -8.1007  -7.8955  -7.8525  -3.1545
    -2.9396  -2.8737  -2.8140  -2.7936  -2.6656  -2.5490  -2.3654  -2.2974
    -2.2266  -2.1956  -2.1527  -2.1408  -2.0908  -1.8694  -1.8090  -1.6988
    -1.5427  -1.3181  -1.3055  -1.2568  -1.1990  -1.1726  -1.1145  -1.0597
    -1.0223  -1.0138  -0.9917  -0.9245  -0.7814  -0.7222  -0.6589  -0.6519
    -0.5704  -0.5616  -0.5363  -0.5032  -0.4841  -0.4723  -0.4316  -0.3637
    -0.3462  -0.3040  -0.2914  -0.2893  -0.2247  -0.1116   0.0031   0.0361
     0.1772   0.2344   0.4264   0.4472   0.5157   0.5411   0.6096   0.6207
     0.7068   0.7524   0.7696   0.8067   0.9249   0.9418   1.0517   1.0777
     1.1107   1.1476   1.1662   1.2346   1.2898   1.4176   1.5111   1.6237
     1.7670   1.8314   1.8700   2.0397   2.1761   2.2955   2.3617   2.4255
     4.5877   5.2221   5.3068   5.3955   5.7252   6.2085   6.2760   6.6042
     6.7574   6.7634   6.9513   7.0018   7.1983   7.3215   7.8125   7.9502
     8.1373

          k = 0.1250 0.2640 0.0000 ( 37577 PWs)   bands (ev):

   -39.1552 -36.0933 -23.2406 -23.1974 -22.9428 -22.9420 -20.2702 -20.2090
   -20.1383 -17.4472 -17.3642 -17.2147 -15.9768 -15.4580 -15.2454 -15.2258
   -15.2195 -15.1820 -14.9915 -14.9351 -14.6876 -14.6079 -14.5631 -14.5078
   -14.4487 -14.3364 -14.1062  -8.5714  -8.5505  -8.5449  -8.4364  -8.3087
    -8.2653  -8.2263  -8.1267  -8.1247  -8.1192  -7.8856  -7.8470  -3.6354
    -3.3713  -3.2303  -3.1239  -3.0162  -2.9430  -2.8287  -2.8179  -2.7945
    -2.7211  -2.7062  -2.3167  -2.2885  -2.2069  -2.0246  -1.9112  -1.8316
    -1.7190  -1.7019  -1.5513  -1.5268  -1.4951  -1.4081  -1.3756  -1.2888
    -1.2427  -1.2078  -1.1556  -1.0901  -1.0829  -1.0335  -1.0147  -0.9153
    -0.8377  -0.6666  -0.5790  -0.5752  -0.5562  -0.4424  -0.3301  -0.3128
    -0.2765  -0.1236  -0.0543  -0.0181   0.0448   0.2083   0.2425   0.2871
     0.3975   0.4884   0.5082   0.5880   0.6147   0.6748   0.7892   0.8034
     0.8360   0.8463   0.8752   0.8983   0.9235   1.0052   1.0831   1.1235
     1.1301   1.1660   1.3116   1.4231   1.4730   1.4884   1.5510   1.6665
     1.9445   2.0297   2.2478   2.2761   2.3183   2.5369   2.6929   3.1807
     4.8301   5.3754   5.9272   6.0345   6.1208   6.2173   6.7859   6.8727
     6.8850   7.3279   7.5397   7.7279   7.9092   8.0195   8.2504   8.3231
     8.4336

          k = 0.1250 0.3960 0.0000 ( 37572 PWs)   bands (ev):

   -39.1516 -36.0889 -23.1781 -23.1315 -22.8791 -22.8762 -20.3079 -20.2162
   -20.1332 -17.4984 -17.3486 -17.2062 -15.7771 -15.4136 -15.3701 -15.3000
   -15.1232 -15.0037 -14.9218 -14.7215 -14.6582 -14.6423 -14.5962 -14.5719
   -14.5487 -14.3952 -14.2337  -8.6124  -8.5810  -8.5567  -8.4479  -8.3347
    -8.3195  -8.2413  -8.1715  -8.1485  -8.1315  -7.9304  -7.8864  -4.0616
    -3.9297  -3.8432  -3.6019  -3.5196  -3.5010  -3.4001  -2.8942  -2.8383
    -2.8109  -2.6491  -2.4563  -2.3064  -2.1697  -2.1251  -2.1165  -2.0580
    -1.9946  -1.8416  -1.7262  -1.7147  -1.6808  -1.6273  -1.5500  -1.4903
    -1.4098  -1.3867  -1.3430  -1.3158  -1.2687  -1.2432  -1.2351  -1.1862
    -0.8881  -0.7315  -0.6008  -0.5677  -0.5565  -0.4137  -0.3745  -0.3101
    -0.2495  -0.0837   0.0820   0.1464   0.1664   0.3277   0.3872   0.4553
     0.5346   0.5402   0.5964   0.6675   0.6994   0.7096   0.7178   0.8624
     0.8973   0.9351   1.0244   1.0895   1.1371   1.2057   1.2367   1.3497
     1.3725   1.4338   1.4378   1.5362   1.7548   1.8051   1.8209   1.8744
     1.9289   1.9784   2.1960   2.2203   2.4783   2.6682   2.8203   3.7179
     4.5928   5.5291   5.7430   6.5642   6.7855   6.8961   6.9050   7.2113
     7.6172   7.7565   7.9796   8.1487   8.2566   8.3187   8.4024   8.6425
     8.8631

          k = 0.1250-0.5279 0.0000 ( 37528 PWs)   bands (ev):

   -39.1501 -36.0871 -23.1516 -23.1035 -22.8525 -22.8479 -20.3303 -20.2121
   -20.1310 -17.5500 -17.3052 -17.2024 -15.5712 -15.5598 -15.4461 -15.3341
   -15.0105 -14.9697 -14.7865 -14.7486 -14.6740 -14.6525 -14.5872 -14.5690
   -14.5140 -14.4218 -14.3482  -8.6218  -8.5757  -8.5549  -8.4528  -8.3296
    -8.3262  -8.2576  -8.2058  -8.1589  -8.1380  -7.9649  -7.9118  -4.2606
    -4.1588  -4.0300  -3.7801  -3.7324  -3.7293  -3.6192  -2.9152  -2.8475
    -2.8340  -2.6249  -2.3853  -2.3795  -2.3364  -2.1344  -2.1290  -2.0753
    -2.0328  -1.9693  -1.8791  -1.7750  -1.7130  -1.7035  -1.5997  -1.5772
    -1.4621  -1.4583  -1.4222  -1.4111  -1.3642  -1.2990  -1.2932  -1.2506
    -0.8784  -0.7495  -0.6004  -0.5720  -0.5322  -0.4203  -0.3991  -0.3009
    -0.2434  -0.0828   0.1234   0.1296   0.1748   0.3206   0.4173   0.4415
     0.5121   0.5241   0.6016   0.6775   0.6777   0.7519   0.8352   0.9464
     0.9739   0.9820   1.0158   1.1047   1.2642   1.2644   1.4937   1.5176
     1.5266   1.5772   1.6576   1.7047   1.7991   1.8327   1.9116   1.9544
     1.9863   2.0206   2.0413   2.0422   2.3567   2.5542   3.2164   3.9063
     4.2028   5.5517   5.8103   6.6632   6.9419   7.0068   7.1455   7.4496
     7.7200   7.8125   8.0137   8.2355   8.5385   8.6149   8.7934   8.9103
     9.0143

          k = 0.2500 0.0000 0.0000 ( 37694 PWs)   bands (ev):

   -39.1583 -36.0969 -23.2842 -23.2428 -22.9883 -22.9853 -20.2686 -20.1895
   -20.1347 -17.4863 -17.3963 -17.1357 -16.0517 -15.5155 -15.4599 -15.3355
   -15.3126 -15.1790 -15.1149 -15.0480 -14.7186 -14.6452 -14.5578 -14.4822
   -14.3942 -14.2483 -14.0761  -8.6262  -8.4637  -8.2802  -8.2506  -8.2170
    -8.1608  -8.1113  -8.0929  -8.0016  -7.9451  -7.8493  -7.8176  -3.3120
    -3.0799  -2.9002  -2.8828  -2.7236  -2.6983  -2.6982  -2.4058  -2.2609
    -2.2089  -2.1621  -1.9856  -1.7682  -1.7393  -1.7288  -1.6643  -1.6523
    -1.4951  -1.4919  -1.4495  -1.4287  -1.3699  -1.2835  -1.2743  -1.1521
    -1.0606  -1.0448  -1.0228  -0.9436  -0.8242  -0.7647  -0.7327  -0.7097
    -0.7046  -0.6871  -0.6836  -0.5864  -0.5282  -0.4350  -0.3821  -0.3295
    -0.2594  -0.2118  -0.1903  -0.1694  -0.0656  -0.0576  -0.0573   0.0310
     0.0955   0.1466   0.1795   0.3801   0.4477   0.5221   0.5661   0.5829
     0.6429   0.7660   0.7937   0.8698   0.9041   0.9358   1.0219   1.0617
     1.2108   1.2311   1.2546   1.3134   1.3728   1.3759   1.5210   1.5249
     1.7306   1.8031   1.8512   1.8863   1.9748   2.1564   2.1648   2.3302
     4.7067   4.9896   5.3409   5.4208   5.9335   6.3009   6.5299   6.6873
     6.8923   7.0408   7.1090   7.2623   7.3529   7.5708   7.9789   8.1060
     8.1740

          k = 0.2500 0.1320 0.0000 ( 37671 PWs)   bands (ev):

   -39.1568 -36.0951 -23.2613 -23.2190 -22.9643 -22.9624 -20.2642 -20.1884
   -20.1574 -17.4541 -17.3899 -17.2019 -16.0024 -15.4652 -15.3965 -15.3116
   -15.2636 -15.1927 -15.0797 -14.9936 -14.7044 -14.6306 -14.5553 -14.4862
   -14.4287 -14.2755 -14.0966  -8.6407  -8.5323  -8.4247  -8.3873  -8.2957
    -8.2767  -8.1304  -8.0869  -8.0639  -8.0592  -7.8177  -7.7841  -3.3934
    -3.1299  -2.9408  -2.9240  -2.8990  -2.7156  -2.6880  -2.6070  -2.4708
    -2.3996  -2.2382  -2.1489  -2.1430  -2.0995  -2.0769  -1.9302  -1.8396
    -1.7631  -1.5899  -1.5426  -1.5288  -1.4631  -1.3974  -1.2956  -1.2310
    -1.1834  -1.1386  -1.0574  -1.0220  -0.9732  -0.8518  -0.7577  -0.7300
    -0.6519  -0.5461  -0.4979  -0.4755  -0.4564  -0.4111  -0.3843  -0.3828
    -0.3255  -0.2789  -0.2279  -0.1842  -0.0856   0.0435   0.0971   0.2155
     0.2542   0.3700   0.4136   0.4520   0.4751   0.5504   0.6555   0.6943
     0.7804   0.7889   0.8652   0.9171   0.9196   0.9634   1.0184   1.0589
     1.0832   1.2009   1.2216   1.2296   1.3225   1.4680   1.6052   1.7826
     1.9547   2.1517   2.2646   2.3430   2.3543   2.3992   2.4315   2.5503
     4.8024   5.0440   5.6021   5.6843   5.9699   6.1099   6.6804   6.7467
     6.8577   7.2639   7.2983   7.5018   7.6307   7.7965   8.1005   8.3005
     8.3714

          k = 0.2500 0.2640 0.0000 ( 37627 PWs)   bands (ev):

   -39.1533 -36.0907 -23.2051 -23.1603 -22.9061 -22.9051 -20.2638 -20.2134
   -20.1733 -17.3898 -17.3659 -17.3384 -15.8694 -15.3760 -15.2639 -15.2478
   -15.2228 -15.1235 -14.9909 -14.8475 -14.6793 -14.6038 -14.5914 -14.4994
   -14.4672 -14.3466 -14.1537  -8.7622  -8.7525  -8.5867  -8.5107  -8.4503
    -8.4488  -8.2538  -8.1791  -8.1678  -8.1343  -7.9343  -7.9065  -3.7996
    -3.5084  -3.2586  -3.1569  -3.0852  -3.0706  -2.9563  -2.8273  -2.8037
    -2.7841  -2.7082  -2.6864  -2.6444  -2.3784  -2.2684  -2.1518  -1.9719
    -1.9599  -1.9344  -1.7751  -1.7170  -1.5598  -1.5492  -1.5052  -1.3920
    -1.3459  -1.2691  -1.2474  -1.1433  -1.1270  -1.1072  -1.0689  -0.9475
    -0.9140  -0.8642  -0.7075  -0.5369  -0.4126  -0.3626  -0.1940  -0.1678
    -0.0945   0.0639   0.1137   0.1525   0.2715   0.3279   0.3703   0.4449
     0.4461   0.5052   0.5468   0.6021   0.7294   0.7492   0.8675   0.9354
     0.9432   0.9788   1.0158   1.0364   1.1044   1.1135   1.1694   1.1884
     1.1969   1.3125   1.3435   1.3509   1.4951   1.6027   1.6035   1.8044
     2.4722   2.5432   2.5703   2.6038   2.7569   2.9080   3.0335   3.1817
     5.0174   5.0734   5.7386   6.0712   6.1447   6.2428   6.8245   6.9203
     7.0728   7.6386   7.8314   7.9652   8.2158   8.3192   8.4114   8.5379
     8.6803

          k = 0.2500 0.3960 0.0000 ( 37614 PWs)   bands (ev):

   -39.1497 -36.0864 -23.1473 -23.0999 -22.8482 -22.8442 -20.3028 -20.2208
   -20.1659 -17.4863 -17.3542 -17.2799 -15.6917 -15.3518 -15.3324 -15.2349
   -14.9988 -14.9550 -14.8861 -14.7285 -14.6625 -14.6115 -14.5580 -14.5431
   -14.5279 -14.3878 -14.2385  -8.8914  -8.8725  -8.6333  -8.6265  -8.5629
    -8.4994  -8.4255  -8.3930  -8.2325  -8.2221  -8.1202  -8.1129  -4.2509
    -4.0087  -3.9087  -3.7157  -3.5734  -3.4803  -3.3989  -3.0553  -2.9659
    -2.8393  -2.8222  -2.6544  -2.6340  -2.5931  -2.3354  -2.3254  -2.2631
    -2.1028  -2.0122  -1.9270  -1.9125  -1.7255  -1.7171  -1.6407  -1.5478
    -1.4529  -1.4087  -1.3840  -1.3181  -1.3121  -1.2377  -1.2284  -1.0980
    -1.0570  -0.9381  -0.7732  -0.4404  -0.3638  -0.2557  -0.1563  -0.0983
     0.0767   0.2251   0.2696   0.3163   0.4637   0.4810   0.5008   0.5939
     0.7324   0.7704   0.8080   0.8147   0.8938   0.9409   0.9843   1.0013
     1.0746   1.0778   1.1555   1.2130   1.2508   1.2621   1.3699   1.4018
     1.4994   1.5025   1.5274   1.5446   1.7425   1.8025   1.8834   1.9209
     2.3044   2.4524   2.7493   2.9869   3.0914   3.1455   3.2894   3.6764
     4.7762   5.1662   5.6982   5.9182   6.3521   6.4803   6.9431   7.2159
     7.2686   8.1218   8.2103   8.2848   8.4491   8.4832   8.5124   8.7882
     9.1404

          k = 0.2500-0.5279 0.0000 ( 37612 PWs)   bands (ev):

   -39.1483 -36.0846 -23.1229 -23.0743 -22.8237 -22.8185 -20.3255 -20.2177
   -20.1622 -17.5365 -17.3488 -17.2403 -15.5346 -15.4816 -15.3291 -15.2297
   -14.8780 -14.8761 -14.7834 -14.7386 -14.6955 -14.5840 -14.5817 -14.5518
   -14.5186 -14.3891 -14.3046  -8.9101  -8.8727  -8.6223  -8.6176  -8.6083
    -8.5875  -8.5478  -8.4591  -8.3458  -8.2513  -8.2232  -8.1472  -4.4347
    -4.2151  -4.1679  -3.9095  -3.7849  -3.7079  -3.6272  -3.0102  -2.9732
    -2.8576  -2.8184  -2.8018  -2.6182  -2.5331  -2.4776  -2.3766  -2.2950
    -2.1580  -2.0526  -2.0454  -1.9627  -1.7970  -1.7430  -1.7309  -1.5881
    -1.5011  -1.4825  -1.4571  -1.3825  -1.3296  -1.3089  -1.2291  -1.1200
    -1.0703  -0.9658  -0.7972  -0.4232  -0.3234  -0.2160  -0.1478  -0.0648
     0.1066   0.2800   0.3459   0.3772   0.5190   0.5658   0.6178   0.6858
     0.7251   0.7995   0.8053   0.8680   0.8874   0.9421   0.9677   0.9893
     1.1609   1.2068   1.2315   1.3868   1.3968   1.4067   1.4785   1.5261
     1.5628   1.5852   1.6428   1.6799   1.9182   1.9341   1.9691   2.0830
     2.1006   2.2589   2.7731   3.0071   3.1789   3.3264   3.4239   3.8716
     4.4325   5.1860   5.7840   5.8205   6.3167   6.4570   6.9783   7.2035
     7.6429   7.8151   8.2948   8.4083   8.6854   8.8447   9.0058   9.0491
     9.1544

          k = 0.3750 0.0000 0.0000 ( 37640 PWs)   bands (ev):

   -39.1564 -36.0943 -23.2417 -23.1974 -22.9421 -22.9420 -20.2735 -20.2200
   -20.1324 -17.5362 -17.3910 -17.1324 -15.9010 -15.5603 -15.5279 -15.4562
   -15.2977 -15.1675 -15.1169 -14.9075 -14.7312 -14.6743 -14.6380 -14.5781
   -14.4314 -14.2899 -14.1866  -8.6357  -8.4462  -8.2523  -8.1857  -8.1706
    -8.1301  -8.0351  -8.0085  -7.9491  -7.8980  -7.7625  -7.7388  -3.6245
    -3.4075  -3.2257  -3.0957  -2.8460  -2.7595  -2.7131  -2.5515  -2.2126
    -2.1789  -2.0962  -2.0174  -1.8817  -1.7568  -1.7305  -1.7052  -1.6959
    -1.6896  -1.6766  -1.6453  -1.6306  -1.5707  -1.5329  -1.4106  -1.3955
    -1.2450  -1.2332  -1.1932  -1.1453  -0.9623  -0.8657  -0.7956  -0.7685
    -0.7403  -0.7176  -0.6765  -0.5938  -0.4761  -0.4479  -0.3950  -0.3490
    -0.3095  -0.1810  -0.1620  -0.1112  -0.0870  -0.0422   0.0075   0.0107
     0.0157   0.2251   0.2775   0.3616   0.5099   0.6050   0.6695   0.7155
     0.7158   0.7192   0.7508   0.8355   0.9913   0.9920   1.0736   1.1046
     1.1863   1.2240   1.2647   1.2943   1.4030   1.5098   1.5849   1.6147
     1.7592   1.7895   1.9242   1.9290   2.0804   2.2887   2.4454   2.6622
     4.2022   5.1441   5.9905   6.0721   6.1607   6.2520   6.9215   7.0241
     7.2559   7.4413   7.4855   7.6107   7.7881   7.9578   8.0869   8.2382
     8.3636

          k = 0.3750 0.1320 0.0000 ( 37681 PWs)   bands (ev):

   -39.1549 -36.0925 -23.2206 -23.1757 -22.9211 -22.9202 -20.2699 -20.2181
   -20.1547 -17.5276 -17.3619 -17.1969 -15.8558 -15.5118 -15.4592 -15.4106
   -15.2965 -15.1270 -15.0565 -14.8596 -14.7024 -14.6485 -14.6179 -14.5617
   -14.4662 -14.2991 -14.1933  -8.6542  -8.5038  -8.3683  -8.3490  -8.2787
    -8.2279  -8.1252  -8.0982  -8.0716  -8.0702  -7.8520  -7.8322  -3.7095
    -3.4691  -3.2698  -3.1263  -2.8829  -2.8448  -2.7417  -2.7067  -2.5607
    -2.3841  -2.2384  -2.1463  -2.1314  -2.0928  -2.0643  -2.0633  -2.0004
    -1.9716  -1.8276  -1.7125  -1.6364  -1.6060  -1.4838  -1.4526  -1.4465
    -1.3140  -1.2087  -1.1981  -1.1406  -1.0550  -0.9316  -0.8294  -0.7835
    -0.6960  -0.5732  -0.4909  -0.4817  -0.4391  -0.4101  -0.3350  -0.3292
    -0.2974  -0.2744  -0.2106  -0.0758  -0.0424   0.0025   0.1493   0.2688
     0.3248   0.3264   0.4236   0.4883   0.6245   0.6471   0.6982   0.7239
     0.7702   0.8125   0.8448   0.8787   0.9564   1.0203   1.0306   1.1109
     1.1949   1.2499   1.2793   1.3538   1.3813   1.5900   1.7564   1.7632
     2.1556   2.2313   2.3869   2.3963   2.4524   2.6243   2.7295   2.7709
     4.2782   5.2093   5.9181   6.1387   6.1555   6.2308   6.9085   7.0593
     7.3031   7.5511   7.6564   7.6831   7.8962   7.9833   8.3547   8.4253
     8.5687

          k = 0.3750 0.2640 0.0000 ( 37671 PWs)   bands (ev):

   -39.1514 -36.0881 -23.1690 -23.1224 -22.8695 -22.8667 -20.2640 -20.2370
   -20.1815 -17.5073 -17.3412 -17.2868 -15.7385 -15.3895 -15.3162 -15.2951
   -15.2554 -15.0313 -14.9076 -14.7368 -14.6621 -14.6293 -14.5735 -14.5168
   -14.5014 -14.3412 -14.2142  -8.8227  -8.8052  -8.6154  -8.5611  -8.5002
    -8.4837  -8.4005  -8.3614  -8.2291  -8.2087  -8.1050  -8.0789  -4.0744
    -3.7843  -3.5094  -3.2932  -3.1798  -3.1415  -3.0164  -2.8964  -2.8698
    -2.8006  -2.7658  -2.7471  -2.7442  -2.6631  -2.6294  -2.2936  -2.1590
    -2.0796  -1.9076  -1.8107  -1.7647  -1.5378  -1.5348  -1.5319  -1.4483
    -1.4147  -1.3792  -1.2752  -1.2303  -1.1649  -1.1522  -1.1043  -1.0191
    -1.0020  -0.8892  -0.7640  -0.4818  -0.3319  -0.2051  -0.1295  -0.0604
     0.1345   0.1802   0.2282   0.2602   0.3137   0.4615   0.4860   0.4998
     0.5990   0.6231   0.6391   0.6801   0.7210   0.8939   0.9038   0.9154
     0.9968   1.0900   1.1224   1.1526   1.1868   1.1986   1.2305   1.2514
     1.3050   1.3076   1.3179   1.5160   1.5796   1.6531   1.7387   1.8714
     2.4734   2.6006   2.9657   3.0268   3.1932   3.2251   3.3434   3.4473
     4.4733   5.2643   5.5906   5.8220   6.1848   6.3009   6.9477   7.1252
     7.1377   7.8912   7.9999   8.1120   8.2282   8.3173   8.7146   8.8963
     8.9501

          k = 0.3750 0.3960 0.0000 ( 37657 PWs)   bands (ev):

   -39.1479 -36.0838 -23.1161 -23.0677 -22.8167 -22.8118 -20.2976 -20.2487
   -20.1748 -17.4899 -17.4680 -17.2070 -15.5969 -15.3454 -15.2546 -15.1704
   -14.9991 -14.9375 -14.7492 -14.7426 -14.6007 -14.5951 -14.5358 -14.5028
   -14.4812 -14.3983 -14.2455  -9.0930  -9.0710  -8.8223  -8.8111  -8.7361
    -8.7044  -8.6330  -8.4999  -8.4863  -8.4032  -8.2586  -8.1668  -4.5377
    -4.2636  -3.9653  -3.8550  -3.7184  -3.4596  -3.3888  -3.2518  -3.1465
    -2.9883  -2.9445  -2.9353  -2.7943  -2.7508  -2.6663  -2.6044  -2.3595
    -2.1809  -2.0670  -1.9031  -1.7568  -1.7232  -1.6842  -1.6519  -1.6283
    -1.4819  -1.4728  -1.4101  -1.3822  -1.3105  -1.2797  -1.2111  -1.1496
    -1.1066  -0.9109  -0.8098  -0.3490  -0.2240  -0.0755  -0.0113   0.1269
     0.3867   0.4777   0.4961   0.5460   0.6411   0.6539   0.7206   0.7968
     0.8304   0.8412   0.9139   0.9691   1.0604   1.0717   1.0932   1.1289
     1.1957   1.2451   1.2894   1.3088   1.3782   1.4428   1.4765   1.4922
     1.5656   1.6172   1.6456   1.6644   1.6896   1.7415   1.8944   2.1809
     2.2948   2.4391   3.3092   3.5508   3.6824   3.7459   3.8221   3.9556
     4.6850   4.9381   5.3396   5.7124   5.8815   6.0107   6.8603   7.1536
     7.3208   8.4160   8.4523   8.4949   8.6061   8.6647   8.7993   8.9164
     8.9390

          k = 0.3750-0.5279 0.0000 ( 37708 PWs)   bands (ev):

   -39.1464 -36.0820 -23.0938 -23.0447 -22.7944 -22.7886 -20.3208 -20.2460
   -20.1699 -17.5232 -17.4773 -17.1716 -15.5119 -15.3869 -15.1933 -15.1152
   -14.9122 -14.7986 -14.7816 -14.6602 -14.6247 -14.5737 -14.5500 -14.5089
   -14.5017 -14.3753 -14.2658  -9.1885  -9.1530  -8.9002  -8.8934  -8.8812
    -8.8554  -8.6574  -8.6483  -8.5181  -8.5112  -8.2733  -8.1921  -4.7315
    -4.4701  -4.1959  -4.0941  -3.9288  -3.6849  -3.6158  -3.2542  -3.1650
    -3.0396  -3.0008  -2.9675  -2.7887  -2.7496  -2.7112  -2.6600  -2.4406
    -2.2060  -2.1586  -1.9413  -1.8431  -1.7743  -1.7310  -1.7141  -1.7034
    -1.5203  -1.4781  -1.4735  -1.4692  -1.3971  -1.3527  -1.2369  -1.1165
    -1.0992  -0.8965  -0.8109  -0.3182  -0.2002  -0.0633   0.0694   0.2296
     0.5234   0.5426   0.5732   0.6196   0.7251   0.7495   0.7908   0.8416
     0.9650   0.9999   1.0024   1.0367   1.0772   1.0851   1.2081   1.2419
     1.2976   1.2995   1.3848   1.5067   1.5358   1.5605   1.6241   1.6454
     1.6869   1.6928   1.6984   1.7733   1.8548   1.9081   1.9687   2.0524
     2.2220   2.3396   3.3905   3.7244   3.8646   3.9525   4.0154   4.1102
     4.6561   4.7888   5.1424   5.7038   5.7981   5.8385   6.7686   7.1916
     7.8063   7.9170   8.4142   8.5658   8.6676   8.8531   8.8624   8.9072
     8.9733

          k =-0.5000 0.0000 0.0000 ( 37590 PWs)   bands (ev):

   -39.1556 -36.0932 -23.2237 -23.1782 -22.9238 -22.9225 -20.2836 -20.2243
   -20.1314 -17.5886 -17.3488 -17.1310 -15.8273 -15.6167 -15.5394 -15.5105
   -15.3796 -15.1860 -14.9107 -14.8354 -14.8345 -14.7140 -14.6265 -14.6245
   -14.4429 -14.3037 -14.2525  -8.6345  -8.4359  -8.2366  -8.1626  -8.1559
    -8.1136  -8.0026  -7.9723  -7.9317  -7.8854  -7.7253  -7.7052  -3.7481
    -3.5495  -3.3688  -3.2321  -2.8709  -2.7654  -2.7550  -2.4549  -2.2328
    -2.1676  -2.1313  -1.9480  -1.8916  -1.8887  -1.8130  -1.7669  -1.7522
    -1.7344  -1.6903  -1.6726  -1.6696  -1.6141  -1.5945  -1.5089  -1.4176
    -1.3285  -1.3217  -1.2710  -1.2305  -1.0310  -0.9054  -0.8371  -0.7931
    -0.7318  -0.7218  -0.6735  -0.5895  -0.4787  -0.4532  -0.4003  -0.3433
    -0.3429  -0.1780  -0.1730  -0.1116  -0.0864  -0.0475  -0.0466   0.0069
     0.0297   0.1999   0.3160   0.3243   0.6191   0.6516   0.6546   0.6929
     0.7218   0.7900   0.8523   0.8824   0.9277   1.0752   1.0768   1.0935
     1.1391   1.2203   1.2223   1.3556   1.4420   1.5416   1.6303   1.7541
     1.7844   1.7878   1.9169   1.9318   2.0911   2.3242   2.4656   3.1155
     3.6495   5.3012   6.1078   6.3821   6.7627   6.8155   6.8781   6.8831
     6.9316   7.1376   7.5246   7.7564   7.8521   8.0316   8.4153   8.5451
     8.6284

          k =-0.5000 0.1320 0.0000 ( 37674 PWs)   bands (ev):

   -39.1541 -36.0914 -23.2035 -23.1575 -22.9036 -22.9017 -20.2804 -20.2222
   -20.1534 -17.5794 -17.3213 -17.1947 -15.7811 -15.5595 -15.4697 -15.4553
   -15.3728 -15.1455 -14.8692 -14.7904 -14.7775 -14.6915 -14.6053 -14.5947
   -14.4803 -14.3062 -14.2503  -8.6496  -8.4749  -8.2920  -8.2779  -8.2630
    -8.2148  -8.1753  -8.1668  -8.0616  -8.0053  -7.9185  -7.9137  -3.8399
    -3.6176  -3.4208  -3.2687  -2.8759  -2.8501  -2.7639  -2.7353  -2.5290
    -2.3294  -2.2995  -2.2155  -2.1261  -2.0701  -2.0698  -2.0476  -2.0326
    -2.0286  -1.9423  -1.8190  -1.6329  -1.6090  -1.5440  -1.5197  -1.4728
    -1.3842  -1.2969  -1.2130  -1.1821  -1.0769  -0.9679  -0.8593  -0.8071
    -0.7139  -0.5873  -0.4938  -0.4782  -0.4341  -0.4172  -0.3345  -0.3115
    -0.2989  -0.2096  -0.1833  -0.1448  -0.0003   0.0659   0.0811   0.2486
     0.2531   0.3150   0.4323   0.5495   0.6494   0.6903   0.7621   0.7649
     0.7852   0.8283   0.8284   0.9030   0.9129   1.0489   1.0710   1.1183
     1.1881   1.2250   1.3626   1.4051   1.4061   1.7306   1.7624   1.8343
     2.2104   2.2397   2.3752   2.4082   2.4719   2.6777   2.7712   3.2090
     3.7397   5.3673   5.8409   6.1984   6.6103   6.7272   6.9248   7.1181
     7.2023   7.2113   7.6533   7.6678   7.9644   8.0341   8.6804   8.7831
     8.9793

          k =-0.5000 0.2640 0.0000 ( 37688 PWs)   bands (ev):

   -39.1506 -36.0871 -23.1538 -23.1065 -22.8541 -22.8505 -20.2727 -20.2425
   -20.1803 -17.5574 -17.3379 -17.2503 -15.6681 -15.4083 -15.3590 -15.3111
   -15.2735 -15.0487 -14.7645 -14.6813 -14.6805 -14.6402 -14.5644 -14.5469
   -14.5165 -14.3348 -14.2477  -8.7851  -8.7440  -8.5931  -8.5904  -8.5676
    -8.4900  -8.4617  -8.4248  -8.3630  -8.2804  -8.2116  -8.1074  -4.2045
    -3.9227  -3.6540  -3.4278  -3.1983  -3.1319  -3.0418  -2.9093  -2.8856
    -2.8219  -2.7736  -2.7645  -2.7551  -2.7514  -2.6813  -2.4167  -2.1898
    -2.1628  -1.9017  -1.8750  -1.6833  -1.5823  -1.4898  -1.4836  -1.4441
    -1.3988  -1.3785  -1.3247  -1.3060  -1.1891  -1.1620  -1.1271  -1.0342
    -1.0053  -0.9095  -0.7873  -0.4608  -0.3106  -0.1230  -0.1071  -0.0142
     0.2125   0.2167   0.2928   0.3270   0.3373   0.4665   0.4805   0.5750
     0.6574   0.6739   0.6958   0.7375   0.7564   0.8115   0.9082   0.9665
     0.9990   1.0636   1.1619   1.1740   1.1839   1.2465   1.2755   1.3184
     1.3244   1.3954   1.4068   1.4504   1.5508   1.6794   1.7594   1.9994
     2.4668   2.5895   3.1025   3.1631   3.3490   3.4575   3.5062   3.5845
     4.0005   5.3679   5.5135   5.7301   6.1805   6.2994   6.9650   7.0597
     7.4078   7.8054   7.9288   7.9885   8.4676   8.4916   8.9388   9.0490
     9.0744

          k =-0.5000 0.3960 0.0000 ( 37668 PWs)   bands (ev):

   -39.1471 -36.0828 -23.1030 -23.0543 -22.8035 -22.7982 -20.2951 -20.2650
   -20.1737 -17.5358 -17.4671 -17.1747 -15.5523 -15.3490 -15.2254 -15.1441
   -15.0076 -14.9551 -14.7349 -14.6536 -14.5918 -14.5755 -14.5301 -14.4871
   -14.4630 -14.4098 -14.2496  -9.1502  -9.1192  -8.8812  -8.8667  -8.8549
    -8.8537  -8.6549  -8.6501  -8.5350  -8.5025  -8.2683  -8.1813  -4.6737
    -4.3940  -4.0774  -3.8560  -3.8168  -3.4511  -3.3831  -3.3050  -3.2162
    -3.0563  -3.0320  -3.0160  -2.8106  -2.7620  -2.7119  -2.7016  -2.3971
    -2.2349  -2.1336  -1.8155  -1.7736  -1.7488  -1.6764  -1.6221  -1.6154
    -1.5606  -1.4626  -1.4019  -1.3718  -1.3043  -1.2972  -1.2860  -1.1476
    -1.1276  -0.8727  -0.7892  -0.3217  -0.1793  -0.0456   0.1098   0.2191
     0.4876   0.5579   0.5770   0.7107   0.7127   0.7576   0.8308   0.8480
     0.8700   0.8984   0.9849   1.0372   1.0467   1.0743   1.1305   1.1500
     1.2102   1.3079   1.3175   1.3388   1.4647   1.4662   1.5321   1.5567
     1.6337   1.6790   1.6810   1.6826   1.7518   1.7965   1.8420   2.2837
     2.3017   2.4177   3.4107   3.7845   3.9341   3.9995   4.0694   4.2029
     4.3284   4.9619   5.1164   5.6855   5.7565   5.8128   6.7106   7.2360
     7.6210   7.9982   8.4084   8.4789   8.5327   8.6058   8.8807   8.9280
     9.0862

          k =-0.5000-0.5279 0.0000 ( 37732 PWs)   bands (ev):

   -39.1456 -36.0810 -23.0816 -23.0323 -22.7822 -22.7761 -20.3188 -20.2618
   -20.1687 -17.5269 -17.5177 -17.1412 -15.5033 -15.3460 -15.1277 -15.0641
   -14.9526 -14.7813 -14.7801 -14.6091 -14.5838 -14.5680 -14.5535 -14.5010
   -14.4468 -14.3929 -14.2519  -9.3017  -9.2652  -9.0109  -9.0050  -8.9973
    -8.9720  -8.7655  -8.6735  -8.6341  -8.5303  -8.2853  -8.2092  -4.8718
    -4.6021  -4.2830  -4.1191  -4.0222  -3.6754  -3.6087  -3.3223  -3.2487
    -3.1195  -3.0835  -3.0539  -2.8007  -2.7919  -2.7614  -2.7031  -2.4653
    -2.2609  -2.2092  -1.8667  -1.8424  -1.7845  -1.7775  -1.7162  -1.6844
    -1.5367  -1.5026  -1.4966  -1.4342  -1.3979  -1.3813  -1.3162  -1.1474
    -1.0851  -0.8439  -0.7697  -0.2866  -0.1553  -0.0314   0.2116   0.3826
     0.5642   0.6623   0.7078   0.7335   0.8023   0.8285   0.8508   0.8933
     0.9508   1.0493   1.0854   1.1197   1.1425   1.1796   1.3200   1.3206
     1.3455   1.4025   1.4289   1.5397   1.5481   1.6029   1.6254   1.6877
     1.7449   1.8262   1.8323   1.8366   1.8802   1.9157   2.0172   2.0297
     2.1748   2.4510   3.4497   3.9669   4.1857   4.2450   4.2986   4.4098
     4.4790   4.7234   4.8812   5.4584   5.5915   5.8373   6.6048   7.4477
     7.9959   8.0750   8.1707   8.3750   8.5216   8.5806   8.6051   8.8942
     8.9015

     the Fermi energy is     2.0532 ev

!    total energy              =   -1842.62061791 Ry
     Harris-Foulkes estimate   =   -1842.62061791 Ry
     estimated scf accuracy    <          3.6E-09 Ry

     The total energy is the sum of the following terms:

     one-electron contribution =  -28043.85865961 Ry
     hartree contribution      =   14169.66868088 Ry
     xc contribution           =    -621.43685081 Ry
     ewald contribution        =   12653.01405349 Ry
     smearing contrib. (-TS)   =      -0.00784185 Ry

     convergence has been achieved in  37 iterations

     negative rho (up, down):  1.440E-03 0.000E+00

     Forces acting on atoms (cartesian axes, Ry/au):

     atom    1 type  4   force =     0.00000000    0.00000000   -0.00015827
     atom    2 type  3   force =     0.00000000    0.00000000    0.00037525
     atom    3 type  4   force =     0.00000000    0.00000000   -0.00074181
     atom    4 type  1   force =     0.00000000    0.00000000   -0.00029373
     atom    5 type  3   force =     0.00000000    0.00000000    0.00060107
     atom    6 type  4   force =     0.00000000    0.00000000   -0.00001167
     atom    7 type  4   force =     0.00000000    0.00000000    0.00033218
     atom    8 type  2   force =     0.00000000    0.00000000   -0.00060611
     atom    9 type  4   force =     0.00000000    0.00000000    0.00026953
     atom   10 type  4   force =     0.00000000    0.00000000    0.00035302
     atom   11 type  3   force =     0.00000000    0.00000000    0.00014624
     atom   12 type  1   force =     0.00000000    0.00000000    0.00016281
     atom   13 type  4   force =     0.00000000    0.00000000    0.00310795
     atom   14 type  4   force =     0.00000000    0.00000000    0.00353972
     atom   15 type  3   force =     0.00000000    0.00000000   -0.00608073
     atom   16 type  4   force =     0.00000000    0.00000000    0.00495702
     atom   17 type  1   force =     0.00000000    0.00000000   -0.01822818
     atom   18 type  3   force =     0.00000000    0.00000000    0.00939704
     atom   19 type  4   force =     0.00000000    0.00000000    0.05270112
     atom   20 type  4   force =     0.00000000    0.00000000    0.06022450
     atom   21 type  2   force =     0.00000000    0.00000000   -0.10688724
     atom   22 type  4   force =     0.00000000    0.00000000    0.01649787
     atom   23 type  4   force =     0.00000000    0.00000000    0.02354813
     atom   24 type  3   force =     0.00000000    0.00000000   -0.02083976
     atom   25 type  1   force =     0.00000000    0.00000000   -0.01875745
     atom   26 type  4   force =     0.00000000    0.00000000   -0.00476550
     atom   27 type  3   force =     0.00000000    0.00000000    0.00284504
     atom   28 type  4   force =     0.00000000    0.00000000   -0.00168802

     Total force =     0.141358     Total SCF correction =     0.000323


     Computing stress (Cartesian axis) and pressure


     negative rho (up, down):  1.440E-03 0.000E+00
          total   stress  (Ry/bohr**3)                   (kbar)     P=       -5.81
  -0.00002526   0.00000000   0.00000000           -3.72        0.00        0.00
   0.00000000  -0.00000541   0.00000000            0.00       -0.80        0.00
   0.00000000   0.00000000  -0.00008773            0.00        0.00      -12.91

 
     init_run     :     10.44s CPU     11.03s WALL (       1 calls)
     electrons    :    696.36s CPU    738.82s WALL (       1 calls)
     forces       :      3.92s CPU      4.29s WALL (       1 calls)
     stress       :     30.22s CPU     31.20s WALL (       1 calls)

     Called by init_run:
     wfcinit      :      6.81s CPU      6.97s WALL (       1 calls)
     potinit      :      0.81s CPU      0.83s WALL (       1 calls)
     hinit0       :      1.19s CPU      1.21s WALL (       1 calls)

     Called by electrons:
     c_bands      :    530.73s CPU    547.73s WALL (      37 calls)
     sum_band     :    108.04s CPU    121.85s WALL (      37 calls)
     v_of_rho     :      4.79s CPU      4.83s WALL (      38 calls)
     newd         :     25.45s CPU     37.11s WALL (      38 calls)
     mix_rho      :     27.93s CPU     28.17s WALL (      37 calls)

     Called by c_bands:
     init_us_2    :      3.98s CPU      4.03s WALL (    1925 calls)
     cegterg      :    499.04s CPU    515.35s WALL (     925 calls)

     Called by sum_band:
     sum_band:bec :      0.26s CPU      0.26s WALL (     925 calls)
     addusdens    :     21.78s CPU     34.61s WALL (      37 calls)

     Called by *egterg:
     h_psi        :    269.19s CPU    279.07s WALL (    3476 calls)
     s_psi        :     22.97s CPU     23.34s WALL (    3476 calls)
     g_psi        :      0.70s CPU      0.71s WALL (    2526 calls)
     cdiaghg      :    104.05s CPU    104.48s WALL (    3451 calls)

     Called by h_psi:
     h_psi:calbec :     29.66s CPU     30.85s WALL (    3476 calls)
     vloc_psi     :    214.20s CPU    217.39s WALL (    3476 calls)
     add_vuspsi   :     24.15s CPU     27.43s WALL (    3476 calls)

     General routines
     calbec       :     55.84s CPU     57.13s WALL (    4526 calls)
     fft          :      4.63s CPU      4.65s WALL (     517 calls)
     ffts         :     14.60s CPU     14.72s WALL (   17509 calls)
     fftw         :    251.99s CPU    255.62s WALL (  652877 calls)
     interpolate  :      0.32s CPU      0.32s WALL (      38 calls)
 
     Parallel routines
     fft_scatt_xy :     26.89s CPU     27.28s WALL (  670903 calls)
     fft_scatt_yz :    177.54s CPU    179.98s WALL (  670903 calls)
 
     PWSCF        :  12m22.05s CPU  13m 6.49s WALL

 
   This run was terminated on:  21:39:12  21May2021            

=------------------------------------------------------------------------------=
   JOB DONE.
=------------------------------------------------------------------------------=
[1621647553.021959] [holy7c08103:186295:0]          mpool.c:43   UCX  WARN  object 0x3c8ba40 was not returned to mpool ucp_requests
[1621647553.026289] [holy7c08606:228909:0]          mpool.c:43   UCX  WARN  object 0x292dd00 was not returned to mpool ucp_requests
[1621647553.025193] [holy7c06607:149940:0]          mpool.c:43   UCX  WARN  object 0x297e000 was not returned to mpool ucp_requests
[1621647553.025210] [holy7c06607:149940:0]          mpool.c:43   UCX  WARN  object 0x297e540 was not returned to mpool ucp_requests
[1621647553.026483] [holy7c06205:55547:0]          mpool.c:43   UCX  WARN  object 0x35fe9c0 was not returned to mpool ucp_requests
[1621647553.052935] [holy7c06111:15931:0]          mpool.c:43   UCX  WARN  object 0x361aac0 was not returned to mpool ucp_requests
[1621647553.052964] [holy7c06111:15931:0]          mpool.c:43   UCX  WARN  object 0x361b380 was not returned to mpool ucp_requests
[1621647553.025457] [holy7c08606:228908:0]          mpool.c:43   UCX  WARN  object 0x4578300 was not returned to mpool ucp_requests
[1621647553.025479] [holy7c08606:228908:0]          mpool.c:43   UCX  WARN  object 0x45784c0 was not returned to mpool ucp_requests
[1621647553.024490] [holy7c08606:228910:0]          mpool.c:43   UCX  WARN  object 0x351d600 was not returned to mpool ucp_requests
