
     Program PWSCF v.6.5 starts on 21May2021 at 21:20:19 

     This program is part of the open-source Quantum ESPRESSO suite
     for quantum simulation of materials; please cite
         "P. Giannozzi et al., J. Phys.:Condens. Matter 21 395502 (2009);
         "P. Giannozzi et al., J. Phys.:Condens. Matter 29 465901 (2017);
          URL http://www.quantum-espresso.org", 
     in publications or presentations arising from this work. More details at
     http://www.quantum-espresso.org/quote

     Parallel version (MPI), running on    20 processors

     MPI processes distributed on     9 nodes
     R & G space division:  proc/nbgrp/npool/nimage =      20
     Reading input from CBCO_CuO_cleave_1.0_sep.pwi
Warning: card &IONS ignored
Warning: card     ION_DYNAMICS = 'BFGS' ignored
Warning: card / ignored
Warning: card &CELL ignored
Warning: card     CELL_DYNAMICS = 'BFGS' ignored
Warning: card     PRESS_CONV_THR = 5 ignored
Warning: card / ignored

     Current dimensions of program PWSCF are:
     Max number of different atomic species (ntypx) = 10
     Max number of k-points (npk) =  40000
     Max angular momentum in pseudopotentials (lmaxx) =  3

     Subspace diagonalization in iterative solution of the eigenvalue problem:
     one sub-group per band group will be used
     scalapack distributed-memory algorithm (size of sub-group:  4*  4 procs)

     Message from routine setup:
     using ibrav=0 with symmetry is DISCOURAGED, use correct ibrav instead
 
     Parallelization info
     --------------------
     sticks:   dense  smooth     PW     G-vecs:    dense   smooth      PW
     Min         149      50     14                71773    13820    2160
     Max         150      51     15                71810    13841    2205
     Sum        2991    1007    289              1435837   276553   43473
 


     bravais-lattice index     =            0
     lattice parameter (alat)  =       7.4270  a.u.
     unit-cell volume          =    4401.0322 (a.u.)^3
     number of atoms/cell      =           28
     number of atomic types    =            4
     number of electrons       =       227.00
     number of Kohn-Sham states=          137
     kinetic-energy cutoff     =      60.0000  Ry
     charge density cutoff     =     720.0000  Ry
     convergence threshold     =      1.0E-08
     mixing beta               =       0.5000
     number of iterations used =           10  local-TF  mixing
     Exchange-correlation= SLA PW PBE PBE
                           (   1   4   3   4   0   0   0)

     celldm(1)=   7.427040  celldm(2)=   0.000000  celldm(3)=   0.000000
     celldm(4)=   0.000000  celldm(5)=   0.000000  celldm(6)=   0.000000

     crystal axes: (cart. coord. in units of alat)
               a(1) = (   1.000000   0.000000   0.000000 )  
               a(2) = (   0.000000   0.947081   0.000000 )  
               a(3) = (   0.000000   0.000000  11.342795 )  

     reciprocal axes: (cart. coord. in units 2 pi/alat)
               b(1) = (  1.000000  0.000000  0.000000 )  
               b(2) = (  0.000000  1.055876  0.000000 )  
               b(3) = (  0.000000  0.000000  0.088162 )  


     PseudoPot. # 1 for Ba read from file:
     ./pseudo/Ba.pbe-nsp-van.UPF
     MD5 check sum: 2b9c31dd849566dd297d80989662b7a0
     Pseudo is Ultrasoft + core correction, Zval = 10.0
     Generated by new atomic code, or converted to UPF format
     Using radial grid of  907 points,  6 beta functions with: 
                l(1) =   0
                l(2) =   0
                l(3) =   1
                l(4) =   1
                l(5) =   2
                l(6) =   2
     Q(r) pseudized with  6 coefficients,  rinner =    1.200   1.200   1.200
                                                       1.200   1.200

     PseudoPot. # 2 for Ca read from file:
     ./pseudo/Ca.pbe-nsp-van.UPF
     MD5 check sum: 6471098428ff4fa451746d08035ff179
     Pseudo is Ultrasoft + core correction, Zval = 10.0
     Generated by new atomic code, or converted to UPF format
     Using radial grid of  845 points,  6 beta functions with: 
                l(1) =   0
                l(2) =   0
                l(3) =   1
                l(4) =   1
                l(5) =   2
                l(6) =   2
     Q(r) pseudized with  6 coefficients,  rinner =    1.200   1.200   1.200
                                                       1.200   1.200

     PseudoPot. # 3 for Cu read from file:
     ./pseudo/Cu.pbe-n-van_ak.UPF
     MD5 check sum: 34e3282627ffb533726feb647e090d62
     Pseudo is Ultrasoft + core correction, Zval = 11.0
     Generated by new atomic code, or converted to UPF format
     Using radial grid of  867 points,  6 beta functions with: 
                l(1) =   0
                l(2) =   0
                l(3) =   1
                l(4) =   1
                l(5) =   2
                l(6) =   2
     Q(r) pseudized with  8 coefficients,  rinner =    1.400   1.400   1.400
                                                       1.400   1.400

     PseudoPot. # 4 for O  read from file:
     ./pseudo/O.pbe-van_ak.UPF
     MD5 check sum: 783ce7fe4c79b6a4916957118fed0856
     Pseudo is Ultrasoft, Zval =  6.0
     Generated by new atomic code, or converted to UPF format
     Using radial grid of  737 points,  4 beta functions with: 
                l(1) =   0
                l(2) =   0
                l(3) =   1
                l(4) =   1
     Q(r) pseudized with  8 coefficients,  rinner =    0.800   0.800   0.800


     atomic species   valence    mass     pseudopotential
        Ba            10.00   137.32700     Ba( 1.00)
        Ca            10.00    40.07800     Ca( 1.00)
        Cu            11.00    63.54600     Cu( 1.00)
        O              6.00    15.99900     O ( 1.00)

      4 Sym. Ops. (no inversion) found



   Cartesian axes

     site n.     atom                  positions (alat units)
         1           O   tau(   1) = (   0.0000000   0.4735409  -0.0469745  )
         2           Cu  tau(   2) = (   0.0000000   0.0000000   0.0264565  )
         3           O   tau(   3) = (   0.0000000   0.0000000   0.5030914  )
         4           Ba  tau(   4) = (   0.5000000   0.4735409   0.5690292  )
         5           Cu  tau(   5) = (   0.0000000   0.0000000   1.0374254  )
         6           O   tau(   6) = (   0.5000000   0.0000000   1.0768099  )
         7           O   tau(   7) = (   0.0000000   0.4735409   1.1116985  )
         8           Ca  tau(   8) = (   0.5000000   0.4735409   1.4976260  )
         9           O   tau(   9) = (   0.0000000   0.4735409   1.8667529  )
        10           O   tau(  10) = (   0.5000000   0.0000000   1.9044124  )
        11           Cu  tau(  11) = (   0.0000000   0.0000000   1.9512546  )
        12           Ba  tau(  12) = (   0.5000000   0.4735409   2.4295764  )
        13           O   tau(  13) = (   0.0000000   0.0000000   2.5115362  )
        14           O   tau(  14) = (   0.0000000   0.4735409   2.9918528  )
        15           Cu  tau(  15) = (   0.0000000   0.0000000   2.9919088  )
        16           O   tau(  16) = (   0.0000000   0.0000000   3.7267073  )
        17           Ba  tau(  17) = (   0.5000000   0.4735409   3.8086594  )
        18           Cu  tau(  18) = (   0.0000000   0.0000000   4.2869634  )
        19           O   tau(  19) = (   0.5000000   0.0000000   4.3338056  )
        20           O   tau(  20) = (   0.0000000   0.4735409   4.3714600  )
        21           Ca  tau(  21) = (   0.5000000   0.4735409   4.7405971  )
        22           O   tau(  22) = (   0.0000000   0.4735409   5.1265220  )
        23           O   tau(  23) = (   0.5000000   0.0000000   5.1614106  )
        24           Cu  tau(  24) = (   0.0000000   0.0000000   5.2007978  )
        25           Ba  tau(  25) = (   0.5000000   0.4735409   5.6691914  )
        26           O   tau(  26) = (   0.0000000   0.0000000   5.7351190  )
        27           Cu  tau(  27) = (   0.0000000   0.0000000   6.2117589  )
        28           O   tau(  28) = (   0.0000000   0.4735409   6.2851772  )

     number of k points=    25  Gaussian smearing, width (Ry)=  0.0100
                       cart. coord. in units 2pi/alat
        k(    1) = (   0.0000000   0.0000000   0.0000000), wk =   0.0312500
        k(    2) = (   0.0000000   0.1319845   0.0000000), wk =   0.0625000
        k(    3) = (   0.0000000   0.2639689   0.0000000), wk =   0.0625000
        k(    4) = (   0.0000000   0.3959534   0.0000000), wk =   0.0625000
        k(    5) = (   0.0000000  -0.5279378   0.0000000), wk =   0.0312500
        k(    6) = (   0.1250000   0.0000000   0.0000000), wk =   0.0625000
        k(    7) = (   0.1250000   0.1319845   0.0000000), wk =   0.1250000
        k(    8) = (   0.1250000   0.2639689   0.0000000), wk =   0.1250000
        k(    9) = (   0.1250000   0.3959534   0.0000000), wk =   0.1250000
        k(   10) = (   0.1250000  -0.5279378   0.0000000), wk =   0.0625000
        k(   11) = (   0.2500000   0.0000000   0.0000000), wk =   0.0625000
        k(   12) = (   0.2500000   0.1319845   0.0000000), wk =   0.1250000
        k(   13) = (   0.2500000   0.2639689   0.0000000), wk =   0.1250000
        k(   14) = (   0.2500000   0.3959534   0.0000000), wk =   0.1250000
        k(   15) = (   0.2500000  -0.5279378   0.0000000), wk =   0.0625000
        k(   16) = (   0.3750000   0.0000000   0.0000000), wk =   0.0625000
        k(   17) = (   0.3750000   0.1319845   0.0000000), wk =   0.1250000
        k(   18) = (   0.3750000   0.2639689   0.0000000), wk =   0.1250000
        k(   19) = (   0.3750000   0.3959534   0.0000000), wk =   0.1250000
        k(   20) = (   0.3750000  -0.5279378   0.0000000), wk =   0.0625000
        k(   21) = (  -0.5000000   0.0000000   0.0000000), wk =   0.0312500
        k(   22) = (  -0.5000000   0.1319845   0.0000000), wk =   0.0625000
        k(   23) = (  -0.5000000   0.2639689   0.0000000), wk =   0.0625000
        k(   24) = (  -0.5000000   0.3959534   0.0000000), wk =   0.0625000
        k(   25) = (  -0.5000000  -0.5279378   0.0000000), wk =   0.0312500

     Dense  grid:  1435837 G-vectors     FFT dimensions: (  64,  64, 720)

     Smooth grid:   276553 G-vectors     FFT dimensions: (  40,  36, 432)

     Estimated max dynamical RAM per process >     458.17 MB

     Estimated total dynamical RAM >       8.95 GB

     Initial potential from superposition of free atoms

     starting charge  226.84630, renormalised to  227.00000

     negative rho (up, down):  3.456E-03 0.000E+00
     Starting wfcs are  195 randomized atomic wfcs

     total cpu time spent up to now is       11.4 secs

     Self-consistent Calculation

     iteration #  1     ecut=    60.00 Ry     beta= 0.50
     Davidson diagonalization with overlap
     ethr =  1.00E-02,  avg # of iterations =  2.0

     negative rho (up, down):  4.992E-04 0.000E+00

     total cpu time spent up to now is       29.7 secs

     total energy              =   -1840.81496301 Ry
     Harris-Foulkes estimate   =   -1845.32197917 Ry
     estimated scf accuracy    <      18.67838136 Ry

     iteration #  2     ecut=    60.00 Ry     beta= 0.50
     Davidson diagonalization with overlap
     ethr =  8.23E-03,  avg # of iterations =  2.0

     negative rho (up, down):  2.705E-04 0.000E+00

     total cpu time spent up to now is       46.6 secs

     total energy              =   -1842.43938237 Ry
     Harris-Foulkes estimate   =   -1843.27297977 Ry
     estimated scf accuracy    <       4.31263755 Ry

     iteration #  3     ecut=    60.00 Ry     beta= 0.50
     Davidson diagonalization with overlap
     ethr =  1.90E-03,  avg # of iterations =  2.0

     negative rho (up, down):  2.555E-04 0.000E+00

     total cpu time spent up to now is       63.4 secs

     total energy              =   -1842.77946687 Ry
     Harris-Foulkes estimate   =   -1843.00664605 Ry
     estimated scf accuracy    <       5.20426534 Ry

     iteration #  4     ecut=    60.00 Ry     beta= 0.50
     Davidson diagonalization with overlap
     ethr =  1.90E-03,  avg # of iterations =  1.0

     negative rho (up, down):  2.506E-04 0.000E+00

     total cpu time spent up to now is       79.7 secs

     total energy              =   -1842.85964647 Ry
     Harris-Foulkes estimate   =   -1842.91227404 Ry
     estimated scf accuracy    <       1.99138371 Ry

     iteration #  5     ecut=    60.00 Ry     beta= 0.50
     Davidson diagonalization with overlap
     ethr =  8.77E-04,  avg # of iterations =  1.0

     negative rho (up, down):  2.419E-04 0.000E+00

     total cpu time spent up to now is       95.0 secs

     total energy              =   -1842.83617486 Ry
     Harris-Foulkes estimate   =   -1842.88665113 Ry
     estimated scf accuracy    <       0.38360827 Ry

     iteration #  6     ecut=    60.00 Ry     beta= 0.50
     Davidson diagonalization with overlap
     ethr =  1.69E-04,  avg # of iterations =  5.5

     negative rho (up, down):  2.368E-04 0.000E+00

     total cpu time spent up to now is      116.8 secs

     total energy              =   -1842.84226449 Ry
     Harris-Foulkes estimate   =   -1842.86334685 Ry
     estimated scf accuracy    <       1.98064975 Ry

     iteration #  7     ecut=    60.00 Ry     beta= 0.50
     Davidson diagonalization with overlap
     ethr =  1.69E-04,  avg # of iterations =  2.2

     negative rho (up, down):  2.337E-04 0.000E+00

     total cpu time spent up to now is      133.2 secs

     total energy              =   -1842.83325352 Ry
     Harris-Foulkes estimate   =   -1842.84875770 Ry
     estimated scf accuracy    <       1.02474059 Ry

     iteration #  8     ecut=    60.00 Ry     beta= 0.50
     Davidson diagonalization with overlap
     ethr =  1.69E-04,  avg # of iterations =  1.2

     negative rho (up, down):  2.328E-04 0.000E+00

     total cpu time spent up to now is      149.7 secs

     total energy              =   -1842.83245071 Ry
     Harris-Foulkes estimate   =   -1842.83967533 Ry
     estimated scf accuracy    <       0.53577264 Ry

     iteration #  9     ecut=    60.00 Ry     beta= 0.50
     Davidson diagonalization with overlap
     ethr =  1.69E-04,  avg # of iterations =  1.0

     negative rho (up, down):  2.328E-04 0.000E+00

     total cpu time spent up to now is      165.9 secs

     total energy              =   -1842.83014648 Ry
     Harris-Foulkes estimate   =   -1842.83498279 Ry
     estimated scf accuracy    <       0.23050100 Ry

     iteration # 10     ecut=    60.00 Ry     beta= 0.50
     Davidson diagonalization with overlap
     ethr =  1.02E-04,  avg # of iterations =  3.3

     negative rho (up, down):  2.332E-04 0.000E+00

     total cpu time spent up to now is      184.1 secs

     total energy              =   -1842.82976242 Ry
     Harris-Foulkes estimate   =   -1842.83153318 Ry
     estimated scf accuracy    <       0.16673187 Ry

     iteration # 11     ecut=    60.00 Ry     beta= 0.50
     Davidson diagonalization with overlap
     ethr =  7.35E-05,  avg # of iterations =  1.9

     negative rho (up, down):  2.355E-04 0.000E+00

     total cpu time spent up to now is      201.3 secs

     total energy              =   -1842.82571704 Ry
     Harris-Foulkes estimate   =   -1842.83023628 Ry
     estimated scf accuracy    <       0.13599458 Ry

     iteration # 12     ecut=    60.00 Ry     beta= 0.50
     Davidson diagonalization with overlap
     ethr =  5.99E-05,  avg # of iterations =  5.4

     negative rho (up, down):  2.359E-04 0.000E+00

     total cpu time spent up to now is      222.5 secs

     total energy              =   -1842.82543928 Ry
     Harris-Foulkes estimate   =   -1842.82655694 Ry
     estimated scf accuracy    <       0.06820947 Ry

     iteration # 13     ecut=    60.00 Ry     beta= 0.50
     Davidson diagonalization with overlap
     ethr =  3.00E-05,  avg # of iterations =  2.9

     negative rho (up, down):  5.589E-04 0.000E+00

     total cpu time spent up to now is      240.9 secs

     total energy              =   -1842.82421557 Ry
     Harris-Foulkes estimate   =   -1842.82578274 Ry
     estimated scf accuracy    <       0.04804390 Ry

     iteration # 14     ecut=    60.00 Ry     beta= 0.50
     Davidson diagonalization with overlap
     ethr =  2.12E-05,  avg # of iterations =  3.8

     negative rho (up, down):  8.143E-03 0.000E+00

     total cpu time spent up to now is      260.4 secs

     total energy              =   -1842.82292069 Ry
     Harris-Foulkes estimate   =   -1842.82445980 Ry
     estimated scf accuracy    <       0.02948697 Ry

     iteration # 15     ecut=    60.00 Ry     beta= 0.50
     Davidson diagonalization with overlap
     ethr =  1.30E-05,  avg # of iterations =  7.5

     negative rho (up, down):  1.881E-02 0.000E+00

     total cpu time spent up to now is      283.5 secs

     total energy              =   -1842.82199778 Ry
     Harris-Foulkes estimate   =   -1842.82309724 Ry
     estimated scf accuracy    <       0.01685167 Ry

     iteration # 16     ecut=    60.00 Ry     beta= 0.50
     Davidson diagonalization with overlap
     ethr =  7.42E-06,  avg # of iterations =  7.7

     negative rho (up, down):  2.606E-02 0.000E+00

     total cpu time spent up to now is      308.3 secs

     total energy              =   -1842.82130962 Ry
     Harris-Foulkes estimate   =   -1842.82214328 Ry
     estimated scf accuracy    <       0.00681157 Ry

     iteration # 17     ecut=    60.00 Ry     beta= 0.50
     Davidson diagonalization with overlap
     ethr =  3.00E-06,  avg # of iterations =  9.1

     negative rho (up, down):  1.955E-02 0.000E+00

     total cpu time spent up to now is      335.5 secs

     total energy              =   -1842.82074438 Ry
     Harris-Foulkes estimate   =   -1842.82143841 Ry
     estimated scf accuracy    <       0.00411598 Ry

     iteration # 18     ecut=    60.00 Ry     beta= 0.50
     Davidson diagonalization with overlap
     ethr =  1.81E-06,  avg # of iterations =  5.2

     negative rho (up, down):  1.021E-02 0.000E+00

     total cpu time spent up to now is      356.2 secs

     total energy              =   -1842.82024676 Ry
     Harris-Foulkes estimate   =   -1842.82082916 Ry
     estimated scf accuracy    <       0.00252034 Ry

     iteration # 19     ecut=    60.00 Ry     beta= 0.50
     Davidson diagonalization with overlap
     c_bands:  1 eigenvalues not converged
     ethr =  1.11E-06,  avg # of iterations =  7.6

     negative rho (up, down):  1.506E-02 0.000E+00

     total cpu time spent up to now is      380.4 secs

     total energy              =   -1842.81976890 Ry
     Harris-Foulkes estimate   =   -1842.82030897 Ry
     estimated scf accuracy    <       0.00221063 Ry

     iteration # 20     ecut=    60.00 Ry     beta= 0.50
     Davidson diagonalization with overlap
     ethr =  9.74E-07,  avg # of iterations =  8.4

     negative rho (up, down):  1.072E-02 0.000E+00

     total cpu time spent up to now is      406.4 secs

     total energy              =   -1842.81972225 Ry
     Harris-Foulkes estimate   =   -1842.81982065 Ry
     estimated scf accuracy    <       0.00041211 Ry

     iteration # 21     ecut=    60.00 Ry     beta= 0.50
     Davidson diagonalization with overlap
     ethr =  1.82E-07,  avg # of iterations =  3.5

     negative rho (up, down):  4.346E-03 0.000E+00

     total cpu time spent up to now is      425.7 secs

     total energy              =   -1842.81965290 Ry
     Harris-Foulkes estimate   =   -1842.81973444 Ry
     estimated scf accuracy    <       0.00021378 Ry

     iteration # 22     ecut=    60.00 Ry     beta= 0.50
     Davidson diagonalization with overlap
     c_bands:  1 eigenvalues not converged
     ethr =  9.42E-08,  avg # of iterations =  8.5

     negative rho (up, down):  3.705E-03 0.000E+00

     total cpu time spent up to now is      451.5 secs

     total energy              =   -1842.81966400 Ry
     Harris-Foulkes estimate   =   -1842.81965871 Ry
     estimated scf accuracy    <       0.00007307 Ry

     iteration # 23     ecut=    60.00 Ry     beta= 0.50
     Davidson diagonalization with overlap
     c_bands:  1 eigenvalues not converged
     ethr =  3.22E-08,  avg # of iterations =  2.7

     negative rho (up, down):  2.263E-03 0.000E+00

     total cpu time spent up to now is      468.8 secs

     total energy              =   -1842.81966909 Ry
     Harris-Foulkes estimate   =   -1842.81966777 Ry
     estimated scf accuracy    <       0.00008554 Ry

     iteration # 24     ecut=    60.00 Ry     beta= 0.50
     Davidson diagonalization with overlap
     c_bands:  1 eigenvalues not converged
     c_bands:  1 eigenvalues not converged
     ethr =  3.22E-08,  avg # of iterations =  7.2

     negative rho (up, down):  1.480E-03 0.000E+00

     total cpu time spent up to now is      492.3 secs

     total energy              =   -1842.81968301 Ry
     Harris-Foulkes estimate   =   -1842.81967126 Ry
     estimated scf accuracy    <       0.00003786 Ry

     iteration # 25     ecut=    60.00 Ry     beta= 0.50
     Davidson diagonalization with overlap
     ethr =  1.67E-08,  avg # of iterations =  4.3

     negative rho (up, down):  1.413E-03 0.000E+00

     total cpu time spent up to now is      513.3 secs

     total energy              =   -1842.81968390 Ry
     Harris-Foulkes estimate   =   -1842.81968394 Ry
     estimated scf accuracy    <       0.00000590 Ry

     iteration # 26     ecut=    60.00 Ry     beta= 0.50
     Davidson diagonalization with overlap
     ethr =  2.60E-09,  avg # of iterations =  2.7

     negative rho (up, down):  1.437E-03 0.000E+00

     total cpu time spent up to now is      532.0 secs

     total energy              =   -1842.81968419 Ry
     Harris-Foulkes estimate   =   -1842.81968420 Ry
     estimated scf accuracy    <       0.00000304 Ry

     iteration # 27     ecut=    60.00 Ry     beta= 0.50
     Davidson diagonalization with overlap
     ethr =  1.34E-09,  avg # of iterations =  1.8

     negative rho (up, down):  1.498E-03 0.000E+00

     total cpu time spent up to now is      549.4 secs

     total energy              =   -1842.81968414 Ry
     Harris-Foulkes estimate   =   -1842.81968428 Ry
     estimated scf accuracy    <       0.00000182 Ry

     iteration # 28     ecut=    60.00 Ry     beta= 0.50
     Davidson diagonalization with overlap
     ethr =  8.04E-10,  avg # of iterations =  1.6

     negative rho (up, down):  1.520E-03 0.000E+00

     total cpu time spent up to now is      566.2 secs

     total energy              =   -1842.81968413 Ry
     Harris-Foulkes estimate   =   -1842.81968420 Ry
     estimated scf accuracy    <       0.00000102 Ry

     iteration # 29     ecut=    60.00 Ry     beta= 0.50
     Davidson diagonalization with overlap
     ethr =  4.51E-10,  avg # of iterations =  1.3

     negative rho (up, down):  1.523E-03 0.000E+00

     total cpu time spent up to now is      582.0 secs

     total energy              =   -1842.81968414 Ry
     Harris-Foulkes estimate   =   -1842.81968416 Ry
     estimated scf accuracy    <       0.00000023 Ry

     iteration # 30     ecut=    60.00 Ry     beta= 0.50
     Davidson diagonalization with overlap
     ethr =  9.91E-11,  avg # of iterations =  3.0

     negative rho (up, down):  1.527E-03 0.000E+00

     total cpu time spent up to now is      602.2 secs

     total energy              =   -1842.81968415 Ry
     Harris-Foulkes estimate   =   -1842.81968416 Ry
     estimated scf accuracy    <       0.00000010 Ry

     iteration # 31     ecut=    60.00 Ry     beta= 0.50
     Davidson diagonalization with overlap
     ethr =  4.48E-11,  avg # of iterations =  1.6

     negative rho (up, down):  1.530E-03 0.000E+00

     total cpu time spent up to now is      618.6 secs

     total energy              =   -1842.81968415 Ry
     Harris-Foulkes estimate   =   -1842.81968416 Ry
     estimated scf accuracy    <       0.00000005 Ry

     iteration # 32     ecut=    60.00 Ry     beta= 0.50
     Davidson diagonalization with overlap
     ethr =  2.13E-11,  avg # of iterations =  1.2

     negative rho (up, down):  1.530E-03 0.000E+00

     total cpu time spent up to now is      635.9 secs

     total energy              =   -1842.81968415 Ry
     Harris-Foulkes estimate   =   -1842.81968415 Ry
     estimated scf accuracy    <       0.00000002 Ry

     iteration # 33     ecut=    60.00 Ry     beta= 0.50
     Davidson diagonalization with overlap
     ethr =  1.09E-11,  avg # of iterations =  2.1

     negative rho (up, down):  1.529E-03 0.000E+00

     total cpu time spent up to now is      652.7 secs

     total energy              =   -1842.81968415 Ry
     Harris-Foulkes estimate   =   -1842.81968415 Ry
     estimated scf accuracy    <       0.00000001 Ry

     iteration # 34     ecut=    60.00 Ry     beta= 0.50
     Davidson diagonalization with overlap
     ethr =  5.55E-12,  avg # of iterations =  1.6

     negative rho (up, down):  1.543E-03 0.000E+00

     total cpu time spent up to now is      668.3 secs

     End of self-consistent calculation

          k = 0.0000 0.0000 0.0000 ( 34661 PWs)   bands (ev):

   -35.6951 -35.6721 -22.8622 -22.8593 -22.6807 -22.5703 -17.1969 -17.1771
   -16.7469 -16.7358 -16.7250 -16.7115 -15.3975 -15.3843 -14.7470 -14.7411
   -14.7146 -14.6719 -14.6571 -14.2502 -14.2476 -14.0693 -14.0579 -13.9432
   -13.9165 -13.9103 -12.8769  -7.9943  -7.9909  -7.9557  -7.9531  -7.8283
    -7.7881  -7.7629  -7.7601  -7.7396  -7.5680  -7.5568  -7.3645  -2.3973
    -2.3963  -2.0202  -1.9134  -1.9091  -1.8912  -1.8843  -1.7614  -1.7453
    -1.6476  -1.6256  -1.5924  -1.5803  -1.2882  -1.2847  -0.9400  -0.5267
    -0.5247  -0.4873  -0.4462  -0.4436  -0.4098  -0.3783  -0.3692  -0.3635
    -0.3493  -0.3403  -0.3331  -0.3311  -0.3138  -0.3026  -0.2564  -0.1865
    -0.1067  -0.1045   0.0119   0.0238   0.0260   0.0282   0.0314   0.0341
     0.0655   0.0664   0.0979   0.1028   0.1529   0.1813   0.2232   0.2558
     0.4942   0.7198   0.7595   0.8130   0.8155   0.8606   0.9001   1.0966
     1.1020   1.2616   1.2782   1.2932   1.3068   1.4012   1.4200   1.4360
     1.4507   1.4594   1.4695   1.7297   1.7492   1.8214   1.9624   1.9711
     2.0402   2.1525   2.2165   2.2782   2.3321   2.4644   2.4773   5.1286
     5.1505   5.2951   6.0943   6.2194   6.6815   6.6916   6.8906   7.0243
     7.8980   8.0006   8.1507   8.1987   8.4610   8.5373   8.6116   8.8867
     9.0918

          k = 0.0000 0.1320 0.0000 ( 34589 PWs)   bands (ev):

   -35.6933 -35.6703 -22.8355 -22.8327 -22.6550 -22.5465 -17.1609 -17.1410
   -16.8081 -16.7839 -16.7446 -16.7227 -15.3085 -15.2958 -14.7525 -14.7469
   -14.6723 -14.6451 -14.6275 -14.2601 -14.2570 -14.0723 -14.0605 -14.0023
   -13.9533 -13.9419 -12.9347  -7.9938  -7.9904  -7.9079  -7.9053  -7.8273
    -7.8044  -7.8024  -7.7863  -7.6939  -7.6176  -7.5162  -7.3986  -2.4578
    -2.4558  -2.2836  -2.2641  -2.1888  -2.1699  -2.0041  -1.7396  -1.7249
    -1.7129  -1.7093  -1.6307  -1.6092  -1.5292  -1.4205  -1.4149  -0.7967
    -0.7091  -0.6876  -0.6245  -0.6223  -0.5338  -0.5309  -0.4742  -0.4692
    -0.3968  -0.3698  -0.2908  -0.2570  -0.2534  -0.2490  -0.2194  -0.2157
    -0.2130  -0.0852  -0.0829  -0.0759  -0.0699   0.0166   0.0270   0.0515
     0.0542   0.0557   0.0733   0.1373   0.1994   0.2173   0.2665   0.2887
     0.7141   0.8661   0.9271   0.9922   1.0098   1.0124   1.0643   1.0695
     1.0780   1.0879   1.1092   1.3483   1.3690   1.3900   1.3981   1.4954
     1.5184   1.5233   1.6189   1.7000   1.7338   1.7920   1.8984   1.9301
     1.9757   2.0926   2.1095   2.4717   2.5585   2.7542   2.7569   5.5170
     5.5260   5.6051   6.4018   6.4776   6.9895   6.9970   7.1975   7.3418
     8.0728   8.2022   8.3620   8.4032   8.6517   8.7399   8.8593   9.0531
     9.1520

          k = 0.0000 0.2640 0.0000 ( 34465 PWs)   bands (ev):

   -35.6889 -35.6659 -22.7696 -22.7668 -22.5916 -22.4880 -17.0693 -17.0493
   -16.9619 -16.9380 -16.7389 -16.7170 -15.1051 -15.0943 -14.8060 -14.7971
   -14.6126 -14.5574 -14.5493 -14.2488 -14.2436 -14.1264 -14.1037 -14.0989
   -14.0399 -13.9897 -13.0671  -7.9932  -7.9900  -7.8956  -7.8927  -7.8245
    -7.7875  -7.7849  -7.7833  -7.7243  -7.5792  -7.4712  -7.4149  -2.9130
    -2.9056  -2.7611  -2.7330  -2.5212  -2.4969  -2.4948  -2.3489  -2.3466
    -2.0092  -1.6819  -1.6709  -1.5993  -1.5755  -1.5686  -1.5559  -1.3284
    -1.0965  -1.0061  -0.8771  -0.8744  -0.7461  -0.7338  -0.6765  -0.6509
    -0.6386  -0.6219  -0.5948  -0.5659  -0.5630  -0.5381  -0.5057  -0.4329
    -0.3322  -0.0568  -0.0544  -0.0184   0.0106   0.0231   0.0605   0.0790
     0.1296   0.1653   0.2817   0.3059   0.5229   0.5289   0.6222   0.6372
     0.8728   0.8916   0.9046   1.0534   1.0630   1.0954   1.0974   1.1431
     1.1550   1.2237   1.2241   1.2520   1.3299   1.4202   1.4830   1.5892
     1.6933   1.7301   1.7622   1.8001   1.8554   1.8690   1.8885   1.9049
     1.9079   2.0017   2.0983   2.5916   2.9438   2.9801   3.0908   6.3609
     6.4183   6.4208   7.1899   7.2155   7.8148   7.8198   8.0262   8.2105
     8.5757   8.6887   8.7457   8.8023   8.9451   9.0820   9.1690   9.2080
     9.2271

          k = 0.0000 0.3960 0.0000 ( 34424 PWs)   bands (ev):

   -35.6845 -35.6615 -22.7015 -22.6986 -22.5262 -22.4278 -17.0985 -17.0744
   -16.9675 -16.9478 -16.7333 -16.7114 -15.0060 -15.0036 -14.7913 -14.7654
   -14.6293 -14.4929 -14.4246 -14.2042 -14.1945 -14.1863 -14.1824 -14.1583
   -14.1170 -14.0460 -13.1872  -7.9931  -7.9900  -7.9737  -7.9708  -7.8365
    -7.8038  -7.7779  -7.6591  -7.6564  -7.5323  -7.4573  -7.3084  -3.3718
    -3.3630  -3.2979  -3.1722  -3.1646  -3.0644  -3.0612  -2.4394  -2.4383
    -2.0372  -1.9122  -1.8888  -1.7046  -1.6132  -1.6058  -1.4788  -1.4634
    -1.3334  -1.2208  -1.1473  -1.1442  -0.9856  -0.9593  -0.9473  -0.9055
    -0.8902  -0.8492  -0.8248  -0.8099  -0.7955  -0.7364  -0.5491  -0.4524
    -0.3149  -0.1143  -0.0398  -0.0372   0.0202   0.0544   0.0622   0.0933
     0.0938   0.1224   0.4025   0.4320   0.6854   0.7000   0.8486   0.8520
     0.8748   0.8927   0.9627   0.9848   1.0107   1.0654   1.0671   1.0690
     1.1655   1.2840   1.4451   1.5264   1.5391   1.6101   1.6253   1.6397
     1.6414   1.6886   1.8159   1.8839   1.8896   1.9147   2.0881   2.1507
     2.2943   2.2994   2.3022   2.5123   2.8442   2.8786   3.2640   7.2029
     7.3648   7.3677   8.1339   8.1637   8.5860   8.6094   8.6317   8.8248
     8.9788   8.9952   8.9985   9.0257   9.2353   9.3624   9.3915   9.4302
     9.6194

          k = 0.0000-0.5279 0.0000 ( 34482 PWs)   bands (ev):

   -35.6827 -35.6596 -22.6726 -22.6697 -22.4985 -22.4023 -17.1505 -17.1264
   -16.9228 -16.9030 -16.7309 -16.7090 -15.0473 -15.0439 -14.6928 -14.6635
   -14.6586 -14.4741 -14.3647 -14.2427 -14.2292 -14.1891 -14.1494 -14.1408
   -14.1392 -14.1084 -13.2330  -8.0034  -8.0005  -7.9927  -7.9896  -7.8631
    -7.8112  -7.7757  -7.6032  -7.6005  -7.5551  -7.4044  -7.2626  -3.5756
    -3.5407  -3.5361  -3.3443  -3.3404  -3.2932  -3.2900  -2.4555  -2.4545
    -2.0471  -2.0366  -2.0165  -1.8389  -1.5788  -1.5730  -1.4305  -1.3967
    -1.3857  -1.3116  -1.2733  -1.2689  -1.1102  -1.0806  -1.0665  -0.9996
    -0.9963  -0.9213  -0.9053  -0.9026  -0.8718  -0.8235  -0.5417  -0.4178
    -0.2782  -0.1674  -0.0342  -0.0315  -0.0132   0.0518   0.0829   0.0968
     0.0984   0.1407   0.3256   0.3438   0.7269   0.7352   0.7691   0.7818
     0.9262   0.9433   0.9637   1.0208   1.0501   1.0521   1.1364   1.1764
     1.2149   1.2303   1.3958   1.5381   1.6214   1.6422   1.6431   1.7554
     1.9180   1.9199   1.9205   1.9225   1.9325   1.9712   1.9785   2.2803
     2.3901   2.4609   2.4638   2.4719   2.6645   2.7054   3.2766   7.6824
     7.7764   7.7807   8.4156   8.6339   8.8348   8.8671   8.8948   8.9142
     8.9147   8.9445   9.2414   9.2521   9.2626   9.3604   9.7448   9.9003
    10.0337

          k = 0.1250 0.0000 0.0000 ( 34573 PWs)   bands (ev):

   -35.6941 -35.6710 -22.8442 -22.8413 -22.6632 -22.5549 -17.1636 -17.1437
   -16.8268 -16.8058 -16.7344 -16.7101 -15.2946 -15.2810 -14.7921 -14.7871
   -14.7387 -14.6773 -14.6619 -14.2592 -14.2565 -14.0795 -14.0692 -13.9614
   -13.9460 -13.9308 -12.9446  -8.0198  -8.0165  -7.8943  -7.8913  -7.8674
    -7.7917  -7.7305  -7.7277  -7.6731  -7.5371  -7.5086  -7.3375  -2.4405
    -2.4392  -2.1002  -1.9472  -1.9448  -1.9098  -1.8954  -1.8913  -1.8798
    -1.8582  -1.8518  -1.5584  -1.5433  -1.2862  -1.2826  -0.9661  -0.7203
    -0.7159  -0.5845  -0.5815  -0.5190  -0.5134  -0.5072  -0.4662  -0.4083
    -0.4064  -0.3713  -0.3687  -0.3553  -0.3333  -0.2923  -0.2608  -0.2431
    -0.1431  -0.1321   0.0111   0.0241   0.0268   0.0452   0.0579   0.0999
     0.1224   0.1253   0.1365   0.1484   0.2272   0.2471   0.3035   0.3526
     0.4996   0.7191   0.7232   0.7319   0.8223   0.8953   0.9443   1.0846
     1.1033   1.1354   1.1438   1.2760   1.2949   1.4031   1.4111   1.4167
     1.4720   1.5208   1.7408   1.8064   1.8806   1.9111   1.9230   1.9752
     1.9847   2.1165   2.2014   2.2380   2.3388   2.5005   2.5094   5.3214
     5.3302   5.4634   6.3236   6.4072   6.8982   6.9065   7.0993   7.2581
     8.0424   8.1308   8.3004   8.3687   8.6978   8.7209   8.8432   8.9959
     9.3005

          k = 0.1250 0.1320 0.0000 ( 34564 PWs)   bands (ev):

   -35.6922 -35.6692 -22.8183 -22.8154 -22.6383 -22.5318 -17.1286 -17.1086
   -16.8298 -16.8082 -16.7974 -16.7738 -15.2126 -15.1996 -14.7877 -14.7819
   -14.6962 -14.6452 -14.6305 -14.2604 -14.2574 -14.0806 -14.0722 -14.0158
   -13.9708 -13.9649 -12.9851  -8.0387  -8.0357  -7.9568  -7.9536  -7.8666
    -7.7920  -7.7584  -7.6924  -7.6897  -7.5967  -7.5003  -7.2952  -2.4951
    -2.4924  -2.2882  -2.2561  -2.1744  -2.1479  -2.0406  -1.9257  -1.9233
    -1.8812  -1.8600  -1.7070  -1.7033  -1.5402  -1.4129  -1.4076  -0.9141
    -0.8816  -0.7848  -0.7480  -0.7388  -0.6676  -0.6661  -0.5724  -0.5700
    -0.4840  -0.3902  -0.3451  -0.3397  -0.2848  -0.2716  -0.2564  -0.2099
    -0.1568  -0.1350  -0.1064  -0.0675  -0.0658   0.0413   0.0737   0.0872
     0.1002   0.1100   0.1543   0.1755   0.2182   0.2360   0.4183   0.4480
     0.7498   0.9418   0.9614   0.9734   1.0130   1.0543   1.0660   1.1349
     1.1520   1.1730   1.1886   1.2134   1.2241   1.2405   1.2661   1.5209
     1.5251   1.5422   1.5906   1.5934   1.6761   1.7624   1.9767   2.2591
     2.2757   2.3079   2.3826   2.5247   2.5698   2.7592   2.7628   5.6643
     5.6684   5.7327   6.5828   6.6348   7.1977   7.2036   7.3969   7.5683
     8.2149   8.3184   8.4898   8.5494   8.8029   8.9098   9.0224   9.1262
     9.2047

          k = 0.1250 0.2640 0.0000 ( 34463 PWs)   bands (ev):

   -35.6878 -35.6648 -22.7545 -22.7516 -22.5768 -22.4747 -17.0400 -17.0198
   -16.9587 -16.9349 -16.8096 -16.7883 -15.0318 -15.0219 -14.7971 -14.7854
   -14.6191 -14.5542 -14.5467 -14.2438 -14.2398 -14.1372 -14.1206 -14.1065
   -14.0377 -13.9968 -13.0796  -8.1074  -8.1046  -7.9940  -7.9907  -7.9144
    -7.8267  -7.7827  -7.6966  -7.6833  -7.6805  -7.4973  -7.2927  -2.9377
    -2.9292  -2.7658  -2.7369  -2.5130  -2.4975  -2.4954  -2.3484  -2.3459
    -2.0538  -1.8764  -1.8711  -1.8301  -1.8100  -1.5946  -1.5719  -1.3388
    -1.1112  -1.0661  -1.0547  -1.0237  -0.9784  -0.9680  -0.7656  -0.7616
    -0.7151  -0.6588  -0.6390  -0.5868  -0.5739  -0.5077  -0.4886  -0.4397
    -0.3734  -0.2271  -0.1835  -0.0804  -0.0433   0.1104   0.1287   0.1621
     0.2723   0.3554   0.3992   0.4171   0.6608   0.6778   0.7070   0.7167
     0.9385   0.9540   0.9805   1.0230   1.0321   1.1362   1.2085   1.2133
     1.2462   1.2514   1.3220   1.3274   1.3684   1.4338   1.4659   1.4831
     1.5553   1.5585   1.5850   1.8350   1.8706   1.8718   1.9688   2.2983
     2.4535   2.4739   2.5675   2.7255   2.9453   2.9917   3.0955   6.3988
     6.4793   6.4817   7.2717   7.2927   7.9817   7.9846   8.1851   8.4094
     8.6927   8.7462   8.7864   8.8477   8.9869   9.0538   9.0654   9.1181
     9.1967

          k = 0.1250 0.3960 0.0000 ( 34482 PWs)   bands (ev):

   -35.6834 -35.6604 -22.6885 -22.6857 -22.5134 -22.4161 -17.0933 -17.0693
   -16.9412 -16.9212 -16.8010 -16.7797 -14.9702 -14.9680 -14.7228 -14.6898
   -14.5972 -14.4776 -14.4157 -14.2322 -14.2281 -14.1865 -14.1756 -14.1513
   -14.1011 -14.0380 -13.1669  -8.1378  -8.1350  -8.0055  -8.0023  -7.9731
    -7.8235  -7.7845  -7.7284  -7.7256  -7.7079  -7.5359  -7.3591  -3.4139
    -3.4052  -3.2941  -3.1966  -3.1859  -3.0557  -3.0525  -2.4478  -2.4466
    -2.0707  -1.8665  -1.8618  -1.7713  -1.7393  -1.7365  -1.7044  -1.5697
    -1.4074  -1.4023  -1.2877  -1.2682  -1.2633  -1.1905  -0.9954  -0.9608
    -0.9399  -0.9345  -0.8867  -0.8275  -0.8255  -0.6739  -0.5427  -0.4633
    -0.3976  -0.2641  -0.2077  -0.0528  -0.0025   0.1331   0.1361   0.1867
     0.2979   0.3776   0.5781   0.6092   0.8246   0.8328   0.8734   0.8942
     0.9702   0.9755   0.9828   1.0705   1.0864   1.1583   1.1607   1.1884
     1.3094   1.3145   1.5596   1.5628   1.5897   1.6356   1.6485   1.6870
     1.7340   1.7851   1.7914   1.9982   2.2575   2.2665   2.2693   2.3071
     2.4021   2.4215   2.5439   2.6515   2.8793   2.9382   3.2610   7.0830
     7.2291   7.2328   7.9976   8.0337   8.5241   8.5908   8.5948   8.7507
     8.8345   8.8790   9.2797   9.2918   9.3895   9.4841   9.5178   9.6176
     9.7197

          k = 0.1250-0.5279 0.0000 ( 34444 PWs)   bands (ev):

   -35.6816 -35.6586 -22.6606 -22.6577 -22.4866 -22.3913 -17.1449 -17.1208
   -16.8981 -16.8781 -16.7972 -16.7759 -15.0023 -14.9992 -14.6499 -14.5893
   -14.5842 -14.4479 -14.3492 -14.2743 -14.2645 -14.1654 -14.1490 -14.1423
   -14.1387 -14.0933 -13.2005  -8.1325  -8.1296  -8.0103  -8.0071  -7.9855
    -7.8231  -7.7850  -7.7626  -7.7598  -7.6837  -7.5598  -7.4127  -3.6039
    -3.5903  -3.5524  -3.3773  -3.3716  -3.2850  -3.2818  -2.4688  -2.4677
    -2.0747  -1.8996  -1.8922  -1.8022  -1.6863  -1.6739  -1.5979  -1.5940
    -1.5925  -1.5402  -1.4483  -1.4372  -1.3425  -1.2733  -1.0935  -1.0626
    -1.0181  -1.0157  -0.9783  -0.9202  -0.9183  -0.7417  -0.5394  -0.4384
    -0.3928  -0.2777  -0.2201  -0.0379   0.0183   0.1441   0.1472   0.1989
     0.3015   0.3714   0.5489   0.5661   0.8550   0.8588   0.8833   0.8894
     0.9255   0.9468   0.9773   1.0874   1.1878   1.1958   1.2317   1.2492
     1.2792   1.3673   1.4093   1.6841   1.6874   1.9114   1.9157   1.9232
     1.9318   1.9626   1.9667   2.0293   2.2682   2.2777   2.3712   2.4230
     2.4317   2.4346   2.4651   2.4828   2.7480   2.8173   3.2673   7.3796
     7.4500   7.4561   8.1703   8.2232   8.5040   8.6401   8.9391   9.0000
     9.2291   9.2325   9.3720   9.5019   9.5513   9.6343   9.8499   9.9808
    10.0125

          k = 0.2500 0.0000 0.0000 ( 34590 PWs)   bands (ev):

   -35.6914 -35.6684 -22.7999 -22.7970 -22.6204 -22.5173 -17.0790 -17.0585
   -16.9903 -16.9706 -16.7311 -16.7068 -15.0866 -15.0764 -14.8920 -14.8740
   -14.8113 -14.6872 -14.6869 -14.2736 -14.2705 -14.1247 -14.1133 -14.0007
   -13.9957 -13.9708 -13.1002  -8.0214  -8.0180  -7.8915  -7.8073  -7.8047
    -7.7781  -7.6498  -7.6469  -7.5950  -7.4604  -7.4092  -7.2710  -2.6378
    -2.6329  -2.4649  -2.3813  -2.2804  -2.2771  -2.0133  -1.8421  -1.8391
    -1.7619  -1.7565  -1.5749  -1.5424  -1.2828  -1.2793  -1.0426  -1.0424
    -1.0076  -0.8420  -0.8388  -0.8349  -0.7663  -0.7620  -0.7056  -0.5995
    -0.5977  -0.4986  -0.4105  -0.3800  -0.3782  -0.3285  -0.3162  -0.3022
    -0.2680  -0.2303   0.0114   0.0142   0.0432   0.0979   0.1208   0.1391
     0.2537   0.2556   0.3004   0.3065   0.3146   0.3927   0.4487   0.4703
     0.4754   0.5843   0.5908   0.7091   0.8391   0.8414   0.9736   1.1977
     1.2012   1.2302   1.2323   1.2787   1.3226   1.3390   1.3448   1.4177
     1.4657   1.5168   1.6925   1.7929   1.8187   1.8755   1.9496   1.9505
     2.0338   2.2093   2.2285   2.3694   2.4766   2.6065   2.6199   5.7854
     5.7879   5.8850   6.9203   6.9576   7.4781   7.4847   7.6763   7.9077
     8.3891   8.4013   8.6064   8.7595   8.8138   8.9878   9.2241   9.4597
     9.4888

          k = 0.2500 0.1320 0.0000 ( 34551 PWs)   bands (ev):

   -35.6896 -35.6666 -22.7760 -22.7731 -22.5973 -22.4956 -17.0472 -17.0266
   -16.9836 -16.9639 -16.7971 -16.7729 -15.0323 -15.0242 -14.8493 -14.8266
   -14.7600 -14.6517 -14.6484 -14.2593 -14.2562 -14.1197 -14.1115 -14.0397
   -14.0085 -14.0026 -13.1034  -8.0894  -8.0865  -7.9448  -7.9415  -7.9282
    -7.7872  -7.7556  -7.6161  -7.6150  -7.6132  -7.4336  -7.2243  -2.6902
    -2.6826  -2.5024  -2.4117  -2.2719  -2.2683  -2.1850  -2.1812  -2.0829
    -2.0692  -1.9820  -1.6973  -1.6936  -1.5711  -1.4685  -1.4647  -1.1170
    -1.0905  -1.0728  -1.0283  -1.0070  -0.9927  -0.8324  -0.7025  -0.7022
    -0.6592  -0.6318  -0.4412  -0.4149  -0.3889  -0.3391  -0.3068  -0.2773
    -0.2719  -0.1063  -0.0959  -0.0488  -0.0418   0.0302   0.0862   0.1131
     0.1507   0.2489   0.2678   0.2883   0.4807   0.5405   0.6735   0.6997
     0.7829   0.8338   0.8425   0.9296   0.9679   1.0318   1.0833   1.1302
     1.1421   1.2905   1.2960   1.3227   1.3338   1.3572   1.4084   1.4143
     1.4446   1.4573   1.5146   1.6595   1.6625   1.7161   2.0345   2.4328
     2.5504   2.6018   2.6353   2.7557   2.7758   2.8132   2.8211   6.0468
     6.0491   6.0634   7.0776   7.1064   7.7391   7.7433   7.9407   8.1888
     8.4971   8.5189   8.7405   8.8586   8.8873   9.0701   9.1204   9.1644
     9.3399

          k = 0.2500 0.2640 0.0000 ( 34523 PWs)   bands (ev):

   -35.6853 -35.6622 -22.7173 -22.7144 -22.5405 -22.4423 -16.9861 -16.9647
   -16.9567 -16.9365 -16.9334 -16.9103 -14.9346 -14.9313 -14.7285 -14.6895
   -14.6352 -14.5624 -14.5417 -14.2376 -14.2324 -14.1727 -14.1584 -14.0891
   -14.0395 -14.0148 -13.1109  -8.3094  -8.3066  -8.1140  -8.0065  -8.0033
    -7.9030  -7.8363  -7.7718  -7.7360  -7.7331  -7.5595  -7.3416  -3.0793
    -3.0645  -2.8484  -2.7996  -2.5125  -2.5094  -2.4903  -2.3831  -2.3789
    -2.3253  -2.2770  -2.2408  -2.2352  -1.9779  -1.5407  -1.5304  -1.4951
    -1.4912  -1.4249  -1.3799  -1.2462  -1.0834  -1.0484  -0.8212  -0.8114
    -0.8073  -0.7525  -0.6822  -0.6673  -0.6631  -0.5452  -0.5248  -0.5033
    -0.4694  -0.3968  -0.3271  -0.0769   0.0267   0.2161   0.2959   0.3255
     0.4704   0.5447   0.6866   0.7358   0.7487   0.7591   0.8852   0.8965
     1.0010   1.0631   1.0974   1.1787   1.1839   1.2188   1.2850   1.2877
     1.3626   1.3677   1.3997   1.4170   1.4396   1.5015   1.5184   1.5458
     1.5949   1.6286   1.7076   1.7878   1.7903   1.7959   2.2108   2.4140
     2.9068   2.9232   3.0384   3.1842   3.1920   3.3121   3.3213   6.4546
     6.5887   6.5911   7.4661   7.4842   8.2742   8.2767   8.4505   8.6191
     8.6708   8.8882   8.9632   8.9805   9.1620   9.2471   9.2834   9.3054
     9.3288

          k = 0.2500 0.3960 0.0000 ( 34490 PWs)   bands (ev):

   -35.6809 -35.6579 -22.6569 -22.6540 -22.4822 -22.3877 -17.0813 -17.0573
   -16.9492 -16.9291 -16.8723 -16.8518 -14.8877 -14.8860 -14.5873 -14.5182
   -14.5134 -14.4563 -14.3966 -14.3009 -14.2937 -14.1697 -14.1594 -14.1306
   -14.0648 -14.0258 -13.1170  -8.4294  -8.4266  -8.2490  -8.0566  -8.0537
    -8.0096  -7.9501  -7.9472  -7.8537  -7.8001  -7.7711  -7.5803  -3.5775
    -3.5641  -3.3492  -3.2967  -3.2208  -3.0347  -3.0315  -2.5216  -2.5191
    -2.3211  -2.2436  -2.1989  -2.1830  -1.9616  -1.8787  -1.8663  -1.7515
    -1.7141  -1.5409  -1.5126  -1.3874  -1.2681  -1.2510  -1.0766  -0.9793
    -0.9126  -0.8798  -0.8768  -0.8676  -0.8628  -0.6875  -0.6461  -0.5357
    -0.5320  -0.4535  -0.3947   0.0335   0.1494   0.2603   0.3578   0.3736
     0.6248   0.7715   0.8999   0.9137   0.9146   0.9256   1.0567   1.1607
     1.1667   1.2063   1.2244   1.2429   1.2481   1.3708   1.4335   1.4555
     1.5334   1.5831   1.6133   1.6364   1.6891   1.7003   1.7245   1.7688
     1.8169   1.8195   1.9379   2.1479   2.1879   2.1903   2.2194   2.3624
     2.7439   2.7568   3.1829   3.4078   3.4151   3.5598   3.5655   6.6716
     6.7958   6.8012   7.6122   7.6590   8.4465   8.7080   8.7221   8.7879
     8.9403   9.0228   9.5263   9.5933   9.6689   9.6966   9.7202   9.7944
     9.8551

          k = 0.2500-0.5279 0.0000 ( 34528 PWs)   bands (ev):

   -35.6791 -35.6560 -22.6314 -22.6285 -22.4576 -22.3647 -17.1314 -17.1073
   -16.9437 -16.9236 -16.8330 -16.8125 -14.8845 -14.8822 -14.5380 -14.4429
   -14.4391 -14.3901 -14.3478 -14.3396 -14.3164 -14.1471 -14.1367 -14.1328
   -14.1048 -14.0613 -13.1188  -8.4296  -8.4267  -8.2698  -8.1444  -8.1416
    -8.0166  -8.0135  -7.9861  -7.9101  -7.8492  -7.8154  -7.7261  -3.7767
    -3.7631  -3.5742  -3.4930  -3.4659  -3.2624  -3.2591  -2.5284  -2.5262
    -2.2898  -2.2057  -2.1567  -2.1302  -2.0373  -2.0220  -1.9468  -1.8977
    -1.8484  -1.5648  -1.5371  -1.4409  -1.3429  -1.3290  -1.1681  -1.0704
    -0.9980  -0.9501  -0.9447  -0.8937  -0.8870  -0.7003  -0.6509  -0.5555
    -0.5520  -0.4687  -0.4066   0.0748   0.1810   0.2708   0.3765   0.4094
     0.6560   0.8043   0.9436   0.9566   1.0063   1.0120   1.1201   1.1232
     1.1233   1.2355   1.2631   1.3242   1.3389   1.4311   1.4374   1.4466
     1.5342   1.7511   1.8097   1.8105   1.8207   1.9009   1.9104   1.9507
     1.9663   1.9782   1.9902   2.0778   2.3449   2.3639   2.3665   2.4368
     2.5209   2.5383   3.1852   3.4276   3.4351   3.5960   3.6022   6.6820
     6.7606   6.7650   7.5723   7.6311   8.4733   8.6637   9.0420   9.1687
     9.4459   9.4493   9.4954   9.7033   9.7664   9.7740   9.8708   9.9739
    10.0250

          k = 0.3750 0.0000 0.0000 ( 34518 PWs)   bands (ev):

   -35.6888 -35.6657 -22.7544 -22.7516 -22.5764 -22.4789 -17.1307 -17.1117
   -16.9835 -16.9623 -16.7278 -16.7035 -15.1158 -15.1133 -14.9362 -14.7358
   -14.7240 -14.6910 -14.6778 -14.2876 -14.2826 -14.2244 -14.2135 -14.0307
   -14.0248 -13.9981 -13.2447  -8.0039  -8.0005  -7.8812  -7.7538  -7.7424
    -7.7397  -7.5654  -7.5626  -7.5549  -7.3804  -7.3241  -7.2023  -2.9689
    -2.9612  -2.8328  -2.7704  -2.4004  -2.3988  -2.0602  -1.7659  -1.7649
    -1.6728  -1.6429  -1.6130  -1.6096  -1.2844  -1.2810  -1.2798  -1.1376
    -1.1376  -1.0968  -1.0940  -1.0031  -0.9980  -0.9968  -0.9516  -0.7995
    -0.7977  -0.5425  -0.5229  -0.5000  -0.4017  -0.3872  -0.3472  -0.3192
    -0.3043  -0.2987  -0.0014   0.0013   0.0294   0.0518   0.0996   0.1511
     0.2863   0.3330   0.3355   0.3410   0.3452   0.3572   0.3730   0.4166
     0.4222   0.5962   0.6520   0.7234   1.0102   1.1085   1.1116   1.1220
     1.1273   1.1403   1.2684   1.2806   1.3446   1.4074   1.4300   1.5244
     1.5798   1.6632   1.6805   1.7128   1.7408   1.7941   1.8540   2.0368
     2.0409   2.2472   2.2652   2.4762   2.5397   2.7209   2.7452   6.4308
     6.4368   6.4443   7.6534   7.6883   7.9291   7.9317   8.1398   8.3665
     8.4126   8.5482   8.7255   8.9867   9.2537   9.3830   9.4019   9.4047
     9.4643

          k = 0.3750 0.1320 0.0000 ( 34583 PWs)   bands (ev):

   -35.6870 -35.6640 -22.7327 -22.7299 -22.5554 -22.4588 -17.1221 -17.1030
   -16.9545 -16.9333 -16.7921 -16.7679 -15.0679 -15.0656 -14.8768 -14.6971
   -14.6804 -14.6290 -14.6179 -14.2584 -14.2542 -14.2036 -14.1934 -14.0674
   -14.0353 -14.0226 -13.2157  -8.0610  -8.0580  -7.9159  -7.9057  -7.9031
    -7.7706  -7.7185  -7.6551  -7.6522  -7.5383  -7.4811  -7.2685  -3.0333
    -3.0225  -2.8756  -2.8051  -2.3995  -2.3978  -2.1588  -2.1431  -2.0603
    -1.9783  -1.9523  -1.6857  -1.6820  -1.5880  -1.5455  -1.5302  -1.3866
    -1.3815  -1.3122  -1.2751  -1.1681  -1.0383  -0.8719  -0.8609  -0.8463
    -0.8044  -0.7617  -0.5033  -0.4890  -0.4259  -0.3920  -0.3573  -0.3351
    -0.3303  -0.1375  -0.1213  -0.0346  -0.0257   0.0108   0.0836   0.1103
     0.1267   0.3611   0.3737   0.3866   0.5739   0.5867   0.6910   0.7123
     0.7203   0.8494   0.8780   0.9593   1.0619   1.1054   1.1301   1.1426
     1.1653   1.2839   1.2890   1.2913   1.3984   1.4496   1.4568   1.5609
     1.6154   1.6175   1.6678   1.7100   1.7106   1.7151   1.8586   2.4312
     2.5839   2.6836   2.6947   2.8490   2.8557   3.0211   3.0310   6.4898
     6.5844   6.5867   7.6996   7.7212   7.9949   7.9973   8.1817   8.4000
     8.4568   8.7637   8.9142   9.0334   9.2266   9.2408   9.4239   9.5481
     9.5894

          k = 0.3750 0.2640 0.0000 ( 34595 PWs)   bands (ev):

   -35.6827 -35.6596 -22.6794 -22.6766 -22.5036 -22.4094 -17.1018 -17.0826
   -16.9365 -16.9123 -16.8792 -16.8582 -14.9453 -14.9437 -14.7198 -14.6034
   -14.5788 -14.4800 -14.4670 -14.2242 -14.2149 -14.1892 -14.1822 -14.1109
   -14.0745 -14.0232 -13.1428  -8.3621  -8.3593  -8.1690  -8.0410  -8.0380
    -7.9539  -7.9186  -7.9156  -7.8559  -7.7692  -7.7510  -7.5402  -3.3580
    -3.3379  -3.1118  -3.0426  -2.5774  -2.5731  -2.4780  -2.4743  -2.4669
    -2.4502  -2.4476  -2.3196  -2.3173  -2.0311  -1.8652  -1.8512  -1.6870
    -1.6580  -1.3366  -1.3171  -1.1557  -1.0734  -1.0366  -0.9596  -0.9557
    -0.9165  -0.8555  -0.7408  -0.7193  -0.7162  -0.6251  -0.6014  -0.4846
    -0.4571  -0.4344  -0.3439  -0.0649   0.0685   0.2847   0.4075   0.4644
     0.6075   0.6470   0.7525   0.7750   0.9320   0.9391   1.0034   1.0655
     1.0740   1.1376   1.1388   1.2019   1.2975   1.3278   1.3338   1.3415
     1.5368   1.5445   1.5561   1.5666   1.6367   1.6466   1.6656   1.6777
     1.6838   1.7064   1.7337   1.7408   1.7447   1.7953   2.1857   2.3923
     2.9016   2.9268   3.0445   3.6372   3.6405   3.7340   3.7378   6.4526
     6.6293   6.6319   7.5237   7.5381   8.3257   8.3366   8.3945   8.6812
     8.7499   9.0257   9.3334   9.3406   9.4377   9.5103   9.6011   9.7099
     9.7410

          k = 0.3750 0.3960 0.0000 ( 34549 PWs)   bands (ev):

   -35.6783 -35.6553 -22.6248 -22.6219 -22.4506 -22.3589 -17.0845 -17.0645
   -17.0629 -17.0396 -16.7999 -16.7788 -14.8093 -14.8082 -14.5453 -14.5136
   -14.4601 -14.3225 -14.3215 -14.3022 -14.3019 -14.1524 -14.1466 -14.1023
   -14.0432 -14.0355 -13.0655  -8.6279  -8.6251  -8.4454  -8.2928  -8.2902
    -8.2110  -8.0715  -8.0436  -8.0406  -7.8955  -7.8811  -7.7777  -3.8391
    -3.8196  -3.5548  -3.4999  -3.2096  -3.0139  -3.0107  -2.7046  -2.7007
    -2.5882  -2.5628  -2.3485  -2.3468  -2.1771  -2.1578  -2.0095  -1.9191
    -1.8898  -1.3629  -1.3121  -1.3044  -1.2772  -1.2739  -1.0812  -1.0408
    -1.0346  -0.9581  -0.9419  -0.9051  -0.9002  -0.8391  -0.8087  -0.4869
    -0.4657  -0.4499  -0.3222   0.0859   0.2194   0.3520   0.5794   0.6213
     0.8584   1.0332   1.0767   1.1020   1.1408   1.1907   1.2304   1.2759
     1.2870   1.3990   1.4129   1.4149   1.4456   1.4920   1.5086   1.6317
     1.6929   1.6989   1.7551   1.8000   1.8585   1.9045   1.9111   1.9467
     1.9716   1.9894   1.9999   2.1095   2.1122   2.1485   2.2790   2.4108
     2.7291   2.7517   3.1714   4.1496   4.1531   4.2230   4.2248   6.1948
     6.3264   6.3293   7.2433   7.2842   8.4712   8.7269   8.9052   8.9177
     9.2320   9.2921   9.3904   9.4173   9.4560   9.5322   9.5630   9.6709
     9.8150

          k = 0.3750-0.5279 0.0000 ( 34580 PWs)   bands (ev):

   -35.6765 -35.6535 -22.6017 -22.5989 -22.4282 -22.3377 -17.1181 -17.0941
   -17.0719 -17.0526 -16.7647 -16.7436 -14.7472 -14.7462 -14.4865 -14.4824
   -14.4112 -14.3471 -14.2927 -14.2606 -14.2513 -14.1412 -14.1287 -14.1248
   -14.0422 -14.0376 -13.0319  -8.7100  -8.7071  -8.5416  -8.4379  -8.4353
    -8.2806  -8.2017  -8.0697  -8.0669  -8.0538  -7.8941  -7.7993  -4.0450
    -4.0261  -3.7582  -3.7026  -3.4822  -3.2392  -3.2359  -2.7230  -2.7192
    -2.5973  -2.5665  -2.3428  -2.3410  -2.2834  -2.2632  -2.0043  -1.9890
    -1.9720  -1.4582  -1.4044  -1.3894  -1.3213  -1.3160  -1.1467  -1.0488
    -1.0405  -1.0361  -1.0279  -0.9975  -0.9926  -0.8656  -0.8201  -0.4778
    -0.4504  -0.4415  -0.3002   0.1321   0.2524   0.3653   0.6319   0.7124
     0.9310   1.1888   1.1941   1.2130   1.2201   1.2407   1.2622   1.2687
     1.3168   1.4554   1.4710   1.5146   1.5259   1.7011   1.7078   1.7229
     1.7986   1.8125   1.8645   1.9108   1.9667   1.9695   2.0487   2.0541
     2.1277   2.1740   2.2180   2.2862   2.2993   2.3027   2.3449   2.4378
     2.4840   2.5146   3.1560   4.2869   4.2919   4.3738   4.3760   6.0388
     6.1485   6.1507   7.1371   7.1984   8.4005   8.6900   9.0480   9.0711
     9.2533   9.2960   9.3440   9.5649   9.6247   9.6466   9.7660   9.7781
     9.7979

          k =-0.5000 0.0000 0.0000 ( 34514 PWs)   bands (ev):

   -35.6877 -35.6647 -22.7353 -22.7324 -22.5579 -22.4628 -17.1829 -17.1642
   -16.9416 -16.9201 -16.7264 -16.7021 -15.1735 -15.1699 -14.9793 -14.7624
   -14.7258 -14.4672 -14.4555 -14.4162 -14.3945 -14.2665 -14.2632 -14.0377
   -14.0352 -14.0042 -13.3014  -7.9936  -7.9902  -7.8701  -7.7416  -7.7192
    -7.7167  -7.5461  -7.5293  -7.5264  -7.3462  -7.2918  -7.1731  -3.1111
    -3.1034  -2.9779  -2.9196  -2.4250  -2.4237  -2.0700  -1.7407  -1.7216
    -1.7212  -1.7150  -1.4876  -1.4874  -1.3770  -1.2883  -1.2849  -1.2600
    -1.2527  -1.1752  -1.1733  -1.1063  -1.0968  -1.0187  -1.0112  -0.8828
    -0.8811  -0.6102  -0.5579  -0.5257  -0.4278  -0.3901  -0.3890  -0.3489
    -0.2933  -0.2877  -0.0068  -0.0040  -0.0033   0.0240   0.0498   0.1372
     0.2601   0.3341   0.3369   0.3403   0.3540   0.3601   0.3610   0.3621
     0.4700   0.5448   0.6957   0.7482   1.0590   1.0663   1.0694   1.0752
     1.2494   1.2819   1.2830   1.2995   1.3093   1.4988   1.5081   1.5262
     1.5852   1.5869   1.6645   1.7660   1.7798   1.8313   1.8791   2.0515
     2.0550   2.2498   2.2625   2.4825   2.5350   2.7532   2.7792   6.8953
     7.2072   7.2097   7.2604   7.2626   7.6303   8.1533   8.2146   8.4360
     8.4500   8.9110   9.0089   9.1971   9.3444   9.3631   9.5277   9.5466
     9.6425

          k =-0.5000 0.1320 0.0000 ( 34570 PWs)   bands (ev):

   -35.6859 -35.6629 -22.7145 -22.7116 -22.5377 -22.4433 -17.1737 -17.1549
   -16.9142 -16.8926 -16.7899 -16.7657 -15.1163 -15.1131 -14.9143 -14.7223
   -14.6853 -14.4281 -14.4170 -14.3563 -14.3361 -14.2448 -14.2415 -14.0747
   -14.0420 -14.0274 -13.2602  -8.0324  -8.0292  -7.8918  -7.8486  -7.8461
    -7.7591  -7.7325  -7.7292  -7.6659  -7.5593  -7.4221  -7.3777  -3.1819
    -3.1712  -3.0288  -2.9618  -2.4303  -2.4288  -2.1469  -2.1135  -2.0558
    -1.9212  -1.9014  -1.6803  -1.6767  -1.6086  -1.5915  -1.5401  -1.5024
    -1.4971  -1.4138  -1.3680  -1.2094  -1.0471  -0.9389  -0.9371  -0.8517
    -0.8253  -0.7827  -0.5386  -0.5259  -0.4209  -0.4198  -0.3852  -0.3595
    -0.3548  -0.1604  -0.1361  -0.0400  -0.0161   0.0063   0.0803   0.1110
     0.1183   0.4384   0.4469   0.4498   0.4805   0.4994   0.6206   0.6757
     0.7533   0.8495   0.9274   0.9691   1.0785   1.1116   1.1627   1.1961
     1.2093   1.2281   1.3142   1.3228   1.4061   1.5339   1.5434   1.5594
     1.6358   1.6580   1.6690   1.7704   1.7916   1.7955   1.8369   2.4206
     2.5891   2.6872   2.6946   2.8642   2.8703   3.0740   3.0846   6.7845
     7.0550   7.0573   7.5597   7.5634   7.7915   8.0736   8.1471   8.3493
     8.4075   9.1039   9.1989   9.3566   9.3585   9.4505   9.5805   9.6699
     9.7015

          k =-0.5000 0.2640 0.0000 ( 34584 PWs)   bands (ev):

   -35.6816 -35.6586 -22.6635 -22.6606 -22.4881 -22.3956 -17.1518 -17.1329
   -16.9332 -16.9090 -16.8430 -16.8217 -14.9647 -14.9625 -14.7412 -14.6268
   -14.5844 -14.3313 -14.3214 -14.2457 -14.2368 -14.1948 -14.1914 -14.1553
   -14.1104 -14.0184 -13.1559  -8.3010  -8.2981  -8.1498  -8.1473  -8.1130
    -7.9823  -7.9791  -7.9444  -7.9001  -7.8402  -7.7326  -7.7192  -3.4965
    -3.4760  -3.2577  -3.1887  -2.6042  -2.6007  -2.4985  -2.4973  -2.4573
    -2.4572  -2.4549  -2.3274  -2.3250  -2.0484  -1.9924  -1.9743  -1.7747
    -1.7405  -1.2551  -1.2303  -1.1178  -1.0378  -1.0354  -1.0180  -0.9919
    -0.9856  -0.9223  -0.7658  -0.7430  -0.7403  -0.6268  -0.5994  -0.4743
    -0.4658  -0.4621  -0.3470  -0.0596   0.0841   0.3067   0.4446   0.5208
     0.6557   0.6858   0.7828   0.7917   1.0075   1.0142   1.0782   1.0807
     1.0894   1.1210   1.1585   1.1630   1.3418   1.3502   1.3808   1.4089
     1.5238   1.6213   1.6254   1.6443   1.6602   1.6712   1.6802   1.7271
     1.7334   1.7939   1.7980   1.8117   1.8189   1.9491   1.9585   2.3617
     2.8936   2.9207   3.0385   3.7772   3.7795   3.8668   3.8705   6.4356
     6.6255   6.6275   7.4485   7.4756   8.3278   8.3726   8.4099   8.6636
     8.9614   9.2681   9.3087   9.5094   9.5204   9.5753   9.5839   9.7205
     9.8364

          k =-0.5000 0.3960 0.0000 ( 34556 PWs)   bands (ev):

   -35.6773 -35.6542 -22.6113 -22.6085 -22.4373 -22.3469 -17.1302 -17.1113
   -17.0620 -17.0380 -16.7678 -16.7464 -14.7805 -14.7795 -14.5643 -14.5433
   -14.4411 -14.3102 -14.2924 -14.2341 -14.2265 -14.1467 -14.1429 -14.0855
   -14.0603 -14.0484 -13.0435  -8.6762  -8.6732  -8.4993  -8.4379  -8.4353
    -8.2556  -8.2094  -8.0602  -8.0568  -8.0400  -7.8956  -7.7884  -3.9707
    -3.9495  -3.6764  -3.6197  -3.2017  -3.0054  -3.0021  -2.7742  -2.7705
    -2.6611  -2.6471  -2.3645  -2.3631  -2.2798  -2.2574  -2.0157  -1.9796
    -1.9455  -1.3704  -1.3088  -1.2898  -1.1840  -1.1777  -1.1475  -1.1243
    -1.0619  -0.9622  -0.9573  -0.9226  -0.9102  -0.9057  -0.8814  -0.4711
    -0.4264  -0.4240  -0.2893   0.1023   0.2426   0.3850   0.6797   0.7290
     0.9558   1.1148   1.1885   1.1950   1.1987   1.2995   1.3024   1.3091
     1.3765   1.4182   1.4915   1.4927   1.4965   1.4978   1.5307   1.6978
     1.7435   1.7646   1.8021   1.8247   1.9075   1.9676   1.9778   1.9815
     2.0772   2.0804   2.1118   2.1303   2.1407   2.1790   2.3264   2.3524
     2.7166   2.7419   3.1621   4.4170   4.4203   4.4679   4.4693   5.9914
     6.1308   6.1326   7.0955   7.1347   8.5513   8.5697   8.8497   8.8709
     9.2932   9.3262   9.4186   9.4723   9.5534   9.5611   9.6117   9.7445
     9.8171

          k =-0.5000-0.5279 0.0000 ( 34620 PWs)   bands (ev):

   -35.6755 -35.6524 -22.5893 -22.5865 -22.4159 -22.3264 -17.1214 -17.1126
   -17.1024 -17.0886 -16.7344 -16.7130 -14.6805 -14.6803 -14.5295 -14.5252
   -14.3581 -14.3379 -14.2810 -14.2100 -14.1973 -14.1358 -14.1238 -14.1201
   -14.0426 -14.0073 -12.9941  -8.8222  -8.8192  -8.6513  -8.5540  -8.5514
    -8.4013  -8.3156  -8.1671  -8.0882  -8.0847  -7.9117  -7.8067  -4.1788
    -4.1580  -3.8756  -3.8202  -3.4765  -3.2296  -3.2264  -2.8065  -2.8028
    -2.6865  -2.6673  -2.3710  -2.3545  -2.3532  -2.3479  -2.0472  -2.0135
    -1.9872  -1.4776  -1.4234  -1.4009  -1.2516  -1.2422  -1.1357  -1.1083
    -1.0950  -1.0508  -1.0481  -1.0230  -1.0111  -0.9429  -0.8929  -0.4640
    -0.3975  -0.3951  -0.2610   0.1490   0.2769   0.4001   0.7571   0.8545
     1.0540   1.2675   1.2743   1.2744   1.2767   1.3116   1.3205   1.3965
     1.5378   1.5405   1.5444   1.5618   1.5856   1.7263   1.7792   1.8028
     1.8233   1.8325   1.9412   1.9571   1.9946   2.0032   2.0989   2.1110
     2.2511   2.2699   2.2733   2.3087   2.3371   2.3463   2.4597   2.4613
     2.4939   2.5104   3.1421   4.6096   4.6155   4.6771   4.6784   5.7789
     5.9032   5.9052   6.9741   7.0360   8.4253   8.6281   8.9537   8.9594
     8.9724   9.0215   9.3589   9.4087   9.4497   9.5769   9.7713   9.8749
     9.9458

     the Fermi energy is     2.4990 ev

!    total energy              =   -1842.81968413 Ry
     Harris-Foulkes estimate   =   -1842.81968415 Ry
     estimated scf accuracy    <          8.4E-09 Ry

     The total energy is the sum of the following terms:

     one-electron contribution =  -28860.74328929 Ry
     hartree contribution      =   14583.06839697 Ry
     xc contribution           =    -621.63146681 Ry
     ewald contribution        =   13056.49752899 Ry
     smearing contrib. (-TS)   =      -0.01085398 Ry

     convergence has been achieved in  34 iterations

     negative rho (up, down):  1.543E-03 0.000E+00

     Forces acting on atoms (cartesian axes, Ry/au):

     atom    1 type  4   force =     0.00000000    0.00000000   -0.00026862
     atom    2 type  3   force =     0.00000000    0.00000000    0.00041057
     atom    3 type  4   force =     0.00000000    0.00000000   -0.00078280
     atom    4 type  1   force =     0.00000000    0.00000000   -0.00045202
     atom    5 type  3   force =     0.00000000    0.00000000    0.00041765
     atom    6 type  4   force =     0.00000000    0.00000000    0.00073674
     atom    7 type  4   force =     0.00000000    0.00000000    0.00102001
     atom    8 type  2   force =     0.00000000    0.00000000   -0.00235564
     atom    9 type  4   force =     0.00000000    0.00000000    0.00312398
     atom   10 type  4   force =     0.00000000    0.00000000    0.00286306
     atom   11 type  3   force =     0.00000000    0.00000000    0.00164334
     atom   12 type  1   force =     0.00000000    0.00000000    0.00843506
     atom   13 type  4   force =     0.00000000    0.00000000   -0.01437582
     atom   14 type  4   force =     0.00000000    0.00000000    0.03058213
     atom   15 type  3   force =     0.00000000    0.00000000   -0.00039958
     atom   16 type  4   force =     0.00000000    0.00000000    0.00314268
     atom   17 type  1   force =     0.00000000    0.00000000   -0.01664334
     atom   18 type  3   force =     0.00000000    0.00000000   -0.01842412
     atom   19 type  4   force =     0.00000000    0.00000000    0.00093800
     atom   20 type  4   force =     0.00000000    0.00000000   -0.00048145
     atom   21 type  2   force =     0.00000000    0.00000000    0.00197709
     atom   22 type  4   force =     0.00000000    0.00000000   -0.00126509
     atom   23 type  4   force =     0.00000000    0.00000000   -0.00018210
     atom   24 type  3   force =     0.00000000    0.00000000   -0.00043195
     atom   25 type  1   force =     0.00000000    0.00000000    0.00038804
     atom   26 type  4   force =     0.00000000    0.00000000    0.00043459
     atom   27 type  3   force =     0.00000000    0.00000000   -0.00008934
     atom   28 type  4   force =     0.00000000    0.00000000    0.00003894

     Total force =     0.043310     Total SCF correction =     0.000400


     Computing stress (Cartesian axis) and pressure


     negative rho (up, down):  1.543E-03 0.000E+00
          total   stress  (Ry/bohr**3)                   (kbar)     P=       -6.01
   0.00000687   0.00000000   0.00000000            1.01        0.00        0.00
   0.00000000  -0.00006644   0.00000000            0.00       -9.77        0.00
   0.00000000   0.00000000  -0.00006307            0.00        0.00       -9.28

 
     init_run     :      9.50s CPU     10.32s WALL (       1 calls)
     electrons    :    612.53s CPU    656.95s WALL (       1 calls)
     forces       :      4.07s CPU      4.50s WALL (       1 calls)
     stress       :     25.77s CPU     26.95s WALL (       1 calls)

     Called by init_run:
     wfcinit      :      6.72s CPU      7.09s WALL (       1 calls)
     potinit      :      0.61s CPU      0.62s WALL (       1 calls)
     hinit0       :      1.11s CPU      1.13s WALL (       1 calls)

     Called by electrons:
     c_bands      :    483.93s CPU    501.64s WALL (      34 calls)
     sum_band     :     88.41s CPU    102.53s WALL (      34 calls)
     v_of_rho     :      2.99s CPU      3.04s WALL (      35 calls)
     newd         :     17.78s CPU     30.49s WALL (      35 calls)
     mix_rho      :     19.57s CPU     19.74s WALL (      34 calls)

     Called by c_bands:
     init_us_2    :      3.69s CPU      3.82s WALL (    1775 calls)
     cegterg      :    459.52s CPU    476.48s WALL (     850 calls)

     Called by sum_band:
     sum_band:bec :      0.25s CPU      0.26s WALL (     850 calls)
     addusdens    :     19.73s CPU     32.96s WALL (      34 calls)

     Called by *egterg:
     h_psi        :    231.76s CPU    241.40s WALL (    3970 calls)
     s_psi        :     22.46s CPU     22.82s WALL (    3970 calls)
     g_psi        :      0.64s CPU      0.65s WALL (    3095 calls)
     cdiaghg      :    110.75s CPU    111.48s WALL (    3945 calls)

     Called by h_psi:
     h_psi:calbec :     27.95s CPU     29.09s WALL (    3970 calls)
     vloc_psi     :    179.29s CPU    182.31s WALL (    3970 calls)
     add_vuspsi   :     23.27s CPU     26.36s WALL (    3970 calls)

     General routines
     calbec       :     44.26s CPU     45.48s WALL (    4945 calls)
     fft          :      2.70s CPU      2.72s WALL (     478 calls)
     ffts         :      9.96s CPU     10.05s WALL (   14178 calls)
     fftw         :    208.02s CPU    211.41s WALL (  606694 calls)
     interpolate  :      0.21s CPU      0.21s WALL (      35 calls)
 
     Parallel routines
     fft_scatt_xy :     22.59s CPU     22.94s WALL (  621350 calls)
     fft_scatt_yz :    141.35s CPU    143.58s WALL (  621350 calls)
 
     PWSCF        :  10m52.82s CPU  11m39.89s WALL

 
   This run was terminated on:  21:31:59  21May2021            

=------------------------------------------------------------------------------=
   JOB DONE.
=------------------------------------------------------------------------------=
[1621647119.707135] [holy7c16109:249158:0]          mpool.c:43   UCX  WARN  object 0x308de80 was not returned to mpool ucp_requests
[1621647119.711071] [holy7c12501:122095:0]          mpool.c:43   UCX  WARN  object 0x297d940 was not returned to mpool ucp_requests
[1621647119.706782] [holy7c16203:181952:0]          mpool.c:43   UCX  WARN  object 0x3ae5a80 was not returned to mpool ucp_requests
[1621647119.726526] [holy7c06505:200530:0]          mpool.c:43   UCX  WARN  object 0x4512e40 was not returned to mpool ucp_requests
[1621647119.726546] [holy7c06505:200530:0]          mpool.c:43   UCX  WARN  object 0x4513380 was not returned to mpool ucp_requests
[1621647119.733263] [holy7c06505:200531:0]          mpool.c:43   UCX  WARN  object 0x4338900 was not returned to mpool ucp_requests
[1621647119.733381] [holy7c06505:200535:0]          mpool.c:43   UCX  WARN  object 0x323a600 was not returned to mpool ucp_requests
[1621647119.733404] [holy7c06505:200535:0]          mpool.c:43   UCX  WARN  object 0x323ab40 was not returned to mpool ucp_requests
[1621647119.724168] [holy7c16103:96848:0]          mpool.c:43   UCX  WARN  object 0x3c4eb80 was not returned to mpool ucp_requests
[1621647119.724181] [holy7c16103:96848:0]          mpool.c:43   UCX  WARN  object 0x3c4f280 was not returned to mpool ucp_requests
