
     Program PWSCF v.6.5 starts on 21May2021 at 19:13:20 

     This program is part of the open-source Quantum ESPRESSO suite
     for quantum simulation of materials; please cite
         "P. Giannozzi et al., J. Phys.:Condens. Matter 21 395502 (2009);
         "P. Giannozzi et al., J. Phys.:Condens. Matter 29 465901 (2017);
          URL http://www.quantum-espresso.org", 
     in publications or presentations arising from this work. More details at
     http://www.quantum-espresso.org/quote

     Parallel version (MPI), running on    20 processors

     MPI processes distributed on    11 nodes
     R & G space division:  proc/nbgrp/npool/nimage =      20
     Reading input from CBCO_CuO_cleave_7.0_sep.pwi
Warning: card &IONS ignored
Warning: card     ION_DYNAMICS = 'BFGS' ignored
Warning: card / ignored
Warning: card &CELL ignored
Warning: card     CELL_DYNAMICS = 'BFGS' ignored
Warning: card     PRESS_CONV_THR = 5 ignored
Warning: card / ignored

     Current dimensions of program PWSCF are:
     Max number of different atomic species (ntypx) = 10
     Max number of k-points (npk) =  40000
     Max angular momentum in pseudopotentials (lmaxx) =  3

     Subspace diagonalization in iterative solution of the eigenvalue problem:
     one sub-group per band group will be used
     scalapack distributed-memory algorithm (size of sub-group:  4*  4 procs)

     Message from routine setup:
     using ibrav=0 with symmetry is DISCOURAGED, use correct ibrav instead
 
     Parallelization info
     --------------------
     sticks:   dense  smooth     PW     G-vecs:    dense   smooth      PW
     Min         149      50     14                81427    15678    2450
     Max         150      51     15                81472    15705    2501
     Sum        2991    1007    289              1629003   313757   49311
 


     bravais-lattice index     =            0
     lattice parameter (alat)  =       7.4270  a.u.
     unit-cell volume          =    4993.3692 (a.u.)^3
     number of atoms/cell      =           28
     number of atomic types    =            4
     number of electrons       =       227.00
     number of Kohn-Sham states=          137
     kinetic-energy cutoff     =      60.0000  Ry
     charge density cutoff     =     720.0000  Ry
     convergence threshold     =      1.0E-08
     mixing beta               =       0.5000
     number of iterations used =           10  local-TF  mixing
     Exchange-correlation= SLA PW PBE PBE
                           (   1   4   3   4   0   0   0)

     celldm(1)=   7.427040  celldm(2)=   0.000000  celldm(3)=   0.000000
     celldm(4)=   0.000000  celldm(5)=   0.000000  celldm(6)=   0.000000

     crystal axes: (cart. coord. in units of alat)
               a(1) = (   1.000000   0.000000   0.000000 )  
               a(2) = (   0.000000   0.947081   0.000000 )  
               a(3) = (   0.000000   0.000000  12.869427 )  

     reciprocal axes: (cart. coord. in units 2 pi/alat)
               b(1) = (  1.000000  0.000000  0.000000 )  
               b(2) = (  0.000000  1.055876  0.000000 )  
               b(3) = (  0.000000  0.000000  0.077704 )  


     PseudoPot. # 1 for Ba read from file:
     ./pseudo/Ba.pbe-nsp-van.UPF
     MD5 check sum: 2b9c31dd849566dd297d80989662b7a0
     Pseudo is Ultrasoft + core correction, Zval = 10.0
     Generated by new atomic code, or converted to UPF format
     Using radial grid of  907 points,  6 beta functions with: 
                l(1) =   0
                l(2) =   0
                l(3) =   1
                l(4) =   1
                l(5) =   2
                l(6) =   2
     Q(r) pseudized with  6 coefficients,  rinner =    1.200   1.200   1.200
                                                       1.200   1.200

     PseudoPot. # 2 for Ca read from file:
     ./pseudo/Ca.pbe-nsp-van.UPF
     MD5 check sum: 6471098428ff4fa451746d08035ff179
     Pseudo is Ultrasoft + core correction, Zval = 10.0
     Generated by new atomic code, or converted to UPF format
     Using radial grid of  845 points,  6 beta functions with: 
                l(1) =   0
                l(2) =   0
                l(3) =   1
                l(4) =   1
                l(5) =   2
                l(6) =   2
     Q(r) pseudized with  6 coefficients,  rinner =    1.200   1.200   1.200
                                                       1.200   1.200

     PseudoPot. # 3 for Cu read from file:
     ./pseudo/Cu.pbe-n-van_ak.UPF
     MD5 check sum: 34e3282627ffb533726feb647e090d62
     Pseudo is Ultrasoft + core correction, Zval = 11.0
     Generated by new atomic code, or converted to UPF format
     Using radial grid of  867 points,  6 beta functions with: 
                l(1) =   0
                l(2) =   0
                l(3) =   1
                l(4) =   1
                l(5) =   2
                l(6) =   2
     Q(r) pseudized with  8 coefficients,  rinner =    1.400   1.400   1.400
                                                       1.400   1.400

     PseudoPot. # 4 for O  read from file:
     ./pseudo/O.pbe-van_ak.UPF
     MD5 check sum: 783ce7fe4c79b6a4916957118fed0856
     Pseudo is Ultrasoft, Zval =  6.0
     Generated by new atomic code, or converted to UPF format
     Using radial grid of  737 points,  4 beta functions with: 
                l(1) =   0
                l(2) =   0
                l(3) =   1
                l(4) =   1
     Q(r) pseudized with  8 coefficients,  rinner =    0.800   0.800   0.800


     atomic species   valence    mass     pseudopotential
        Ba            10.00   137.32700     Ba( 1.00)
        Ca            10.00    40.07800     Ca( 1.00)
        Cu            11.00    63.54600     Cu( 1.00)
        O              6.00    15.99900     O ( 1.00)

      4 Sym. Ops. (no inversion) found



   Cartesian axes

     site n.     atom                  positions (alat units)
         1           O   tau(   1) = (   0.0000000   0.4735409  -0.0469745  )
         2           Cu  tau(   2) = (   0.0000000   0.0000000   0.0264565  )
         3           O   tau(   3) = (   0.0000000   0.0000000   0.5030914  )
         4           Ba  tau(   4) = (   0.5000000   0.4735409   0.5690292  )
         5           Cu  tau(   5) = (   0.0000000   0.0000000   1.0374254  )
         6           O   tau(   6) = (   0.5000000   0.0000000   1.0768099  )
         7           O   tau(   7) = (   0.0000000   0.4735409   1.1116985  )
         8           Ca  tau(   8) = (   0.5000000   0.4735409   1.4976260  )
         9           O   tau(   9) = (   0.0000000   0.4735409   1.8667529  )
        10           O   tau(  10) = (   0.5000000   0.0000000   1.9044124  )
        11           Cu  tau(  11) = (   0.0000000   0.0000000   1.9512546  )
        12           Ba  tau(  12) = (   0.5000000   0.4735409   2.4295764  )
        13           O   tau(  13) = (   0.0000000   0.0000000   2.5115362  )
        14           O   tau(  14) = (   0.0000000   0.4735409   2.9918528  )
        15           Cu  tau(  15) = (   0.0000000   0.0000000   2.9919088  )
        16           O   tau(  16) = (   0.0000000   0.0000000   5.2533393  )
        17           Ba  tau(  17) = (   0.5000000   0.4735409   5.3352915  )
        18           Cu  tau(  18) = (   0.0000000   0.0000000   5.8135955  )
        19           O   tau(  19) = (   0.5000000   0.0000000   5.8604377  )
        20           O   tau(  20) = (   0.0000000   0.4735409   5.8980920  )
        21           Ca  tau(  21) = (   0.5000000   0.4735409   6.2672291  )
        22           O   tau(  22) = (   0.0000000   0.4735409   6.6531541  )
        23           O   tau(  23) = (   0.5000000   0.0000000   6.6880427  )
        24           Cu  tau(  24) = (   0.0000000   0.0000000   6.7274298  )
        25           Ba  tau(  25) = (   0.5000000   0.4735409   7.1958234  )
        26           O   tau(  26) = (   0.0000000   0.0000000   7.2617510  )
        27           Cu  tau(  27) = (   0.0000000   0.0000000   7.7383910  )
        28           O   tau(  28) = (   0.0000000   0.4735409   7.8118093  )

     number of k points=    25  Gaussian smearing, width (Ry)=  0.0100
                       cart. coord. in units 2pi/alat
        k(    1) = (   0.0000000   0.0000000   0.0000000), wk =   0.0312500
        k(    2) = (   0.0000000   0.1319845   0.0000000), wk =   0.0625000
        k(    3) = (   0.0000000   0.2639689   0.0000000), wk =   0.0625000
        k(    4) = (   0.0000000   0.3959534   0.0000000), wk =   0.0625000
        k(    5) = (   0.0000000  -0.5279378   0.0000000), wk =   0.0312500
        k(    6) = (   0.1250000   0.0000000   0.0000000), wk =   0.0625000
        k(    7) = (   0.1250000   0.1319845   0.0000000), wk =   0.1250000
        k(    8) = (   0.1250000   0.2639689   0.0000000), wk =   0.1250000
        k(    9) = (   0.1250000   0.3959534   0.0000000), wk =   0.1250000
        k(   10) = (   0.1250000  -0.5279378   0.0000000), wk =   0.0625000
        k(   11) = (   0.2500000   0.0000000   0.0000000), wk =   0.0625000
        k(   12) = (   0.2500000   0.1319845   0.0000000), wk =   0.1250000
        k(   13) = (   0.2500000   0.2639689   0.0000000), wk =   0.1250000
        k(   14) = (   0.2500000   0.3959534   0.0000000), wk =   0.1250000
        k(   15) = (   0.2500000  -0.5279378   0.0000000), wk =   0.0625000
        k(   16) = (   0.3750000   0.0000000   0.0000000), wk =   0.0625000
        k(   17) = (   0.3750000   0.1319845   0.0000000), wk =   0.1250000
        k(   18) = (   0.3750000   0.2639689   0.0000000), wk =   0.1250000
        k(   19) = (   0.3750000   0.3959534   0.0000000), wk =   0.1250000
        k(   20) = (   0.3750000  -0.5279378   0.0000000), wk =   0.0625000
        k(   21) = (  -0.5000000   0.0000000   0.0000000), wk =   0.0312500
        k(   22) = (  -0.5000000   0.1319845   0.0000000), wk =   0.0625000
        k(   23) = (  -0.5000000   0.2639689   0.0000000), wk =   0.0625000
        k(   24) = (  -0.5000000   0.3959534   0.0000000), wk =   0.0625000
        k(   25) = (  -0.5000000  -0.5279378   0.0000000), wk =   0.0312500

     Dense  grid:  1629003 G-vectors     FFT dimensions: (  64,  64, 864)

     Smooth grid:   313757 G-vectors     FFT dimensions: (  40,  36, 480)

     Estimated max dynamical RAM per process >     519.11 MB

     Estimated total dynamical RAM >      10.14 GB

     Initial potential from superposition of free atoms

     starting charge  226.84630, renormalised to  227.00000

     negative rho (up, down):  3.400E-03 0.000E+00
     Starting wfcs are  195 randomized atomic wfcs

     total cpu time spent up to now is       11.7 secs

     Self-consistent Calculation

     iteration #  1     ecut=    60.00 Ry     beta= 0.50
     Davidson diagonalization with overlap
     ethr =  1.00E-02,  avg # of iterations =  2.0

     negative rho (up, down):  4.749E-04 0.000E+00

     total cpu time spent up to now is       29.3 secs

     total energy              =   -1840.74754817 Ry
     Harris-Foulkes estimate   =   -1845.36769084 Ry
     estimated scf accuracy    <      20.21807567 Ry

     iteration #  2     ecut=    60.00 Ry     beta= 0.50
     Davidson diagonalization with overlap
     ethr =  8.91E-03,  avg # of iterations =  2.0

     negative rho (up, down):  2.752E-04 0.000E+00

     total cpu time spent up to now is       46.7 secs

     total energy              =   -1842.50829276 Ry
     Harris-Foulkes estimate   =   -1843.36593252 Ry
     estimated scf accuracy    <       8.75537522 Ry

     iteration #  3     ecut=    60.00 Ry     beta= 0.50
     Davidson diagonalization with overlap
     ethr =  3.86E-03,  avg # of iterations =  1.0

     negative rho (up, down):  2.434E-04 0.000E+00

     total cpu time spent up to now is       62.8 secs

     total energy              =   -1842.80813976 Ry
     Harris-Foulkes estimate   =   -1843.03968219 Ry
     estimated scf accuracy    <       9.20937429 Ry

     iteration #  4     ecut=    60.00 Ry     beta= 0.50
     Davidson diagonalization with overlap
     ethr =  3.86E-03,  avg # of iterations =  1.0

     negative rho (up, down):  2.386E-04 0.000E+00

     total cpu time spent up to now is       78.8 secs

     total energy              =   -1842.85954716 Ry
     Harris-Foulkes estimate   =   -1842.93066087 Ry
     estimated scf accuracy    <       2.26023314 Ry

     iteration #  5     ecut=    60.00 Ry     beta= 0.50
     Davidson diagonalization with overlap
     ethr =  9.96E-04,  avg # of iterations =  1.0

     negative rho (up, down):  2.341E-04 0.000E+00

     total cpu time spent up to now is       94.9 secs

     total energy              =   -1842.83240642 Ry
     Harris-Foulkes estimate   =   -1842.89956692 Ry
     estimated scf accuracy    <       1.48792451 Ry

     iteration #  6     ecut=    60.00 Ry     beta= 0.50
     Davidson diagonalization with overlap
     ethr =  6.55E-04,  avg # of iterations =  1.4

     negative rho (up, down):  2.283E-04 0.000E+00

     total cpu time spent up to now is      111.2 secs

     total energy              =   -1842.80496677 Ry
     Harris-Foulkes estimate   =   -1842.85950628 Ry
     estimated scf accuracy    <       0.65929395 Ry

     iteration #  7     ecut=    60.00 Ry     beta= 0.50
     Davidson diagonalization with overlap
     ethr =  2.90E-04,  avg # of iterations =  5.3

     negative rho (up, down):  2.280E-04 0.000E+00

     total cpu time spent up to now is      133.0 secs

     total energy              =   -1842.81641628 Ry
     Harris-Foulkes estimate   =   -1842.82275867 Ry
     estimated scf accuracy    <       0.33740097 Ry

     iteration #  8     ecut=    60.00 Ry     beta= 0.50
     Davidson diagonalization with overlap
     ethr =  1.49E-04,  avg # of iterations =  2.2

     negative rho (up, down):  2.263E-04 0.000E+00

     total cpu time spent up to now is      150.3 secs

     total energy              =   -1842.80445821 Ry
     Harris-Foulkes estimate   =   -1842.81974192 Ry
     estimated scf accuracy    <       0.23871280 Ry

     iteration #  9     ecut=    60.00 Ry     beta= 0.50
     Davidson diagonalization with overlap
     ethr =  1.05E-04,  avg # of iterations =  4.0

     negative rho (up, down):  2.262E-04 0.000E+00

     total cpu time spent up to now is      169.9 secs

     total energy              =   -1842.79792483 Ry
     Harris-Foulkes estimate   =   -1842.81085670 Ry
     estimated scf accuracy    <       0.50477019 Ry

     iteration # 10     ecut=    60.00 Ry     beta= 0.50
     Davidson diagonalization with overlap
     ethr =  1.05E-04,  avg # of iterations =  2.4

     negative rho (up, down):  2.272E-04 0.000E+00

     total cpu time spent up to now is      187.3 secs

     total energy              =   -1842.79375215 Ry
     Harris-Foulkes estimate   =   -1842.80071481 Ry
     estimated scf accuracy    <       0.17676256 Ry

     iteration # 11     ecut=    60.00 Ry     beta= 0.50
     Davidson diagonalization with overlap
     ethr =  7.79E-05,  avg # of iterations =  5.2

     negative rho (up, down):  9.464E-04 0.000E+00

     total cpu time spent up to now is      208.3 secs

     total energy              =   -1842.78643391 Ry
     Harris-Foulkes estimate   =   -1842.79529628 Ry
     estimated scf accuracy    <       0.12828298 Ry

     iteration # 12     ecut=    60.00 Ry     beta= 0.50
     Davidson diagonalization with overlap
     ethr =  5.65E-05,  avg # of iterations =  6.5

     negative rho (up, down):  8.655E-04 0.000E+00

     total cpu time spent up to now is      232.1 secs

     total energy              =   -1842.78762669 Ry
     Harris-Foulkes estimate   =   -1842.78852574 Ry
     estimated scf accuracy    <       0.04302866 Ry

     iteration # 13     ecut=    60.00 Ry     beta= 0.50
     Davidson diagonalization with overlap
     ethr =  1.90E-05,  avg # of iterations =  4.0

     negative rho (up, down):  1.088E-03 0.000E+00

     total cpu time spent up to now is      251.6 secs

     total energy              =   -1842.78732674 Ry
     Harris-Foulkes estimate   =   -1842.78803824 Ry
     estimated scf accuracy    <       0.01352494 Ry

     iteration # 14     ecut=    60.00 Ry     beta= 0.50
     Davidson diagonalization with overlap
     ethr =  5.96E-06,  avg # of iterations =  7.2

     negative rho (up, down):  1.956E-03 0.000E+00

     total cpu time spent up to now is      276.1 secs

     total energy              =   -1842.78694535 Ry
     Harris-Foulkes estimate   =   -1842.78754582 Ry
     estimated scf accuracy    <       0.00977513 Ry

     iteration # 15     ecut=    60.00 Ry     beta= 0.50
     Davidson diagonalization with overlap
     ethr =  4.31E-06,  avg # of iterations =  3.8

     negative rho (up, down):  8.127E-03 0.000E+00

     total cpu time spent up to now is      295.7 secs

     total energy              =   -1842.78686372 Ry
     Harris-Foulkes estimate   =   -1842.78711130 Ry
     estimated scf accuracy    <       0.01554573 Ry

     iteration # 16     ecut=    60.00 Ry     beta= 0.50
     Davidson diagonalization with overlap
     ethr =  4.31E-06,  avg # of iterations =  3.3

     negative rho (up, down):  3.245E-04 0.000E+00

     total cpu time spent up to now is      314.5 secs

     total energy              =   -1842.78690292 Ry
     Harris-Foulkes estimate   =   -1842.78699801 Ry
     estimated scf accuracy    <       0.02451607 Ry

     iteration # 17     ecut=    60.00 Ry     beta= 0.50
     Davidson diagonalization with overlap
     ethr =  4.31E-06,  avg # of iterations =  2.2

     negative rho (up, down):  2.323E-04 0.000E+00

     total cpu time spent up to now is      331.8 secs

     total energy              =   -1842.78652974 Ry
     Harris-Foulkes estimate   =   -1842.78701215 Ry
     estimated scf accuracy    <       0.01081993 Ry

     iteration # 18     ecut=    60.00 Ry     beta= 0.50
     Davidson diagonalization with overlap
     ethr =  4.31E-06,  avg # of iterations =  3.3

     negative rho (up, down):  2.285E-04 0.000E+00

     total cpu time spent up to now is      350.4 secs

     total energy              =   -1842.78585255 Ry
     Harris-Foulkes estimate   =   -1842.78656305 Ry
     estimated scf accuracy    <       0.00936216 Ry

     iteration # 19     ecut=    60.00 Ry     beta= 0.50
     Davidson diagonalization with overlap
     ethr =  4.12E-06,  avg # of iterations =  5.7

     negative rho (up, down):  4.351E-04 0.000E+00

     total cpu time spent up to now is      372.3 secs

     total energy              =   -1842.78446644 Ry
     Harris-Foulkes estimate   =   -1842.78588812 Ry
     estimated scf accuracy    <       0.00642495 Ry

     iteration # 20     ecut=    60.00 Ry     beta= 0.50
     Davidson diagonalization with overlap
     c_bands:  1 eigenvalues not converged
     c_bands:  1 eigenvalues not converged
     ethr =  2.83E-06,  avg # of iterations = 11.2

     negative rho (up, down):  8.362E-04 0.000E+00

     total cpu time spent up to now is      403.4 secs

     total energy              =   -1842.78420444 Ry
     Harris-Foulkes estimate   =   -1842.78456109 Ry
     estimated scf accuracy    <       0.00509509 Ry

     iteration # 21     ecut=    60.00 Ry     beta= 0.50
     Davidson diagonalization with overlap
     c_bands:  1 eigenvalues not converged
     c_bands:  2 eigenvalues not converged
     c_bands:  1 eigenvalues not converged
     ethr =  2.24E-06,  avg # of iterations =  7.9

     negative rho (up, down):  2.457E-03 0.000E+00

     total cpu time spent up to now is      428.4 secs

     total energy              =   -1842.78395740 Ry
     Harris-Foulkes estimate   =   -1842.78423733 Ry
     estimated scf accuracy    <       0.00525337 Ry

     iteration # 22     ecut=    60.00 Ry     beta= 0.50
     Davidson diagonalization with overlap
     c_bands:  1 eigenvalues not converged
     ethr =  2.24E-06,  avg # of iterations =  9.2

     negative rho (up, down):  4.231E-03 0.000E+00

     total cpu time spent up to now is      456.4 secs

     total energy              =   -1842.78403820 Ry
     Harris-Foulkes estimate   =   -1842.78401943 Ry
     estimated scf accuracy    <       0.00172429 Ry

     iteration # 23     ecut=    60.00 Ry     beta= 0.50
     Davidson diagonalization with overlap
     ethr =  7.60E-07,  avg # of iterations =  7.4

     negative rho (up, down):  3.791E-03 0.000E+00

     total cpu time spent up to now is      481.2 secs

     total energy              =   -1842.78417274 Ry
     Harris-Foulkes estimate   =   -1842.78410708 Ry
     estimated scf accuracy    <       0.00262243 Ry

     iteration # 24     ecut=    60.00 Ry     beta= 0.50
     Davidson diagonalization with overlap
     c_bands:  1 eigenvalues not converged
     c_bands:  1 eigenvalues not converged
     c_bands:  1 eigenvalues not converged
     ethr =  7.60E-07,  avg # of iterations =  8.3

     negative rho (up, down):  3.215E-03 0.000E+00

     total cpu time spent up to now is      507.2 secs

     total energy              =   -1842.78419709 Ry
     Harris-Foulkes estimate   =   -1842.78421108 Ry
     estimated scf accuracy    <       0.00062804 Ry

     iteration # 25     ecut=    60.00 Ry     beta= 0.50
     Davidson diagonalization with overlap
     ethr =  2.77E-07,  avg # of iterations =  2.4

     negative rho (up, down):  2.539E-03 0.000E+00

     total cpu time spent up to now is      524.7 secs

     total energy              =   -1842.78421019 Ry
     Harris-Foulkes estimate   =   -1842.78420947 Ry
     estimated scf accuracy    <       0.00067107 Ry

     iteration # 26     ecut=    60.00 Ry     beta= 0.50
     Davidson diagonalization with overlap
     c_bands:  1 eigenvalues not converged
     ethr =  2.77E-07,  avg # of iterations =  8.8

     negative rho (up, down):  2.380E-03 0.000E+00

     total cpu time spent up to now is      551.5 secs

     total energy              =   -1842.78421112 Ry
     Harris-Foulkes estimate   =   -1842.78421638 Ry
     estimated scf accuracy    <       0.00021822 Ry

     iteration # 27     ecut=    60.00 Ry     beta= 0.50
     Davidson diagonalization with overlap
     ethr =  9.61E-08,  avg # of iterations =  3.7

     negative rho (up, down):  2.174E-03 0.000E+00

     total cpu time spent up to now is      570.6 secs

     total energy              =   -1842.78420972 Ry
     Harris-Foulkes estimate   =   -1842.78421394 Ry
     estimated scf accuracy    <       0.00011804 Ry

     iteration # 28     ecut=    60.00 Ry     beta= 0.50
     Davidson diagonalization with overlap
     ethr =  5.20E-08,  avg # of iterations =  1.0

     negative rho (up, down):  1.849E-03 0.000E+00

     total cpu time spent up to now is      586.4 secs

     total energy              =   -1842.78420957 Ry
     Harris-Foulkes estimate   =   -1842.78421098 Ry
     estimated scf accuracy    <       0.00005172 Ry

     iteration # 29     ecut=    60.00 Ry     beta= 0.50
     Davidson diagonalization with overlap
     ethr =  2.28E-08,  avg # of iterations =  1.0

     negative rho (up, down):  1.645E-03 0.000E+00

     total cpu time spent up to now is      602.6 secs

     total energy              =   -1842.78420971 Ry
     Harris-Foulkes estimate   =   -1842.78420999 Ry
     estimated scf accuracy    <       0.00001765 Ry

     iteration # 30     ecut=    60.00 Ry     beta= 0.50
     Davidson diagonalization with overlap
     ethr =  7.77E-09,  avg # of iterations =  1.0

     negative rho (up, down):  1.577E-03 0.000E+00

     total cpu time spent up to now is      618.8 secs

     total energy              =   -1842.78420981 Ry
     Harris-Foulkes estimate   =   -1842.78421004 Ry
     estimated scf accuracy    <       0.00000348 Ry

     iteration # 31     ecut=    60.00 Ry     beta= 0.50
     Davidson diagonalization with overlap
     ethr =  1.53E-09,  avg # of iterations =  1.2

     negative rho (up, down):  1.574E-03 0.000E+00

     total cpu time spent up to now is      634.9 secs

     total energy              =   -1842.78420985 Ry
     Harris-Foulkes estimate   =   -1842.78420993 Ry
     estimated scf accuracy    <       0.00000245 Ry

     iteration # 32     ecut=    60.00 Ry     beta= 0.50
     Davidson diagonalization with overlap
     ethr =  1.08E-09,  avg # of iterations =  1.0

     negative rho (up, down):  1.565E-03 0.000E+00

     total cpu time spent up to now is      650.7 secs

     total energy              =   -1842.78420984 Ry
     Harris-Foulkes estimate   =   -1842.78420988 Ry
     estimated scf accuracy    <       0.00000048 Ry

     iteration # 33     ecut=    60.00 Ry     beta= 0.50
     Davidson diagonalization with overlap
     ethr =  2.13E-10,  avg # of iterations =  2.5

     negative rho (up, down):  1.585E-03 0.000E+00

     total cpu time spent up to now is      668.6 secs

     total energy              =   -1842.78420985 Ry
     Harris-Foulkes estimate   =   -1842.78420988 Ry
     estimated scf accuracy    <       0.00000072 Ry

     iteration # 34     ecut=    60.00 Ry     beta= 0.50
     Davidson diagonalization with overlap
     ethr =  2.13E-10,  avg # of iterations =  1.0

     negative rho (up, down):  1.597E-03 0.000E+00

     total cpu time spent up to now is      684.5 secs

     total energy              =   -1842.78420985 Ry
     Harris-Foulkes estimate   =   -1842.78420986 Ry
     estimated scf accuracy    <       0.00000006 Ry

     iteration # 35     ecut=    60.00 Ry     beta= 0.50
     Davidson diagonalization with overlap
     ethr =  2.55E-11,  avg # of iterations =  3.5

     negative rho (up, down):  1.591E-03 0.000E+00

     total cpu time spent up to now is      704.2 secs

     total energy              =   -1842.78420986 Ry
     Harris-Foulkes estimate   =   -1842.78420985 Ry
     estimated scf accuracy    <       0.00000004 Ry

     iteration # 36     ecut=    60.00 Ry     beta= 0.50
     Davidson diagonalization with overlap
     ethr =  1.93E-11,  avg # of iterations =  1.0

     negative rho (up, down):  1.578E-03 0.000E+00

     total cpu time spent up to now is      720.3 secs

     total energy              =   -1842.78420987 Ry
     Harris-Foulkes estimate   =   -1842.78420986 Ry
     estimated scf accuracy    <       0.00000005 Ry

     iteration # 37     ecut=    60.00 Ry     beta= 0.50
     Davidson diagonalization with overlap
     ethr =  1.93E-11,  avg # of iterations =  1.2

     negative rho (up, down):  1.569E-03 0.000E+00

     total cpu time spent up to now is      736.5 secs

     total energy              =   -1842.78420988 Ry
     Harris-Foulkes estimate   =   -1842.78420987 Ry
     estimated scf accuracy    <       0.00000001 Ry

     iteration # 38     ecut=    60.00 Ry     beta= 0.50
     Davidson diagonalization with overlap
     ethr =  4.42E-12,  avg # of iterations =  2.0

     negative rho (up, down):  1.560E-03 0.000E+00

     total cpu time spent up to now is      753.0 secs

     End of self-consistent calculation

          k = 0.0000 0.0000 0.0000 ( 39281 PWs)   bands (ev):

   -36.5653 -36.5406 -23.7228 -23.7191 -23.5744 -23.5718 -18.0660 -18.0469
   -17.6169 -17.6067 -17.5935 -17.5798 -16.2630 -16.2537 -15.6080 -15.6034
   -15.5879 -15.5378 -15.5267 -15.1097 -15.1070 -14.9348 -14.9221 -14.8361
   -14.7986 -14.7834 -13.6202  -8.8553  -8.8552  -8.8180  -8.8162  -8.8129
    -8.7085  -8.6336  -8.6234  -8.6199  -8.5429  -8.4606  -8.3426  -3.2566
    -3.2564  -2.9346  -2.7829  -2.7812  -2.7575  -2.7527  -2.6281  -2.6111
    -2.5155  -2.4951  -2.4625  -2.4514  -2.1472  -2.1432  -1.7982  -1.3862
    -1.3841  -1.3077  -1.3026  -1.3014  -1.2776  -1.2514  -1.2354  -1.2183
    -1.2156  -1.1983  -1.1938  -1.1928  -1.1904  -1.1321  -1.1185  -0.9675
    -0.9638  -0.9398  -0.8679  -0.8426  -0.8392  -0.8321  -0.8274  -0.8246
    -0.7826  -0.7720  -0.7634  -0.7473  -0.7264  -0.6954  -0.6439  -0.5967
    -0.4219  -0.1465  -0.0514  -0.0468  -0.0436  -0.0030   0.0356   0.2328
     0.2375   0.3937   0.4169   0.4281   0.4442   0.5252   0.5487   0.5692
     0.5777   0.5948   0.6005   0.8604   0.8893   0.9374   1.0965   1.1116
     1.1494   1.2906   1.4079   1.4086   1.5144   1.6049   1.6160   4.1518
     4.2909   4.3008   5.1043   5.2365   5.4884   5.8167   5.8288   5.9384
     6.0462   6.9152   7.0584   7.1581   7.3514   7.3885   7.6037   7.6621
     7.7507

          k = 0.0000 0.1320 0.0000 ( 39259 PWs)   bands (ev):

   -36.5635 -36.5388 -23.6961 -23.6925 -23.5511 -23.5460 -18.0300 -18.0108
   -17.6789 -17.6522 -17.6146 -17.5912 -16.1739 -16.1650 -15.6138 -15.6097
   -15.5506 -15.5099 -15.4969 -15.1199 -15.1163 -14.9388 -14.9230 -14.8867
   -14.8275 -14.8274 -13.6808  -8.8546  -8.8531  -8.8198  -8.7684  -8.7651
    -8.7068  -8.6651  -8.6617  -8.5877  -8.5106  -8.5033  -8.3725  -3.3180
    -3.3161  -3.1548  -3.1362  -3.0567  -3.0388  -2.9115  -2.6059  -2.5905
    -2.5721  -2.5678  -2.4985  -2.4790  -2.3826  -2.2866  -2.2826  -1.6393
    -1.5691  -1.5485  -1.4842  -1.4815  -1.3957  -1.3905  -1.3423  -1.3409
    -1.2516  -1.1955  -1.1570  -1.1248  -1.1081  -1.0862  -1.0747  -1.0717
    -1.0462  -0.9458  -0.9420  -0.9392  -0.9321  -0.8624  -0.8398  -0.8251
    -0.8041  -0.8029  -0.7740  -0.7077  -0.6533  -0.6364  -0.6004  -0.5671
    -0.1664   0.0223   0.0530   0.1325   0.1501   0.1530   0.1983   0.1984
     0.2240   0.2376   0.2445   0.4826   0.5079   0.5305   0.5322   0.6311
     0.6390   0.6589   0.7408   0.8292   0.8743   0.9175   1.0306   1.0697
     1.1070   1.2769   1.2894   1.5831   1.6565   1.8936   1.8962   4.4835
     4.6665   4.6676   5.3800   5.5320   5.6769   6.1245   6.1350   6.2276
     6.3612   7.1154   7.2316   7.3550   7.5460   7.5870   7.8034   7.8771
     7.9912

          k = 0.0000 0.2640 0.0000 ( 39139 PWs)   bands (ev):

   -36.5591 -36.5344 -23.6302 -23.6266 -23.4937 -23.4825 -17.9386 -17.9191
   -17.8327 -17.8063 -17.6089 -17.5855 -15.9698 -15.9620 -15.6688 -15.6614
   -15.5007 -15.4257 -15.4199 -15.1090 -15.1026 -15.0005 -14.9666 -14.9601
   -14.9151 -14.8725 -13.8198  -8.8540  -8.8509  -8.8213  -8.7562  -8.7525
    -8.7035  -8.6480  -8.6447  -8.6176  -8.4726  -8.4353  -8.4047  -3.7765
    -3.7680  -3.6295  -3.6104  -3.3713  -3.3564  -3.3541  -3.2081  -3.2057
    -2.9151  -2.5471  -2.5359  -2.4631  -2.4432  -2.4322  -2.4267  -2.1862
    -1.9628  -1.8699  -1.7372  -1.7339  -1.6114  -1.5978  -1.5404  -1.5175
    -1.4841  -1.4724  -1.4613  -1.4270  -1.4234  -1.4218  -1.3337  -1.3054
    -1.1225  -0.9173  -0.9134  -0.8801  -0.8555  -0.8374  -0.8077  -0.7970
    -0.7204  -0.6862  -0.5785  -0.5455  -0.3417  -0.3395  -0.2394  -0.2211
     0.0062   0.0250   0.0253   0.1889   0.1979   0.2356   0.2378   0.2804
     0.2929   0.3462   0.3534   0.3891   0.4771   0.6222   0.6963   0.7242
     0.7480   0.8465   0.9317   0.9361   0.9976   1.0291   1.0345   1.0454
     1.0492   1.1361   1.2225   1.7317   2.0263   2.1224   2.1440   5.2745
     5.5592   5.5619   5.9456   6.3169   6.3468   6.9465   6.9588   6.9924
     7.2289   7.6689   7.7406   7.8423   7.9036   7.9390   8.1134   8.2810
     8.3366

          k = 0.0000 0.3960 0.0000 ( 39052 PWs)   bands (ev):

   -36.5547 -36.5300 -23.5621 -23.5584 -23.4347 -23.4170 -17.9695 -17.9428
   -17.8367 -17.8174 -17.6033 -17.5799 -15.8665 -15.8646 -15.6646 -15.6361
   -15.5246 -15.3595 -15.3024 -15.0659 -15.0620 -15.0472 -15.0447 -15.0169
   -14.9823 -14.9237 -13.9470  -8.8539  -8.8510  -8.8343  -8.8307  -8.8198
    -8.7275  -8.6838  -8.5196  -8.5162  -8.4871  -8.3503  -8.3012  -4.2340
    -4.2242  -4.1473  -4.0492  -4.0283  -3.9238  -3.9200  -3.2988  -3.2982
    -2.9453  -2.7750  -2.7497  -2.5676  -2.4770  -2.4706  -2.3455  -2.3352
    -2.2027  -2.0846  -2.0078  -2.0040  -1.8539  -1.8251  -1.8110  -1.7591
    -1.7357  -1.7189  -1.6866  -1.6715  -1.6569  -1.6233  -1.3695  -1.3262
    -1.1010  -0.9693  -0.9002  -0.8962  -0.8523  -0.8049  -0.7969  -0.7813
    -0.7547  -0.7279  -0.4637  -0.4328  -0.1824  -0.1718  -0.0125  -0.0090
     0.0108   0.0338   0.0928   0.1177   0.1360   0.1757   0.2075   0.2095
     0.2858   0.4418   0.6094   0.6758   0.6767   0.7611   0.7692   0.7715
     0.7798   0.8634   0.9447   1.0198   1.0200   1.1221   1.1800   1.2860
     1.4398   1.4435   1.4692   1.6998   1.9646   2.0286   2.1526   6.2107
     6.5050   6.5072   6.6182   7.2565   7.2928   7.6633   7.7475   7.7515
     7.8769   8.1044   8.1073   8.1291   8.1562   8.2647   8.4547   8.4720
     8.5542

          k = 0.0000-0.5279 0.0000 ( 39142 PWs)   bands (ev):

   -36.5528 -36.5281 -23.5331 -23.5295 -23.4098 -23.3891 -18.0215 -17.9949
   -17.7921 -17.7727 -17.6009 -17.5775 -15.9079 -15.9044 -15.6020 -15.5295
   -15.5269 -15.3397 -15.2441 -15.1058 -15.1027 -15.0518 -15.0049 -14.9980
   -14.9950 -14.9892 -13.9958  -8.8639  -8.8603  -8.8535  -8.8511  -8.8184
    -8.7585  -8.6869  -8.5060  -8.4637  -8.4603  -8.2973  -8.2568  -4.4263
    -4.4012  -4.3929  -4.2183  -4.2091  -4.1529  -4.1493  -3.3148  -3.3144
    -2.9552  -2.8992  -2.8770  -2.7035  -2.4419  -2.4380  -2.3003  -2.2610
    -2.2585  -2.1756  -2.1346  -2.1288  -1.9814  -1.9462  -1.9300  -1.8696
    -1.8246  -1.7987  -1.7645  -1.7614  -1.7354  -1.7084  -1.3526  -1.2916
    -1.0674  -1.0192  -0.8945  -0.8905  -0.8834  -0.7978  -0.7763  -0.7763
    -0.7599  -0.7094  -0.5430  -0.5293  -0.1391  -0.1319  -0.0940  -0.0837
     0.0615   0.0807   0.0846   0.1423   0.1905   0.1926   0.2584   0.3194
     0.3443   0.3618   0.5638   0.6968   0.7554   0.7722   0.7795   0.9345
     1.0441   1.0495   1.0568   1.0570   1.0663   1.1095   1.1165   1.5280
     1.5977   1.6014   1.6051   1.6470   1.7857   1.8770   2.0573   6.8210
     6.9165   6.9194   7.2071   7.4502   7.7567   7.8924   7.9938   8.0231
     8.0346   8.0412   8.0454   8.1089   8.3854   8.3883   8.4345   8.4849
     8.8947

          k = 0.1250 0.0000 0.0000 ( 39229 PWs)   bands (ev):

   -36.5642 -36.5395 -23.7047 -23.7011 -23.5594 -23.5542 -18.0328 -18.0134
   -17.6966 -17.6745 -17.6053 -17.5784 -16.1602 -16.1497 -15.6534 -15.6497
   -15.6163 -15.5417 -15.5318 -15.1188 -15.1158 -14.9445 -14.9330 -14.8556
   -14.8242 -14.8040 -13.6918  -8.8807  -8.8780  -8.8200  -8.7566  -8.7509
    -8.7504  -8.5910  -8.5875  -8.5660  -8.4923  -8.4296  -8.3163  -3.3000
    -3.2992  -3.0044  -2.8108  -2.8077  -2.7794  -2.7644  -2.7630  -2.7609
    -2.7248  -2.7208  -2.4279  -2.4133  -2.1451  -2.1411  -1.8262  -1.5830
    -1.5765  -1.4461  -1.4395  -1.3979  -1.3875  -1.3751  -1.2773  -1.2679
    -1.2658  -1.2209  -1.2197  -1.2173  -1.1589  -1.1483  -1.1176  -1.0935
    -1.0122  -0.9639  -0.8582  -0.8348  -0.8319  -0.7800  -0.7757  -0.7489
    -0.7394  -0.7343  -0.7141  -0.7046  -0.6508  -0.6283  -0.5752  -0.4970
    -0.4258  -0.1388  -0.1311  -0.1098  -0.0331   0.0302   0.0794   0.2160
     0.2318   0.2726   0.2815   0.4066   0.4336   0.5400   0.5416   0.5510
     0.6091   0.6298   0.8807   0.9405   1.0289   1.0430   1.0637   1.0985
     1.1059   1.2850   1.3370   1.4154   1.4727   1.6405   1.6502   4.3188
     4.4714   4.4725   5.3290   5.4547   5.6306   6.0302   6.0437   6.1345
     6.2803   7.0542   7.2051   7.2895   7.5050   7.5484   7.8662   7.8752
     7.9498

          k = 0.1250 0.1320 0.0000 ( 39196 PWs)   bands (ev):

   -36.5624 -36.5377 -23.6789 -23.6752 -23.5366 -23.5293 -17.9979 -17.9784
   -17.6999 -17.6768 -17.6681 -17.6422 -16.0781 -16.0680 -15.6494 -15.6450
   -15.5775 -15.5094 -15.5003 -15.1201 -15.1165 -14.9451 -14.9338 -14.8996
   -14.8510 -14.8454 -13.7338  -8.8993  -8.8959  -8.8236  -8.8175  -8.8098
    -8.7527  -8.6515  -8.5803  -8.5530  -8.5496  -8.3938  -8.2714  -3.3554
    -3.3527  -3.1633  -3.1287  -3.0441  -3.0162  -2.9340  -2.7895  -2.7854
    -2.7513  -2.7387  -2.5662  -2.5619  -2.3947  -2.2772  -2.2753  -1.7734
    -1.7420  -1.6385  -1.6056  -1.5995  -1.5390  -1.5351  -1.4324  -1.4293
    -1.3500  -1.2207  -1.2068  -1.1569  -1.1348  -1.1186  -1.1100  -1.0677
    -1.0244  -1.0008  -0.9688  -0.9277  -0.9270  -0.8331  -0.7888  -0.7744
    -0.7620  -0.7590  -0.6908  -0.6761  -0.6287  -0.5990  -0.4478  -0.4072
    -0.1449   0.0859   0.1004   0.1156   0.1481   0.1991   0.2104   0.2691
     0.2863   0.3087   0.3139   0.3478   0.3587   0.3781   0.3976   0.6556
     0.6656   0.6680   0.7299   0.7338   0.7841   0.9423   1.1289   1.3965
     1.4156   1.4670   1.5077   1.6536   1.6685   1.8986   1.9025   4.6131
     4.8079   4.8101   5.5559   5.7091   5.8091   6.3306   6.3423   6.4091
     6.5878   7.2447   7.3757   7.4736   7.6807   7.7202   7.9659   8.0588
     8.1558

          k = 0.1250 0.2640 0.0000 ( 39127 PWs)   bands (ev):

   -36.5580 -36.5333 -23.6151 -23.6114 -23.4807 -23.4677 -17.9094 -17.8896
   -17.8294 -17.8032 -17.6794 -17.6570 -15.8961 -15.8877 -15.6613 -15.6510
   -15.5080 -15.4233 -15.4159 -15.1039 -15.0987 -15.0060 -14.9827 -14.9755
   -14.9117 -14.8789 -13.8323  -8.9679  -8.9645  -8.8548  -8.8509  -8.8188
    -8.8072  -8.7077  -8.6741  -8.5438  -8.5404  -8.3914  -8.2680  -3.8015
    -3.7919  -3.6346  -3.6140  -3.3628  -3.3567  -3.3547  -3.2076  -3.2049
    -2.9551  -2.7391  -2.7310  -2.7016  -2.6869  -2.4586  -2.4343  -2.1997
    -1.9753  -1.9284  -1.9138  -1.8863  -1.8454  -1.8451  -1.6250  -1.6212
    -1.5653  -1.5227  -1.4831  -1.4499  -1.4337  -1.3736  -1.3302  -1.3129
    -1.1903  -1.0862  -1.0500  -0.9390  -0.8900  -0.7539  -0.7277  -0.6917
    -0.5870  -0.4969  -0.4675  -0.4324  -0.2013  -0.1805  -0.1584  -0.1493
     0.0713   0.0951   0.1108   0.1526   0.1609   0.2651   0.3420   0.3427
     0.3879   0.3891   0.4627   0.4655   0.5473   0.5518   0.6085   0.6147
     0.6938   0.6944   0.7598   1.0060   1.0129   1.0130   1.0862   1.4785
     1.5834   1.6142   1.6782   1.8549   2.0306   2.1337   2.1567   5.3539
     5.6201   5.6228   6.0570   6.3991   6.4219   7.0883   7.1229   7.1279
     7.4261   7.7729   7.8611   7.9119   7.9431   7.9800   8.1404   8.1967
     8.2443

          k = 0.1250 0.3960 0.0000 ( 39118 PWs)   bands (ev):

   -36.5536 -36.5289 -23.5491 -23.5454 -23.4232 -23.4042 -17.9643 -17.9377
   -17.8104 -17.7909 -17.6708 -17.6483 -15.8305 -15.8287 -15.6019 -15.5603
   -15.4863 -15.3448 -15.2934 -15.0963 -15.0962 -15.0458 -15.0364 -15.0108
   -14.9671 -14.9154 -13.9247  -8.9984  -8.9949  -8.8689  -8.8648  -8.8625
    -8.8224  -8.7031  -8.6735  -8.5889  -8.5855  -8.4297  -8.3411  -4.2768
    -4.2668  -4.1463  -4.0726  -4.0473  -3.9150  -3.9112  -3.3072  -3.3064
    -2.9764  -2.7281  -2.7218  -2.6345  -2.6093  -2.6050  -2.5708  -2.4351
    -2.2706  -2.2648  -2.1556  -2.1375  -2.1311  -2.0562  -1.8411  -1.8312
    -1.7995  -1.7950  -1.7315  -1.6869  -1.6851  -1.5640  -1.3708  -1.3334
    -1.2087  -1.1191  -1.0761  -0.9149  -0.8426  -0.7268  -0.7226  -0.6610
    -0.5710  -0.4775  -0.2895  -0.2551  -0.0368  -0.0286   0.0049   0.0245
     0.0963   0.1117   0.1203   0.2034   0.2201   0.2963   0.3015   0.3076
     0.4234   0.4715   0.6920   0.6995   0.7554   0.7731   0.8008   0.8601
     0.8768   0.9194   0.9261   1.2316   1.4067   1.4068   1.4109   1.4531
     1.5361   1.5628   1.6626   1.8025   1.9820   2.0886   2.1811   6.2048
     6.3693   6.3712   6.6755   7.1246   7.1695   7.5197   7.7299   7.7337
     7.8440   7.9252   7.9779   8.3594   8.4186   8.4282   8.5831   8.6181
     8.7048

          k = 0.1250-0.5279 0.0000 ( 39084 PWs)   bands (ev):

   -36.5518 -36.5271 -23.5212 -23.5175 -23.3989 -23.3773 -18.0158 -17.9892
   -17.7674 -17.7478 -17.6670 -17.6445 -15.8628 -15.8597 -15.5591 -15.4542
   -15.4528 -15.3134 -15.2292 -15.1390 -15.1381 -15.0287 -15.0027 -14.9978
   -14.9971 -14.9737 -13.9605  -8.9931  -8.9895  -8.8806  -8.8711  -8.8676
    -8.8239  -8.7021  -8.6362  -8.6231  -8.6198  -8.4532  -8.4051  -4.4650
    -4.4515  -4.4005  -4.2496  -4.2411  -4.1444  -4.1406  -3.3282  -3.3275
    -2.9819  -2.7612  -2.7526  -2.6643  -2.5470  -2.5361  -2.4723  -2.4641
    -2.4565  -2.4087  -2.3180  -2.3029  -2.2088  -2.1377  -1.9386  -1.9370
    -1.8783  -1.8755  -1.8219  -1.7794  -1.7774  -1.6342  -1.3586  -1.3068
    -1.2112  -1.1300  -1.0897  -0.9014  -0.8195  -0.7153  -0.7114  -0.6463
    -0.5696  -0.4870  -0.3190  -0.3053  -0.0067  -0.0042   0.0228   0.0302
     0.0577   0.0763   0.1059   0.2009   0.3243   0.3369   0.3643   0.3777
     0.3967   0.5201   0.5922   0.8186   0.8201   1.0453   1.0453   1.0587
     1.0625   1.1024   1.1072   1.3504   1.4045   1.4288   1.5131   1.5445
     1.5722   1.5759   1.6370   1.6575   1.8391   1.9841   2.0919   6.5885
     6.5927   6.6387   7.2671   7.2733   7.3066   7.5254   7.7421   7.9691
     8.1143   8.2166   8.3696   8.3735   8.5784   8.6263   8.7174   8.7480
     9.0091

          k = 0.2500 0.0000 0.0000 ( 39248 PWs)   bands (ev):

   -36.5616 -36.5369 -23.6604 -23.6568 -23.5225 -23.5112 -17.9484 -17.9283
   -17.8597 -17.8394 -17.6020 -17.5751 -15.9509 -15.9406 -15.7603 -15.7405
   -15.6909 -15.5574 -15.5508 -15.1332 -15.1297 -14.9900 -14.9771 -14.8913
   -14.8696 -14.8437 -13.8563  -8.8822  -8.8784  -8.8075  -8.7752  -8.6678
    -8.6645  -8.5103  -8.5067  -8.4886  -8.3849  -8.3526  -8.2515  -3.4993
    -3.4925  -3.3427  -3.2509  -3.1414  -3.1366  -2.9205  -2.7116  -2.7096
    -2.6287  -2.6259  -2.4445  -2.4091  -2.1418  -2.1378  -1.9102  -1.9076
    -1.8726  -1.7146  -1.7041  -1.6979  -1.6409  -1.6309  -1.5691  -1.4592
    -1.4572  -1.2742  -1.2516  -1.2378  -1.2306  -1.1938  -1.1722  -1.1667
    -1.1386  -0.9852  -0.8474  -0.8445  -0.7939  -0.7585  -0.7294  -0.6936
    -0.6074  -0.6036  -0.6033  -0.5643  -0.5641  -0.4554  -0.4403  -0.3903
    -0.3862  -0.2762  -0.2699  -0.1640  -0.0298  -0.0260   0.1094   0.3326
     0.3376   0.3670   0.3707   0.4052   0.4504   0.4757   0.4834   0.5390
     0.5915   0.6572   0.8666   0.9214   0.9605   0.9990   1.0843   1.0871
     1.1990   1.3399   1.3651   1.4993   1.6192   1.7458   1.7621   4.7427
     4.9269   4.9290   5.8487   6.0443   6.0957   6.6023   6.6234   6.6712
     6.9397   7.3956   7.5489   7.5897   7.7912   7.9150   8.0995   8.1684
     8.3813

          k = 0.2500 0.1320 0.0000 ( 39213 PWs)   bands (ev):

   -36.5598 -36.5351 -23.6366 -23.6329 -23.5012 -23.4881 -17.9167 -17.8966
   -17.8531 -17.8326 -17.6680 -17.6412 -15.8958 -15.8872 -15.7198 -15.6942
   -15.6400 -15.5221 -15.5129 -15.1190 -15.1152 -14.9836 -14.9729 -14.9156
   -14.8945 -14.8799 -13.8584  -8.9500  -8.9464  -8.8161  -8.8161  -8.8048
    -8.8001  -8.6441  -8.5984  -8.4767  -8.4732  -8.3275  -8.1985  -3.5527
    -3.5427  -3.3801  -3.2823  -3.1330  -3.1278  -3.0506  -3.0498  -2.9555
    -2.9402  -2.8829  -2.5565  -2.5521  -2.4311  -2.3303  -2.3283  -1.9849
    -1.9498  -1.9370  -1.8957  -1.8749  -1.8613  -1.6865  -1.5638  -1.5625
    -1.5124  -1.4927  -1.2982  -1.2720  -1.1979  -1.1775  -1.1587  -1.1294
    -1.1084  -0.9686  -0.9534  -0.9145  -0.9074  -0.8422  -0.7712  -0.7478
    -0.6896  -0.6097  -0.5854  -0.5618  -0.3843  -0.3051  -0.1971  -0.1663
    -0.1025  -0.0242  -0.0174   0.0719   0.1025   0.1639   0.2215   0.2681
     0.2764   0.4254   0.4303   0.4532   0.4663   0.4886   0.5471   0.5523
     0.5751   0.5884   0.6825   0.7954   0.8023   0.8228   1.2188   1.5781
     1.6632   1.7458   1.7490   1.8882   1.9088   1.9515   1.9594   4.9759
     5.1878   5.1902   5.9923   6.2041   6.2377   6.8589   6.8832   6.8948
     7.2200   7.5347   7.6539   7.7197   7.9269   8.0097   8.1679   8.2031
     8.2865

          k = 0.2500 0.2640 0.0000 ( 39179 PWs)   bands (ev):

   -36.5554 -36.5307 -23.5779 -23.5742 -23.4488 -23.4313 -17.8563 -17.8349
   -17.8258 -17.8048 -17.8039 -17.7788 -15.7957 -15.7923 -15.6086 -15.5587
   -15.5122 -15.4335 -15.4106 -15.0987 -15.0918 -15.0373 -15.0199 -14.9616
   -14.9131 -14.8966 -13.8641  -9.1699  -9.1664  -9.0064  -8.8844  -8.8673
    -8.8630  -8.8018  -8.7196  -8.5965  -8.5930  -8.4542  -8.3136  -3.9442
    -3.9274  -3.7193  -3.6748  -3.3730  -3.3685  -3.3382  -3.2433  -3.2376
    -3.1978  -3.1474  -3.1019  -3.0951  -2.8822  -2.4057  -2.3954  -2.3566
    -2.3505  -2.2911  -2.2511  -2.1107  -1.9381  -1.9156  -1.6781  -1.6713
    -1.6687  -1.6181  -1.5287  -1.5226  -1.5201  -1.4188  -1.3927  -1.3505
    -1.3188  -1.2153  -1.1978  -0.9463  -0.8065  -0.6495  -0.5527  -0.5259
    -0.3899  -0.2984  -0.1801  -0.1230  -0.1147  -0.0948   0.0246   0.0390
     0.1249   0.1995   0.2302   0.3117   0.3163   0.3511   0.4170   0.4207
     0.4957   0.5061   0.5564   0.5620   0.5808   0.6336   0.6482   0.6959
     0.7335   0.7718   0.8312   0.9291   0.9305   0.9520   1.3843   1.5893
     1.9999   2.0662   2.0768   2.3198   2.3281   2.4456   2.4513   5.5498
     5.7292   5.7317   6.3498   6.5929   6.6301   7.2379   7.4153   7.4182
     7.7470   7.8129   7.8980   8.0809   8.1044   8.2537   8.3276   8.3719
     8.4150

          k = 0.2500 0.3960 0.0000 ( 39160 PWs)   bands (ev):

   -36.5511 -36.5264 -23.5175 -23.5138 -23.3951 -23.3729 -17.9522 -17.9258
   -17.8188 -17.7983 -17.7417 -17.7210 -15.7477 -15.7465 -15.4875 -15.3839
   -15.3780 -15.3306 -15.2751 -15.1662 -15.1598 -15.0302 -15.0192 -14.9928
   -14.9329 -14.9023 -13.8695  -9.2900  -9.2864  -9.1425  -8.9798  -8.9173
    -8.9135  -8.8287  -8.8107  -8.8069  -8.7363  -8.6707  -8.5581  -4.4419
    -4.4268  -4.2155  -4.1710  -4.0691  -3.8940  -3.8901  -3.3820  -3.3784
    -3.1986  -3.1108  -3.0614  -3.0443  -2.8623  -2.7424  -2.7300  -2.6156
    -2.5870  -2.4047  -2.3748  -2.2476  -2.1265  -2.1165  -1.9262  -1.8509
    -1.7625  -1.7423  -1.7376  -1.7276  -1.7200  -1.5665  -1.5162  -1.3984
    -1.3803  -1.2727  -1.2380  -0.8377  -0.6950  -0.6026  -0.4878  -0.4753
    -0.2401  -0.0735   0.0362   0.0493   0.0563   0.0590   0.1773   0.2936
     0.2995   0.3396   0.3551   0.3803   0.3856   0.4936   0.5729   0.5905
     0.7005   0.7054   0.7504   0.7637   0.8243   0.8329   0.8817   0.9016
     0.9487   0.9512   1.2339   1.2798   1.3283   1.3316   1.4056   1.5168
     1.8796   1.9023   2.0777   2.5426   2.5490   2.6938   2.6965   5.9281
     5.9375   5.9861   6.6948   6.7526   6.9872   7.4238   7.7453   7.8601
     7.8762   8.0497   8.1084   8.5818   8.7175   8.7288   8.8000   8.8501
     8.8831

          k = 0.2500-0.5279 0.0000 ( 39192 PWs)   bands (ev):

   -36.5493 -36.5245 -23.4920 -23.4883 -23.3725 -23.3483 -18.0023 -17.9758
   -17.8133 -17.7927 -17.7024 -17.6818 -15.7446 -15.7427 -15.4467 -15.3057
   -15.3014 -15.2552 -15.2215 -15.2129 -15.1997 -14.9966 -14.9964 -14.9912
   -14.9701 -14.9403 -13.8714  -9.2902  -9.2865  -9.1642  -9.0049  -9.0015
    -8.9433  -8.8774  -8.8742  -8.8445  -8.7995  -8.7320  -8.7239  -4.6408
    -4.6255  -4.4334  -4.3666  -4.3210  -4.1216  -4.1177  -3.3886  -3.3857
    -3.1697  -3.0710  -3.0204  -2.9920  -2.9005  -2.8860  -2.8444  -2.7611
    -2.7242  -2.4291  -2.3996  -2.3009  -2.2029  -2.1917  -2.0187  -1.9440
    -1.8458  -1.8103  -1.8032  -1.7576  -1.7475  -1.5799  -1.5199  -1.4155
    -1.4046  -1.2911  -1.2411  -0.7963  -0.6676  -0.5917  -0.4706  -0.4367
    -0.2092  -0.0459   0.0766   0.0878   0.1456   0.1528   0.2453   0.2579
     0.2597   0.3640   0.3921   0.4553   0.4708   0.5539   0.5680   0.5785
     0.6485   0.9144   0.9441   0.9611   1.0215   1.0366   1.0477   1.0871
     1.1050   1.1159   1.1269   1.4234   1.4886   1.5043   1.5078   1.6015
     1.6567   1.6934   1.9977   2.5615   2.5685   2.7303   2.7344   5.8990
     5.9031   6.0277   6.7139   6.7314   7.4060   7.4110   7.8077   8.1124
     8.2527   8.4628   8.5862   8.5916   8.6028   8.9038   8.9327   9.0799
     9.0933

          k = 0.3750 0.0000 0.0000 ( 39182 PWs)   bands (ev):

   -36.5590 -36.5342 -23.6150 -23.6113 -23.4850 -23.4672 -18.0000 -17.9811
   -17.8531 -17.8316 -17.5987 -17.5718 -15.9763 -15.9740 -15.8284 -15.6058
   -15.5866 -15.5605 -15.5447 -15.1486 -15.1428 -15.0885 -15.0781 -14.9154
   -14.8982 -14.8687 -14.0091  -8.8647  -8.8606  -8.7862  -8.7624  -8.6028
    -8.5996  -8.4503  -8.4260  -8.4224  -8.2907  -8.2723  -8.1845  -3.8318
    -3.8204  -3.7056  -3.6381  -3.2602  -3.2587  -2.9717  -2.6374  -2.6334
    -2.5408  -2.5049  -2.4797  -2.4789  -2.1592  -2.1434  -2.1395  -2.0075
    -2.0043  -1.9603  -1.9560  -1.8750  -1.8695  -1.8661  -1.8185  -1.6591
    -1.6573  -1.4069  -1.3621  -1.2748  -1.2735  -1.2355  -1.2171  -1.1647
    -1.1608  -1.0364  -0.8603  -0.8574  -0.8069  -0.7890  -0.7559  -0.6694
    -0.5809  -0.5596  -0.5375  -0.5267  -0.5233  -0.5205  -0.5006  -0.4529
    -0.4394  -0.2853  -0.2155  -0.1443   0.1416   0.2442   0.2468   0.2554
     0.2614   0.2696   0.4072   0.4185   0.5009   0.5329   0.5676   0.6478
     0.7225   0.7942   0.8068   0.8618   0.8810   0.9240   1.0020   1.1710
     1.1752   1.3748   1.4064   1.6040   1.6891   1.8581   1.8902   5.3749
     5.5765   5.5786   6.4242   6.7802   6.8292   7.0202   7.0726   7.0748
     7.5146   7.5356   7.7334   7.7690   7.8206   8.1426   8.4054   8.4950
     8.5120

          k = 0.3750 0.1320 0.0000 ( 39227 PWs)   bands (ev):

   -36.5572 -36.5325 -23.5933 -23.5896 -23.4651 -23.4461 -17.9914 -17.9724
   -17.8241 -17.8026 -17.6630 -17.6362 -15.9283 -15.9263 -15.7698 -15.5670
   -15.5434 -15.4988 -15.4846 -15.1188 -15.1136 -15.0678 -15.0574 -14.9388
   -14.9102 -14.9065 -13.9773  -8.9217  -8.9178  -8.8010  -8.7996  -8.7665
    -8.7627  -8.6098  -8.5160  -8.5156  -8.5120  -8.3749  -8.2414  -3.8969
    -3.8821  -3.7486  -3.6725  -3.2595  -3.2576  -3.0339  -3.0137  -2.9531
    -2.8484  -2.8271  -2.5447  -2.5405  -2.4537  -2.4086  -2.3885  -2.2489
    -2.2405  -2.1814  -2.1506  -2.0440  -1.9022  -1.7316  -1.7201  -1.7021
    -1.6668  -1.6050  -1.3627  -1.3479  -1.2577  -1.2047  -1.2028  -1.1903
    -1.1487  -1.0006  -0.9730  -0.9011  -0.8929  -0.8599  -0.7714  -0.7499
    -0.7198  -0.5012  -0.4835  -0.4777  -0.2874  -0.2773  -0.1575  -0.1467
    -0.1429  -0.0170   0.0095   0.0922   0.1984   0.2431   0.2638   0.2811
     0.2876   0.4135   0.4292   0.4316   0.5546   0.5829   0.5974   0.6775
     0.7456   0.7530   0.8069   0.8353   0.8471   0.8476   1.0329   1.5891
     1.6823   1.8243   1.8293   1.9842   1.9885   2.1563   2.1655   5.5381
     5.7250   5.7273   6.5216   6.8228   6.8697   7.0434   7.1356   7.1383
     7.5191   7.5609   7.8057   7.9366   8.0387   8.2649   8.3116   8.3653
     8.5761

          k = 0.3750 0.2640 0.0000 ( 39219 PWs)   bands (ev):

   -36.5528 -36.5281 -23.5400 -23.5363 -23.4165 -23.3943 -17.9711 -17.9519
   -17.8075 -17.7809 -17.7487 -17.7273 -15.8053 -15.8043 -15.6148 -15.4729
   -15.4446 -15.3508 -15.3333 -15.0876 -15.0752 -15.0505 -15.0418 -14.9827
   -14.9489 -14.9071 -13.8973  -9.2226  -9.2191  -9.0611  -8.9347  -8.9016
    -8.8977  -8.7878  -8.7792  -8.7754  -8.7401  -8.6530  -8.5125  -4.2238
    -4.1998  -3.9834  -3.9122  -3.4399  -3.4329  -3.3483  -3.3451  -3.3138
    -3.3098  -3.3068  -3.1790  -3.1766  -2.9411  -2.7297  -2.7167  -2.5521
    -2.5305  -2.2011  -2.1787  -2.0069  -1.9282  -1.9014  -1.8231  -1.8187
    -1.7761  -1.7232  -1.5801  -1.5754  -1.5754  -1.4936  -1.4722  -1.3217
    -1.3156  -1.2468  -1.2188  -0.9373  -0.7653  -0.5840  -0.4374  -0.3953
    -0.2544  -0.2008  -0.1077  -0.0768   0.0715   0.0800   0.1333   0.2030
     0.2111   0.2700   0.2744   0.3422   0.4314   0.4635   0.4676   0.4712
     0.6715   0.6887   0.7108   0.7203   0.7704   0.7948   0.8133   0.8170
     0.8228   0.8365   0.8707   0.8741   0.8828   0.9150   1.3742   1.5667
     1.9972   2.0704   2.0897   2.7730   2.7752   2.8682   2.8684   5.7362
     5.7713   5.7765   6.6067   6.6578   6.8875   7.1564   7.4767   7.4781
     7.7323   7.8742   7.9462   8.4726   8.4799   8.5319   8.5621   8.7383
     8.8076

          k = 0.3750 0.3960 0.0000 ( 39217 PWs)   bands (ev):

   -36.5485 -36.5238 -23.4854 -23.4817 -23.3667 -23.3412 -17.9542 -17.9337
   -17.9335 -17.9082 -17.6695 -17.6481 -15.6690 -15.6688 -15.4313 -15.3821
   -15.3449 -15.1960 -15.1867 -15.1714 -15.1658 -15.0129 -15.0056 -14.9703
   -14.9131 -14.9111 -13.8124  -9.4885  -9.4849  -9.3384  -9.1819  -9.1533
    -9.1500  -8.9648  -8.9045  -8.9015  -8.8828  -8.8025  -8.7622  -4.7047
    -4.6825  -4.4242  -4.3713  -4.0558  -3.8732  -3.8693  -3.5663  -3.5593
    -3.4570  -3.4337  -3.2083  -3.2066  -3.0418  -3.0257  -2.9177  -2.7842
    -2.7633  -2.2173  -2.1734  -2.1663  -2.1364  -2.1327  -1.9254  -1.9029
    -1.8966  -1.8270  -1.7975  -1.7684  -1.7668  -1.7146  -1.6800  -1.3265
    -1.3251  -1.2448  -1.1971  -0.7864  -0.6271  -0.5154  -0.2766  -0.2211
    -0.0049   0.1843   0.2154   0.2472   0.2738   0.3367   0.3574   0.4117
     0.4134   0.5317   0.5508   0.5527   0.5811   0.6219   0.6425   0.7565
     0.8312   0.8332   0.9171   0.9248   0.9811   1.0405   1.0457   1.1014
     1.1275   1.1432   1.2394   1.2506   1.2530   1.3415   1.4222   1.5664
     1.8619   1.8990   2.0875   3.2844   3.2846   3.3584   3.3587   5.4626
     5.4681   5.5598   6.3770   6.4020   7.1824   7.6078   7.6869   8.0457
     8.0579   8.3433   8.3738   8.4951   8.5371   8.6028   8.6491   8.7405
     8.7507

          k = 0.3750-0.5279 0.0000 ( 39212 PWs)   bands (ev):

   -36.5467 -36.5220 -23.4623 -23.4586 -23.3458 -23.3189 -17.9890 -17.9625
   -17.9413 -17.9219 -17.6343 -17.6128 -15.6067 -15.6066 -15.3502 -15.3496
   -15.3127 -15.2114 -15.1888 -15.1274 -15.1253 -14.9914 -14.9884 -14.9832
   -14.9172 -14.9057 -13.7755  -9.5706  -9.5669  -9.4351  -9.2984  -9.2952
    -9.2441  -9.0937  -9.0420  -8.9306  -8.9268  -8.8338  -8.7750  -4.9104
    -4.8890  -4.6267  -4.5741  -4.3288  -4.0984  -4.0945  -3.5847  -3.5777
    -3.4666  -3.4365  -3.2026  -3.2008  -3.1478  -3.1322  -2.8983  -2.8686
    -2.8459  -2.3149  -2.2663  -2.2487  -2.1811  -2.1774  -1.9853  -1.9214
    -1.9073  -1.8918  -1.8894  -1.8616  -1.8548  -1.7440  -1.6907  -1.3103
    -1.3095  -1.2392  -1.1753  -0.7396  -0.5973  -0.5019  -0.2237  -0.1312
     0.0675   0.3270   0.3342   0.3471   0.3519   0.3961   0.4022   0.4047
     0.4368   0.5877   0.5997   0.6484   0.6594   0.8363   0.8381   0.8492
     0.9250   0.9345   0.9843   1.1066   1.1112   1.1834   1.1835   1.2559
     1.2896   1.3089   1.4399   1.4400   1.4492   1.4748   1.4820   1.5502
     1.6182   1.6726   2.0073   3.4215   3.4222   3.5096   3.5106   5.2877
     5.2909   5.4027   6.2727   6.3224   7.3413   7.4534   8.1188   8.1798
     8.2027   8.4211   8.4276   8.4483   8.4664   8.7612   8.9049   8.9074
     8.9245

          k =-0.5000 0.0000 0.0000 ( 39178 PWs)   bands (ev):

   -36.5579 -36.5331 -23.5959 -23.5922 -23.4692 -23.4486 -18.0522 -18.0336
   -17.8113 -17.7893 -17.5973 -17.5704 -16.0343 -16.0308 -15.8727 -15.6324
   -15.5899 -15.3362 -15.3186 -15.2844 -15.2600 -15.1264 -15.1225 -14.9235
   -14.9054 -14.8738 -14.0690  -8.8545  -8.8503  -8.7757  -8.7498  -8.5796
    -8.5765  -8.4427  -8.3899  -8.3862  -8.2545  -8.2380  -8.1560  -3.9740
    -3.9625  -3.8498  -3.7867  -3.2846  -3.2836  -2.9825  -2.6075  -2.5943
    -2.5889  -2.5759  -2.3572  -2.3543  -2.2602  -2.1472  -2.1435  -2.1242
    -2.1162  -2.0477  -2.0372  -1.9732  -1.9678  -1.8883  -1.8823  -1.7425
    -1.7406  -1.4760  -1.4169  -1.3023  -1.2820  -1.2582  -1.2360  -1.1536
    -1.1504  -1.0491  -0.8656  -0.8627  -0.8341  -0.8168  -0.8120  -0.6753
    -0.6054  -0.5634  -0.5363  -0.5270  -0.5237  -0.5212  -0.5010  -0.4979
    -0.3782  -0.3768  -0.1733  -0.1124   0.1929   0.1999   0.2069   0.2095
     0.3943   0.4105   0.4214   0.4376   0.4528   0.6308   0.6327   0.6416
     0.7257   0.7276   0.8342   0.8983   0.9097   0.9574   1.0143   1.1854
     1.1897   1.3767   1.4040   1.6093   1.6881   1.8895   1.9263   6.1193
     6.3037   6.3490   6.3496   6.4015   6.4037   6.8505   7.2792   7.4015
     7.4498   7.5634   7.6276   8.0584   8.1911   8.4113   8.4735   8.4935
     8.6387

          k =-0.5000 0.1320 0.0000 ( 39242 PWs)   bands (ev):

   -36.5561 -36.5314 -23.5751 -23.5714 -23.4500 -23.4284 -18.0430 -18.0243
   -17.7840 -17.7619 -17.6608 -17.6340 -15.9769 -15.9740 -15.8081 -15.5923
   -15.5500 -15.2976 -15.2801 -15.2241 -15.2008 -15.1047 -15.1007 -14.9454
   -14.9130 -14.9121 -14.0245  -8.8931  -8.8890  -8.7917  -8.7724  -8.7090
    -8.7060  -8.5931  -8.5893  -8.5620  -8.4509  -8.3873  -8.3588  -4.0456
    -4.0306  -3.9010  -3.8285  -3.2902  -3.2887  -3.0335  -2.9844  -2.9416
    -2.7912  -2.7722  -2.5393  -2.5351  -2.4761  -2.4564  -2.3967  -2.3646
    -2.3565  -2.2824  -2.2414  -2.0893  -1.9124  -1.7986  -1.7967  -1.6960
    -1.6938  -1.6235  -1.3996  -1.3850  -1.2779  -1.2206  -1.2184  -1.2157
    -1.1637  -1.0245  -0.9827  -0.9104  -0.8833  -0.8626  -0.7724  -0.7488
    -0.7359  -0.4444  -0.4128  -0.4101  -0.3745  -0.3686  -0.2192  -0.1929
    -0.0806  -0.0339   0.0573   0.1073   0.2151   0.2497   0.2864   0.3313
     0.3495   0.3626   0.4436   0.4582   0.5596   0.6574   0.6673   0.7003
     0.7791   0.8025   0.8328   0.9019   0.9218   0.9221   0.9724   1.5848
     1.6849   1.8273   1.8318   2.0001   2.0015   2.2096   2.2196   6.1874
     6.1972   6.1979   6.3768   6.7026   6.7047   6.9387   7.1863   7.2026
     7.4886   7.5415   7.6152   8.3071   8.4214   8.5669   8.5686   8.6354
     8.7909

          k =-0.5000 0.2640 0.0000 ( 39264 PWs)   bands (ev):

   -36.5518 -36.5270 -23.5241 -23.5204 -23.4029 -23.3787 -18.0210 -18.0023
   -17.8042 -17.7775 -17.7127 -17.6907 -15.8249 -15.8235 -15.6348 -15.4967
   -15.4531 -15.2023 -15.1848 -15.1096 -15.0968 -15.0546 -15.0504 -15.0299
   -14.9845 -14.9021 -13.9112  -9.1616  -9.1579  -9.0102  -9.0071  -9.0037
    -8.8921  -8.8431  -8.8393  -8.8388  -8.7338  -8.7238  -8.7048  -4.3623
    -4.3375  -4.1290  -4.0566  -3.4669  -3.4615  -3.3713  -3.3649  -3.3170
    -3.3148  -3.3040  -3.1867  -3.1841  -2.9595  -2.8569  -2.8407  -2.6394
    -2.6138  -2.1212  -2.0923  -1.9522  -1.8971  -1.8947  -1.8882  -1.8567
    -1.8475  -1.7914  -1.6025  -1.5992  -1.5945  -1.4995  -1.4725  -1.3254
    -1.3213  -1.2615  -1.2219  -0.9332  -0.7502  -0.5631  -0.3979  -0.3443
    -0.2075  -0.1627  -0.0767  -0.0645   0.1478   0.1518   0.2071   0.2209
     0.2210   0.2638   0.2883   0.3135   0.4719   0.4838   0.5150   0.5431
     0.6828   0.7604   0.7652   0.7888   0.7918   0.8106   0.8235   0.8549
     0.8744   0.9233   0.9296   0.9448   0.9486   1.1225   1.1375   1.5391
     1.9908   2.0643   2.0861   2.9131   2.9134   3.0009   3.0017   5.7616
     5.7676   5.8233   6.5798   6.6101   7.0991   7.1663   7.4773   7.5126
     7.5372   8.0520   8.1958   8.6035   8.6426   8.6586   8.6718   8.6987
     8.9850

          k =-0.5000 0.3960 0.0000 ( 39212 PWs)   bands (ev):

   -36.5474 -36.5227 -23.4719 -23.4682 -23.3548 -23.3280 -17.9996 -17.9806
   -17.9330 -17.9064 -17.6375 -17.6155 -15.6404 -15.6401 -15.4381 -15.4125
   -15.3383 -15.1772 -15.1555 -15.1075 -15.0917 -15.0063 -15.0014 -14.9571
   -14.9359 -14.9189 -13.7880  -9.5368  -9.5331  -9.3921  -9.2983  -9.2952
    -9.2245  -9.1025  -9.0215  -8.9211  -8.9170  -8.8230  -8.7759  -4.8366
    -4.8123  -4.5461  -4.4897  -4.0480  -3.8646  -3.8607  -3.6361  -3.6290
    -3.5286  -3.5192  -3.2240  -3.2230  -3.1439  -3.1269  -2.9259  -2.8431
    -2.8203  -2.2220  -2.1703  -2.1457  -2.0457  -2.0399  -2.0102  -1.9856
    -1.8947  -1.8212  -1.8181  -1.7954  -1.7900  -1.7743  -1.7521  -1.2854
    -1.2832  -1.2486  -1.1617  -0.7704  -0.6040  -0.4846  -0.1796  -0.1133
     0.0918   0.2641   0.3257   0.3298   0.3362   0.4358   0.4369   0.4702
     0.5022   0.5416   0.6263   0.6280   0.6324   0.6377   0.6622   0.8312
     0.8831   0.9195   0.9444   0.9505   1.0309   1.1020   1.1129   1.2173
     1.2205   1.2491   1.2566   1.2677   1.3064   1.3537   1.4671   1.5100
     1.8489   1.8891   2.0871   3.5488   3.5526   3.6038   3.6047   5.2681
     5.2725   5.3637   6.2227   6.2715   7.3411   7.4278   7.9359   7.9892
     8.0059   8.4032   8.4516   8.5333   8.6077   8.6600   8.7329   8.8187
     8.8672

          k =-0.5000-0.5279 0.0000 ( 39284 PWs)   bands (ev):

   -36.5457 -36.5209 -23.4499 -23.4462 -23.3346 -23.3066 -17.9908 -17.9836
   -17.9717 -17.9570 -17.6042 -17.5822 -15.5409 -15.5395 -15.3941 -15.3926
   -15.2257 -15.2160 -15.2018 -15.0739 -15.0719 -14.9875 -14.9830 -14.9786
   -14.9136 -14.8767 -13.7335  -9.6828  -9.6791  -9.5444  -9.4145  -9.4113
    -9.3678  -9.2077  -9.1534  -8.9491  -8.9454  -8.8415  -8.7918  -5.0445
    -5.0210  -4.7447  -4.6905  -4.3229  -4.0888  -4.0849  -3.6683  -3.6611
    -3.5543  -3.5384  -3.2348  -3.2189  -3.2141  -3.2131  -2.9102  -2.8978
    -2.8890  -2.3324  -2.2843  -2.2578  -2.1145  -2.1053  -1.9753  -1.9565
    -1.9557  -1.9100  -1.9069  -1.8961  -1.8903  -1.8212  -1.7640  -1.2564
    -1.2543  -1.2382  -1.1325  -0.7230  -0.5726  -0.4693  -0.1015   0.0100
     0.1899   0.4051   0.4084   0.4099   0.4143   0.4442   0.4538   0.5187
     0.6715   0.6730   0.6735   0.6912   0.7165   0.9107   0.9407   0.9603
     0.9727   1.0462   1.0647   1.1016   1.1362   1.1371   1.2336   1.2414
     1.4101   1.4136   1.4576   1.4680   1.4918   1.5177   1.5941   1.6006
     1.6508   1.6568   2.0110   3.7422   3.7453   3.8135   3.8148   5.0428
     5.0456   5.1470   6.1045   6.1714   7.3390   7.4261   8.0912   8.0959
     8.1094   8.1873   8.4431   8.4514   8.4578   8.6167   8.6890   8.8897
     8.8974

     the Fermi energy is     1.6392 ev

!    total energy              =   -1842.78420989 Ry
     Harris-Foulkes estimate   =   -1842.78420988 Ry
     estimated scf accuracy    <          2.8E-09 Ry

     The total energy is the sum of the following terms:

     one-electron contribution =  -21176.41786632 Ry
     hartree contribution      =   10733.66013690 Ry
     xc contribution           =    -621.62257161 Ry
     ewald contribution        =    9221.60783473 Ry
     smearing contrib. (-TS)   =      -0.01174360 Ry

     convergence has been achieved in  38 iterations

     negative rho (up, down):  1.560E-03 0.000E+00

     Forces acting on atoms (cartesian axes, Ry/au):

     atom    1 type  4   force =     0.00000000    0.00000000   -0.00038248
     atom    2 type  3   force =     0.00000000    0.00000000    0.00041681
     atom    3 type  4   force =     0.00000000    0.00000000   -0.00072032
     atom    4 type  1   force =     0.00000000    0.00000000   -0.00053514
     atom    5 type  3   force =     0.00000000    0.00000000    0.00049097
     atom    6 type  4   force =     0.00000000    0.00000000    0.00093949
     atom    7 type  4   force =     0.00000000    0.00000000    0.00114286
     atom    8 type  2   force =     0.00000000    0.00000000   -0.00277851
     atom    9 type  4   force =     0.00000000    0.00000000    0.00483192
     atom   10 type  4   force =     0.00000000    0.00000000    0.00412819
     atom   11 type  3   force =     0.00000000    0.00000000    0.00116916
     atom   12 type  1   force =     0.00000000    0.00000000    0.00976297
     atom   13 type  4   force =     0.00000000    0.00000000   -0.01984904
     atom   14 type  4   force =     0.00000000    0.00000000    0.03628194
     atom   15 type  3   force =     0.00000000    0.00000000   -0.03489689
     atom   16 type  4   force =     0.00000000    0.00000000    0.02580447
     atom   17 type  1   force =     0.00000000    0.00000000   -0.00239827
     atom   18 type  3   force =     0.00000000    0.00000000   -0.02042225
     atom   19 type  4   force =     0.00000000    0.00000000   -0.00160311
     atom   20 type  4   force =     0.00000000    0.00000000   -0.00229595
     atom   21 type  2   force =     0.00000000    0.00000000    0.00259227
     atom   22 type  4   force =     0.00000000    0.00000000   -0.00176817
     atom   23 type  4   force =     0.00000000    0.00000000   -0.00020289
     atom   24 type  3   force =     0.00000000    0.00000000   -0.00025429
     atom   25 type  1   force =     0.00000000    0.00000000    0.00038310
     atom   26 type  4   force =     0.00000000    0.00000000    0.00024891
     atom   27 type  3   force =     0.00000000    0.00000000   -0.00000083
     atom   28 type  4   force =     0.00000000    0.00000000   -0.00008492

     Total force =     0.064678     Total SCF correction =     0.000160


     Computing stress (Cartesian axis) and pressure


     negative rho (up, down):  1.560E-03 0.000E+00
          total   stress  (Ry/bohr**3)                   (kbar)     P=       -5.14
   0.00000724   0.00000000   0.00000000            1.06        0.00        0.00
   0.00000000  -0.00008343   0.00000000            0.00      -12.27        0.00
   0.00000000   0.00000000  -0.00002862            0.00        0.00       -4.21

 
     init_run     :      9.93s CPU     10.24s WALL (       1 calls)
     electrons    :    716.52s CPU    741.30s WALL (       1 calls)
     forces       :      4.23s CPU      4.42s WALL (       1 calls)
     stress       :     25.10s CPU     25.62s WALL (       1 calls)

     Called by init_run:
     wfcinit      :      6.87s CPU      6.98s WALL (       1 calls)
     potinit      :      0.69s CPU      0.71s WALL (       1 calls)
     hinit0       :      1.18s CPU      1.19s WALL (       1 calls)

     Called by electrons:
     c_bands      :    558.09s CPU    570.63s WALL (      38 calls)
     sum_band     :    103.14s CPU    109.69s WALL (      38 calls)
     v_of_rho     :      4.09s CPU      4.13s WALL (      39 calls)
     newd         :     28.88s CPU     34.42s WALL (      39 calls)
     mix_rho      :     22.73s CPU     22.93s WALL (      38 calls)

     Called by c_bands:
     init_us_2    :      6.89s CPU      6.92s WALL (    1975 calls)
     cegterg      :    524.75s CPU    536.64s WALL (     950 calls)

     Called by sum_band:
     sum_band:bec :      0.27s CPU      0.27s WALL (     950 calls)
     addusdens    :     27.85s CPU     33.60s WALL (      38 calls)

     Called by *egterg:
     h_psi        :    250.51s CPU    258.76s WALL (    4447 calls)
     s_psi        :     23.97s CPU     24.16s WALL (    4447 calls)
     g_psi        :      0.72s CPU      0.73s WALL (    3472 calls)
     cdiaghg      :    145.12s CPU    145.69s WALL (    4422 calls)

     Called by h_psi:
     h_psi:calbec :     30.01s CPU     31.46s WALL (    4447 calls)
     vloc_psi     :    193.93s CPU    196.91s WALL (    4447 calls)
     add_vuspsi   :     25.32s CPU     27.49s WALL (    4447 calls)

     General routines
     calbec       :     52.52s CPU     54.05s WALL (    5522 calls)
     fft          :      3.38s CPU      3.40s WALL (     530 calls)
     ffts         :     12.02s CPU     12.14s WALL (   17410 calls)
     fftw         :    223.71s CPU    227.04s WALL (  677886 calls)
     interpolate  :      0.26s CPU      0.26s WALL (      39 calls)
 
     Parallel routines
     fft_scatt_xy :     27.46s CPU     27.82s WALL (  695826 calls)
     fft_scatt_yz :    146.55s CPU    148.70s WALL (  695826 calls)
 
     PWSCF        :  12m36.86s CPU  13m 3.07s WALL

 
   This run was terminated on:  19:26:23  21May2021            

=------------------------------------------------------------------------------=
   JOB DONE.
=------------------------------------------------------------------------------=
[1621639583.940158] [holy7c06102:191582:0]          mpool.c:43   UCX  WARN  object 0x328b880 was not returned to mpool ucp_requests
[1621639583.949471] [holy7c06410:136543:0]          mpool.c:43   UCX  WARN  object 0x425ee00 was not returned to mpool ucp_requests
[1621639583.948669] [holy7c04503:40896:0]          mpool.c:43   UCX  WARN  object 0x2ec9580 was not returned to mpool ucp_requests
[1621639583.952046] [holy7c06503:141871:0]          mpool.c:43   UCX  WARN  object 0x3c0ccc0 was not returned to mpool ucp_requests
[1621639583.952065] [holy7c06503:141871:0]          mpool.c:43   UCX  WARN  object 0x3c0d040 was not returned to mpool ucp_requests
[1621639583.950095] [holy7c06501:248347:0]          mpool.c:43   UCX  WARN  object 0x3ef0f00 was not returned to mpool ucp_requests
[1621639583.941528] [holy7c06407:123580:0]          mpool.c:43   UCX  WARN  object 0x2edb700 was not returned to mpool ucp_requests
[1621639583.941550] [holy7c06407:123580:0]          mpool.c:43   UCX  WARN  object 0x2edbc40 was not returned to mpool ucp_requests
[1621639583.951500] [holy7c06501:248346:0]          mpool.c:43   UCX  WARN  object 0x28d9640 was not returned to mpool ucp_requests
[1621639583.951520] [holy7c06501:248346:0]          mpool.c:43   UCX  WARN  object 0x28d9800 was not returned to mpool ucp_requests
