
     Program PWSCF v.6.5 starts on 21May2021 at 11:31:35 

     This program is part of the open-source Quantum ESPRESSO suite
     for quantum simulation of materials; please cite
         "P. Giannozzi et al., J. Phys.:Condens. Matter 21 395502 (2009);
         "P. Giannozzi et al., J. Phys.:Condens. Matter 29 465901 (2017);
          URL http://www.quantum-espresso.org", 
     in publications or presentations arising from this work. More details at
     http://www.quantum-espresso.org/quote

     Parallel version (MPI), running on    20 processors

     MPI processes distributed on     7 nodes
     R & G space division:  proc/nbgrp/npool/nimage =      20
     Reading input from CBCO_BaO_cleave_1.0_sep.pwi
Warning: card &IONS ignored
Warning: card     ION_DYNAMICS = 'BFGS' ignored
Warning: card / ignored
Warning: card &CELL ignored
Warning: card     CELL_DYNAMICS = 'BFGS' ignored
Warning: card     PRESS_CONV_THR = 5 ignored
Warning: card / ignored

     Current dimensions of program PWSCF are:
     Max number of different atomic species (ntypx) = 10
     Max number of k-points (npk) =  40000
     Max angular momentum in pseudopotentials (lmaxx) =  3

     Subspace diagonalization in iterative solution of the eigenvalue problem:
     one sub-group per band group will be used
     scalapack distributed-memory algorithm (size of sub-group:  4*  4 procs)

     Message from routine setup:
     using ibrav=0 with symmetry is DISCOURAGED, use correct ibrav instead
 
     Parallelization info
     --------------------
     sticks:   dense  smooth     PW     G-vecs:    dense   smooth      PW
     Min         149      50     14                71773    13820    2160
     Max         150      51     15                71810    13841    2205
     Sum        2991    1007    289              1435837   276553   43473
 


     bravais-lattice index     =            0
     lattice parameter (alat)  =       7.4270  a.u.
     unit-cell volume          =    4401.0322 (a.u.)^3
     number of atoms/cell      =           28
     number of atomic types    =            4
     number of electrons       =       227.00
     number of Kohn-Sham states=          137
     kinetic-energy cutoff     =      60.0000  Ry
     charge density cutoff     =     720.0000  Ry
     convergence threshold     =      1.0E-08
     mixing beta               =       0.5000
     number of iterations used =           10  local-TF  mixing
     Exchange-correlation= SLA PW PBE PBE
                           (   1   4   3   4   0   0   0)

     celldm(1)=   7.427040  celldm(2)=   0.000000  celldm(3)=   0.000000
     celldm(4)=   0.000000  celldm(5)=   0.000000  celldm(6)=   0.000000

     crystal axes: (cart. coord. in units of alat)
               a(1) = (   1.000000   0.000000   0.000000 )  
               a(2) = (   0.000000   0.947081   0.000000 )  
               a(3) = (   0.000000   0.000000  11.342795 )  

     reciprocal axes: (cart. coord. in units 2 pi/alat)
               b(1) = (  1.000000  0.000000  0.000000 )  
               b(2) = (  0.000000  1.055876  0.000000 )  
               b(3) = (  0.000000  0.000000  0.088162 )  


     PseudoPot. # 1 for Ba read from file:
     ./pseudo/Ba.pbe-nsp-van.UPF
     MD5 check sum: 2b9c31dd849566dd297d80989662b7a0
     Pseudo is Ultrasoft + core correction, Zval = 10.0
     Generated by new atomic code, or converted to UPF format
     Using radial grid of  907 points,  6 beta functions with: 
                l(1) =   0
                l(2) =   0
                l(3) =   1
                l(4) =   1
                l(5) =   2
                l(6) =   2
     Q(r) pseudized with  6 coefficients,  rinner =    1.200   1.200   1.200
                                                       1.200   1.200

     PseudoPot. # 2 for Ca read from file:
     ./pseudo/Ca.pbe-nsp-van.UPF
     MD5 check sum: 6471098428ff4fa451746d08035ff179
     Pseudo is Ultrasoft + core correction, Zval = 10.0
     Generated by new atomic code, or converted to UPF format
     Using radial grid of  845 points,  6 beta functions with: 
                l(1) =   0
                l(2) =   0
                l(3) =   1
                l(4) =   1
                l(5) =   2
                l(6) =   2
     Q(r) pseudized with  6 coefficients,  rinner =    1.200   1.200   1.200
                                                       1.200   1.200

     PseudoPot. # 3 for Cu read from file:
     ./pseudo/Cu.pbe-n-van_ak.UPF
     MD5 check sum: 34e3282627ffb533726feb647e090d62
     Pseudo is Ultrasoft + core correction, Zval = 11.0
     Generated by new atomic code, or converted to UPF format
     Using radial grid of  867 points,  6 beta functions with: 
                l(1) =   0
                l(2) =   0
                l(3) =   1
                l(4) =   1
                l(5) =   2
                l(6) =   2
     Q(r) pseudized with  8 coefficients,  rinner =    1.400   1.400   1.400
                                                       1.400   1.400

     PseudoPot. # 4 for O  read from file:
     ./pseudo/O.pbe-van_ak.UPF
     MD5 check sum: 783ce7fe4c79b6a4916957118fed0856
     Pseudo is Ultrasoft, Zval =  6.0
     Generated by new atomic code, or converted to UPF format
     Using radial grid of  737 points,  4 beta functions with: 
                l(1) =   0
                l(2) =   0
                l(3) =   1
                l(4) =   1
     Q(r) pseudized with  8 coefficients,  rinner =    0.800   0.800   0.800


     atomic species   valence    mass     pseudopotential
        Ba            10.00   137.32700     Ba( 1.00)
        Ca            10.00    40.07800     Ca( 1.00)
        Cu            11.00    63.54600     Cu( 1.00)
        O              6.00    15.99900     O ( 1.00)

      4 Sym. Ops. (no inversion) found



   Cartesian axes

     site n.     atom                  positions (alat units)
         1           O   tau(   1) = (   0.0000000   0.4735409  -0.0469745  )
         2           Cu  tau(   2) = (   0.0000000   0.0000000   0.0264565  )
         3           O   tau(   3) = (   0.0000000   0.0000000   0.5030914  )
         4           Ba  tau(   4) = (   0.5000000   0.4735409   0.5690292  )
         5           Cu  tau(   5) = (   0.0000000   0.0000000   1.0374254  )
         6           O   tau(   6) = (   0.5000000   0.0000000   1.0768099  )
         7           O   tau(   7) = (   0.0000000   0.4735409   1.1116985  )
         8           Ca  tau(   8) = (   0.5000000   0.4735409   1.4976260  )
         9           O   tau(   9) = (   0.0000000   0.4735409   1.8667529  )
        10           O   tau(  10) = (   0.5000000   0.0000000   1.9044124  )
        11           Cu  tau(  11) = (   0.0000000   0.0000000   1.9512546  )
        12           Ba  tau(  12) = (   0.5000000   0.4735409   2.4295764  )
        13           O   tau(  13) = (   0.0000000   0.0000000   2.5115362  )
        14           O   tau(  14) = (   0.0000000   0.4735409   2.9918528  )
        15           Cu  tau(  15) = (   0.0000000   0.0000000   2.9919088  )
        16           O   tau(  16) = (   0.0000000   0.0000000   3.4722686  )
        17           Ba  tau(  17) = (   0.5000000   0.4735409   3.5542208  )
        18           Cu  tau(  18) = (   0.0000000   0.0000000   4.2869634  )
        19           O   tau(  19) = (   0.5000000   0.0000000   4.3338056  )
        20           O   tau(  20) = (   0.0000000   0.4735409   4.3714600  )
        21           Ca  tau(  21) = (   0.5000000   0.4735409   4.7405971  )
        22           O   tau(  22) = (   0.0000000   0.4735409   5.1265220  )
        23           O   tau(  23) = (   0.5000000   0.0000000   5.1614106  )
        24           Cu  tau(  24) = (   0.0000000   0.0000000   5.2007978  )
        25           Ba  tau(  25) = (   0.5000000   0.4735409   5.6691914  )
        26           O   tau(  26) = (   0.0000000   0.0000000   5.7351190  )
        27           Cu  tau(  27) = (   0.0000000   0.0000000   6.2117589  )
        28           O   tau(  28) = (   0.0000000   0.4735409   6.2851772  )

     number of k points=    25  Gaussian smearing, width (Ry)=  0.0100
                       cart. coord. in units 2pi/alat
        k(    1) = (   0.0000000   0.0000000   0.0000000), wk =   0.0312500
        k(    2) = (   0.0000000   0.1319845   0.0000000), wk =   0.0625000
        k(    3) = (   0.0000000   0.2639689   0.0000000), wk =   0.0625000
        k(    4) = (   0.0000000   0.3959534   0.0000000), wk =   0.0625000
        k(    5) = (   0.0000000  -0.5279378   0.0000000), wk =   0.0312500
        k(    6) = (   0.1250000   0.0000000   0.0000000), wk =   0.0625000
        k(    7) = (   0.1250000   0.1319845   0.0000000), wk =   0.1250000
        k(    8) = (   0.1250000   0.2639689   0.0000000), wk =   0.1250000
        k(    9) = (   0.1250000   0.3959534   0.0000000), wk =   0.1250000
        k(   10) = (   0.1250000  -0.5279378   0.0000000), wk =   0.0625000
        k(   11) = (   0.2500000   0.0000000   0.0000000), wk =   0.0625000
        k(   12) = (   0.2500000   0.1319845   0.0000000), wk =   0.1250000
        k(   13) = (   0.2500000   0.2639689   0.0000000), wk =   0.1250000
        k(   14) = (   0.2500000   0.3959534   0.0000000), wk =   0.1250000
        k(   15) = (   0.2500000  -0.5279378   0.0000000), wk =   0.0625000
        k(   16) = (   0.3750000   0.0000000   0.0000000), wk =   0.0625000
        k(   17) = (   0.3750000   0.1319845   0.0000000), wk =   0.1250000
        k(   18) = (   0.3750000   0.2639689   0.0000000), wk =   0.1250000
        k(   19) = (   0.3750000   0.3959534   0.0000000), wk =   0.1250000
        k(   20) = (   0.3750000  -0.5279378   0.0000000), wk =   0.0625000
        k(   21) = (  -0.5000000   0.0000000   0.0000000), wk =   0.0312500
        k(   22) = (  -0.5000000   0.1319845   0.0000000), wk =   0.0625000
        k(   23) = (  -0.5000000   0.2639689   0.0000000), wk =   0.0625000
        k(   24) = (  -0.5000000   0.3959534   0.0000000), wk =   0.0625000
        k(   25) = (  -0.5000000  -0.5279378   0.0000000), wk =   0.0312500

     Dense  grid:  1435837 G-vectors     FFT dimensions: (  64,  64, 720)

     Smooth grid:   276553 G-vectors     FFT dimensions: (  40,  36, 432)

     Estimated max dynamical RAM per process >     458.17 MB

     Estimated total dynamical RAM >       8.95 GB

     Initial potential from superposition of free atoms

     starting charge  226.84630, renormalised to  227.00000

     negative rho (up, down):  3.506E-03 0.000E+00
     Starting wfcs are  195 randomized atomic wfcs

     total cpu time spent up to now is       10.3 secs

     Self-consistent Calculation

     iteration #  1     ecut=    60.00 Ry     beta= 0.50
     Davidson diagonalization with overlap
     ethr =  1.00E-02,  avg # of iterations =  2.0

     negative rho (up, down):  5.083E-04 0.000E+00

     total cpu time spent up to now is       26.2 secs

     total energy              =   -1840.91303498 Ry
     Harris-Foulkes estimate   =   -1845.35776498 Ry
     estimated scf accuracy    <      17.73351969 Ry

     iteration #  2     ecut=    60.00 Ry     beta= 0.50
     Davidson diagonalization with overlap
     ethr =  7.81E-03,  avg # of iterations =  2.0

     negative rho (up, down):  2.704E-04 0.000E+00

     total cpu time spent up to now is       42.4 secs

     total energy              =   -1842.50740287 Ry
     Harris-Foulkes estimate   =   -1843.26719095 Ry
     estimated scf accuracy    <       4.89089274 Ry

     iteration #  3     ecut=    60.00 Ry     beta= 0.50
     Davidson diagonalization with overlap
     ethr =  2.15E-03,  avg # of iterations =  1.6

     negative rho (up, down):  2.535E-04 0.000E+00

     total cpu time spent up to now is       57.5 secs

     total energy              =   -1842.84996902 Ry
     Harris-Foulkes estimate   =   -1842.99489365 Ry
     estimated scf accuracy    <       3.31956521 Ry

     iteration #  4     ecut=    60.00 Ry     beta= 0.50
     Davidson diagonalization with overlap
     ethr =  1.46E-03,  avg # of iterations =  1.0

     negative rho (up, down):  2.438E-04 0.000E+00

     total cpu time spent up to now is       72.0 secs

     total energy              =   -1842.85581531 Ry
     Harris-Foulkes estimate   =   -1842.92900095 Ry
     estimated scf accuracy    <       0.51804271 Ry

     iteration #  5     ecut=    60.00 Ry     beta= 0.50
     Davidson diagonalization with overlap
     ethr =  2.28E-04,  avg # of iterations =  5.1

     negative rho (up, down):  2.408E-04 0.000E+00

     total cpu time spent up to now is       92.5 secs

     total energy              =   -1842.88536946 Ry
     Harris-Foulkes estimate   =   -1842.89905599 Ry
     estimated scf accuracy    <       1.11168191 Ry

     iteration #  6     ecut=    60.00 Ry     beta= 0.50
     Davidson diagonalization with overlap
     ethr =  2.28E-04,  avg # of iterations =  1.1

     negative rho (up, down):  2.353E-04 0.000E+00

     total cpu time spent up to now is      107.0 secs

     total energy              =   -1842.87444476 Ry
     Harris-Foulkes estimate   =   -1842.89166796 Ry
     estimated scf accuracy    <       0.54278008 Ry

     iteration #  7     ecut=    60.00 Ry     beta= 0.50
     Davidson diagonalization with overlap
     ethr =  2.28E-04,  avg # of iterations =  1.1

     negative rho (up, down):  2.339E-04 0.000E+00

     total cpu time spent up to now is      122.0 secs

     total energy              =   -1842.87423961 Ry
     Harris-Foulkes estimate   =   -1842.88243620 Ry
     estimated scf accuracy    <       0.99301698 Ry

     iteration #  8     ecut=    60.00 Ry     beta= 0.50
     Davidson diagonalization with overlap
     ethr =  2.28E-04,  avg # of iterations =  1.0

     negative rho (up, down):  2.329E-04 0.000E+00

     total cpu time spent up to now is      136.2 secs

     total energy              =   -1842.86911866 Ry
     Harris-Foulkes estimate   =   -1842.87833272 Ry
     estimated scf accuracy    <       0.57002765 Ry

     iteration #  9     ecut=    60.00 Ry     beta= 0.50
     Davidson diagonalization with overlap
     ethr =  2.28E-04,  avg # of iterations =  1.0

     negative rho (up, down):  2.340E-04 0.000E+00

     total cpu time spent up to now is      150.7 secs

     total energy              =   -1842.86781998 Ry
     Harris-Foulkes estimate   =   -1842.87221626 Ry
     estimated scf accuracy    <       0.17640881 Ry

     iteration # 10     ecut=    60.00 Ry     beta= 0.50
     Davidson diagonalization with overlap
     ethr =  7.77E-05,  avg # of iterations =  5.1

     negative rho (up, down):  2.364E-04 0.000E+00

     total cpu time spent up to now is      170.0 secs

     total energy              =   -1842.86386278 Ry
     Harris-Foulkes estimate   =   -1842.86916380 Ry
     estimated scf accuracy    <       0.10401782 Ry

     iteration # 11     ecut=    60.00 Ry     beta= 0.50
     Davidson diagonalization with overlap
     ethr =  4.58E-05,  avg # of iterations =  6.7

     negative rho (up, down):  2.372E-04 0.000E+00

     total cpu time spent up to now is      191.2 secs

     total energy              =   -1842.86321539 Ry
     Harris-Foulkes estimate   =   -1842.86515782 Ry
     estimated scf accuracy    <       0.04714082 Ry

     iteration # 12     ecut=    60.00 Ry     beta= 0.50
     Davidson diagonalization with overlap
     ethr =  2.08E-05,  avg # of iterations =  4.7

     negative rho (up, down):  2.364E-04 0.000E+00

     total cpu time spent up to now is      209.8 secs

     total energy              =   -1842.86241849 Ry
     Harris-Foulkes estimate   =   -1842.86357736 Ry
     estimated scf accuracy    <       0.03656551 Ry

     iteration # 13     ecut=    60.00 Ry     beta= 0.50
     Davidson diagonalization with overlap
     ethr =  1.61E-05,  avg # of iterations =  2.1

     negative rho (up, down):  1.577E-03 0.000E+00

     total cpu time spent up to now is      225.2 secs

     total energy              =   -1842.86102013 Ry
     Harris-Foulkes estimate   =   -1842.86257391 Ry
     estimated scf accuracy    <       0.03560296 Ry

     iteration # 14     ecut=    60.00 Ry     beta= 0.50
     Davidson diagonalization with overlap
     ethr =  1.57E-05,  avg # of iterations =  4.0

     negative rho (up, down):  3.651E-03 0.000E+00

     total cpu time spent up to now is      243.0 secs

     total energy              =   -1842.86043005 Ry
     Harris-Foulkes estimate   =   -1842.86124531 Ry
     estimated scf accuracy    <       0.03594721 Ry

     iteration # 15     ecut=    60.00 Ry     beta= 0.50
     Davidson diagonalization with overlap
     ethr =  1.57E-05,  avg # of iterations =  2.0

     negative rho (up, down):  1.302E-02 0.000E+00

     total cpu time spent up to now is      258.3 secs

     total energy              =   -1842.85937645 Ry
     Harris-Foulkes estimate   =   -1842.86054544 Ry
     estimated scf accuracy    <       0.04033243 Ry

     iteration # 16     ecut=    60.00 Ry     beta= 0.50
     Davidson diagonalization with overlap
     ethr =  1.57E-05,  avg # of iterations =  5.6

     negative rho (up, down):  2.031E-02 0.000E+00

     total cpu time spent up to now is      278.3 secs

     total energy              =   -1842.85835890 Ry
     Harris-Foulkes estimate   =   -1842.85950898 Ry
     estimated scf accuracy    <       0.02866049 Ry

     iteration # 17     ecut=    60.00 Ry     beta= 0.50
     Davidson diagonalization with overlap
     ethr =  1.26E-05,  avg # of iterations =  5.4

     negative rho (up, down):  2.005E-02 0.000E+00

     total cpu time spent up to now is      298.4 secs

     total energy              =   -1842.85747445 Ry
     Harris-Foulkes estimate   =   -1842.85845021 Ry
     estimated scf accuracy    <       0.01754800 Ry

     iteration # 18     ecut=    60.00 Ry     beta= 0.50
     Davidson diagonalization with overlap
     ethr =  7.73E-06,  avg # of iterations =  8.4

     negative rho (up, down):  1.723E-02 0.000E+00

     total cpu time spent up to now is      322.5 secs

     total energy              =   -1842.85732337 Ry
     Harris-Foulkes estimate   =   -1842.85759857 Ry
     estimated scf accuracy    <       0.00576633 Ry

     iteration # 19     ecut=    60.00 Ry     beta= 0.50
     Davidson diagonalization with overlap
     c_bands:  1 eigenvalues not converged
     ethr =  2.54E-06,  avg # of iterations =  9.6

     negative rho (up, down):  1.101E-02 0.000E+00

     total cpu time spent up to now is      347.9 secs

     total energy              =   -1842.85722251 Ry
     Harris-Foulkes estimate   =   -1842.85738870 Ry
     estimated scf accuracy    <       0.00153253 Ry

     iteration # 20     ecut=    60.00 Ry     beta= 0.50
     Davidson diagonalization with overlap
     ethr =  6.75E-07,  avg # of iterations =  4.8

     negative rho (up, down):  5.481E-03 0.000E+00

     total cpu time spent up to now is      366.9 secs

     total energy              =   -1842.85716831 Ry
     Harris-Foulkes estimate   =   -1842.85726030 Ry
     estimated scf accuracy    <       0.00029668 Ry

     iteration # 21     ecut=    60.00 Ry     beta= 0.50
     Davidson diagonalization with overlap
     ethr =  1.31E-07,  avg # of iterations =  7.5

     negative rho (up, down):  2.313E-03 0.000E+00

     total cpu time spent up to now is      389.3 secs

     total energy              =   -1842.85712616 Ry
     Harris-Foulkes estimate   =   -1842.85718457 Ry
     estimated scf accuracy    <       0.00013011 Ry

     iteration # 22     ecut=    60.00 Ry     beta= 0.50
     Davidson diagonalization with overlap
     c_bands:  1 eigenvalues not converged
     c_bands:  1 eigenvalues not converged
     ethr =  5.73E-08,  avg # of iterations =  8.9

     negative rho (up, down):  1.446E-03 0.000E+00

     total cpu time spent up to now is      413.6 secs

     total energy              =   -1842.85714294 Ry
     Harris-Foulkes estimate   =   -1842.85713310 Ry
     estimated scf accuracy    <       0.00003695 Ry

     iteration # 23     ecut=    60.00 Ry     beta= 0.50
     Davidson diagonalization with overlap
     c_bands:  1 eigenvalues not converged
     ethr =  1.63E-08,  avg # of iterations =  5.8

     negative rho (up, down):  1.701E-03 0.000E+00

     total cpu time spent up to now is      433.5 secs

     total energy              =   -1842.85714495 Ry
     Harris-Foulkes estimate   =   -1842.85714511 Ry
     estimated scf accuracy    <       0.00001246 Ry

     iteration # 24     ecut=    60.00 Ry     beta= 0.50
     Davidson diagonalization with overlap
     ethr =  5.49E-09,  avg # of iterations =  1.6

     negative rho (up, down):  1.618E-03 0.000E+00

     total cpu time spent up to now is      448.4 secs

     total energy              =   -1842.85714528 Ry
     Harris-Foulkes estimate   =   -1842.85714552 Ry
     estimated scf accuracy    <       0.00000758 Ry

     iteration # 25     ecut=    60.00 Ry     beta= 0.50
     Davidson diagonalization with overlap
     ethr =  3.34E-09,  avg # of iterations =  1.2

     negative rho (up, down):  1.481E-03 0.000E+00

     total cpu time spent up to now is      463.0 secs

     total energy              =   -1842.85714520 Ry
     Harris-Foulkes estimate   =   -1842.85714566 Ry
     estimated scf accuracy    <       0.00000642 Ry

     iteration # 26     ecut=    60.00 Ry     beta= 0.50
     Davidson diagonalization with overlap
     ethr =  2.83E-09,  avg # of iterations =  1.0

     negative rho (up, down):  1.555E-03 0.000E+00

     total cpu time spent up to now is      477.4 secs

     total energy              =   -1842.85714521 Ry
     Harris-Foulkes estimate   =   -1842.85714542 Ry
     estimated scf accuracy    <       0.00000144 Ry

     iteration # 27     ecut=    60.00 Ry     beta= 0.50
     Davidson diagonalization with overlap
     ethr =  6.35E-10,  avg # of iterations =  2.5

     negative rho (up, down):  1.600E-03 0.000E+00

     total cpu time spent up to now is      493.2 secs

     total energy              =   -1842.85714518 Ry
     Harris-Foulkes estimate   =   -1842.85714531 Ry
     estimated scf accuracy    <       0.00000103 Ry

     iteration # 28     ecut=    60.00 Ry     beta= 0.50
     Davidson diagonalization with overlap
     ethr =  4.54E-10,  avg # of iterations =  1.2

     negative rho (up, down):  1.599E-03 0.000E+00

     total cpu time spent up to now is      507.5 secs

     total energy              =   -1842.85714518 Ry
     Harris-Foulkes estimate   =   -1842.85714523 Ry
     estimated scf accuracy    <       0.00000037 Ry

     iteration # 29     ecut=    60.00 Ry     beta= 0.50
     Davidson diagonalization with overlap
     ethr =  1.64E-10,  avg # of iterations =  2.4

     negative rho (up, down):  1.567E-03 0.000E+00

     total cpu time spent up to now is      523.1 secs

     total energy              =   -1842.85714522 Ry
     Harris-Foulkes estimate   =   -1842.85714521 Ry
     estimated scf accuracy    <       0.00000023 Ry

     iteration # 30     ecut=    60.00 Ry     beta= 0.50
     Davidson diagonalization with overlap
     ethr =  1.01E-10,  avg # of iterations =  1.1

     negative rho (up, down):  1.545E-03 0.000E+00

     total cpu time spent up to now is      537.2 secs

     total energy              =   -1842.85714524 Ry
     Harris-Foulkes estimate   =   -1842.85714522 Ry
     estimated scf accuracy    <       0.00000007 Ry

     iteration # 31     ecut=    60.00 Ry     beta= 0.50
     Davidson diagonalization with overlap
     ethr =  2.86E-11,  avg # of iterations =  2.7

     negative rho (up, down):  1.529E-03 0.000E+00

     total cpu time spent up to now is      553.5 secs

     total energy              =   -1842.85714526 Ry
     Harris-Foulkes estimate   =   -1842.85714524 Ry
     estimated scf accuracy    <       0.00000002 Ry

     iteration # 32     ecut=    60.00 Ry     beta= 0.50
     Davidson diagonalization with overlap
     ethr =  8.47E-12,  avg # of iterations =  2.6

     negative rho (up, down):  1.519E-03 0.000E+00

     total cpu time spent up to now is      569.2 secs

     End of self-consistent calculation

          k = 0.0000 0.0000 0.0000 ( 34661 PWs)   bands (ev):

   -35.6125 -35.4851 -23.4922 -22.8150 -22.8147 -22.5699 -17.1168 -16.9649
   -16.6636 -16.6522 -16.5475 -16.5324 -15.3269 -15.2233 -14.9176 -14.6956
   -14.6882 -14.5978 -14.4225 -14.2054 -14.2027 -14.0064 -13.9850 -13.8508
   -13.7389 -13.5890 -13.5620  -8.7188  -8.3746  -8.2694  -7.9464  -7.9447
    -7.9089  -7.9087  -7.7543  -7.7158  -7.7155  -7.6142  -7.4477  -2.3548
    -2.3536  -2.1094  -1.8535  -1.8508  -1.7918  -1.6933  -1.6624  -1.6051
    -1.5663  -1.5073  -1.4823  -1.3302  -1.2460  -1.2443  -1.1274  -0.9114
    -0.6759  -0.6712  -0.4839  -0.4824  -0.4045  -0.3999  -0.3312  -0.3193
    -0.2900  -0.2884  -0.2812  -0.2712  -0.2384  -0.2295  -0.1903  -0.1646
    -0.1612  -0.1500  -0.0627  -0.0607   0.0735   0.0751   0.0751   0.0778
     0.1286   0.1489   0.1759   0.2819   0.2888   0.3001   0.3375   0.3525
     0.5507   0.5644   0.7547   0.8571   0.8580   0.9195   0.9408   1.1580
     1.1996   1.3241   1.3249   1.3503   1.3770   1.4074   1.4861   1.4908
     1.6362   1.7563   1.7975   1.7991   1.9065   1.9119   1.9265   1.9849
     2.0143   2.0844   2.0868   2.2170   2.2222   2.5021   2.5112   5.1593
     5.1930   5.3378   5.9883   6.1109   6.5541   6.7401   6.7484   7.0895
     7.7570   7.9502   8.1014   8.2474   8.3065   8.5102   8.5756   8.7506
     9.0545

          k = 0.0000 0.1320 0.0000 ( 34589 PWs)   bands (ev):

   -35.6106 -35.4832 -23.4708 -22.7883 -22.7881 -22.5445 -17.0807 -16.9285
   -16.7248 -16.6612 -16.6043 -16.5452 -15.2381 -15.1416 -14.8620 -14.7009
   -14.6879 -14.5705 -14.3923 -14.2149 -14.2102 -14.0116 -13.9998 -13.8970
   -13.7837 -13.6316 -13.6117  -8.7081  -8.3366  -8.3146  -7.9459  -7.9447
    -7.8610  -7.8609  -7.7590  -7.7574  -7.7506  -7.5691  -7.4958  -2.4121
    -2.4117  -2.2162  -2.1793  -2.1486  -2.0417  -1.9299  -1.7441  -1.6728
    -1.6698  -1.6685  -1.6450  -1.5487  -1.3688  -1.3162  -1.3141  -1.1673
    -0.7216  -0.6641  -0.6510  -0.5813  -0.5798  -0.5777  -0.5764  -0.4868
    -0.4846  -0.3651  -0.2394  -0.2354  -0.2072  -0.1902  -0.1733  -0.1718
    -0.1282  -0.0848  -0.0415  -0.0393  -0.0180   0.0228   0.0975   0.0985
     0.1288   0.1518   0.2267   0.2541   0.2848   0.3439   0.3663   0.4476
     0.6231   0.7021   0.8926   1.0113   1.0209   1.0549   1.0552   1.1161
     1.1273   1.1604   1.3409   1.3746   1.3896   1.4811   1.4891   1.4898
     1.6304   1.6691   1.7389   1.7412   1.7837   1.8623   1.9443   1.9591
     1.9791   1.9966   2.2128   2.3478   2.7443   2.7902   2.8182   5.5491
     5.5689   5.6524   6.3040   6.4519   6.7709   7.0441   7.0482   7.3709
     7.9077   8.1213   8.2760   8.3839   8.5225   8.6081   8.7383   8.9261
     9.1539

          k = 0.0000 0.2640 0.0000 ( 34465 PWs)   bands (ev):

   -35.6062 -35.4788 -23.4182 -22.7224 -22.7222 -22.4818 -16.9886 -16.8791
   -16.8361 -16.7573 -16.6556 -16.5395 -15.0379 -14.9734 -14.7502 -14.7146
   -14.7109 -14.5092 -14.3204 -14.2023 -14.1883 -14.0509 -14.0419 -14.0257
   -13.8556 -13.8039 -13.6707  -8.6792  -8.4131  -8.2422  -7.9454  -7.9446
    -7.8485  -7.8480  -7.7467  -7.7406  -7.7405  -7.5997  -7.4559  -2.8581
    -2.8464  -2.7662  -2.6352  -2.4787  -2.4524  -2.4502  -2.3066  -2.3050
    -2.1039  -1.6867  -1.6187  -1.5963  -1.4991  -1.4926  -1.4834  -1.2649
    -1.0068  -0.9783  -0.9777  -0.8476  -0.8318  -0.8305  -0.6757  -0.6685
    -0.5643  -0.5625  -0.5430  -0.5236  -0.5212  -0.5059  -0.4246  -0.3449
    -0.2325  -0.1423  -0.0132  -0.0111   0.0452   0.0701   0.0831   0.1891
     0.2160   0.3506   0.3996   0.4241   0.5912   0.6606   0.6764   0.6992
     0.7540   0.8409   0.9441   1.0133   1.0689   1.1172   1.1398   1.1406
     1.1506   1.1709   1.2460   1.2684   1.3226   1.5513   1.5775   1.5857
     1.6055   1.6884   1.7205   1.8989   1.9106   1.9478   1.9496   1.9597
     2.0344   2.0756   2.3283   2.4762   3.0128   3.0169   3.6355   6.3773
     6.4617   6.4627   7.0298   7.2824   7.4183   7.7620   7.8647   7.8739
     8.2711   8.5920   8.6215   8.7343   8.8908   8.9348   9.0470   9.1233
     9.3531

          k = 0.0000 0.3960 0.0000 ( 34424 PWs)   bands (ev):

   -35.6018 -35.4744 -23.3643 -22.6542 -22.6540 -22.4170 -17.0154 -16.8927
   -16.8869 -16.7342 -16.6499 -16.5338 -14.9583 -14.9516 -14.7085 -14.6277
   -14.5431 -14.4584 -14.2761 -14.1795 -14.1315 -14.1282 -14.1180 -14.0521
   -14.0019 -13.9108 -13.7543  -8.6369  -8.5086  -8.1435  -7.9454  -7.9446
    -7.9266  -7.9261  -7.7414  -7.6902  -7.6121  -7.6120  -7.3359  -3.4990
    -3.3125  -3.3081  -3.0846  -3.0231  -3.0194  -2.9178  -2.3970  -2.3957
    -2.1272  -2.0273  -1.8338  -1.8268  -1.5536  -1.5314  -1.4058  -1.2270
    -1.2221  -1.1867  -1.1667  -1.0999  -1.0958  -1.0062  -0.8874  -0.8591
    -0.8573  -0.7748  -0.7707  -0.7576  -0.7334  -0.5990  -0.5340  -0.3568
    -0.3029  -0.1555  -0.1148   0.0038   0.0059   0.1002   0.1026   0.1448
     0.1893   0.4525   0.4684   0.5317   0.6445   0.7296   0.7550   0.8576
     0.8865   0.9005   0.9069   0.9388   0.9963   1.0626   1.1104   1.1117
     1.1517   1.2988   1.4210   1.5011   1.5938   1.5985   1.6981   1.7227
     1.7399   1.8306   1.9136   1.9241   1.9452   1.9806   2.1224   2.2166
     2.2873   2.3426   2.3438   2.4309   2.9053   2.9110   4.2121   7.0432
     7.2060   7.4099   7.4106   8.1959   8.2441   8.4216   8.4698   8.6556
     8.6672   9.0643   9.0647   9.0980   9.1685   9.2114   9.4128   9.4697
     9.4966

          k = 0.0000-0.5279 0.0000 ( 34482 PWs)   bands (ev):

   -35.6000 -35.4726 -23.3415 -22.6253 -22.6251 -22.3896 -17.0676 -16.9444
   -16.8419 -16.6894 -16.6476 -16.5315 -15.0006 -14.9952 -14.5938 -14.5281
   -14.5229 -14.3547 -14.3016 -14.2640 -14.1537 -14.1140 -14.1043 -14.0965
   -13.9896 -13.9434 -13.8240  -8.5835  -8.5801  -8.1012  -7.9563  -7.9557
    -7.9450  -7.9442  -7.7329  -7.7307  -7.5562  -7.5561  -7.2839  -3.7675
    -3.4911  -3.4876  -3.2623  -3.2535  -3.2400  -3.0876  -2.4131  -2.4118
    -2.1540  -2.1356  -1.9642  -1.9584  -1.5216  -1.4948  -1.3768  -1.3141
    -1.2563  -1.2502  -1.2248  -1.2218  -1.1150  -1.0875  -1.0011  -0.9745
    -0.9607  -0.8626  -0.8612  -0.8496  -0.8088  -0.6749  -0.5258  -0.3235
    -0.2849  -0.2013  -0.1615   0.0095   0.0115   0.1000   0.1092   0.1497
     0.1881   0.3953   0.4550   0.4872   0.5944   0.6076   0.7874   0.8048
     0.8306   0.8863   0.9781   0.9866   1.0055   1.0933   1.0947   1.2508
     1.3161   1.3686   1.4196   1.4541   1.7067   1.7125   1.7162   1.7622
     1.9886   1.9930   1.9969   2.0399   2.0672   2.1187   2.1359   2.1466
     2.1595   2.4235   2.5041   2.5054   2.7258   2.7333   4.3977   6.9632
     7.7821   7.8216   7.8227   7.9763   8.7039   8.8923   8.9341   8.9481
     8.9808   8.9941   9.0841   9.2718   9.2960   9.3538   9.4456   9.6283
     9.8078

          k = 0.1250 0.0000 0.0000 ( 34573 PWs)   bands (ev):

   -35.6114 -35.4840 -23.4781 -22.7969 -22.7967 -22.5527 -17.0834 -16.9309
   -16.7438 -16.6509 -16.6285 -16.5310 -15.2245 -15.1290 -14.9359 -14.7412
   -14.7283 -14.6030 -14.4248 -14.2144 -14.2121 -14.0182 -13.9984 -13.8718
   -13.7905 -13.6035 -13.5997  -8.7451  -8.3211  -8.2444  -7.9721  -7.9708
    -7.8470  -7.8468  -7.7870  -7.6834  -7.6831  -7.5539  -7.4173  -2.3971
    -2.3964  -2.1417  -1.8955  -1.8901  -1.8311  -1.8264  -1.8233  -1.7630
    -1.6079  -1.5822  -1.4770  -1.4348  -1.2439  -1.2422  -1.1448  -0.9383
    -0.7859  -0.6946  -0.6468  -0.6303  -0.5410  -0.5376  -0.4078  -0.3660
    -0.3630  -0.3577  -0.3077  -0.2931  -0.2635  -0.2507  -0.2459  -0.2277
    -0.2062  -0.1623  -0.0775   0.0408   0.0662   0.0678   0.0935   0.1381
     0.1709   0.1710   0.1910   0.2394   0.2506   0.3516   0.3978   0.4462
     0.6291   0.7106   0.7674   0.7753   0.8525   0.9598   0.9935   1.1558
     1.1782   1.1862   1.2999   1.3405   1.3731   1.4165   1.4602   1.5012
     1.5919   1.7952   1.8197   1.8272   1.8845   1.9430   1.9432   1.9655
     2.0843   2.0961   2.1482   2.2440   2.2707   2.5418   2.5464   5.3595
     5.3729   5.5334   6.2257   6.3547   6.7000   6.9521   6.9588   7.2985
     7.8410   8.0934   8.2305   8.4135   8.5318   8.6888   8.7869   8.9707
     9.2081

          k = 0.1250 0.1320 0.0000 ( 34564 PWs)   bands (ev):

   -35.6096 -35.4822 -23.4572 -22.7711 -22.7708 -22.5280 -17.0483 -16.8955
   -16.7469 -16.7140 -16.6304 -16.5947 -15.1432 -15.0569 -14.8784 -14.7357
   -14.7171 -14.5732 -14.3887 -14.2153 -14.2126 -14.0236 -14.0146 -13.9116
   -13.8246 -13.6575 -13.6209  -8.7210  -8.4589  -8.1728  -7.9913  -7.9908
    -7.9092  -7.9085  -7.7820  -7.6490  -7.6453  -7.6446  -7.3768  -2.4489
    -2.4477  -2.2262  -2.1639  -2.1420  -2.0278  -1.9172  -1.8744  -1.8675
    -1.7980  -1.7502  -1.6638  -1.6625  -1.5802  -1.3733  -1.3076  -1.2001
    -0.8319  -0.8144  -0.7755  -0.7024  -0.6974  -0.5952  -0.5875  -0.5510
    -0.5270  -0.5261  -0.4408  -0.2923  -0.2568  -0.2315  -0.2129  -0.1634
    -0.1062  -0.0864  -0.0500  -0.0206  -0.0151   0.0980   0.1262   0.1368
     0.1642   0.1950   0.2415   0.2645   0.2755   0.3061   0.4916   0.5792
     0.6096   0.8583   0.9614   1.0110   1.0117   1.0830   1.1098   1.1889
     1.1964   1.2046   1.2527   1.2725   1.2827   1.3737   1.5472   1.5654
     1.6082   1.6271   1.6376   1.6582   1.6856   1.7329   1.9892   2.0781
     2.3195   2.3242   2.5029   2.5938   2.7601   2.7987   2.8244   5.7031
     5.7112   5.8040   6.5005   6.6475   6.8948   7.2481   7.2509   7.5426
     7.9271   8.2633   8.3967   8.5292   8.6394   8.7202   8.9049   9.0285
     9.2279

          k = 0.1250 0.2640 0.0000 ( 34463 PWs)   bands (ev):

   -35.6052 -35.4777 -23.4060 -22.7072 -22.7070 -22.4671 -16.9591 -16.8760
   -16.8061 -16.7544 -16.7264 -16.6111 -14.9684 -14.9229 -14.7364 -14.7245
   -14.6881 -14.5037 -14.3017 -14.1976 -14.1889 -14.0732 -14.0618 -14.0163
   -13.8721 -13.8005 -13.6699  -8.6769  -8.5959  -8.1667  -8.0603  -8.0601
    -7.9462  -7.9455  -7.7927  -7.7475  -7.6362  -7.6361  -7.3716  -2.8809
    -2.8671  -2.7558  -2.6458  -2.4837  -2.4528  -2.4504  -2.3059  -2.3044
    -2.1170  -1.8254  -1.8217  -1.7619  -1.6586  -1.5362  -1.5024  -1.4913
    -1.0711  -1.0153  -1.0103  -0.9831  -0.9598  -0.8936  -0.8184  -0.7468
    -0.7179  -0.7176  -0.5935  -0.5670  -0.5444  -0.5244  -0.4902  -0.3456
    -0.2523  -0.1582  -0.0885  -0.0598  -0.0432   0.0946   0.1662   0.1857
     0.3273   0.3733   0.4727   0.5469   0.6173   0.7180   0.7214   0.7723
     0.9012   0.9765   0.9965   1.0403   1.0764   1.1623   1.2316   1.2813
     1.3019   1.3161   1.3410   1.3515   1.3758   1.4548   1.5382   1.5494
     1.5788   1.6148   1.6276   1.8481   1.9092   1.9159   1.9396   2.2055
     2.5165   2.5212   2.7342   2.8076   3.0239   3.0310   3.6375   6.4274
     6.5228   6.5237   7.0748   7.3619   7.5229   7.7383   8.0285   8.0323
     8.4349   8.4378   8.7460   8.7941   8.9039   8.9742   9.0792   9.1132
     9.1609

          k = 0.1250 0.3960 0.0000 ( 34482 PWs)   bands (ev):

   -35.6008 -35.4733 -23.3535 -22.6413 -22.6410 -22.4043 -17.0103 -16.8876
   -16.8604 -16.7179 -16.7072 -16.6026 -14.9234 -14.9183 -14.6344 -14.5640
   -14.5344 -14.4424 -14.2532 -14.1683 -14.1587 -14.1238 -14.1094 -14.0771
   -13.9757 -13.9034 -13.7397  -8.6999  -8.5914  -8.2163  -8.0908  -8.0903
    -7.9577  -7.9570  -7.8439  -7.7467  -7.6813  -7.6812  -7.4115  -3.4876
    -3.3536  -3.3465  -3.1136  -3.0147  -3.0110  -2.9380  -2.4052  -2.4039
    -2.1437  -1.9673  -1.8159  -1.8125  -1.6776  -1.6607  -1.6050  -1.4438
    -1.3576  -1.3240  -1.2883  -1.2021  -1.1474  -1.1443  -1.0277  -0.9377
    -0.8975  -0.8951  -0.8596  -0.8134  -0.7787  -0.7211  -0.5213  -0.3956
    -0.3435  -0.2085  -0.1009  -0.0629  -0.0113   0.1332   0.1778   0.1839
     0.3784   0.4050   0.5580   0.6479   0.7132   0.8763   0.8785   0.9306
     0.9933   1.0356   1.0372   1.0867   1.1213   1.1617   1.2044   1.2130
     1.2632   1.3683   1.4748   1.6229   1.6554   1.6663   1.6950   1.7278
     1.8216   1.8949   1.9138   1.9594   2.0676   2.3099   2.3109   2.3330
     2.4643   2.4714   2.6785   2.7369   2.9656   2.9779   4.2025   6.7755
     7.2674   7.2749   7.2843   8.0930   8.1481   8.2001   8.3942   8.6373
     8.6457   8.8763   9.0543   9.2272   9.3512   9.4394   9.5070   9.5736
     9.6065

          k = 0.1250-0.5279 0.0000 ( 34444 PWs)   bands (ev):

   -35.5989 -35.4715 -23.3313 -22.6133 -22.6131 -22.3777 -17.0619 -16.9389
   -16.8170 -16.7141 -16.6638 -16.5990 -14.9559 -14.9510 -14.5212 -14.4833
   -14.4672 -14.3529 -14.2850 -14.2425 -14.1866 -14.1008 -14.0973 -14.0775
   -14.0126 -13.9241 -13.7968  -8.7044  -8.5813  -8.2449  -8.0854  -8.0849
    -7.9626  -7.9618  -7.8542  -7.7450  -7.7156  -7.7154  -7.4373  -3.7573
    -3.5398  -3.5334  -3.2915  -3.2444  -3.2393  -3.1143  -2.4262  -2.4250
    -2.1530  -2.0617  -1.8459  -1.8415  -1.6334  -1.6219  -1.5391  -1.5166
    -1.4897  -1.3775  -1.3751  -1.3240  -1.2343  -1.2199  -1.1865  -0.9842
    -0.9747  -0.9701  -0.9653  -0.9017  -0.8748  -0.8264  -0.5092  -0.3876
    -0.3383  -0.2240  -0.1101  -0.0480   0.0136   0.1444   0.1881   0.1897
     0.3779   0.4195   0.5878   0.6171   0.6975   0.7791   0.9066   0.9191
     0.9292   0.9318   0.9997   1.1012   1.1537   1.2374   1.2481   1.3154
     1.3972   1.4015   1.4409   1.6678   1.7536   1.7997   1.9816   1.9974
     2.0058   2.0145   2.1151   2.1348   2.1845   2.3220   2.3251   2.4095
     2.4751   2.4763   2.5278   2.5867   2.8446   2.8610   4.3841   6.6918
     7.4940   7.4963   7.7051   7.9348   8.2801   8.3673   8.5112   9.0088
     9.0859   9.2195   9.2812   9.3032   9.4628   9.7239   9.7842   9.7973
     9.8904

          k = 0.2500 0.0000 0.0000 ( 34590 PWs)   bands (ev):

   -35.6087 -35.4813 -23.4437 -22.7526 -22.7524 -22.5104 -16.9982 -16.9079
   -16.8441 -16.7936 -16.6476 -16.5276 -15.0260 -14.9902 -14.9875 -14.8235
   -14.7723 -14.6267 -14.4350 -14.2285 -14.2272 -14.0654 -14.0304 -13.9348
   -13.8925 -13.6861 -13.6283  -8.7691  -8.2332  -8.1828  -7.9736  -7.9726
    -7.8083  -7.7603  -7.7603  -7.6026  -7.6024  -7.4701  -7.3418  -2.5895
    -2.5875  -2.3802  -2.2338  -2.2331  -2.1032  -2.0510  -1.7706  -1.7573
    -1.6732  -1.5138  -1.4973  -1.4428  -1.2406  -1.2389  -1.1946  -1.0098
    -1.0040  -0.9335  -0.8858  -0.7939  -0.7929  -0.7788  -0.6652  -0.5923
    -0.5581  -0.5546  -0.4903  -0.4702  -0.3421  -0.3099  -0.2748  -0.2731
    -0.2624  -0.2210  -0.1377  -0.1110   0.0535   0.0551   0.1513   0.1586
     0.1662   0.2982   0.3002   0.4256   0.4322   0.4725   0.5267   0.5750
     0.6371   0.6555   0.7635   0.8561   0.9087   0.9456   0.9956   1.0077
     1.2544   1.2688   1.2828   1.2991   1.3896   1.4165   1.4367   1.5266
     1.6369   1.6396   1.6803   1.8410   1.8580   1.9331   2.0043   2.0286
     2.0568   2.1062   2.2869   2.4477   2.5052   2.6487   2.6540   5.8281
     5.8301   6.0211   6.8330   6.9829   7.1043   7.5236   7.5325   7.7506
     8.0098   8.4598   8.4949   8.6865   8.8934   9.0712   9.2526   9.3475
     9.4127

          k = 0.2500 0.1320 0.0000 ( 34551 PWs)   bands (ev):

   -35.6069 -35.4795 -23.4241 -22.7288 -22.7285 -22.4875 -16.9661 -16.9014
   -16.8120 -16.7869 -16.7137 -16.5934 -14.9754 -14.9490 -14.9265 -14.7746
   -14.7207 -14.5914 -14.3886 -14.2145 -14.2144 -14.0641 -14.0435 -13.9491
   -13.9156 -13.7123 -13.6435  -8.7470  -8.4841  -8.1080  -8.0421  -8.0418
    -7.8971  -7.8965  -7.8317  -7.6498  -7.5690  -7.5689  -7.3082  -2.6395
    -2.6334  -2.4178  -2.2267  -2.2244  -2.1470  -2.1175  -2.0784  -2.0474
    -1.9728  -1.8454  -1.7646  -1.6545  -1.6530  -1.4346  -1.3822  -1.2964
    -1.0484  -1.0427  -0.9998  -0.9329  -0.9062  -0.8376  -0.7436  -0.6588
    -0.6395  -0.6339  -0.5815  -0.4960  -0.4117  -0.3636  -0.3282  -0.2400
    -0.2233  -0.0564  -0.0517  -0.0123   0.0135   0.0756   0.1265   0.1717
     0.1841   0.2995   0.3062   0.3416   0.4726   0.5812   0.6241   0.7529
     0.8316   0.8794   0.8885   0.9308   1.0271   1.0371   1.1344   1.1602
     1.1941   1.2271   1.3523   1.3814   1.4035   1.4519   1.4562   1.4943
     1.5199   1.6102   1.6542   1.7075   1.7117   1.8957   1.9572   2.1369
     2.6390   2.6545   2.8100   2.8340   2.8438   2.8934   2.9822   6.0900
     6.0913   6.1783   7.0116   7.1677   7.2324   7.7167   7.7878   7.7998
     8.2066   8.5771   8.5906   8.6310   8.8249   9.0270   9.1487   9.2105
     9.3532

          k = 0.2500 0.2640 0.0000 ( 34523 PWs)   bands (ev):

   -35.6026 -35.4751 -23.3762 -22.6701 -22.6698 -22.4312 -16.9017 -16.8775
   -16.8502 -16.7808 -16.7323 -16.7262 -14.8858 -14.8776 -14.7547 -14.6349
   -14.5907 -14.5032 -14.2659 -14.1893 -14.1874 -14.1143 -14.0905 -13.9964
   -13.9151 -13.7917 -13.6703  -8.7981  -8.6694  -8.2623  -8.2621  -8.2233
    -7.9894  -7.9588  -7.9582  -7.7589  -7.6888  -7.6886  -7.4311  -3.0182
    -2.9949  -2.7679  -2.7032  -2.5320  -2.4659  -2.4629  -2.3381  -2.3371
    -2.2441  -2.1950  -2.1936  -2.0437  -1.9999  -1.6381  -1.4762  -1.4492
    -1.4460  -1.4373  -1.3075  -1.1724  -1.1010  -0.9701  -0.9426  -0.8270
    -0.7584  -0.7491  -0.6462  -0.6260  -0.6184  -0.6001  -0.5345  -0.4273
    -0.3698  -0.3290  -0.2694  -0.0072   0.0349   0.0736   0.2937   0.3168
     0.4881   0.5187   0.5878   0.7535   0.7712   0.8175   0.8835   0.9340
     0.9365   1.1136   1.1840   1.2299   1.2589   1.3081   1.3298   1.3629
     1.4227   1.4515   1.4592   1.4920   1.5025   1.5687   1.5916   1.6294
     1.6307   1.6650   1.6687   1.8309   1.8329   1.9386   2.0462   2.2574
     2.9602   2.9624   3.2467   3.2579   3.3954   3.5024   3.6456   6.3669
     6.6330   6.6336   7.1918   7.5588   7.6676   7.7687   8.3194   8.3204
     8.4975   8.7112   8.8185   8.9632   9.0248   9.1646   9.2684   9.3109
     9.3656

          k = 0.2500 0.3960 0.0000 ( 34490 PWs)   bands (ev):

   -35.5982 -35.4708 -23.3272 -22.6096 -22.6094 -22.3733 -16.9982 -16.8758
   -16.8659 -16.7917 -16.7509 -16.6383 -14.8421 -14.8395 -14.5294 -14.4657
   -14.4493 -14.4033 -14.2396 -14.2075 -14.1232 -14.1165 -14.1063 -14.0746
   -13.9230 -13.8762 -13.7021  -8.9593  -8.6154  -8.4394  -8.3823  -8.3819
    -8.1201  -8.0091  -8.0086  -7.9027  -7.9024  -7.7769  -7.6480  -3.5207
    -3.4938  -3.4542  -3.2292  -3.0265  -2.9903  -2.9897  -2.4763  -2.4755
    -2.2626  -2.1586  -2.1536  -2.0256  -1.9474  -1.8648  -1.7979  -1.7930
    -1.6094  -1.5225  -1.4741  -1.4424  -1.3163  -1.1848  -1.1751  -0.9068
    -0.8560  -0.8372  -0.8245  -0.8188  -0.7862  -0.7383  -0.5708  -0.5120
    -0.5030  -0.4303  -0.3376   0.0466   0.1145   0.1633   0.3310   0.3806
     0.6245   0.6306   0.8288   0.9523   0.9535   0.9805   1.0489   1.2206
     1.2565   1.2605   1.2898   1.2975   1.4008   1.4315   1.4604   1.4808
     1.5310   1.5768   1.6087   1.6964   1.7208   1.7490   1.7801   1.8463
     1.8735   1.9110   1.9311   1.9954   2.1719   2.2315   2.2325   2.3576
     2.7916   2.7946   3.4761   3.4978   3.6323   3.7241   4.1756   6.1393
     6.8406   6.8414   7.3042   7.7039   7.8357   8.0559   8.4792   8.7704
     8.7823   8.9785   9.1414   9.3494   9.6545   9.7150   9.7543   9.8344
     9.8754

          k = 0.2500-0.5279 0.0000 ( 34528 PWs)   bands (ev):

   -35.5964 -35.4690 -23.3065 -22.5841 -22.5839 -22.3489 -17.0484 -16.9256
   -16.8604 -16.7522 -16.7456 -16.5988 -14.8389 -14.8356 -14.3884 -14.3877
   -14.3764 -14.3491 -14.2512 -14.2501 -14.1851 -14.0935 -14.0918 -14.0306
   -13.9940 -13.8726 -13.7294  -8.9922  -8.5905  -8.5556  -8.3825  -8.3819
    -8.1418  -8.0972  -8.0972  -7.9689  -7.9682  -7.7926  -7.7565  -3.7463
    -3.7004  -3.6935  -3.4223  -3.2290  -3.2179  -3.2081  -2.4837  -2.4829
    -2.2488  -2.1207  -2.1157  -2.0074  -1.9877  -1.9551  -1.9220  -1.8938
    -1.7007  -1.6494  -1.5084  -1.4746  -1.3875  -1.2715  -1.2645  -0.9718
    -0.9375  -0.8942  -0.8526  -0.8393  -0.8331  -0.8210  -0.5847  -0.5315
    -0.5083  -0.4413  -0.3443   0.0554   0.1430   0.2015   0.3438   0.4167
     0.6638   0.7177   0.9422   1.0081   1.0566   1.0569   1.0650   1.1698
     1.1966   1.2039   1.3373   1.4230   1.4292   1.4493   1.4779   1.5163
     1.5202   1.6423   1.6819   1.8512   1.8862   1.9274   1.9661   1.9959
     2.0117   2.0483   2.0839   2.1066   2.2987   2.3949   2.4073   2.4083
     2.5692   2.5733   3.4962   3.5232   3.6675   3.7556   4.3407   5.9818
     6.8041   6.8064   7.3275   7.6814   7.9383   8.1800   8.3186   8.9311
     9.1347   9.2259   9.4936   9.5047   9.7020   9.8341   9.9196  10.0517
    10.0744

          k = 0.3750 0.0000 0.0000 ( 34518 PWs)   bands (ev):

   -35.6061 -35.4787 -23.4086 -22.7072 -22.7069 -22.4672 -17.0477 -16.9339
   -16.9030 -16.7471 -16.6442 -16.5243 -15.0727 -15.0637 -15.0549 -14.6779
   -14.6535 -14.6296 -14.3983 -14.2407 -14.2339 -14.1755 -14.0881 -14.0255
   -13.9433 -13.7482 -13.6634  -8.7617  -8.1808  -8.1193  -7.9561  -7.9552
    -7.7983  -7.6955  -7.6954  -7.5183  -7.5179  -7.4215  -7.2630  -2.9172
    -2.9136  -2.7384  -2.5007  -2.3569  -2.3557  -2.0890  -1.6888  -1.6618
    -1.6072  -1.5661  -1.5281  -1.4068  -1.2566  -1.2422  -1.2405  -1.2181
    -1.0905  -1.0426  -1.0363  -1.0052  -0.9327  -0.9216  -0.9088  -0.7991
    -0.7580  -0.7547  -0.7059  -0.6693  -0.4685  -0.4305  -0.2959  -0.2767
    -0.2693  -0.2582  -0.1871  -0.1764   0.0407   0.0423   0.1006   0.1481
     0.1554   0.3767   0.3792   0.4013   0.4030   0.4329   0.5033   0.5404
     0.7047   0.7308   0.7789   0.8587   0.8716   1.0243   1.1593   1.1595
     1.1984   1.2595   1.3233   1.3361   1.4057   1.4230   1.4891   1.5263
     1.6260   1.7292   1.7429   1.7790   1.8873   1.9320   1.9930   2.1150
     2.1365   2.1443   2.3298   2.5496   2.5518   2.7632   2.7762   6.4776
     6.4795   6.5035   7.3096   7.6557   7.7447   7.9721   7.9752   7.9955
     8.4505   8.5185   8.6525   9.0055   9.2974   9.4149   9.4684   9.5183
     9.5715

          k = 0.3750 0.1320 0.0000 ( 34583 PWs)   bands (ev):

   -35.6043 -35.4769 -23.3904 -22.6855 -22.6852 -22.4462 -17.0391 -16.9253
   -16.8738 -16.7178 -16.7087 -16.5885 -15.0221 -15.0166 -14.9864 -14.6374
   -14.6094 -14.5687 -14.3449 -14.2123 -14.2104 -14.1515 -14.0816 -14.0086
   -13.9746 -13.7536 -13.6765  -8.7428  -8.4222  -8.1650  -8.0136  -8.0132
    -7.8588  -7.8584  -7.8243  -7.6080  -7.6077  -7.6006  -7.3561  -2.9790
    -2.9706  -2.7824  -2.5261  -2.3557  -2.3545  -2.1134  -2.0585  -2.0462
    -1.8862  -1.7793  -1.7635  -1.6431  -1.6415  -1.5018  -1.4604  -1.3691
    -1.3365  -1.3332  -1.2253  -1.0920  -1.0091  -0.9078  -0.8479  -0.8160
    -0.7572  -0.7116  -0.6427  -0.6027  -0.5816  -0.4430  -0.4340  -0.2935
    -0.2901  -0.0837  -0.0731   0.0182   0.0933   0.1010   0.1399   0.1624
     0.1716   0.3301   0.3993   0.4155   0.4207   0.6419   0.6584   0.7676
     0.7986   0.8505   0.9329   0.9969   1.0843   1.1011   1.1598   1.1885
     1.2289   1.2874   1.3346   1.3417   1.4293   1.4925   1.5142   1.5553
     1.6743   1.7180   1.7232   1.7658   1.8289   1.9359   2.0744   2.1366
     2.7154   2.7248   2.8403   2.9279   2.9462   3.1063   3.1596   6.4653
     6.6283   6.6290   7.3319   7.6898   7.7933   7.9471   8.0402   8.0407
     8.4706   8.6165   8.7370   8.8756   9.1959   9.3306   9.4237   9.4766
     9.6105

          k = 0.3750 0.2640 0.0000 ( 34595 PWs)   bands (ev):

   -35.6000 -35.4725 -23.3459 -22.6322 -22.6319 -22.3946 -17.0188 -16.9049
   -16.8531 -16.7986 -16.7312 -16.6436 -14.8993 -14.8961 -14.7915 -14.5418
   -14.5072 -14.4193 -14.2309 -14.1722 -14.1541 -14.1392 -14.0852 -14.0197
   -13.9479 -13.7818 -13.6848  -8.8540  -8.6657  -8.4176  -8.3150  -8.3147
    -8.0458  -7.9935  -7.9931  -7.8712  -7.8708  -7.7720  -7.6310  -3.2946
    -3.2651  -3.0211  -2.7464  -2.6958  -2.5259  -2.5223  -2.4070  -2.4063
    -2.3815  -2.2776  -2.2754  -2.2480  -2.0761  -1.8046  -1.7668  -1.6490
    -1.5730  -1.4563  -1.2848  -1.2600  -1.1041  -0.9706  -0.9561  -0.9015
    -0.8798  -0.8397  -0.6908  -0.6809  -0.6728  -0.6552  -0.5194  -0.5142
    -0.4219  -0.3971  -0.3442   0.0235   0.0769   0.2406   0.3747   0.4264
     0.6047   0.6316   0.6787   0.7914   0.8053   0.9801   0.9822   1.0876
     1.1454   1.1772   1.2126   1.2173   1.3750   1.3796   1.4189   1.4365
     1.4976   1.5364   1.5847   1.6136   1.6459   1.6672   1.7138   1.7269
     1.7364   1.7804   1.7876   1.8021   1.9133   2.0466   2.1436   2.1808
     2.9602   2.9639   3.6421   3.7033   3.7067   3.8286   3.9197   6.0881
     6.6738   6.6744   7.2451   7.6071   7.7575   7.9434   8.3794   8.3867
     8.7875   8.8863   9.1223   9.1458   9.3503   9.3960   9.4673   9.6664
     9.7531

          k = 0.3750 0.3960 0.0000 ( 34549 PWs)   bands (ev):

   -35.5957 -35.4682 -23.3005 -22.5775 -22.5773 -22.3418 -17.0015 -16.9798
   -16.8864 -16.8590 -16.7189 -16.5636 -14.7643 -14.7628 -14.5308 -14.4497
   -14.4154 -14.2627 -14.2537 -14.2089 -14.1053 -14.1026 -14.0275 -14.0181
   -13.9227 -13.8124 -13.6684  -9.1654  -8.7173  -8.6139  -8.5808  -8.5803
    -8.3191  -8.2458  -8.2458  -7.9961  -7.9952  -7.9378  -7.7996  -3.7740
    -3.7378  -3.4841  -3.3985  -3.2036  -2.9712  -2.9696  -2.6577  -2.6560
    -2.4965  -2.3264  -2.3041  -2.3039  -2.1171  -2.0863  -2.0727  -1.8746
    -1.7553  -1.7095  -1.3343  -1.2377  -1.2344  -1.2331  -1.2238  -0.9850
    -0.9753  -0.8937  -0.8860  -0.8272  -0.7442  -0.7182  -0.7038  -0.5951
    -0.4779  -0.4210  -0.4178   0.1135   0.2284   0.2903   0.4512   0.6058
     0.8199   0.9349   1.0372   1.1305   1.1328   1.2273   1.2543   1.3279
     1.3581   1.4492   1.4573   1.4620   1.5508   1.6016   1.6566   1.6924
     1.7178   1.7273   1.7608   1.8453   1.8568   1.8887   1.9117   1.9317
     1.9778   2.0108   2.0407   2.1076   2.1534   2.1543   2.3772   2.3923
     2.7795   2.7855   4.1209   4.2211   4.2314   4.3084   4.3973   5.5718
     6.3703   6.3713   7.0394   7.3444   7.8324   7.9359   8.6883   8.8690
     8.9583   8.9931   9.3372   9.4749   9.4997   9.5477   9.5865   9.6974
     9.8993

          k = 0.3750-0.5279 0.0000 ( 34580 PWs)   bands (ev):

   -35.5939 -35.4664 -23.2814 -22.5545 -22.5542 -22.3196 -17.0350 -16.9889
   -16.9125 -16.8751 -16.6835 -16.5284 -14.7030 -14.7022 -14.4225 -14.3865
   -14.3470 -14.3103 -14.2276 -14.1721 -14.0959 -14.0856 -14.0837 -13.9708
   -13.9450 -13.7976 -13.6597  -9.2771  -8.8446  -8.6628  -8.6622  -8.5930
    -8.4175  -8.3910  -8.3909  -8.0637  -8.0218  -8.0207  -7.8135  -3.9807
    -3.9439  -3.7295  -3.6228  -3.4057  -3.1964  -3.1949  -2.6762  -2.6746
    -2.5077  -2.3279  -2.2981  -2.2978  -2.2243  -2.1845  -2.0867  -1.9570
    -1.8560  -1.7575  -1.4044  -1.3451  -1.3371  -1.2646  -1.2615  -0.9841
    -0.9796  -0.9795  -0.9673  -0.9106  -0.8188  -0.7797  -0.6981  -0.5964
    -0.4643  -0.4076  -0.4051   0.1460   0.2674   0.3045   0.4738   0.6881
     0.8896   1.0670   1.2117   1.2424   1.2532   1.2784   1.3222   1.3287
     1.3655   1.5161   1.5669   1.6313   1.6675   1.6847   1.7197   1.7374
     1.7738   1.8442   1.8488   1.9700   1.9824   2.0182   2.0311   2.0487
     2.1190   2.1571   2.1635   2.2580   2.3421   2.3447   2.4481   2.5345
     2.5374   2.5433   4.2359   4.3648   4.3865   4.4561   4.5398   5.3546
     6.1928   6.1937   6.9440   7.2553   7.8126   7.9528   8.5967   8.7637
     9.1063   9.1271   9.3419   9.4688   9.5531   9.7440   9.8165   9.8384
     9.8606

          k =-0.5000 0.0000 0.0000 ( 34514 PWs)   bands (ev):

   -35.6050 -35.4776 -23.3939 -22.6880 -22.6878 -22.4489 -17.1001 -16.9865
   -16.8608 -16.7039 -16.6429 -16.5229 -15.1288 -15.1194 -15.0877 -14.6968
   -14.6290 -14.4183 -14.3474 -14.2632 -14.2519 -14.2226 -14.1725 -14.0687
   -13.9567 -13.7687 -13.6806  -8.7518  -8.1674  -8.0924  -7.9458  -7.9449
    -7.7879  -7.6724  -7.6723  -7.4821  -7.4818  -7.4082  -7.2294  -3.0592
    -3.0560  -2.8830  -2.6546  -2.3819  -2.3806  -2.0867  -1.6789  -1.6460
    -1.6411  -1.6055  -1.4017  -1.3135  -1.2990  -1.2856  -1.2460  -1.2444
    -1.2005  -1.1796  -1.1252  -1.0217  -1.0026  -0.9443  -0.9237  -0.8648
    -0.8398  -0.8382  -0.8050  -0.7782  -0.5305  -0.4844  -0.3036  -0.2817
    -0.2701  -0.2451  -0.2419  -0.1953   0.0353   0.0369   0.1035   0.1112
     0.1224   0.3767   0.3786   0.4019   0.4035   0.4251   0.4730   0.5043
     0.6184   0.7936   0.8398   0.8445   0.8901   1.0684   1.1088   1.1093
     1.3367   1.3439   1.3475   1.3534   1.3704   1.4414   1.5658   1.6225
     1.6276   1.6293   1.6810   1.8429   1.9280   2.0125   2.0779   2.1276
     2.1497   2.1506   2.3381   2.5318   2.5569   2.7896   2.8109   6.7118
     7.2523   7.2525   7.2956   7.3045   7.3094   7.9780   8.2425   8.5065
     8.5202   8.5977   8.9915   9.0479   9.4211   9.4300   9.5321   9.5564
     9.5901

          k =-0.5000 0.1320 0.0000 ( 34570 PWs)   bands (ev):

   -35.6032 -35.4758 -23.3763 -22.6672 -22.6670 -22.4287 -17.0909 -16.9773
   -16.8333 -16.7066 -16.6763 -16.5864 -15.0704 -15.0630 -15.0140 -14.6562
   -14.5910 -14.3770 -14.2892 -14.2242 -14.2226 -14.2006 -14.1425 -14.0333
   -13.9944 -13.7668 -13.6952  -8.7312  -8.3119  -8.2850  -7.9847  -7.9841
    -7.8074  -7.8018  -7.8017  -7.6851  -7.6847  -7.5289  -7.4432  -3.1275
    -3.1196  -2.9348  -2.6859  -2.3868  -2.3856  -2.1228  -2.0291  -2.0114
    -1.8300  -1.7557  -1.7351  -1.6378  -1.6361  -1.5397  -1.4918  -1.4520
    -1.4474  -1.3859  -1.3362  -1.1344  -1.1031  -0.8953  -0.8941  -0.8940
    -0.7393  -0.7296  -0.6787  -0.6689  -0.6222  -0.4796  -0.4726  -0.3173
    -0.3168  -0.0978  -0.0822   0.0340   0.1053   0.1095   0.1568   0.1579
     0.2128   0.2632   0.4033   0.4885   0.4899   0.5661   0.5807   0.7370
     0.7825   0.8827   0.8961   1.0268   1.0939   1.0966   1.1555   1.1987
     1.2544   1.2558   1.3890   1.4018   1.4578   1.4864   1.6041   1.6502
     1.6604   1.6963   1.7057   1.8495   1.8921   2.0591   2.1239   2.1611
     2.7229   2.7281   2.8465   2.9471   2.9666   3.1597   3.1947   6.5322
     7.1001   7.1002   7.3043   7.6072   7.6107   7.9893   8.1497   8.2428
     8.4483   8.7201   8.8832   9.2597   9.4342   9.4799   9.5399   9.5962
     9.6400

          k =-0.5000 0.2640 0.0000 ( 34584 PWs)   bands (ev):

   -35.5989 -35.4715 -23.3332 -22.6163 -22.6160 -22.3793 -17.0689 -16.9554
   -16.8498 -16.7622 -16.7281 -16.6061 -14.9182 -14.9135 -14.8087 -14.5594
   -14.5020 -14.2733 -14.1904 -14.1771 -14.1585 -14.1500 -14.0628 -14.0621
   -13.9517 -13.7770 -13.7006  -8.8083  -8.6643  -8.5649  -8.2538  -8.2532
    -8.1030  -8.1029  -7.9987  -7.9346  -7.9339  -7.8089  -7.7523  -3.4331
    -3.4037  -3.1668  -2.8894  -2.6886  -2.5514  -2.5478  -2.4196  -2.4166
    -2.3965  -2.2888  -2.2833  -2.2731  -2.0810  -1.9290  -1.8854  -1.7060
    -1.6084  -1.5465  -1.2109  -1.1721  -1.0842  -0.9947  -0.9933  -0.9286
    -0.9012  -0.8606  -0.7142  -0.7085  -0.6981  -0.6977  -0.5241  -0.5070
    -0.4194  -0.4184  -0.3709   0.0321   0.0912   0.3160   0.4073   0.4706
     0.6483   0.7101   0.7161   0.8234   0.8288   1.0656   1.0698   1.1188
     1.1472   1.1559   1.1859   1.1959   1.3560   1.4161   1.4462   1.4897
     1.5137   1.5231   1.6214   1.6730   1.6837   1.7352   1.7763   1.7864
     1.7894   1.7981   1.8808   1.8823   1.9283   2.0351   2.1218   2.2539
     2.9532   2.9573   3.6511   3.8400   3.8457   3.9612   4.0446   5.9443
     6.6698   6.6702   7.1787   7.5468   7.8380   8.0529   8.4166   8.4215
     8.9256   9.0668   9.0992   9.3410   9.4448   9.5648   9.5893   9.6810
     9.7916

          k =-0.5000 0.3960 0.0000 ( 34556 PWs)   bands (ev):

   -35.5946 -35.4671 -23.2894 -22.5641 -22.5638 -22.3287 -17.0473 -16.9789
   -16.9338 -16.8568 -16.6866 -16.5306 -14.7352 -14.7331 -14.5373 -14.4708
   -14.4278 -14.2461 -14.1995 -14.1654 -14.1035 -14.1018 -14.0017 -13.9707
   -13.9362 -13.7808 -13.6582  -9.2298  -8.8412  -8.6290  -8.6284  -8.6180
    -8.3910  -8.3909  -8.3773  -8.0729  -8.0124  -8.0114  -7.8114  -3.9044
    -3.8647  -3.5903  -3.4066  -3.3154  -2.9628  -2.9611  -2.7280  -2.7257
    -2.5676  -2.4196  -2.3216  -2.3203  -2.2167  -2.1743  -2.0921  -1.9173
    -1.8222  -1.7366  -1.3074  -1.2584  -1.2541  -1.1309  -1.1219  -1.0726
    -1.0661  -0.9123  -0.9101  -0.8104  -0.8030  -0.7090  -0.6988  -0.6627
    -0.4805  -0.3838  -0.3825   0.1279   0.2492   0.3758   0.5035   0.7008
     0.9100   1.0876   1.1046   1.2630   1.2635   1.2653   1.2815   1.3618
     1.3930   1.4981   1.5313   1.5374   1.5560   1.6694   1.6823   1.7175
     1.7431   1.7830   1.8148   1.8845   1.9372   1.9523   1.9728   1.9886
     2.0422   2.0873   2.1236   2.1302   2.1540   2.2331   2.3224   2.5205
     2.7672   2.7745   4.1196   4.4847   4.4874   4.5526   4.6345   5.3545
     6.1750   6.1753   6.8960   7.1989   7.8345   7.9215   8.6179   8.9023
     8.9529   8.9585   9.4021   9.4931   9.5342   9.6186   9.7149   9.8356
     9.8728

          k =-0.5000-0.5279 0.0000 ( 34620 PWs)   bands (ev):

   -35.5928 -35.4653 -23.2709 -22.5421 -22.5418 -22.3073 -17.0385 -17.0296
   -16.9250 -16.9071 -16.6531 -16.4974 -14.6384 -14.6374 -14.4631 -14.4126
   -14.3467 -14.2917 -14.2251 -14.1209 -14.0822 -14.0781 -14.0216 -13.9609
   -13.9301 -13.7556 -13.6304  -9.3951  -8.9553  -8.7750  -8.7743  -8.5953
    -8.5290  -8.5071  -8.5070  -8.1775  -8.0402  -8.0387  -7.8275  -4.1127
    -4.0719  -3.7989  -3.6660  -3.5157  -3.1871  -3.1854  -2.7606  -2.7582
    -2.5944  -2.4371  -2.3117  -2.3104  -2.3086  -2.2747  -2.0902  -1.9874
    -1.9141  -1.7792  -1.3741  -1.3734  -1.3708  -1.1952  -1.1869  -1.0471
    -1.0351  -1.0080  -1.0065  -0.9108  -0.8356  -0.8159  -0.7058  -0.6248
    -0.4829  -0.3552  -0.3537   0.1629   0.2893   0.3917   0.5315   0.8135
     1.0044   1.2377   1.2767   1.3238   1.3257   1.3393   1.3812   1.3830
     1.4143   1.6043   1.6246   1.7351   1.7408   1.7779   1.7951   1.8617
     1.8756   1.8827   1.9639   1.9798   2.0186   2.0348   2.0557   2.0728
     2.1727   2.2272   2.3046   2.3161   2.3181   2.4032   2.5075   2.5099
     2.5210   2.6723   4.2300   4.6852   4.6926   4.7549   4.8281   5.1159
     5.9481   5.9482   6.7788   7.0959   7.8086   7.8748   8.4386   9.0111
     9.0140   9.0281   9.0690   9.2468   9.4805   9.5332   9.8455   9.9217
    10.0799

     the Fermi energy is     2.5434 ev

!    total energy              =   -1842.85714527 Ry
     Harris-Foulkes estimate   =   -1842.85714526 Ry
     estimated scf accuracy    <          3.6E-09 Ry

     The total energy is the sum of the following terms:

     one-electron contribution =  -29026.42834048 Ry
     hartree contribution      =   14665.97854208 Ry
     xc contribution           =    -621.59167691 Ry
     ewald contribution        =   13139.19205446 Ry
     smearing contrib. (-TS)   =      -0.00772443 Ry

     convergence has been achieved in  32 iterations

     negative rho (up, down):  1.519E-03 0.000E+00

     Forces acting on atoms (cartesian axes, Ry/au):

     atom    1 type  4   force =     0.00000000    0.00000000   -0.00016937
     atom    2 type  3   force =     0.00000000    0.00000000    0.00050429
     atom    3 type  4   force =     0.00000000    0.00000000   -0.00078415
     atom    4 type  1   force =     0.00000000    0.00000000   -0.00026844
     atom    5 type  3   force =     0.00000000    0.00000000    0.00052693
     atom    6 type  4   force =     0.00000000    0.00000000    0.00001870
     atom    7 type  4   force =     0.00000000    0.00000000    0.00028949
     atom    8 type  2   force =     0.00000000    0.00000000   -0.00066909
     atom    9 type  4   force =     0.00000000    0.00000000    0.00020326
     atom   10 type  4   force =     0.00000000    0.00000000    0.00019619
     atom   11 type  3   force =     0.00000000    0.00000000    0.00030945
     atom   12 type  1   force =     0.00000000    0.00000000   -0.00084623
     atom   13 type  4   force =     0.00000000    0.00000000    0.00490385
     atom   14 type  4   force =     0.00000000    0.00000000    0.01071374
     atom   15 type  3   force =     0.00000000    0.00000000   -0.00811372
     atom   16 type  4   force =     0.00000000    0.00000000    0.00982115
     atom   17 type  1   force =     0.00000000    0.00000000    0.00888563
     atom   18 type  3   force =     0.00000000    0.00000000   -0.00359003
     atom   19 type  4   force =     0.00000000    0.00000000   -0.00405707
     atom   20 type  4   force =     0.00000000    0.00000000   -0.00471068
     atom   21 type  2   force =     0.00000000    0.00000000   -0.01582212
     atom   22 type  4   force =     0.00000000    0.00000000    0.00031521
     atom   23 type  4   force =     0.00000000    0.00000000    0.00147880
     atom   24 type  3   force =     0.00000000    0.00000000   -0.00014025
     atom   25 type  1   force =     0.00000000    0.00000000    0.00028956
     atom   26 type  4   force =     0.00000000    0.00000000    0.00107193
     atom   27 type  3   force =     0.00000000    0.00000000   -0.00065949
     atom   28 type  4   force =     0.00000000    0.00000000    0.00030245

     Total force =     0.026243     Total SCF correction =     0.000264


     Computing stress (Cartesian axis) and pressure


     negative rho (up, down):  1.519E-03 0.000E+00
          total   stress  (Ry/bohr**3)                   (kbar)     P=       -7.89
  -0.00007120   0.00000000   0.00000000          -10.47        0.00        0.00
   0.00000000  -0.00003815   0.00000000            0.00       -5.61        0.00
   0.00000000   0.00000000  -0.00005149            0.00        0.00       -7.57

 
     init_run     :      9.03s CPU      9.34s WALL (       1 calls)
     electrons    :    536.49s CPU    558.94s WALL (       1 calls)
     forces       :      3.86s CPU      4.03s WALL (       1 calls)
     stress       :     25.80s CPU     26.23s WALL (       1 calls)

     Called by init_run:
     wfcinit      :      6.24s CPU      6.37s WALL (       1 calls)
     potinit      :      0.62s CPU      0.63s WALL (       1 calls)
     hinit0       :      1.02s CPU      1.02s WALL (       1 calls)

     Called by electrons:
     c_bands      :    413.48s CPU    426.42s WALL (      32 calls)
     sum_band     :     79.54s CPU     84.72s WALL (      32 calls)
     v_of_rho     :      2.60s CPU      2.63s WALL (      33 calls)
     newd         :     24.60s CPU     28.79s WALL (      33 calls)
     mix_rho      :     16.82s CPU     17.03s WALL (      32 calls)

     Called by c_bands:
     init_us_2    :      3.17s CPU      3.23s WALL (    1675 calls)
     cegterg      :    390.88s CPU    403.19s WALL (     800 calls)

     Called by sum_band:
     sum_band:bec :      0.22s CPU      0.23s WALL (     800 calls)
     addusdens    :     20.15s CPU     24.39s WALL (      32 calls)

     Called by *egterg:
     h_psi        :    189.98s CPU    197.57s WALL (    3647 calls)
     s_psi        :     19.65s CPU     19.93s WALL (    3647 calls)
     g_psi        :      0.59s CPU      0.60s WALL (    2822 calls)
     cdiaghg      :    108.09s CPU    109.84s WALL (    3622 calls)

     Called by h_psi:
     h_psi:calbec :     22.05s CPU     23.36s WALL (    3647 calls)
     vloc_psi     :    146.89s CPU    150.24s WALL (    3647 calls)
     add_vuspsi   :     20.20s CPU     21.88s WALL (    3647 calls)

     General routines
     calbec       :     42.18s CPU     43.59s WALL (    4572 calls)
     fft          :      2.33s CPU      2.35s WALL (     452 calls)
     ffts         :      8.63s CPU      8.73s WALL (   14248 calls)
     fftw         :    168.69s CPU    172.46s WALL (  571378 calls)
     interpolate  :      0.18s CPU      0.18s WALL (      33 calls)
 
     Parallel routines
     fft_scatt_xy :     21.14s CPU     21.58s WALL (  586078 calls)
     fft_scatt_yz :    105.70s CPU    107.99s WALL (  586078 calls)
 
     PWSCF        :   9m36.13s CPU   9m59.52s WALL

 
   This run was terminated on:  11:41:34  21May2021            

=------------------------------------------------------------------------------=
   JOB DONE.
=------------------------------------------------------------------------------=
[1621611694.722718] [holy7c02502:276042:0]          mpool.c:43   UCX  WARN  object 0x3fe72c0 was not returned to mpool ucp_requests
[1621611694.722792] [holy7c06201:10056:0]          mpool.c:43   UCX  WARN  object 0x2a2dc40 was not returned to mpool ucp_requests
[1621611694.722811] [holy7c06201:10056:0]          mpool.c:43   UCX  WARN  object 0x2a2e180 was not returned to mpool ucp_requests
[1621611694.725596] [holy7c06303:57338:0]          mpool.c:43   UCX  WARN  object 0x3c1c7c0 was not returned to mpool ucp_requests
[1621611694.724662] [holy7c06204:145916:0]          mpool.c:43   UCX  WARN  object 0x3610f80 was not returned to mpool ucp_requests
[1621611694.733554] [holy7c06302:119248:0]          mpool.c:43   UCX  WARN  object 0x34d78c0 was not returned to mpool ucp_requests
[1621611694.724507] [holy7c06303:57339:0]          mpool.c:43   UCX  WARN  object 0x3aa2e40 was not returned to mpool ucp_requests
[1621611694.734393] [holy7c06302:119246:0]          mpool.c:43   UCX  WARN  object 0x29f2340 was not returned to mpool ucp_requests
[1621611694.734411] [holy7c06302:119246:0]          mpool.c:43   UCX  WARN  object 0x29f2500 was not returned to mpool ucp_requests
[1621611694.735793] [holy7c06302:119251:0]          mpool.c:43   UCX  WARN  object 0x3a21300 was not returned to mpool ucp_requests
[1621611694.735814] [holy7c06302:119251:0]          mpool.c:43   UCX  WARN  object 0x3a214c0 was not returned to mpool ucp_requests
