
     Program PWSCF v.6.5 starts on 21May2021 at 22:37:55 

     This program is part of the open-source Quantum ESPRESSO suite
     for quantum simulation of materials; please cite
         "P. Giannozzi et al., J. Phys.:Condens. Matter 21 395502 (2009);
         "P. Giannozzi et al., J. Phys.:Condens. Matter 29 465901 (2017);
          URL http://www.quantum-espresso.org", 
     in publications or presentations arising from this work. More details at
     http://www.quantum-espresso.org/quote

     Parallel version (MPI), running on    20 processors

     MPI processes distributed on    13 nodes
     R & G space division:  proc/nbgrp/npool/nimage =      20
     Reading input from CBCO_CuO_cleave_1.75_sep.pwi
Warning: card &IONS ignored
Warning: card     ION_DYNAMICS = 'BFGS' ignored
Warning: card / ignored
Warning: card &CELL ignored
Warning: card     CELL_DYNAMICS = 'BFGS' ignored
Warning: card     PRESS_CONV_THR = 5 ignored
Warning: card / ignored

     Current dimensions of program PWSCF are:
     Max number of different atomic species (ntypx) = 10
     Max number of k-points (npk) =  40000
     Max angular momentum in pseudopotentials (lmaxx) =  3

     Subspace diagonalization in iterative solution of the eigenvalue problem:
     one sub-group per band group will be used
     scalapack distributed-memory algorithm (size of sub-group:  4*  4 procs)

     Message from routine setup:
     using ibrav=0 with symmetry is DISCOURAGED, use correct ibrav instead
 
     Parallelization info
     --------------------
     sticks:   dense  smooth     PW     G-vecs:    dense   smooth      PW
     Min         149      50     14                72973    14050    2196
     Max         150      51     15                73010    14073    2239
     Sum        2991    1007    289              1459853   281181   44207
 


     bravais-lattice index     =            0
     lattice parameter (alat)  =       7.4270  a.u.
     unit-cell volume          =    4475.0743 (a.u.)^3
     number of atoms/cell      =           28
     number of atomic types    =            4
     number of electrons       =       227.00
     number of Kohn-Sham states=          137
     kinetic-energy cutoff     =      60.0000  Ry
     charge density cutoff     =     720.0000  Ry
     convergence threshold     =      1.0E-08
     mixing beta               =       0.5000
     number of iterations used =           10  local-TF  mixing
     Exchange-correlation= SLA PW PBE PBE
                           (   1   4   3   4   0   0   0)

     celldm(1)=   7.427040  celldm(2)=   0.000000  celldm(3)=   0.000000
     celldm(4)=   0.000000  celldm(5)=   0.000000  celldm(6)=   0.000000

     crystal axes: (cart. coord. in units of alat)
               a(1) = (   1.000000   0.000000   0.000000 )  
               a(2) = (   0.000000   0.947081   0.000000 )  
               a(3) = (   0.000000   0.000000  11.533624 )  

     reciprocal axes: (cart. coord. in units 2 pi/alat)
               b(1) = (  1.000000  0.000000  0.000000 )  
               b(2) = (  0.000000  1.055876  0.000000 )  
               b(3) = (  0.000000  0.000000  0.086703 )  


     PseudoPot. # 1 for Ba read from file:
     ./pseudo/Ba.pbe-nsp-van.UPF
     MD5 check sum: 2b9c31dd849566dd297d80989662b7a0
     Pseudo is Ultrasoft + core correction, Zval = 10.0
     Generated by new atomic code, or converted to UPF format
     Using radial grid of  907 points,  6 beta functions with: 
                l(1) =   0
                l(2) =   0
                l(3) =   1
                l(4) =   1
                l(5) =   2
                l(6) =   2
     Q(r) pseudized with  6 coefficients,  rinner =    1.200   1.200   1.200
                                                       1.200   1.200

     PseudoPot. # 2 for Ca read from file:
     ./pseudo/Ca.pbe-nsp-van.UPF
     MD5 check sum: 6471098428ff4fa451746d08035ff179
     Pseudo is Ultrasoft + core correction, Zval = 10.0
     Generated by new atomic code, or converted to UPF format
     Using radial grid of  845 points,  6 beta functions with: 
                l(1) =   0
                l(2) =   0
                l(3) =   1
                l(4) =   1
                l(5) =   2
                l(6) =   2
     Q(r) pseudized with  6 coefficients,  rinner =    1.200   1.200   1.200
                                                       1.200   1.200

     PseudoPot. # 3 for Cu read from file:
     ./pseudo/Cu.pbe-n-van_ak.UPF
     MD5 check sum: 34e3282627ffb533726feb647e090d62
     Pseudo is Ultrasoft + core correction, Zval = 11.0
     Generated by new atomic code, or converted to UPF format
     Using radial grid of  867 points,  6 beta functions with: 
                l(1) =   0
                l(2) =   0
                l(3) =   1
                l(4) =   1
                l(5) =   2
                l(6) =   2
     Q(r) pseudized with  8 coefficients,  rinner =    1.400   1.400   1.400
                                                       1.400   1.400

     PseudoPot. # 4 for O  read from file:
     ./pseudo/O.pbe-van_ak.UPF
     MD5 check sum: 783ce7fe4c79b6a4916957118fed0856
     Pseudo is Ultrasoft, Zval =  6.0
     Generated by new atomic code, or converted to UPF format
     Using radial grid of  737 points,  4 beta functions with: 
                l(1) =   0
                l(2) =   0
                l(3) =   1
                l(4) =   1
     Q(r) pseudized with  8 coefficients,  rinner =    0.800   0.800   0.800


     atomic species   valence    mass     pseudopotential
        Ba            10.00   137.32700     Ba( 1.00)
        Ca            10.00    40.07800     Ca( 1.00)
        Cu            11.00    63.54600     Cu( 1.00)
        O              6.00    15.99900     O ( 1.00)

      4 Sym. Ops. (no inversion) found



   Cartesian axes

     site n.     atom                  positions (alat units)
         1           O   tau(   1) = (   0.0000000   0.4735409  -0.0469745  )
         2           Cu  tau(   2) = (   0.0000000   0.0000000   0.0264565  )
         3           O   tau(   3) = (   0.0000000   0.0000000   0.5030914  )
         4           Ba  tau(   4) = (   0.5000000   0.4735409   0.5690292  )
         5           Cu  tau(   5) = (   0.0000000   0.0000000   1.0374254  )
         6           O   tau(   6) = (   0.5000000   0.0000000   1.0768099  )
         7           O   tau(   7) = (   0.0000000   0.4735409   1.1116985  )
         8           Ca  tau(   8) = (   0.5000000   0.4735409   1.4976260  )
         9           O   tau(   9) = (   0.0000000   0.4735409   1.8667529  )
        10           O   tau(  10) = (   0.5000000   0.0000000   1.9044124  )
        11           Cu  tau(  11) = (   0.0000000   0.0000000   1.9512546  )
        12           Ba  tau(  12) = (   0.5000000   0.4735409   2.4295764  )
        13           O   tau(  13) = (   0.0000000   0.0000000   2.5115362  )
        14           O   tau(  14) = (   0.0000000   0.4735409   2.9918528  )
        15           Cu  tau(  15) = (   0.0000000   0.0000000   2.9919088  )
        16           O   tau(  16) = (   0.0000000   0.0000000   3.9175363  )
        17           Ba  tau(  17) = (   0.5000000   0.4735409   3.9994885  )
        18           Cu  tau(  18) = (   0.0000000   0.0000000   4.4777924  )
        19           O   tau(  19) = (   0.5000000   0.0000000   4.5246346  )
        20           O   tau(  20) = (   0.0000000   0.4735409   4.5622890  )
        21           Ca  tau(  21) = (   0.5000000   0.4735409   4.9314261  )
        22           O   tau(  22) = (   0.0000000   0.4735409   5.3173510  )
        23           O   tau(  23) = (   0.5000000   0.0000000   5.3522397  )
        24           Cu  tau(  24) = (   0.0000000   0.0000000   5.3916268  )
        25           Ba  tau(  25) = (   0.5000000   0.4735409   5.8600204  )
        26           O   tau(  26) = (   0.0000000   0.0000000   5.9259480  )
        27           Cu  tau(  27) = (   0.0000000   0.0000000   6.4025879  )
        28           O   tau(  28) = (   0.0000000   0.4735409   6.4760062  )

     number of k points=    25  Gaussian smearing, width (Ry)=  0.0100
                       cart. coord. in units 2pi/alat
        k(    1) = (   0.0000000   0.0000000   0.0000000), wk =   0.0312500
        k(    2) = (   0.0000000   0.1319845   0.0000000), wk =   0.0625000
        k(    3) = (   0.0000000   0.2639689   0.0000000), wk =   0.0625000
        k(    4) = (   0.0000000   0.3959534   0.0000000), wk =   0.0625000
        k(    5) = (   0.0000000  -0.5279378   0.0000000), wk =   0.0312500
        k(    6) = (   0.1250000   0.0000000   0.0000000), wk =   0.0625000
        k(    7) = (   0.1250000   0.1319845   0.0000000), wk =   0.1250000
        k(    8) = (   0.1250000   0.2639689   0.0000000), wk =   0.1250000
        k(    9) = (   0.1250000   0.3959534   0.0000000), wk =   0.1250000
        k(   10) = (   0.1250000  -0.5279378   0.0000000), wk =   0.0625000
        k(   11) = (   0.2500000   0.0000000   0.0000000), wk =   0.0625000
        k(   12) = (   0.2500000   0.1319845   0.0000000), wk =   0.1250000
        k(   13) = (   0.2500000   0.2639689   0.0000000), wk =   0.1250000
        k(   14) = (   0.2500000   0.3959534   0.0000000), wk =   0.1250000
        k(   15) = (   0.2500000  -0.5279378   0.0000000), wk =   0.0625000
        k(   16) = (   0.3750000   0.0000000   0.0000000), wk =   0.0625000
        k(   17) = (   0.3750000   0.1319845   0.0000000), wk =   0.1250000
        k(   18) = (   0.3750000   0.2639689   0.0000000), wk =   0.1250000
        k(   19) = (   0.3750000   0.3959534   0.0000000), wk =   0.1250000
        k(   20) = (   0.3750000  -0.5279378   0.0000000), wk =   0.0625000
        k(   21) = (  -0.5000000   0.0000000   0.0000000), wk =   0.0312500
        k(   22) = (  -0.5000000   0.1319845   0.0000000), wk =   0.0625000
        k(   23) = (  -0.5000000   0.2639689   0.0000000), wk =   0.0625000
        k(   24) = (  -0.5000000   0.3959534   0.0000000), wk =   0.0625000
        k(   25) = (  -0.5000000  -0.5279378   0.0000000), wk =   0.0312500

     Dense  grid:  1459853 G-vectors     FFT dimensions: (  64,  64, 750)

     Smooth grid:   281181 G-vectors     FFT dimensions: (  40,  36, 432)

     Estimated max dynamical RAM per process >     465.94 MB

     Estimated total dynamical RAM >       9.10 GB

     Initial potential from superposition of free atoms

     starting charge  226.84630, renormalised to  227.00000

     negative rho (up, down):  3.480E-03 0.000E+00
     Starting wfcs are  195 randomized atomic wfcs

     total cpu time spent up to now is       12.2 secs

     Self-consistent Calculation

     iteration #  1     ecut=    60.00 Ry     beta= 0.50
     Davidson diagonalization with overlap
     ethr =  1.00E-02,  avg # of iterations =  2.0

     negative rho (up, down):  4.900E-04 0.000E+00

     total cpu time spent up to now is       31.9 secs

     total energy              =   -1840.74090046 Ry
     Harris-Foulkes estimate   =   -1845.34196499 Ry
     estimated scf accuracy    <      18.90162690 Ry

     iteration #  2     ecut=    60.00 Ry     beta= 0.50
     Davidson diagonalization with overlap
     ethr =  8.33E-03,  avg # of iterations =  2.0

     negative rho (up, down):  2.665E-04 0.000E+00

     total cpu time spent up to now is       49.6 secs

     total energy              =   -1842.41971686 Ry
     Harris-Foulkes estimate   =   -1843.32874360 Ry
     estimated scf accuracy    <       6.20243186 Ry

     iteration #  3     ecut=    60.00 Ry     beta= 0.50
     Davidson diagonalization with overlap
     ethr =  2.73E-03,  avg # of iterations =  1.2

     negative rho (up, down):  2.443E-04 0.000E+00

     total cpu time spent up to now is       67.2 secs

     total energy              =   -1842.76762060 Ry
     Harris-Foulkes estimate   =   -1843.01113497 Ry
     estimated scf accuracy    <       6.25745384 Ry

     iteration #  4     ecut=    60.00 Ry     beta= 0.50
     Davidson diagonalization with overlap
     ethr =  2.73E-03,  avg # of iterations =  1.0

     negative rho (up, down):  2.402E-04 0.000E+00

     total cpu time spent up to now is       84.3 secs

     total energy              =   -1842.83618251 Ry
     Harris-Foulkes estimate   =   -1842.89739891 Ry
     estimated scf accuracy    <       1.87626270 Ry

     iteration #  5     ecut=    60.00 Ry     beta= 0.50
     Davidson diagonalization with overlap
     ethr =  8.27E-04,  avg # of iterations =  1.0

     negative rho (up, down):  2.352E-04 0.000E+00

     total cpu time spent up to now is      106.6 secs

     total energy              =   -1842.81088389 Ry
     Harris-Foulkes estimate   =   -1842.87030130 Ry
     estimated scf accuracy    <       0.61688351 Ry

     iteration #  6     ecut=    60.00 Ry     beta= 0.50
     Davidson diagonalization with overlap
     ethr =  2.72E-04,  avg # of iterations =  3.6

     negative rho (up, down):  2.310E-04 0.000E+00

     total cpu time spent up to now is      127.2 secs

     total energy              =   -1842.80581611 Ry
     Harris-Foulkes estimate   =   -1842.83766455 Ry
     estimated scf accuracy    <       1.20688639 Ry

     iteration #  7     ecut=    60.00 Ry     beta= 0.50
     Davidson diagonalization with overlap
     ethr =  2.72E-04,  avg # of iterations =  2.5

     negative rho (up, down):  2.300E-04 0.000E+00

     total cpu time spent up to now is      146.0 secs

     total energy              =   -1842.80319947 Ry
     Harris-Foulkes estimate   =   -1842.81678672 Ry
     estimated scf accuracy    <       0.40016422 Ry

     iteration #  8     ecut=    60.00 Ry     beta= 0.50
     Davidson diagonalization with overlap
     ethr =  1.76E-04,  avg # of iterations =  3.7

     negative rho (up, down):  2.292E-04 0.000E+00

     total cpu time spent up to now is      165.3 secs

     total energy              =   -1842.80346850 Ry
     Harris-Foulkes estimate   =   -1842.81177037 Ry
     estimated scf accuracy    <       0.30060248 Ry

     iteration #  9     ecut=    60.00 Ry     beta= 0.50
     Davidson diagonalization with overlap
     ethr =  1.32E-04,  avg # of iterations =  3.3

     negative rho (up, down):  2.292E-04 0.000E+00

     total cpu time spent up to now is      185.9 secs

     total energy              =   -1842.80478172 Ry
     Harris-Foulkes estimate   =   -1842.80794184 Ry
     estimated scf accuracy    <       0.17608544 Ry

     iteration # 10     ecut=    60.00 Ry     beta= 0.50
     Davidson diagonalization with overlap
     ethr =  7.76E-05,  avg # of iterations =  4.5

     negative rho (up, down):  2.296E-04 0.000E+00

     total cpu time spent up to now is      205.9 secs

     total energy              =   -1842.80265139 Ry
     Harris-Foulkes estimate   =   -1842.80606089 Ry
     estimated scf accuracy    <       0.10174342 Ry

     iteration # 11     ecut=    60.00 Ry     beta= 0.50
     Davidson diagonalization with overlap
     ethr =  4.48E-05,  avg # of iterations =  5.9

     negative rho (up, down):  2.305E-04 0.000E+00

     total cpu time spent up to now is      229.3 secs

     total energy              =   -1842.80109322 Ry
     Harris-Foulkes estimate   =   -1842.80357831 Ry
     estimated scf accuracy    <       0.12286359 Ry

     iteration # 12     ecut=    60.00 Ry     beta= 0.50
     Davidson diagonalization with overlap
     ethr =  4.48E-05,  avg # of iterations =  2.1

     negative rho (up, down):  2.307E-04 0.000E+00

     total cpu time spent up to now is      247.4 secs

     total energy              =   -1842.80049905 Ry
     Harris-Foulkes estimate   =   -1842.80166376 Ry
     estimated scf accuracy    <       0.09032928 Ry

     iteration # 13     ecut=    60.00 Ry     beta= 0.50
     Davidson diagonalization with overlap
     ethr =  3.98E-05,  avg # of iterations =  1.7

     negative rho (up, down):  2.303E-04 0.000E+00

     total cpu time spent up to now is      265.3 secs

     total energy              =   -1842.79985529 Ry
     Harris-Foulkes estimate   =   -1842.80071756 Ry
     estimated scf accuracy    <       0.06822508 Ry

     iteration # 14     ecut=    60.00 Ry     beta= 0.50
     Davidson diagonalization with overlap
     ethr =  3.01E-05,  avg # of iterations =  1.8

     negative rho (up, down):  3.121E-03 0.000E+00

     total cpu time spent up to now is      283.7 secs

     total energy              =   -1842.79822034 Ry
     Harris-Foulkes estimate   =   -1842.80000235 Ry
     estimated scf accuracy    <       0.07276036 Ry

     iteration # 15     ecut=    60.00 Ry     beta= 0.50
     Davidson diagonalization with overlap
     ethr =  3.01E-05,  avg # of iterations =  3.1

     negative rho (up, down):  1.124E-02 0.000E+00

     total cpu time spent up to now is      303.0 secs

     total energy              =   -1842.79724101 Ry
     Harris-Foulkes estimate   =   -1842.79843038 Ry
     estimated scf accuracy    <       0.05596852 Ry

     iteration # 16     ecut=    60.00 Ry     beta= 0.50
     Davidson diagonalization with overlap
     ethr =  2.47E-05,  avg # of iterations =  5.6

     negative rho (up, down):  3.200E-02 0.000E+00

     total cpu time spent up to now is      324.9 secs

     total energy              =   -1842.79546191 Ry
     Harris-Foulkes estimate   =   -1842.79739945 Ry
     estimated scf accuracy    <       0.03295948 Ry

     iteration # 17     ecut=    60.00 Ry     beta= 0.50
     Davidson diagonalization with overlap
     ethr =  1.45E-05,  avg # of iterations =  8.5

     negative rho (up, down):  2.124E-02 0.000E+00

     total cpu time spent up to now is      353.2 secs

     total energy              =   -1842.79554247 Ry
     Harris-Foulkes estimate   =   -1842.79609456 Ry
     estimated scf accuracy    <       0.00557497 Ry

     iteration # 18     ecut=    60.00 Ry     beta= 0.50
     Davidson diagonalization with overlap
     c_bands:  1 eigenvalues not converged
     ethr =  2.46E-06,  avg # of iterations =  8.3

     negative rho (up, down):  1.742E-02 0.000E+00

     total cpu time spent up to now is      380.6 secs

     total energy              =   -1842.79523346 Ry
     Harris-Foulkes estimate   =   -1842.79564655 Ry
     estimated scf accuracy    <       0.00261727 Ry

     iteration # 19     ecut=    60.00 Ry     beta= 0.50
     Davidson diagonalization with overlap
     ethr =  1.15E-06,  avg # of iterations =  3.5

     negative rho (up, down):  1.393E-02 0.000E+00

     total cpu time spent up to now is      400.5 secs

     total energy              =   -1842.79459230 Ry
     Harris-Foulkes estimate   =   -1842.79531328 Ry
     estimated scf accuracy    <       0.00404289 Ry

     iteration # 20     ecut=    60.00 Ry     beta= 0.50
     Davidson diagonalization with overlap
     ethr =  1.15E-06,  avg # of iterations =  7.6

     negative rho (up, down):  5.296E-03 0.000E+00

     total cpu time spent up to now is      427.2 secs

     total energy              =   -1842.79442437 Ry
     Harris-Foulkes estimate   =   -1842.79465878 Ry
     estimated scf accuracy    <       0.00128161 Ry

     iteration # 21     ecut=    60.00 Ry     beta= 0.50
     Davidson diagonalization with overlap
     c_bands:  1 eigenvalues not converged
     c_bands:  1 eigenvalues not converged
     c_bands:  1 eigenvalues not converged
     c_bands:  1 eigenvalues not converged
     ethr =  5.65E-07,  avg # of iterations =  9.6

     negative rho (up, down):  5.515E-03 0.000E+00

     total cpu time spent up to now is      456.3 secs

     total energy              =   -1842.79443116 Ry
     Harris-Foulkes estimate   =   -1842.79447720 Ry
     estimated scf accuracy    <       0.00074727 Ry

     iteration # 22     ecut=    60.00 Ry     beta= 0.50
     Davidson diagonalization with overlap
     c_bands:  1 eigenvalues not converged
     ethr =  3.29E-07,  avg # of iterations =  4.3

     negative rho (up, down):  3.011E-03 0.000E+00

     total cpu time spent up to now is      477.2 secs

     total energy              =   -1842.79444812 Ry
     Harris-Foulkes estimate   =   -1842.79446384 Ry
     estimated scf accuracy    <       0.00032061 Ry

     iteration # 23     ecut=    60.00 Ry     beta= 0.50
     Davidson diagonalization with overlap
     c_bands:  1 eigenvalues not converged
     ethr =  1.41E-07,  avg # of iterations =  4.6

     negative rho (up, down):  1.159E-03 0.000E+00

     total cpu time spent up to now is      499.3 secs

     total energy              =   -1842.79448571 Ry
     Harris-Foulkes estimate   =   -1842.79445728 Ry
     estimated scf accuracy    <       0.00007997 Ry

     iteration # 24     ecut=    60.00 Ry     beta= 0.50
     Davidson diagonalization with overlap
     c_bands:  1 eigenvalues not converged
     c_bands:  1 eigenvalues not converged
     ethr =  3.52E-08,  avg # of iterations =  6.6

     negative rho (up, down):  1.125E-03 0.000E+00

     total cpu time spent up to now is      522.8 secs

     total energy              =   -1842.79450380 Ry
     Harris-Foulkes estimate   =   -1842.79448962 Ry
     estimated scf accuracy    <       0.00003605 Ry

     iteration # 25     ecut=    60.00 Ry     beta= 0.50
     Davidson diagonalization with overlap
     c_bands:  1 eigenvalues not converged
     ethr =  1.59E-08,  avg # of iterations =  3.9

     negative rho (up, down):  1.104E-03 0.000E+00

     total cpu time spent up to now is      543.9 secs

     total energy              =   -1842.79450588 Ry
     Harris-Foulkes estimate   =   -1842.79450548 Ry
     estimated scf accuracy    <       0.00002564 Ry

     iteration # 26     ecut=    60.00 Ry     beta= 0.50
     Davidson diagonalization with overlap
     ethr =  1.13E-08,  avg # of iterations =  1.0

     negative rho (up, down):  1.381E-03 0.000E+00

     total cpu time spent up to now is      561.0 secs

     total energy              =   -1842.79450515 Ry
     Harris-Foulkes estimate   =   -1842.79450644 Ry
     estimated scf accuracy    <       0.00000679 Ry

     iteration # 27     ecut=    60.00 Ry     beta= 0.50
     Davidson diagonalization with overlap
     ethr =  2.99E-09,  avg # of iterations =  2.6

     negative rho (up, down):  1.401E-03 0.000E+00

     total cpu time spent up to now is      580.1 secs

     total energy              =   -1842.79450545 Ry
     Harris-Foulkes estimate   =   -1842.79450561 Ry
     estimated scf accuracy    <       0.00001101 Ry

     iteration # 28     ecut=    60.00 Ry     beta= 0.50
     Davidson diagonalization with overlap
     ethr =  2.99E-09,  avg # of iterations =  1.0

     negative rho (up, down):  1.469E-03 0.000E+00

     total cpu time spent up to now is      596.5 secs

     total energy              =   -1842.79450540 Ry
     Harris-Foulkes estimate   =   -1842.79450552 Ry
     estimated scf accuracy    <       0.00000599 Ry

     iteration # 29     ecut=    60.00 Ry     beta= 0.50
     Davidson diagonalization with overlap
     ethr =  2.64E-09,  avg # of iterations =  1.0

     negative rho (up, down):  1.457E-03 0.000E+00

     total cpu time spent up to now is      614.8 secs

     total energy              =   -1842.79450541 Ry
     Harris-Foulkes estimate   =   -1842.79450546 Ry
     estimated scf accuracy    <       0.00000370 Ry

     iteration # 30     ecut=    60.00 Ry     beta= 0.50
     Davidson diagonalization with overlap
     ethr =  1.63E-09,  avg # of iterations =  1.0

     negative rho (up, down):  1.510E-03 0.000E+00

     total cpu time spent up to now is      631.3 secs

     total energy              =   -1842.79450535 Ry
     Harris-Foulkes estimate   =   -1842.79450548 Ry
     estimated scf accuracy    <       0.00000096 Ry

     iteration # 31     ecut=    60.00 Ry     beta= 0.50
     Davidson diagonalization with overlap
     ethr =  4.25E-10,  avg # of iterations =  1.7

     negative rho (up, down):  1.524E-03 0.000E+00

     total cpu time spent up to now is      648.2 secs

     total energy              =   -1842.79450534 Ry
     Harris-Foulkes estimate   =   -1842.79450538 Ry
     estimated scf accuracy    <       0.00000029 Ry

     iteration # 32     ecut=    60.00 Ry     beta= 0.50
     Davidson diagonalization with overlap
     ethr =  1.28E-10,  avg # of iterations =  2.2

     negative rho (up, down):  1.516E-03 0.000E+00

     total cpu time spent up to now is      666.4 secs

     total energy              =   -1842.79450536 Ry
     Harris-Foulkes estimate   =   -1842.79450536 Ry
     estimated scf accuracy    <       0.00000005 Ry

     iteration # 33     ecut=    60.00 Ry     beta= 0.50
     Davidson diagonalization with overlap
     ethr =  2.41E-11,  avg # of iterations =  2.6

     negative rho (up, down):  1.519E-03 0.000E+00

     total cpu time spent up to now is      685.4 secs

     total energy              =   -1842.79450536 Ry
     Harris-Foulkes estimate   =   -1842.79450536 Ry
     estimated scf accuracy    <       0.00000002 Ry

     iteration # 34     ecut=    60.00 Ry     beta= 0.50
     Davidson diagonalization with overlap
     ethr =  7.20E-12,  avg # of iterations =  2.3

     negative rho (up, down):  1.511E-03 0.000E+00

     total cpu time spent up to now is      703.6 secs

     total energy              =   -1842.79450537 Ry
     Harris-Foulkes estimate   =   -1842.79450536 Ry
     estimated scf accuracy    <       0.00000001 Ry

     iteration # 35     ecut=    60.00 Ry     beta= 0.50
     Davidson diagonalization with overlap
     ethr =  5.24E-12,  avg # of iterations =  1.2

     negative rho (up, down):  1.512E-03 0.000E+00

     total cpu time spent up to now is      721.4 secs

     total energy              =   -1842.79450537 Ry
     Harris-Foulkes estimate   =   -1842.79450537 Ry
     estimated scf accuracy    <       0.00000002 Ry

     iteration # 36     ecut=    60.00 Ry     beta= 0.50
     Davidson diagonalization with overlap
     ethr =  5.24E-12,  avg # of iterations =  1.0

     negative rho (up, down):  1.508E-03 0.000E+00

     total cpu time spent up to now is      738.7 secs

     End of self-consistent calculation

          k = 0.0000 0.0000 0.0000 ( 35217 PWs)   bands (ev):

   -35.8211 -35.7960 -22.9803 -22.9769 -22.8260 -22.7552 -17.3220 -17.3017
   -16.8728 -16.8623 -16.8491 -16.8352 -15.5198 -15.5088 -14.8659 -14.8602
   -14.8493 -14.7946 -14.7818 -14.3674 -14.3647 -14.1914 -14.1785 -14.0890
   -14.0544 -14.0373 -12.8992  -8.1127  -8.1089  -8.0737  -8.0706  -7.9836
    -7.9644  -7.8871  -7.8809  -7.8776  -7.7314  -7.7143  -7.5336  -2.5143
    -2.5139  -2.1790  -2.0383  -2.0376  -2.0142  -2.0098  -1.8846  -1.8672
    -1.7717  -1.7505  -1.7185  -1.7073  -1.4050  -1.4010  -1.0609  -0.6439
    -0.6418  -0.5671  -0.5649  -0.5597  -0.5340  -0.5105  -0.4925  -0.4743
    -0.4730  -0.4562  -0.4504  -0.4482  -0.4451  -0.3944  -0.3757  -0.2249
    -0.2217  -0.2215  -0.1218  -0.1055  -0.0961  -0.0899  -0.0852  -0.0824
    -0.0434  -0.0300  -0.0210  -0.0100   0.0193   0.0473   0.0983   0.1448
     0.3098   0.5904   0.6677   0.6956   0.6986   0.7397   0.7782   0.9758
     0.9804   1.1377   1.1600   1.1711   1.1874   1.2707   1.2926   1.3130
     1.3235   1.3410   1.3461   1.6049   1.6317   1.6837   1.8405   1.8539
     1.8970   2.0268   2.1463   2.1668   2.2552   2.3470   2.3602   4.8856
     5.0329   5.0496   5.9519   6.0475   6.5567   6.5697   6.6847   6.8534
     7.7820   7.8049   8.0000   8.0178   8.3400   8.4025   8.4283   8.4953
     8.9335

          k = 0.0000 0.1320 0.0000 ( 35189 PWs)   bands (ev):

   -35.8193 -35.7941 -22.9536 -22.9502 -22.8003 -22.7317 -17.2860 -17.2657
   -16.9345 -16.9076 -16.8704 -16.8467 -15.4307 -15.4202 -14.8712 -14.8664
   -14.8108 -14.7670 -14.7520 -14.3775 -14.3740 -14.1953 -14.1799 -14.1418
   -14.0828 -14.0809 -12.9586  -8.1121  -8.1083  -8.0259  -8.0228  -7.9838
    -7.9627  -7.9226  -7.9193  -7.8413  -7.7641  -7.6915  -7.5652  -2.5755
    -2.5736  -2.4103  -2.3923  -2.3126  -2.2954  -2.1582  -1.8625  -1.8467
    -1.8299  -1.8257  -1.7548  -1.7345  -1.6455  -1.5431  -1.5400  -0.9015
    -0.8270  -0.8064  -0.7419  -0.7393  -0.6529  -0.6488  -0.5997  -0.5987
    -0.5031  -0.4627  -0.4134  -0.3811  -0.3640  -0.3501  -0.3325  -0.3296
    -0.3122  -0.2032  -0.1998  -0.1961  -0.1897  -0.1169  -0.1024  -0.0792
    -0.0620  -0.0612  -0.0372   0.0316   0.0859   0.1045   0.1432   0.1749
     0.5667   0.7503   0.7986   0.8677   0.8925   0.8953   0.9421   0.9434
     0.9668   0.9764   0.9843   1.2258   1.2509   1.2705   1.2764   1.3728
     1.3841   1.4030   1.4898   1.5735   1.6167   1.6620   1.7742   1.8124
     1.8510   2.0167   2.0316   2.3432   2.4045   2.6361   2.6390   5.2188
     5.4082   5.4120   6.2640   6.3267   6.8646   6.8767   6.9766   7.1705
     7.9582   8.0230   8.1786   8.2352   8.5261   8.5698   8.6186   8.7497
     9.0202

          k = 0.0000 0.2640 0.0000 ( 35065 PWs)   bands (ev):

   -35.8149 -35.7897 -22.8877 -22.8843 -22.7368 -22.6739 -17.1945 -17.1740
   -17.0883 -17.0617 -16.8648 -16.8411 -15.2268 -15.2177 -14.9259 -14.9177
   -14.7547 -14.6808 -14.6783 -14.3667 -14.3604 -14.2598 -14.2236 -14.2174
   -14.1682 -14.1282 -13.0953  -8.1114  -8.1076  -8.0136  -8.0103  -7.9831
    -7.9591  -7.9055  -7.9024  -7.8711  -7.7263  -7.6317  -7.5919  -3.0335
    -3.0255  -2.8862  -2.8658  -2.6353  -2.6141  -2.6118  -2.4658  -2.4634
    -2.1613  -1.8038  -1.7924  -1.7204  -1.6996  -1.6891  -1.6822  -1.4464
    -1.2192  -1.1281  -0.9948  -0.9916  -0.8681  -0.8558  -0.7970  -0.7756
    -0.7417  -0.7384  -0.7181  -0.6832  -0.6797  -0.6761  -0.5978  -0.5609
    -0.3922  -0.1747  -0.1712  -0.1424  -0.1118  -0.0946  -0.0633  -0.0508
     0.0197   0.0567   0.1625   0.1940   0.4014   0.4048   0.5032   0.5214
     0.7482   0.7645   0.7738   0.9320   0.9418   0.9780   0.9802   1.0240
     1.0355   1.0937   1.0978   1.1327   1.2184   1.3646   1.3663   1.4673
     1.5424   1.5883   1.6744   1.6789   1.7416   1.7570   1.7789   1.7877
     1.7914   1.8805   1.9669   2.4802   2.7856   2.8642   2.8970   5.9942
     6.3015   6.3041   7.0616   7.0878   7.6852   7.7008   7.7484   8.0383
     8.4585   8.5471   8.6205   8.6371   8.7617   8.8303   9.0134   9.0811
     9.1014

          k = 0.0000 0.3960 0.0000 ( 34998 PWs)   bands (ev):

   -35.8104 -35.7853 -22.8196 -22.8161 -22.6713 -22.6144 -17.2250 -17.1982
   -17.0927 -17.0723 -16.8591 -16.8354 -15.1240 -15.1219 -14.9196 -14.8911
   -14.7758 -14.6146 -14.5582 -14.3241 -14.3177 -14.3071 -14.3017 -14.2789
   -14.2380 -14.1804 -13.2201  -8.1114  -8.1076  -8.0918  -8.0884  -7.9834
    -7.9788  -7.9396  -7.7771  -7.7739  -7.6871  -7.6041  -7.4873  -3.4914
    -3.4819  -3.4105  -3.3046  -3.2868  -3.1815  -3.1778  -2.5564  -2.5557
    -2.1908  -2.0324  -2.0072  -1.8271  -1.7340  -1.7273  -1.6022  -1.5909
    -1.4588  -1.3427  -1.2653  -1.2617  -1.1100  -1.0826  -1.0684  -1.0160
    -1.0027  -0.9744  -0.9442  -0.9287  -0.9147  -0.8755  -0.6357  -0.5812
    -0.3696  -0.2314  -0.1577  -0.1540  -0.1076  -0.0625  -0.0547  -0.0349
    -0.0115   0.0130   0.2794   0.3133   0.5614   0.5755   0.7301   0.7335
     0.7535   0.7758   0.8358   0.8604   0.8790   0.9255   0.9499   0.9518
     1.0347   1.1935   1.3519   1.4161   1.4198   1.5040   1.5090   1.5159
     1.5230   1.5965   1.6879   1.7627   1.7638   1.8380   1.9308   2.0195
     2.1822   2.1856   2.1979   2.4300   2.7133   2.7670   2.9435   6.8779
     7.2474   7.2505   7.9916   8.0322   8.3272   8.4888   8.4943   8.5930
     8.8518   8.8586   8.8735   8.9025   9.0576   9.2190   9.2477   9.2948
     9.4923

          k = 0.0000-0.5279 0.0000 ( 35058 PWs)   bands (ev):

   -35.8086 -35.7835 -22.7906 -22.7872 -22.6435 -22.5892 -17.2770 -17.2502
   -17.0480 -17.0277 -16.8568 -16.8331 -15.1653 -15.1618 -14.8499 -14.7849
   -14.7843 -14.5944 -14.4979 -14.3640 -14.3574 -14.3076 -14.2687 -14.2590
   -14.2559 -14.2430 -13.2679  -8.1214  -8.1180  -8.1110  -8.1073  -8.0113
    -7.9800  -7.9430  -7.7212  -7.7180  -7.7074  -7.5511  -7.4424  -3.6883
    -3.6590  -3.6528  -3.4738  -3.4665  -3.4106  -3.4071  -2.5725  -2.5719
    -2.2007  -2.1566  -2.1345  -1.9627  -1.6991  -1.6948  -1.5564  -1.5183
    -1.5144  -1.4336  -1.3919  -1.3865  -1.2368  -1.2033  -1.1874  -1.1264
    -1.0924  -1.0523  -1.0222  -1.0192  -0.9928  -0.9612  -0.6204  -0.5465
    -0.3353  -0.2812  -0.1520  -0.1483  -0.1391  -0.0551  -0.0340  -0.0299
    -0.0168   0.0316   0.2010   0.2191   0.6045   0.6145   0.6490   0.6608
     0.8043   0.8268   0.8299   0.8854   0.9328   0.9349   1.0074   1.0687
     1.0884   1.1108   1.3061   1.4343   1.4984   1.5158   1.5222   1.6691
     1.7877   1.7933   1.7995   1.8002   1.8092   1.8521   1.8589   2.2542
     2.2860   2.3437   2.3472   2.3761   2.5346   2.6034   2.8831   7.4392
     7.6588   7.6625   8.1376   8.3773   8.6955   8.7309   8.7676   8.7677
     8.7848   8.7897   9.0904   9.1203   9.1305   9.2310   9.5143   9.6094
     9.7605

          k = 0.1250 0.0000 0.0000 ( 35169 PWs)   bands (ev):

   -35.8200 -35.7949 -22.9622 -22.9588 -22.8085 -22.7400 -17.2888 -17.2683
   -16.9525 -16.9300 -16.8609 -16.8338 -15.4169 -15.4049 -14.9108 -14.9064
   -14.8768 -14.7990 -14.7869 -14.3764 -14.3735 -14.2012 -14.1895 -14.1092
   -14.0802 -14.0577 -12.9694  -8.1382  -8.1343  -8.0136  -8.0091  -8.0068
    -7.9824  -7.8485  -7.8452  -7.8200  -7.6833  -7.6818  -7.5071  -2.5576
    -2.5567  -2.2515  -2.0676  -2.0644  -2.0351  -2.0201  -2.0194  -2.0144
    -1.9814  -1.9776  -1.6840  -1.6694  -1.4029  -1.3990  -1.0881  -0.8401
    -0.8344  -0.7032  -0.6977  -0.6514  -0.6456  -0.6319  -0.5400  -0.5256
    -0.5235  -0.4787  -0.4770  -0.4757  -0.4165  -0.4122  -0.3740  -0.3583
    -0.2676  -0.2294  -0.1140  -0.0926  -0.0897  -0.0467  -0.0380  -0.0094
     0.0035   0.0077   0.0198   0.0373   0.0948   0.1137   0.1677   0.2423
     0.3164   0.6011   0.6107   0.6151   0.7020   0.7734   0.8214   0.9596
     0.9774   1.0156   1.0243   1.1510   1.1768   1.2831   1.2869   1.2935
     1.3550   1.3778   1.6242   1.6839   1.7711   1.7875   1.8060   1.8452
     1.8496   2.0262   2.0747   2.1572   2.2296   2.3830   2.3932   5.0601
     5.2126   5.2182   6.1835   6.2540   6.7720   6.7865   6.8827   7.0892
     7.9240   7.9376   8.1459   8.1666   8.5421   8.5719   8.6230   8.7327
     9.1058

          k = 0.1250 0.1320 0.0000 ( 35128 PWs)   bands (ev):

   -35.8182 -35.7931 -22.9364 -22.9330 -22.7835 -22.7171 -17.2538 -17.2332
   -16.9557 -16.9323 -16.9237 -16.8976 -15.3349 -15.3233 -14.9067 -14.9017
   -14.8365 -14.7670 -14.7554 -14.3777 -14.3743 -14.2018 -14.1910 -14.1549
   -14.1066 -14.0985 -13.0107  -8.1568  -8.1533  -8.0750  -8.0713  -8.0082
    -7.9814  -7.9059  -7.8105  -7.8073  -7.7695  -7.6473  -7.4635  -2.6129
    -2.6102  -2.4179  -2.3846  -2.2994  -2.2729  -2.1843  -2.0462  -2.0424
    -2.0070  -1.9928  -1.8240  -1.8198  -1.6574  -1.5349  -1.5315  -1.0313
    -0.9997  -0.8980  -0.8641  -0.8573  -0.7964  -0.7918  -0.6900  -0.6870
    -0.6042  -0.4797  -0.4640  -0.4255  -0.3966  -0.3764  -0.3729  -0.3267
    -0.2800  -0.2576  -0.2274  -0.1852  -0.1846  -0.0880  -0.0485  -0.0316
    -0.0200  -0.0149   0.0483   0.0649   0.1092   0.1372   0.2954   0.3341
     0.5891   0.8210   0.8430   0.8544   0.8917   0.9398   0.9447   1.0135
     1.0291   1.0510   1.0600   1.0917   1.0998   1.1203   1.1434   1.3986
     1.4079   1.4108   1.4725   1.4761   1.5316   1.6847   1.8739   2.1393
     2.1588   2.2068   2.2610   2.4030   2.4165   2.6412   2.6451   5.3464
     5.5501   5.5529   6.4472   6.4955   7.0723   7.0846   7.1594   7.3987
     8.0984   8.1339   8.3103   8.3605   8.6504   8.6940   8.7989   8.9301
     9.0735

          k = 0.1250 0.2640 0.0000 ( 35067 PWs)   bands (ev):

   -35.8138 -35.7887 -22.8726 -22.8691 -22.7219 -22.6607 -17.1654 -17.1445
   -17.0850 -17.0586 -16.9353 -16.9125 -15.1530 -15.1439 -14.9182 -14.9070
   -14.7623 -14.6784 -14.6741 -14.3615 -14.3566 -14.2641 -14.2397 -14.2333
   -14.1651 -14.1351 -13.1078  -8.2254  -8.2222  -8.1122  -8.1083  -8.0608
    -7.9801  -7.9636  -7.8654  -7.8013  -7.7981  -7.6448  -7.4607  -3.0584
    -3.0493  -2.8912  -2.8693  -2.6266  -2.6147  -2.6124  -2.4654  -2.4627
    -2.2026  -1.9961  -1.9887  -1.9567  -1.9413  -1.7156  -1.6914  -1.4588
    -1.2320  -1.1857  -1.1717  -1.1447  -1.1033  -1.0999  -0.8828  -0.8789
    -0.8258  -0.7799  -0.7464  -0.7067  -0.6914  -0.6274  -0.5931  -0.5684
    -0.4579  -0.3464  -0.3061  -0.1945  -0.1519  -0.0104   0.0139   0.0502
     0.1541   0.2453   0.2755   0.3066   0.5415   0.5619   0.5849   0.5950
     0.8147   0.8373   0.8541   0.8976   0.9063   1.0056   1.0856   1.0876
     1.1299   1.1320   1.2054   1.2082   1.2723   1.3042   1.3506   1.3618
     1.4362   1.4373   1.4811   1.7353   1.7536   1.7552   1.8437   2.2171
     2.3285   2.3566   2.4263   2.6011   2.7873   2.8755   2.9091   6.0554
     6.3624   6.3650   7.1438   7.1660   7.8328   7.8653   7.8739   8.2385
     8.5593   8.6113   8.6708   8.6930   8.7910   8.8689   8.9349   8.9852
     9.0705

          k = 0.1250 0.3960 0.0000 ( 35054 PWs)   bands (ev):

   -35.8094 -35.7843 -22.8066 -22.8032 -22.6585 -22.6028 -17.2199 -17.1930
   -17.0664 -17.0458 -16.9267 -16.9039 -15.0880 -15.0861 -14.8556 -14.8153
   -14.7390 -14.5999 -14.5493 -14.3532 -14.3520 -14.3066 -14.2936 -14.2726
   -14.2226 -14.1722 -13.1985  -8.2559  -8.2526  -8.1246  -8.1198  -8.1197
    -7.9834  -7.9593  -7.8692  -7.8464  -7.8432  -7.6833  -7.5314  -3.5340
    -3.5244  -3.4084  -3.3280  -3.3068  -3.1727  -3.1690  -2.5649  -2.5640
    -2.2227  -1.9853  -1.9795  -1.8922  -1.8643  -1.8615  -1.8274  -1.6934
    -1.5277  -1.5222  -1.4120  -1.3936  -1.3877  -1.3141  -1.1032  -1.0877
    -1.0572  -1.0526  -0.9949  -0.9447  -0.9431  -0.8150  -0.6344  -0.5888
    -0.4766  -0.3797  -0.3317  -0.1701  -0.1046   0.0156   0.0196   0.0798
     0.1726   0.2653   0.4540   0.4901   0.7059   0.7148   0.7490   0.7704
     0.8431   0.8551   0.8631   0.9468   0.9631   1.0392   1.0437   1.0524
     1.1717   1.2195   1.4354   1.4422   1.4982   1.5158   1.5437   1.5965
     1.6182   1.6626   1.6690   1.9309   2.1490   2.1521   2.1540   2.1854
     2.2797   2.3048   2.4087   2.5403   2.7351   2.8265   2.9623   6.8403
     7.1113   7.1147   7.8497   7.9002   8.1763   8.4716   8.4759   8.5825
     8.6864   8.7296   9.1431   9.1676   9.1727   9.3403   9.3819   9.4711
     9.5756

          k = 0.1250-0.5279 0.0000 ( 35032 PWs)   bands (ev):

   -35.8076 -35.7824 -22.7787 -22.7752 -22.6316 -22.5783 -17.2714 -17.2446
   -17.0234 -17.0028 -16.9229 -16.9001 -15.1202 -15.1171 -14.8070 -14.7101
   -14.7098 -14.5683 -14.4830 -14.3958 -14.3936 -14.2844 -14.2690 -14.2598
   -14.2551 -14.2276 -13.2336  -8.2506  -8.2472  -8.1335  -8.1285  -8.1247
    -7.9850  -7.9583  -7.8806  -7.8775  -7.8369  -7.7070  -7.5913  -3.7229
    -3.7092  -3.6640  -3.5051  -3.4988  -3.4021  -3.3984  -2.5858  -2.5851
    -2.2277  -2.0186  -2.0102  -1.9235  -1.8047  -1.7936  -1.7255  -1.7204
    -1.7140  -1.6658  -1.5738  -1.5599  -1.4654  -1.3958  -1.2014  -1.1924
    -1.1358  -1.1331  -1.0858  -1.0372  -1.0355  -0.8847  -0.6234  -0.5624
    -0.4782  -0.3911  -0.3451  -0.1565  -0.0813   0.0270   0.0308   0.0939
     0.1748   0.2566   0.4248   0.4418   0.7360   0.7396   0.7653   0.7725
     0.8015   0.8230   0.8520   0.9502   1.0675   1.0790   1.1071   1.1220
     1.1413   1.2739   1.3330   1.5624   1.5630   1.7885   1.7890   1.8015
     1.8061   1.8448   1.8493   2.0520   2.1479   2.1655   2.2397   2.2910
     2.3145   2.3181   2.3658   2.3834   2.5978   2.7129   2.9000   7.2509
     7.3321   7.3375   8.0138   8.0898   8.2124   8.3127   8.7989   8.8673
     9.1098   9.1137   9.1864   9.3230   9.3619   9.4929   9.6433   9.7048
     9.8312

          k = 0.2500 0.0000 0.0000 ( 35172 PWs)   bands (ev):

   -35.8174 -35.7922 -22.9179 -22.9145 -22.7655 -22.7028 -17.2043 -17.1831
   -17.1157 -17.0949 -16.8576 -16.8305 -15.2077 -15.1970 -15.0169 -14.9963
   -14.9489 -14.8126 -14.8088 -14.3909 -14.3874 -14.2469 -14.2337 -14.1473
   -14.1253 -14.0971 -13.1308  -8.1397  -8.1356  -8.0313  -7.9695  -7.9253
    -7.9222  -7.7678  -7.7645  -7.7423  -7.6064  -7.5777  -7.4417  -2.7565
    -2.7502  -2.5968  -2.5067  -2.3987  -2.3943  -2.1671  -1.9678  -1.9660
    -1.8852  -1.8826  -1.7005  -1.6657  -1.3996  -1.3957  -1.1676  -1.1665
    -1.1299  -0.9686  -0.9612  -0.9560  -0.8978  -0.8874  -0.8277  -0.7168
    -0.7149  -0.5310  -0.5236  -0.4957  -0.4896  -0.4505  -0.4306  -0.4237
    -0.3923  -0.2685  -0.1052  -0.1024  -0.0521  -0.0165   0.0096   0.0396
     0.1353   0.1375   0.1384   0.1773   0.1815   0.2825   0.3073   0.3529
     0.3550   0.4655   0.4727   0.5640   0.7128   0.7171   0.8465   1.0760
     1.0805   1.1100   1.1133   1.1501   1.1954   1.2192   1.2270   1.2848
     1.3367   1.4023   1.6112   1.6662   1.7029   1.7441   1.8274   1.8297
     1.9425   2.0831   2.1085   2.2414   2.3679   2.4884   2.5050   5.4783
     5.6691   5.6714   6.7862   6.8301   7.3483   7.3665   7.4254   7.7465
     8.2057   8.2655   8.4481   8.4699   8.6412   8.7876   9.1061   9.2360
     9.3571

          k = 0.2500 0.1320 0.0000 ( 35139 PWs)   bands (ev):

   -35.8156 -35.7904 -22.8941 -22.8907 -22.7424 -22.6814 -17.1726 -17.1514
   -17.1090 -17.0882 -16.9235 -16.8966 -15.1527 -15.1440 -14.9760 -14.9497
   -14.8975 -14.7773 -14.7710 -14.3766 -14.3731 -14.2405 -14.2302 -14.1712
   -14.1513 -14.1326 -13.1332  -8.2075  -8.2041  -8.0714  -8.0621  -8.0590
    -7.9775  -7.8991  -7.7875  -7.7342  -7.7309  -7.5809  -7.3915  -2.8097
    -2.8003  -2.6343  -2.5375  -2.3903  -2.3855  -2.3073  -2.3067  -2.2102
    -2.1968  -2.1316  -1.8142  -1.8100  -1.6918  -1.5889  -1.5852  -1.2414
    -1.2078  -1.1939  -1.1522  -1.1316  -1.1181  -0.9458  -0.8211  -0.8203
    -0.7701  -0.7520  -0.5557  -0.5299  -0.4588  -0.4419  -0.4199  -0.3904
    -0.3737  -0.2257  -0.2117  -0.1717  -0.1641  -0.0973  -0.0311  -0.0051
     0.0477   0.1327   0.1555   0.1790   0.3576   0.4336   0.5451   0.5780
     0.6337   0.7169   0.7251   0.8123   0.8457   0.9052   0.9535   1.0107
     1.0181   1.1696   1.1735   1.1966   1.2100   1.2306   1.2901   1.2945
     1.3185   1.3339   1.4277   1.5391   1.5448   1.5709   1.9606   2.3271
     2.4106   2.4874   2.4953   2.6316   2.6522   2.6942   2.7019   5.6900
     5.9301   5.9325   6.9483   6.9806   7.6086   7.6257   7.6459   8.0273
     8.3280   8.3821   8.5432   8.6084   8.7211   8.8834   8.9827   9.0283
     9.2116

          k = 0.2500 0.2640 0.0000 ( 35115 PWs)   bands (ev):

   -35.8112 -35.7861 -22.8354 -22.8320 -22.6856 -22.6287 -17.1121 -17.0899
   -17.0818 -17.0602 -17.0596 -17.0342 -15.0531 -15.0497 -14.8630 -14.8137
   -14.7684 -14.6885 -14.6688 -14.3561 -14.3495 -14.2944 -14.2769 -14.2193
   -14.1665 -14.1541 -13.1394  -8.4274  -8.4241  -8.2602  -8.1247  -8.1208
    -8.0723  -7.9762  -7.9653  -7.8540  -7.8507  -7.7075  -7.5075  -3.2009
    -3.1846  -2.9752  -2.9298  -2.6305  -2.6263  -2.6026  -2.5008  -2.4955
    -2.4533  -2.4039  -2.3592  -2.3528  -2.1293  -1.6624  -1.6520  -1.6138
    -1.6083  -1.5483  -1.5059  -1.3682  -1.1963  -1.1742  -0.9361  -0.9305
    -0.9262  -0.8754  -0.7882  -0.7834  -0.7804  -0.6745  -0.6511  -0.6070
    -0.5808  -0.4832  -0.4521  -0.2014  -0.0692   0.0945   0.1875   0.2153
     0.3516   0.4407   0.5635   0.6193   0.6283   0.6460   0.7672   0.7810
     0.8726   0.9414   0.9749   1.0539   1.0608   1.0881   1.1614   1.1637
     1.2393   1.2493   1.2924   1.3090   1.3261   1.3771   1.3928   1.4309
     1.4761   1.5099   1.5733   1.6708   1.6729   1.6824   2.1307   2.3279
     2.7594   2.8076   2.8294   3.0629   3.0706   3.1888   3.1946   6.2024
     6.4714   6.4740   7.3320   7.3533   7.9565   8.1573   8.1602   8.4902
     8.5500   8.7207   8.8277   8.8568   9.0110   9.0507   9.1253   9.1570
     9.2080

          k = 0.2500 0.3960 0.0000 ( 35102 PWs)   bands (ev):

   -35.8068 -35.7817 -22.7750 -22.7716 -22.6273 -22.5746 -17.2078 -17.1811
   -17.0748 -17.0538 -16.9976 -16.9761 -15.0052 -15.0039 -14.7376 -14.6400
   -14.6348 -14.5846 -14.5313 -14.4233 -14.4157 -14.2894 -14.2767 -14.2547
   -14.1877 -14.1595 -13.1452  -8.5475  -8.5441  -8.3959  -8.1748  -8.1741
    -8.1705  -8.0682  -8.0647  -7.9934  -7.9891  -7.9242  -7.7498  -3.6987
    -3.6842  -3.4728  -3.4264  -3.3329  -3.1517  -3.1480  -2.6395  -2.6362
    -2.4525  -2.3675  -2.3184  -2.3019  -2.1101  -1.9995  -1.9865  -1.8730
    -1.8411  -1.6619  -1.6318  -1.5074  -1.3854  -1.3734  -1.1880  -1.1077
    -1.0241  -0.9997  -0.9952  -0.9853  -0.9797  -0.8207  -0.7741  -0.6547
    -0.6400  -0.5259  -0.5107  -0.0924   0.0449   0.1411   0.2523   0.2652
     0.5026   0.6668   0.7795   0.7924   0.7986   0.8028   0.9256   1.0374
     1.0429   1.0832   1.1006   1.1232   1.1285   1.2375   1.3155   1.3333
     1.4469   1.4522   1.4930   1.5081   1.5682   1.5765   1.6209   1.6449
     1.6933   1.6944   1.9171   2.0452   2.0707   2.0737   2.1327   2.2520
     2.6232   2.6429   2.8638   3.2858   3.2917   3.4370   3.4396   6.5920
     6.6785   6.6842   7.4697   7.5255   7.9804   8.5575   8.6021   8.6342
     8.7926   8.8462   9.3558   9.4446   9.4725   9.5386   9.5778   9.6323
     9.6669

          k = 0.2500-0.5279 0.0000 ( 35148 PWs)   bands (ev):

   -35.8050 -35.7799 -22.7495 -22.7460 -22.6026 -22.5518 -17.2579 -17.2311
   -17.0692 -17.0482 -16.9584 -16.9368 -15.0021 -15.0001 -14.6945 -14.5628
   -14.5586 -14.5105 -14.4745 -14.4705 -14.4530 -14.2674 -14.2541 -14.2491
   -14.2251 -14.1944 -13.1470  -8.5477  -8.5442  -8.4173  -8.2624  -8.2592
    -8.1420  -8.1349  -8.1311  -8.0539  -8.0093  -7.9884  -7.9075  -3.8977
    -3.8830  -3.6929  -3.6222  -3.5826  -3.3793  -3.3756  -2.6461  -2.6434
    -2.4228  -2.3283  -2.2771  -2.2497  -2.1577  -2.1422  -2.0930  -2.0188
    -1.9770  -1.6863  -1.6567  -1.5615  -1.4611  -1.4490  -1.2802  -1.2006
    -1.1087  -1.0681  -1.0623  -1.0143  -1.0052  -0.8340  -0.7777  -0.6723
    -0.6639  -0.5441  -0.5145  -0.0509   0.0730   0.1520   0.2696   0.3034
     0.5337   0.6954   0.8203   0.8330   0.8882   0.8951   0.9926   1.0007
     1.0028   1.1086   1.1373   1.1995   1.2141   1.3030   1.3110   1.3207
     1.3943   1.6620   1.6874   1.7051   1.7595   1.7795   1.7906   1.8298
     1.8488   1.8586   1.8712   2.1130   2.2174   2.2465   2.2499   2.3299
     2.4003   2.4295   2.8056   3.3047   3.3111   3.4734   3.4771   6.6374
     6.6443   6.6710   7.4381   7.4975   8.1381   8.3475   8.8972   9.0218
     9.3007   9.3080   9.3285   9.3432   9.5220   9.6503   9.7186   9.8385
     9.9068

          k = 0.3750 0.0000 0.0000 ( 35124 PWs)   bands (ev):

   -35.8147 -35.7896 -22.8725 -22.8691 -22.7215 -22.6650 -17.2560 -17.2365
   -17.1089 -17.0865 -16.8543 -16.8272 -15.2338 -15.2314 -15.0830 -14.8609
   -14.8439 -14.8157 -14.8028 -14.4061 -14.4002 -14.3458 -14.3344 -14.1732
   -14.1538 -14.1223 -13.2809  -8.1222  -8.1181  -8.0190  -7.9472  -7.8603
    -7.8573  -7.7035  -7.6835  -7.6801  -7.5261  -7.4870  -7.3741  -3.0887
    -3.0783  -2.9610  -2.8946  -2.5177  -2.5162  -2.2176  -1.8940  -1.8899
    -1.7969  -1.7622  -1.7363  -1.7358  -1.4134  -1.4012  -1.3974  -1.2656
    -1.2615  -1.2173  -1.2136  -1.1307  -1.1258  -1.1226  -1.0768  -0.9168
    -0.9150  -0.6632  -0.6201  -0.5419  -0.5293  -0.4955  -0.4726  -0.4224
    -0.4188  -0.3262  -0.1181  -0.1152  -0.0654  -0.0517  -0.0148   0.0559
     0.1606   0.1898   0.2083   0.2160   0.2187   0.2244   0.2413   0.2925
     0.3025   0.4528   0.5289   0.5924   0.8797   0.9858   0.9896   1.0003
     1.0037   1.0135   1.1496   1.1609   1.2478   1.2783   1.3114   1.3934
     1.4665   1.5382   1.5517   1.6045   1.6254   1.6681   1.7468   1.9133
     1.9187   2.1190   2.1491   2.3479   2.4320   2.6010   2.6321   6.0747
     6.3187   6.3210   7.5246   7.5602   7.7289   7.8129   7.8149   8.1753
     8.2820   8.3357   8.5685   8.6445   9.1387   9.2537   9.2564   9.2767
     9.2897

          k = 0.3750 0.1320 0.0000 ( 35159 PWs)   bands (ev):

   -35.8129 -35.7878 -22.8508 -22.8474 -22.7004 -22.6450 -17.2474 -17.2279
   -17.0800 -17.0575 -16.9185 -16.8916 -15.1858 -15.1837 -15.0241 -14.8223
   -14.8009 -14.7540 -14.7425 -14.3763 -14.3712 -14.3251 -14.3139 -14.1942
   -14.1684 -14.1596 -13.2500  -8.1792  -8.1756  -8.0555  -8.0240  -8.0207
    -7.9626  -7.8640  -7.7731  -7.7698  -7.7074  -7.6284  -7.4349  -3.1537
    -3.1399  -3.0039  -2.9288  -2.5170  -2.5152  -2.2880  -2.2704  -2.2033
    -2.1052  -2.0822  -1.8025  -1.7984  -1.7116  -1.6657  -1.6492  -1.5060
    -1.4985  -1.4380  -1.4050  -1.2991  -1.1597  -0.9891  -0.9779  -0.9603
    -0.9257  -0.8643  -0.6202  -0.6057  -0.5151  -0.4678  -0.4663  -0.4518
    -0.4203  -0.2577  -0.2322  -0.1578  -0.1501  -0.1153  -0.0319  -0.0074
     0.0189   0.2426   0.2582   0.2668   0.4553   0.4668   0.5806   0.5888
     0.5980   0.7252   0.7542   0.8332   0.9339   0.9857   1.0070   1.0216
     1.0269   1.1551   1.1715   1.1739   1.3004   1.3264   1.3418   1.4246
     1.4898   1.4970   1.5512   1.5808   1.5905   1.5908   1.7767   2.3321
     2.4318   2.5671   2.5718   2.7273   2.7314   2.8996   2.9079   6.2003
     6.4672   6.4696   7.5669   7.5904   7.7601   7.8778   7.8808   8.2365
     8.2921   8.4557   8.7321   8.8255   9.0562   9.1033   9.2423   9.3121
     9.4306

          k = 0.3750 0.2640 0.0000 ( 35147 PWs)   bands (ev):

   -35.8086 -35.7835 -22.7975 -22.7941 -22.6486 -22.5961 -17.2271 -17.2074
   -17.0631 -17.0361 -17.0046 -16.9823 -15.0629 -15.0617 -14.8679 -14.7284
   -14.7020 -14.6059 -14.5912 -14.3446 -14.3326 -14.3078 -14.2994 -14.2383
   -14.2014 -14.1667 -13.1724  -8.4801  -8.4769  -8.3150  -8.1591  -8.1555
    -8.1223  -8.0367  -8.0332  -7.9962  -7.9532  -7.9064  -7.7062  -3.4803
    -3.4571  -3.2390  -3.1678  -2.6970  -2.6909  -2.6051  -2.6019  -2.5782
    -2.5675  -2.5645  -2.4367  -2.4343  -2.1871  -1.9867  -1.9726  -1.8093
    -1.7845  -1.4579  -1.4359  -1.2656  -1.1880  -1.1585  -1.0800  -1.0761
    -1.0345  -0.9809  -0.8446  -0.8364  -0.8332  -0.7508  -0.7295  -0.5797
    -0.5747  -0.5173  -0.4716  -0.1922  -0.0277   0.1607   0.3021   0.3482
     0.4883   0.5393   0.6347   0.6641   0.8141   0.8222   0.8778   0.9460
     0.9545   1.0134   1.0170   1.0812   1.1748   1.2063   1.2106   1.2141
     1.4150   1.4308   1.4370   1.4667   1.5129   1.5323   1.5573   1.5596
     1.5655   1.5821   1.6156   1.6161   1.6190   1.6599   2.1176   2.3034
     2.7532   2.8118   2.8428   3.5160   3.5178   3.6109   3.6117   6.3467
     6.5120   6.5144   7.3871   7.4087   7.8535   8.2165   8.2189   8.4432
     8.6110   8.7566   9.1408   9.2164   9.2591   9.3289   9.3929   9.5664
     9.5868

          k = 0.3750 0.3960 0.0000 ( 35149 PWs)   bands (ev):

   -35.8043 -35.7791 -22.7429 -22.7394 -22.5956 -22.5461 -17.2101 -17.1892
   -17.1891 -17.1635 -16.9254 -16.9031 -14.9266 -14.9262 -14.6839 -14.6380
   -14.5994 -14.4507 -14.4434 -14.4287 -14.4218 -14.2705 -14.2634 -14.2312
   -14.1692 -14.1671 -13.0900  -8.7460  -8.7426  -8.5920  -8.4108  -8.4078
    -8.3750  -8.2184  -8.1620  -8.1582  -8.0684  -8.0189  -7.9707  -3.9613
    -3.9397  -3.6804  -3.6269  -3.3201  -3.1309  -3.1271  -2.8235  -2.8174
    -2.7134  -2.6909  -2.4659  -2.4642  -2.2988  -2.2804  -2.1635  -2.0413
    -2.0164  -1.4777  -1.4307  -1.4248  -1.3942  -1.3906  -1.1886  -1.1608
    -1.1541  -1.0839  -1.0584  -1.0261  -1.0249  -0.9699  -0.9377  -0.5854
    -0.5828  -0.5186  -0.4492  -0.0409   0.1131   0.2296   0.4655   0.5185
     0.7376   0.9246   0.9581   0.9888   1.0175   1.0780   1.1032   1.1549
     1.1586   1.2752   1.2938   1.2955   1.3243   1.3662   1.3858   1.5006
     1.5747   1.5759   1.6573   1.6691   1.7262   1.7837   1.7906   1.8469
     1.8717   1.8853   1.9420   1.9924   1.9955   2.0611   2.1728   2.3098
     2.6061   2.6393   2.8672   4.0271   4.0281   4.1012   4.1014   6.1778
     6.2100   6.2182   7.1145   7.1548   8.0444   8.4708   8.7836   8.7949
     8.9887   9.1298   9.2016   9.2846   9.3362   9.3979   9.4128   9.5031
     9.6765

          k = 0.3750-0.5279 0.0000 ( 35168 PWs)   bands (ev):

   -35.8025 -35.7773 -22.7198 -22.7164 -22.5732 -22.5250 -17.2446 -17.2178
   -17.1973 -17.1773 -16.8902 -16.8678 -14.8643 -14.8641 -14.6069 -14.6063
   -14.5610 -14.4672 -14.4405 -14.3827 -14.3818 -14.2619 -14.2461 -14.2411
   -14.1720 -14.1599 -13.0543  -8.8281  -8.8246  -8.6885  -8.5559  -8.5529
    -8.4402  -8.3476  -8.2299  -8.1881  -8.1839  -8.0317  -7.9958  -4.1671
    -4.1463  -3.8832  -3.8298  -3.5928  -3.3561  -3.3523  -2.8419  -2.8358
    -2.7228  -2.6938  -2.4602  -2.4584  -2.4049  -2.3864  -2.1435  -2.1260
    -2.0987  -1.5755  -1.5236  -1.5076  -1.4389  -1.4349  -1.2502  -1.1779
    -1.1635  -1.1527  -1.1470  -1.1191  -1.1138  -0.9984  -0.9484  -0.5690
    -0.5673  -0.5140  -0.4272   0.0059   0.1435   0.2432   0.5180   0.6088
     0.8101   1.0699   1.0765   1.0906   1.0960   1.1396   1.1437   1.1447
     1.1840   1.3314   1.3444   1.3920   1.4025   1.5812   1.5846   1.5914
     1.6725   1.6774   1.7299   1.8490   1.8533   1.9266   1.9291   1.9539
     2.0332   2.0517   2.1595   2.1823   2.1863   2.2148   2.2363   2.2839
     2.3619   2.4090   2.8013   4.1642   4.1658   4.2526   4.2532   6.0271
     6.0329   6.0497   7.0106   7.0700   8.1344   8.3721   8.9247   8.9484
     9.0781   9.1509   9.1713   9.3061   9.4100   9.5054   9.6435   9.6686
     9.7361

          k =-0.5000 0.0000 0.0000 ( 35110 PWs)   bands (ev):

   -35.8136 -35.7885 -22.8534 -22.8499 -22.7029 -22.6491 -17.3082 -17.2891
   -17.0671 -17.0442 -16.8529 -16.8258 -15.2917 -15.2882 -15.1268 -14.8878
   -14.8479 -14.5918 -14.5771 -14.5403 -14.5153 -14.3840 -14.3802 -14.1820
   -14.1610 -14.1275 -13.3399  -8.1119  -8.1078  -8.0067  -7.9363  -7.8372
    -7.8342  -7.6955  -7.6474  -7.6440  -7.4918  -7.4522  -7.3454  -3.2309
    -3.2204  -3.1054  -3.0435  -2.5422  -2.5411  -2.2282  -1.8638  -1.8512
    -1.8453  -1.8333  -1.6145  -1.6109  -1.5138  -1.4050  -1.4014  -1.3811
    -1.3732  -1.3053  -1.2951  -1.2298  -1.2239  -1.1445  -1.1396  -1.0001
    -0.9983  -0.7321  -0.6748  -0.5561  -0.5480  -0.5146  -0.4964  -0.4114
    -0.4091  -0.3418  -0.1234  -0.1205  -0.1000  -0.0724  -0.0707   0.0446
     0.1363   0.1947   0.2097   0.2187   0.2215   0.2218   0.2417   0.2442
     0.3546   0.3657   0.5717   0.6267   0.9357   0.9381   0.9492   0.9533
     1.1395   1.1553   1.1638   1.1799   1.1975   1.3762   1.3801   1.3856
     1.4680   1.4699   1.5782   1.6421   1.6548   1.7024   1.7585   1.9276
     1.9331   2.1210   2.1466   2.3537   2.4293   2.6326   2.6673   6.7736
     6.9509   7.0900   7.0925   7.1437   7.1460   8.0231   8.0690   8.3064
     8.3157   8.5386   8.8288   8.9775   9.2154   9.2179   9.2378   9.3839
     9.4422

          k =-0.5000 0.1320 0.0000 ( 35154 PWs)   bands (ev):

   -35.8119 -35.7867 -22.8326 -22.8292 -22.6827 -22.6298 -17.2990 -17.2798
   -17.0398 -17.0168 -16.9163 -16.8894 -15.2344 -15.2314 -15.0621 -14.8478
   -14.8079 -14.5531 -14.5385 -14.4801 -14.4565 -14.3623 -14.3585 -14.2009
   -14.1716 -14.1656 -13.2965  -8.1506  -8.1467  -8.0291  -7.9666  -7.9637
    -7.9527  -7.8506  -7.8469  -7.8149  -7.7049  -7.5840  -7.5487  -3.3024
    -3.2885  -3.1565  -3.0852  -2.5477  -2.5463  -2.2847  -2.2411  -2.1941
    -2.0481  -2.0280  -1.7971  -1.7930  -1.7323  -1.7130  -1.6594  -1.6217
    -1.6143  -1.5390  -1.4957  -1.3435  -1.1702  -1.0562  -1.0544  -0.9552
    -0.9514  -0.8832  -0.6568  -0.6429  -0.5337  -0.4908  -0.4762  -0.4738
    -0.4404  -0.2816  -0.2429  -0.1664  -0.1405  -0.1183  -0.0339  -0.0064
     0.0049   0.3050   0.3295   0.3322   0.3664   0.3762   0.5172   0.5521
     0.6491   0.7102   0.8025   0.8472   0.9503   0.9924   1.0249   1.0740
     1.0918   1.1047   1.1878   1.2003   1.3065   1.4048   1.4109   1.4444
     1.5217   1.5454   1.5770   1.6458   1.6670   1.6673   1.7166   2.3254
     2.4348   2.5701   2.5740   2.7426   2.7448   2.9529   2.9616   6.6973
     6.9377   6.9402   7.1743   7.4448   7.4486   7.9426   7.9716   8.1813
     8.2544   8.6205   9.0606   9.0839   9.1974   9.3127   9.4262   9.5356
     9.5548

          k =-0.5000 0.2640 0.0000 ( 35176 PWs)   bands (ev):

   -35.8075 -35.7824 -22.7816 -22.7782 -22.6331 -22.5825 -17.2771 -17.2577
   -17.0597 -17.0328 -16.9685 -16.9458 -15.0825 -15.0808 -14.8881 -14.7522
   -14.7104 -14.4576 -14.4431 -14.3663 -14.3544 -14.3123 -14.3082 -14.2847
   -14.2364 -14.1618 -13.1861  -8.4191  -8.4156  -8.2678  -8.2648  -8.2579
    -8.1006  -8.0966  -8.0926  -8.0719  -7.9800  -7.9073  -7.8987  -3.6188
    -3.5949  -3.3847  -3.3127  -2.7239  -2.7194  -2.6281  -2.6218  -2.5746
    -2.5725  -2.5684  -2.4444  -2.4419  -2.2054  -2.1139  -2.0962  -1.8966
    -1.8674  -1.3778  -1.3495  -1.2141  -1.1548  -1.1524  -1.1447  -1.1140
    -1.1046  -1.0491  -0.8661  -0.8598  -0.8570  -0.7552  -0.7292  -0.5831
    -0.5791  -0.5340  -0.4745  -0.1879  -0.0124   0.1818   0.3411   0.4005
     0.5357   0.5775   0.6656   0.6772   0.8900   0.8945   0.9524   0.9628
     0.9653   1.0057   1.0329   1.0514   1.2159   1.2272   1.2585   1.2854
     1.4071   1.5028   1.5076   1.5280   1.5335   1.5531   1.5591   1.5999
     1.6206   1.6674   1.6725   1.6882   1.6923   1.8676   1.8817   2.2748
     2.7458   2.8058   2.8391   3.6558   3.6563   3.7433   3.7451   6.4071
     6.5089   6.5104   7.3140   7.3438   7.8186   8.2544   8.2619   8.2922
     8.8203   8.9406   9.0247   9.3864   9.4012   9.4249   9.4280   9.5669
     9.7128

          k =-0.5000 0.3960 0.0000 ( 35152 PWs)   bands (ev):

   -35.8032 -35.7781 -22.7294 -22.7260 -22.5823 -22.5341 -17.2556 -17.2361
   -17.1886 -17.1618 -16.8933 -16.8706 -14.8978 -14.8978 -14.6933 -14.6682
   -14.5909 -14.4333 -14.4118 -14.3624 -14.3494 -14.2640 -14.2593 -14.2125
   -14.1990 -14.1723 -13.0665  -8.7943  -8.7908  -8.6457  -8.5559  -8.5529
    -8.4181  -8.3562  -8.2118  -8.1785  -8.1744  -8.0327  -7.9849  -4.0932
    -4.0695  -3.8021  -3.7455  -3.3122  -3.1223  -3.1186  -2.8932  -2.8871
    -2.7853  -2.7764  -2.4816  -2.4805  -2.4010  -2.3810  -2.1713  -2.1006
    -2.0731  -1.4822  -1.4278  -1.4047  -1.3032  -1.2973  -1.2677  -1.2432
    -1.1625  -1.0802  -1.0758  -1.0512  -1.0459  -1.0318  -1.0096  -0.5432
    -0.5409  -0.5234  -0.4142  -0.0248   0.1362   0.2609   0.5635   0.6263
     0.8349   1.0044   1.0686   1.0732   1.0789   1.1791   1.1798   1.2093
     1.2475   1.2873   1.3693   1.3724   1.3749   1.3798   1.4062   1.5747
     1.6257   1.6668   1.6862   1.6900   1.7752   1.8453   1.8580   1.9404
     1.9597   1.9630   2.0011   2.0102   2.0322   2.1067   2.2173   2.2511
     2.5931   2.6295   2.8647   4.2917   4.2958   4.3468   4.3471   5.9876
     6.0146   6.0203   6.9667   7.0120   8.2181   8.2576   8.7297   8.7496
     8.9861   9.1930   9.2691   9.2718   9.3705   9.4200   9.4775   9.5592
     9.6937

          k =-0.5000-0.5279 0.0000 ( 35180 PWs)   bands (ev):

   -35.8014 -35.7763 -22.7074 -22.7040 -22.5609 -22.5138 -17.2468 -17.2391
   -17.2272 -17.2124 -16.8600 -16.8372 -14.7983 -14.7972 -14.6500 -14.6500
   -14.4817 -14.4591 -14.4578 -14.3319 -14.3265 -14.2567 -14.2413 -14.2366
   -14.1691 -14.1305 -13.0137  -8.9403  -8.9368  -8.7978  -8.6720  -8.6690
    -8.5626  -8.4615  -8.3420  -8.2065  -8.2024  -8.0486  -8.0035  -4.3011
    -4.2782  -4.0009  -3.9464  -3.5870  -3.3466  -3.3428  -2.9255  -2.9193
    -2.8109  -2.7957  -2.4920  -2.4724  -2.4717  -2.4706  -2.1678  -2.1426
    -2.1416  -1.5925  -1.5419  -1.5170  -1.3719  -1.3626  -1.2315  -1.2288
    -1.2141  -1.1677  -1.1647  -1.1528  -1.1453  -1.0756  -1.0215  -0.5142
    -0.5136  -0.5120  -0.3851   0.0226   0.1682   0.2763   0.6411   0.7502
     0.9329   1.1481   1.1522   1.1530   1.1567   1.1879   1.1962   1.2649
     1.4154   1.4160   1.4182   1.4356   1.4596   1.6550   1.6833   1.7034
     1.7151   1.7948   1.7979   1.8136   1.8783   1.8801   1.9768   1.9867
     2.1525   2.1560   2.1985   2.2036   2.2132   2.2440   2.3376   2.3640
     2.3880   2.3956   2.8001   4.4849   4.4890   4.5564   4.5571   5.7806
     5.7878   5.7944   6.8473   6.9128   8.1922   8.3263   8.8044   8.8392
     8.8525   8.8979   9.1578   9.2185   9.3069   9.3397   9.6425   9.7036
     9.8237

     the Fermi energy is     2.3816 ev

!    total energy              =   -1842.79450537 Ry
     Harris-Foulkes estimate   =   -1842.79450537 Ry
     estimated scf accuracy    <          1.4E-09 Ry

     The total energy is the sum of the following terms:

     one-electron contribution =  -27449.66440432 Ry
     hartree contribution      =   13876.49735644 Ry
     xc contribution           =    -621.61911971 Ry
     ewald contribution        =   12352.00326344 Ry
     smearing contrib. (-TS)   =      -0.01160122 Ry

     convergence has been achieved in  36 iterations

     negative rho (up, down):  1.508E-03 0.000E+00

     Forces acting on atoms (cartesian axes, Ry/au):

     atom    1 type  4   force =     0.00000000    0.00000000   -0.00034200
     atom    2 type  3   force =     0.00000000    0.00000000    0.00042999
     atom    3 type  4   force =     0.00000000    0.00000000   -0.00075742
     atom    4 type  1   force =     0.00000000    0.00000000   -0.00051903
     atom    5 type  3   force =     0.00000000    0.00000000    0.00045254
     atom    6 type  4   force =     0.00000000    0.00000000    0.00090314
     atom    7 type  4   force =     0.00000000    0.00000000    0.00113405
     atom    8 type  2   force =     0.00000000    0.00000000   -0.00272100
     atom    9 type  4   force =     0.00000000    0.00000000    0.00446948
     atom   10 type  4   force =     0.00000000    0.00000000    0.00390509
     atom   11 type  3   force =     0.00000000    0.00000000    0.00136953
     atom   12 type  1   force =     0.00000000    0.00000000    0.00920909
     atom   13 type  4   force =     0.00000000    0.00000000   -0.01877144
     atom   14 type  4   force =     0.00000000    0.00000000    0.03677725
     atom   15 type  3   force =     0.00000000    0.00000000   -0.02682842
     atom   16 type  4   force =     0.00000000    0.00000000    0.02481505
     atom   17 type  1   force =     0.00000000    0.00000000   -0.01144326
     atom   18 type  3   force =     0.00000000    0.00000000   -0.02114098
     atom   19 type  4   force =     0.00000000    0.00000000   -0.00044702
     atom   20 type  4   force =     0.00000000    0.00000000   -0.00141172
     atom   21 type  2   force =     0.00000000    0.00000000    0.00242805
     atom   22 type  4   force =     0.00000000    0.00000000   -0.00163601
     atom   23 type  4   force =     0.00000000    0.00000000   -0.00019530
     atom   24 type  3   force =     0.00000000    0.00000000   -0.00030766
     atom   25 type  1   force =     0.00000000    0.00000000    0.00039072
     atom   26 type  4   force =     0.00000000    0.00000000    0.00029033
     atom   27 type  3   force =     0.00000000    0.00000000   -0.00000892
     atom   28 type  4   force =     0.00000000    0.00000000   -0.00004414

     Total force =     0.061337     Total SCF correction =     0.000162


     Computing stress (Cartesian axis) and pressure


     negative rho (up, down):  1.508E-03 0.000E+00
          total   stress  (Ry/bohr**3)                   (kbar)     P=       -5.91
   0.00000740   0.00000000   0.00000000            1.09        0.00        0.00
   0.00000000  -0.00008310   0.00000000            0.00      -12.22        0.00
   0.00000000   0.00000000  -0.00004479            0.00        0.00       -6.59

 
     init_run     :     10.72s CPU     11.03s WALL (       1 calls)
     electrons    :    705.33s CPU    726.55s WALL (       1 calls)
     forces       :      4.10s CPU      4.28s WALL (       1 calls)
     stress       :     28.28s CPU     28.75s WALL (       1 calls)

     Called by init_run:
     wfcinit      :      7.37s CPU      7.49s WALL (       1 calls)
     potinit      :      0.69s CPU      0.70s WALL (       1 calls)
     hinit0       :      1.20s CPU      1.21s WALL (       1 calls)

     Called by electrons:
     c_bands      :    540.12s CPU    550.81s WALL (      36 calls)
     sum_band     :    108.88s CPU    114.63s WALL (      36 calls)
     v_of_rho     :      3.49s CPU      3.54s WALL (      37 calls)
     newd         :     31.07s CPU     35.71s WALL (      37 calls)
     mix_rho      :     22.29s CPU     22.47s WALL (      36 calls)

     Called by c_bands:
     init_us_2    :      3.58s CPU      3.61s WALL (    1875 calls)
     cegterg      :    511.82s CPU    521.83s WALL (     900 calls)

     Called by sum_band:
     sum_band:bec :      0.25s CPU      0.25s WALL (     900 calls)
     addusdens    :     23.80s CPU     28.70s WALL (      36 calls)

     Called by *egterg:
     h_psi        :    263.81s CPU    270.86s WALL (    3917 calls)
     s_psi        :     21.69s CPU     21.89s WALL (    3917 calls)
     g_psi        :      0.66s CPU      0.66s WALL (    2992 calls)
     cdiaghg      :    117.36s CPU    117.83s WALL (    3892 calls)

     Called by h_psi:
     h_psi:calbec :     29.36s CPU     30.50s WALL (    3917 calls)
     vloc_psi     :    210.95s CPU    213.77s WALL (    3917 calls)
     add_vuspsi   :     22.60s CPU     24.18s WALL (    3917 calls)

     General routines
     calbec       :     54.38s CPU     55.60s WALL (    4942 calls)
     fft          :      3.38s CPU      3.40s WALL (     504 calls)
     ffts         :     11.41s CPU     11.50s WALL (   14636 calls)
     fftw         :    247.31s CPU    250.63s WALL (  638940 calls)
     interpolate  :      0.28s CPU      0.28s WALL (      37 calls)
 
     Parallel routines
     fft_scatt_xy :     23.70s CPU     23.98s WALL (  654080 calls)
     fft_scatt_yz :    181.25s CPU    183.59s WALL (  654080 calls)
 
     PWSCF        :  12m29.54s CPU  12m51.82s WALL

 
   This run was terminated on:  22:50:47  21May2021            

=------------------------------------------------------------------------------=
   JOB DONE.
=------------------------------------------------------------------------------=
[1621651847.109440] [holy7c10312:69301:0]          mpool.c:43   UCX  WARN  object 0x2f93c80 was not returned to mpool ucp_requests
[1621651847.109455] [holy7c10312:69301:0]          mpool.c:43   UCX  WARN  object 0x2f94000 was not returned to mpool ucp_requests
[1621651847.109913] [holy7c10306:234752:0]          mpool.c:43   UCX  WARN  object 0x3506bc0 was not returned to mpool ucp_requests
[1621651847.110545] [holy7c10405:153732:0]          mpool.c:43   UCX  WARN  object 0x286f600 was not returned to mpool ucp_requests
[1621651847.110560] [holy7c10405:153732:0]          mpool.c:43   UCX  WARN  object 0x286fec0 was not returned to mpool ucp_requests
[1621651847.111261] [holy7c10411:264033:0]          mpool.c:43   UCX  WARN  object 0x329a3c0 was not returned to mpool ucp_requests
[1621651847.118469] [holy7c10502:259059:0]          mpool.c:43   UCX  WARN  object 0x3bc7000 was not returned to mpool ucp_requests
[1621651847.115828] [holy7c10407:40124:0]          mpool.c:43   UCX  WARN  object 0x2aa18c0 was not returned to mpool ucp_requests
[1621651847.111668] [holy7c10402:272453:0]          mpool.c:43   UCX  WARN  object 0x433dd80 was not returned to mpool ucp_requests
[1621651847.128195] [holy7c10408:204275:0]          mpool.c:43   UCX  WARN  object 0x42f8f40 was not returned to mpool ucp_requests
[1621651847.118467] [holy7c10411:264032:0]          mpool.c:43   UCX  WARN  object 0x34e28c0 was not returned to mpool ucp_requests
[1621651847.118495] [holy7c10411:264032:0]          mpool.c:43   UCX  WARN  object 0x34e2a80 was not returned to mpool ucp_requests
