
     Program PWSCF v.6.5 starts on 21May2021 at 21:19:27 

     This program is part of the open-source Quantum ESPRESSO suite
     for quantum simulation of materials; please cite
         "P. Giannozzi et al., J. Phys.:Condens. Matter 21 395502 (2009);
         "P. Giannozzi et al., J. Phys.:Condens. Matter 29 465901 (2017);
          URL http://www.quantum-espresso.org", 
     in publications or presentations arising from this work. More details at
     http://www.quantum-espresso.org/quote

     Parallel version (MPI), running on    20 processors

     MPI processes distributed on    16 nodes
     R & G space division:  proc/nbgrp/npool/nimage =      20
     Reading input from CBCO_CuO_cleave_2.5_sep.pwi
Warning: card &IONS ignored
Warning: card     ION_DYNAMICS = 'BFGS' ignored
Warning: card / ignored
Warning: card &CELL ignored
Warning: card     CELL_DYNAMICS = 'BFGS' ignored
Warning: card     PRESS_CONV_THR = 5 ignored
Warning: card / ignored

     Current dimensions of program PWSCF are:
     Max number of different atomic species (ntypx) = 10
     Max number of k-points (npk) =  40000
     Max angular momentum in pseudopotentials (lmaxx) =  3

     Subspace diagonalization in iterative solution of the eigenvalue problem:
     one sub-group per band group will be used
     scalapack distributed-memory algorithm (size of sub-group:  4*  4 procs)

     Message from routine setup:
     using ibrav=0 with symmetry is DISCOURAGED, use correct ibrav instead
 
     Parallelization info
     --------------------
     sticks:   dense  smooth     PW     G-vecs:    dense   smooth      PW
     Min         149      50     14                74181    14286    2232
     Max         150      51     15                74220    14311    2279
     Sum        2991    1007    289              1484037   285927   44931
 


     bravais-lattice index     =            0
     lattice parameter (alat)  =       7.4270  a.u.
     unit-cell volume          =    4549.1164 (a.u.)^3
     number of atoms/cell      =           28
     number of atomic types    =            4
     number of electrons       =       227.00
     number of Kohn-Sham states=          137
     kinetic-energy cutoff     =      60.0000  Ry
     charge density cutoff     =     720.0000  Ry
     convergence threshold     =      1.0E-08
     mixing beta               =       0.5000
     number of iterations used =           10  local-TF  mixing
     Exchange-correlation= SLA PW PBE PBE
                           (   1   4   3   4   0   0   0)

     celldm(1)=   7.427040  celldm(2)=   0.000000  celldm(3)=   0.000000
     celldm(4)=   0.000000  celldm(5)=   0.000000  celldm(6)=   0.000000

     crystal axes: (cart. coord. in units of alat)
               a(1) = (   1.000000   0.000000   0.000000 )  
               a(2) = (   0.000000   0.947081   0.000000 )  
               a(3) = (   0.000000   0.000000  11.724453 )  

     reciprocal axes: (cart. coord. in units 2 pi/alat)
               b(1) = (  1.000000  0.000000  0.000000 )  
               b(2) = (  0.000000  1.055876  0.000000 )  
               b(3) = (  0.000000  0.000000  0.085292 )  


     PseudoPot. # 1 for Ba read from file:
     ./pseudo/Ba.pbe-nsp-van.UPF
     MD5 check sum: 2b9c31dd849566dd297d80989662b7a0
     Pseudo is Ultrasoft + core correction, Zval = 10.0
     Generated by new atomic code, or converted to UPF format
     Using radial grid of  907 points,  6 beta functions with: 
                l(1) =   0
                l(2) =   0
                l(3) =   1
                l(4) =   1
                l(5) =   2
                l(6) =   2
     Q(r) pseudized with  6 coefficients,  rinner =    1.200   1.200   1.200
                                                       1.200   1.200

     PseudoPot. # 2 for Ca read from file:
     ./pseudo/Ca.pbe-nsp-van.UPF
     MD5 check sum: 6471098428ff4fa451746d08035ff179
     Pseudo is Ultrasoft + core correction, Zval = 10.0
     Generated by new atomic code, or converted to UPF format
     Using radial grid of  845 points,  6 beta functions with: 
                l(1) =   0
                l(2) =   0
                l(3) =   1
                l(4) =   1
                l(5) =   2
                l(6) =   2
     Q(r) pseudized with  6 coefficients,  rinner =    1.200   1.200   1.200
                                                       1.200   1.200

     PseudoPot. # 3 for Cu read from file:
     ./pseudo/Cu.pbe-n-van_ak.UPF
     MD5 check sum: 34e3282627ffb533726feb647e090d62
     Pseudo is Ultrasoft + core correction, Zval = 11.0
     Generated by new atomic code, or converted to UPF format
     Using radial grid of  867 points,  6 beta functions with: 
                l(1) =   0
                l(2) =   0
                l(3) =   1
                l(4) =   1
                l(5) =   2
                l(6) =   2
     Q(r) pseudized with  8 coefficients,  rinner =    1.400   1.400   1.400
                                                       1.400   1.400

     PseudoPot. # 4 for O  read from file:
     ./pseudo/O.pbe-van_ak.UPF
     MD5 check sum: 783ce7fe4c79b6a4916957118fed0856
     Pseudo is Ultrasoft, Zval =  6.0
     Generated by new atomic code, or converted to UPF format
     Using radial grid of  737 points,  4 beta functions with: 
                l(1) =   0
                l(2) =   0
                l(3) =   1
                l(4) =   1
     Q(r) pseudized with  8 coefficients,  rinner =    0.800   0.800   0.800


     atomic species   valence    mass     pseudopotential
        Ba            10.00   137.32700     Ba( 1.00)
        Ca            10.00    40.07800     Ca( 1.00)
        Cu            11.00    63.54600     Cu( 1.00)
        O              6.00    15.99900     O ( 1.00)

      4 Sym. Ops. (no inversion) found



   Cartesian axes

     site n.     atom                  positions (alat units)
         1           O   tau(   1) = (   0.0000000   0.4735409  -0.0469745  )
         2           Cu  tau(   2) = (   0.0000000   0.0000000   0.0264565  )
         3           O   tau(   3) = (   0.0000000   0.0000000   0.5030914  )
         4           Ba  tau(   4) = (   0.5000000   0.4735409   0.5690292  )
         5           Cu  tau(   5) = (   0.0000000   0.0000000   1.0374254  )
         6           O   tau(   6) = (   0.5000000   0.0000000   1.0768099  )
         7           O   tau(   7) = (   0.0000000   0.4735409   1.1116985  )
         8           Ca  tau(   8) = (   0.5000000   0.4735409   1.4976260  )
         9           O   tau(   9) = (   0.0000000   0.4735409   1.8667529  )
        10           O   tau(  10) = (   0.5000000   0.0000000   1.9044124  )
        11           Cu  tau(  11) = (   0.0000000   0.0000000   1.9512546  )
        12           Ba  tau(  12) = (   0.5000000   0.4735409   2.4295764  )
        13           O   tau(  13) = (   0.0000000   0.0000000   2.5115362  )
        14           O   tau(  14) = (   0.0000000   0.4735409   2.9918528  )
        15           Cu  tau(  15) = (   0.0000000   0.0000000   2.9919088  )
        16           O   tau(  16) = (   0.0000000   0.0000000   4.1083653  )
        17           Ba  tau(  17) = (   0.5000000   0.4735409   4.1903175  )
        18           Cu  tau(  18) = (   0.0000000   0.0000000   4.6686215  )
        19           O   tau(  19) = (   0.5000000   0.0000000   4.7154636  )
        20           O   tau(  20) = (   0.0000000   0.4735409   4.7531180  )
        21           Ca  tau(  21) = (   0.5000000   0.4735409   5.1222551  )
        22           O   tau(  22) = (   0.0000000   0.4735409   5.5081800  )
        23           O   tau(  23) = (   0.5000000   0.0000000   5.5430687  )
        24           Cu  tau(  24) = (   0.0000000   0.0000000   5.5824558  )
        25           Ba  tau(  25) = (   0.5000000   0.4735409   6.0508494  )
        26           O   tau(  26) = (   0.0000000   0.0000000   6.1167770  )
        27           Cu  tau(  27) = (   0.0000000   0.0000000   6.5934170  )
        28           O   tau(  28) = (   0.0000000   0.4735409   6.6668352  )

     number of k points=    25  Gaussian smearing, width (Ry)=  0.0100
                       cart. coord. in units 2pi/alat
        k(    1) = (   0.0000000   0.0000000   0.0000000), wk =   0.0312500
        k(    2) = (   0.0000000   0.1319845   0.0000000), wk =   0.0625000
        k(    3) = (   0.0000000   0.2639689   0.0000000), wk =   0.0625000
        k(    4) = (   0.0000000   0.3959534   0.0000000), wk =   0.0625000
        k(    5) = (   0.0000000  -0.5279378   0.0000000), wk =   0.0312500
        k(    6) = (   0.1250000   0.0000000   0.0000000), wk =   0.0625000
        k(    7) = (   0.1250000   0.1319845   0.0000000), wk =   0.1250000
        k(    8) = (   0.1250000   0.2639689   0.0000000), wk =   0.1250000
        k(    9) = (   0.1250000   0.3959534   0.0000000), wk =   0.1250000
        k(   10) = (   0.1250000  -0.5279378   0.0000000), wk =   0.0625000
        k(   11) = (   0.2500000   0.0000000   0.0000000), wk =   0.0625000
        k(   12) = (   0.2500000   0.1319845   0.0000000), wk =   0.1250000
        k(   13) = (   0.2500000   0.2639689   0.0000000), wk =   0.1250000
        k(   14) = (   0.2500000   0.3959534   0.0000000), wk =   0.1250000
        k(   15) = (   0.2500000  -0.5279378   0.0000000), wk =   0.0625000
        k(   16) = (   0.3750000   0.0000000   0.0000000), wk =   0.0625000
        k(   17) = (   0.3750000   0.1319845   0.0000000), wk =   0.1250000
        k(   18) = (   0.3750000   0.2639689   0.0000000), wk =   0.1250000
        k(   19) = (   0.3750000   0.3959534   0.0000000), wk =   0.1250000
        k(   20) = (   0.3750000  -0.5279378   0.0000000), wk =   0.0625000
        k(   21) = (  -0.5000000   0.0000000   0.0000000), wk =   0.0312500
        k(   22) = (  -0.5000000   0.1319845   0.0000000), wk =   0.0625000
        k(   23) = (  -0.5000000   0.2639689   0.0000000), wk =   0.0625000
        k(   24) = (  -0.5000000   0.3959534   0.0000000), wk =   0.0625000
        k(   25) = (  -0.5000000  -0.5279378   0.0000000), wk =   0.0312500

     Dense  grid:  1484037 G-vectors     FFT dimensions: (  64,  64, 750)

     Smooth grid:   285927 G-vectors     FFT dimensions: (  40,  36, 432)

     Estimated max dynamical RAM per process >     473.42 MB

     Estimated total dynamical RAM >       9.25 GB

     Initial potential from superposition of free atoms

     starting charge  226.84630, renormalised to  227.00000

     negative rho (up, down):  3.508E-03 0.000E+00
     Starting wfcs are  195 randomized atomic wfcs

     total cpu time spent up to now is       12.3 secs

     Self-consistent Calculation

     iteration #  1     ecut=    60.00 Ry     beta= 0.50
     Davidson diagonalization with overlap
     ethr =  1.00E-02,  avg # of iterations =  2.0

     negative rho (up, down):  5.042E-04 0.000E+00

     total cpu time spent up to now is       32.5 secs

     total energy              =   -1840.73016099 Ry
     Harris-Foulkes estimate   =   -1845.35794866 Ry
     estimated scf accuracy    <      19.23476534 Ry

     iteration #  2     ecut=    60.00 Ry     beta= 0.50
     Davidson diagonalization with overlap
     ethr =  8.47E-03,  avg # of iterations =  2.0

     negative rho (up, down):  2.798E-04 0.000E+00

     total cpu time spent up to now is       52.7 secs

     total energy              =   -1842.43768694 Ry
     Harris-Foulkes estimate   =   -1843.35284277 Ry
     estimated scf accuracy    <       6.81858098 Ry

     iteration #  3     ecut=    60.00 Ry     beta= 0.50
     Davidson diagonalization with overlap
     ethr =  3.00E-03,  avg # of iterations =  1.0

     negative rho (up, down):  2.548E-04 0.000E+00

     total cpu time spent up to now is       70.2 secs

     total energy              =   -1842.77573855 Ry
     Harris-Foulkes estimate   =   -1843.02364095 Ry
     estimated scf accuracy    <       6.96172670 Ry

     iteration #  4     ecut=    60.00 Ry     beta= 0.50
     Davidson diagonalization with overlap
     ethr =  3.00E-03,  avg # of iterations =  1.0

     negative rho (up, down):  2.496E-04 0.000E+00

     total cpu time spent up to now is       89.2 secs

     total energy              =   -1842.83678439 Ry
     Harris-Foulkes estimate   =   -1842.90409541 Ry
     estimated scf accuracy    <       1.93458902 Ry

     iteration #  5     ecut=    60.00 Ry     beta= 0.50
     Davidson diagonalization with overlap
     ethr =  8.52E-04,  avg # of iterations =  1.1

     negative rho (up, down):  2.437E-04 0.000E+00

     total cpu time spent up to now is      107.7 secs

     total energy              =   -1842.80871531 Ry
     Harris-Foulkes estimate   =   -1842.87472741 Ry
     estimated scf accuracy    <       1.04251482 Ry

     iteration #  6     ecut=    60.00 Ry     beta= 0.50
     Davidson diagonalization with overlap
     ethr =  4.59E-04,  avg # of iterations =  2.3

     negative rho (up, down):  2.369E-04 0.000E+00

     total cpu time spent up to now is      128.6 secs

     total energy              =   -1842.79484268 Ry
     Harris-Foulkes estimate   =   -1842.83631740 Ry
     estimated scf accuracy    <       0.86703795 Ry

     iteration #  7     ecut=    60.00 Ry     beta= 0.50
     Davidson diagonalization with overlap
     ethr =  3.82E-04,  avg # of iterations =  3.3

     negative rho (up, down):  2.355E-04 0.000E+00

     total cpu time spent up to now is      150.3 secs

     total energy              =   -1842.79578478 Ry
     Harris-Foulkes estimate   =   -1842.80853118 Ry
     estimated scf accuracy    <       0.18142753 Ry

     iteration #  8     ecut=    60.00 Ry     beta= 0.50
     Davidson diagonalization with overlap
     ethr =  7.99E-05,  avg # of iterations =  7.8

     negative rho (up, down):  2.346E-04 0.000E+00

     total cpu time spent up to now is      178.3 secs

     total energy              =   -1842.79508430 Ry
     Harris-Foulkes estimate   =   -1842.80575326 Ry
     estimated scf accuracy    <       0.23218408 Ry

     iteration #  9     ecut=    60.00 Ry     beta= 0.50
     Davidson diagonalization with overlap
     ethr =  7.99E-05,  avg # of iterations =  1.0

     negative rho (up, down):  2.347E-04 0.000E+00

     total cpu time spent up to now is      196.1 secs

     total energy              =   -1842.79781500 Ry
     Harris-Foulkes estimate   =   -1842.80132064 Ry
     estimated scf accuracy    <       0.15206855 Ry

     iteration # 10     ecut=    60.00 Ry     beta= 0.50
     Davidson diagonalization with overlap
     ethr =  6.70E-05,  avg # of iterations =  1.1

     negative rho (up, down):  2.360E-04 0.000E+00

     total cpu time spent up to now is      214.6 secs

     total energy              =   -1842.79549091 Ry
     Harris-Foulkes estimate   =   -1842.79914826 Ry
     estimated scf accuracy    <       0.06814337 Ry

     iteration # 11     ecut=    60.00 Ry     beta= 0.50
     Davidson diagonalization with overlap
     ethr =  3.00E-05,  avg # of iterations =  5.1

     negative rho (up, down):  2.374E-04 0.000E+00

     total cpu time spent up to now is      238.0 secs

     total energy              =   -1842.79385624 Ry
     Harris-Foulkes estimate   =   -1842.79649740 Ry
     estimated scf accuracy    <       0.09929688 Ry

     iteration # 12     ecut=    60.00 Ry     beta= 0.50
     Davidson diagonalization with overlap
     ethr =  3.00E-05,  avg # of iterations =  5.6

     negative rho (up, down):  2.374E-04 0.000E+00

     total cpu time spent up to now is      262.5 secs

     total energy              =   -1842.79385923 Ry
     Harris-Foulkes estimate   =   -1842.79454877 Ry
     estimated scf accuracy    <       0.07884095 Ry

     iteration # 13     ecut=    60.00 Ry     beta= 0.50
     Davidson diagonalization with overlap
     ethr =  3.00E-05,  avg # of iterations =  1.0

     negative rho (up, down):  2.373E-04 0.000E+00

     total cpu time spent up to now is      280.9 secs

     total energy              =   -1842.79265273 Ry
     Harris-Foulkes estimate   =   -1842.79403739 Ry
     estimated scf accuracy    <       0.08167809 Ry

     iteration # 14     ecut=    60.00 Ry     beta= 0.50
     Davidson diagonalization with overlap
     ethr =  3.00E-05,  avg # of iterations =  1.4

     negative rho (up, down):  1.746E-03 0.000E+00

     total cpu time spent up to now is      300.3 secs

     total energy              =   -1842.79145191 Ry
     Harris-Foulkes estimate   =   -1842.79283358 Ry
     estimated scf accuracy    <       0.08255599 Ry

     iteration # 15     ecut=    60.00 Ry     beta= 0.50
     Davidson diagonalization with overlap
     ethr =  3.00E-05,  avg # of iterations =  2.4

     negative rho (up, down):  8.433E-03 0.000E+00

     total cpu time spent up to now is      320.5 secs

     total energy              =   -1842.79046052 Ry
     Harris-Foulkes estimate   =   -1842.79160851 Ry
     estimated scf accuracy    <       0.07697647 Ry

     iteration # 16     ecut=    60.00 Ry     beta= 0.50
     Davidson diagonalization with overlap
     ethr =  3.00E-05,  avg # of iterations =  3.8

     negative rho (up, down):  2.060E-02 0.000E+00

     total cpu time spent up to now is      342.4 secs

     total energy              =   -1842.78835752 Ry
     Harris-Foulkes estimate   =   -1842.79058416 Ry
     estimated scf accuracy    <       0.05380360 Ry

     iteration # 17     ecut=    60.00 Ry     beta= 0.50
     Davidson diagonalization with overlap
     ethr =  2.37E-05,  avg # of iterations =  7.6

     negative rho (up, down):  2.080E-02 0.000E+00

     total cpu time spent up to now is      370.1 secs

     total energy              =   -1842.78841389 Ry
     Harris-Foulkes estimate   =   -1842.78920027 Ry
     estimated scf accuracy    <       0.00704368 Ry

     iteration # 18     ecut=    60.00 Ry     beta= 0.50
     Davidson diagonalization with overlap
     ethr =  3.10E-06,  avg # of iterations =  7.8

     negative rho (up, down):  2.118E-02 0.000E+00

     total cpu time spent up to now is      396.9 secs

     total energy              =   -1842.78822816 Ry
     Harris-Foulkes estimate   =   -1842.78862821 Ry
     estimated scf accuracy    <       0.00531313 Ry

     iteration # 19     ecut=    60.00 Ry     beta= 0.50
     Davidson diagonalization with overlap
     ethr =  2.34E-06,  avg # of iterations =  8.2

     negative rho (up, down):  1.337E-02 0.000E+00

     total cpu time spent up to now is      425.2 secs

     total energy              =   -1842.78773756 Ry
     Harris-Foulkes estimate   =   -1842.78828378 Ry
     estimated scf accuracy    <       0.00271152 Ry

     iteration # 20     ecut=    60.00 Ry     beta= 0.50
     Davidson diagonalization with overlap
     c_bands:  1 eigenvalues not converged
     ethr =  1.19E-06,  avg # of iterations =  6.3

     negative rho (up, down):  4.999E-03 0.000E+00

     total cpu time spent up to now is      452.1 secs

     total energy              =   -1842.78751306 Ry
     Harris-Foulkes estimate   =   -1842.78781854 Ry
     estimated scf accuracy    <       0.00186911 Ry

     iteration # 21     ecut=    60.00 Ry     beta= 0.50
     Davidson diagonalization with overlap
     c_bands:  1 eigenvalues not converged
     c_bands:  1 eigenvalues not converged
     c_bands:  1 eigenvalues not converged
     ethr =  8.23E-07,  avg # of iterations =  9.8

     negative rho (up, down):  1.343E-03 0.000E+00

     total cpu time spent up to now is      484.6 secs

     total energy              =   -1842.78752540 Ry
     Harris-Foulkes estimate   =   -1842.78759876 Ry
     estimated scf accuracy    <       0.00147185 Ry

     iteration # 22     ecut=    60.00 Ry     beta= 0.50
     Davidson diagonalization with overlap
     c_bands:  1 eigenvalues not converged
     c_bands:  1 eigenvalues not converged
     c_bands:  1 eigenvalues not converged
     c_bands:  1 eigenvalues not converged
     c_bands:  1 eigenvalues not converged
     ethr =  6.48E-07,  avg # of iterations =  8.1

     negative rho (up, down):  2.198E-03 0.000E+00

     total cpu time spent up to now is      513.0 secs

     total energy              =   -1842.78754928 Ry
     Harris-Foulkes estimate   =   -1842.78754823 Ry
     estimated scf accuracy    <       0.00029126 Ry

     iteration # 23     ecut=    60.00 Ry     beta= 0.50
     Davidson diagonalization with overlap
     ethr =  1.28E-07,  avg # of iterations =  5.3

     negative rho (up, down):  1.230E-03 0.000E+00

     total cpu time spent up to now is      537.9 secs

     total energy              =   -1842.78759426 Ry
     Harris-Foulkes estimate   =   -1842.78756027 Ry
     estimated scf accuracy    <       0.00011665 Ry

     iteration # 24     ecut=    60.00 Ry     beta= 0.50
     Davidson diagonalization with overlap
     c_bands:  1 eigenvalues not converged
     c_bands:  1 eigenvalues not converged
     ethr =  5.14E-08,  avg # of iterations =  5.4

     negative rho (up, down):  1.006E-03 0.000E+00

     total cpu time spent up to now is      562.4 secs

     total energy              =   -1842.78760894 Ry
     Harris-Foulkes estimate   =   -1842.78759870 Ry
     estimated scf accuracy    <       0.00006008 Ry

     iteration # 25     ecut=    60.00 Ry     beta= 0.50
     Davidson diagonalization with overlap
     ethr =  2.65E-08,  avg # of iterations =  4.2

     negative rho (up, down):  1.084E-03 0.000E+00

     total cpu time spent up to now is      584.8 secs

     total energy              =   -1842.78761074 Ry
     Harris-Foulkes estimate   =   -1842.78761097 Ry
     estimated scf accuracy    <       0.00003841 Ry

     iteration # 26     ecut=    60.00 Ry     beta= 0.50
     Davidson diagonalization with overlap
     ethr =  1.69E-08,  avg # of iterations =  1.1

     negative rho (up, down):  1.257E-03 0.000E+00

     total cpu time spent up to now is      603.1 secs

     total energy              =   -1842.78761138 Ry
     Harris-Foulkes estimate   =   -1842.78761159 Ry
     estimated scf accuracy    <       0.00002009 Ry

     iteration # 27     ecut=    60.00 Ry     beta= 0.50
     Davidson diagonalization with overlap
     ethr =  8.85E-09,  avg # of iterations =  1.2

     negative rho (up, down):  1.477E-03 0.000E+00

     total cpu time spent up to now is      622.6 secs

     total energy              =   -1842.78761130 Ry
     Harris-Foulkes estimate   =   -1842.78761171 Ry
     estimated scf accuracy    <       0.00001094 Ry

     iteration # 28     ecut=    60.00 Ry     beta= 0.50
     Davidson diagonalization with overlap
     ethr =  4.82E-09,  avg # of iterations =  1.1

     negative rho (up, down):  1.535E-03 0.000E+00

     total cpu time spent up to now is      641.7 secs

     total energy              =   -1842.78761137 Ry
     Harris-Foulkes estimate   =   -1842.78761147 Ry
     estimated scf accuracy    <       0.00000058 Ry

     iteration # 29     ecut=    60.00 Ry     beta= 0.50
     Davidson diagonalization with overlap
     ethr =  2.57E-10,  avg # of iterations =  4.0

     negative rho (up, down):  1.528E-03 0.000E+00

     total cpu time spent up to now is      666.7 secs

     total energy              =   -1842.78761146 Ry
     Harris-Foulkes estimate   =   -1842.78761146 Ry
     estimated scf accuracy    <       0.00000069 Ry

     iteration # 30     ecut=    60.00 Ry     beta= 0.50
     Davidson diagonalization with overlap
     ethr =  2.57E-10,  avg # of iterations =  1.0

     negative rho (up, down):  1.513E-03 0.000E+00

     total cpu time spent up to now is      684.4 secs

     total energy              =   -1842.78761148 Ry
     Harris-Foulkes estimate   =   -1842.78761147 Ry
     estimated scf accuracy    <       0.00000019 Ry

     iteration # 31     ecut=    60.00 Ry     beta= 0.50
     Davidson diagonalization with overlap
     ethr =  8.55E-11,  avg # of iterations =  1.0

     negative rho (up, down):  1.516E-03 0.000E+00

     total cpu time spent up to now is      702.5 secs

     total energy              =   -1842.78761147 Ry
     Harris-Foulkes estimate   =   -1842.78761148 Ry
     estimated scf accuracy    <       0.00000023 Ry

     iteration # 32     ecut=    60.00 Ry     beta= 0.50
     Davidson diagonalization with overlap
     ethr =  8.55E-11,  avg # of iterations =  1.0

     negative rho (up, down):  1.519E-03 0.000E+00

     total cpu time spent up to now is      720.6 secs

     total energy              =   -1842.78761147 Ry
     Harris-Foulkes estimate   =   -1842.78761148 Ry
     estimated scf accuracy    <       0.00000004 Ry

     iteration # 33     ecut=    60.00 Ry     beta= 0.50
     Davidson diagonalization with overlap
     ethr =  1.57E-11,  avg # of iterations =  1.3

     negative rho (up, down):  1.524E-03 0.000E+00

     total cpu time spent up to now is      738.8 secs

     total energy              =   -1842.78761146 Ry
     Harris-Foulkes estimate   =   -1842.78761147 Ry
     estimated scf accuracy    <       0.00000007 Ry

     iteration # 34     ecut=    60.00 Ry     beta= 0.50
     Davidson diagonalization with overlap
     ethr =  1.57E-11,  avg # of iterations =  1.0

     negative rho (up, down):  1.528E-03 0.000E+00

     total cpu time spent up to now is      756.1 secs

     End of self-consistent calculation

          k = 0.0000 0.0000 0.0000 ( 35809 PWs)   bands (ev):

   -35.9375 -35.9128 -23.0950 -23.0916 -22.9462 -22.9086 -17.4382 -17.4189
   -16.9891 -16.9788 -16.9659 -16.9520 -15.6353 -15.6259 -14.9807 -14.9756
   -14.9678 -14.9100 -14.8988 -14.4818 -14.4793 -14.3069 -14.2943 -14.2115
   -14.1714 -14.1552 -12.9966  -8.2275  -8.2244  -8.1884  -8.1853  -8.1438
    -8.0837  -8.0078  -7.9956  -7.9923  -7.8809  -7.8348  -7.6812  -2.6287
    -2.6286  -2.3052  -2.1572  -2.1536  -2.1297  -2.1254  -2.0003  -1.9834
    -1.8876  -1.8675  -1.8348  -1.8248  -1.5193  -1.5154  -1.1768  -0.7583
    -0.7563  -0.6798  -0.6786  -0.6737  -0.6499  -0.6280  -0.6077  -0.5911
    -0.5905  -0.5717  -0.5657  -0.5649  -0.5627  -0.5056  -0.4906  -0.3396
    -0.3360  -0.3156  -0.2400  -0.2218  -0.2114  -0.2047  -0.1995  -0.1968
    -0.1571  -0.1427  -0.1360  -0.1232  -0.0987  -0.0715  -0.0175   0.0310
     0.1861   0.4746   0.5601   0.5811   0.5842   0.6245   0.6626   0.8606
     0.8647   1.0215   1.0447   1.0556   1.0720   1.1531   1.1758   1.1970
     1.2058   1.2237   1.2286   1.4881   1.5170   1.5650   1.7244   1.7393
     1.7772   1.9141   2.0377   2.0467   2.1441   2.2326   2.2449   4.6919
     4.9182   4.9269   5.8192   5.9090   6.4306   6.4518   6.5227   6.7061
     7.3572   7.6667   7.8197   7.8916   8.1167   8.2273   8.2803   8.3729
     8.8001

          k = 0.0000 0.1320 0.0000 ( 35759 PWs)   bands (ev):

   -35.9356 -35.9110 -23.0683 -23.0649 -22.9205 -22.8852 -17.4022 -17.3828
   -17.0511 -17.0244 -16.9868 -16.9636 -15.5461 -15.5372 -14.9859 -14.9818
   -14.9302 -14.8823 -14.8690 -14.4920 -14.4885 -14.3113 -14.2952 -14.2617
   -14.2012 -14.1993 -13.0567  -8.2269  -8.2234  -8.1445  -8.1406  -8.1375
    -8.0821  -8.0373  -8.0341  -7.9620  -7.8847  -7.8412  -7.7118  -2.6901
    -2.6883  -2.5270  -2.5101  -2.4288  -2.4119  -2.2826  -1.9781  -1.9629
    -1.9442  -1.9401  -1.8707  -1.8516  -1.7606  -1.6598  -1.6562  -1.0163
    -0.9418  -0.9217  -0.8564  -0.8538  -0.7678  -0.7633  -0.7168  -0.7146
    -0.6236  -0.5714  -0.5293  -0.4971  -0.4802  -0.4616  -0.4468  -0.4440
    -0.4218  -0.3179  -0.3142  -0.3113  -0.3048  -0.2349  -0.2185  -0.1972
    -0.1762  -0.1755  -0.1495  -0.0819  -0.0275  -0.0096   0.0275   0.0606
     0.4494   0.6397   0.6813   0.7532   0.7780   0.7807   0.8255   0.8268
     0.8515   0.8639   0.8665   1.1100   1.1358   1.1561   1.1599   1.2574
     1.2658   1.2867   1.3703   1.4566   1.5021   1.5451   1.6579   1.6977
     1.7342   1.9070   1.9203   2.2197   2.2838   2.5215   2.5243   5.0125
     5.2935   5.2963   6.1365   6.1969   6.7284   6.7597   6.8017   7.0219
     7.5693   7.8423   8.0022   8.1092   8.2926   8.4172   8.5017   8.6274
     8.8973

          k = 0.0000 0.2640 0.0000 ( 35649 PWs)   bands (ev):

   -35.9312 -35.9066 -23.0025 -22.9990 -22.8570 -22.8277 -17.3107 -17.2912
   -17.2048 -17.1785 -16.9811 -16.9579 -15.3421 -15.3343 -15.0410 -15.0336
   -14.8754 -14.7977 -14.7948 -14.4813 -14.4749 -14.3775 -14.3387 -14.3324
   -14.2869 -14.2469 -13.1947  -8.2262  -8.2225  -8.1446  -8.1284  -8.1248
    -8.0786  -8.0202  -8.0171  -7.9917  -7.8469  -7.7762  -7.7421  -3.1487
    -3.1407  -3.0022  -2.9847  -2.7504  -2.7285  -2.7263  -2.5802  -2.5779
    -2.2859  -1.9193  -1.9084  -1.8360  -1.8154  -1.8047  -1.7995  -1.5626
    -1.3358  -1.2439  -1.1094  -1.1061  -0.9837  -0.9715  -0.9127  -0.8917
    -0.8573  -0.8495  -0.8339  -0.7991  -0.7954  -0.7941  -0.7107  -0.6779
    -0.4965  -0.2894  -0.2856  -0.2579  -0.2276  -0.2095  -0.1800  -0.1691
    -0.0944  -0.0576   0.0478   0.0801   0.2860   0.2882   0.3884   0.4069
     0.6327   0.6484   0.6550   0.8166   0.8257   0.8635   0.8656   0.9081
     0.9205   0.9730   0.9809   1.0169   1.1029   1.2499   1.2878   1.3519
     1.3925   1.4750   1.5619   1.5637   1.6250   1.6478   1.6638   1.6733
     1.6770   1.7648   1.8498   2.3641   2.6546   2.7502   2.7724   5.7773
     6.1870   6.1896   6.9444   6.9691   7.4292   7.5847   7.5920   7.8881
     8.1866   8.3464   8.4677   8.5242   8.5882   8.7140   8.8967   8.9645
     8.9851

          k = 0.0000 0.3960 0.0000 ( 35582 PWs)   bands (ev):

   -35.9268 -35.9022 -22.9343 -22.9309 -22.7914 -22.7685 -17.3416 -17.3150
   -17.2089 -17.1895 -16.9754 -16.9522 -15.2387 -15.2369 -15.0367 -15.0085
   -14.8969 -14.7312 -14.6759 -14.4391 -14.4346 -14.4220 -14.4168 -14.3939
   -14.3542 -14.2983 -13.3210  -8.2261  -8.2225  -8.2065  -8.2031  -8.1432
    -8.1016  -8.0589  -7.8918  -7.8886  -7.8295  -7.7247  -7.6382  -3.6065
    -3.5967  -3.5253  -3.4237  -3.4021  -3.2959  -3.2922  -2.6708  -2.6703
    -2.3160  -2.1478  -2.1221  -1.9442  -1.8492  -1.8432  -1.7177  -1.7084
    -1.5763  -1.4584  -1.3800  -1.3763  -1.2262  -1.1987  -1.1843  -1.1322
    -1.1134  -1.0912  -1.0594  -1.0436  -1.0296  -0.9953  -0.7470  -0.6984
    -0.4737  -0.3463  -0.2723  -0.2684  -0.2246  -0.1771  -0.1692  -0.1532
    -0.1252  -0.1020   0.1636   0.1965   0.4454   0.4578   0.6153   0.6185
     0.6381   0.6614   0.7191   0.7440   0.7618   0.8034   0.8354   0.8372
     0.9133   1.0773   1.2394   1.3029   1.3047   1.3889   1.3959   1.3993
     1.4076   1.4883   1.5713   1.6468   1.6477   1.7439   1.8013   1.9046
     2.0677   2.0712   2.0884   2.3272   2.5921   2.6555   2.7822   6.6695
     7.1328   7.1358   7.8425   7.9108   8.0530   8.3736   8.3780   8.4656
     8.7286   8.7351   8.7564   8.7848   8.8879   9.0465   9.1010   9.1554
     9.2587

          k = 0.0000-0.5279 0.0000 ( 35638 PWs)   bands (ev):

   -35.9250 -35.9003 -22.9054 -22.9019 -22.7636 -22.7434 -17.3936 -17.3670
   -17.1642 -17.1448 -16.9731 -16.9499 -15.2800 -15.2766 -14.9736 -14.9022
   -14.8992 -14.7110 -14.6160 -14.4789 -14.4754 -14.4235 -14.3831 -14.3735
   -14.3703 -14.3611 -13.3695  -8.2361  -8.2328  -8.2258  -8.2223  -8.1420
    -8.1324  -8.0621  -7.8490  -7.8359  -7.8327  -7.6716  -7.5936  -3.8031
    -3.7738  -3.7675  -3.5928  -3.5819  -3.5250  -3.5216  -2.6869  -2.6865
    -2.3259  -2.2718  -2.2494  -2.0801  -1.8142  -1.8108  -1.6742  -1.6334
    -1.6321  -1.5493  -1.5067  -1.5011  -1.3534  -1.3194  -1.3033  -1.2428
    -1.2028  -1.1708  -1.1366  -1.1336  -1.1083  -1.0804  -0.7304  -0.6638
    -0.4396  -0.3957  -0.2666  -0.2627  -0.2557  -0.1686  -0.1485  -0.1483
    -0.1313  -0.0836   0.0848   0.1009   0.4887   0.4976   0.5338   0.5447
     0.6886   0.7081   0.7124   0.7673   0.8183   0.8203   0.8861   0.9518
     0.9721   0.9921   1.1947   1.3217   1.3828   1.3988   1.4072   1.5610
     1.6707   1.6763   1.6845   1.6847   1.6928   1.7374   1.7439   2.1400
     2.2163   2.2293   2.2328   2.2666   2.4134   2.5006   2.6910   7.2900
     7.5442   7.5476   7.9016   8.1929   8.5624   8.6002   8.6362   8.6510
     8.6646   8.6727   8.9289   8.9949   9.0142   9.1089   9.2165   9.2970
     9.6314

          k = 0.1250 0.0000 0.0000 ( 35737 PWs)   bands (ev):

   -35.9364 -35.9117 -23.0770 -23.0735 -22.9287 -22.8935 -17.4050 -17.3854
   -17.0688 -17.0469 -16.9774 -16.9507 -15.5324 -15.5218 -15.0256 -15.0219
   -14.9960 -14.9142 -14.9040 -14.4909 -14.4881 -14.3167 -14.3052 -14.2317
   -14.1967 -14.1757 -13.0676  -8.2530  -8.2493  -8.1442  -8.1300  -8.1241
    -8.1230  -7.9632  -7.9599  -7.9405  -7.8307  -7.8038  -7.6548  -2.6721
    -2.6714  -2.3754  -2.1829  -2.1801  -2.1521  -2.1386  -2.1353  -2.1327
    -2.0970  -2.0937  -1.8002  -1.7866  -1.5172  -1.5133  -1.2043  -0.9552
    -0.9495  -0.8181  -0.8117  -0.7700  -0.7636  -0.7475  -0.6520  -0.6401
    -0.6381  -0.5967  -0.5919  -0.5910  -0.5310  -0.5225  -0.4898  -0.4687
    -0.3843  -0.3380  -0.2304  -0.2069  -0.2041  -0.1509  -0.1509  -0.1233
    -0.1115  -0.1068  -0.0918  -0.0777  -0.0230  -0.0048   0.0482   0.1298
     0.1891   0.4870   0.4966   0.5035   0.5886   0.6576   0.7057   0.8435
     0.8596   0.9005   0.9092   1.0345   1.0615   1.1677   1.1694   1.1787
     1.2380   1.2569   1.5082   1.5683   1.6569   1.6709   1.6915   1.7263
     1.7336   1.9145   1.9611   2.0454   2.1106   2.2684   2.2785   4.8554
     5.0979   5.1010   6.0541   6.1234   6.6393   6.6694   6.7138   6.9417
     7.4900   7.8102   7.9535   8.0393   8.2843   8.4474   8.5004   8.5957
     8.9545

          k = 0.1250 0.1320 0.0000 ( 35712 PWs)   bands (ev):

   -35.9346 -35.9099 -23.0511 -23.0477 -22.9037 -22.8707 -17.3700 -17.3504
   -17.0720 -17.0492 -17.0402 -17.0144 -15.4503 -15.4401 -15.0216 -15.0172
   -14.9562 -14.8823 -14.8725 -14.4922 -14.4888 -14.3172 -14.3061 -14.2748
   -14.2251 -14.2172 -13.1093  -8.2715  -8.2681  -8.1898  -8.1864  -8.1423
    -8.1276  -8.0261  -7.9252  -7.9221  -7.9183  -7.7680  -7.6106  -2.7275
    -2.7250  -2.5355  -2.5025  -2.4160  -2.3893  -2.3055  -2.1616  -2.1578
    -2.1242  -2.1107  -1.9383  -1.9341  -1.7727  -1.6506  -1.6482  -1.1466
    -1.1149  -1.0136  -0.9782  -0.9730  -0.9141  -0.9074  -0.8045  -0.8016
    -0.7226  -0.5944  -0.5792  -0.5328  -0.5093  -0.4909  -0.4853  -0.4409
    -0.3967  -0.3733  -0.3437  -0.2998  -0.2993  -0.2059  -0.1639  -0.1465
    -0.1351  -0.1311  -0.0642  -0.0493  -0.0036   0.0270   0.1798   0.2201
     0.4688   0.7077   0.7282   0.7403   0.7759   0.8241   0.8306   0.8972
     0.9132   0.9357   0.9417   0.9757   0.9841   1.0054   1.0261   1.2815
     1.2933   1.2947   1.3578   1.3615   1.4109   1.5736   1.7584   2.0242
     2.0441   2.0938   2.1423   2.2840   2.2959   2.5265   2.5305   5.1389
     5.4356   5.4381   6.3230   6.3707   6.9136   6.9682   6.9850   7.2503
     7.6930   7.9835   8.1250   8.2341   8.4300   8.5675   8.6833   8.8010
     8.9529

          k = 0.1250 0.2640 0.0000 ( 35637 PWs)   bands (ev):

   -35.9302 -35.9055 -22.9873 -22.9838 -22.8421 -22.8146 -17.2816 -17.2617
   -17.2016 -17.1754 -17.0516 -17.0294 -15.2683 -15.2600 -15.0335 -15.0232
   -14.8830 -14.7954 -14.7904 -14.4761 -14.4710 -14.3808 -14.3550 -14.3495
   -14.2835 -14.2536 -13.2072  -8.3401  -8.3369  -8.2270  -8.2230  -8.1814
    -8.1416  -8.0829  -8.0130  -7.9161  -7.9129  -7.7656  -7.6076  -3.1737
    -3.1646  -3.0073  -2.9882  -2.7416  -2.7291  -2.7269  -2.5797  -2.5771
    -2.3261  -2.1112  -2.1033  -2.0746  -2.0588  -1.8312  -1.8068  -1.5756
    -1.3485  -1.3008  -1.2862  -1.2602  -1.2197  -1.2178  -0.9973  -0.9935
    -0.9398  -0.8954  -0.8590  -0.8221  -0.8060  -0.7457  -0.7068  -0.6854
    -0.5668  -0.4609  -0.4221  -0.3112  -0.2631  -0.1260  -0.1002  -0.0650
     0.0392   0.1305   0.1597   0.1933   0.4266   0.4473   0.4694   0.4788
     0.6979   0.7228   0.7376   0.7804   0.7895   0.8878   0.9697   0.9702
     1.0155   1.0170   1.0905   1.0933   1.1671   1.1794   1.2339   1.2478
     1.3212   1.3221   1.3719   1.6260   1.6394   1.6408   1.7209   2.1088
     2.2114   2.2421   2.3060   2.4834   2.6586   2.7614   2.7851   5.8514
     6.2479   6.2505   7.0268   7.0486   7.4992   7.7500   7.7537   8.0887
     8.3146   8.4705   8.5239   8.5640   8.6301   8.7489   8.8197   8.8670
     8.9351

          k = 0.1250 0.3960 0.0000 ( 35638 PWs)   bands (ev):

   -35.9258 -35.9011 -22.9214 -22.9179 -22.7787 -22.7569 -17.3364 -17.3099
   -17.1826 -17.1629 -17.0430 -17.0207 -15.2027 -15.2010 -14.9741 -14.9327
   -14.8587 -14.7166 -14.6670 -14.4688 -14.4684 -14.4215 -14.4086 -14.3877
   -14.3390 -14.2901 -13.2990  -8.3706  -8.3673  -8.2424  -8.2375  -8.2346
    -8.1453  -8.0784  -8.0141  -7.9611  -7.9579  -7.8040  -7.6798  -3.6492
    -3.6394  -3.5235  -3.4469  -3.4219  -3.2871  -3.2834  -2.6793  -2.6786
    -2.3473  -2.1002  -2.0942  -2.0086  -1.9822  -1.9772  -1.9433  -1.8103
    -1.6429  -1.6375  -1.5278  -1.5111  -1.5044  -1.4299  -1.2162  -1.2045
    -1.1718  -1.1673  -1.1074  -1.0593  -1.0577  -0.9361  -0.7469  -0.7055
    -0.5850  -0.4934  -0.4481  -0.2870  -0.2152  -0.0989  -0.0949  -0.0350
     0.0563   0.1506   0.3380   0.3735   0.5910   0.5996   0.6327   0.6533
     0.7232   0.7396   0.7478   0.8307   0.8469   0.9235   0.9292   0.9339
     1.0501   1.1051   1.3187   1.3273   1.3835   1.4009   1.4298   1.4865
     1.5063   1.5465   1.5537   1.8356   2.0347   2.0370   2.0392   2.0724
     2.1640   2.1906   2.2898   2.4288   2.6092   2.7151   2.8103   6.6705
     6.9967   6.9998   7.6924   7.7773   7.9170   8.3569   8.3604   8.4557
     8.5594   8.6068   8.8946   9.0441   9.0514   9.1973   9.2447   9.2798
     9.3776

          k = 0.1250-0.5279 0.0000 ( 35600 PWs)   bands (ev):

   -35.9239 -35.8993 -22.8934 -22.8899 -22.7518 -22.7326 -17.3880 -17.3614
   -17.1395 -17.1199 -17.0392 -17.0169 -15.2349 -15.2319 -14.9308 -14.8269
   -14.8251 -14.6848 -14.6011 -14.5118 -14.5108 -14.4003 -14.3834 -14.3742
   -14.3694 -14.3456 -13.3346  -8.3653  -8.3619  -8.2545  -8.2433  -8.2395
    -8.1470  -8.0774  -7.9953  -7.9922  -7.9788  -7.8276  -7.7422  -3.8380
    -3.8241  -3.7786  -3.6240  -3.6142  -3.5165  -3.5128  -2.7003  -2.6997
    -2.3526  -2.1335  -2.1249  -2.0402  -1.9195  -1.9088  -1.8453  -1.8362
    -1.8293  -1.7819  -1.6901  -1.6760  -1.5823  -1.5114  -1.3139  -1.3103
    -1.2505  -1.2477  -1.1983  -1.1517  -1.1499  -1.0063  -0.7349  -0.6789
    -0.5874  -0.5042  -0.4618  -0.2735  -0.1917  -0.0874  -0.0836  -0.0207
     0.0580   0.1414   0.3088   0.3241   0.6211   0.6240   0.6506   0.6580
     0.6855   0.7056   0.7323   0.8286   0.9519   0.9646   0.9903   1.0054
     1.0221   1.1564   1.2232   1.4455   1.4479   1.6719   1.6730   1.6864
     1.6892   1.7303   1.7348   1.9720   2.0324   2.0556   2.1258   2.1720
     2.2001   2.2037   2.2560   2.2811   2.4665   2.6080   2.7240   7.1482
     7.2176   7.2223   7.8735   7.9653   7.9759   8.1237   8.6657   8.7453
     8.9698   8.9976   9.0161   9.0366   9.2329   9.3705   9.4524   9.4723
     9.6948

          k = 0.2500 0.0000 0.0000 ( 35764 PWs)   bands (ev):

   -35.9337 -35.9091 -23.0327 -23.0292 -22.8857 -22.8565 -17.3206 -17.3003
   -17.2319 -17.2118 -16.9741 -16.9473 -15.3231 -15.3128 -15.1334 -15.1127
   -15.0676 -14.9299 -14.9240 -14.5054 -14.5019 -14.3625 -14.3494 -14.2687
   -14.2417 -14.2151 -13.2308  -8.2545  -8.2505  -8.1503  -8.1307  -8.0400
    -8.0369  -7.8826  -7.8792  -7.8630  -7.7268  -7.7248  -7.5897  -2.8714
    -2.8647  -2.7147  -2.6241  -2.5135  -2.5088  -2.2914  -2.0858  -2.0819
    -2.0009  -1.9991  -1.8168  -1.7821  -1.5139  -1.5100  -1.2846  -1.2825
    -1.2459  -1.0869  -1.0762  -1.0703  -1.0159  -1.0033  -0.9439  -0.8313
    -0.8295  -0.6463  -0.6291  -0.6103  -0.6076  -0.5661  -0.5446  -0.5389
    -0.5107  -0.3602  -0.2195  -0.2168  -0.1648  -0.1311  -0.1022  -0.0707
     0.0119   0.0205   0.0239   0.0594   0.0636   0.1710   0.1840   0.2374
     0.2399   0.3510   0.3579   0.4493   0.5968   0.6007   0.7311   0.9602
     0.9652   0.9944   0.9983   1.0323   1.0783   1.1033   1.1114   1.1664
     1.2194   1.2861   1.4995   1.5492   1.5884   1.6268   1.7120   1.7141
     1.8289   1.9671   1.9924   2.1257   2.2524   2.3737   2.3907   5.2694
     5.5546   5.5568   6.6643   6.7110   7.1598   7.2514   7.2585   7.6018
     7.8315   8.1448   8.2255   8.3511   8.5373   8.6396   8.9580   9.0001
     9.2391

          k = 0.2500 0.1320 0.0000 ( 35725 PWs)   bands (ev):

   -35.9319 -35.9073 -23.0088 -23.0054 -22.8626 -22.8352 -17.2888 -17.2686
   -17.2252 -17.2050 -17.0401 -17.0134 -15.2679 -15.2594 -15.0929 -15.0664
   -15.0162 -14.8945 -14.8864 -14.4911 -14.4875 -14.3559 -14.3452 -14.2896
   -14.2705 -14.2513 -13.2331  -8.3222  -8.3188  -8.1907  -8.1770  -8.1740
    -8.1381  -8.0189  -7.9364  -7.8489  -7.8456  -7.7016  -7.5382  -2.9247
    -2.9149  -2.7521  -2.6552  -2.5051  -2.5000  -2.4236  -2.4228  -2.3275
    -2.3138  -2.2542  -1.9286  -1.9244  -1.8079  -1.7042  -1.7009  -1.3577
    -1.3222  -1.3093  -1.2697  -1.2474  -1.2348  -1.0621  -0.9360  -0.9353
    -0.8862  -0.8677  -0.6706  -0.6444  -0.5715  -0.5525  -0.5330  -0.5043
    -0.4829  -0.3407  -0.3264  -0.2882  -0.2796  -0.2151  -0.1449  -0.1199
    -0.0635   0.0180   0.0421   0.0644   0.2421   0.3215   0.4278   0.4614
     0.5146   0.6026   0.6102   0.6977   0.7294   0.7885   0.8383   0.8958
     0.9025   1.0534   1.0577   1.0803   1.0935   1.1141   1.1750   1.1793
     1.2021   1.2167   1.3149   1.4231   1.4301   1.4505   1.8498   2.2114
     2.2907   2.3733   2.3773   2.5160   2.5354   2.5794   2.5871   5.4910
     5.8157   5.8179   6.8305   6.8631   7.3342   7.5092   7.5108   7.8828
     8.0292   8.2578   8.3235   8.4858   8.6089   8.7418   8.8654   8.9071
     9.0616

          k = 0.2500 0.2640 0.0000 ( 35681 PWs)   bands (ev):

   -35.9276 -35.9029 -22.9501 -22.9467 -22.8058 -22.7826 -17.2284 -17.2072
   -17.1980 -17.1769 -17.1761 -17.1511 -15.1678 -15.1646 -14.9818 -14.9309
   -14.8862 -14.8059 -14.7849 -14.4709 -14.4640 -14.4098 -14.3920 -14.3365
   -14.2848 -14.2728 -13.2390  -8.5421  -8.5388  -8.3807  -8.2395  -8.2356
    -8.2210  -8.1264  -8.0948  -7.9687  -7.9655  -7.8283  -7.6538  -3.3164
    -3.3000  -3.0916  -3.0484  -2.7451  -2.7407  -2.7174  -2.6154  -2.6099
    -2.5700  -2.5213  -2.4740  -2.4674  -2.2531  -1.7779  -1.7680  -1.7287
    -1.7227  -1.6643  -1.6239  -1.4854  -1.3115  -1.2905  -1.0506  -1.0453
    -1.0412  -0.9914  -0.9019  -0.8961  -0.8950  -0.7913  -0.7685  -0.7230
    -0.6938  -0.5915  -0.5699  -0.3186  -0.1796  -0.0216   0.0746   0.1008
     0.2367   0.3280   0.4476   0.5039   0.5131   0.5326   0.6524   0.6667
     0.7524   0.8257   0.8583   0.9379   0.9441   0.9726   1.0444   1.0483
     1.1235   1.1337   1.1821   1.1893   1.2129   1.2613   1.2757   1.3176
     1.3613   1.3955   1.4534   1.5566   1.5583   1.5713   2.0171   2.2198
     2.6277   2.6938   2.7051   2.9476   2.9550   3.0734   3.0776   6.0431
     6.3569   6.3594   7.2054   7.2330   7.5980   8.0427   8.0453   8.3728
     8.4301   8.5755   8.6998   8.7256   8.7574   8.8904   9.0085   9.0327
     9.0903

          k = 0.2500 0.3960 0.0000 ( 35662 PWs)   bands (ev):

   -35.9232 -35.8985 -22.8897 -22.8863 -22.7474 -22.7288 -17.3244 -17.2979
   -17.1910 -17.1708 -17.1138 -17.0931 -15.1198 -15.1187 -14.8599 -14.7563
   -14.7502 -14.7028 -14.6489 -14.5388 -14.5319 -14.4043 -14.3914 -14.3703
   -14.3046 -14.2772 -13.2446  -8.6622  -8.6588  -8.5166  -8.3195  -8.2895
    -8.2858  -8.1829  -8.1795  -8.1516  -8.1115  -8.0450  -7.8973  -3.8141
    -3.7995  -3.5887  -3.5449  -3.4474  -3.2661  -3.2623  -2.7541  -2.7506
    -2.5705  -2.4842  -2.4334  -2.4168  -2.2332  -2.1147  -2.1022  -1.9884
    -1.9593  -1.7775  -1.7473  -1.6244  -1.5000  -1.4894  -1.3013  -1.2252
    -1.1371  -1.1149  -1.1101  -1.1001  -1.0938  -0.9386  -0.8912  -0.7705
    -0.7539  -0.6448  -0.6159  -0.2097  -0.0674   0.0252   0.1385   0.1524
     0.3867   0.5537   0.6639   0.6771   0.6839   0.6865   0.8046   0.9215
     0.9264   0.9674   0.9835   1.0082   1.0134   1.1192   1.2005   1.2178
     1.3275   1.3382   1.3773   1.3915   1.4520   1.4606   1.5088   1.5290
     1.5761   1.5789   1.8369   1.9180   1.9562   1.9594   2.0234   2.1454
     2.5073   2.5298   2.7046   3.1704   3.1755   3.3216   3.3232   6.5035
     6.5642   6.5701   7.3358   7.4009   7.6956   8.4187   8.4858   8.5107
     8.6480   8.6962   9.0692   9.2299   9.3558   9.4075   9.4444   9.4997
     9.5501

          k = 0.2500-0.5279 0.0000 ( 35700 PWs)   bands (ev):

   -35.9214 -35.8967 -22.8642 -22.8607 -22.7228 -22.7061 -17.3745 -17.3480
   -17.1855 -17.1652 -17.0746 -17.0539 -15.1167 -15.1149 -14.8183 -14.6779
   -14.6738 -14.6267 -14.5946 -14.5854 -14.5715 -14.3819 -14.3685 -14.3634
   -14.3416 -14.3122 -13.2465  -8.6624  -8.6590  -8.5381  -8.3771  -8.3739
    -8.2850  -8.2496  -8.2460  -8.1743  -8.1697  -8.1071  -8.0596  -4.0131
    -3.9982  -3.8085  -3.7406  -3.6975  -3.4937  -3.4900  -2.7607  -2.7579
    -2.5414  -2.4444  -2.3924  -2.3647  -2.2729  -2.2580  -2.2155  -2.1341
    -2.0960  -1.8020  -1.7722  -1.6783  -1.5758  -1.5644  -1.3937  -1.3186
    -1.2214  -1.1828  -1.1766  -1.1297  -1.1200  -0.9521  -0.8947  -0.7876
    -0.7781  -0.6632  -0.6193  -0.1682  -0.0399   0.0362   0.1556   0.1909
     0.4177   0.5815   0.7044   0.7160   0.7734   0.7806   0.8722   0.8857
     0.8872   0.9917   1.0199   1.0831   1.0974   1.1817   1.1957   1.2063
     1.2746   1.5456   1.5719   1.5902   1.6526   1.6643   1.6752   1.7148
     1.7333   1.7437   1.7551   2.0438   2.1029   2.1321   2.1355   2.2196
     2.2845   2.3200   2.6252   3.1893   3.1949   3.3580   3.3610   6.5262
     6.5305   6.5993   7.3236   7.3731   7.9505   8.1213   8.7658   8.8921
     8.9125   9.1591   9.2137   9.2197   9.3495   9.5339   9.5832   9.7199
     9.7496

          k = 0.3750 0.0000 0.0000 ( 35706 PWs)   bands (ev):

   -35.9311 -35.9064 -22.9873 -22.9838 -22.8417 -22.8188 -17.3722 -17.3536
   -17.2252 -17.2036 -16.9708 -16.9440 -15.3485 -15.3462 -15.2042 -14.9785
   -14.9589 -14.9326 -14.9186 -14.5208 -14.5150 -14.4612 -14.4503 -14.2936
   -14.2703 -14.2398 -13.3826  -8.2369  -8.2328  -8.1376  -8.1090  -7.9750
    -7.9721  -7.8245  -7.7982  -7.7948  -7.6465  -7.6321  -7.5224  -3.2038
    -3.1927  -3.0776  -3.0115  -2.6323  -2.6308  -2.3427  -2.0117  -2.0057
    -1.9130  -1.8774  -1.8524  -1.8520  -1.5316  -1.5155  -1.5118  -1.3833
    -1.3783  -1.3326  -1.3288  -1.2473  -1.2434  -1.2385  -1.1935  -1.0313
    -1.0296  -0.7790  -0.7346  -0.6503  -0.6470  -0.6133  -0.5895  -0.5369
    -0.5331  -0.4104  -0.2324  -0.2296  -0.1780  -0.1639  -0.1281  -0.0510
     0.0431   0.0554   0.0905   0.1012   0.1044   0.1078   0.1270   0.1755
     0.1880   0.3364   0.4126   0.4778   0.7634   0.8701   0.8736   0.8824
     0.8889   0.8959   1.0349   1.0459   1.1340   1.1607   1.1956   1.2756
     1.3510   1.4220   1.4346   1.4903   1.5096   1.5518   1.6313   1.7974
     1.8030   2.0022   2.0339   2.2314   2.3188   2.4859   2.5184   5.8833
     6.2043   6.2064   7.4074   7.4391   7.5688   7.6977   7.6995   7.8604
     8.1516   8.1814   8.3933   8.4753   8.8883   9.0209   9.1399   9.1596
     9.1634

          k = 0.3750 0.1320 0.0000 ( 35739 PWs)   bands (ev):

   -35.9293 -35.9046 -22.9656 -22.9621 -22.8206 -22.7990 -17.3636 -17.3449
   -17.1962 -17.1746 -17.0351 -17.0084 -15.3004 -15.2986 -15.1454 -14.9397
   -14.9160 -14.8710 -14.8583 -14.4909 -14.4858 -14.4405 -14.4296 -14.3109
   -14.2887 -14.2775 -13.3512  -8.2939  -8.2903  -8.1745  -8.1387  -8.1359
    -8.1234  -7.9843  -7.8879  -7.8845  -7.8549  -7.7491  -7.5813  -3.2690
    -3.2544  -3.1206  -3.0457  -2.6316  -2.6298  -2.4059  -2.3877  -2.3245
    -2.2220  -2.1992  -1.9168  -1.9127  -1.8279  -1.7813  -1.7647  -1.6210
    -1.6128  -1.5540  -1.5237  -1.4168  -1.2762  -1.1039  -1.0927  -1.0760
    -1.0419  -0.9798  -0.7349  -0.7202  -0.6309  -0.5789  -0.5779  -0.5656
    -0.5243  -0.3728  -0.3457  -0.2738  -0.2668  -0.2326  -0.1451  -0.1220
    -0.0929   0.1263   0.1442   0.1499   0.3403   0.3506   0.4684   0.4736
     0.4814   0.6092   0.6374   0.7167   0.8184   0.8707   0.8913   0.9068
     0.9088   1.0377   1.0570   1.0594   1.1857   1.2105   1.2267   1.3052
     1.3735   1.3809   1.4350   1.4630   1.4751   1.4754   1.6646   2.2194
     2.3098   2.4522   2.4571   2.6120   2.6150   2.7841   2.7924   6.0357
     6.3528   6.3551   7.4387   7.4670   7.5789   7.7633   7.7660   7.9592
     8.1577   8.2491   8.5914   8.6861   8.8433   8.9391   8.9935   9.1943
     9.3047

          k = 0.3750 0.2640 0.0000 ( 35737 PWs)   bands (ev):

   -35.9250 -35.9003 -22.9123 -22.9088 -22.7688 -22.7502 -17.3433 -17.3244
   -17.1797 -17.1530 -17.1208 -17.0993 -15.1775 -15.1766 -14.9895 -14.8456
   -14.8176 -14.7232 -14.7069 -14.4599 -14.4474 -14.4226 -14.4140 -14.3549
   -14.3200 -14.2865 -13.2722  -8.5949  -8.5916  -8.4354  -8.2738  -8.2720
    -8.2693  -8.1514  -8.1479  -8.1152  -8.1133  -8.0272  -7.8526  -3.5959
    -3.5723  -3.3556  -3.2853  -2.8120  -2.8054  -2.7231  -2.7175  -2.6929
    -2.6819  -2.6790  -2.5511  -2.5488  -2.3121  -2.1020  -2.0888  -1.9246
    -1.9025  -1.5734  -1.5511  -1.3824  -1.3027  -1.2744  -1.1953  -1.1915
    -1.1496  -1.0975  -0.9557  -0.9504  -0.9477  -0.8667  -0.8470  -0.6940
    -0.6890  -0.6241  -0.5910  -0.3096  -0.1383   0.0440   0.1896   0.2324
     0.3730   0.4259   0.5201   0.5506   0.6994   0.7076   0.7607   0.8285
     0.8384   0.8974   0.9016   0.9663   1.0586   1.0911   1.0950   1.0972
     1.2992   1.3160   1.3249   1.3510   1.3966   1.4190   1.4432   1.4445
     1.4504   1.4652   1.4983   1.5025   1.5037   1.5421   2.0066   2.1954
     2.6248   2.6980   2.7178   3.4008   3.4018   3.4947   3.4960   6.2576
     6.3977   6.3996   7.2567   7.2909   7.5722   8.0988   8.1038   8.2308
     8.4872   8.5928   8.8011   9.1007   9.1251   9.2001   9.2489   9.4400
     9.5215

          k = 0.3750 0.3960 0.0000 ( 35709 PWs)   bands (ev):

   -35.9207 -35.8960 -22.8576 -22.8542 -22.7157 -22.7003 -17.3264 -17.3061
   -17.3057 -17.2804 -17.0417 -17.0201 -15.0411 -15.0410 -14.8043 -14.7548
   -14.7178 -14.5687 -14.5589 -14.5449 -14.5376 -14.3852 -14.3778 -14.3479
   -14.2869 -14.2845 -13.1883  -8.8607  -8.8573  -8.7126  -8.5255  -8.5227
    -8.5210  -8.3392  -8.2767  -8.2731  -8.2187  -8.1374  -8.1300  -4.0769
    -4.0552  -3.7966  -3.7447  -3.4347  -3.2453  -3.2415  -2.9384  -2.9316
    -2.8292  -2.8083  -2.5804  -2.5788  -2.4142  -2.3973  -2.2885  -2.1567
    -2.1348  -1.5935  -1.5464  -1.5413  -1.5086  -1.5050  -1.3012  -1.2758
    -1.2693  -1.2012  -1.1718  -1.1416  -1.1403  -1.0871  -1.0550  -0.6992
    -0.6972  -0.6233  -0.5693  -0.1584   0.0004   0.1127   0.3505   0.4063
     0.6219   0.8106   0.8432   0.8743   0.9014   0.9640   0.9846   1.0387
     1.0411   1.1591   1.1783   1.1806   1.2086   1.2497   1.2693   1.3828
     1.4590   1.4609   1.5437   1.5527   1.6085   1.6683   1.6737   1.7298
     1.7552   1.7754   1.8490   1.8781   1.8809   1.9577   2.0526   2.1984
     2.4895   2.5264   2.7139   3.9106   3.9124   3.9855   3.9862   6.0863
     6.0957   6.1321   6.9993   7.0347   7.7974   8.3048   8.6548   8.6774
     8.7430   9.0057   9.0527   9.1650   9.2180   9.2702   9.2818   9.3718
     9.4945

          k = 0.3750-0.5279 0.0000 ( 35732 PWs)   bands (ev):

   -35.9189 -35.8942 -22.8346 -22.8311 -22.6934 -22.6793 -17.3611 -17.3347
   -17.3135 -17.2943 -17.0064 -16.9848 -14.9789 -14.9788 -14.7229 -14.7219
   -14.6842 -14.5831 -14.5605 -14.5003 -14.4978 -14.3766 -14.3605 -14.3554
   -14.2892 -14.2769 -13.1519  -8.9428  -8.9393  -8.8091  -8.6706  -8.6676
    -8.5846  -8.4683  -8.3797  -8.3028  -8.2988  -8.1577  -8.1502  -4.2826
    -4.2617  -3.9993  -3.9477  -3.7075  -3.4705  -3.4667  -2.9568  -2.9500
    -2.8387  -2.8110  -2.5747  -2.5730  -2.5202  -2.5035  -2.2688  -2.2412
    -2.2172  -1.6915  -1.6390  -1.6234  -1.5536  -1.5499  -1.3621  -1.2959
    -1.2794  -1.2662  -1.2620  -1.2345  -1.2284  -1.1161  -1.0657  -0.6829
    -0.6817  -0.6180  -0.5475  -0.1115   0.0303   0.1263   0.4032   0.4964
     0.6942   0.9549   0.9618   0.9749   0.9793   1.0239   1.0285   1.0314
     1.0640   1.2154   1.2270   1.2762   1.2862   1.4643   1.4659   1.4769
     1.5519   1.5614   1.6120   1.7345   1.7390   1.8112   1.8114   1.8784
     1.9182   1.9364   2.0666   2.0682   2.0751   2.1048   2.1055   2.1682
     2.2458   2.2994   2.6331   4.0483   4.0494   4.1375   4.1376   5.9152
     5.9186   5.9827   6.8967   6.9515   7.9807   8.1704   8.8077   8.8322
     8.8630   9.0111   9.0533   9.1227   9.2284   9.3865   9.5269   9.5511
     9.6000

          k =-0.5000 0.0000 0.0000 ( 35702 PWs)   bands (ev):

   -35.9300 -35.9053 -22.9681 -22.9646 -22.8231 -22.8030 -17.4243 -17.4061
   -17.1834 -17.1613 -16.9694 -16.9426 -15.4065 -15.4031 -15.2482 -15.0051
   -14.9632 -14.7089 -14.6921 -14.6564 -14.6316 -14.4985 -14.4947 -14.3022
   -14.2775 -14.2448 -13.4422  -8.2267  -8.2225  -8.1250  -8.0984  -7.9518
    -7.9490  -7.8167  -7.7621  -7.7587  -7.6122  -7.5966  -7.4939  -3.3460
    -3.3348  -3.2219  -3.1602  -2.6567  -2.6558  -2.3535  -1.9797  -1.9689
    -1.9612  -1.9483  -1.7312  -1.7266  -1.6326  -1.5193  -1.5157  -1.4964
    -1.4888  -1.4235  -1.4116  -1.3455  -1.3412  -1.2607  -1.2569  -1.1146
    -1.1129  -0.8482  -0.7894  -0.6744  -0.6584  -0.6306  -0.6141  -0.5258
    -0.5228  -0.4226  -0.2377  -0.2350  -0.2102  -0.1886  -0.1832  -0.0602
     0.0190   0.0597   0.0918   0.1022   0.1041   0.1066   0.1269   0.1299
     0.2436   0.2445   0.4551   0.5128   0.8191   0.8197   0.8346   0.8369
     1.0241   1.0384   1.0492   1.0649   1.0830   1.2585   1.2606   1.2692
     1.3535   1.3554   1.4648   1.5261   1.5376   1.5853   1.6421   1.8116
     1.8175   2.0041   2.0315   2.2369   2.3171   2.5174   2.5541   6.6758
     6.7191   6.9754   6.9778   7.0294   7.0315   7.8825   7.9087   8.1761
     8.1868   8.1951   8.7012   8.8400   8.8408   9.1013   9.1207   9.2317
     9.3004

          k =-0.5000 0.1320 0.0000 ( 35734 PWs)   bands (ev):

   -35.9282 -35.9036 -22.9473 -22.9439 -22.8029 -22.7838 -17.4152 -17.3968
   -17.1561 -17.1339 -17.0329 -17.0062 -15.3491 -15.3463 -15.1835 -14.9651
   -14.9233 -14.6703 -14.6535 -14.5962 -14.5725 -14.4769 -14.4730 -14.3174
   -14.2918 -14.2831 -13.3982  -8.2654  -8.2614  -8.1476  -8.1145  -8.0813
    -8.0784  -7.9653  -7.9617  -7.9361  -7.8252  -7.7289  -7.6969  -3.4176
    -3.4030  -3.2731  -3.2019  -2.6622  -2.6609  -2.4052  -2.3585  -2.3133
    -2.1649  -2.1444  -1.9114  -1.9073  -1.8482  -1.8290  -1.7754  -1.7367
    -1.7288  -1.6550  -1.6139  -1.4617  -1.2870  -1.1707  -1.1690  -1.0699
    -1.0685  -0.9987  -0.7717  -0.7574  -0.6507  -0.6000  -0.5907  -0.5888
    -0.5401  -0.3969  -0.3553  -0.2833  -0.2572  -0.2351  -0.1465  -0.1209
    -0.1084   0.1833   0.2150   0.2177   0.2526   0.2594   0.4057   0.4351
     0.5394   0.5894   0.6854   0.7327   0.8345   0.8775   0.9080   0.9576
     0.9771   0.9886   1.0713   1.0846   1.1919   1.2848   1.2952   1.3293
     1.4070   1.4302   1.4645   1.5298   1.5500   1.5500   1.6002   2.2142
     2.3125   2.4552   2.4596   2.6274   2.6282   2.8375   2.8463   6.6497
     6.8232   6.8257   6.9128   7.3302   7.3331   7.8238   7.8458   7.9339
     8.1238   8.3303   8.7480   8.9412   9.0687   9.1945   9.2961   9.4177
     9.4186

          k =-0.5000 0.2640 0.0000 ( 35768 PWs)   bands (ev):

   -35.9239 -35.8992 -22.8964 -22.8929 -22.7532 -22.7366 -17.3932 -17.3748
   -17.1763 -17.1496 -17.0848 -17.0628 -15.1971 -15.1957 -15.0095 -14.8695
   -14.8265 -14.5750 -14.5582 -14.4816 -14.4691 -14.4267 -14.4226 -14.4019
   -14.3551 -14.2816 -13.2860  -8.5338  -8.5303  -8.3824  -8.3795  -8.3781
    -8.2241  -8.2154  -8.2136  -8.2111  -8.0988  -8.0639  -8.0452  -3.7345
    -3.7100  -3.5011  -3.4298  -2.8390  -2.8343  -2.7460  -2.7373  -2.6891
    -2.6871  -2.6830  -2.5588  -2.5564  -2.3306  -2.2292  -2.2127  -2.0119
    -1.9856  -1.4936  -1.4648  -1.3293  -1.2692  -1.2670  -1.2613  -1.2299
    -1.2203  -1.1663  -0.9759  -0.9733  -0.9714  -0.8719  -0.8473  -0.6976
    -0.6936  -0.6397  -0.5943  -0.3054  -0.1231   0.0649   0.2289   0.2837
     0.4201   0.4640   0.5512   0.5631   0.7755   0.7792   0.8345   0.8480
     0.8487   0.8915   0.9159   0.9365   1.0991   1.1115   1.1422   1.1697
     1.2941   1.3880   1.3929   1.4144   1.4172   1.4379   1.4457   1.4831
     1.5044   1.5509   1.5563   1.5720   1.5760   1.7545   1.7702   2.1672
     2.6183   2.6920   2.7141   3.5398   3.5409   3.6272   3.6295   6.3541
     6.3952   6.3980   7.1978   7.2273   7.5807   8.0033   8.1398   8.1458
     8.6132   8.6931   8.8623   9.2703   9.2834   9.2863   9.3035   9.4329
     9.5907

          k =-0.5000 0.3960 0.0000 ( 35736 PWs)   bands (ev):

   -35.9196 -35.8949 -22.8442 -22.8407 -22.7025 -22.6884 -17.3717 -17.3531
   -17.3051 -17.2786 -17.0096 -16.9876 -15.0127 -15.0123 -14.8110 -14.7852
   -14.7122 -14.5492 -14.5274 -14.4804 -14.4646 -14.3784 -14.3736 -14.3291
   -14.3173 -14.2899 -13.1643  -8.9090  -8.9055  -8.7662  -8.6705  -8.6676
    -8.5638  -8.4770  -8.3603  -8.2933  -8.2892  -8.1512  -8.1467  -4.2088
    -4.1850  -3.9183  -3.8631  -3.4268  -3.2367  -3.2329  -3.0082  -3.0012
    -2.9009  -2.8940  -2.5961  -2.5952  -2.5163  -2.4983  -2.2967  -2.2157
    -2.1916  -1.5981  -1.5429  -1.5199  -1.4185  -1.4125  -1.3829  -1.3582
    -1.2728  -1.1944  -1.1908  -1.1680  -1.1650  -1.1477  -1.1267  -0.6575
    -0.6554  -0.6277  -0.5340  -0.1424   0.0235   0.1436   0.4480   0.5140
     0.7190   0.8900   0.9534   0.9574   0.9636   1.0629   1.0646   1.0969
     1.1288   1.1692   1.2540   1.2555   1.2603   1.2653   1.2890   1.4584
     1.5108   1.5473   1.5716   1.5775   1.6576   1.7297   1.7410   1.8452
     1.8483   1.8560   1.8849   1.8950   1.9244   1.9846   2.1009   2.1412
     2.4765   2.5165   2.7135   4.1746   4.1804   4.2317   4.2319   5.8935
     5.9002   5.9393   6.8500   6.8977   8.0347   8.0652   8.6143   8.6342
     8.7208   9.0761   9.0934   9.1573   9.2342   9.2972   9.3597   9.4178
     9.5766

          k =-0.5000-0.5279 0.0000 ( 35804 PWs)   bands (ev):

   -35.9178 -35.8931 -22.8222 -22.8187 -22.6811 -22.6681 -17.3630 -17.3557
   -17.3442 -17.3292 -16.9763 -16.9543 -14.9131 -14.9116 -14.7669 -14.7649
   -14.5977 -14.5872 -14.5736 -14.4470 -14.4447 -14.3714 -14.3558 -14.3509
   -14.2857 -14.2479 -13.1105  -9.0550  -9.0515  -8.9185  -8.7867  -8.7837
    -8.7077  -8.5822  -8.4915  -8.3213  -8.3173  -8.1671  -8.1653  -4.4167
    -4.3937  -4.1170  -4.0640  -3.7017  -3.4609  -3.4572  -3.0404  -3.0334
    -2.9266  -2.9132  -2.6072  -2.5900  -2.5862  -2.5853  -2.2829  -2.2682
    -2.2602  -1.7085  -1.6568  -1.6323  -1.4874  -1.4779  -1.3474  -1.3367
    -1.3291  -1.2821  -1.2791  -1.2711  -1.2628  -1.1933  -1.1389  -0.6285
    -0.6265  -0.6175  -0.5048  -0.0949   0.0551   0.1589   0.5258   0.6377
     0.8169   1.0329   1.0355   1.0377   1.0420   1.0719   1.0799   1.1457
     1.2981   1.3007   1.3010   1.3190   1.3425   1.5386   1.5679   1.5881
     1.6004   1.6735   1.6925   1.7244   1.7640   1.7650   1.8614   1.8694
     2.0380   2.0414   2.0845   2.0960   2.1039   2.1364   2.2217   2.2368
     2.2777   2.2875   2.6366   4.3680   4.3732   4.4413   4.4420   5.6703
     5.6733   5.7266   6.7312   6.7979   8.0378   8.1377   8.6915   8.7239
     8.7373   8.7911   9.0088   9.0788   9.1680   9.1899   9.5253   9.5400
     9.5746

     the Fermi energy is     2.2671 ev

!    total energy              =   -1842.78761145 Ry
     Harris-Foulkes estimate   =   -1842.78761146 Ry
     estimated scf accuracy    <          9.7E-09 Ry

     The total energy is the sum of the following terms:

     one-electron contribution =  -26180.01492631 Ry
     hartree contribution      =   13240.70434958 Ry
     xc contribution           =    -621.62077331 Ry
     ewald contribution        =   11718.15546941 Ry
     smearing contrib. (-TS)   =      -0.01173082 Ry

     convergence has been achieved in  34 iterations

     negative rho (up, down):  1.528E-03 0.000E+00

     Forces acting on atoms (cartesian axes, Ry/au):

     atom    1 type  4   force =     0.00000000    0.00000000   -0.00035365
     atom    2 type  3   force =     0.00000000    0.00000000    0.00049493
     atom    3 type  4   force =     0.00000000    0.00000000   -0.00072065
     atom    4 type  1   force =     0.00000000    0.00000000   -0.00052304
     atom    5 type  3   force =     0.00000000    0.00000000    0.00029842
     atom    6 type  4   force =     0.00000000    0.00000000    0.00093215
     atom    7 type  4   force =     0.00000000    0.00000000    0.00115019
     atom    8 type  2   force =     0.00000000    0.00000000   -0.00278275
     atom    9 type  4   force =     0.00000000    0.00000000    0.00486794
     atom   10 type  4   force =     0.00000000    0.00000000    0.00418330
     atom   11 type  3   force =     0.00000000    0.00000000    0.00129442
     atom   12 type  1   force =     0.00000000    0.00000000    0.00943406
     atom   13 type  4   force =     0.00000000    0.00000000   -0.01981393
     atom   14 type  4   force =     0.00000000    0.00000000    0.03744039
     atom   15 type  3   force =     0.00000000    0.00000000   -0.03354475
     atom   16 type  4   force =     0.00000000    0.00000000    0.02838179
     atom   17 type  1   force =     0.00000000    0.00000000   -0.00735525
     atom   18 type  3   force =     0.00000000    0.00000000   -0.02123027
     atom   19 type  4   force =     0.00000000    0.00000000   -0.00116995
     atom   20 type  4   force =     0.00000000    0.00000000   -0.00196615
     atom   21 type  2   force =     0.00000000    0.00000000    0.00259804
     atom   22 type  4   force =     0.00000000    0.00000000   -0.00176053
     atom   23 type  4   force =     0.00000000    0.00000000   -0.00019539
     atom   24 type  3   force =     0.00000000    0.00000000   -0.00017766
     atom   25 type  1   force =     0.00000000    0.00000000    0.00039034
     atom   26 type  4   force =     0.00000000    0.00000000    0.00026028
     atom   27 type  3   force =     0.00000000    0.00000000   -0.00006561
     atom   28 type  4   force =     0.00000000    0.00000000   -0.00006667

     Total force =     0.066245     Total SCF correction =     0.000455


     Computing stress (Cartesian axis) and pressure


     negative rho (up, down):  1.528E-03 0.000E+00
          total   stress  (Ry/bohr**3)                   (kbar)     P=       -5.51
   0.00000927   0.00000000   0.00000000            1.36        0.00        0.00
   0.00000000  -0.00008645   0.00000000            0.00      -12.72        0.00
   0.00000000   0.00000000  -0.00003508            0.00        0.00       -5.16

 
     init_run     :     10.72s CPU     11.24s WALL (       1 calls)
     electrons    :    704.01s CPU    743.85s WALL (       1 calls)
     forces       :      3.90s CPU      4.25s WALL (       1 calls)
     stress       :     31.98s CPU     32.95s WALL (       1 calls)

     Called by init_run:
     wfcinit      :      7.57s CPU      7.71s WALL (       1 calls)
     potinit      :      0.67s CPU      0.68s WALL (       1 calls)
     hinit0       :      1.20s CPU      1.21s WALL (       1 calls)

     Called by electrons:
     c_bands      :    544.95s CPU    561.63s WALL (      34 calls)
     sum_band     :    104.50s CPU    117.48s WALL (      34 calls)
     v_of_rho     :      3.50s CPU      3.55s WALL (      35 calls)
     newd         :     25.70s CPU     35.90s WALL (      35 calls)
     mix_rho      :     25.77s CPU     25.98s WALL (      34 calls)

     Called by c_bands:
     init_us_2    :      3.50s CPU      3.53s WALL (    1775 calls)
     cegterg      :    519.03s CPU    535.12s WALL (     850 calls)

     Called by sum_band:
     sum_band:bec :      0.24s CPU      0.24s WALL (     850 calls)
     addusdens    :     18.92s CPU     31.05s WALL (      34 calls)

     Called by *egterg:
     h_psi        :    265.31s CPU    274.88s WALL (    3811 calls)
     s_psi        :     21.14s CPU     21.48s WALL (    3811 calls)
     g_psi        :      0.64s CPU      0.65s WALL (    2936 calls)
     cdiaghg      :    120.59s CPU    121.14s WALL (    3786 calls)

     Called by h_psi:
     h_psi:calbec :     30.53s CPU     31.66s WALL (    3811 calls)
     vloc_psi     :    211.25s CPU    214.30s WALL (    3811 calls)
     add_vuspsi   :     22.37s CPU     25.42s WALL (    3811 calls)

     General routines
     calbec       :     57.86s CPU     59.09s WALL (    4786 calls)
     fft          :      3.41s CPU      3.43s WALL (     478 calls)
     ffts         :     13.06s CPU     13.17s WALL (   15558 calls)
     fftw         :    250.99s CPU    254.50s WALL (  606176 calls)
     interpolate  :      0.28s CPU      0.28s WALL (      35 calls)
 
     Parallel routines
     fft_scatt_xy :     22.40s CPU     22.71s WALL (  622212 calls)
     fft_scatt_yz :    190.68s CPU    193.22s WALL (  622212 calls)
 
     PWSCF        :  12m31.59s CPU  13m13.35s WALL

 
   This run was terminated on:  21:32:40  21May2021            

=------------------------------------------------------------------------------=
   JOB DONE.
=------------------------------------------------------------------------------=
[1621647160.935816] [holy7c10308:104565:0]          mpool.c:43   UCX  WARN  object 0x3103ec0 was not returned to mpool ucp_requests
[1621647160.937123] [holy7c10506:253693:0]          mpool.c:43   UCX  WARN  object 0x471c500 was not returned to mpool ucp_requests
[1621647160.936261] [holy7c08610:43445:0]          mpool.c:43   UCX  WARN  object 0x2a63c80 was not returned to mpool ucp_requests
[1621647160.937397] [holy7c10506:253694:0]          mpool.c:43   UCX  WARN  object 0x39b0d80 was not returned to mpool ucp_requests
[1621647160.938030] [holy7c08610:43444:0]          mpool.c:43   UCX  WARN  object 0x30ca580 was not returned to mpool ucp_requests
[1621647160.947122] [holy7c10301:49388:0]          mpool.c:43   UCX  WARN  object 0x3b58640 was not returned to mpool ucp_requests
[1621647160.947154] [holy7c10301:49388:0]          mpool.c:43   UCX  WARN  object 0x3b58d40 was not returned to mpool ucp_requests
[1621647160.959021] [holy7c10408:198985:0]          mpool.c:43   UCX  WARN  object 0x2bb2ac0 was not returned to mpool ucp_requests
[1621647160.959045] [holy7c10408:198985:0]          mpool.c:43   UCX  WARN  object 0x2bb2c80 was not returned to mpool ucp_requests
