
     Program PWSCF v.6.5 starts on 21May2021 at 22:39:20 

     This program is part of the open-source Quantum ESPRESSO suite
     for quantum simulation of materials; please cite
         "P. Giannozzi et al., J. Phys.:Condens. Matter 21 395502 (2009);
         "P. Giannozzi et al., J. Phys.:Condens. Matter 29 465901 (2017);
          URL http://www.quantum-espresso.org", 
     in publications or presentations arising from this work. More details at
     http://www.quantum-espresso.org/quote

     Parallel version (MPI), running on    20 processors

     MPI processes distributed on     9 nodes
     R & G space division:  proc/nbgrp/npool/nimage =      20
     Reading input from CBCO_CuO_cleave_1.25_sep.pwi
Warning: card &IONS ignored
Warning: card     ION_DYNAMICS = 'BFGS' ignored
Warning: card / ignored
Warning: card &CELL ignored
Warning: card     CELL_DYNAMICS = 'BFGS' ignored
Warning: card     PRESS_CONV_THR = 5 ignored
Warning: card / ignored

     Current dimensions of program PWSCF are:
     Max number of different atomic species (ntypx) = 10
     Max number of k-points (npk) =  40000
     Max angular momentum in pseudopotentials (lmaxx) =  3

     Subspace diagonalization in iterative solution of the eigenvalue problem:
     one sub-group per band group will be used
     scalapack distributed-memory algorithm (size of sub-group:  4*  4 procs)

     Message from routine setup:
     using ibrav=0 with symmetry is DISCOURAGED, use correct ibrav instead
 
     Parallelization info
     --------------------
     sticks:   dense  smooth     PW     G-vecs:    dense   smooth      PW
     Min         149      50     14                72165    13894    2172
     Max         150      51     15                72202    13919    2217
     Sum        2991    1007    289              1443693   278079   43709
 


     bravais-lattice index     =            0
     lattice parameter (alat)  =       7.4270  a.u.
     unit-cell volume          =    4425.7129 (a.u.)^3
     number of atoms/cell      =           28
     number of atomic types    =            4
     number of electrons       =       227.00
     number of Kohn-Sham states=          137
     kinetic-energy cutoff     =      60.0000  Ry
     charge density cutoff     =     720.0000  Ry
     convergence threshold     =      1.0E-08
     mixing beta               =       0.5000
     number of iterations used =           10  local-TF  mixing
     Exchange-correlation= SLA PW PBE PBE
                           (   1   4   3   4   0   0   0)

     celldm(1)=   7.427040  celldm(2)=   0.000000  celldm(3)=   0.000000
     celldm(4)=   0.000000  celldm(5)=   0.000000  celldm(6)=   0.000000

     crystal axes: (cart. coord. in units of alat)
               a(1) = (   1.000000   0.000000   0.000000 )  
               a(2) = (   0.000000   0.947081   0.000000 )  
               a(3) = (   0.000000   0.000000  11.406405 )  

     reciprocal axes: (cart. coord. in units 2 pi/alat)
               b(1) = (  1.000000  0.000000  0.000000 )  
               b(2) = (  0.000000  1.055876  0.000000 )  
               b(3) = (  0.000000  0.000000  0.087670 )  


     PseudoPot. # 1 for Ba read from file:
     ./pseudo/Ba.pbe-nsp-van.UPF
     MD5 check sum: 2b9c31dd849566dd297d80989662b7a0
     Pseudo is Ultrasoft + core correction, Zval = 10.0
     Generated by new atomic code, or converted to UPF format
     Using radial grid of  907 points,  6 beta functions with: 
                l(1) =   0
                l(2) =   0
                l(3) =   1
                l(4) =   1
                l(5) =   2
                l(6) =   2
     Q(r) pseudized with  6 coefficients,  rinner =    1.200   1.200   1.200
                                                       1.200   1.200

     PseudoPot. # 2 for Ca read from file:
     ./pseudo/Ca.pbe-nsp-van.UPF
     MD5 check sum: 6471098428ff4fa451746d08035ff179
     Pseudo is Ultrasoft + core correction, Zval = 10.0
     Generated by new atomic code, or converted to UPF format
     Using radial grid of  845 points,  6 beta functions with: 
                l(1) =   0
                l(2) =   0
                l(3) =   1
                l(4) =   1
                l(5) =   2
                l(6) =   2
     Q(r) pseudized with  6 coefficients,  rinner =    1.200   1.200   1.200
                                                       1.200   1.200

     PseudoPot. # 3 for Cu read from file:
     ./pseudo/Cu.pbe-n-van_ak.UPF
     MD5 check sum: 34e3282627ffb533726feb647e090d62
     Pseudo is Ultrasoft + core correction, Zval = 11.0
     Generated by new atomic code, or converted to UPF format
     Using radial grid of  867 points,  6 beta functions with: 
                l(1) =   0
                l(2) =   0
                l(3) =   1
                l(4) =   1
                l(5) =   2
                l(6) =   2
     Q(r) pseudized with  8 coefficients,  rinner =    1.400   1.400   1.400
                                                       1.400   1.400

     PseudoPot. # 4 for O  read from file:
     ./pseudo/O.pbe-van_ak.UPF
     MD5 check sum: 783ce7fe4c79b6a4916957118fed0856
     Pseudo is Ultrasoft, Zval =  6.0
     Generated by new atomic code, or converted to UPF format
     Using radial grid of  737 points,  4 beta functions with: 
                l(1) =   0
                l(2) =   0
                l(3) =   1
                l(4) =   1
     Q(r) pseudized with  8 coefficients,  rinner =    0.800   0.800   0.800


     atomic species   valence    mass     pseudopotential
        Ba            10.00   137.32700     Ba( 1.00)
        Ca            10.00    40.07800     Ca( 1.00)
        Cu            11.00    63.54600     Cu( 1.00)
        O              6.00    15.99900     O ( 1.00)

      4 Sym. Ops. (no inversion) found



   Cartesian axes

     site n.     atom                  positions (alat units)
         1           O   tau(   1) = (   0.0000000   0.4735409  -0.0469745  )
         2           Cu  tau(   2) = (   0.0000000   0.0000000   0.0264565  )
         3           O   tau(   3) = (   0.0000000   0.0000000   0.5030914  )
         4           Ba  tau(   4) = (   0.5000000   0.4735409   0.5690292  )
         5           Cu  tau(   5) = (   0.0000000   0.0000000   1.0374254  )
         6           O   tau(   6) = (   0.5000000   0.0000000   1.0768099  )
         7           O   tau(   7) = (   0.0000000   0.4735409   1.1116985  )
         8           Ca  tau(   8) = (   0.5000000   0.4735409   1.4976260  )
         9           O   tau(   9) = (   0.0000000   0.4735409   1.8667529  )
        10           O   tau(  10) = (   0.5000000   0.0000000   1.9044124  )
        11           Cu  tau(  11) = (   0.0000000   0.0000000   1.9512546  )
        12           Ba  tau(  12) = (   0.5000000   0.4735409   2.4295764  )
        13           O   tau(  13) = (   0.0000000   0.0000000   2.5115362  )
        14           O   tau(  14) = (   0.0000000   0.4735409   2.9918528  )
        15           Cu  tau(  15) = (   0.0000000   0.0000000   2.9919088  )
        16           O   tau(  16) = (   0.0000000   0.0000000   3.7903170  )
        17           Ba  tau(  17) = (   0.5000000   0.4735409   3.8722691  )
        18           Cu  tau(  18) = (   0.0000000   0.0000000   4.3505731  )
        19           O   tau(  19) = (   0.5000000   0.0000000   4.3974153  )
        20           O   tau(  20) = (   0.0000000   0.4735409   4.4350697  )
        21           Ca  tau(  21) = (   0.5000000   0.4735409   4.8042067  )
        22           O   tau(  22) = (   0.0000000   0.4735409   5.1901317  )
        23           O   tau(  23) = (   0.5000000   0.0000000   5.2250203  )
        24           Cu  tau(  24) = (   0.0000000   0.0000000   5.2644074  )
        25           Ba  tau(  25) = (   0.5000000   0.4735409   5.7328010  )
        26           O   tau(  26) = (   0.0000000   0.0000000   5.7987286  )
        27           Cu  tau(  27) = (   0.0000000   0.0000000   6.2753686  )
        28           O   tau(  28) = (   0.0000000   0.4735409   6.3487869  )

     number of k points=    25  Gaussian smearing, width (Ry)=  0.0100
                       cart. coord. in units 2pi/alat
        k(    1) = (   0.0000000   0.0000000   0.0000000), wk =   0.0312500
        k(    2) = (   0.0000000   0.1319845   0.0000000), wk =   0.0625000
        k(    3) = (   0.0000000   0.2639689   0.0000000), wk =   0.0625000
        k(    4) = (   0.0000000   0.3959534   0.0000000), wk =   0.0625000
        k(    5) = (   0.0000000  -0.5279378   0.0000000), wk =   0.0312500
        k(    6) = (   0.1250000   0.0000000   0.0000000), wk =   0.0625000
        k(    7) = (   0.1250000   0.1319845   0.0000000), wk =   0.1250000
        k(    8) = (   0.1250000   0.2639689   0.0000000), wk =   0.1250000
        k(    9) = (   0.1250000   0.3959534   0.0000000), wk =   0.1250000
        k(   10) = (   0.1250000  -0.5279378   0.0000000), wk =   0.0625000
        k(   11) = (   0.2500000   0.0000000   0.0000000), wk =   0.0625000
        k(   12) = (   0.2500000   0.1319845   0.0000000), wk =   0.1250000
        k(   13) = (   0.2500000   0.2639689   0.0000000), wk =   0.1250000
        k(   14) = (   0.2500000   0.3959534   0.0000000), wk =   0.1250000
        k(   15) = (   0.2500000  -0.5279378   0.0000000), wk =   0.0625000
        k(   16) = (   0.3750000   0.0000000   0.0000000), wk =   0.0625000
        k(   17) = (   0.3750000   0.1319845   0.0000000), wk =   0.1250000
        k(   18) = (   0.3750000   0.2639689   0.0000000), wk =   0.1250000
        k(   19) = (   0.3750000   0.3959534   0.0000000), wk =   0.1250000
        k(   20) = (   0.3750000  -0.5279378   0.0000000), wk =   0.0625000
        k(   21) = (  -0.5000000   0.0000000   0.0000000), wk =   0.0312500
        k(   22) = (  -0.5000000   0.1319845   0.0000000), wk =   0.0625000
        k(   23) = (  -0.5000000   0.2639689   0.0000000), wk =   0.0625000
        k(   24) = (  -0.5000000   0.3959534   0.0000000), wk =   0.0625000
        k(   25) = (  -0.5000000  -0.5279378   0.0000000), wk =   0.0312500

     Dense  grid:  1443693 G-vectors     FFT dimensions: (  64,  64, 729)

     Smooth grid:   278079 G-vectors     FFT dimensions: (  40,  36, 432)

     Estimated max dynamical RAM per process >     460.71 MB

     Estimated total dynamical RAM >       9.00 GB

     Initial potential from superposition of free atoms

     starting charge  226.84630, renormalised to  227.00000

     negative rho (up, down):  3.389E-03 0.000E+00
     Starting wfcs are  195 randomized atomic wfcs

     total cpu time spent up to now is        9.5 secs

     Self-consistent Calculation

     iteration #  1     ecut=    60.00 Ry     beta= 0.50
     Davidson diagonalization with overlap
     ethr =  1.00E-02,  avg # of iterations =  2.0

     negative rho (up, down):  4.781E-04 0.000E+00

     total cpu time spent up to now is       24.6 secs

     total energy              =   -1840.78329296 Ry
     Harris-Foulkes estimate   =   -1845.32732975 Ry
     estimated scf accuracy    <      18.66102309 Ry

     iteration #  2     ecut=    60.00 Ry     beta= 0.50
     Davidson diagonalization with overlap
     ethr =  8.22E-03,  avg # of iterations =  2.0

     negative rho (up, down):  2.690E-04 0.000E+00

     total cpu time spent up to now is       39.8 secs

     total energy              =   -1842.41842120 Ry
     Harris-Foulkes estimate   =   -1843.29221291 Ry
     estimated scf accuracy    <       5.17231372 Ry

     iteration #  3     ecut=    60.00 Ry     beta= 0.50
     Davidson diagonalization with overlap
     ethr =  2.28E-03,  avg # of iterations =  1.5

     negative rho (up, down):  2.501E-04 0.000E+00

     total cpu time spent up to now is       54.1 secs

     total energy              =   -1842.76979095 Ry
     Harris-Foulkes estimate   =   -1843.00667803 Ry
     estimated scf accuracy    <       5.69240861 Ry

     iteration #  4     ecut=    60.00 Ry     beta= 0.50
     Davidson diagonalization with overlap
     ethr =  2.28E-03,  avg # of iterations =  1.0

     negative rho (up, down):  2.459E-04 0.000E+00

     total cpu time spent up to now is       67.9 secs

     total energy              =   -1842.84805843 Ry
     Harris-Foulkes estimate   =   -1842.90242599 Ry
     estimated scf accuracy    <       2.03049577 Ry

     iteration #  5     ecut=    60.00 Ry     beta= 0.50
     Davidson diagonalization with overlap
     ethr =  8.94E-04,  avg # of iterations =  1.0

     negative rho (up, down):  2.392E-04 0.000E+00

     total cpu time spent up to now is       81.5 secs

     total energy              =   -1842.82410303 Ry
     Harris-Foulkes estimate   =   -1842.87810473 Ry
     estimated scf accuracy    <       0.40047247 Ry

     iteration #  6     ecut=    60.00 Ry     beta= 0.50
     Davidson diagonalization with overlap
     ethr =  1.76E-04,  avg # of iterations =  5.0

     negative rho (up, down):  2.348E-04 0.000E+00

     total cpu time spent up to now is      100.6 secs

     total energy              =   -1842.82762114 Ry
     Harris-Foulkes estimate   =   -1842.85104703 Ry
     estimated scf accuracy    <       1.66013366 Ry

     iteration #  7     ecut=    60.00 Ry     beta= 0.50
     Davidson diagonalization with overlap
     ethr =  1.76E-04,  avg # of iterations =  2.5

     negative rho (up, down):  2.323E-04 0.000E+00

     total cpu time spent up to now is      116.3 secs

     total energy              =   -1842.81984044 Ry
     Harris-Foulkes estimate   =   -1842.83507445 Ry
     estimated scf accuracy    <       0.85512543 Ry

     iteration #  8     ecut=    60.00 Ry     beta= 0.50
     Davidson diagonalization with overlap
     ethr =  1.76E-04,  avg # of iterations =  1.1

     negative rho (up, down):  2.315E-04 0.000E+00

     total cpu time spent up to now is      130.3 secs

     total energy              =   -1842.81984627 Ry
     Harris-Foulkes estimate   =   -1842.82677948 Ry
     estimated scf accuracy    <       0.51186942 Ry

     iteration #  9     ecut=    60.00 Ry     beta= 0.50
     Davidson diagonalization with overlap
     ethr =  1.76E-04,  avg # of iterations =  1.0

     negative rho (up, down):  2.314E-04 0.000E+00

     total cpu time spent up to now is      144.0 secs

     total energy              =   -1842.81814093 Ry
     Harris-Foulkes estimate   =   -1842.82244792 Ry
     estimated scf accuracy    <       0.19995722 Ry

     iteration # 10     ecut=    60.00 Ry     beta= 0.50
     Davidson diagonalization with overlap
     ethr =  8.81E-05,  avg # of iterations =  4.4

     negative rho (up, down):  2.319E-04 0.000E+00

     total cpu time spent up to now is      161.4 secs

     total energy              =   -1842.81735742 Ry
     Harris-Foulkes estimate   =   -1842.81952586 Ry
     estimated scf accuracy    <       0.14273748 Ry

     iteration # 11     ecut=    60.00 Ry     beta= 0.50
     Davidson diagonalization with overlap
     ethr =  6.29E-05,  avg # of iterations =  2.6

     negative rho (up, down):  2.337E-04 0.000E+00

     total cpu time spent up to now is      176.7 secs

     total energy              =   -1842.81370941 Ry
     Harris-Foulkes estimate   =   -1842.81800070 Ry
     estimated scf accuracy    <       0.12209124 Ry

     iteration # 12     ecut=    60.00 Ry     beta= 0.50
     Davidson diagonalization with overlap
     ethr =  5.38E-05,  avg # of iterations =  4.8

     negative rho (up, down):  2.336E-04 0.000E+00

     total cpu time spent up to now is      194.8 secs

     total energy              =   -1842.81363609 Ry
     Harris-Foulkes estimate   =   -1842.81448489 Ry
     estimated scf accuracy    <       0.06847784 Ry

     iteration # 13     ecut=    60.00 Ry     beta= 0.50
     Davidson diagonalization with overlap
     ethr =  3.02E-05,  avg # of iterations =  2.2

     negative rho (up, down):  5.482E-04 0.000E+00

     total cpu time spent up to now is      209.9 secs

     total energy              =   -1842.81213759 Ry
     Harris-Foulkes estimate   =   -1842.81394570 Ry
     estimated scf accuracy    <       0.05864278 Ry

     iteration # 14     ecut=    60.00 Ry     beta= 0.50
     Davidson diagonalization with overlap
     ethr =  2.58E-05,  avg # of iterations =  2.9

     negative rho (up, down):  4.876E-03 0.000E+00

     total cpu time spent up to now is      225.8 secs

     total energy              =   -1842.81124802 Ry
     Harris-Foulkes estimate   =   -1842.81242338 Ry
     estimated scf accuracy    <       0.03725635 Ry

     iteration # 15     ecut=    60.00 Ry     beta= 0.50
     Davidson diagonalization with overlap
     c_bands:  1 eigenvalues not converged
     ethr =  1.64E-05,  avg # of iterations =  6.5

     negative rho (up, down):  1.446E-02 0.000E+00

     total cpu time spent up to now is      245.5 secs

     total energy              =   -1842.81013368 Ry
     Harris-Foulkes estimate   =   -1842.81143131 Ry
     estimated scf accuracy    <       0.03408474 Ry

     iteration # 16     ecut=    60.00 Ry     beta= 0.50
     Davidson diagonalization with overlap
     ethr =  1.50E-05,  avg # of iterations =  5.8

     negative rho (up, down):  2.101E-02 0.000E+00

     total cpu time spent up to now is      265.0 secs

     total energy              =   -1842.80917530 Ry
     Harris-Foulkes estimate   =   -1842.81034721 Ry
     estimated scf accuracy    <       0.00954826 Ry

     iteration # 17     ecut=    60.00 Ry     beta= 0.50
     Davidson diagonalization with overlap
     ethr =  4.21E-06,  avg # of iterations =  9.3

     negative rho (up, down):  2.000E-02 0.000E+00

     total cpu time spent up to now is      289.7 secs

     total energy              =   -1842.80872530 Ry
     Harris-Foulkes estimate   =   -1842.80936029 Ry
     estimated scf accuracy    <       0.00603399 Ry

     iteration # 18     ecut=    60.00 Ry     beta= 0.50
     Davidson diagonalization with overlap
     ethr =  2.66E-06,  avg # of iterations =  5.4

     negative rho (up, down):  1.592E-02 0.000E+00

     total cpu time spent up to now is      308.6 secs

     total energy              =   -1842.80820622 Ry
     Harris-Foulkes estimate   =   -1842.80879097 Ry
     estimated scf accuracy    <       0.00361664 Ry

     iteration # 19     ecut=    60.00 Ry     beta= 0.50
     Davidson diagonalization with overlap
     ethr =  1.59E-06,  avg # of iterations =  6.6

     negative rho (up, down):  1.658E-02 0.000E+00

     total cpu time spent up to now is      329.1 secs

     total energy              =   -1842.80782719 Ry
     Harris-Foulkes estimate   =   -1842.80827534 Ry
     estimated scf accuracy    <       0.00190017 Ry

     iteration # 20     ecut=    60.00 Ry     beta= 0.50
     Davidson diagonalization with overlap
     ethr =  8.37E-07,  avg # of iterations =  8.1

     negative rho (up, down):  8.456E-03 0.000E+00

     total cpu time spent up to now is      352.3 secs

     total energy              =   -1842.80764582 Ry
     Harris-Foulkes estimate   =   -1842.80789213 Ry
     estimated scf accuracy    <       0.00138883 Ry

     iteration # 21     ecut=    60.00 Ry     beta= 0.50
     Davidson diagonalization with overlap
     ethr =  6.12E-07,  avg # of iterations =  7.8

     negative rho (up, down):  3.677E-03 0.000E+00

     total cpu time spent up to now is      374.4 secs

     total energy              =   -1842.80763505 Ry
     Harris-Foulkes estimate   =   -1842.80767811 Ry
     estimated scf accuracy    <       0.00025101 Ry

     iteration # 22     ecut=    60.00 Ry     beta= 0.50
     Davidson diagonalization with overlap
     c_bands:  1 eigenvalues not converged
     c_bands:  1 eigenvalues not converged
     ethr =  1.11E-07,  avg # of iterations =  7.7

     negative rho (up, down):  2.393E-03 0.000E+00

     total cpu time spent up to now is      396.2 secs

     total energy              =   -1842.80766679 Ry
     Harris-Foulkes estimate   =   -1842.80764358 Ry
     estimated scf accuracy    <       0.00005788 Ry

     iteration # 23     ecut=    60.00 Ry     beta= 0.50
     Davidson diagonalization with overlap
     c_bands:  1 eigenvalues not converged
     ethr =  2.55E-08,  avg # of iterations =  6.0

     negative rho (up, down):  1.558E-03 0.000E+00

     total cpu time spent up to now is      415.7 secs

     total energy              =   -1842.80767590 Ry
     Harris-Foulkes estimate   =   -1842.80767035 Ry
     estimated scf accuracy    <       0.00003656 Ry

     iteration # 24     ecut=    60.00 Ry     beta= 0.50
     Davidson diagonalization with overlap
     ethr =  1.61E-08,  avg # of iterations =  4.4

     negative rho (up, down):  1.369E-03 0.000E+00

     total cpu time spent up to now is      433.4 secs

     total energy              =   -1842.80768441 Ry
     Harris-Foulkes estimate   =   -1842.80767745 Ry
     estimated scf accuracy    <       0.00001096 Ry

     iteration # 25     ecut=    60.00 Ry     beta= 0.50
     Davidson diagonalization with overlap
     ethr =  4.83E-09,  avg # of iterations =  3.8

     negative rho (up, down):  1.374E-03 0.000E+00

     total cpu time spent up to now is      450.3 secs

     total energy              =   -1842.80768492 Ry
     Harris-Foulkes estimate   =   -1842.80768505 Ry
     estimated scf accuracy    <       0.00000643 Ry

     iteration # 26     ecut=    60.00 Ry     beta= 0.50
     Davidson diagonalization with overlap
     ethr =  2.83E-09,  avg # of iterations =  1.7

     negative rho (up, down):  1.322E-03 0.000E+00

     total cpu time spent up to now is      464.7 secs

     total energy              =   -1842.80768506 Ry
     Harris-Foulkes estimate   =   -1842.80768513 Ry
     estimated scf accuracy    <       0.00000313 Ry

     iteration # 27     ecut=    60.00 Ry     beta= 0.50
     Davidson diagonalization with overlap
     ethr =  1.38E-09,  avg # of iterations =  1.9

     negative rho (up, down):  1.411E-03 0.000E+00

     total cpu time spent up to now is      479.4 secs

     total energy              =   -1842.80768494 Ry
     Harris-Foulkes estimate   =   -1842.80768519 Ry
     estimated scf accuracy    <       0.00000173 Ry

     iteration # 28     ecut=    60.00 Ry     beta= 0.50
     Davidson diagonalization with overlap
     ethr =  7.61E-10,  avg # of iterations =  1.4

     negative rho (up, down):  1.500E-03 0.000E+00

     total cpu time spent up to now is      493.5 secs

     total energy              =   -1842.80768484 Ry
     Harris-Foulkes estimate   =   -1842.80768499 Ry
     estimated scf accuracy    <       0.00000145 Ry

     iteration # 29     ecut=    60.00 Ry     beta= 0.50
     Davidson diagonalization with overlap
     ethr =  6.38E-10,  avg # of iterations =  1.1

     negative rho (up, down):  1.509E-03 0.000E+00

     total cpu time spent up to now is      507.7 secs

     total energy              =   -1842.80768484 Ry
     Harris-Foulkes estimate   =   -1842.80768487 Ry
     estimated scf accuracy    <       0.00000064 Ry

     iteration # 30     ecut=    60.00 Ry     beta= 0.50
     Davidson diagonalization with overlap
     ethr =  2.81E-10,  avg # of iterations =  1.6

     negative rho (up, down):  1.512E-03 0.000E+00

     total cpu time spent up to now is      521.9 secs

     total energy              =   -1842.80768484 Ry
     Harris-Foulkes estimate   =   -1842.80768486 Ry
     estimated scf accuracy    <       0.00000009 Ry

     iteration # 31     ecut=    60.00 Ry     beta= 0.50
     Davidson diagonalization with overlap
     ethr =  3.77E-11,  avg # of iterations =  3.5

     negative rho (up, down):  1.518E-03 0.000E+00

     total cpu time spent up to now is      539.2 secs

     total energy              =   -1842.80768484 Ry
     Harris-Foulkes estimate   =   -1842.80768485 Ry
     estimated scf accuracy    <       0.00000005 Ry

     iteration # 32     ecut=    60.00 Ry     beta= 0.50
     Davidson diagonalization with overlap
     ethr =  2.13E-11,  avg # of iterations =  1.1

     negative rho (up, down):  1.522E-03 0.000E+00

     total cpu time spent up to now is      553.1 secs

     total energy              =   -1842.80768483 Ry
     Harris-Foulkes estimate   =   -1842.80768484 Ry
     estimated scf accuracy    <       0.00000005 Ry

     iteration # 33     ecut=    60.00 Ry     beta= 0.50
     Davidson diagonalization with overlap
     ethr =  2.13E-11,  avg # of iterations =  1.0

     negative rho (up, down):  1.528E-03 0.000E+00

     total cpu time spent up to now is      566.9 secs

     total energy              =   -1842.80768482 Ry
     Harris-Foulkes estimate   =   -1842.80768484 Ry
     estimated scf accuracy    <       0.00000001 Ry

     iteration # 34     ecut=    60.00 Ry     beta= 0.50
     Davidson diagonalization with overlap
     ethr =  6.13E-12,  avg # of iterations =  1.8

     negative rho (up, down):  1.530E-03 0.000E+00

     total cpu time spent up to now is      581.1 secs

     End of self-consistent calculation

          k = 0.0000 0.0000 0.0000 ( 34843 PWs)   bands (ev):

   -35.7391 -35.7147 -22.9024 -22.8992 -22.7336 -22.6335 -17.2405 -17.2200
   -16.7909 -16.7800 -16.7677 -16.7540 -15.4398 -15.4271 -14.7875 -14.7815
   -14.7608 -14.7145 -14.7001 -14.2899 -14.2872 -14.1114 -14.0991 -13.9938
   -13.9682 -13.9544 -12.8668  -8.0346  -8.0309  -7.9958  -7.9930  -7.8779
    -7.8536  -7.8031  -7.8000  -7.7936  -7.6214  -7.6155  -7.4206  -2.4370
    -2.4361  -2.0779  -1.9565  -1.9532  -1.9340  -1.9287  -1.8041  -1.7870
    -1.6908  -1.6688  -1.6365  -1.6243  -1.3279  -1.3240  -0.9796  -0.5665
    -0.5643  -0.5022  -0.4866  -0.4830  -0.4530  -0.4251  -0.4123  -0.3949
    -0.3928  -0.3779  -0.3729  -0.3707  -0.3578  -0.3281  -0.2972  -0.1917
    -0.1469  -0.1442  -0.0357  -0.0212  -0.0172  -0.0120  -0.0082  -0.0052
     0.0320   0.0384   0.0575   0.0655   0.1052   0.1340   0.1798   0.2189
     0.4216   0.6744   0.7347   0.7731   0.7759   0.8190   0.8583   1.0550
     1.0603   1.2189   1.2382   1.2512   1.2662   1.3553   1.3756   1.3937
     1.4064   1.4204   1.4277   1.6869   1.7094   1.7718   1.9208   1.9314
     1.9879   2.1078   2.2023   2.2439   2.3149   2.4245   2.4379   5.0641
     5.1106   5.1730   6.0450   6.1555   6.6394   6.6502   6.8129   6.9649
     7.8583   7.9475   8.1041   8.1380   8.4206   8.4914   8.5727   8.7434
     9.0321

          k = 0.0000 0.1320 0.0000 ( 34781 PWs)   bands (ev):

   -35.7373 -35.7129 -22.8757 -22.8725 -22.7079 -22.6099 -17.2045 -17.1839
   -16.8522 -16.8264 -16.7885 -16.7654 -15.3508 -15.3385 -14.7930 -14.7875
   -14.7203 -14.6873 -14.6704 -14.3000 -14.2966 -14.1146 -14.1012 -14.0517
   -13.9974 -13.9936 -12.9253  -8.0340  -8.0304  -7.9480  -7.9452  -7.8768
    -7.8536  -7.8445  -7.8410  -7.7478  -7.6711  -7.5752  -7.4536  -2.4978
    -2.4958  -2.3278  -2.3084  -2.2316  -2.2135  -2.0600  -1.7821  -1.7666
    -1.7526  -1.7486  -1.6739  -1.6526  -1.5665  -1.4623  -1.4582  -0.8270
    -0.7491  -0.7276  -0.6643  -0.6619  -0.5744  -0.5710  -0.5176  -0.5153
    -0.4153  -0.4050  -0.3329  -0.3000  -0.2858  -0.2812  -0.2553  -0.2524
    -0.2488  -0.1253  -0.1225  -0.1171  -0.1109  -0.0310  -0.0189   0.0056
     0.0150   0.0159   0.0360   0.1050   0.1614   0.1801   0.2237   0.2503
     0.6590   0.8263   0.8820   0.9490   0.9700   0.9727   1.0230   1.0252
     1.0462   1.0491   1.0665   1.3063   1.3290   1.3491   1.3567   1.4533
     1.4709   1.4826   1.5745   1.6562   1.6943   1.7460   1.8556   1.8902
     1.9332   2.0754   2.0911   2.4293   2.4998   2.7141   2.7167   5.4366
     5.4860   5.4988   6.3538   6.4230   6.9477   6.9562   7.1152   7.2826
     8.0333   8.1542   8.3140   8.3409   8.6107   8.6989   8.8147   8.8952
     9.1047

          k = 0.0000 0.2640 0.0000 ( 34663 PWs)   bands (ev):

   -35.7329 -35.7085 -22.8098 -22.8066 -22.6445 -22.5516 -17.1130 -17.0922
   -17.0060 -16.9805 -16.7829 -16.7597 -15.1471 -15.1366 -14.8471 -14.8382
   -14.6631 -14.5997 -14.5945 -14.2889 -14.2832 -14.1734 -14.1447 -14.1392
   -14.0842 -14.0396 -13.0595  -8.0334  -8.0299  -7.9357  -7.9325  -7.8741
    -7.8501  -7.8276  -7.8247  -7.7779  -7.6329  -7.5236  -7.4747  -2.9544
    -2.9465  -2.8047  -2.7795  -2.5570  -2.5367  -2.5344  -2.3886  -2.3861
    -2.0638  -1.7240  -1.7124  -1.6406  -1.6187  -1.6097  -1.5997  -1.3665
    -1.1384  -1.0477  -0.9171  -0.9141  -0.7881  -0.7756  -0.7172  -0.6941
    -0.6688  -0.6626  -0.6375  -0.6056  -0.6025  -0.5865  -0.5280  -0.4777
    -0.3436  -0.0969  -0.0939  -0.0612  -0.0315  -0.0168   0.0183   0.0338
     0.0948   0.1303   0.2410   0.2690   0.4811   0.4860   0.5815   0.5982
     0.8295   0.8477   0.8580   1.0117   1.0216   1.0556   1.0577   1.1034
     1.1140   1.1804   1.1815   1.2116   1.2956   1.4014   1.4447   1.5473
     1.6603   1.6662   1.7368   1.7584   1.8244   1.8252   1.8538   1.8651
     1.8685   1.9599   2.0513   2.5553   2.8902   2.9409   3.0078   6.2202
     6.3787   6.3813   7.1449   7.1713   7.7736   7.7795   7.9272   8.1511
     8.5357   8.6465   8.7080   8.7521   8.9059   8.9935   9.0924   9.1636
     9.1975

          k = 0.0000 0.3960 0.0000 ( 34610 PWs)   bands (ev):

   -35.7285 -35.7041 -22.7417 -22.7385 -22.5790 -22.4917 -17.1427 -17.1169
   -17.0111 -16.9907 -16.7772 -16.7541 -15.0462 -15.0438 -14.8362 -14.8087
   -14.6828 -14.5344 -14.4721 -14.2451 -14.2365 -14.2274 -14.2232 -14.1990
   -14.1582 -14.0938 -13.1818  -8.0334  -8.0299  -8.0139  -8.0107  -7.8890
    -7.8575  -7.8427  -7.6992  -7.6963  -7.5821  -7.5109  -7.3691  -3.4125
    -3.4035  -3.3332  -3.2183  -3.2070  -3.1041  -3.1007  -2.4791  -2.4780
    -2.0923  -1.9531  -1.9290  -1.7448  -1.6548  -1.6474  -1.5217  -1.5077
    -1.3763  -1.2624  -1.1874  -1.1841  -1.0286  -1.0018  -0.9885  -0.9341
    -0.9338  -0.8923  -0.8655  -0.8504  -0.8362  -0.7860  -0.5693  -0.4976
    -0.3230  -0.1531  -0.0799  -0.0768  -0.0245   0.0149   0.0227   0.0494
     0.0597   0.0887   0.3601   0.3922   0.6424   0.6572   0.8083   0.8118
     0.8331   0.8531   0.9187   0.9418   0.9638   1.0175   1.0273   1.0293
     1.1234   1.2597   1.4182   1.4904   1.4984   1.5801   1.5834   1.5969
     1.6012   1.6596   1.7710   1.8420   1.8461   1.8895   2.0324   2.1038
     2.2595   2.2628   2.2663   2.4863   2.7997   2.8408   3.1266   7.0835
     7.3249   7.3280   8.0851   8.1179   8.5156   8.5686   8.5772   8.7269
     8.9344   8.9482   8.9553   8.9835   9.1725   9.3143   9.3441   9.3846
     9.5759

          k = 0.0000-0.5279 0.0000 ( 34682 PWs)   bands (ev):

   -35.7266 -35.7022 -22.7127 -22.7095 -22.5512 -22.4664 -17.1947 -17.1690
   -16.9665 -16.9460 -16.7749 -16.7517 -15.0874 -15.0839 -14.7512 -14.7052
   -14.7022 -14.5148 -14.4122 -14.2846 -14.2736 -14.2290 -14.1887 -14.1806
   -14.1788 -14.1567 -13.2285  -8.0435  -8.0404  -8.0330  -8.0295  -7.9174
    -7.8618  -7.8422  -7.6433  -7.6404  -7.6038  -7.4580  -7.3237  -3.6111
    -3.5810  -3.5751  -3.3879  -3.3859  -3.3331  -3.3297  -2.4952  -2.4942
    -2.1021  -2.0775  -2.0566  -1.8797  -1.6201  -1.6147  -1.4736  -1.4388
    -1.4306  -1.3533  -1.3137  -1.3088  -1.1544  -1.1229  -1.1076  -1.0440
    -1.0239  -0.9669  -0.9450  -0.9421  -0.9134  -0.8727  -0.5577  -0.4630
    -0.2877  -0.2043  -0.0742  -0.0711  -0.0569   0.0171   0.0434   0.0543
     0.0587   0.1072   0.2823   0.3011   0.6848   0.6943   0.7279   0.7405
     0.8843   0.9039   0.9198   0.9722   1.0103   1.0124   1.0955   1.1436
     1.1705   1.1895   1.3698   1.5059   1.5787   1.5984   1.6014   1.7307
     1.8717   1.8759   1.8786   1.8801   1.8902   1.9304   1.9376   2.2894
     2.3412   2.4211   2.4244   2.4442   2.6203   2.6701   3.1105   7.5933
     7.7364   7.7404   8.3262   8.5388   8.7867   8.8210   8.8503   8.8696
     8.8715   8.8752   9.2004   9.2038   9.2100   9.3162   9.6690   9.8518
     9.8897

          k = 0.1250 0.0000 0.0000 ( 34755 PWs)   bands (ev):

   -35.7380 -35.7136 -22.8843 -22.8812 -22.7161 -22.6182 -17.2073 -17.1865
   -16.8707 -16.8486 -16.7786 -16.7526 -15.3369 -15.3236 -14.8326 -14.8276
   -14.7866 -14.7193 -14.7050 -14.2990 -14.2961 -14.1214 -14.1103 -14.0127
   -13.9962 -13.9747 -12.9356  -8.0601  -8.0564  -7.9346  -7.9312  -7.9179
    -7.8560  -7.7706  -7.7675  -7.7268  -7.5905  -7.5667  -7.3939  -2.4802
    -2.4790  -2.1547  -1.9884  -1.9855  -1.9531  -1.9384  -1.9356  -1.9278
    -1.9011  -1.8960  -1.6023  -1.5869  -1.3258  -1.3219  -1.0063  -0.7613
    -0.7560  -0.6249  -0.6209  -0.5653  -0.5601  -0.5509  -0.4750  -0.4481
    -0.4460  -0.4018  -0.4003  -0.3969  -0.3580  -0.3333  -0.2975  -0.2844
    -0.1860  -0.1643  -0.0323  -0.0155  -0.0125   0.0142   0.0307   0.0658
     0.0819   0.0854   0.0964   0.1121   0.1800   0.2001   0.2562   0.3155
     0.4298   0.6797   0.6862   0.6922   0.7808   0.8535   0.9020   1.0410
     1.0600   1.0944   1.1030   1.2328   1.2550   1.3622   1.3711   1.3713
     1.4336   1.4698   1.7025   1.7641   1.8456   1.8688   1.8834   1.9312
     1.9340   2.0913   2.1564   2.2187   2.3054   2.4606   2.4703   5.2632
     5.2903   5.3268   6.2750   6.3515   6.8557   6.8658   7.0178   7.1998
     8.0025   8.0783   8.2529   8.3027   8.6544   8.6801   8.7803   8.8849
     9.2269

          k = 0.1250 0.1320 0.0000 ( 34736 PWs)   bands (ev):

   -35.7362 -35.7118 -22.8585 -22.8553 -22.6912 -22.5952 -17.1723 -17.1515
   -16.8738 -16.8509 -16.8415 -16.8164 -15.2549 -15.2421 -14.8283 -14.8226
   -14.7453 -14.6872 -14.6735 -14.3002 -14.2970 -14.1222 -14.1127 -14.0648
   -14.0175 -14.0144 -12.9765  -8.0789  -8.0756  -7.9970  -7.9935  -7.9177
    -7.8551  -7.8129  -7.7326  -7.7296  -7.6545  -7.5541  -7.3511  -2.5351
    -2.5324  -2.3337  -2.3006  -2.2176  -2.1913  -2.0923  -1.9669  -1.9638
    -1.9247  -1.9072  -1.7467  -1.7426  -1.5780  -1.4546  -1.4502  -0.9528
    -0.9214  -0.8205  -0.7873  -0.7784  -0.7118  -0.7110  -0.6123  -0.6096
    -0.5216  -0.4078  -0.3852  -0.3680  -0.3217  -0.3036  -0.2966  -0.2496
    -0.1988  -0.1774  -0.1473  -0.1075  -0.1063  -0.0037   0.0315   0.0467
     0.0589   0.0665   0.1201   0.1403   0.1827   0.2044   0.3758   0.4096
     0.6891   0.9001   0.9211   0.9327   0.9717   1.0195   1.0231   1.0935
     1.1098   1.1309   1.1440   1.1716   1.1811   1.1993   1.2245   1.4799
     1.4855   1.4952   1.5504   1.5537   1.6239   1.7445   1.9465   2.2182
     2.2363   2.2778   2.3413   2.4843   2.5113   2.7190   2.7228   5.5747
     5.6280   5.6325   6.5354   6.5855   7.1560   7.1633   7.3090   7.5100
     8.1751   8.2692   8.4425   8.4822   8.7613   8.8669   8.9249   9.0355
     9.1565

          k = 0.1250 0.2640 0.0000 ( 34685 PWs)   bands (ev):

   -35.7318 -35.7074 -22.7946 -22.7915 -22.6296 -22.5384 -17.0837 -17.0627
   -17.0028 -16.9774 -16.8535 -16.8311 -15.0736 -15.0636 -14.8387 -14.8269
   -14.6701 -14.5968 -14.5912 -14.2838 -14.2793 -14.1810 -14.1611 -14.1508
   -14.0817 -14.0465 -13.0721  -8.1475  -8.1445  -8.0342  -8.0306  -7.9678
    -7.8763  -7.8493  -7.7526  -7.7235  -7.7204  -7.5513  -7.3485  -2.9792
    -2.9702  -2.8096  -2.7832  -2.5486  -2.5372  -2.5350  -2.3881  -2.3854
    -2.1072  -1.9173  -1.9111  -1.8737  -1.8565  -1.6359  -1.6125  -1.3778
    -1.1520  -1.1069  -1.0944  -1.0649  -1.0221  -1.0145  -0.8053  -0.8014
    -0.7502  -0.7003  -0.6731  -0.6275  -0.6137  -0.5435  -0.5210  -0.4850
    -0.3966  -0.2680  -0.2256  -0.1159  -0.0807   0.0691   0.0902   0.1268
     0.2324   0.3201   0.3563   0.3802   0.6200   0.6388   0.6649   0.6750
     0.8963   0.9145   0.9366   0.9805   0.9878   1.0917   1.1662   1.1700
     1.2070   1.2106   1.2829   1.2867   1.3377   1.3947   1.4289   1.4368
     1.5147   1.5166   1.5532   1.8042   1.8309   1.8324   1.9290   2.2756
     2.4106   2.4341   2.5167   2.6829   2.8903   2.9524   3.0166   6.2676
     6.4396   6.4422   7.2268   7.2489   7.9414   7.9445   8.0675   8.3505
     8.6502   8.7018   8.7481   8.8003   8.9424   8.9793   9.0136   9.0679
     9.1506

          k = 0.1250 0.3960 0.0000 ( 34670 PWs)   bands (ev):

   -35.7274 -35.7030 -22.7287 -22.7255 -22.5662 -22.4801 -17.1375 -17.1118
   -16.9848 -16.9641 -16.8449 -16.8225 -15.0103 -15.0080 -14.7695 -14.7330
   -14.6486 -14.5193 -14.4632 -14.2739 -14.2706 -14.2270 -14.2156 -14.1924
   -14.1425 -14.0857 -13.1609  -8.1780  -8.1749  -8.0459  -8.0421  -8.0269
    -7.8731  -7.8513  -7.7685  -7.7655  -7.7606  -7.5898  -7.4169  -3.4550
    -3.4458  -3.3304  -3.2421  -3.2274  -3.0954  -3.0919  -2.4876  -2.4864
    -2.1253  -1.9070  -1.9018  -1.8115  -1.7817  -1.7805  -1.7470  -1.6112
    -1.4486  -1.4432  -1.3310  -1.3111  -1.3062  -1.2332  -1.0295  -1.0049
    -0.9797  -0.9747  -0.9213  -0.8672  -0.8654  -0.7239  -0.5653  -0.5067
    -0.4176  -0.3032  -0.2504  -0.0903  -0.0364   0.0932   0.0967   0.1546
     0.2544   0.3403   0.5351   0.5692   0.7842   0.7929   0.8304   0.8517
     0.9287   0.9350   0.9419   1.0278   1.0439   1.1180   1.1210   1.1403
     1.2641   1.2848   1.5170   1.5212   1.5685   1.5945   1.6149   1.6586
     1.6931   1.7431   1.7488   1.9810   2.2252   2.2274   2.2299   2.2647
     2.3600   2.3818   2.4959   2.6136   2.8298   2.9002   3.1313   6.9975
     7.1890   7.1926   7.9475   7.9872   8.4029   8.5497   8.5539   8.6890
     8.7830   8.8210   9.2374   9.2489   9.3131   9.4346   9.4697   9.5703
     9.6698

          k = 0.1250-0.5279 0.0000 ( 34632 PWs)   bands (ev):

   -35.7256 -35.7012 -22.7008 -22.6976 -22.5393 -22.4555 -17.1891 -17.1634
   -16.9418 -16.9210 -16.8411 -16.8187 -15.0424 -15.0392 -14.7082 -14.6310
   -14.6275 -14.4887 -14.3970 -14.3164 -14.3093 -14.2055 -14.1881 -14.1821
   -14.1780 -14.1414 -13.1952  -8.1727  -8.1695  -8.0505  -8.0470  -8.0397
    -7.8728  -7.8519  -7.8027  -7.7998  -7.7328  -7.6137  -7.4732  -3.6441
    -3.6308  -3.5873  -3.4202  -3.4174  -3.3247  -3.3212  -2.5085  -2.5074
    -2.1296  -1.9401  -1.9323  -1.8421  -1.7265  -1.7147  -1.6400  -1.6389
    -1.6351  -1.5840  -1.4920  -1.4795  -1.3842  -1.3154  -1.1279  -1.1081
    -1.0581  -1.0555  -1.0126  -0.9598  -0.9580  -0.7924  -0.5577  -0.4809
    -0.4165  -0.3159  -0.2633  -0.0764  -0.0141   0.1043   0.1079   0.1678
     0.2574   0.3328   0.5059   0.5235   0.8144   0.8183   0.8432   0.8499
     0.8826   0.9044   0.9372   1.0411   1.1469   1.1563   1.1889   1.2045
     1.2299   1.3417   1.3912   1.6422   1.6443   1.8687   1.8717   1.8810
     1.8883   1.9225   1.9268   2.0527   2.2271   2.2391   2.3249   2.3768
     2.3919   2.3952   2.4353   2.4478   2.6970   2.7813   3.1092   7.3368
     7.4099   7.4159   8.1167   8.1771   8.4079   8.5103   8.8916   8.9541
     9.1887   9.1920   9.3089   9.4537   9.4826   9.5831   9.7817   9.9278
     9.9309

          k = 0.2500 0.0000 0.0000 ( 34786 PWs)   bands (ev):

   -35.7354 -35.7110 -22.8400 -22.8369 -22.6732 -22.5808 -17.1227 -17.1014
   -17.0340 -17.0134 -16.7753 -16.7493 -15.1282 -15.1176 -14.9350 -14.9158
   -14.8598 -14.7304 -14.7289 -14.3134 -14.3101 -14.1668 -14.1544 -14.0519
   -14.0431 -14.0145 -13.0940  -8.0617  -8.0579  -7.9417  -7.8475  -7.8448
    -7.8422  -7.6900  -7.6868  -7.6489  -7.5136  -7.4653  -7.3279  -2.6783
    -2.6727  -2.5116  -2.4245  -2.3207  -2.3168  -2.0692  -1.8852  -1.8837
    -1.8048  -1.8005  -1.6187  -1.5847  -1.3224  -1.3186  -1.0854  -1.0844
    -1.0495  -0.8827  -0.8824  -0.8786  -0.8126  -0.8060  -0.7470  -0.6393
    -0.6374  -0.4820  -0.4512  -0.4180  -0.4112  -0.3705  -0.3546  -0.3442
    -0.3091  -0.2401  -0.0282  -0.0252   0.0163   0.0604   0.0831   0.1087
     0.2134   0.2159   0.2418   0.2617   0.2671   0.3557   0.4001   0.4314
     0.4344   0.5437   0.5507   0.6537   0.7948   0.7983   0.9293   1.1561
     1.1598   1.1894   1.1917   1.2345   1.2784   1.2984   1.3052   1.3711
     1.4205   1.4795   1.6725   1.7490   1.7798   1.8287   1.9074   1.9092
     2.0089   2.1651   2.1881   2.3243   2.4422   2.5663   2.5814   5.7191
     5.7471   5.7500   6.8731   6.9135   7.4357   7.4446   7.5832   7.8530
     8.3389   8.3531   8.5560   8.6674   8.7371   8.9093   9.1836   9.3904
     9.4384

          k = 0.2500 0.1320 0.0000 ( 34751 PWs)   bands (ev):

   -35.7336 -35.7092 -22.8162 -22.8130 -22.6501 -22.5592 -17.0909 -17.0696
   -17.0274 -17.0067 -16.8413 -16.8154 -15.0736 -15.0650 -14.8932 -14.8687
   -14.8085 -14.6950 -14.6907 -14.2991 -14.2958 -14.1611 -14.1519 -14.0856
   -14.0594 -14.0488 -13.0968  -8.1296  -8.1264  -7.9856  -7.9814  -7.9789
    -7.8512  -7.8076  -7.6727  -7.6563  -7.6532  -7.4875  -7.2797  -2.7310
    -2.7225  -2.5491  -2.4550  -2.3122  -2.3081  -2.2273  -2.2245  -2.1272
    -2.1137  -2.0364  -1.7370  -1.7329  -1.6108  -1.5093  -1.5058  -1.1599
    -1.1303  -1.1143  -1.0701  -1.0505  -1.0362  -0.8672  -0.7429  -0.7421
    -0.6930  -0.6725  -0.4783  -0.4529  -0.3994  -0.3710  -0.3447  -0.3144
    -0.3065  -0.1470  -0.1347  -0.0906  -0.0842  -0.0136   0.0456   0.0728
     0.1172   0.2100   0.2302   0.2542   0.4381   0.5050   0.6291   0.6582
     0.7286   0.7944   0.8028   0.8904   0.9261   0.9883   1.0379   1.0892
     1.0990   1.2493   1.2538   1.2787   1.2911   1.3136   1.3683   1.3735
     1.4008   1.4153   1.4914   1.6186   1.6225   1.6632   2.0189   2.4006
     2.5004   2.5632   2.5834   2.7124   2.7334   2.7726   2.7803   5.9151
     6.0074   6.0098   7.0322   7.0630   7.6981   7.7034   7.8335   8.1338
     8.4450   8.4720   8.6838   8.7731   8.8142   8.9972   9.0692   9.1150
     9.2966

          k = 0.2500 0.2640 0.0000 ( 34733 PWs)   bands (ev):

   -35.7292 -35.7048 -22.7575 -22.7543 -22.5934 -22.5062 -17.0301 -17.0079
   -17.0002 -16.9790 -16.9775 -16.9530 -14.9750 -14.9715 -14.7759 -14.7320
   -14.6822 -14.6059 -14.5860 -14.2780 -14.2721 -14.2145 -14.1987 -14.1347
   -14.0833 -14.0647 -13.1036  -8.3495  -8.3465  -8.1673  -8.0468  -8.0432
    -7.9588  -7.8867  -7.8375  -7.7761  -7.7730  -7.6137  -7.3965  -3.1212
    -3.1055  -2.8928  -2.8448  -2.5526  -2.5490  -2.5251  -2.4231  -2.4184
    -2.3703  -2.3210  -2.2811  -2.2751  -2.0326  -1.5826  -1.5720  -1.5355
    -1.5310  -1.4672  -1.4230  -1.2863  -1.1200  -1.0918  -0.8591  -0.8520
    -0.8477  -0.7949  -0.7148  -0.7072  -0.7028  -0.5911  -0.5674  -0.5314
    -0.5069  -0.4216  -0.3692  -0.1194  -0.0026   0.1748   0.2605   0.2907
     0.4302   0.5119   0.6442   0.6970   0.7074   0.7209   0.8452   0.8576
     0.9590   1.0218   1.0554   1.1358   1.1415   1.1719   1.2427   1.2444
     1.3199   1.3282   1.3651   1.3889   1.3957   1.4581   1.4749   1.5076
     1.5544   1.5885   1.6623   1.7480   1.7505   1.7572   2.1935   2.3884
     2.8594   2.8841   2.9469   3.1424   3.1504   3.2691   3.2772   6.3611
     6.5489   6.5515   7.4195   7.4386   8.2345   8.2365   8.2655   8.5738
     8.6297   8.8293   8.9148   8.9391   9.1070   9.1989   9.2155   9.2463
     9.2874

          k = 0.2500 0.3960 0.0000 ( 34712 PWs)   bands (ev):

   -35.7249 -35.7004 -22.6971 -22.6939 -22.5350 -22.4518 -17.1255 -17.0998
   -16.9930 -16.9721 -16.9160 -16.8946 -14.9276 -14.9260 -14.6421 -14.5598
   -14.5552 -14.5007 -14.4448 -14.3431 -14.3355 -14.2104 -14.1991 -14.1729
   -14.1068 -14.0732 -13.1094  -8.4696  -8.4665  -8.3026  -8.0969  -8.0936
    -8.0632  -7.9902  -7.9871  -7.9037  -7.8622  -7.8291  -7.6368  -3.6192
    -3.6051  -3.3917  -3.3416  -3.2561  -3.0744  -3.0709  -2.5617  -2.5588
    -2.3674  -2.2862  -2.2397  -2.2235  -2.0149  -1.9202  -1.9073  -1.7932
    -1.7578  -1.5822  -1.5530  -1.4263  -1.3076  -1.2930  -1.1126  -1.0240
    -0.9492  -0.9208  -0.9171  -0.9075  -0.9024  -0.7350  -0.6909  -0.5749
    -0.5656  -0.4636  -0.4376  -0.0099   0.1162   0.2203   0.3253   0.3382
     0.5830   0.7382   0.8590   0.8718   0.8756   0.8835   1.0136   1.1181
     1.1241   1.1638   1.1819   1.2019   1.2072   1.3238   1.3936   1.4133
     1.5135   1.5365   1.5724   1.5912   1.6478   1.6576   1.6917   1.7258
     1.7743   1.7758   1.9393   2.1227   2.1482   2.1509   2.1977   2.3209
     2.7028   2.7183   3.0459   3.3656   3.3726   3.5171   3.5215   6.6491
     6.7559   6.7616   7.5630   7.6129   8.2690   8.6589   8.6813   8.7311
     8.8880   8.9583   9.4612   9.5509   9.6128   9.6413   9.6718   9.7495
     9.7699

          k = 0.2500-0.5279 0.0000 ( 34740 PWs)   bands (ev):

   -35.7231 -35.6986 -22.6715 -22.6684 -22.5104 -22.4289 -17.1756 -17.1499
   -16.9875 -16.9665 -16.8767 -16.8553 -14.9244 -14.9222 -14.5958 -14.4840
   -14.4799 -14.4310 -14.3907 -14.3868 -14.3657 -14.1862 -14.1766 -14.1722
   -14.1456 -14.1088 -13.1112  -8.4698  -8.4666  -8.3237  -8.1845  -8.1815
    -8.0569  -8.0534  -8.0363  -7.9619  -7.8991  -7.8817  -7.7877  -3.8183
    -3.8040  -3.6134  -3.5375  -3.5045  -3.3021  -3.2985  -2.5684  -2.5659
    -2.3367  -2.2478  -2.1978  -2.1710  -2.0786  -2.0629  -1.9992  -1.9391
    -1.8927  -1.6063  -1.5777  -1.4802  -1.3830  -1.3700  -1.2045  -1.1159
    -1.0343  -0.9902  -0.9847  -0.9350  -0.9272  -0.7480  -0.6951  -0.5932
    -0.5886  -0.4766  -0.4483   0.0316   0.1460   0.2312   0.3435   0.3752
     0.6143   0.7688   0.9009   0.9142   0.9662   0.9725   1.0793   1.0798
     1.0822   1.1913   1.2197   1.2811   1.2958   1.3901   1.3953   1.3980
     1.4840   1.7306   1.7677   1.7808   1.8070   1.8590   1.8694   1.9089
     1.9266   1.9371   1.9498   2.1021   2.3018   2.3240   2.3271   2.4022
     2.4798   2.5012   3.0237   3.3849   3.3922   3.5534   3.5586   6.6815
     6.7209   6.7272   7.5245   7.5850   8.3427   8.5522   8.9916   9.1169
     9.4059   9.4091   9.4248   9.6118   9.6426   9.7313   9.8182   9.9262
     9.9842

          k = 0.3750 0.0000 0.0000 ( 34726 PWs)   bands (ev):

   -35.7328 -35.7083 -22.7946 -22.7914 -22.6292 -22.5427 -17.1744 -17.1547
   -17.0272 -17.0050 -16.7720 -16.7460 -15.1560 -15.1534 -14.9890 -14.7786
   -14.7650 -14.7340 -14.7213 -14.3279 -14.3224 -14.2661 -14.2548 -14.0802
   -14.0713 -14.0408 -13.2413  -8.0441  -8.0404  -7.9303  -7.8192  -7.7825
    -7.7797  -7.6094  -7.6056  -7.6024  -7.4335  -7.3777  -7.2597  -3.0099
    -3.0010  -2.8780  -2.8132  -2.4402  -2.4386  -2.1178  -1.8098  -1.8090
    -1.7158  -1.6835  -1.6558  -1.6536  -1.3273  -1.3240  -1.3203  -1.1810
    -1.1800  -1.1381  -1.1348  -1.0479  -1.0420  -1.0414  -0.9947  -0.8393
    -0.8375  -0.5834  -0.5431  -0.4953  -0.4458  -0.4172  -0.3903  -0.3451
    -0.3427  -0.3155  -0.0410  -0.0381   0.0027   0.0201   0.0607   0.1215
     0.2433   0.2917   0.2955   0.2959   0.3039   0.3104   0.3187   0.3729
     0.3802   0.5419   0.6096   0.6753   0.9643   1.0663   1.0700   1.0814
     1.0836   1.0986   1.2279   1.2397   1.3158   1.3624   1.3900   1.4783
     1.5431   1.6198   1.6352   1.6782   1.7025   1.7500   1.8202   1.9941
     1.9988   2.2023   2.2266   2.4310   2.5049   2.6798   2.7074   6.2952
     6.3961   6.3984   7.6081   7.6442   7.8882   7.8918   7.9496   8.3110
     8.3682   8.4771   8.6784   8.8550   9.2140   9.3388   9.3586   9.3599
     9.4105

          k = 0.3750 0.1320 0.0000 ( 34759 PWs)   bands (ev):

   -35.7310 -35.7065 -22.7729 -22.7697 -22.6081 -22.5226 -17.1658 -17.1461
   -16.9982 -16.9760 -16.8363 -16.8104 -15.1080 -15.1057 -14.9299 -14.7400
   -14.7217 -14.6721 -14.6611 -14.2985 -14.2938 -14.2453 -14.2346 -14.1118
   -14.0783 -14.0745 -13.2113  -8.1012  -8.0979  -7.9658  -7.9460  -7.9430
    -7.8353  -7.7715  -7.6953  -7.6921  -7.5945  -7.5350  -7.3236  -3.0745
    -3.0623  -2.9208  -2.8476  -2.4394  -2.4376  -2.2038  -2.1872  -2.1115
    -2.0225  -1.9984  -1.7253  -1.7213  -1.6299  -1.5866  -1.5695  -1.4273
    -1.4212  -1.3562  -1.3202  -1.2143  -1.0792  -0.9113  -0.9001  -0.8818
    -0.8451  -0.7912  -0.5425  -0.5284  -0.4417  -0.4082  -0.3937  -0.3746
    -0.3628  -0.1787  -0.1581  -0.0770  -0.0684  -0.0326   0.0435   0.0703
     0.0905   0.3218   0.3347   0.3474   0.5338   0.5461   0.6556   0.6701
     0.6784   0.8064   0.8355   0.9160   1.0173   1.0644   1.0875   1.1012
     1.1149   1.2403   1.2491   1.2515   1.3702   1.4070   1.4178   1.5126
     1.5715   1.5765   1.6293   1.6658   1.6695   1.6708   1.8384   2.4017
     2.5273   2.6444   2.6515   2.8070   2.8127   2.9793   2.9882   6.3792
     6.5446   6.5470   7.6537   7.6761   7.9550   7.9570   7.9938   8.3477
     8.3990   8.6705   8.8524   8.9436   9.1597   9.1959   9.3842   9.4769
     9.5162

          k = 0.3750 0.2640 0.0000 ( 34779 PWs)   bands (ev):

   -35.7266 -35.7022 -22.7196 -22.7164 -22.5564 -22.4735 -17.1455 -17.1256
   -16.9808 -16.9549 -16.9229 -16.9009 -14.9853 -14.9837 -14.7733 -14.6463
   -14.6214 -14.5234 -14.5101 -14.2654 -14.2548 -14.2296 -14.2219 -14.1556
   -14.1182 -14.0745 -13.1360  -8.4023  -8.3992  -8.2222  -8.0812  -8.0779
    -8.0092  -7.9588  -7.9555  -7.9064  -7.8282  -7.8110  -7.5951  -3.4002
    -3.3785  -3.1565  -3.0855  -2.6183  -2.6132  -2.5213  -2.5202  -2.5013
    -2.4900  -2.4872  -2.3594  -2.3569  -2.0878  -1.9070  -1.8926  -1.7293
    -1.7016  -1.3782  -1.3574  -1.1878  -1.1113  -1.0783  -1.0008  -0.9968
    -0.9560  -0.8989  -0.7734  -0.7592  -0.7558  -0.6692  -0.6457  -0.5075
    -0.4972  -0.4593  -0.3864  -0.1091   0.0392   0.2421   0.3737   0.4265
     0.5671   0.6123   0.7125   0.7383   0.8921   0.8996   0.9601   1.0278
     1.0335   1.0951   1.0964   1.1609   1.2553   1.2859   1.2912   1.2970
     1.4955   1.5072   1.5152   1.5380   1.5946   1.6077   1.6305   1.6376
     1.6436   1.6634   1.6937   1.6982   1.7008   1.7464   2.1737   2.3658
     2.8522   2.8880   2.9575   3.5955   3.5983   3.6913   3.6937   6.4169
     6.5895   6.5921   7.4769   7.4927   8.1648   8.2960   8.2981   8.6039
     8.7004   8.9131   9.2871   9.2976   9.3850   9.4448   9.5181   9.6583
     9.6858

          k = 0.3750 0.3960 0.0000 ( 34747 PWs)   bands (ev):

   -35.7223 -35.6979 -22.6650 -22.6618 -22.5033 -22.4232 -17.1283 -17.1074
   -17.1070 -17.0822 -16.8437 -16.8216 -14.8491 -14.8482 -14.5940 -14.5563
   -14.5108 -14.3669 -14.3636 -14.3463 -14.3428 -14.1925 -14.1861 -14.1469
   -14.0857 -14.0829 -13.0561  -8.6681  -8.6649  -8.4989  -8.3330  -8.3301
    -8.2647  -8.1250  -8.0839  -8.0805  -7.9531  -7.9303  -7.8436  -3.8812
    -3.8606  -3.5987  -3.5437  -3.2436  -3.0536  -3.0500  -2.7451  -2.7403
    -2.6321  -2.6074  -2.3884  -2.3866  -2.2191  -2.1996  -2.0651  -1.9613
    -1.9332  -1.3992  -1.3517  -1.3447  -1.3168  -1.3133  -1.1149  -1.0819
    -1.0754  -1.0012  -0.9816  -0.9467  -0.9438  -0.8856  -0.8540  -0.5117
    -0.5054  -0.4674  -0.3638   0.0420   0.1854   0.3106   0.5424   0.5891
     0.8173   0.9987   1.0364   1.0647   1.0984   1.1533   1.1874   1.2347
     1.2427   1.3563   1.3725   1.3742   1.4039   1.4483   1.4666   1.5857
     1.6530   1.6562   1.7262   1.7542   1.8116   1.8634   1.8709   1.9252
     1.9426   1.9545   1.9772   2.0697   2.0728   2.1222   2.2518   2.3770
     2.6871   2.7138   3.0400   4.1074   4.1097   4.1809   4.1819   6.1991
     6.2869   6.2903   7.1978   7.2395   8.3081   8.6251   8.8639   8.8752
     9.1531   9.2302   9.3227   9.3704   9.4151   9.4848   9.5099   9.6093
     9.7658

          k = 0.3750-0.5279 0.0000 ( 34780 PWs)   bands (ev):

   -35.7205 -35.6961 -22.6419 -22.6387 -22.4810 -22.4020 -17.1623 -17.1366
   -17.1156 -17.0956 -16.8084 -16.7863 -14.7869 -14.7861 -14.5280 -14.5250
   -14.4650 -14.3880 -14.3482 -14.3031 -14.2968 -14.1805 -14.1686 -14.1641
   -14.0881 -14.0793 -13.0215  -8.7502  -8.7469  -8.5953  -8.4781  -8.4752
    -8.3324  -8.2546  -8.1143  -8.1100  -8.1055  -7.9432  -7.8664  -4.0871
    -4.0671  -3.8017  -3.7464  -3.5164  -3.2788  -3.2752  -2.7635  -2.7587
    -2.6413  -2.6108  -2.3826  -2.3808  -2.3253  -2.3053  -2.0463  -2.0447
    -2.0154  -1.4961  -1.4448  -1.4286  -1.3610  -1.3565  -1.1784  -1.0936
    -1.0830  -1.0759  -1.0685  -1.0394  -1.0347  -0.9130  -0.8650  -0.4960
    -0.4901  -0.4637  -0.3417   0.0886   0.2170   0.3242   0.5948   0.6799
     0.8900   1.1483   1.1543   1.1707   1.1774   1.2122   1.2198   1.2259
     1.2715   1.4124   1.4271   1.4723   1.4835   1.6602   1.6686   1.6741
     1.7575   1.7634   1.8161   1.9266   1.9303   1.9427   2.0065   2.0113
     2.1043   2.1317   2.1999   2.2596   2.2633   2.2714   2.3157   2.3814
     2.4422   2.4790   3.0030   4.2444   4.2481   4.3320   4.3335   6.0520
     6.1090   6.1113   7.0923   7.1537   8.2946   8.5676   9.0057   9.0286
     9.1985   9.2530   9.2703   9.4751   9.5498   9.5951   9.7245   9.7524
     9.8417

          k =-0.5000 0.0000 0.0000 ( 34714 PWs)   bands (ev):

   -35.7317 -35.7072 -22.7755 -22.7723 -22.6107 -22.5266 -17.2266 -17.2073
   -16.9854 -16.9628 -16.7706 -16.7446 -15.2137 -15.2100 -15.0325 -14.8055
   -14.7679 -14.5098 -14.4975 -14.4592 -14.4357 -14.3064 -14.3028 -14.0891
   -14.0791 -14.0464 -13.2991  -8.0339  -8.0301  -7.9185  -7.8076  -7.7593
    -7.7566  -7.6010  -7.5695  -7.5663  -7.3992  -7.3442  -7.2307  -3.1521
    -3.1431  -3.0228  -2.9622  -2.4648  -2.4635  -2.1280  -1.7832  -1.7668
    -1.7644  -1.7552  -1.5319  -1.5303  -1.4260  -1.3279  -1.3242  -1.3016
    -1.2939  -1.2195  -1.2145  -1.1493  -1.1410  -1.0627  -1.0560  -0.9226
    -0.9208  -0.6518  -0.5974  -0.4975  -0.4717  -0.4335  -0.4183  -0.3530
    -0.3333  -0.3229  -0.0463  -0.0434  -0.0318  -0.0027   0.0079   0.1086
     0.2180   0.2935   0.2944   0.2971   0.3079   0.3114   0.3197   0.3214
     0.4302   0.4696   0.6529   0.7058   1.0195   1.0220   1.0267   1.0358
     1.2141   1.2382   1.2416   1.2587   1.2716   1.4565   1.4660   1.4734
     1.5454   1.5473   1.6424   1.7229   1.7367   1.7860   1.8382   2.0088
     2.0130   2.2046   2.2241   2.4372   2.5010   2.7118   2.7419   6.8432
     7.1674   7.1700   7.2207   7.2230   7.3330   8.1076   8.1678   8.3905
     8.4022   8.8153   8.9379   9.1006   9.3002   9.3198   9.4375   9.4936
     9.5618

          k =-0.5000 0.1320 0.0000 ( 34798 PWs)   bands (ev):

   -35.7299 -35.7055 -22.7547 -22.7515 -22.5905 -22.5072 -17.2174 -17.1980
   -16.9580 -16.9354 -16.8341 -16.8082 -15.1565 -15.1533 -14.9676 -14.7654
   -14.7276 -14.4710 -14.4589 -14.3991 -14.3771 -14.2847 -14.2811 -14.1188
   -14.0843 -14.0789 -13.2568  -8.0726  -8.0691  -7.9406  -7.8887  -7.8860
    -7.8245  -7.7727  -7.7692  -7.7206  -7.6124  -7.4752  -7.4347  -3.2232
    -3.2110  -3.0737  -3.0042  -2.4702  -2.4686  -2.1954  -2.1577  -2.1054
    -1.9654  -1.9458  -1.7199  -1.7159  -1.6515  -1.6331  -1.5786  -1.5431
    -1.5369  -1.4575  -1.4121  -1.2572  -1.0890  -0.9787  -0.9768  -0.8798
    -0.8689  -0.8113  -0.5788  -0.5654  -0.4550  -0.4203  -0.4082  -0.3990
    -0.3952  -0.2021  -0.1714  -0.0838  -0.0587  -0.0366   0.0403   0.0711
     0.0800   0.3939   0.4070   0.4098   0.4427   0.4572   0.5884   0.6334
     0.7198   0.8007   0.8844   0.9268   1.0341   1.0709   1.1123   1.1551
     1.1695   1.1867   1.2703   1.2805   1.3763   1.4914   1.4941   1.5209
     1.5989   1.6240   1.6395   1.7270   1.7490   1.7503   1.7960   2.3928
     2.5314   2.6477   2.6526   2.8222   2.8266   3.0324   3.0417   6.7480
     7.0151   7.0177   7.5028   7.5230   7.5530   8.0275   8.0710   8.2976
     8.3560   8.9327   9.1479   9.2785   9.2950   9.4005   9.5252   9.6210
     9.6519

          k =-0.5000 0.2640 0.0000 ( 34772 PWs)   bands (ev):

   -35.7256 -35.7011 -22.7037 -22.7005 -22.5408 -22.4597 -17.1955 -17.1760
   -16.9774 -16.9515 -16.8868 -16.8643 -15.0047 -15.0027 -14.7941 -14.6700
   -14.6284 -14.3748 -14.3635 -14.2870 -14.2768 -14.2347 -14.2310 -14.2009
   -14.1536 -14.0695 -13.1494  -8.3412  -8.3379  -8.1899  -8.1871  -8.1657
    -8.0226  -8.0190  -7.9986  -7.9562  -7.8905  -7.7875  -7.7832  -3.5387
    -3.5165  -3.3023  -3.2311  -2.6452  -2.6412  -2.5432  -2.5415  -2.4971
    -2.4948  -2.4915  -2.3671  -2.3645  -2.1056  -2.0342  -2.0160  -1.8168
    -1.7842  -1.2974  -1.2709  -1.1421  -1.0775  -1.0750  -1.0620  -1.0337
    -1.0257  -0.9663  -0.7972  -0.7826  -0.7798  -0.6722  -0.6446  -0.5056
    -0.5017  -0.4824  -0.3890  -0.1044   0.0548   0.2636   0.4116   0.4808
     0.6150   0.6509   0.7430   0.7533   0.9677   0.9735   1.0355   1.0407
     1.0467   1.0822   1.1154   1.1287   1.2981   1.3076   1.3389   1.3664
     1.4853   1.5811   1.5853   1.6052   1.6158   1.6307   1.6385   1.6827
     1.6974   1.7497   1.7544   1.7689   1.7746   1.9333   1.9374   2.3365
     2.8440   2.8819   2.9529   3.7355   3.7370   3.8241   3.8265   6.4287
     6.5858   6.5878   7.4013   7.4293   8.1266   8.3324   8.3436   8.5358
     8.9121   9.1716   9.1801   9.4672   9.4796   9.5186   9.5303   9.6647
     9.7953

          k =-0.5000 0.3960 0.0000 ( 34764 PWs)   bands (ev):

   -35.7212 -35.6968 -22.6515 -22.6483 -22.4901 -22.4112 -17.1740 -17.1543
   -17.1062 -17.0806 -16.8116 -16.7891 -14.8203 -14.8196 -14.6091 -14.5863
   -14.4960 -14.3527 -14.3331 -14.2785 -14.2692 -14.1865 -14.1823 -14.1299
   -14.1092 -14.0908 -13.0334  -8.7164  -8.7131  -8.5527  -8.4780  -8.4752
    -8.3086  -8.2628  -8.1005  -8.0975  -8.0967  -7.9444  -7.8555  -4.0130
    -3.9904  -3.7204  -3.6629  -3.2357  -3.0451  -3.0415  -2.8148  -2.8101
    -2.7046  -2.6923  -2.4042  -2.4029  -2.3215  -2.2997  -2.0720  -2.0212
    -1.9895  -1.4047  -1.3493  -1.3273  -1.2246  -1.2184  -1.1883  -1.1648
    -1.0928  -1.0025  -0.9976  -0.9680  -0.9584  -0.9500  -0.9265  -0.4750
    -0.4660  -0.4635  -0.3298   0.0583   0.2085   0.3427   0.6414   0.6971
     0.9147   1.0795   1.1477   1.1533   1.1578   1.2583   1.2601   1.2788
     1.3330   1.3724   1.4492   1.4526   1.4544   1.4571   1.4878   1.6558
     1.7036   1.7453   1.7549   1.7769   1.8606   1.9253   1.9392   1.9684
     2.0372   2.0407   2.0778   2.0896   2.1027   2.1712   2.3023   2.3095
     2.6744   2.7041   3.0335   4.3741   4.3766   4.4261   4.4269   6.0013
     6.0914   6.0932   7.0502   7.0919   8.4293   8.4379   8.8086   8.8289
     9.1921   9.2789   9.3609   9.4036   9.4838   9.5103   9.5638   9.6763
     9.7740

          k =-0.5000-0.5279 0.0000 ( 34796 PWs)   bands (ev):

   -35.7195 -35.6950 -22.6295 -22.6263 -22.4687 -22.3908 -17.1652 -17.1568
   -17.1455 -17.1312 -16.7783 -16.7558 -14.7203 -14.7200 -14.5711 -14.5682
   -14.4009 -14.3787 -14.3497 -14.2522 -14.2422 -14.1754 -14.1637 -14.1595
   -14.0868 -14.0495 -12.9824  -8.8624  -8.8591  -8.7048  -8.5941  -8.5913
    -8.4538  -8.3685  -8.2262  -8.1285  -8.1246  -7.9604  -7.8739  -4.2210
    -4.1990  -3.9193  -3.8636  -3.5105  -3.2693  -3.2657  -2.8471  -2.8423
    -2.7301  -2.7121  -2.4126  -2.3943  -2.3930  -2.3905  -2.0886  -2.0577
    -2.0432  -1.5140  -1.4636  -1.4390  -1.2926  -1.2834  -1.1630  -1.1508
    -1.1356  -1.0905  -1.0876  -1.0683  -1.0593  -0.9903  -0.9379  -0.4663
    -0.4370  -0.4346  -0.3011   0.1054   0.2416   0.3581   0.7190   0.8217
     1.0130   1.2268   1.2325   1.2338   1.2344   1.2687   1.2776   1.3515
     1.4957   1.4973   1.5006   1.5178   1.5422   1.7364   1.7622   1.7757
     1.7824   1.7927   1.8881   1.9058   1.9554   1.9600   2.0567   2.0683
     2.2300   2.2336   2.2468   2.2741   2.2949   2.3121   2.4178   2.4494
     2.4584   2.4601   2.9939   4.5666   4.5710   4.6356   4.6365   5.7941
     5.8636   5.8655   6.9296   6.9930   8.3325   8.5089   8.8997   8.9183
     8.9313   8.9779   9.2861   9.3360   9.3973   9.4903   9.7260   9.8186
     9.9038

     the Fermi energy is     2.4592 ev

!    total energy              =   -1842.80768481 Ry
     Harris-Foulkes estimate   =   -1842.80768482 Ry
     estimated scf accuracy    <          8.6E-09 Ry

     The total energy is the sum of the following terms:

     one-electron contribution =  -28374.21367034 Ry
     hartree contribution      =   14339.45006373 Ry
     xc contribution           =    -621.62292951 Ry
     ewald contribution        =   12813.59008863 Ry
     smearing contrib. (-TS)   =      -0.01123733 Ry

     convergence has been achieved in  34 iterations

     negative rho (up, down):  1.530E-03 0.000E+00

     Forces acting on atoms (cartesian axes, Ry/au):

     atom    1 type  4   force =     0.00000000    0.00000000   -0.00030866
     atom    2 type  3   force =     0.00000000    0.00000000    0.00039225
     atom    3 type  4   force =     0.00000000    0.00000000   -0.00076034
     atom    4 type  1   force =     0.00000000    0.00000000   -0.00048839
     atom    5 type  3   force =     0.00000000    0.00000000    0.00045009
     atom    6 type  4   force =     0.00000000    0.00000000    0.00081795
     atom    7 type  4   force =     0.00000000    0.00000000    0.00107510
     atom    8 type  2   force =     0.00000000    0.00000000   -0.00253915
     atom    9 type  4   force =     0.00000000    0.00000000    0.00368717
     atom   10 type  4   force =     0.00000000    0.00000000    0.00332132
     atom   11 type  3   force =     0.00000000    0.00000000    0.00155201
     atom   12 type  1   force =     0.00000000    0.00000000    0.00884715
     atom   13 type  4   force =     0.00000000    0.00000000   -0.01650462
     atom   14 type  4   force =     0.00000000    0.00000000    0.03387633
     atom   15 type  3   force =     0.00000000    0.00000000   -0.01275700
     atom   16 type  4   force =     0.00000000    0.00000000    0.01394116
     atom   17 type  1   force =     0.00000000    0.00000000   -0.01520543
     atom   18 type  3   force =     0.00000000    0.00000000   -0.01991274
     atom   19 type  4   force =     0.00000000    0.00000000    0.00046251
     atom   20 type  4   force =     0.00000000    0.00000000   -0.00078129
     atom   21 type  2   force =     0.00000000    0.00000000    0.00215286
     atom   22 type  4   force =     0.00000000    0.00000000   -0.00142035
     atom   23 type  4   force =     0.00000000    0.00000000   -0.00019421
     atom   24 type  3   force =     0.00000000    0.00000000   -0.00036252
     atom   25 type  1   force =     0.00000000    0.00000000    0.00038289
     atom   26 type  4   force =     0.00000000    0.00000000    0.00036595
     atom   27 type  3   force =     0.00000000    0.00000000   -0.00007798
     atom   28 type  4   force =     0.00000000    0.00000000   -0.00001209

     Total force =     0.050275     Total SCF correction =     0.000401


     Computing stress (Cartesian axis) and pressure


     negative rho (up, down):  1.530E-03 0.000E+00
          total   stress  (Ry/bohr**3)                   (kbar)     P=       -6.06
   0.00000677   0.00000000   0.00000000            1.00        0.00        0.00
   0.00000000  -0.00007426   0.00000000            0.00      -10.92        0.00
   0.00000000   0.00000000  -0.00005610            0.00        0.00       -8.25

 
     init_run     :      8.23s CPU      8.73s WALL (       1 calls)
     electrons    :    533.60s CPU    571.63s WALL (       1 calls)
     forces       :      3.54s CPU      3.86s WALL (       1 calls)
     stress       :     18.57s CPU     19.50s WALL (       1 calls)

     Called by init_run:
     wfcinit      :      5.81s CPU      5.94s WALL (       1 calls)
     potinit      :      0.59s CPU      0.60s WALL (       1 calls)
     hinit0       :      0.95s CPU      0.97s WALL (       1 calls)

     Called by electrons:
     c_bands      :    424.96s CPU    440.62s WALL (      34 calls)
     sum_band     :     73.48s CPU     85.92s WALL (      34 calls)
     v_of_rho     :      2.71s CPU      2.76s WALL (      35 calls)
     newd         :     17.75s CPU     27.75s WALL (      35 calls)
     mix_rho      :     15.03s CPU     15.19s WALL (      34 calls)

     Called by c_bands:
     init_us_2    :      3.45s CPU      3.51s WALL (    1775 calls)
     cegterg      :    400.15s CPU    415.18s WALL (     850 calls)

     Called by sum_band:
     sum_band:bec :      0.23s CPU      0.23s WALL (     850 calls)
     addusdens    :     17.97s CPU     29.67s WALL (      34 calls)

     Called by *egterg:
     h_psi        :    195.24s CPU    204.41s WALL (    3885 calls)
     s_psi        :     21.25s CPU     21.62s WALL (    3885 calls)
     g_psi        :      0.64s CPU      0.64s WALL (    3010 calls)
     cdiaghg      :    113.00s CPU    113.51s WALL (    3860 calls)

     Called by h_psi:
     h_psi:calbec :     23.45s CPU     24.63s WALL (    3885 calls)
     vloc_psi     :    148.34s CPU    151.11s WALL (    3885 calls)
     add_vuspsi   :     22.26s CPU     25.27s WALL (    3885 calls)

     General routines
     calbec       :     38.10s CPU     39.35s WALL (    4860 calls)
     fft          :      2.16s CPU      2.18s WALL (     478 calls)
     ffts         :      8.20s CPU      8.28s WALL (   14084 calls)
     fftw         :    168.42s CPU    171.41s WALL (  606178 calls)
     interpolate  :      0.15s CPU      0.16s WALL (      35 calls)
 
     Parallel routines
     fft_scatt_xy :     22.35s CPU     22.74s WALL (  620740 calls)
     fft_scatt_yz :    102.51s CPU    104.28s WALL (  620740 calls)
 
     PWSCF        :   9m24.67s CPU  10m 4.51s WALL

 
   This run was terminated on:  22:49:25  21May2021            

=------------------------------------------------------------------------------=
   JOB DONE.
=------------------------------------------------------------------------------=
[1621651765.564827] [holy7c04201:101406:0]          mpool.c:43   UCX  WARN  object 0x3516c00 was not returned to mpool ucp_requests
[1621651765.565529] [holy7c04205:155674:0]          mpool.c:43   UCX  WARN  object 0x3d95300 was not returned to mpool ucp_requests
[1621651765.565552] [holy7c04205:155674:0]          mpool.c:43   UCX  WARN  object 0x3d95840 was not returned to mpool ucp_requests
[1621651765.564909] [holy7c04207:210915:0]          mpool.c:43   UCX  WARN  object 0x35ca000 was not returned to mpool ucp_requests
[1621651765.564928] [holy7c04207:210915:0]          mpool.c:43   UCX  WARN  object 0x35ca1c0 was not returned to mpool ucp_requests
[1621651765.561804] [holy7c04206:232310:0]          mpool.c:43   UCX  WARN  object 0x3f0ab80 was not returned to mpool ucp_requests
[1621651765.563906] [holy7c04104:162743:0]          mpool.c:43   UCX  WARN  object 0x3d1db40 was not returned to mpool ucp_requests
[1621651765.565820] [holy7c04201:101405:0]          mpool.c:43   UCX  WARN  object 0x3019e40 was not returned to mpool ucp_requests
[1621651765.567623] [holy7c04207:210916:0]          mpool.c:43   UCX  WARN  object 0x2fd0880 was not returned to mpool ucp_requests
[1621651765.563871] [holy7c04209:128494:0]          mpool.c:43   UCX  WARN  object 0x3f7b600 was not returned to mpool ucp_requests
