
     Program PWSCF v.6.5 starts on 21May2021 at 22:30:49 

     This program is part of the open-source Quantum ESPRESSO suite
     for quantum simulation of materials; please cite
         "P. Giannozzi et al., J. Phys.:Condens. Matter 21 395502 (2009);
         "P. Giannozzi et al., J. Phys.:Condens. Matter 29 465901 (2017);
          URL http://www.quantum-espresso.org", 
     in publications or presentations arising from this work. More details at
     http://www.quantum-espresso.org/quote

     Parallel version (MPI), running on    20 processors

     MPI processes distributed on    14 nodes
     R & G space division:  proc/nbgrp/npool/nimage =      20
     Reading input from CBCO_Y_cleave_0.25_sep.pwi
Warning: card &IONS ignored
Warning: card     ION_DYNAMICS = 'BFGS' ignored
Warning: card / ignored
Warning: card &CELL ignored
Warning: card     CELL_DYNAMICS = 'BFGS' ignored
Warning: card     PRESS_CONV_THR = 5 ignored
Warning: card / ignored

     Current dimensions of program PWSCF are:
     Max number of different atomic species (ntypx) = 10
     Max number of k-points (npk) =  40000
     Max angular momentum in pseudopotentials (lmaxx) =  3

     Subspace diagonalization in iterative solution of the eigenvalue problem:
     one sub-group per band group will be used
     scalapack distributed-memory algorithm (size of sub-group:  4*  4 procs)

     Message from routine setup:
     using ibrav=0 with symmetry is DISCOURAGED, use correct ibrav instead
 
     Parallelization info
     --------------------
     sticks:   dense  smooth     PW     G-vecs:    dense   smooth      PW
     Min         149      50     14                70565    13584    2122
     Max         150      51     15                70602    13609    2165
     Sum        2991    1007    289              1411709   271883   42721
 


     bravais-lattice index     =            0
     lattice parameter (alat)  =       7.4270  a.u.
     unit-cell volume          =    4326.9901 (a.u.)^3
     number of atoms/cell      =           28
     number of atomic types    =            4
     number of electrons       =       227.00
     number of Kohn-Sham states=          137
     kinetic-energy cutoff     =      60.0000  Ry
     charge density cutoff     =     720.0000  Ry
     convergence threshold     =      1.0E-08
     mixing beta               =       0.5000
     number of iterations used =           10  local-TF  mixing
     Exchange-correlation= SLA PW PBE PBE
                           (   1   4   3   4   0   0   0)

     celldm(1)=   7.427040  celldm(2)=   0.000000  celldm(3)=   0.000000
     celldm(4)=   0.000000  celldm(5)=   0.000000  celldm(6)=   0.000000

     crystal axes: (cart. coord. in units of alat)
               a(1) = (   1.000000   0.000000   0.000000 )  
               a(2) = (   0.000000   0.947081   0.000000 )  
               a(3) = (   0.000000   0.000000  11.151966 )  

     reciprocal axes: (cart. coord. in units 2 pi/alat)
               b(1) = (  1.000000  0.000000  0.000000 )  
               b(2) = (  0.000000  1.055876  0.000000 )  
               b(3) = (  0.000000  0.000000  0.089670 )  


     PseudoPot. # 1 for Ba read from file:
     ./pseudo/Ba.pbe-nsp-van.UPF
     MD5 check sum: 2b9c31dd849566dd297d80989662b7a0
     Pseudo is Ultrasoft + core correction, Zval = 10.0
     Generated by new atomic code, or converted to UPF format
     Using radial grid of  907 points,  6 beta functions with: 
                l(1) =   0
                l(2) =   0
                l(3) =   1
                l(4) =   1
                l(5) =   2
                l(6) =   2
     Q(r) pseudized with  6 coefficients,  rinner =    1.200   1.200   1.200
                                                       1.200   1.200

     PseudoPot. # 2 for Ca read from file:
     ./pseudo/Ca.pbe-nsp-van.UPF
     MD5 check sum: 6471098428ff4fa451746d08035ff179
     Pseudo is Ultrasoft + core correction, Zval = 10.0
     Generated by new atomic code, or converted to UPF format
     Using radial grid of  845 points,  6 beta functions with: 
                l(1) =   0
                l(2) =   0
                l(3) =   1
                l(4) =   1
                l(5) =   2
                l(6) =   2
     Q(r) pseudized with  6 coefficients,  rinner =    1.200   1.200   1.200
                                                       1.200   1.200

     PseudoPot. # 3 for Cu read from file:
     ./pseudo/Cu.pbe-n-van_ak.UPF
     MD5 check sum: 34e3282627ffb533726feb647e090d62
     Pseudo is Ultrasoft + core correction, Zval = 11.0
     Generated by new atomic code, or converted to UPF format
     Using radial grid of  867 points,  6 beta functions with: 
                l(1) =   0
                l(2) =   0
                l(3) =   1
                l(4) =   1
                l(5) =   2
                l(6) =   2
     Q(r) pseudized with  8 coefficients,  rinner =    1.400   1.400   1.400
                                                       1.400   1.400

     PseudoPot. # 4 for O  read from file:
     ./pseudo/O.pbe-van_ak.UPF
     MD5 check sum: 783ce7fe4c79b6a4916957118fed0856
     Pseudo is Ultrasoft, Zval =  6.0
     Generated by new atomic code, or converted to UPF format
     Using radial grid of  737 points,  4 beta functions with: 
                l(1) =   0
                l(2) =   0
                l(3) =   1
                l(4) =   1
     Q(r) pseudized with  8 coefficients,  rinner =    0.800   0.800   0.800


     atomic species   valence    mass     pseudopotential
        Ba            10.00   137.32700     Ba( 1.00)
        Ca            10.00    40.07800     Ca( 1.00)
        Cu            11.00    63.54600     Cu( 1.00)
        O              6.00    15.99900     O ( 1.00)

      4 Sym. Ops. (no inversion) found



   Cartesian axes

     site n.     atom                  positions (alat units)
         1           O   tau(   1) = (   0.0000000   0.4735409  -0.0469745  )
         2           Cu  tau(   2) = (   0.0000000   0.0000000   0.0264565  )
         3           O   tau(   3) = (   0.0000000   0.0000000   0.5030914  )
         4           Ba  tau(   4) = (   0.5000000   0.4735409   0.5690292  )
         5           Cu  tau(   5) = (   0.0000000   0.0000000   1.0374254  )
         6           O   tau(   6) = (   0.5000000   0.0000000   1.0768099  )
         7           O   tau(   7) = (   0.0000000   0.4735409   1.1116985  )
         8           Ca  tau(   8) = (   0.5000000   0.4735409   1.4976260  )
         9           O   tau(   9) = (   0.0000000   0.4735409   1.8667529  )
        10           O   tau(  10) = (   0.5000000   0.0000000   1.9044124  )
        11           Cu  tau(  11) = (   0.0000000   0.0000000   1.9512546  )
        12           Ba  tau(  12) = (   0.5000000   0.4735409   2.4295764  )
        13           O   tau(  13) = (   0.0000000   0.0000000   2.5115362  )
        14           O   tau(  14) = (   0.0000000   0.4735409   2.9918528  )
        15           Cu  tau(  15) = (   0.0000000   0.0000000   2.9919088  )
        16           O   tau(  16) = (   0.0000000   0.0000000   3.4722686  )
        17           Ba  tau(  17) = (   0.5000000   0.4735409   3.5542208  )
        18           Cu  tau(  18) = (   0.0000000   0.0000000   4.0325248  )
        19           O   tau(  19) = (   0.5000000   0.0000000   4.0793669  )
        20           O   tau(  20) = (   0.0000000   0.4735409   4.1170213  )
        21           Ca  tau(  21) = (   0.5000000   0.4735409   4.4861584  )
        22           O   tau(  22) = (   0.0000000   0.4735409   4.9356930  )
        23           O   tau(  23) = (   0.5000000   0.0000000   4.9705816  )
        24           Cu  tau(  24) = (   0.0000000   0.0000000   5.0099687  )
        25           Ba  tau(  25) = (   0.5000000   0.4735409   5.4783624  )
        26           O   tau(  26) = (   0.0000000   0.0000000   5.5442900  )
        27           Cu  tau(  27) = (   0.0000000   0.0000000   6.0209299  )
        28           O   tau(  28) = (   0.0000000   0.4735409   6.0943482  )

     number of k points=    25  Gaussian smearing, width (Ry)=  0.0100
                       cart. coord. in units 2pi/alat
        k(    1) = (   0.0000000   0.0000000   0.0000000), wk =   0.0312500
        k(    2) = (   0.0000000   0.1319845   0.0000000), wk =   0.0625000
        k(    3) = (   0.0000000   0.2639689   0.0000000), wk =   0.0625000
        k(    4) = (   0.0000000   0.3959534   0.0000000), wk =   0.0625000
        k(    5) = (   0.0000000  -0.5279378   0.0000000), wk =   0.0312500
        k(    6) = (   0.1250000   0.0000000   0.0000000), wk =   0.0625000
        k(    7) = (   0.1250000   0.1319845   0.0000000), wk =   0.1250000
        k(    8) = (   0.1250000   0.2639689   0.0000000), wk =   0.1250000
        k(    9) = (   0.1250000   0.3959534   0.0000000), wk =   0.1250000
        k(   10) = (   0.1250000  -0.5279378   0.0000000), wk =   0.0625000
        k(   11) = (   0.2500000   0.0000000   0.0000000), wk =   0.0625000
        k(   12) = (   0.2500000   0.1319845   0.0000000), wk =   0.1250000
        k(   13) = (   0.2500000   0.2639689   0.0000000), wk =   0.1250000
        k(   14) = (   0.2500000   0.3959534   0.0000000), wk =   0.1250000
        k(   15) = (   0.2500000  -0.5279378   0.0000000), wk =   0.0625000
        k(   16) = (   0.3750000   0.0000000   0.0000000), wk =   0.0625000
        k(   17) = (   0.3750000   0.1319845   0.0000000), wk =   0.1250000
        k(   18) = (   0.3750000   0.2639689   0.0000000), wk =   0.1250000
        k(   19) = (   0.3750000   0.3959534   0.0000000), wk =   0.1250000
        k(   20) = (   0.3750000  -0.5279378   0.0000000), wk =   0.0625000
        k(   21) = (  -0.5000000   0.0000000   0.0000000), wk =   0.0312500
        k(   22) = (  -0.5000000   0.1319845   0.0000000), wk =   0.0625000
        k(   23) = (  -0.5000000   0.2639689   0.0000000), wk =   0.0625000
        k(   24) = (  -0.5000000   0.3959534   0.0000000), wk =   0.0625000
        k(   25) = (  -0.5000000  -0.5279378   0.0000000), wk =   0.0312500

     Dense  grid:  1411709 G-vectors     FFT dimensions: (  64,  64, 720)

     Smooth grid:   271883 G-vectors     FFT dimensions: (  40,  36, 432)

     Estimated max dynamical RAM per process >     450.82 MB

     Estimated total dynamical RAM >       8.81 GB

     Initial potential from superposition of free atoms

     starting charge  226.84630, renormalised to  227.00000

     negative rho (up, down):  3.550E-03 0.000E+00
     Starting wfcs are  195 randomized atomic wfcs

     total cpu time spent up to now is       11.6 secs

     Self-consistent Calculation

     iteration #  1     ecut=    60.00 Ry     beta= 0.50
     Davidson diagonalization with overlap
     ethr =  1.00E-02,  avg # of iterations =  2.0

     negative rho (up, down):  5.009E-04 0.000E+00

     total cpu time spent up to now is       29.3 secs

     total energy              =   -1840.98562436 Ry
     Harris-Foulkes estimate   =   -1845.33789306 Ry
     estimated scf accuracy    <      18.37968548 Ry

     iteration #  2     ecut=    60.00 Ry     beta= 0.50
     Davidson diagonalization with overlap
     ethr =  8.10E-03,  avg # of iterations =  2.0

     negative rho (up, down):  2.565E-04 0.000E+00

     total cpu time spent up to now is       48.4 secs

     total energy              =   -1842.55741572 Ry
     Harris-Foulkes estimate   =   -1843.27493399 Ry
     estimated scf accuracy    <       3.49189852 Ry

     iteration #  3     ecut=    60.00 Ry     beta= 0.50
     Davidson diagonalization with overlap
     ethr =  1.54E-03,  avg # of iterations =  2.0

     negative rho (up, down):  2.450E-04 0.000E+00

     total cpu time spent up to now is       66.5 secs

     total energy              =   -1842.88502850 Ry
     Harris-Foulkes estimate   =   -1843.02115396 Ry
     estimated scf accuracy    <       2.72945941 Ry

     iteration #  4     ecut=    60.00 Ry     beta= 0.50
     Davidson diagonalization with overlap
     ethr =  1.20E-03,  avg # of iterations =  1.0

     negative rho (up, down):  2.408E-04 0.000E+00

     total cpu time spent up to now is       84.6 secs

     total energy              =   -1842.89153741 Ry
     Harris-Foulkes estimate   =   -1842.96243331 Ry
     estimated scf accuracy    <       0.40724617 Ry

     iteration #  5     ecut=    60.00 Ry     beta= 0.50
     Davidson diagonalization with overlap
     ethr =  1.79E-04,  avg # of iterations =  6.6

     negative rho (up, down):  2.376E-04 0.000E+00

     total cpu time spent up to now is      109.8 secs

     total energy              =   -1842.91665557 Ry
     Harris-Foulkes estimate   =   -1842.94544484 Ry
     estimated scf accuracy    <       2.13835447 Ry

     iteration #  6     ecut=    60.00 Ry     beta= 0.50
     Davidson diagonalization with overlap
     ethr =  1.79E-04,  avg # of iterations =  1.1

     negative rho (up, down):  2.362E-04 0.000E+00

     total cpu time spent up to now is      127.0 secs

     total energy              =   -1842.91757741 Ry
     Harris-Foulkes estimate   =   -1842.92537630 Ry
     estimated scf accuracy    <       1.24841766 Ry

     iteration #  7     ecut=    60.00 Ry     beta= 0.50
     Davidson diagonalization with overlap
     ethr =  1.79E-04,  avg # of iterations =  1.0

     negative rho (up, down):  2.336E-04 0.000E+00

     total cpu time spent up to now is      143.1 secs

     total energy              =   -1842.90387723 Ry
     Harris-Foulkes estimate   =   -1842.92015849 Ry
     estimated scf accuracy    <       0.86324945 Ry

     iteration #  8     ecut=    60.00 Ry     beta= 0.50
     Davidson diagonalization with overlap
     ethr =  1.79E-04,  avg # of iterations =  1.0

     negative rho (up, down):  2.333E-04 0.000E+00

     total cpu time spent up to now is      161.3 secs

     total energy              =   -1842.90435739 Ry
     Harris-Foulkes estimate   =   -1842.91056300 Ry
     estimated scf accuracy    <       0.44946074 Ry

     iteration #  9     ecut=    60.00 Ry     beta= 0.50
     Davidson diagonalization with overlap
     ethr =  1.79E-04,  avg # of iterations =  1.0

     negative rho (up, down):  2.334E-04 0.000E+00

     total cpu time spent up to now is      177.6 secs

     total energy              =   -1842.90112292 Ry
     Harris-Foulkes estimate   =   -1842.90650525 Ry
     estimated scf accuracy    <       0.14041284 Ry

     iteration # 10     ecut=    60.00 Ry     beta= 0.50
     Davidson diagonalization with overlap
     ethr =  6.19E-05,  avg # of iterations =  5.6

     negative rho (up, down):  2.336E-04 0.000E+00

     total cpu time spent up to now is      200.7 secs

     total energy              =   -1842.89888339 Ry
     Harris-Foulkes estimate   =   -1842.90231901 Ry
     estimated scf accuracy    <       0.11099096 Ry

     iteration # 11     ecut=    60.00 Ry     beta= 0.50
     Davidson diagonalization with overlap
     ethr =  4.89E-05,  avg # of iterations =  5.7

     negative rho (up, down):  2.340E-04 0.000E+00

     total cpu time spent up to now is      222.0 secs

     total energy              =   -1842.89791454 Ry
     Harris-Foulkes estimate   =   -1842.89958264 Ry
     estimated scf accuracy    <       0.04448553 Ry

     iteration # 12     ecut=    60.00 Ry     beta= 0.50
     Davidson diagonalization with overlap
     ethr =  1.96E-05,  avg # of iterations =  6.3

     negative rho (up, down):  6.861E-04 0.000E+00

     total cpu time spent up to now is      245.2 secs

     total energy              =   -1842.89660620 Ry
     Harris-Foulkes estimate   =   -1842.89815660 Ry
     estimated scf accuracy    <       0.03138420 Ry

     iteration # 13     ecut=    60.00 Ry     beta= 0.50
     Davidson diagonalization with overlap
     ethr =  1.38E-05,  avg # of iterations =  4.7

     negative rho (up, down):  8.386E-03 0.000E+00

     total cpu time spent up to now is      266.9 secs

     total energy              =   -1842.89545692 Ry
     Harris-Foulkes estimate   =   -1842.89684966 Ry
     estimated scf accuracy    <       0.01789289 Ry

     iteration # 14     ecut=    60.00 Ry     beta= 0.50
     Davidson diagonalization with overlap
     c_bands:  1 eigenvalues not converged
     ethr =  7.88E-06,  avg # of iterations =  8.3

     negative rho (up, down):  1.707E-02 0.000E+00

     total cpu time spent up to now is      293.6 secs

     total energy              =   -1842.89452136 Ry
     Harris-Foulkes estimate   =   -1842.89563830 Ry
     estimated scf accuracy    <       0.01069841 Ry

     iteration # 15     ecut=    60.00 Ry     beta= 0.50
     Davidson diagonalization with overlap
     ethr =  4.71E-06,  avg # of iterations =  6.4

     negative rho (up, down):  2.137E-02 0.000E+00

     total cpu time spent up to now is      317.7 secs

     total energy              =   -1842.89358805 Ry
     Harris-Foulkes estimate   =   -1842.89462041 Ry
     estimated scf accuracy    <       0.00886385 Ry

     iteration # 16     ecut=    60.00 Ry     beta= 0.50
     Davidson diagonalization with overlap
     ethr =  3.90E-06,  avg # of iterations =  8.0

     negative rho (up, down):  2.432E-02 0.000E+00

     total cpu time spent up to now is      344.3 secs

     total energy              =   -1842.89276373 Ry
     Harris-Foulkes estimate   =   -1842.89366767 Ry
     estimated scf accuracy    <       0.00590419 Ry

     iteration # 17     ecut=    60.00 Ry     beta= 0.50
     Davidson diagonalization with overlap
     c_bands:  1 eigenvalues not converged
     ethr =  2.60E-06,  avg # of iterations =  9.1

     negative rho (up, down):  2.218E-02 0.000E+00

     total cpu time spent up to now is      372.3 secs

     total energy              =   -1842.89232759 Ry
     Harris-Foulkes estimate   =   -1842.89286338 Ry
     estimated scf accuracy    <       0.00315918 Ry

     iteration # 18     ecut=    60.00 Ry     beta= 0.50
     Davidson diagonalization with overlap
     ethr =  1.39E-06,  avg # of iterations =  7.8

     negative rho (up, down):  1.664E-02 0.000E+00

     total cpu time spent up to now is      398.1 secs

     total energy              =   -1842.89211752 Ry
     Harris-Foulkes estimate   =   -1842.89237567 Ry
     estimated scf accuracy    <       0.00123752 Ry

     iteration # 19     ecut=    60.00 Ry     beta= 0.50
     Davidson diagonalization with overlap
     ethr =  5.45E-07,  avg # of iterations =  6.7

     negative rho (up, down):  7.730E-03 0.000E+00

     total cpu time spent up to now is      422.6 secs

     total energy              =   -1842.89194039 Ry
     Harris-Foulkes estimate   =   -1842.89214320 Ry
     estimated scf accuracy    <       0.00050105 Ry

     iteration # 20     ecut=    60.00 Ry     beta= 0.50
     Davidson diagonalization with overlap
     c_bands:  1 eigenvalues not converged
     ethr =  2.21E-07,  avg # of iterations =  7.5

     negative rho (up, down):  3.859E-03 0.000E+00

     total cpu time spent up to now is      448.6 secs

     total energy              =   -1842.89193098 Ry
     Harris-Foulkes estimate   =   -1842.89195795 Ry
     estimated scf accuracy    <       0.00034889 Ry

     iteration # 21     ecut=    60.00 Ry     beta= 0.50
     Davidson diagonalization with overlap
     c_bands:  1 eigenvalues not converged
     ethr =  1.54E-07,  avg # of iterations =  7.2

     negative rho (up, down):  1.974E-03 0.000E+00

     total cpu time spent up to now is      472.8 secs

     total energy              =   -1842.89191228 Ry
     Harris-Foulkes estimate   =   -1842.89193519 Ry
     estimated scf accuracy    <       0.00018423 Ry

     iteration # 22     ecut=    60.00 Ry     beta= 0.50
     Davidson diagonalization with overlap
     c_bands:  1 eigenvalues not converged
     c_bands:  1 eigenvalues not converged
     ethr =  8.12E-08,  avg # of iterations =  7.7

     negative rho (up, down):  1.490E-03 0.000E+00

     total cpu time spent up to now is      498.8 secs

     total energy              =   -1842.89193965 Ry
     Harris-Foulkes estimate   =   -1842.89191475 Ry
     estimated scf accuracy    <       0.00008571 Ry

     iteration # 23     ecut=    60.00 Ry     beta= 0.50
     Davidson diagonalization with overlap
     ethr =  3.78E-08,  avg # of iterations =  5.4

     negative rho (up, down):  1.333E-03 0.000E+00

     total cpu time spent up to now is      521.7 secs

     total energy              =   -1842.89194135 Ry
     Harris-Foulkes estimate   =   -1842.89194175 Ry
     estimated scf accuracy    <       0.00001958 Ry

     iteration # 24     ecut=    60.00 Ry     beta= 0.50
     Davidson diagonalization with overlap
     ethr =  8.63E-09,  avg # of iterations =  1.0

     negative rho (up, down):  1.385E-03 0.000E+00

     total cpu time spent up to now is      538.3 secs

     total energy              =   -1842.89194169 Ry
     Harris-Foulkes estimate   =   -1842.89194170 Ry
     estimated scf accuracy    <       0.00000890 Ry

     iteration # 25     ecut=    60.00 Ry     beta= 0.50
     Davidson diagonalization with overlap
     ethr =  3.92E-09,  avg # of iterations =  1.2

     negative rho (up, down):  1.455E-03 0.000E+00

     total cpu time spent up to now is      554.4 secs

     total energy              =   -1842.89194234 Ry
     Harris-Foulkes estimate   =   -1842.89194207 Ry
     estimated scf accuracy    <       0.00000475 Ry

     iteration # 26     ecut=    60.00 Ry     beta= 0.50
     Davidson diagonalization with overlap
     ethr =  2.09E-09,  avg # of iterations =  1.5

     negative rho (up, down):  1.449E-03 0.000E+00

     total cpu time spent up to now is      571.9 secs

     total energy              =   -1842.89194248 Ry
     Harris-Foulkes estimate   =   -1842.89194251 Ry
     estimated scf accuracy    <       0.00000120 Ry

     iteration # 27     ecut=    60.00 Ry     beta= 0.50
     Davidson diagonalization with overlap
     ethr =  5.31E-10,  avg # of iterations =  2.4

     negative rho (up, down):  1.474E-03 0.000E+00

     total cpu time spent up to now is      590.0 secs

     total energy              =   -1842.89194249 Ry
     Harris-Foulkes estimate   =   -1842.89194253 Ry
     estimated scf accuracy    <       0.00000081 Ry

     iteration # 28     ecut=    60.00 Ry     beta= 0.50
     Davidson diagonalization with overlap
     ethr =  3.56E-10,  avg # of iterations =  1.1

     negative rho (up, down):  1.515E-03 0.000E+00

     total cpu time spent up to now is      606.2 secs

     total energy              =   -1842.89194244 Ry
     Harris-Foulkes estimate   =   -1842.89194251 Ry
     estimated scf accuracy    <       0.00000062 Ry

     iteration # 29     ecut=    60.00 Ry     beta= 0.50
     Davidson diagonalization with overlap
     ethr =  2.74E-10,  avg # of iterations =  1.0

     negative rho (up, down):  1.540E-03 0.000E+00

     total cpu time spent up to now is      623.8 secs

     total energy              =   -1842.89194242 Ry
     Harris-Foulkes estimate   =   -1842.89194245 Ry
     estimated scf accuracy    <       0.00000031 Ry

     iteration # 30     ecut=    60.00 Ry     beta= 0.50
     Davidson diagonalization with overlap
     ethr =  1.37E-10,  avg # of iterations =  1.1

     negative rho (up, down):  1.540E-03 0.000E+00

     total cpu time spent up to now is      640.0 secs

     total energy              =   -1842.89194242 Ry
     Harris-Foulkes estimate   =   -1842.89194242 Ry
     estimated scf accuracy    <       0.00000016 Ry

     iteration # 31     ecut=    60.00 Ry     beta= 0.50
     Davidson diagonalization with overlap
     ethr =  6.83E-11,  avg # of iterations =  1.3

     negative rho (up, down):  1.511E-03 0.000E+00

     total cpu time spent up to now is      657.0 secs

     total energy              =   -1842.89194245 Ry
     Harris-Foulkes estimate   =   -1842.89194242 Ry
     estimated scf accuracy    <       0.00000008 Ry

     iteration # 32     ecut=    60.00 Ry     beta= 0.50
     Davidson diagonalization with overlap
     ethr =  3.53E-11,  avg # of iterations =  1.2

     negative rho (up, down):  1.499E-03 0.000E+00

     total cpu time spent up to now is      673.7 secs

     total energy              =   -1842.89194247 Ry
     Harris-Foulkes estimate   =   -1842.89194245 Ry
     estimated scf accuracy    <       0.00000001 Ry

     iteration # 33     ecut=    60.00 Ry     beta= 0.50
     Davidson diagonalization with overlap
     ethr =  5.84E-12,  avg # of iterations =  3.4

     negative rho (up, down):  1.494E-03 0.000E+00

     total cpu time spent up to now is      693.3 secs

     total energy              =   -1842.89194247 Ry
     Harris-Foulkes estimate   =   -1842.89194247 Ry
     estimated scf accuracy    <       0.00000001 Ry

     iteration # 34     ecut=    60.00 Ry     beta= 0.50
     Davidson diagonalization with overlap
     ethr =  4.60E-12,  avg # of iterations =  1.0

     negative rho (up, down):  1.494E-03 0.000E+00

     total cpu time spent up to now is      708.9 secs

     End of self-consistent calculation

          k = 0.0000 0.0000 0.0000 ( 34019 PWs)   bands (ev):

   -36.0890 -35.5007 -22.7057 -22.6593 -22.4936 -22.4415 -17.3608 -17.1159
   -17.1143 -17.0052 -16.5519 -16.5405 -15.2160 -15.1772 -14.7762 -14.7282
   -14.5859 -14.5664 -14.4864 -14.0959 -14.0954 -13.8965 -13.8910 -13.7496
   -13.7379 -13.6553 -13.5426  -7.8370  -7.7995  -7.7704  -7.7594  -7.6797
    -7.6221  -7.6065  -7.5653  -7.5400  -7.4831  -7.3710  -7.3199  -2.2445
    -2.2383  -2.1706  -1.7672  -1.7444  -1.6810  -1.6508  -1.6057  -1.5826
    -1.4531  -1.4077  -1.3975  -1.3499  -1.1354  -1.1347  -0.9802  -0.9544
    -0.7532  -0.5088  -0.3730  -0.3674  -0.3619  -0.2911  -0.2753  -0.2221
    -0.1791  -0.1691  -0.1648  -0.1601  -0.1596  -0.1289  -0.1136  -0.0834
    -0.0625   0.0036   0.0483   0.0563   0.1832   0.1843   0.1846   0.2214
     0.2325   0.2371   0.2590   0.2675   0.3584   0.3692   0.3956   0.4098
     0.5078   0.8817   0.8883   0.9674   0.9774   1.0372   1.0719   1.2683
     1.2908   1.4155   1.4321   1.4704   1.4735   1.5329   1.5666   1.5950
     1.6191   1.6196   1.6262   1.8502   1.9230   1.9829   2.1220   2.1733
     2.2389   2.2691   2.2949   2.3672   2.3777   2.6145   2.6221   5.2833
     5.3024   5.7995   6.1436   6.4851   6.8486   6.8654   7.2175   7.3887
     8.0580   8.1791   8.3440   8.4057   8.5728   8.6971   8.7343   9.1706
     9.1828

          k = 0.0000 0.1320 0.0000 ( 34015 PWs)   bands (ev):

   -36.0874 -35.4989 -22.6790 -22.6326 -22.4681 -22.4161 -17.3402 -17.1579
   -17.1123 -16.9690 -16.6130 -16.5495 -15.1273 -15.1043 -14.7304 -14.6937
   -14.5910 -14.5574 -14.4591 -14.1054 -14.1043 -13.9138 -13.9019 -13.7851
   -13.7831 -13.6992 -13.5999  -7.8365  -7.7692  -7.7516  -7.7113  -7.6804
    -7.6487  -7.6186  -7.6074  -7.4954  -7.4377  -7.4194  -7.3664  -2.3035
    -2.2863  -2.2291  -2.0900  -2.0621  -1.9864  -1.9661  -1.5799  -1.5750
    -1.5622  -1.5589  -1.5583  -1.4354  -1.3934  -1.2764  -1.2065  -1.0252
    -0.8885  -0.5648  -0.5611  -0.5412  -0.4704  -0.4605  -0.3949  -0.3750
    -0.3505  -0.2658  -0.2529  -0.2163  -0.1146  -0.0731  -0.0625  -0.0623
    -0.0232   0.0434   0.0698   0.0768   0.0839   0.0930   0.2079   0.2085
     0.2124   0.2465   0.2737   0.2770   0.3354   0.3644   0.4299   0.4550
     0.8189   0.9860   1.0404   1.1389   1.1558   1.1580   1.1646   1.1819
     1.2368   1.2749   1.3082   1.4736   1.4968   1.5325   1.5661   1.6213
     1.6394   1.6832   1.7528   1.8208   1.9116   1.9759   2.0660   2.0915
     2.1252   2.1783   2.2082   2.5995   2.8847   2.9065   2.9739   5.6702
     5.6785   6.1186   6.4033   6.6985   7.1527   7.1671   7.5422   7.6592
     8.2324   8.3693   8.5384   8.6065   8.8011   8.8295   8.9801   9.2576
     9.3403

          k = 0.0000 0.2640 0.0000 ( 33931 PWs)   bands (ev):

   -36.0834 -35.4945 -22.6131 -22.5666 -22.4052 -22.3535 -17.3131 -17.2294
   -17.1073 -16.8770 -16.7674 -16.5439 -14.9280 -14.9265 -14.6878 -14.6398
   -14.5657 -14.5240 -14.3972 -14.0927 -14.0900 -14.0119 -13.9416 -13.9076
   -13.8701 -13.7708 -13.7192  -7.8361  -7.7670  -7.7392  -7.6991  -7.6833
    -7.6312  -7.6083  -7.5904  -7.5265  -7.4657  -7.3835  -7.3238  -2.7511
    -2.7088  -2.6589  -2.5739  -2.5098  -2.3430  -2.3357  -2.1956  -2.1924
    -2.1383  -1.5799  -1.5099  -1.5047  -1.3896  -1.3790  -1.3516  -1.3323
    -0.9374  -0.9278  -0.8585  -0.7875  -0.7225  -0.7118  -0.7023  -0.5663
    -0.5315  -0.4901  -0.4816  -0.4488  -0.4259  -0.4116  -0.4101  -0.2397
    -0.2049   0.0006   0.0814   0.0981   0.1052   0.1476   0.1798   0.2381
     0.2766   0.2983   0.4580   0.4844   0.7024   0.7219   0.7823   0.7854
     1.0140   1.0535   1.0655   1.1310   1.2004   1.2213   1.2500   1.2601
     1.2647   1.2932   1.3385   1.3898   1.4179   1.4726   1.6785   1.7409
     1.7919   1.7925   1.8980   1.9985   2.0174   2.0381   2.0592   2.0630
     2.0799   2.1771   2.3161   2.7169   3.1243   3.1335   3.8160   6.5722
     6.5790   6.8856   6.9714   7.3952   7.9726   7.9776   8.3799   8.4498
     8.7260   8.7784   8.8434   8.9433   8.9690   9.0726   9.1937   9.3807
     9.4047

          k = 0.0000 0.3960 0.0000 ( 33860 PWs)   bands (ev):

   -36.0795 -35.4901 -22.5449 -22.4983 -22.3404 -22.2889 -17.3766 -17.2012
   -17.1023 -16.9037 -16.7753 -16.5382 -14.8489 -14.8476 -14.6112 -14.5971
   -14.4472 -14.3984 -14.3353 -14.1519 -14.0604 -14.0361 -14.0191 -14.0058
   -13.9904 -13.8698 -13.7935  -7.8361  -7.8173  -7.7789  -7.7644  -7.6830
    -7.6239  -7.5951  -7.5531  -7.5027  -7.4613  -7.2650  -7.2028  -3.3593
    -3.2032  -3.1520  -3.0337  -2.9737  -2.9099  -2.9076  -2.2864  -2.2817
    -2.1789  -1.9192  -1.7231  -1.6895  -1.4439  -1.4064  -1.2927  -1.2811
    -1.1635  -1.0571  -1.0338  -0.9900  -0.9646  -0.9342  -0.9010  -0.8159
    -0.7857  -0.7574  -0.7130  -0.6720  -0.6646  -0.6273  -0.6181  -0.2578
    -0.2228  -0.1231  -0.0167   0.1150   0.1227   0.1390   0.2111   0.2207
     0.2477   0.2655   0.5751   0.5819   0.8674   0.8978   0.9556   0.9884
     1.0120   1.0241   1.0453   1.0564   1.1739   1.1821   1.2210   1.2248
     1.2302   1.4751   1.6225   1.6672   1.7061   1.7077   1.7510   1.8087
     1.8348   1.8463   2.0176   2.0670   2.0685   2.0809   2.1645   2.2821
     2.3436   2.4534   2.4543   2.6276   3.0154   3.0269   4.3738   7.4892
     7.5196   7.5337   7.8609   8.3480   8.6008   8.6924   8.7658   8.7757
     9.0046   9.1761   9.1766   9.3001   9.4349   9.5013   9.5445   9.6113
     9.7794

          k = 0.0000-0.5279 0.0000 ( 33926 PWs)   bands (ev):

   -36.0779 -35.4882 -22.5160 -22.4693 -22.3129 -22.2615 -17.4118 -17.1783
   -17.1002 -16.9558 -16.7303 -16.5359 -14.8912 -14.8815 -14.4835 -14.4683
   -14.4437 -14.3940 -14.2061 -14.1634 -14.1512 -14.1239 -14.0416 -13.9888
   -13.9868 -13.9463 -13.8225  -7.8470  -7.8357  -7.8085  -7.7636  -7.6749
    -7.6642  -7.5936  -7.5867  -7.4468  -7.4051  -7.2137  -7.1504  -3.6239
    -3.3819  -3.3320  -3.2013  -3.1523  -3.1362  -3.1300  -2.3026  -2.2981
    -2.1918  -2.0474  -1.8533  -1.8231  -1.4112  -1.3557  -1.2606  -1.2490
    -1.2069  -1.1450  -1.1153  -1.0852  -1.0812  -1.0005  -0.9362  -0.9297
    -0.9182  -0.8695  -0.8247  -0.7517  -0.7509  -0.7017  -0.6899  -0.2267
    -0.2231  -0.1907  -0.0256   0.1207   0.1263   0.1285   0.2058   0.2350
     0.2567   0.2601   0.5060   0.5241   0.8411   0.9008   0.9029   0.9399
     0.9452   0.9717   1.0927   1.1083   1.2040   1.2125   1.2259   1.4014
     1.4356   1.4769   1.6046   1.6838   1.8127   1.8225   1.8570   1.8611
     1.9939   2.0985   2.1050   2.1115   2.1127   2.1176   2.1506   2.3019
     2.3302   2.5765   2.6149   2.6157   2.8356   2.8495   4.5481   7.8114
     7.9103   7.9328   8.4685   8.5253   8.6001   8.8853   8.9964   9.0603
     9.0922   9.2566   9.2794   9.3965   9.4245   9.4944   9.8175  10.0382
    10.1051

          k = 0.1250 0.0000 0.0000 ( 34005 PWs)   bands (ev):

   -36.0881 -35.4996 -22.6876 -22.6412 -22.4762 -22.4244 -17.3424 -17.1560
   -17.1148 -16.9718 -16.6322 -16.5391 -15.1138 -15.1044 -14.7860 -14.7366
   -14.6315 -14.5973 -14.4917 -14.1049 -14.1047 -13.9094 -13.9076 -13.7804
   -13.7596 -13.7105 -13.5708  -7.8627  -7.8031  -7.7378  -7.7277  -7.6899
    -7.6494  -7.5741  -7.5327  -7.4723  -7.4245  -7.3406  -7.2895  -2.2872
    -2.2767  -2.2006  -1.8252  -1.7864  -1.7399  -1.7236  -1.7220  -1.6842
    -1.6522  -1.6248  -1.3675  -1.3228  -1.1333  -1.1327  -1.0195  -0.9748
    -0.7834  -0.6170  -0.5631  -0.5185  -0.4287  -0.3966  -0.3206  -0.3090
    -0.2963  -0.2537  -0.2439  -0.2214  -0.1833  -0.1586  -0.1290  -0.1080
    -0.0703  -0.0244   0.0212   0.0435   0.1764   0.1773   0.2019   0.2389
     0.2800   0.2904   0.3112   0.3137   0.4371   0.4521   0.4674   0.5077
     0.5161   0.8765   0.8874   0.9633   0.9901   1.0557   1.1378   1.1918
     1.2742   1.3014   1.3167   1.4477   1.4823   1.4828   1.5711   1.5842
     1.6114   1.6341   1.8994   1.9788   2.0506   2.0729   2.1276   2.1317
     2.1788   2.2222   2.2956   2.3562   2.4288   2.6563   2.6572   5.4742
     5.4824   6.0236   6.3334   6.6321   7.0634   7.0740   7.4094   7.6002
     8.2061   8.3131   8.5213   8.5765   8.8079   8.8908   9.0138   9.2587
     9.3032

          k = 0.1250 0.1320 0.0000 ( 33966 PWs)   bands (ev):

   -36.0865 -35.4978 -22.6618 -22.6153 -22.4515 -22.3998 -17.3235 -17.1558
   -17.1527 -16.9367 -16.6352 -16.6023 -15.0364 -15.0322 -14.7311 -14.7100
   -14.6258 -14.5777 -14.4618 -14.1059 -14.1048 -13.9260 -13.9142 -13.8139
   -13.7976 -13.7452 -13.6185  -7.8820  -7.8314  -7.7999  -7.7431  -7.7242
    -7.6471  -7.5691  -7.5363  -7.5138  -7.4953  -7.3007  -7.2473  -2.3404
    -2.3189  -2.2512  -2.0831  -2.0487  -1.9650  -1.9463  -1.7909  -1.7653
    -1.6947  -1.6654  -1.5850  -1.5530  -1.5511  -1.2829  -1.2084  -1.0643
    -0.9140  -0.7421  -0.7147  -0.5953  -0.5625  -0.5409  -0.4829  -0.4599
    -0.4194  -0.4125  -0.4032  -0.1941  -0.1683  -0.1407  -0.1137  -0.0725
    -0.0317   0.0069   0.0533   0.0741   0.0856   0.1010   0.2244   0.2390
     0.2505   0.3005   0.3118   0.3410   0.3520   0.3781   0.6032   0.6287
     0.8093   1.0395   1.1140   1.1291   1.1390   1.2083   1.2273   1.2505
     1.2965   1.3149   1.3655   1.3766   1.3962   1.4174   1.4330   1.5868
     1.6786   1.6842   1.7469   1.7928   1.8002   1.8903   2.0992   2.3348
     2.4271   2.4904   2.5396   2.6662   2.8964   2.9119   2.9881   5.8185
     5.8208   6.2937   6.5278   6.8306   7.3589   7.3694   7.7235   7.8673
     8.3777   8.4925   8.6849   8.7487   8.9167   9.0341   9.1414   9.1952
     9.2914

          k = 0.1250 0.2640 0.0000 ( 33895 PWs)   bands (ev):

   -36.0825 -35.4934 -22.5979 -22.5513 -22.3904 -22.3390 -17.3049 -17.2216
   -17.1439 -16.8474 -16.7643 -16.6148 -14.8757 -14.8584 -14.6741 -14.6261
   -14.5774 -14.5155 -14.3917 -14.0881 -14.0838 -14.0127 -13.9633 -13.9001
   -13.8894 -13.7883 -13.7239  -7.9510  -7.9098  -7.8369  -7.7687  -7.7334
    -7.6986  -7.6403  -7.6081  -7.5269  -7.4867  -7.2948  -7.2409  -2.7734
    -2.7244  -2.6575  -2.5788  -2.5186  -2.3435  -2.3347  -2.1950  -2.1915
    -2.1497  -1.7491  -1.7156  -1.6508  -1.6183  -1.5376  -1.3996  -1.3529
    -0.9841  -0.9164  -0.9035  -0.8801  -0.8418  -0.8204  -0.7815  -0.7729
    -0.6664  -0.6083  -0.5992  -0.5207  -0.4712  -0.4228  -0.4051  -0.2434
    -0.2276  -0.0957  -0.0274   0.0322   0.0665   0.1197   0.2680   0.2904
     0.3879   0.4863   0.5823   0.6071   0.8128   0.8250   0.8639   0.8942
     0.9356   1.1050   1.1132   1.1873   1.1930   1.2549   1.3410   1.3898
     1.4027   1.4246   1.4588   1.4777   1.4978   1.5062   1.5838   1.6572
     1.7026   1.7331   1.7745   1.8040   2.0234   2.0264   2.1373   2.3508
     2.6239   2.6771   2.7674   2.8925   3.1335   3.1448   3.8167   6.6332
     6.6418   6.8772   7.0296   7.4734   8.1381   8.1447   8.5551   8.6103
     8.7219   8.8123   8.9004   8.9087   9.0411   9.1249   9.2149   9.2941
     9.4043

          k = 0.1250 0.3960 0.0000 ( 33906 PWs)   bands (ev):

   -36.0786 -35.4890 -22.5320 -22.4853 -22.3275 -22.2763 -17.3728 -17.1957
   -17.1320 -16.8985 -16.7488 -16.6062 -14.8140 -14.8140 -14.5629 -14.5233
   -14.4258 -14.3837 -14.3218 -14.1476 -14.0584 -14.0417 -14.0399 -13.9955
   -13.9880 -13.8602 -13.7885  -7.9815  -7.9423  -7.8484  -7.7781  -7.7743
    -7.7313  -7.6649  -7.6191  -7.5720  -7.5313  -7.3289  -7.2818  -3.3490
    -3.2437  -3.1865  -3.0646  -3.0022  -2.9015  -2.8992  -2.2947  -2.2886
    -2.1928  -1.8707  -1.7067  -1.6585  -1.5852  -1.5677  -1.5062  -1.4784
    -1.2470  -1.2065  -1.1597  -1.1270  -1.0914  -1.0224  -1.0077  -0.9120
    -0.8258  -0.7908  -0.7842  -0.7742  -0.7175  -0.6773  -0.6608  -0.2990
    -0.2677  -0.1568  -0.0583   0.0434   0.0688   0.1736   0.2867   0.2937
     0.4071   0.5296   0.7511   0.7712   0.8007   0.9868   0.9968   1.0528
     1.0645   1.1360   1.1618   1.1914   1.2725   1.2942   1.3160   1.3238
     1.4129   1.5594   1.6530   1.7296   1.7380   1.7681   1.8054   1.8175
     1.8874   1.9642   1.9921   2.0727   2.1542   2.4204   2.4217   2.4649
     2.5725   2.6091   2.7353   2.8159   3.0638   3.0868   4.3578   7.2246
     7.3803   7.3867   7.7408   8.2178   8.5737   8.6662   8.7487   8.7574
     9.0082   9.1968   9.2973   9.4670   9.5569   9.6351   9.6675   9.7684
     9.8998

          k = 0.1250-0.5279 0.0000 ( 33848 PWs)   bands (ev):

   -36.0769 -35.4872 -22.5040 -22.4573 -22.3009 -22.2498 -17.4081 -17.1784
   -17.1243 -16.9502 -16.7054 -16.6025 -14.8465 -14.8367 -14.4255 -14.4111
   -14.4000 -14.3561 -14.2150 -14.1755 -14.1326 -14.1041 -14.0742 -13.9877
   -13.9870 -13.9294 -13.8062  -7.9761  -7.9378  -7.8533  -7.7856  -7.7822
    -7.7190  -7.6852  -7.6222  -7.6059  -7.5647  -7.3511  -7.3074  -3.6152
    -3.4305  -3.3731  -3.2405  -3.1806  -3.1298  -3.1284  -2.3157  -2.3100
    -2.2089  -1.9474  -1.7366  -1.7037  -1.5252  -1.4612  -1.4405  -1.4295
    -1.4079  -1.3695  -1.2949  -1.2660  -1.2544  -1.1082  -1.0887  -0.9376
    -0.9204  -0.8621  -0.8520  -0.8500  -0.7794  -0.7702  -0.7636  -0.3052
    -0.2509  -0.1707  -0.0709   0.0359   0.0918   0.1960   0.2974   0.3006
     0.4059   0.5325   0.7286   0.7505   0.8127   0.9912   1.0175   1.0255
     1.0412   1.0485   1.1063   1.1147   1.3425   1.3656   1.4332   1.4335
     1.4669   1.5816   1.6191   1.8637   1.8867   1.9387   1.9829   2.0934
     2.1044   2.1176   2.1262   2.1410   2.3223   2.4311   2.4476   2.5624
     2.5858   2.5870   2.6136   2.6525   2.9299   2.9635   4.5239   7.3377
     7.5771   7.6065   7.9555   8.4026   8.5791   8.9625   9.0798   9.1463
     9.2095   9.3874   9.3903   9.5262   9.6263   9.8225   9.8254  10.1252
    10.1606

          k = 0.2500 0.0000 0.0000 ( 34032 PWs)   bands (ev):

   -36.0858 -35.4970 -22.6433 -22.5967 -22.4336 -22.3825 -17.3166 -17.2291
   -17.1119 -16.8865 -16.7964 -16.5358 -14.9477 -14.9160 -14.8466 -14.7570
   -14.7130 -14.6254 -14.5154 -14.1191 -14.1182 -13.9747 -13.9535 -13.8586
   -13.8425 -13.7900 -13.6267  -7.8644  -7.8022  -7.7884  -7.6510  -7.6333
    -7.6063  -7.4934  -7.4515  -7.3973  -7.3360  -7.2652  -7.2141  -2.4805
    -2.4411  -2.3658  -2.2538  -2.1239  -2.0836  -2.0549  -1.6629  -1.6613
    -1.5627  -1.5462  -1.3854  -1.3469  -1.1413  -1.1299  -1.1293  -1.0337
    -0.9101  -0.8645  -0.8633  -0.7020  -0.6840  -0.6317  -0.5833  -0.5688
    -0.5529  -0.4452  -0.4348  -0.3560  -0.2570  -0.2185  -0.2008  -0.1652
    -0.1567  -0.1050  -0.0863   0.0519   0.1634   0.1646   0.2702   0.2894
     0.3699   0.4092   0.4299   0.4817   0.5112   0.5434   0.5523   0.6340
     0.6900   0.7459   0.7945   1.0044   1.0170   1.1183   1.1372   1.2019
     1.3471   1.3663   1.3833   1.3937   1.4773   1.4974   1.5310   1.5442
     1.6573   1.6814   1.8614   1.9628   2.0190   2.0674   2.1168   2.1427
     2.1498   2.3163   2.4029   2.5402   2.5890   2.7644   2.7738   5.9396
     5.9431   6.5441   6.7649   7.1326   7.6355   7.6408   7.9432   8.1543
     8.5780   8.6036   8.8079   8.9789   9.2015   9.2427   9.3638   9.3783
     9.4284

          k = 0.2500 0.1320 0.0000 ( 33975 PWs)   bands (ev):

   -36.0842 -35.4952 -22.6195 -22.5729 -22.4107 -22.3597 -17.3056 -17.2203
   -17.1498 -16.8543 -16.7900 -16.6020 -14.8983 -14.8656 -14.7854 -14.7155
   -14.6638 -14.5872 -14.4799 -14.1049 -14.1035 -13.9735 -13.9545 -13.8870
   -13.8494 -13.8246 -13.6542  -7.9328  -7.8841  -7.8114  -7.7876  -7.7273
    -7.6582  -7.5835  -7.5146  -7.4597  -7.4192  -7.2292  -7.1804  -2.5309
    -2.4826  -2.4040  -2.2892  -2.1154  -2.0742  -2.0483  -2.0075  -1.9831
    -1.8984  -1.8705  -1.6076  -1.5435  -1.5434  -1.3365  -1.2838  -1.2118
    -1.0100  -0.9409  -0.9126  -0.8637  -0.8563  -0.8244  -0.7933  -0.5739
    -0.5432  -0.5234  -0.4597  -0.3967  -0.3395  -0.2584  -0.2427  -0.1353
    -0.1295  -0.0069   0.0543   0.0753   0.1171   0.1534   0.2279   0.2636
     0.2823   0.3308   0.4111   0.4156   0.6372   0.6977   0.7341   0.8598
     0.9575   0.9861   0.9959   1.0542   1.1385   1.1632   1.2670   1.2942
     1.3189   1.4064   1.4318   1.4653   1.4778   1.5205   1.5634   1.5655
     1.6181   1.6271   1.7250   1.8159   1.8499   1.8720   2.1073   2.4430
     2.7499   2.7854   2.8954   2.9438   2.9624   2.9819   3.0619   6.2008
     6.2068   6.6530   6.8688   7.2810   7.8970   7.8990   8.2163   8.3864
     8.6884   8.7120   8.8778   8.9668   9.1437   9.2023   9.2785   9.3688
     9.5220

          k = 0.2500 0.2640 0.0000 ( 33963 PWs)   bands (ev):

   -36.0803 -35.4908 -22.5608 -22.5141 -22.3543 -22.3034 -17.2978 -17.2466
   -17.1692 -16.7899 -16.7660 -16.7385 -14.7960 -14.7764 -14.6313 -14.5862
   -14.5235 -14.4873 -14.3908 -14.0798 -14.0708 -14.0254 -14.0041 -13.9354
   -13.8834 -13.8339 -13.7282  -8.1530  -8.1125  -7.9279  -7.8763  -7.8495
    -7.7807  -7.6859  -7.6231  -7.5795  -7.5398  -7.3476  -7.3025  -2.9096
    -2.8458  -2.7226  -2.6465  -2.5448  -2.3568  -2.3382  -2.2278  -2.2171
    -2.2075  -2.1315  -2.0853  -2.0435  -2.0139  -1.5234  -1.3662  -1.3501
    -1.3369  -1.2822  -1.2436  -1.1753  -0.9980  -0.9175  -0.8711  -0.7692
    -0.6760  -0.6478  -0.6195  -0.5920  -0.5130  -0.5081  -0.4839  -0.3694
    -0.3135  -0.2830  -0.2475   0.0730   0.1653   0.2150   0.3998   0.4412
     0.5809   0.6711   0.7757   0.8615   0.8828   0.9311   0.9446   1.0448
     1.0492   1.2190   1.2855   1.3436   1.3497   1.3862   1.4603   1.4692
     1.5129   1.5432   1.5509   1.5974   1.6458   1.6703   1.7073   1.7109
     1.7375   1.7744   1.8040   1.8103   1.9433   1.9475   2.2512   2.4513
     3.0717   3.0787   3.3562   3.3846   3.4681   3.5079   3.8199   6.7006
     6.7438   6.7536   7.2207   7.6737   8.4293   8.4453   8.4831   8.8193
     8.9214   8.9917   9.0969   9.1558   9.2964   9.4067   9.4265   9.5195
     9.5827

          k = 0.2500 0.3960 0.0000 ( 33940 PWs)   bands (ev):

   -36.0764 -35.4865 -22.5003 -22.4536 -22.2963 -22.2456 -17.3641 -17.2517
   -17.1283 -16.8865 -16.7543 -16.6801 -14.7328 -14.7328 -14.4536 -14.3844
   -14.3604 -14.3536 -14.2846 -14.1473 -14.1289 -14.0402 -14.0116 -13.9796
   -13.9561 -13.8398 -13.7816  -8.2730  -8.2341  -8.0503  -8.0034  -7.8998
    -7.8394  -7.7935  -7.7443  -7.7266  -7.6747  -7.5407  -7.5060  -3.4114
    -3.3540  -3.2974  -3.1795  -3.1155  -2.8808  -2.8790  -2.3664  -2.3472
    -2.2594  -2.1134  -2.0465  -1.9964  -1.9616  -1.7584  -1.6994  -1.6321
    -1.5653  -1.4682  -1.3630  -1.3196  -1.1775  -1.0774  -1.0283  -0.8972
    -0.8429  -0.7751  -0.7237  -0.7172  -0.7081  -0.6971  -0.5977  -0.4930
    -0.4552  -0.3588  -0.3335   0.1769   0.2544   0.2878   0.4482   0.5149
     0.7121   0.8821   0.9041   1.0637   1.0684   1.0909   1.1308   1.3273
     1.3474   1.3507   1.3848   1.4100   1.4337   1.5250   1.5872   1.6230
     1.6520   1.6930   1.7261   1.7939   1.8269   1.8628   1.8702   1.9095
     1.9786   2.0073   2.0646   2.1345   2.1904   2.3421   2.3445   2.5032
     2.9036   2.9106   3.5859   3.6009   3.7102   3.7442   4.3152   6.5763
     6.9444   6.9521   7.3985   7.8374   8.7032   8.8706   8.8852   8.9397
     9.1486   9.2386   9.5560   9.7312   9.7613   9.8198   9.8913   9.9882
    10.0719

          k = 0.2500-0.5279 0.0000 ( 33964 PWs)   bands (ev):

   -36.0748 -35.4846 -22.4748 -22.4280 -22.2718 -22.2212 -17.3992 -17.2470
   -17.1085 -16.9366 -16.7488 -16.6405 -14.7295 -14.7200 -14.3155 -14.3003
   -14.2784 -14.2670 -14.2614 -14.1820 -14.1390 -14.0883 -14.0511 -13.9823
   -13.9811 -13.8929 -13.7722  -8.2732  -8.2351  -8.0695  -8.0100  -7.9880
    -7.9447  -7.8597  -7.7928  -7.7816  -7.7401  -7.6045  -7.5883  -3.6269
    -3.5841  -3.5180  -3.3743  -3.3096  -3.1084  -3.1070  -2.3737  -2.3573
    -2.2689  -2.0555  -2.0055  -1.9485  -1.9186  -1.9104  -1.8539  -1.7759
    -1.7034  -1.5139  -1.3922  -1.3447  -1.2435  -1.1607  -1.1238  -0.9364
    -0.9173  -0.8529  -0.8014  -0.7815  -0.7300  -0.7142  -0.6030  -0.5062
    -0.4683  -0.3863  -0.3634   0.1963   0.2863   0.3219   0.4713   0.5514
     0.7413   0.9411   1.0105   1.1182   1.1540   1.1661   1.1756   1.2808
     1.2864   1.3399   1.4197   1.4566   1.5300   1.5774   1.5855   1.6067
     1.6740   1.8091   1.8430   1.9170   1.9965   2.0433   2.0646   2.0790
     2.1043   2.1265   2.1628   2.2467   2.3016   2.5177   2.5200   2.5448
     2.6819   2.6904   3.6056   3.6169   3.7433   3.7790   4.4576   6.4852
     6.9053   6.9162   7.3818   7.8064   8.8271   9.0164   9.1577   9.3226
     9.4422   9.6035   9.6532   9.8100   9.9116   9.9308   9.9512   9.9905
    10.1423

          k = 0.3750 0.0000 0.0000 ( 33964 PWs)   bands (ev):

   -36.0836 -35.4943 -22.5979 -22.5512 -22.3901 -22.3396 -17.3713 -17.2110
   -17.1091 -16.9363 -16.7912 -16.5325 -14.9669 -14.9606 -14.9285 -14.6333
   -14.5789 -14.5667 -14.5150 -14.1328 -14.1280 -14.0886 -14.0579 -13.9452
   -13.9301 -13.8309 -13.6679  -7.8471  -7.8123  -7.7777  -7.5966  -7.5861
    -7.5459  -7.4090  -7.3666  -7.3460  -7.2917  -7.1866  -7.1355  -2.8080
    -2.7539  -2.6888  -2.6224  -2.2465  -2.2340  -2.1203  -1.5794  -1.5579
    -1.4967  -1.4614  -1.4204  -1.4179  -1.2554  -1.1342  -1.1311  -1.1310
    -1.1060  -1.0557  -0.9574  -0.9333  -0.8766  -0.8271  -0.8118  -0.7961
    -0.7556  -0.6454  -0.6353  -0.5072  -0.3606  -0.3291  -0.3037  -0.1781
    -0.1526  -0.1454  -0.0991   0.0011   0.1505   0.1518   0.2572   0.2791
     0.3055   0.4883   0.5036   0.5048   0.5113   0.5247   0.5573   0.5743
     0.6327   0.8352   0.8720   0.9544   1.0612   1.2195   1.2692   1.2753
     1.3162   1.3447   1.4274   1.4366   1.5875   1.6189   1.6211   1.7123
     1.7397   1.7946   1.8392   1.8983   1.9014   1.9931   2.0114   2.2000
     2.2314   2.3296   2.4576   2.6323   2.7048   2.8776   2.8902   6.5893
     6.5964   6.9107   7.4305   7.8560   8.0843   8.0938   8.3951   8.5629
     8.7420   8.8190   9.0742   9.2723   9.4088   9.4236   9.5729   9.5797
     9.6327

          k = 0.3750 0.1320 0.0000 ( 33991 PWs)   bands (ev):

   -36.0820 -35.4926 -22.5762 -22.5294 -22.3690 -22.3186 -17.3653 -17.2035
   -17.1408 -16.9277 -16.7621 -16.5970 -14.9180 -14.9122 -14.8591 -14.5883
   -14.5319 -14.5253 -14.4547 -14.1036 -14.1023 -14.0688 -14.0386 -13.9678
   -13.9191 -13.8648 -13.6779  -7.9043  -7.8471  -7.8326  -7.7494  -7.6972
    -7.6321  -7.5261  -7.4987  -7.4706  -7.4579  -7.2765  -7.2288  -2.8697
    -2.8097  -2.7340  -2.6659  -2.2453  -2.2314  -2.1250  -1.9618  -1.9307
    -1.8145  -1.7825  -1.6132  -1.5321  -1.5319  -1.3961  -1.3655  -1.3419
    -1.2281  -1.1675  -1.1552  -1.1103  -1.0592  -0.9639  -0.8333  -0.7134
    -0.7082  -0.6004  -0.5559  -0.4648  -0.4366  -0.3336  -0.3274  -0.1860
    -0.1837  -0.0415   0.0270   0.0753   0.1259   0.1771   0.2627   0.2642
     0.3192   0.3284   0.5239   0.5260   0.5761   0.7524   0.7797   0.8466
     0.8778   0.9856   1.0525   1.0843   1.2301   1.2473   1.2682   1.3208
     1.3677   1.4118   1.4446   1.4507   1.6236   1.6445   1.6634   1.7381
     1.7457   1.7932   1.8217   1.8791   1.8892   1.9189   1.9771   2.4160
     2.8279   2.8424   2.9692   3.0268   3.0772   3.1767   3.2393   6.7381
     6.7472   6.8053   7.4581   7.9032   8.1498   8.1622   8.3196   8.5842
     8.9555   8.9958   9.1124   9.3515   9.3827   9.5244   9.5839   9.6561
     9.7236

          k = 0.3750 0.2640 0.0000 ( 33991 PWs)   bands (ev):

   -36.0781 -35.4882 -22.5229 -22.4761 -22.3175 -22.2671 -17.3512 -17.2634
   -17.1335 -16.9073 -16.7413 -16.6870 -14.7931 -14.7900 -14.6665 -14.4770
   -14.4302 -14.4098 -14.3060 -14.0666 -14.0623 -14.0449 -14.0295 -14.0058
   -13.9061 -13.8678 -13.7222  -8.2057  -8.1649  -7.9858  -7.9326  -7.8842
    -7.8255  -7.7619  -7.7294  -7.7131  -7.6341  -7.5322  -7.4958  -3.1852
    -3.1140  -2.9717  -2.9056  -2.5317  -2.4169  -2.3794  -2.3204  -2.2969
    -2.2881  -2.2706  -2.1661  -2.1596  -2.1094  -1.6948  -1.6764  -1.5471
    -1.5281  -1.4523  -1.1722  -1.1413  -0.9739  -0.8890  -0.8427  -0.8140
    -0.7908  -0.7575  -0.7034  -0.6385  -0.5642  -0.5632  -0.5275  -0.4578
    -0.4007  -0.2940  -0.2874   0.1181   0.1998   0.3564   0.5168   0.5473
     0.7079   0.7814   0.8464   0.9076   0.9144   1.0913   1.0959   1.1348
     1.2532   1.2829   1.3111   1.3366   1.4655   1.4861   1.5026   1.5280
     1.6738   1.6813   1.7194   1.7387   1.7570   1.8018   1.8204   1.8336
     1.8436   1.8674   1.8903   1.9152   1.9340   1.9794   2.2205   2.3916
     3.0723   3.0781   3.7720   3.8118   3.8448   3.9007   3.9484   6.4417
     6.7839   6.7919   7.2967   7.7277   8.4539   8.4899   8.5799   8.9205
     9.2536   9.3975   9.4963   9.5098   9.5941   9.6420   9.7652   9.8478
     9.8881

          k = 0.3750 0.3960 0.0000 ( 33993 PWs)   bands (ev):

   -36.0742 -35.4839 -22.4682 -22.4215 -22.2646 -22.2143 -17.3563 -17.3331
   -17.0909 -16.8900 -16.8681 -16.6072 -14.6550 -14.6524 -14.4141 -14.3575
   -14.3338 -14.2737 -14.1490 -14.1427 -14.1382 -14.0239 -13.9956 -13.9807
   -13.9011 -13.8236 -13.7898  -8.4715  -8.4327  -8.2484  -8.2007  -8.1365
    -8.0979  -7.9126  -7.8866  -7.8175  -7.8079  -7.7578  -7.6111  -3.6650
    -3.5882  -3.4211  -3.3542  -3.2426  -2.8601  -2.8589  -2.5470  -2.5137
    -2.4321  -2.3840  -2.1947  -2.1812  -2.1148  -2.0075  -1.9848  -1.7878
    -1.7546  -1.5445  -1.1809  -1.1258  -1.1214  -1.1193  -1.0628  -0.8758
    -0.8622  -0.8504  -0.8068  -0.7806  -0.7576  -0.7062  -0.6772  -0.6089
    -0.5217  -0.3112  -0.3075   0.2568   0.3501   0.4063   0.6656   0.7438
     0.9692   1.1002   1.1352   1.2429   1.2481   1.3185   1.3744   1.4379
     1.4494   1.5111   1.5687   1.5785   1.6103   1.6137   1.6752   1.7899
     1.8361   1.8519   1.8584   1.9211   1.9814   1.9958   2.0401   2.0615
     2.0862   2.1154   2.1748   2.2537   2.2637   2.2783   2.3155   2.5208
     2.8925   2.9001   4.2212   4.3257   4.3609   4.3886   4.4227   6.0041
     6.4807   6.4846   7.0528   7.4624   8.9729   9.0403   9.0608   9.1296
     9.2836   9.5207   9.5894   9.6082   9.6433   9.7206   9.7302   9.8392
     9.9064

          k = 0.3750-0.5279 0.0000 ( 34004 PWs)   bands (ev):

   -36.0726 -35.4821 -22.4452 -22.3984 -22.2424 -22.1921 -17.3904 -17.3297
   -17.0717 -16.9233 -16.8774 -16.5718 -14.5937 -14.5859 -14.3210 -14.3127
   -14.2104 -14.2020 -14.1925 -14.1779 -14.0606 -14.0369 -13.9779 -13.9742
   -13.9732 -13.8657 -13.7556  -8.5535  -8.5154  -8.3431  -8.2881  -8.2817
    -8.2441  -8.0703  -7.9127  -7.8957  -7.8421  -7.7948  -7.6268  -3.8720
    -3.7944  -3.6371  -3.5639  -3.4845  -3.0854  -3.0845  -2.5655  -2.5312
    -2.4464  -2.3925  -2.1890  -2.1750  -2.1150  -2.1135  -2.0903  -1.8776
    -1.8361  -1.5666  -1.2570  -1.2253  -1.1931  -1.1521  -1.1230  -0.8996
    -0.8924  -0.8733  -0.8695  -0.8517  -0.8466  -0.7954  -0.7035  -0.6337
    -0.4902  -0.2969  -0.2931   0.2911   0.3864   0.4221   0.7244   0.8325
     1.0454   1.2356   1.3002   1.3517   1.3652   1.3875   1.4094   1.4364
     1.4623   1.5844   1.6359   1.6596   1.6982   1.7954   1.8220   1.8559
     1.8758   1.9091   1.9415   2.0151   2.1120   2.1196   2.1391   2.1986
     2.2270   2.2718   2.3354   2.3741   2.4394   2.4544   2.4981   2.5855
     2.6482   2.6591   4.3113   4.4637   4.5137   4.5385   4.5702   5.8111
     6.3031   6.3060   6.9706   7.3717   8.9180   9.0758   9.1684   9.2456
     9.4225   9.4578   9.6129   9.6860   9.7003   9.7776   9.8703   9.9566
    10.0578

          k =-0.5000 0.0000 0.0000 ( 33930 PWs)   bands (ev):

   -36.0826 -35.4933 -22.5787 -22.5319 -22.3717 -22.3215 -17.4040 -17.1908
   -17.1079 -16.9887 -16.7490 -16.5311 -15.0189 -15.0141 -14.9651 -14.6153
   -14.5730 -14.4379 -14.3018 -14.2359 -14.2069 -14.1156 -14.1127 -13.9762
   -13.9758 -13.8434 -13.6816  -7.8370  -7.8141  -7.7647  -7.5772  -7.5630
    -7.5254  -7.3728  -7.3303  -7.3302  -7.2812  -7.1531  -7.1019  -2.9500
    -2.8948  -2.8285  -2.7674  -2.2714  -2.2624  -2.1199  -1.5682  -1.5330
    -1.5318  -1.4967  -1.3200  -1.2921  -1.2810  -1.2433  -1.1375  -1.1348
    -1.1348  -1.1343  -1.0908  -1.0299  -0.9929  -0.9327  -0.9097  -0.8182
    -0.7772  -0.7289  -0.7191  -0.5772  -0.4224  -0.3754  -0.3257  -0.1929
    -0.1443  -0.1322  -0.1033  -0.0749   0.1452   0.1465   0.2256   0.2764
     0.2807   0.4879   0.4880   0.4985   0.5139   0.5225   0.5277   0.5723
     0.6468   0.8619   0.8864   0.9343   1.0058   1.2189   1.2251   1.2923
     1.4442   1.4553   1.4822   1.5172   1.5651   1.6762   1.7185   1.7237
     1.7388   1.7449   1.8455   1.9493   1.9548   1.9720   2.0429   2.2163
     2.2405   2.3193   2.4621   2.6280   2.7232   2.9023   2.9273   7.0466
     7.3619   7.3824   7.4127   7.4140   7.9892   8.2180   8.3568   8.6315
     9.0248   9.1025   9.1386   9.4239   9.5073   9.5413   9.6801   9.7044
     9.8806

          k =-0.5000 0.1320 0.0000 ( 33986 PWs)   bands (ev):

   -36.0810 -35.4915 -22.5579 -22.5112 -22.3516 -22.3013 -17.3979 -17.1887
   -17.1344 -16.9795 -16.7215 -16.5948 -14.9608 -14.9567 -14.8915 -14.5721
   -14.5336 -14.3978 -14.2616 -14.1780 -14.1724 -14.0933 -14.0908 -13.9986
   -13.9456 -13.8809 -13.6850  -7.8755  -7.8294  -7.8071  -7.6924  -7.6551
    -7.6027  -7.5757  -7.5312  -7.4576  -7.3960  -7.3679  -7.3137  -3.0181
    -2.9569  -2.8816  -2.8188  -2.2764  -2.2660  -2.1363  -1.9310  -1.8951
    -1.7653  -1.7262  -1.6047  -1.5269  -1.5266  -1.4291  -1.4096  -1.3969
    -1.3427  -1.2743  -1.2556  -1.2167  -1.0746  -0.9943  -0.8496  -0.7846
    -0.7775  -0.6128  -0.5660  -0.5041  -0.4529  -0.3700  -0.3643  -0.2075
    -0.2056  -0.0681   0.0125   0.0800   0.1344   0.1772   0.2648   0.2655
     0.3153   0.4339   0.4352   0.5993   0.5995   0.6755   0.7236   0.8272
     0.8633   0.9856   1.0713   1.1071   1.1785   1.2529   1.2665   1.3643
     1.3699   1.4138   1.5031   1.5407   1.6629   1.7179   1.7209   1.7670
     1.8015   1.8257   1.8338   1.9160   1.9622   1.9870   2.0069   2.3901
     2.8343   2.8412   2.9791   3.0448   3.0942   3.2236   3.2930   6.8433
     7.2095   7.2296   7.6677   7.7168   7.8815   8.1716   8.2618   8.5651
     9.2901   9.3427   9.3810   9.5042   9.5566   9.6299   9.6673   9.8473
     9.8845

          k =-0.5000 0.2640 0.0000 ( 33976 PWs)   bands (ev):

   -36.0772 -35.4872 -22.5070 -22.4602 -22.3020 -22.2518 -17.3833 -17.2612
   -17.1157 -16.9575 -16.7380 -16.6505 -14.8088 -14.8044 -14.6868 -14.4673
   -14.4389 -14.3001 -14.1600 -14.0991 -14.0810 -14.0528 -14.0413 -14.0403
   -13.9475 -13.8711 -13.7165  -8.1445  -8.1001  -7.9936  -7.9567  -7.9508
    -7.8650  -7.8253  -7.7645  -7.7586  -7.7350  -7.6543  -7.5647  -3.3234
    -3.2513  -3.1122  -3.0512  -2.5228  -2.4423  -2.4048  -2.3414  -2.3099
    -2.2962  -2.2863  -2.1739  -2.1697  -2.1163  -1.8234  -1.7947  -1.6268
    -1.5800  -1.5308  -1.0929  -1.0517  -0.9350  -0.8840  -0.8797  -0.8415
    -0.8024  -0.7929  -0.7462  -0.6649  -0.5894  -0.5879  -0.5280  -0.4778
    -0.4047  -0.3099  -0.3047   0.1361   0.2123   0.4058   0.5737   0.5890
     0.7511   0.8199   0.9135   0.9362   0.9381   1.1576   1.1749   1.1815
     1.2574   1.2745   1.2817   1.2849   1.4667   1.5190   1.5584   1.5955
     1.6802   1.6873   1.7806   1.7874   1.8145   1.8294   1.8469   1.8841
     1.8997   1.9426   1.9663   1.9978   2.0326   2.0715   2.1086   2.3350
     3.0653   3.0710   3.7896   3.9489   3.9685   4.0301   4.0779   6.3222
     6.7797   6.7941   7.2478   7.6603   8.5155   8.5275   8.6667   9.1085
     9.3406   9.4699   9.5461   9.6743   9.7128   9.8350   9.8890   9.9299
     9.9818

          k =-0.5000 0.3960 0.0000 ( 33992 PWs)   bands (ev):

   -36.0733 -35.4828 -22.4548 -22.4080 -22.2514 -22.2012 -17.3690 -17.3504
   -17.0738 -16.9359 -16.8672 -16.5749 -14.6259 -14.6202 -14.4195 -14.3729
   -14.3410 -14.2040 -14.1354 -14.1273 -14.0527 -14.0184 -13.9923 -13.9911
   -13.8877 -13.8216 -13.7952  -8.5197  -8.4805  -8.3039  -8.2816  -8.2491
    -8.2450  -8.0670  -7.9032  -7.8917  -7.8338  -7.8235  -7.6148  -3.7952
    -3.7167  -3.5356  -3.4724  -3.2439  -2.8516  -2.8506  -2.6168  -2.5847
    -2.4974  -2.4560  -2.2111  -2.2020  -2.1288  -2.1176  -2.0728  -1.8565
    -1.7845  -1.5982  -1.1495  -1.1346  -1.0986  -1.0222  -1.0041  -0.9617
    -0.9385  -0.8381  -0.8028  -0.7998  -0.7696  -0.7557  -0.6963  -0.6841
    -0.5014  -0.2731  -0.2693   0.2809   0.3717   0.4635   0.7701   0.8403
     1.0734   1.2138   1.2166   1.3597   1.3656   1.3845   1.4086   1.4712
     1.4906   1.5241   1.6311   1.6461   1.6471   1.6736   1.7111   1.8330
     1.8376   1.8973   1.9431   1.9609   2.0281   2.0794   2.0931   2.1309
     2.1477   2.1615   2.2294   2.2333   2.3018   2.3724   2.4420   2.4678
     2.8802   2.8886   4.2226   4.5907   4.6046   4.6372   4.6659   5.7843
     6.2848   6.2928   6.9144   7.3117   8.9413   9.0090   9.0594   9.2121
     9.3325   9.4678   9.5253   9.7136   9.7182   9.7892   9.7950   9.8419
     9.9468

          k =-0.5000-0.5279 0.0000 ( 34028 PWs)   bands (ev):

   -36.0717 -35.4811 -22.4328 -22.3860 -22.2300 -22.1799 -17.3868 -17.3631
   -17.0553 -16.9270 -16.9178 -16.5414 -14.5281 -14.5222 -14.3532 -14.3468
   -14.1923 -14.1806 -14.1596 -14.1550 -14.0095 -13.9921 -13.9693 -13.9685
   -13.9513 -13.8473 -13.7660  -8.6657  -8.6274  -8.4540  -8.4003  -8.3977
    -8.3611  -8.1912  -7.9842  -7.9312  -7.8617  -7.8400  -7.6319  -4.0037
    -3.9235  -3.7397  -3.6733  -3.5050  -3.0759  -3.0752  -2.6492  -2.6163
    -2.5242  -2.4819  -2.2121  -2.2012  -2.1921  -2.1603  -2.1285  -1.9315
    -1.8513  -1.6194  -1.2638  -1.2498  -1.1488  -1.0856  -1.0674  -0.9371
    -0.9132  -0.8970  -0.8955  -0.8736  -0.8719  -0.7965  -0.7885  -0.7129
    -0.4578  -0.2443  -0.2413   0.3184   0.4098   0.4777   0.8481   0.9633
     1.1798   1.3169   1.4320   1.4485   1.4488   1.4595   1.4886   1.4924
     1.5168   1.6668   1.6779   1.7219   1.7242   1.7589   1.9104   1.9411
     1.9764   1.9970   2.0519   2.0864   2.1393   2.1499   2.2145   2.2345
     2.2808   2.3019   2.4234   2.4257   2.4785   2.5153   2.6176   2.6235
     2.6360   2.6378   4.3106   4.7833   4.8077   4.8477   4.8680   5.5522
     6.0576   6.0632   6.8205   7.2083   8.9238   9.0083   9.1161   9.1407
     9.1855   9.2240   9.5398   9.6337   9.6591   9.6913   9.7940   9.9189
    10.0971

     the Fermi energy is     2.6527 ev

!    total energy              =   -1842.89194247 Ry
     Harris-Foulkes estimate   =   -1842.89194248 Ry
     estimated scf accuracy    <          2.2E-09 Ry

     The total energy is the sum of the following terms:

     one-electron contribution =  -30711.09457895 Ry
     hartree contribution      =   15509.24657176 Ry
     xc contribution           =    -621.75469686 Ry
     ewald contribution        =   13980.71884708 Ry
     smearing contrib. (-TS)   =      -0.00808550 Ry

     convergence has been achieved in  34 iterations

     negative rho (up, down):  1.494E-03 0.000E+00

     Forces acting on atoms (cartesian axes, Ry/au):

     atom    1 type  4   force =     0.00000000    0.00000000   -0.00013861
     atom    2 type  3   force =     0.00000000    0.00000000    0.00038642
     atom    3 type  4   force =     0.00000000    0.00000000   -0.00075139
     atom    4 type  1   force =     0.00000000    0.00000000   -0.00027571
     atom    5 type  3   force =     0.00000000    0.00000000    0.00051756
     atom    6 type  4   force =     0.00000000    0.00000000   -0.00001531
     atom    7 type  4   force =     0.00000000    0.00000000    0.00034520
     atom    8 type  2   force =     0.00000000    0.00000000   -0.00058814
     atom    9 type  4   force =     0.00000000    0.00000000    0.00023403
     atom   10 type  4   force =     0.00000000    0.00000000    0.00018272
     atom   11 type  3   force =     0.00000000    0.00000000    0.00023527
     atom   12 type  1   force =     0.00000000    0.00000000    0.00024556
     atom   13 type  4   force =     0.00000000    0.00000000    0.00131469
     atom   14 type  4   force =     0.00000000    0.00000000    0.00050261
     atom   15 type  3   force =     0.00000000    0.00000000   -0.00085996
     atom   16 type  4   force =     0.00000000    0.00000000   -0.00055668
     atom   17 type  1   force =     0.00000000    0.00000000   -0.00318747
     atom   18 type  3   force =     0.00000000    0.00000000    0.00062920
     atom   19 type  4   force =     0.00000000    0.00000000    0.01186523
     atom   20 type  4   force =     0.00000000    0.00000000    0.01338001
     atom   21 type  2   force =     0.00000000    0.00000000    0.02042901
     atom   22 type  4   force =     0.00000000    0.00000000   -0.01614639
     atom   23 type  4   force =     0.00000000    0.00000000   -0.01456245
     atom   24 type  3   force =     0.00000000    0.00000000   -0.00559995
     atom   25 type  1   force =     0.00000000    0.00000000   -0.00812389
     atom   26 type  4   force =     0.00000000    0.00000000    0.00080057
     atom   27 type  3   force =     0.00000000    0.00000000   -0.00053395
     atom   28 type  4   force =     0.00000000    0.00000000    0.00027181

     Total force =     0.036381     Total SCF correction =     0.000211


     Computing stress (Cartesian axis) and pressure


     negative rho (up, down):  1.494E-03 0.000E+00
          total   stress  (Ry/bohr**3)                   (kbar)     P=       -3.46
  -0.00000793   0.00000000   0.00000000           -1.17        0.00        0.00
   0.00000000  -0.00000390   0.00000000            0.00       -0.57        0.00
   0.00000000   0.00000000  -0.00005881            0.00        0.00       -8.65

 
     init_run     :     10.09s CPU     10.59s WALL (       1 calls)
     electrons    :    660.39s CPU    697.33s WALL (       1 calls)
     forces       :      4.75s CPU      5.13s WALL (       1 calls)
     stress       :     25.94s CPU     26.83s WALL (       1 calls)

     Called by init_run:
     wfcinit      :      6.99s CPU      7.13s WALL (       1 calls)
     potinit      :      0.75s CPU      0.77s WALL (       1 calls)
     hinit0       :      1.02s CPU      1.03s WALL (       1 calls)

     Called by electrons:
     c_bands      :    518.93s CPU    534.20s WALL (      34 calls)
     sum_band     :     95.90s CPU    107.95s WALL (      34 calls)
     v_of_rho     :      3.69s CPU      3.74s WALL (      35 calls)
     newd         :     21.71s CPU     31.34s WALL (      35 calls)
     mix_rho      :     20.93s CPU     21.10s WALL (      34 calls)

     Called by c_bands:
     init_us_2    :      3.28s CPU      3.32s WALL (    1775 calls)
     cegterg      :    492.19s CPU    506.88s WALL (     850 calls)

     Called by sum_band:
     sum_band:bec :      0.23s CPU      0.23s WALL (     850 calls)
     addusdens    :     17.60s CPU     28.80s WALL (      34 calls)

     Called by *egterg:
     h_psi        :    240.45s CPU    249.40s WALL (    4134 calls)
     s_psi        :     20.15s CPU     20.47s WALL (    4134 calls)
     g_psi        :      0.63s CPU      0.63s WALL (    3259 calls)
     cdiaghg      :    131.96s CPU    132.54s WALL (    4109 calls)

     Called by h_psi:
     h_psi:calbec :     27.97s CPU     29.06s WALL (    4134 calls)
     vloc_psi     :    189.87s CPU    192.89s WALL (    4134 calls)
     add_vuspsi   :     21.43s CPU     24.22s WALL (    4134 calls)

     General routines
     calbec       :     52.00s CPU     53.18s WALL (    5109 calls)
     fft          :      3.49s CPU      3.51s WALL (     478 calls)
     ffts         :     11.13s CPU     11.23s WALL (   14670 calls)
     fftw         :    223.31s CPU    226.65s WALL (  609694 calls)
     interpolate  :      0.23s CPU      0.23s WALL (      35 calls)
 
     Parallel routines
     fft_scatt_xy :     22.26s CPU     22.59s WALL (  624842 calls)
     fft_scatt_yz :    158.63s CPU    160.89s WALL (  624842 calls)
 
     PWSCF        :  11m42.12s CPU  12m20.88s WALL

 
   This run was terminated on:  22:43:10  21May2021            

=------------------------------------------------------------------------------=
   JOB DONE.
=------------------------------------------------------------------------------=
[1621651390.469127] [holy7c06108:22429:0]          mpool.c:43   UCX  WARN  object 0x2ef40c0 was not returned to mpool ucp_requests
[1621651390.469147] [holy7c06108:22429:0]          mpool.c:43   UCX  WARN  object 0x2ef4600 was not returned to mpool ucp_requests
[1621651390.471154] [holy7c06205:60098:0]          mpool.c:43   UCX  WARN  object 0x301da40 was not returned to mpool ucp_requests
[1621651390.472736] [holy7c04410:158868:0]          mpool.c:43   UCX  WARN  object 0x476db00 was not returned to mpool ucp_requests
[1621651390.476291] [holy7c06201:114565:0]          mpool.c:43   UCX  WARN  object 0x4440840 was not returned to mpool ucp_requests
[1621651390.474880] [holy7c04504:247849:0]          mpool.c:43   UCX  WARN  object 0x4447740 was not returned to mpool ucp_requests
[1621651390.477513] [holy7c06203:109483:0]          mpool.c:43   UCX  WARN  object 0x3868fc0 was not returned to mpool ucp_requests
[1621651390.477532] [holy7c06203:109483:0]          mpool.c:43   UCX  WARN  object 0x3869340 was not returned to mpool ucp_requests
[1621651390.485038] [holy7c04503:55930:0]          mpool.c:43   UCX  WARN  object 0x33d7980 was not returned to mpool ucp_requests
[1621651390.490817] [holy7c06302:230076:0]          mpool.c:43   UCX  WARN  object 0x2d58bc0 was not returned to mpool ucp_requests
