
     Program PWSCF v.6.5 starts on 21May2021 at 23: 8:37 

     This program is part of the open-source Quantum ESPRESSO suite
     for quantum simulation of materials; please cite
         "P. Giannozzi et al., J. Phys.:Condens. Matter 21 395502 (2009);
         "P. Giannozzi et al., J. Phys.:Condens. Matter 29 465901 (2017);
          URL http://www.quantum-espresso.org", 
     in publications or presentations arising from this work. More details at
     http://www.quantum-espresso.org/quote

     Parallel version (MPI), running on    20 processors

     MPI processes distributed on    11 nodes
     R & G space division:  proc/nbgrp/npool/nimage =      20
     Reading input from CBCO_BaO_cleave_0.75_sep.pwi
Warning: card &IONS ignored
Warning: card     ION_DYNAMICS = 'BFGS' ignored
Warning: card / ignored
Warning: card &CELL ignored
Warning: card     CELL_DYNAMICS = 'BFGS' ignored
Warning: card     PRESS_CONV_THR = 5 ignored
Warning: card / ignored

     Current dimensions of program PWSCF are:
     Max number of different atomic species (ntypx) = 10
     Max number of k-points (npk) =  40000
     Max angular momentum in pseudopotentials (lmaxx) =  3

     Subspace diagonalization in iterative solution of the eigenvalue problem:
     one sub-group per band group will be used
     scalapack distributed-memory algorithm (size of sub-group:  4*  4 procs)

     Message from routine setup:
     using ibrav=0 with symmetry is DISCOURAGED, use correct ibrav instead
 
     Parallelization info
     --------------------
     sticks:   dense  smooth     PW     G-vecs:    dense   smooth      PW
     Min         149      50     14                71365    13742    2148
     Max         150      51     15                71404    13765    2191
     Sum        2991    1007    289              1427725   274999   43215
 


     bravais-lattice index     =            0
     lattice parameter (alat)  =       7.4270  a.u.
     unit-cell volume          =    4376.3515 (a.u.)^3
     number of atoms/cell      =           28
     number of atomic types    =            4
     number of electrons       =       227.00
     number of Kohn-Sham states=          137
     kinetic-energy cutoff     =      60.0000  Ry
     charge density cutoff     =     720.0000  Ry
     convergence threshold     =      1.0E-08
     mixing beta               =       0.5000
     number of iterations used =           10  local-TF  mixing
     Exchange-correlation= SLA PW PBE PBE
                           (   1   4   3   4   0   0   0)

     celldm(1)=   7.427040  celldm(2)=   0.000000  celldm(3)=   0.000000
     celldm(4)=   0.000000  celldm(5)=   0.000000  celldm(6)=   0.000000

     crystal axes: (cart. coord. in units of alat)
               a(1) = (   1.000000   0.000000   0.000000 )  
               a(2) = (   0.000000   0.947081   0.000000 )  
               a(3) = (   0.000000   0.000000  11.279186 )  

     reciprocal axes: (cart. coord. in units 2 pi/alat)
               b(1) = (  1.000000  0.000000  0.000000 )  
               b(2) = (  0.000000  1.055876  0.000000 )  
               b(3) = (  0.000000  0.000000  0.088659 )  


     PseudoPot. # 1 for Ba read from file:
     ./pseudo/Ba.pbe-nsp-van.UPF
     MD5 check sum: 2b9c31dd849566dd297d80989662b7a0
     Pseudo is Ultrasoft + core correction, Zval = 10.0
     Generated by new atomic code, or converted to UPF format
     Using radial grid of  907 points,  6 beta functions with: 
                l(1) =   0
                l(2) =   0
                l(3) =   1
                l(4) =   1
                l(5) =   2
                l(6) =   2
     Q(r) pseudized with  6 coefficients,  rinner =    1.200   1.200   1.200
                                                       1.200   1.200

     PseudoPot. # 2 for Ca read from file:
     ./pseudo/Ca.pbe-nsp-van.UPF
     MD5 check sum: 6471098428ff4fa451746d08035ff179
     Pseudo is Ultrasoft + core correction, Zval = 10.0
     Generated by new atomic code, or converted to UPF format
     Using radial grid of  845 points,  6 beta functions with: 
                l(1) =   0
                l(2) =   0
                l(3) =   1
                l(4) =   1
                l(5) =   2
                l(6) =   2
     Q(r) pseudized with  6 coefficients,  rinner =    1.200   1.200   1.200
                                                       1.200   1.200

     PseudoPot. # 3 for Cu read from file:
     ./pseudo/Cu.pbe-n-van_ak.UPF
     MD5 check sum: 34e3282627ffb533726feb647e090d62
     Pseudo is Ultrasoft + core correction, Zval = 11.0
     Generated by new atomic code, or converted to UPF format
     Using radial grid of  867 points,  6 beta functions with: 
                l(1) =   0
                l(2) =   0
                l(3) =   1
                l(4) =   1
                l(5) =   2
                l(6) =   2
     Q(r) pseudized with  8 coefficients,  rinner =    1.400   1.400   1.400
                                                       1.400   1.400

     PseudoPot. # 4 for O  read from file:
     ./pseudo/O.pbe-van_ak.UPF
     MD5 check sum: 783ce7fe4c79b6a4916957118fed0856
     Pseudo is Ultrasoft, Zval =  6.0
     Generated by new atomic code, or converted to UPF format
     Using radial grid of  737 points,  4 beta functions with: 
                l(1) =   0
                l(2) =   0
                l(3) =   1
                l(4) =   1
     Q(r) pseudized with  8 coefficients,  rinner =    0.800   0.800   0.800


     atomic species   valence    mass     pseudopotential
        Ba            10.00   137.32700     Ba( 1.00)
        Ca            10.00    40.07800     Ca( 1.00)
        Cu            11.00    63.54600     Cu( 1.00)
        O              6.00    15.99900     O ( 1.00)

      4 Sym. Ops. (no inversion) found



   Cartesian axes

     site n.     atom                  positions (alat units)
         1           O   tau(   1) = (   0.0000000   0.4735409  -0.0469745  )
         2           Cu  tau(   2) = (   0.0000000   0.0000000   0.0264565  )
         3           O   tau(   3) = (   0.0000000   0.0000000   0.5030914  )
         4           Ba  tau(   4) = (   0.5000000   0.4735409   0.5690292  )
         5           Cu  tau(   5) = (   0.0000000   0.0000000   1.0374254  )
         6           O   tau(   6) = (   0.5000000   0.0000000   1.0768099  )
         7           O   tau(   7) = (   0.0000000   0.4735409   1.1116985  )
         8           Ca  tau(   8) = (   0.5000000   0.4735409   1.4976260  )
         9           O   tau(   9) = (   0.0000000   0.4735409   1.8667529  )
        10           O   tau(  10) = (   0.5000000   0.0000000   1.9044124  )
        11           Cu  tau(  11) = (   0.0000000   0.0000000   1.9512546  )
        12           Ba  tau(  12) = (   0.5000000   0.4735409   2.4295764  )
        13           O   tau(  13) = (   0.0000000   0.0000000   2.5115362  )
        14           O   tau(  14) = (   0.0000000   0.4735409   2.9918528  )
        15           Cu  tau(  15) = (   0.0000000   0.0000000   2.9919088  )
        16           O   tau(  16) = (   0.0000000   0.0000000   3.4722686  )
        17           Ba  tau(  17) = (   0.5000000   0.4735409   3.5542208  )
        18           Cu  tau(  18) = (   0.0000000   0.0000000   4.2233538  )
        19           O   tau(  19) = (   0.5000000   0.0000000   4.2701959  )
        20           O   tau(  20) = (   0.0000000   0.4735409   4.3078503  )
        21           Ca  tau(  21) = (   0.5000000   0.4735409   4.6769874  )
        22           O   tau(  22) = (   0.0000000   0.4735409   5.0629123  )
        23           O   tau(  23) = (   0.5000000   0.0000000   5.0978010  )
        24           Cu  tau(  24) = (   0.0000000   0.0000000   5.1371881  )
        25           Ba  tau(  25) = (   0.5000000   0.4735409   5.6055817  )
        26           O   tau(  26) = (   0.0000000   0.0000000   5.6715093  )
        27           Cu  tau(  27) = (   0.0000000   0.0000000   6.1481493  )
        28           O   tau(  28) = (   0.0000000   0.4735409   6.2215676  )

     number of k points=    25  Gaussian smearing, width (Ry)=  0.0100
                       cart. coord. in units 2pi/alat
        k(    1) = (   0.0000000   0.0000000   0.0000000), wk =   0.0312500
        k(    2) = (   0.0000000   0.1319845   0.0000000), wk =   0.0625000
        k(    3) = (   0.0000000   0.2639689   0.0000000), wk =   0.0625000
        k(    4) = (   0.0000000   0.3959534   0.0000000), wk =   0.0625000
        k(    5) = (   0.0000000  -0.5279378   0.0000000), wk =   0.0312500
        k(    6) = (   0.1250000   0.0000000   0.0000000), wk =   0.0625000
        k(    7) = (   0.1250000   0.1319845   0.0000000), wk =   0.1250000
        k(    8) = (   0.1250000   0.2639689   0.0000000), wk =   0.1250000
        k(    9) = (   0.1250000   0.3959534   0.0000000), wk =   0.1250000
        k(   10) = (   0.1250000  -0.5279378   0.0000000), wk =   0.0625000
        k(   11) = (   0.2500000   0.0000000   0.0000000), wk =   0.0625000
        k(   12) = (   0.2500000   0.1319845   0.0000000), wk =   0.1250000
        k(   13) = (   0.2500000   0.2639689   0.0000000), wk =   0.1250000
        k(   14) = (   0.2500000   0.3959534   0.0000000), wk =   0.1250000
        k(   15) = (   0.2500000  -0.5279378   0.0000000), wk =   0.0625000
        k(   16) = (   0.3750000   0.0000000   0.0000000), wk =   0.0625000
        k(   17) = (   0.3750000   0.1319845   0.0000000), wk =   0.1250000
        k(   18) = (   0.3750000   0.2639689   0.0000000), wk =   0.1250000
        k(   19) = (   0.3750000   0.3959534   0.0000000), wk =   0.1250000
        k(   20) = (   0.3750000  -0.5279378   0.0000000), wk =   0.0625000
        k(   21) = (  -0.5000000   0.0000000   0.0000000), wk =   0.0312500
        k(   22) = (  -0.5000000   0.1319845   0.0000000), wk =   0.0625000
        k(   23) = (  -0.5000000   0.2639689   0.0000000), wk =   0.0625000
        k(   24) = (  -0.5000000   0.3959534   0.0000000), wk =   0.0625000
        k(   25) = (  -0.5000000  -0.5279378   0.0000000), wk =   0.0312500

     Dense  grid:  1427725 G-vectors     FFT dimensions: (  64,  64, 720)

     Smooth grid:   274999 G-vectors     FFT dimensions: (  40,  36, 432)

     Estimated max dynamical RAM per process >     455.52 MB

     Estimated total dynamical RAM >       8.90 GB

     Initial potential from superposition of free atoms

     starting charge  226.84630, renormalised to  227.00000

     negative rho (up, down):  3.473E-03 0.000E+00
     Starting wfcs are  195 randomized atomic wfcs

     total cpu time spent up to now is        9.4 secs

     Self-consistent Calculation

     iteration #  1     ecut=    60.00 Ry     beta= 0.50
     Davidson diagonalization with overlap
     ethr =  1.00E-02,  avg # of iterations =  2.0

     negative rho (up, down):  4.828E-04 0.000E+00

     total cpu time spent up to now is       24.6 secs

     total energy              =   -1840.93067792 Ry
     Harris-Foulkes estimate   =   -1845.35116982 Ry
     estimated scf accuracy    <      17.61296606 Ry

     iteration #  2     ecut=    60.00 Ry     beta= 0.50
     Davidson diagonalization with overlap
     ethr =  7.76E-03,  avg # of iterations =  2.0

     negative rho (up, down):  2.529E-04 0.000E+00

     total cpu time spent up to now is       39.6 secs

     total energy              =   -1842.51547453 Ry
     Harris-Foulkes estimate   =   -1843.26934984 Ry
     estimated scf accuracy    <       5.32467188 Ry

     iteration #  3     ecut=    60.00 Ry     beta= 0.50
     Davidson diagonalization with overlap
     ethr =  2.35E-03,  avg # of iterations =  1.2

     negative rho (up, down):  2.355E-04 0.000E+00

     total cpu time spent up to now is       53.6 secs

     total energy              =   -1842.85009124 Ry
     Harris-Foulkes estimate   =   -1843.00019736 Ry
     estimated scf accuracy    <       2.82681795 Ry

     iteration #  4     ecut=    60.00 Ry     beta= 0.50
     Davidson diagonalization with overlap
     ethr =  1.25E-03,  avg # of iterations =  1.0

     negative rho (up, down):  2.303E-04 0.000E+00

     total cpu time spent up to now is       67.4 secs

     total energy              =   -1842.86496558 Ry
     Harris-Foulkes estimate   =   -1842.93450572 Ry
     estimated scf accuracy    <       0.43225974 Ry

     iteration #  5     ecut=    60.00 Ry     beta= 0.50
     Davidson diagonalization with overlap
     ethr =  1.90E-04,  avg # of iterations =  5.6

     negative rho (up, down):  2.289E-04 0.000E+00

     total cpu time spent up to now is       88.3 secs

     total energy              =   -1842.90194375 Ry
     Harris-Foulkes estimate   =   -1842.91244309 Ry
     estimated scf accuracy    <       1.08768385 Ry

     iteration #  6     ecut=    60.00 Ry     beta= 0.50
     Davidson diagonalization with overlap
     ethr =  1.90E-04,  avg # of iterations =  1.0

     negative rho (up, down):  2.259E-04 0.000E+00

     total cpu time spent up to now is      102.2 secs

     total energy              =   -1842.88911992 Ry
     Harris-Foulkes estimate   =   -1842.90633794 Ry
     estimated scf accuracy    <       0.60776673 Ry

     iteration #  7     ecut=    60.00 Ry     beta= 0.50
     Davidson diagonalization with overlap
     ethr =  1.90E-04,  avg # of iterations =  1.0

     negative rho (up, down):  2.257E-04 0.000E+00

     total cpu time spent up to now is      116.1 secs

     total energy              =   -1842.88812163 Ry
     Harris-Foulkes estimate   =   -1842.89669702 Ry
     estimated scf accuracy    <       1.13615332 Ry

     iteration #  8     ecut=    60.00 Ry     beta= 0.50
     Davidson diagonalization with overlap
     ethr =  1.90E-04,  avg # of iterations =  1.0

     negative rho (up, down):  2.255E-04 0.000E+00

     total cpu time spent up to now is      129.9 secs

     total energy              =   -1842.88359766 Ry
     Harris-Foulkes estimate   =   -1842.89178470 Ry
     estimated scf accuracy    <       0.64145426 Ry

     iteration #  9     ecut=    60.00 Ry     beta= 0.50
     Davidson diagonalization with overlap
     ethr =  1.90E-04,  avg # of iterations =  1.0

     negative rho (up, down):  2.250E-04 0.000E+00

     total cpu time spent up to now is      143.7 secs

     total energy              =   -1842.88062089 Ry
     Harris-Foulkes estimate   =   -1842.88618189 Ry
     estimated scf accuracy    <       0.23748253 Ry

     iteration # 10     ecut=    60.00 Ry     beta= 0.50
     Davidson diagonalization with overlap
     ethr =  1.05E-04,  avg # of iterations =  2.3

     negative rho (up, down):  2.258E-04 0.000E+00

     total cpu time spent up to now is      158.9 secs

     total energy              =   -1842.87685275 Ry
     Harris-Foulkes estimate   =   -1842.88211369 Ry
     estimated scf accuracy    <       0.11695381 Ry

     iteration # 11     ecut=    60.00 Ry     beta= 0.50
     Davidson diagonalization with overlap
     ethr =  5.15E-05,  avg # of iterations =  6.5

     negative rho (up, down):  2.261E-04 0.000E+00

     total cpu time spent up to now is      179.2 secs

     total energy              =   -1842.87637204 Ry
     Harris-Foulkes estimate   =   -1842.87804586 Ry
     estimated scf accuracy    <       0.05530254 Ry

     iteration # 12     ecut=    60.00 Ry     beta= 0.50
     Davidson diagonalization with overlap
     c_bands:  1 eigenvalues not converged
     ethr =  2.44E-05,  avg # of iterations =  5.1

     negative rho (up, down):  2.264E-04 0.000E+00

     total cpu time spent up to now is      197.5 secs

     total energy              =   -1842.87523342 Ry
     Harris-Foulkes estimate   =   -1842.87671541 Ry
     estimated scf accuracy    <       0.03945335 Ry

     iteration # 13     ecut=    60.00 Ry     beta= 0.50
     Davidson diagonalization with overlap
     ethr =  1.74E-05,  avg # of iterations =  3.4

     negative rho (up, down):  2.749E-03 0.000E+00

     total cpu time spent up to now is      213.8 secs

     total energy              =   -1842.87378101 Ry
     Harris-Foulkes estimate   =   -1842.87540457 Ry
     estimated scf accuracy    <       0.02999664 Ry

     iteration # 14     ecut=    60.00 Ry     beta= 0.50
     Davidson diagonalization with overlap
     ethr =  1.32E-05,  avg # of iterations =  4.3

     negative rho (up, down):  8.535E-03 0.000E+00

     total cpu time spent up to now is      231.2 secs

     total energy              =   -1842.87308179 Ry
     Harris-Foulkes estimate   =   -1842.87399119 Ry
     estimated scf accuracy    <       0.02936944 Ry

     iteration # 15     ecut=    60.00 Ry     beta= 0.50
     Davidson diagonalization with overlap
     ethr =  1.29E-05,  avg # of iterations =  5.0

     negative rho (up, down):  1.949E-02 0.000E+00

     total cpu time spent up to now is      249.4 secs

     total energy              =   -1842.87192185 Ry
     Harris-Foulkes estimate   =   -1842.87318421 Ry
     estimated scf accuracy    <       0.03156420 Ry

     iteration # 16     ecut=    60.00 Ry     beta= 0.50
     Davidson diagonalization with overlap
     ethr =  1.29E-05,  avg # of iterations =  6.4

     negative rho (up, down):  2.403E-02 0.000E+00

     total cpu time spent up to now is      269.6 secs

     total energy              =   -1842.87125025 Ry
     Harris-Foulkes estimate   =   -1842.87205229 Ry
     estimated scf accuracy    <       0.02064185 Ry

     iteration # 17     ecut=    60.00 Ry     beta= 0.50
     Davidson diagonalization with overlap
     ethr =  9.09E-06,  avg # of iterations =  5.2

     negative rho (up, down):  2.100E-02 0.000E+00

     total cpu time spent up to now is      288.3 secs

     total energy              =   -1842.87047821 Ry
     Harris-Foulkes estimate   =   -1842.87132236 Ry
     estimated scf accuracy    <       0.01396650 Ry

     iteration # 18     ecut=    60.00 Ry     beta= 0.50
     Davidson diagonalization with overlap
     ethr =  6.15E-06,  avg # of iterations =  8.0

     negative rho (up, down):  1.909E-02 0.000E+00

     total cpu time spent up to now is      310.7 secs

     total energy              =   -1842.87023069 Ry
     Harris-Foulkes estimate   =   -1842.87057795 Ry
     estimated scf accuracy    <       0.00564186 Ry

     iteration # 19     ecut=    60.00 Ry     beta= 0.50
     Davidson diagonalization with overlap
     ethr =  2.49E-06,  avg # of iterations =  9.2

     negative rho (up, down):  8.485E-03 0.000E+00

     total cpu time spent up to now is      335.0 secs

     total energy              =   -1842.86996709 Ry
     Harris-Foulkes estimate   =   -1842.87027371 Ry
     estimated scf accuracy    <       0.00194790 Ry

     iteration # 20     ecut=    60.00 Ry     beta= 0.50
     Davidson diagonalization with overlap
     c_bands:  1 eigenvalues not converged
     c_bands:  1 eigenvalues not converged
     ethr =  8.58E-07,  avg # of iterations =  7.6

     negative rho (up, down):  5.311E-03 0.000E+00

     total cpu time spent up to now is      356.9 secs

     total energy              =   -1842.86998786 Ry
     Harris-Foulkes estimate   =   -1842.87001983 Ry
     estimated scf accuracy    <       0.00048660 Ry

     iteration # 21     ecut=    60.00 Ry     beta= 0.50
     Davidson diagonalization with overlap
     c_bands:  1 eigenvalues not converged
     ethr =  2.14E-07,  avg # of iterations =  6.9

     negative rho (up, down):  2.121E-03 0.000E+00

     total cpu time spent up to now is      377.5 secs

     total energy              =   -1842.86997309 Ry
     Harris-Foulkes estimate   =   -1842.87000180 Ry
     estimated scf accuracy    <       0.00014561 Ry

     iteration # 22     ecut=    60.00 Ry     beta= 0.50
     Davidson diagonalization with overlap
     c_bands:  1 eigenvalues not converged
     ethr =  6.41E-08,  avg # of iterations =  8.8

     negative rho (up, down):  1.379E-03 0.000E+00

     total cpu time spent up to now is      400.6 secs

     total energy              =   -1842.86999842 Ry
     Harris-Foulkes estimate   =   -1842.86997611 Ry
     estimated scf accuracy    <       0.00004851 Ry

     iteration # 23     ecut=    60.00 Ry     beta= 0.50
     Davidson diagonalization with overlap
     c_bands:  1 eigenvalues not converged
     ethr =  2.14E-08,  avg # of iterations =  5.6

     negative rho (up, down):  1.412E-03 0.000E+00

     total cpu time spent up to now is      419.8 secs

     total energy              =   -1842.87000153 Ry
     Harris-Foulkes estimate   =   -1842.87000114 Ry
     estimated scf accuracy    <       0.00002115 Ry

     iteration # 24     ecut=    60.00 Ry     beta= 0.50
     Davidson diagonalization with overlap
     ethr =  9.32E-09,  avg # of iterations =  1.3

     negative rho (up, down):  1.356E-03 0.000E+00

     total cpu time spent up to now is      433.8 secs

     total energy              =   -1842.87000225 Ry
     Harris-Foulkes estimate   =   -1842.87000211 Ry
     estimated scf accuracy    <       0.00000923 Ry

     iteration # 25     ecut=    60.00 Ry     beta= 0.50
     Davidson diagonalization with overlap
     ethr =  4.06E-09,  avg # of iterations =  1.6

     negative rho (up, down):  1.401E-03 0.000E+00

     total cpu time spent up to now is      448.4 secs

     total energy              =   -1842.87000241 Ry
     Harris-Foulkes estimate   =   -1842.87000259 Ry
     estimated scf accuracy    <       0.00000388 Ry

     iteration # 26     ecut=    60.00 Ry     beta= 0.50
     Davidson diagonalization with overlap
     ethr =  1.71E-09,  avg # of iterations =  1.3

     negative rho (up, down):  1.523E-03 0.000E+00

     total cpu time spent up to now is      462.4 secs

     total energy              =   -1842.87000234 Ry
     Harris-Foulkes estimate   =   -1842.87000251 Ry
     estimated scf accuracy    <       0.00000161 Ry

     iteration # 27     ecut=    60.00 Ry     beta= 0.50
     Davidson diagonalization with overlap
     ethr =  7.11E-10,  avg # of iterations =  2.1

     negative rho (up, down):  1.529E-03 0.000E+00

     total cpu time spent up to now is      477.2 secs

     total energy              =   -1842.87000238 Ry
     Harris-Foulkes estimate   =   -1842.87000241 Ry
     estimated scf accuracy    <       0.00000070 Ry

     iteration # 28     ecut=    60.00 Ry     beta= 0.50
     Davidson diagonalization with overlap
     ethr =  3.08E-10,  avg # of iterations =  1.8

     negative rho (up, down):  1.538E-03 0.000E+00

     total cpu time spent up to now is      491.7 secs

     total energy              =   -1842.87000238 Ry
     Harris-Foulkes estimate   =   -1842.87000240 Ry
     estimated scf accuracy    <       0.00000030 Ry

     iteration # 29     ecut=    60.00 Ry     beta= 0.50
     Davidson diagonalization with overlap
     ethr =  1.33E-10,  avg # of iterations =  1.9

     negative rho (up, down):  1.518E-03 0.000E+00

     total cpu time spent up to now is      506.5 secs

     total energy              =   -1842.87000241 Ry
     Harris-Foulkes estimate   =   -1842.87000239 Ry
     estimated scf accuracy    <       0.00000011 Ry

     iteration # 30     ecut=    60.00 Ry     beta= 0.50
     Davidson diagonalization with overlap
     ethr =  4.83E-11,  avg # of iterations =  2.8

     negative rho (up, down):  1.526E-03 0.000E+00

     total cpu time spent up to now is      522.4 secs

     total energy              =   -1842.87000240 Ry
     Harris-Foulkes estimate   =   -1842.87000242 Ry
     estimated scf accuracy    <       0.00000004 Ry

     iteration # 31     ecut=    60.00 Ry     beta= 0.50
     Davidson diagonalization with overlap
     ethr =  1.64E-11,  avg # of iterations =  2.5

     negative rho (up, down):  1.521E-03 0.000E+00

     total cpu time spent up to now is      537.6 secs

     End of self-consistent calculation

          k = 0.0000 0.0000 0.0000 ( 34429 PWs)   bands (ev):

   -35.5812 -35.4683 -23.2589 -22.7849 -22.7847 -22.5361 -17.0857 -16.9502
   -16.6323 -16.6210 -16.5293 -16.5151 -15.2960 -15.2028 -14.8713 -14.6654
   -14.6585 -14.5667 -14.4126 -14.1754 -14.1732 -13.9760 -13.9560 -13.8193
   -13.7009 -13.5886 -13.4965  -8.4846  -8.1629  -8.0456  -7.9163  -7.9147
    -7.8787  -7.8787  -7.7193  -7.6857  -7.6855  -7.5806  -7.4139  -2.3246
    -2.3237  -2.0736  -1.8234  -1.8209  -1.7600  -1.6626  -1.6339  -1.5882
    -1.5349  -1.4760  -1.4570  -1.3275  -1.2158  -1.2143  -1.0796  -0.8627
    -0.6562  -0.6216  -0.4537  -0.4524  -0.3743  -0.3700  -0.3004  -0.2903
    -0.2598  -0.2585  -0.2474  -0.2397  -0.1914  -0.1889  -0.1608  -0.1414
    -0.1250  -0.1216  -0.0326  -0.0308   0.1037   0.1051   0.1051   0.1076
     0.1625   0.1792   0.2043   0.3143   0.3245   0.3307   0.3763   0.3792
     0.5557   0.6285   0.7931   0.8872   0.8880   0.9494   0.9752   1.1887
     1.2276   1.3546   1.3631   1.3796   1.4062   1.4504   1.5218   1.5230
     1.6866   1.7827   1.8180   1.8312   1.9249   1.9480   1.9801   2.0239
     2.0452   2.1040   2.1399   2.2537   2.2624   2.5327   2.5416   5.2066
     5.2234   5.4971   6.1433   6.1849   6.6418   6.7707   6.7885   7.1799
     7.9445   7.9936   8.1363   8.2989   8.3702   8.5887   8.6278   8.8810
     9.0966

          k = 0.0000 0.1320 0.0000 ( 34389 PWs)   bands (ev):

   -35.5794 -35.4665 -23.2372 -22.7582 -22.7580 -22.5106 -17.0495 -16.9138
   -16.6936 -16.6300 -16.5871 -16.5269 -15.2072 -15.1200 -14.8157 -14.6706
   -14.6585 -14.5394 -14.3824 -14.1849 -14.1812 -13.9813 -13.9704 -13.8652
   -13.7461 -13.6150 -13.5615  -8.4740  -8.1242  -8.0927  -7.9158  -7.9146
    -7.8309  -7.8309  -7.7284  -7.7273  -7.7159  -7.5356  -7.4618  -2.3821
    -2.3816  -2.1846  -2.1501  -2.1163  -2.0095  -1.9105  -1.6978  -1.6422
    -1.6396  -1.6384  -1.6164  -1.5172  -1.3360  -1.3108  -1.2927  -1.1197
    -0.6671  -0.6367  -0.6214  -0.5661  -0.5512  -0.5497  -0.5263  -0.4567
    -0.4545  -0.3333  -0.2154  -0.2024  -0.1795  -0.1562  -0.1431  -0.1418
    -0.0867  -0.0560  -0.0114  -0.0094   0.0125   0.0473   0.1276   0.1285
     0.1633   0.1835   0.2553   0.2842   0.3236   0.3749   0.3822   0.4731
     0.6805   0.7528   0.9275   1.0404   1.0535   1.0850   1.0852   1.1466
     1.1587   1.1922   1.3947   1.3998   1.4243   1.5153   1.5206   1.5358
     1.6590   1.6740   1.7688   1.7884   1.8170   1.9233   1.9557   1.9862
     2.0130   2.0472   2.2187   2.4015   2.7853   2.8211   2.8564   5.5921
     5.5991   5.8144   6.4554   6.5204   6.8799   7.0745   7.0860   7.4669
     8.1338   8.1751   8.3106   8.4724   8.5919   8.6703   8.7930   8.9992
     9.1910

          k = 0.0000 0.2640 0.0000 ( 34275 PWs)   bands (ev):

   -35.5750 -35.4621 -23.1838 -22.6923 -22.6921 -22.4479 -16.9574 -16.8479
   -16.8212 -16.7403 -16.6243 -16.5213 -15.0072 -14.9481 -14.7197 -14.6842
   -14.6676 -14.4781 -14.3092 -14.1722 -14.1613 -14.0207 -14.0132 -13.9924
   -13.8204 -13.7389 -13.6654  -8.4464  -8.1940  -8.0278  -7.9154  -7.9146
    -7.8184  -7.8179  -7.7115  -7.7105  -7.7104  -7.5655  -7.4224  -2.8275
    -2.8167  -2.7244  -2.6013  -2.4604  -2.4224  -2.4214  -2.2764  -2.2750
    -2.0671  -1.6431  -1.5882  -1.5675  -1.4717  -1.4610  -1.4490  -1.2596
    -0.9782  -0.9496  -0.9261  -0.8023  -0.8017  -0.7932  -0.6452  -0.6390
    -0.5569  -0.5304  -0.5147  -0.4934  -0.4911  -0.4809  -0.4033  -0.3129
    -0.2110  -0.0951   0.0169   0.0189   0.0832   0.1003   0.1119   0.2187
     0.2521   0.3810   0.4282   0.4318   0.6222   0.6954   0.7066   0.7201
     0.8241   0.8898   0.9750   1.0365   1.1257   1.1541   1.1699   1.1707
     1.1845   1.2002   1.2741   1.3035   1.3607   1.5778   1.6129   1.6236
     1.6514   1.7160   1.7614   1.9329   1.9473   1.9779   1.9796   1.9887
     2.0495   2.1133   2.3425   2.5287   3.0426   3.0477   3.6876   6.4918
     6.4927   6.5435   7.2167   7.3148   7.6283   7.8946   7.9008   8.0420
     8.3409   8.6502   8.7299   8.7657   8.9385   8.9716   9.0816   9.2477
     9.3949

          k = 0.0000 0.3960 0.0000 ( 34242 PWs)   bands (ev):

   -35.5706 -35.4577 -23.1290 -22.6242 -22.6239 -22.3831 -16.9842 -16.8754
   -16.8557 -16.7196 -16.6187 -16.5156 -14.9282 -14.9222 -14.6775 -14.6023
   -14.5018 -14.4224 -14.2586 -14.1470 -14.1001 -14.0992 -14.0874 -14.0338
   -13.9376 -13.8724 -13.7494  -8.4085  -8.2891  -7.9267  -7.9153  -7.9146
    -7.8966  -7.8960  -7.7062  -7.6559  -7.5820  -7.5819  -7.3024  -3.4546
    -3.2824  -3.2782  -3.0529  -2.9930  -2.9893  -2.9007  -2.3668  -2.3657
    -2.0912  -1.9826  -1.8048  -1.7946  -1.5231  -1.5025  -1.3727  -1.1922
    -1.1907  -1.1637  -1.1393  -1.0698  -1.0668  -0.9564  -0.8547  -0.8307
    -0.8267  -0.7444  -0.7407  -0.7346  -0.7015  -0.5805  -0.5329  -0.3264
    -0.2779  -0.1128  -0.0713   0.0339   0.0359   0.1304   0.1327   0.1744
     0.2169   0.4495   0.4989   0.5561   0.7240   0.7855   0.8016   0.8978
     0.9068   0.9312   0.9338   0.9694   1.0216   1.0947   1.1405   1.1417
     1.1710   1.3473   1.4703   1.5567   1.6238   1.6289   1.7295   1.7542
     1.7679   1.8496   1.9437   1.9544   1.9831   2.0242   2.1393   2.2528
     2.3113   2.3728   2.3739   2.4785   2.9350   2.9421   4.2651   7.1918
     7.4389   7.4401   7.6137   8.2607   8.3620   8.5740   8.6038   8.6869
     8.7005   9.0959   9.0968   9.1347   9.1882   9.3504   9.4591   9.5011
     9.5893

          k = 0.0000-0.5279 0.0000 ( 34286 PWs)   bands (ev):

   -35.5688 -35.4558 -23.1060 -22.5952 -22.5950 -22.3557 -17.0364 -16.9272
   -16.8107 -16.6747 -16.6163 -16.5133 -14.9705 -14.9656 -14.5628 -14.5024
   -14.4901 -14.3112 -14.2780 -14.2294 -14.1222 -14.0745 -14.0664 -14.0516
   -13.9752 -13.9083 -13.8170  -8.3692  -8.3480  -7.9262  -7.9257  -7.9149
    -7.9141  -7.8834  -7.6975  -7.6964  -7.5261  -7.5260  -7.2504  -3.7228
    -3.4610  -3.4576  -3.2315  -3.2234  -3.2091  -3.0704  -2.3829  -2.3819
    -2.1092  -2.0998  -1.9350  -1.9267  -1.4907  -1.4661  -1.3348  -1.2839
    -1.2228  -1.2172  -1.1946  -1.1920  -1.1031  -1.0424  -0.9640  -0.9439
    -0.9334  -0.8324  -0.8312  -0.8271  -0.7767  -0.6576  -0.5276  -0.2924
    -0.2580  -0.1553  -0.1211   0.0396   0.0415   0.1297   0.1389   0.1796
     0.2144   0.4262   0.4485   0.5046   0.6681   0.6891   0.8185   0.8341
     0.8616   0.9366   0.9711   1.0168   1.0371   1.1235   1.1247   1.2982
     1.3520   1.3949   1.4666   1.5093   1.7358   1.7432   1.7487   1.7902
     2.0190   2.0247   2.0269   2.0710   2.0930   2.1592   2.1672   2.1716
     2.1909   2.4689   2.5343   2.5354   2.7556   2.7644   4.4508   7.2626
     7.8522   7.8528   8.0083   8.1939   8.9258   8.9335   8.9680   8.9769
     9.0120   9.0489   9.1041   9.3131   9.3261   9.3951   9.6146   9.6838
     9.8789

          k = 0.1250 0.0000 0.0000 ( 34399 PWs)   bands (ev):

   -35.5801 -35.4672 -23.2445 -22.7669 -22.7666 -22.5188 -17.0523 -16.9162
   -16.7125 -16.6197 -16.6101 -16.5137 -15.1937 -15.1075 -14.8894 -14.7111
   -14.6989 -14.5718 -14.4149 -14.1844 -14.1826 -13.9878 -13.9695 -13.8401
   -13.7509 -13.6006 -13.5387  -8.5118  -8.1104  -8.0199  -7.9420  -7.9408
    -7.8169  -7.8167  -7.7512  -7.6533  -7.6530  -7.5201  -7.3835  -2.3670
    -2.3664  -2.1067  -1.8653  -1.8607  -1.8010  -1.7966  -1.7916  -1.7313
    -1.6030  -1.5649  -1.4457  -1.4114  -1.2137  -1.2122  -1.0972  -0.8895
    -0.7528  -0.6622  -0.6181  -0.5972  -0.5108  -0.5076  -0.3762  -0.3358
    -0.3330  -0.3234  -0.2783  -0.2625  -0.2423  -0.2244  -0.1964  -0.1948
    -0.1765  -0.1150  -0.0448   0.0614   0.0964   0.0978   0.1245   0.1684
     0.2009   0.2010   0.2234   0.2717   0.2991   0.3841   0.4285   0.4713
     0.6366   0.7641   0.7978   0.8082   0.8897   0.9906   1.0278   1.1898
     1.2089   1.2181   1.3614   1.3711   1.4023   1.4400   1.4918   1.5336
     1.5917   1.8503   1.8819   1.8825   1.9161   1.9734   1.9962   2.0070
     2.0929   2.1350   2.1842   2.2496   2.3108   2.5720   2.5765   5.3964
     5.4030   5.7017   6.3845   6.4228   6.7953   6.9833   6.9949   7.3937
     8.0741   8.1273   8.2691   8.4472   8.5842   8.7844   8.8468   9.0612
     9.2620

          k = 0.1250 0.1320 0.0000 ( 34364 PWs)   bands (ev):

   -35.5783 -35.4654 -23.2233 -22.7410 -22.7408 -22.4941 -17.0171 -16.8808
   -16.7156 -16.6828 -16.6122 -16.5773 -15.1123 -15.0341 -14.8319 -14.7054
   -14.6881 -14.5420 -14.3793 -14.1853 -14.1832 -13.9933 -13.9853 -13.8798
   -13.7854 -13.6239 -13.5900  -8.4876  -8.2421  -7.9613  -7.9608  -7.9557
    -7.8792  -7.8785  -7.7462  -7.6166  -7.6152  -7.6129  -7.3430  -2.4189
    -2.4177  -2.1940  -2.1351  -2.1102  -1.9962  -1.8981  -1.8442  -1.8385
    -1.7658  -1.7044  -1.6337  -1.6325  -1.5750  -1.3398  -1.2845  -1.1540
    -0.7996  -0.7865  -0.7327  -0.6725  -0.6668  -0.5609  -0.5443  -0.5268
    -0.4969  -0.4961  -0.4201  -0.2612  -0.2291  -0.2000  -0.1838  -0.1290
    -0.0694  -0.0487  -0.0181   0.0084   0.0164   0.1176   0.1568   0.1656
     0.1957   0.2264   0.2739   0.2931   0.3036   0.3448   0.5242   0.6166
     0.6493   0.9015   1.0006   1.0409   1.0427   1.1193   1.1368   1.2206
     1.2329   1.2437   1.2850   1.3019   1.3161   1.4212   1.5713   1.5963
     1.6405   1.6633   1.6700   1.6794   1.7261   1.7427   2.0534   2.1349
     2.3496   2.3530   2.5361   2.6091   2.8003   2.8291   2.8641   5.7382
     5.7413   5.9703   6.6491   6.7097   7.0220   7.2793   7.2863   7.6639
     8.1754   8.2934   8.4303   8.6073   8.7394   8.7718   8.9538   9.1399
     9.2407

          k = 0.1250 0.2640 0.0000 ( 34297 PWs)   bands (ev):

   -35.5739 -35.4610 -23.1713 -22.6771 -22.6769 -22.4332 -16.9279 -16.8448
   -16.7911 -16.7375 -16.6952 -16.5927 -14.9379 -14.8961 -14.7060 -14.6782
   -14.6611 -14.4726 -14.2923 -14.1676 -14.1611 -14.0428 -14.0326 -13.9833
   -13.8358 -13.7359 -13.6666  -8.4449  -8.3780  -8.0303  -8.0300  -7.9528
    -7.9161  -7.9155  -7.7582  -7.7110  -7.6062  -7.6061  -7.3378  -2.8505
    -2.8376  -2.7139  -2.6116  -2.4664  -2.4229  -2.4216  -2.2757  -2.2744
    -2.0807  -1.7952  -1.7921  -1.7278  -1.6181  -1.5258  -1.4769  -1.4593
    -1.0360  -0.9863  -0.9795  -0.9552  -0.9149  -0.8593  -0.7700  -0.7280
    -0.6879  -0.6874  -0.5621  -0.5437  -0.5335  -0.4938  -0.4649  -0.3143
    -0.2294  -0.1243  -0.0409  -0.0332  -0.0146   0.1173   0.1965   0.2191
     0.3661   0.4140   0.5040   0.5727   0.6807   0.7493   0.7532   0.8040
     0.9189   1.0135   1.0267   1.0759   1.1081   1.1827   1.2827   1.3124
     1.3416   1.3442   1.3797   1.3845   1.4089   1.5008   1.5525   1.5891
     1.6351   1.6453   1.6492   1.8550   1.9419   1.9453   1.9942   2.2555
     2.5467   2.5506   2.7652   2.8310   3.0535   3.0616   3.6897   6.5525
     6.5537   6.5689   7.2972   7.3933   7.7653   7.9773   8.0587   8.0644
     8.5009   8.5931   8.7788   8.8280   8.9449   9.0034   9.1131   9.1938
     9.2076

          k = 0.1250 0.3960 0.0000 ( 34292 PWs)   bands (ev):

   -35.5695 -35.4566 -23.1181 -22.6112 -22.6110 -22.3704 -16.9791 -16.8703
   -16.8292 -16.6926 -16.6866 -16.5842 -14.8933 -14.8887 -14.6034 -14.5376
   -14.4918 -14.4080 -14.2352 -14.1377 -14.1259 -14.0958 -14.0784 -14.0586
   -13.9155 -13.8616 -13.7357  -8.4817  -8.3620  -8.0607  -8.0603  -8.0040
    -7.9277  -7.9270  -7.8091  -7.7093  -7.6512  -7.6512  -7.3777  -3.4433
    -3.3232  -3.3168  -3.0818  -2.9847  -2.9810  -2.9218  -2.3750  -2.3740
    -2.1078  -1.9217  -1.7858  -1.7828  -1.6470  -1.6318  -1.5725  -1.4342
    -1.3259  -1.2981  -1.2454  -1.1690  -1.1154  -1.1134  -1.0139  -0.8900
    -0.8672  -0.8653  -0.8238  -0.7854  -0.7480  -0.6996  -0.5173  -0.3649
    -0.3179  -0.1753  -0.0573  -0.0382   0.0150   0.1602   0.2080   0.2151
     0.4122   0.4564   0.6130   0.6788   0.7380   0.9066   0.9093   0.9677
     1.0444   1.0649   1.0743   1.1169   1.1467   1.1952   1.2347   1.2420
     1.2789   1.4211   1.5234   1.6558   1.6843   1.7140   1.7256   1.7563
     1.8557   1.9197   1.9447   2.0089   2.0827   2.3400   2.3409   2.3786
     2.4948   2.5007   2.7098   2.7623   2.9947   3.0086   4.2542   6.9173
     7.3042   7.3052   7.6761   8.1345   8.1917   8.4050   8.5821   8.6677
     8.6791   8.9160   9.1347   9.3176   9.3936   9.5142   9.5496   9.6287
     9.6493

          k = 0.1250-0.5279 0.0000 ( 34244 PWs)   bands (ev):

   -35.5677 -35.4548 -23.0956 -22.5832 -22.5830 -22.3438 -17.0307 -16.9216
   -16.7858 -16.6829 -16.6491 -16.5806 -14.9258 -14.9214 -14.4903 -14.4508
   -14.4405 -14.3094 -14.2609 -14.2082 -14.1549 -14.0708 -14.0673 -14.0174
   -13.9993 -13.8872 -13.7907  -8.4899  -8.3496  -8.0554  -8.0548  -8.0323
    -7.9325  -7.9318  -7.8200  -7.7074  -7.6855  -7.6852  -7.4035  -3.7128
    -3.5096  -3.5037  -3.2599  -3.2143  -3.2093  -3.0982  -2.3960  -2.3950
    -2.1175  -2.0151  -1.8157  -1.8117  -1.6031  -1.5927  -1.5087  -1.4879
    -1.4570  -1.3438  -1.3348  -1.3135  -1.2004  -1.1910  -1.1765  -0.9462
    -0.9421  -0.9406  -0.9206  -0.8741  -0.8445  -0.8045  -0.5064  -0.3555
    -0.3112  -0.1922  -0.0656  -0.0268   0.0379   0.1727   0.2182   0.2204
     0.4135   0.4686   0.6399   0.6482   0.7188   0.8495   0.9374   0.9481
     0.9598   0.9619   1.0312   1.1477   1.1511   1.2677   1.2791   1.3507
     1.4223   1.4496   1.4978   1.7188   1.7844   1.8278   2.0128   2.0275
     2.0374   2.0456   2.1408   2.1778   2.2010   2.3521   2.3549   2.4553
     2.5053   2.5063   2.5591   2.6123   2.8740   2.8912   4.4347   6.9047
     7.5258   7.5263   7.9712   8.1546   8.3130   8.4227   8.7839   9.0440
     9.1258   9.3005   9.3136   9.4190   9.5126   9.7738   9.8137   9.8454
     9.9634

          k = 0.2500 0.0000 0.0000 ( 34384 PWs)   bands (ev):

   -35.5775 -35.4646 -23.2092 -22.7225 -22.7223 -22.4766 -16.9670 -16.8767
   -16.8294 -16.7751 -16.6163 -16.5104 -14.9956 -14.9605 -14.9433 -14.7929
   -14.7457 -14.5954 -14.4255 -14.1985 -14.1973 -14.0345 -14.0031 -13.8974
   -13.8536 -13.6316 -13.6247  -8.5365  -8.0256  -7.9565  -7.9435  -7.9425
    -7.7710  -7.7303  -7.7302  -7.5726  -7.5723  -7.4363  -7.3079  -2.5594
    -2.5576  -2.3475  -2.2040  -2.2031  -2.0996  -2.0148  -1.7402  -1.7277
    -1.6417  -1.4946  -1.4660  -1.4186  -1.2104  -1.2089  -1.1475  -0.9697
    -0.9607  -0.9118  -0.8529  -0.7639  -0.7629  -0.7504  -0.6335  -0.5566
    -0.5283  -0.5246  -0.4745  -0.4423  -0.3106  -0.2797  -0.2447  -0.2431
    -0.2128  -0.1871  -0.0935  -0.0802   0.0837   0.0851   0.1890   0.1897
     0.2115   0.3284   0.3301   0.4584   0.4614   0.5008   0.5567   0.5982
     0.6671   0.6813   0.7715   0.9051   0.9480   0.9943   1.0324   1.0565
     1.2850   1.2981   1.3133   1.3282   1.4211   1.4519   1.4655   1.5666
     1.6511   1.7076   1.7328   1.8697   1.8888   1.9994   2.0369   2.0649
     2.0991   2.1066   2.3248   2.4835   2.5204   2.6787   2.6843   5.8588
     5.8601   6.1828   7.0228   7.0424   7.2145   7.5596   7.5657   7.9458
     8.1808   8.4911   8.5307   8.7161   8.9369   9.2557   9.2877   9.4186
     9.5133

          k = 0.2500 0.1320 0.0000 ( 34351 PWs)   bands (ev):

   -35.5757 -35.4628 -23.1894 -22.6987 -22.6985 -22.4536 -16.9349 -16.8702
   -16.7970 -16.7687 -16.6825 -16.5762 -14.9451 -14.9209 -14.8799 -14.7439
   -14.6939 -14.5600 -14.3800 -14.1844 -14.1843 -14.0337 -14.0158 -13.9163
   -13.8729 -13.6511 -13.6462  -8.5161  -8.2656  -8.0120  -8.0118  -7.8930
    -7.8670  -7.8664  -7.7947  -7.6150  -7.5389  -7.5388  -7.2744  -2.6093
    -2.6037  -2.3853  -2.1974  -2.1944  -2.1368  -2.0870  -2.0571  -2.0124
    -1.9404  -1.8248  -1.7191  -1.6243  -1.6230  -1.4018  -1.3560  -1.2527
    -1.0175  -1.0133  -0.9651  -0.9095  -0.8800  -0.7958  -0.7296  -0.6260
    -0.6106  -0.5865  -0.5572  -0.4591  -0.3869  -0.3327  -0.3016  -0.2098
    -0.1949  -0.0256  -0.0215   0.0281   0.0567   0.1028   0.1598   0.2026
     0.2154   0.3317   0.3364   0.3688   0.5345   0.6134   0.6522   0.7828
     0.8534   0.9090   0.9189   0.9687   1.0649   1.0846   1.1599   1.1942
     1.2253   1.2753   1.3836   1.4094   1.4362   1.4830   1.4862   1.5320
     1.5735   1.6568   1.6756   1.7375   1.7413   1.8881   2.0168   2.1967
     2.6699   2.6836   2.8529   2.8651   2.8743   2.9314   2.9995   6.1203
     6.1213   6.3244   7.1827   7.2011   7.4322   7.8176   7.8210   8.0253
     8.2635   8.6103   8.6209   8.8456   8.8596   9.0606   9.1833   9.2919
     9.4059

          k = 0.2500 0.2640 0.0000 ( 34331 PWs)   bands (ev):

   -35.5713 -35.4584 -23.1409 -22.6400 -22.6398 -22.3973 -16.8704 -16.8464
   -16.8190 -16.7623 -16.7152 -16.7114 -14.8557 -14.8483 -14.7089 -14.6039
   -14.5629 -14.4715 -14.2592 -14.1592 -14.1574 -14.0839 -14.0628 -13.9639
   -13.8760 -13.7279 -13.6716  -8.5819  -8.4374  -8.2322  -8.2320  -8.0152
    -7.9509  -7.9287  -7.9282  -7.7215  -7.6588  -7.6585  -7.3972  -2.9878
    -2.9660  -2.7339  -2.6603  -2.5207  -2.4359  -2.4340  -2.3080  -2.3070
    -2.2114  -2.1651  -2.1635  -2.0210  -1.9767  -1.5907  -1.4457  -1.4201
    -1.4159  -1.4092  -1.2749  -1.1634  -1.0602  -0.9438  -0.9013  -0.7822
    -0.7282  -0.7202  -0.6121  -0.5963  -0.5876  -0.5758  -0.5245  -0.3950
    -0.3401  -0.3013  -0.2588   0.0200   0.0766   0.1216   0.3299   0.3537
     0.5297   0.5704   0.6347   0.7841   0.8036   0.8495   0.9094   0.9639
     0.9669   1.1423   1.2196   1.2628   1.2882   1.3294   1.3770   1.4038
     1.4592   1.4735   1.5077   1.5207   1.5355   1.6086   1.6242   1.6410
     1.6840   1.6888   1.7092   1.8605   1.8631   1.9344   2.1051   2.3110
     2.9902   2.9927   3.2771   3.2874   3.4269   3.5232   3.6976   6.4611
     6.6631   6.6637   7.5604   7.5909   7.7657   8.0541   8.3496   8.3507
     8.6488   8.7481   8.9183   9.0120   9.0593   9.2213   9.3060   9.3511
     9.4266

          k = 0.2500 0.3960 0.0000 ( 34334 PWs)   bands (ev):

   -35.5670 -35.4541 -23.0913 -22.5796 -22.5793 -22.3394 -16.9670 -16.8585
   -16.8346 -16.7606 -16.7322 -16.6239 -14.8121 -14.8097 -14.4858 -14.4351
   -14.4204 -14.3699 -14.2087 -14.1819 -14.1070 -14.0925 -14.0779 -14.0422
   -13.8828 -13.8160 -13.7010  -8.7430  -8.3861  -8.3522  -8.3519  -8.2331
    -8.0819  -7.9791  -7.9786  -7.8727  -7.8724  -7.7397  -7.6134  -3.4894
    -3.4648  -3.4111  -3.1971  -3.0138  -2.9604  -2.9603  -2.4462  -2.4456
    -2.2292  -2.1291  -2.1233  -2.0003  -1.9296  -1.8240  -1.7697  -1.7577
    -1.5767  -1.5094  -1.4433  -1.4157  -1.2713  -1.1567  -1.1407  -0.8716
    -0.8275  -0.8025  -0.7934  -0.7897  -0.7437  -0.7191  -0.5389  -0.5012
    -0.4785  -0.4056  -0.3272   0.0832   0.1601   0.1988   0.3693   0.4167
     0.6748   0.6857   0.8698   0.9826   0.9837   1.0125   1.0749   1.2528
     1.2865   1.2932   1.3233   1.3286   1.4261   1.4571   1.5053   1.5154
     1.5832   1.5927   1.6497   1.7282   1.7484   1.7815   1.8088   1.8803
     1.9149   1.9384   1.9759   2.0408   2.1781   2.2616   2.2626   2.4068
     2.8217   2.8248   3.5067   3.5268   3.6635   3.7469   4.2237   6.2606
     6.8708   6.8719   7.5627   7.7448   8.0148   8.3015   8.6562   8.8016
     8.8152   9.0374   9.2917   9.4167   9.6857   9.7435   9.8063   9.8917
     9.9063

          k = 0.2500-0.5279 0.0000 ( 34344 PWs)   bands (ev):

   -35.5652 -35.4522 -23.0704 -22.5540 -22.5538 -22.3150 -17.0172 -16.9084
   -16.8291 -16.7269 -16.7210 -16.5843 -14.8089 -14.8058 -14.3575 -14.3565
   -14.3473 -14.3057 -14.2251 -14.2191 -14.1509 -14.0633 -14.0618 -14.0200
   -13.9437 -13.8272 -13.7260  -8.7762  -8.3650  -8.3524  -8.3519  -8.3443
    -8.1077  -8.0672  -8.0671  -7.9389  -7.9382  -7.7556  -7.7205  -3.7072
    -3.6671  -3.6624  -3.3903  -3.2102  -3.1879  -3.1847  -2.4536  -2.4529
    -2.2154  -2.0915  -2.0852  -1.9718  -1.9601  -1.9275  -1.8849  -1.8768
    -1.6810  -1.6240  -1.4751  -1.4458  -1.3434  -1.2427  -1.2314  -0.9400
    -0.9092  -0.8633  -0.8112  -0.8054  -0.8023  -0.8010  -0.5529  -0.5047
    -0.4894  -0.4242  -0.3374   0.0937   0.1897   0.2339   0.3841   0.4512
     0.7093   0.7721   0.9865   1.0394   1.0866   1.0874   1.0907   1.2026
     1.2249   1.2604   1.3731   1.4480   1.4584   1.4786   1.5084   1.5322
     1.5440   1.6947   1.7325   1.9025   1.9171   1.9557   1.9976   2.0251
     2.0439   2.0805   2.1088   2.1515   2.3069   2.4372   2.4382   2.4428
     2.5992   2.6036   3.5268   3.5518   3.6986   3.7786   4.3854   6.1213
     6.8348   6.8366   7.4950   7.7176   8.1379   8.3983   8.6316   9.1148
     9.1754   9.2648   9.5238   9.5360   9.7666   9.8660   9.9471  10.0833
    10.1090

          k = 0.3750 0.0000 0.0000 ( 34362 PWs)   bands (ev):

   -35.5749 -35.4620 -23.1734 -22.6771 -22.6769 -22.4333 -17.0165 -16.9149
   -16.8718 -16.7329 -16.6130 -16.5070 -15.0404 -15.0340 -15.0105 -14.6472
   -14.6252 -14.5973 -14.3879 -14.2103 -14.2040 -14.1430 -14.0653 -13.9780
   -13.9109 -13.6911 -13.6683  -8.5287  -7.9766  -7.9260  -7.9252  -7.8911
    -7.7598  -7.6654  -7.6654  -7.4882  -7.4879  -7.3880  -7.2291  -2.8871
    -2.8839  -2.7063  -2.4953  -2.3268  -2.3257  -2.0521  -1.6582  -1.6325
    -1.5764  -1.5390  -1.4968  -1.3839  -1.2120  -1.2108  -1.2101  -1.1821
    -1.0409  -1.0124  -1.0066  -0.9946  -0.9024  -0.8956  -0.8771  -0.7704
    -0.7287  -0.7248  -0.6950  -0.6293  -0.4371  -0.4002  -0.2613  -0.2394
    -0.2268  -0.2266  -0.1647  -0.1212   0.0709   0.0723   0.1495   0.1775
     0.1882   0.4069   0.4092   0.4310   0.4331   0.4663   0.5352   0.5621
     0.7531   0.7809   0.7990   0.8623   0.9168   1.0713   1.1894   1.1896
     1.2306   1.2859   1.3538   1.3650   1.4810   1.4810   1.5288   1.5563
     1.6611   1.7580   1.7750   1.8114   1.9192   1.9456   2.0639   2.1328
     2.1502   2.1762   2.3714   2.5731   2.5868   2.7930   2.8071   6.5089
     6.5098   6.6316   7.7068   7.7770   7.7965   8.0048   8.0059   8.1450
     8.4832   8.5485   8.7015   9.2588   9.3270   9.4687   9.4996   9.5752
     9.5911

          k = 0.3750 0.1320 0.0000 ( 34383 PWs)   bands (ev):

   -35.5731 -35.4602 -23.1550 -22.6554 -22.6552 -22.4123 -17.0079 -16.9063
   -16.8427 -16.7037 -16.6775 -16.5713 -14.9917 -14.9869 -14.9404 -14.6065
   -14.5810 -14.5366 -14.3335 -14.1822 -14.1804 -14.1197 -14.0584 -13.9666
   -13.9376 -13.6953 -13.6826  -8.5116  -8.2050  -7.9835  -7.9831  -7.9510
    -7.8287  -7.8284  -7.7861  -7.5779  -7.5776  -7.5665  -7.3223  -2.9488
    -2.9411  -2.7503  -2.5228  -2.3256  -2.3245  -2.0781  -2.0269  -2.0167
    -1.8546  -1.7576  -1.7182  -1.6129  -1.6115  -1.4706  -1.4332  -1.3274
    -1.3063  -1.3035  -1.1921  -1.0569  -1.0060  -0.8881  -0.8108  -0.7846
    -0.7279  -0.6694  -0.6176  -0.5662  -0.5464  -0.4123  -0.4043  -0.2634
    -0.2603  -0.0530  -0.0433   0.0518   0.1254   0.1343   0.1787   0.1927
     0.2122   0.3679   0.4385   0.4454   0.4579   0.6732   0.6866   0.7988
     0.8255   0.8891   0.9648   1.0284   1.1223   1.1399   1.1900   1.2276
     1.2676   1.3148   1.3647   1.3707   1.4966   1.5448   1.5555   1.5835
     1.7075   1.7471   1.7619   1.7974   1.8716   1.9448   2.0697   2.1941
     2.7465   2.7550   2.8870   2.9612   2.9748   3.1388   3.1839   6.5665
     6.6584   6.6590   7.7528   7.8254   7.8676   8.0682   8.0703   8.0767
     8.5029   8.6612   8.9153   8.9953   9.2485   9.3719   9.4958   9.5281
     9.6447

          k = 0.3750 0.2640 0.0000 ( 34389 PWs)   bands (ev):

   -35.5688 -35.4558 -23.1101 -22.6021 -22.6019 -22.3607 -16.9876 -16.8860
   -16.8219 -16.7675 -16.7139 -16.6294 -14.8693 -14.8663 -14.7459 -14.5107
   -14.4789 -14.3872 -14.2125 -14.1420 -14.1255 -14.1089 -14.0659 -13.9880
   -13.9059 -13.7193 -13.6913  -8.6365  -8.4352  -8.2849  -8.2847  -8.2109
    -8.0087  -7.9634  -7.9631  -7.8411  -7.8407  -7.7347  -7.5968  -3.2642
    -3.2367  -2.9892  -2.7445  -2.6504  -2.4958  -2.4929  -2.3769  -2.3763
    -2.3500  -2.2477  -2.2454  -2.2272  -2.0389  -1.7737  -1.7399  -1.6113
    -1.5338  -1.4515  -1.2535  -1.2323  -1.0594  -0.9418  -0.9208  -0.8706
    -0.8524  -0.7985  -0.6568  -0.6476  -0.6403  -0.6330  -0.5085  -0.4823
    -0.3984  -0.3672  -0.3269   0.0537   0.1144   0.2824   0.4236   0.4606
     0.6448   0.6883   0.7202   0.8224   0.8360   1.0103   1.0124   1.1143
     1.1747   1.2113   1.2420   1.2475   1.4075   1.4179   1.4624   1.4746
     1.5165   1.5869   1.6347   1.6511   1.6743   1.7126   1.7474   1.7569
     1.7711   1.8109   1.8233   1.8339   1.9149   2.0981   2.1411   2.2311
     2.9903   2.9942   3.6883   3.7339   3.7388   3.8612   3.9437   6.1819
     6.7038   6.7045   7.5005   7.6428   7.9598   8.2508   8.4099   8.4236
     8.8278   9.0541   9.2275   9.2445   9.4255   9.4479   9.5115   9.7587
     9.7999

          k = 0.3750 0.3960 0.0000 ( 34365 PWs)   bands (ev):

   -35.5644 -35.4515 -23.0642 -22.5475 -22.5472 -22.3080 -16.9703 -16.9486
   -16.8676 -16.8415 -16.6877 -16.5494 -14.7343 -14.7329 -14.4874 -14.4180
   -14.3873 -14.2311 -14.2225 -14.1816 -14.0752 -14.0726 -14.0178 -13.9858
   -13.8883 -13.7462 -13.6724  -8.9471  -8.5507  -8.5503  -8.5131  -8.3914
    -8.2789  -8.2158  -8.2157  -7.9660  -7.9652  -7.9022  -7.7612  -3.7435
    -3.7096  -3.4491  -3.3575  -3.1976  -2.9410  -2.9396  -2.6276  -2.6260
    -2.4647  -2.3109  -2.2745  -2.2739  -2.0859  -2.0517  -2.0469  -1.8404
    -1.7501  -1.6616  -1.2886  -1.2099  -1.2042  -1.2031  -1.1869  -0.9546
    -0.9469  -0.8632  -0.8568  -0.7938  -0.7087  -0.7019  -0.6649  -0.5826
    -0.4714  -0.3910  -0.3886   0.1510   0.2597   0.3303   0.5103   0.6395
     0.8629   0.9887   1.0814   1.1607   1.1634   1.2589   1.2845   1.3590
     1.3864   1.4806   1.4888   1.4970   1.5849   1.6212   1.6971   1.7158
     1.7449   1.7695   1.7989   1.8666   1.8978   1.9350   1.9490   1.9677
     2.0096   2.0361   2.0796   2.1503   2.1834   2.1843   2.3901   2.4309
     2.8097   2.8159   4.1606   4.2508   4.2643   4.3403   4.4228   5.6851
     6.4004   6.4014   7.1617   7.3785   8.1280   8.2196   8.8520   8.9856
     9.0025   9.1114   9.3848   9.5068   9.5287   9.5835   9.6225   9.7390
     9.9026

          k = 0.3750-0.5279 0.0000 ( 34392 PWs)   bands (ev):

   -35.5626 -35.4497 -23.0449 -22.5244 -22.5242 -22.2857 -17.0039 -16.9577
   -16.8953 -16.8562 -16.6523 -16.5141 -14.6730 -14.6722 -14.3919 -14.3584
   -14.3038 -14.2794 -14.2019 -14.1404 -14.0605 -14.0554 -14.0537 -13.9590
   -13.9076 -13.7393 -13.6617  -9.0586  -8.6418  -8.6327  -8.6322  -8.3834
    -8.3674  -8.3609  -8.3609  -8.0257  -7.9917  -7.9907  -7.7749  -3.9501
    -3.9157  -3.6899  -3.5869  -3.3989  -3.1663  -3.1649  -2.6461  -2.6445
    -2.4758  -2.3133  -2.2684  -2.2681  -2.1930  -2.1628  -2.0494  -1.9233
    -1.8507  -1.7067  -1.3594  -1.3160  -1.3014  -1.2354  -1.2296  -0.9538
    -0.9500  -0.9491  -0.9391  -0.8783  -0.8046  -0.7431  -0.6680  -0.5799
    -0.4571  -0.3774  -0.3755   0.1828   0.2981   0.3443   0.5384   0.7217
     0.9320   1.1166   1.2525   1.2723   1.2923   1.3092   1.3491   1.3598
     1.3943   1.5510   1.6017   1.6558   1.6966   1.7215   1.7560   1.7662
     1.8112   1.8587   1.8925   1.9959   2.0182   2.0490   2.0598   2.1011
     2.1502   2.1909   2.2125   2.2900   2.3721   2.3748   2.4983   2.5412
     2.5647   2.5739   4.2700   4.3940   4.4199   4.4879   4.5661   5.4739
     6.2229   6.2237   7.0415   7.2894   8.0727   8.2495   8.7662   9.0126
     9.1428   9.1625   9.3735   9.5145   9.6154   9.7783   9.8487   9.8672
     9.8984

          k =-0.5000 0.0000 0.0000 ( 34370 PWs)   bands (ev):

   -35.5738 -35.4609 -23.1583 -22.6580 -22.6577 -22.4150 -17.0689 -16.9674
   -16.8296 -16.6899 -16.6116 -16.5057 -15.0976 -15.0897 -15.0424 -14.6649
   -14.6024 -14.3853 -14.3167 -14.2395 -14.2285 -14.1923 -14.1551 -14.0173
   -13.9255 -13.7127 -13.6863  -8.5182  -7.9652  -7.9157  -7.9149  -7.8633
    -7.7489  -7.6423  -7.6423  -7.4521  -7.4517  -7.3748  -7.1955  -3.0291
    -3.0263  -2.8510  -2.6484  -2.3518  -2.3507  -2.0496  -1.6483  -1.6181
    -1.6104  -1.5765  -1.3705  -1.2870  -1.2622  -1.2398  -1.2158  -1.2144
    -1.1702  -1.1507  -1.0752  -0.9915  -0.9904  -0.9345  -0.8937  -0.8394
    -0.8096  -0.8083  -0.7980  -0.7234  -0.4986  -0.4530  -0.2725  -0.2411
    -0.2318  -0.2115  -0.1858  -0.1719   0.0655   0.0669   0.1394   0.1532
     0.1549   0.4070   0.4086   0.4321   0.4336   0.4586   0.5027   0.5306
     0.6880   0.8227   0.8663   0.8737   0.8902   1.1215   1.1389   1.1394
     1.3664   1.3750   1.4016   1.4110   1.4395   1.4674   1.5963   1.6497
     1.6578   1.6593   1.7171   1.8739   1.9598   2.0827   2.0905   2.1460
     2.1619   2.1804   2.3808   2.5579   2.5929   2.8201   2.8422   6.8128
     7.2823   7.2825   7.3335   7.3345   7.7588   8.1713   8.2742   8.5514
     8.5842   8.6222   9.0519   9.3469   9.4429   9.4612   9.5522   9.6328
     9.6615

          k =-0.5000 0.1320 0.0000 ( 34378 PWs)   bands (ev):

   -35.5720 -35.4591 -23.1406 -22.6372 -22.6369 -22.3949 -17.0597 -16.9582
   -16.8021 -16.6754 -16.6622 -16.5692 -15.0398 -15.0333 -14.9683 -14.6244
   -14.5643 -14.3442 -14.2585 -14.1986 -14.1972 -14.1703 -14.1268 -13.9836
   -13.9631 -13.7099 -13.7027  -8.4990  -8.0850  -8.0830  -7.9547  -7.9541
    -7.7717  -7.7717  -7.7683  -7.6550  -7.6546  -7.4954  -7.4092  -3.0973
    -3.0901  -2.9028  -2.6817  -2.3567  -2.3556  -2.0863  -1.9981  -1.9823
    -1.7982  -1.7123  -1.7102  -1.6076  -1.6061  -1.5091  -1.4651  -1.4219
    -1.4179  -1.3453  -1.3033  -1.1037  -1.0969  -0.8722  -0.8652  -0.8640
    -0.7113  -0.6762  -0.6558  -0.6458  -0.5745  -0.4489  -0.4427  -0.2872
    -0.2867  -0.0673  -0.0528   0.0658   0.1348   0.1419   0.1870   0.1882
     0.2767   0.3036   0.4329   0.5186   0.5199   0.5974   0.6093   0.7712
     0.8074   0.9137   0.9421   1.0586   1.1172   1.1428   1.1865   1.2485
     1.2847   1.2858   1.4214   1.4803   1.4836   1.5425   1.6360   1.6777
     1.6996   1.7273   1.7402   1.8807   1.9240   2.0693   2.1547   2.1805
     2.7536   2.7585   2.8941   2.9805   2.9952   3.1914   3.2222   6.6176
     7.1301   7.1303   7.6300   7.6373   7.7379   8.1811   8.2652   8.2852
     8.4809   8.8091   9.1713   9.2940   9.5107   9.5733   9.5809   9.6425
     9.6721

          k =-0.5000 0.2640 0.0000 ( 34396 PWs)   bands (ev):

   -35.5677 -35.4547 -23.0971 -22.5862 -22.5859 -22.3454 -17.0377 -16.9363
   -16.8186 -16.7310 -16.7108 -16.5921 -14.8881 -14.8837 -14.7634 -14.5278
   -14.4750 -14.2409 -14.1602 -14.1485 -14.1294 -14.1199 -14.0494 -14.0311
   -13.9087 -13.7152 -13.7107  -8.5860  -8.4342  -8.3632  -8.2237  -8.2232
    -8.0729  -8.0728  -7.9626  -7.9045  -7.9039  -7.7747  -7.7145  -3.4026
    -3.3752  -3.1350  -2.8884  -2.6432  -2.5213  -2.5182  -2.3893  -2.3865
    -2.3654  -2.2616  -2.2533  -2.2484  -2.0437  -1.8982  -1.8596  -1.6744
    -1.5632  -1.5447  -1.1774  -1.1446  -1.0375  -0.9645  -0.9633  -0.8981
    -0.8743  -0.8203  -0.6962  -0.6695  -0.6688  -0.6571  -0.5069  -0.4825
    -0.3893  -0.3885  -0.3601   0.0641   0.1270   0.3508   0.4638   0.5033
     0.6870   0.7424   0.7828   0.8537   0.8590   1.0960   1.0996   1.1444
     1.1791   1.1874   1.2172   1.2220   1.3995   1.4778   1.4781   1.5138
     1.5409   1.5643   1.6733   1.7037   1.7130   1.7660   1.8042   1.8200
     1.8353   1.8382   1.9127   1.9331   1.9673   2.0394   2.1685   2.2461
     2.9834   2.9877   3.6994   3.8704   3.8756   3.9931   4.0701   6.0424
     6.6998   6.7003   7.3785   7.5786   8.0718   8.4104   8.4473   8.4563
     9.0198   9.1938   9.2276   9.4263   9.5892   9.5952   9.6187   9.7348
     9.8396

          k =-0.5000 0.3960 0.0000 ( 34384 PWs)   bands (ev):

   -35.5634 -35.4504 -23.0529 -22.5340 -22.5337 -22.2948 -17.0161 -16.9478
   -16.9148 -16.8396 -16.6554 -16.5165 -14.7052 -14.7031 -14.4957 -14.4374
   -14.4005 -14.2155 -14.1723 -14.1334 -14.0733 -14.0718 -13.9703 -13.9583
   -13.9011 -13.7130 -13.6667  -9.0093  -8.6401  -8.5989  -8.5983  -8.3944
    -8.3609  -8.3609  -8.3396  -8.0371  -7.9823  -7.9814  -7.7718  -3.8739
    -3.8368  -3.5583  -3.3641  -3.3103  -2.9326  -2.9311  -2.6979  -2.6957
    -2.5360  -2.4017  -2.2915  -2.2903  -2.1861  -2.1527  -2.0550  -1.8865
    -1.8145  -1.6887  -1.2536  -1.2283  -1.2247  -1.1006  -1.0932  -1.0422
    -1.0375  -0.8821  -0.8805  -0.7781  -0.7700  -0.6965  -0.6873  -0.6139
    -0.4779  -0.3536  -0.3525   0.1671   0.2804   0.4064   0.5740   0.7342
     0.9507   1.1233   1.1645   1.2925   1.2932   1.2977   1.3146   1.3927
     1.4206   1.5363   1.5639   1.5686   1.5885   1.6876   1.7155   1.7480
     1.7673   1.8304   1.8493   1.9385   1.9685   1.9819   1.9948   2.0298
     2.0736   2.1134   2.1537   2.1589   2.2018   2.2725   2.3731   2.5199
     2.7975   2.8050   4.1599   4.5147   4.5180   4.5840   4.6618   5.4661
     6.2050   6.2054   6.9969   7.2310   8.1379   8.2099   8.7572   8.9329
     9.0094   9.2077   9.4353   9.5337   9.5851   9.6608   9.7481   9.8595
     9.9046

          k =-0.5000-0.5279 0.0000 ( 34420 PWs)   bands (ev):

   -35.5616 -35.4486 -23.0343 -22.5120 -22.5118 -22.2735 -17.0073 -16.9984
   -16.9060 -16.8899 -16.6219 -16.4832 -14.6082 -14.6074 -14.4324 -14.3854
   -14.3036 -14.2611 -14.1992 -14.0894 -14.0521 -14.0480 -13.9829 -13.9297
   -13.9172 -13.6914 -13.6376  -9.1752  -8.7546  -8.7449  -8.7443  -8.4949
    -8.4770  -8.4770  -8.3696  -8.1405  -8.0101  -8.0087  -7.7875  -4.0822
    -4.0440  -3.7658  -3.6242  -3.5105  -3.1569  -3.1554  -2.7305  -2.7282
    -2.5627  -2.4204  -2.2816  -2.2804  -2.2787  -2.2540  -2.0533  -1.9574
    -1.9030  -1.7304  -1.3433  -1.3411  -1.3193  -1.1649  -1.1582  -1.0167
    -1.0070  -0.9778  -0.9765  -0.8785  -0.8034  -0.8015  -0.7027  -0.5726
    -0.4828  -0.3250  -0.3237   0.2020   0.3200   0.4211   0.6088   0.8471
     1.0440   1.2935   1.3193   1.3535   1.3584   1.3700   1.4097   1.4122
     1.4438   1.6360   1.6596   1.7509   1.7618   1.8174   1.8387   1.8899
     1.9142   1.9233   1.9904   1.9946   2.0522   2.0840   2.0880   2.1092
     2.2039   2.2548   2.3462   2.3481   2.3609   2.4344   2.5402   2.5516
     2.5595   2.6762   4.2645   4.7150   4.7239   4.7861   4.8565   5.2296
     5.9781   5.9783   6.8630   7.1287   8.0733   8.1784   8.5952   9.0415
     9.0571   9.1004   9.2835   9.3026   9.5337   9.5664   9.8891   9.9751
    10.1129

     the Fermi energy is     2.5734 ev

!    total energy              =   -1842.87000241 Ry
     Harris-Foulkes estimate   =   -1842.87000241 Ry
     estimated scf accuracy    <          9.1E-09 Ry

     The total energy is the sum of the following terms:

     one-electron contribution =  -29489.49092800 Ry
     hartree contribution      =   14897.84507540 Ry
     xc contribution           =    -621.62102297 Ry
     ewald contribution        =   13370.40475372 Ry
     smearing contrib. (-TS)   =      -0.00788055 Ry

     convergence has been achieved in  31 iterations

     negative rho (up, down):  1.521E-03 0.000E+00

     Forces acting on atoms (cartesian axes, Ry/au):

     atom    1 type  4   force =     0.00000000    0.00000000   -0.00015564
     atom    2 type  3   force =     0.00000000    0.00000000    0.00053494
     atom    3 type  4   force =     0.00000000    0.00000000   -0.00077722
     atom    4 type  1   force =     0.00000000    0.00000000   -0.00025566
     atom    5 type  3   force =     0.00000000    0.00000000    0.00051648
     atom    6 type  4   force =     0.00000000    0.00000000    0.00000406
     atom    7 type  4   force =     0.00000000    0.00000000    0.00027434
     atom    8 type  2   force =     0.00000000    0.00000000   -0.00061460
     atom    9 type  4   force =     0.00000000    0.00000000    0.00022752
     atom   10 type  4   force =     0.00000000    0.00000000    0.00020815
     atom   11 type  3   force =     0.00000000    0.00000000    0.00016196
     atom   12 type  1   force =     0.00000000    0.00000000   -0.00065962
     atom   13 type  4   force =     0.00000000    0.00000000    0.00437128
     atom   14 type  4   force =     0.00000000    0.00000000    0.00856702
     atom   15 type  3   force =     0.00000000    0.00000000   -0.00550546
     atom   16 type  4   force =     0.00000000    0.00000000    0.00646783
     atom   17 type  1   force =     0.00000000    0.00000000    0.01544278
     atom   18 type  3   force =     0.00000000    0.00000000   -0.00292998
     atom   19 type  4   force =     0.00000000    0.00000000   -0.00737980
     atom   20 type  4   force =     0.00000000    0.00000000   -0.00625478
     atom   21 type  2   force =     0.00000000    0.00000000   -0.01457741
     atom   22 type  4   force =     0.00000000    0.00000000    0.00027534
     atom   23 type  4   force =     0.00000000    0.00000000    0.00131761
     atom   24 type  3   force =     0.00000000    0.00000000   -0.00024999
     atom   25 type  1   force =     0.00000000    0.00000000    0.00029543
     atom   26 type  4   force =     0.00000000    0.00000000    0.00103833
     atom   27 type  3   force =     0.00000000    0.00000000   -0.00063628
     atom   28 type  4   force =     0.00000000    0.00000000    0.00029337

     Total force =     0.026899     Total SCF correction =     0.000401


     Computing stress (Cartesian axis) and pressure


     negative rho (up, down):  1.521E-03 0.000E+00
          total   stress  (Ry/bohr**3)                   (kbar)     P=       -7.24
  -0.00006075   0.00000000   0.00000000           -8.94        0.00        0.00
   0.00000000  -0.00003517   0.00000000            0.00       -5.17        0.00
   0.00000000   0.00000000  -0.00005182            0.00        0.00       -7.62

 
     init_run     :      8.33s CPU      8.62s WALL (       1 calls)
     electrons    :    504.64s CPU    528.24s WALL (       1 calls)
     forces       :      3.49s CPU      3.74s WALL (       1 calls)
     stress       :     17.64s CPU     18.34s WALL (       1 calls)

     Called by init_run:
     wfcinit      :      5.78s CPU      5.88s WALL (       1 calls)
     potinit      :      0.58s CPU      0.59s WALL (       1 calls)
     hinit0       :      0.93s CPU      0.94s WALL (       1 calls)

     Called by electrons:
     c_bands      :    401.86s CPU    411.03s WALL (      31 calls)
     sum_band     :     69.61s CPU     77.69s WALL (      31 calls)
     v_of_rho     :      2.11s CPU      2.14s WALL (      32 calls)
     newd         :     18.76s CPU     25.06s WALL (      32 calls)
     mix_rho      :     12.84s CPU     12.98s WALL (      31 calls)

     Called by c_bands:
     init_us_2    :      3.06s CPU      3.08s WALL (    1625 calls)
     cegterg      :    379.82s CPU    388.48s WALL (     775 calls)

     Called by sum_band:
     sum_band:bec :      0.20s CPU      0.20s WALL (     775 calls)
     addusdens    :     17.79s CPU     25.17s WALL (      31 calls)

     Called by *egterg:
     h_psi        :    181.39s CPU    187.41s WALL (    3687 calls)
     s_psi        :     18.39s CPU     18.52s WALL (    3687 calls)
     g_psi        :      0.56s CPU      0.56s WALL (    2887 calls)
     cdiaghg      :    109.82s CPU    110.25s WALL (    3662 calls)

     Called by h_psi:
     h_psi:calbec :     21.50s CPU     22.45s WALL (    3687 calls)
     vloc_psi     :    140.16s CPU    142.34s WALL (    3687 calls)
     add_vuspsi   :     18.90s CPU     20.46s WALL (    3687 calls)

     General routines
     calbec       :     34.38s CPU     35.38s WALL (    4587 calls)
     fft          :      1.67s CPU      1.68s WALL (     439 calls)
     ffts         :      6.90s CPU      6.96s WALL (   12359 calls)
     fftw         :    160.90s CPU    163.46s WALL (  554683 calls)
     interpolate  :      0.13s CPU      0.13s WALL (      32 calls)
 
     Parallel routines
     fft_scatt_xy :     20.16s CPU     20.45s WALL (  567481 calls)
     fft_scatt_yz :     99.51s CPU    101.05s WALL (  567481 calls)
 
     PWSCF        :   8m54.82s CPU   9m19.70s WALL

 
   This run was terminated on:  23:17:56  21May2021            

=------------------------------------------------------------------------------=
   JOB DONE.
=------------------------------------------------------------------------------=
[1621653476.883009] [holy7c06602:25153:0]          mpool.c:43   UCX  WARN  object 0x3c01a80 was not returned to mpool ucp_requests
[1621653476.884927] [holy7c06412:47021:0]          mpool.c:43   UCX  WARN  object 0x2a11cc0 was not returned to mpool ucp_requests
[1621653476.884949] [holy7c06412:47021:0]          mpool.c:43   UCX  WARN  object 0x2a11e80 was not returned to mpool ucp_requests
[1621653476.889949] [holy7c06409:267385:0]          mpool.c:43   UCX  WARN  object 0x34a2900 was not returned to mpool ucp_requests
[1621653476.886713] [holy7c06601:46826:0]          mpool.c:43   UCX  WARN  object 0x299bc80 was not returned to mpool ucp_requests
[1621653476.886734] [holy7c06601:46826:0]          mpool.c:43   UCX  WARN  object 0x299c000 was not returned to mpool ucp_requests
[1621653476.883517] [holy7c06602:25154:0]          mpool.c:43   UCX  WARN  object 0x41e2640 was not returned to mpool ucp_requests
[1621653476.892018] [holy7c06409:267384:0]          mpool.c:43   UCX  WARN  object 0x3ddc180 was not returned to mpool ucp_requests
[1621653476.892042] [holy7c06409:267384:0]          mpool.c:43   UCX  WARN  object 0x3ddc500 was not returned to mpool ucp_requests
[1621653476.895307] [holy7c06501:266028:0]          mpool.c:43   UCX  WARN  object 0x3a4ecc0 was not returned to mpool ucp_requests
