
     Program PWSCF v.6.5 starts on 21May2021 at 11:33:59 

     This program is part of the open-source Quantum ESPRESSO suite
     for quantum simulation of materials; please cite
         "P. Giannozzi et al., J. Phys.:Condens. Matter 21 395502 (2009);
         "P. Giannozzi et al., J. Phys.:Condens. Matter 29 465901 (2017);
          URL http://www.quantum-espresso.org", 
     in publications or presentations arising from this work. More details at
     http://www.quantum-espresso.org/quote

     Parallel version (MPI), running on    20 processors

     MPI processes distributed on    10 nodes
     R & G space division:  proc/nbgrp/npool/nimage =      20
     Reading input from CBCO_BaO_cleave_2.0_sep.pwi
Warning: card &IONS ignored
Warning: card     ION_DYNAMICS = 'BFGS' ignored
Warning: card / ignored
Warning: card &CELL ignored
Warning: card     CELL_DYNAMICS = 'BFGS' ignored
Warning: card     PRESS_CONV_THR = 5 ignored
Warning: card / ignored

     Current dimensions of program PWSCF are:
     Max number of different atomic species (ntypx) = 10
     Max number of k-points (npk) =  40000
     Max angular momentum in pseudopotentials (lmaxx) =  3

     Subspace diagonalization in iterative solution of the eigenvalue problem:
     one sub-group per band group will be used
     scalapack distributed-memory algorithm (size of sub-group:  4*  4 procs)

     Message from routine setup:
     using ibrav=0 with symmetry is DISCOURAGED, use correct ibrav instead
 
     Parallelization info
     --------------------
     sticks:   dense  smooth     PW     G-vecs:    dense   smooth      PW
     Min         149      50     14                73377    14130    2206
     Max         150      51     15                73416    14155    2249
     Sum        2991    1007    289              1467957   282791   44429
 


     bravais-lattice index     =            0
     lattice parameter (alat)  =       7.4270  a.u.
     unit-cell volume          =    4499.7550 (a.u.)^3
     number of atoms/cell      =           28
     number of atomic types    =            4
     number of electrons       =       227.00
     number of Kohn-Sham states=          137
     kinetic-energy cutoff     =      60.0000  Ry
     charge density cutoff     =     720.0000  Ry
     convergence threshold     =      1.0E-08
     mixing beta               =       0.5000
     number of iterations used =           10  local-TF  mixing
     Exchange-correlation= SLA PW PBE PBE
                           (   1   4   3   4   0   0   0)

     celldm(1)=   7.427040  celldm(2)=   0.000000  celldm(3)=   0.000000
     celldm(4)=   0.000000  celldm(5)=   0.000000  celldm(6)=   0.000000

     crystal axes: (cart. coord. in units of alat)
               a(1) = (   1.000000   0.000000   0.000000 )  
               a(2) = (   0.000000   0.947081   0.000000 )  
               a(3) = (   0.000000   0.000000  11.597234 )  

     reciprocal axes: (cart. coord. in units 2 pi/alat)
               b(1) = (  1.000000  0.000000  0.000000 )  
               b(2) = (  0.000000  1.055876  0.000000 )  
               b(3) = (  0.000000  0.000000  0.086227 )  


     PseudoPot. # 1 for Ba read from file:
     ./pseudo/Ba.pbe-nsp-van.UPF
     MD5 check sum: 2b9c31dd849566dd297d80989662b7a0
     Pseudo is Ultrasoft + core correction, Zval = 10.0
     Generated by new atomic code, or converted to UPF format
     Using radial grid of  907 points,  6 beta functions with: 
                l(1) =   0
                l(2) =   0
                l(3) =   1
                l(4) =   1
                l(5) =   2
                l(6) =   2
     Q(r) pseudized with  6 coefficients,  rinner =    1.200   1.200   1.200
                                                       1.200   1.200

     PseudoPot. # 2 for Ca read from file:
     ./pseudo/Ca.pbe-nsp-van.UPF
     MD5 check sum: 6471098428ff4fa451746d08035ff179
     Pseudo is Ultrasoft + core correction, Zval = 10.0
     Generated by new atomic code, or converted to UPF format
     Using radial grid of  845 points,  6 beta functions with: 
                l(1) =   0
                l(2) =   0
                l(3) =   1
                l(4) =   1
                l(5) =   2
                l(6) =   2
     Q(r) pseudized with  6 coefficients,  rinner =    1.200   1.200   1.200
                                                       1.200   1.200

     PseudoPot. # 3 for Cu read from file:
     ./pseudo/Cu.pbe-n-van_ak.UPF
     MD5 check sum: 34e3282627ffb533726feb647e090d62
     Pseudo is Ultrasoft + core correction, Zval = 11.0
     Generated by new atomic code, or converted to UPF format
     Using radial grid of  867 points,  6 beta functions with: 
                l(1) =   0
                l(2) =   0
                l(3) =   1
                l(4) =   1
                l(5) =   2
                l(6) =   2
     Q(r) pseudized with  8 coefficients,  rinner =    1.400   1.400   1.400
                                                       1.400   1.400

     PseudoPot. # 4 for O  read from file:
     ./pseudo/O.pbe-van_ak.UPF
     MD5 check sum: 783ce7fe4c79b6a4916957118fed0856
     Pseudo is Ultrasoft, Zval =  6.0
     Generated by new atomic code, or converted to UPF format
     Using radial grid of  737 points,  4 beta functions with: 
                l(1) =   0
                l(2) =   0
                l(3) =   1
                l(4) =   1
     Q(r) pseudized with  8 coefficients,  rinner =    0.800   0.800   0.800


     atomic species   valence    mass     pseudopotential
        Ba            10.00   137.32700     Ba( 1.00)
        Ca            10.00    40.07800     Ca( 1.00)
        Cu            11.00    63.54600     Cu( 1.00)
        O              6.00    15.99900     O ( 1.00)

      4 Sym. Ops. (no inversion) found



   Cartesian axes

     site n.     atom                  positions (alat units)
         1           O   tau(   1) = (   0.0000000   0.4735409  -0.0469745  )
         2           Cu  tau(   2) = (   0.0000000   0.0000000   0.0264565  )
         3           O   tau(   3) = (   0.0000000   0.0000000   0.5030914  )
         4           Ba  tau(   4) = (   0.5000000   0.4735409   0.5690292  )
         5           Cu  tau(   5) = (   0.0000000   0.0000000   1.0374254  )
         6           O   tau(   6) = (   0.5000000   0.0000000   1.0768099  )
         7           O   tau(   7) = (   0.0000000   0.4735409   1.1116985  )
         8           Ca  tau(   8) = (   0.5000000   0.4735409   1.4976260  )
         9           O   tau(   9) = (   0.0000000   0.4735409   1.8667529  )
        10           O   tau(  10) = (   0.5000000   0.0000000   1.9044124  )
        11           Cu  tau(  11) = (   0.0000000   0.0000000   1.9512546  )
        12           Ba  tau(  12) = (   0.5000000   0.4735409   2.4295764  )
        13           O   tau(  13) = (   0.0000000   0.0000000   2.5115362  )
        14           O   tau(  14) = (   0.0000000   0.4735409   2.9918528  )
        15           Cu  tau(  15) = (   0.0000000   0.0000000   2.9919088  )
        16           O   tau(  16) = (   0.0000000   0.0000000   3.4722686  )
        17           Ba  tau(  17) = (   0.5000000   0.4735409   3.5542208  )
        18           Cu  tau(  18) = (   0.0000000   0.0000000   4.5414021  )
        19           O   tau(  19) = (   0.5000000   0.0000000   4.5882443  )
        20           O   tau(  20) = (   0.0000000   0.4735409   4.6258987  )
        21           Ca  tau(  21) = (   0.5000000   0.4735409   4.9950357  )
        22           O   tau(  22) = (   0.0000000   0.4735409   5.3809607  )
        23           O   tau(  23) = (   0.5000000   0.0000000   5.4158493  )
        24           Cu  tau(  24) = (   0.0000000   0.0000000   5.4552364  )
        25           Ba  tau(  25) = (   0.5000000   0.4735409   5.9236300  )
        26           O   tau(  26) = (   0.0000000   0.0000000   5.9895576  )
        27           Cu  tau(  27) = (   0.0000000   0.0000000   6.4661976  )
        28           O   tau(  28) = (   0.0000000   0.4735409   6.5396159  )

     number of k points=    25  Gaussian smearing, width (Ry)=  0.0100
                       cart. coord. in units 2pi/alat
        k(    1) = (   0.0000000   0.0000000   0.0000000), wk =   0.0312500
        k(    2) = (   0.0000000   0.1319845   0.0000000), wk =   0.0625000
        k(    3) = (   0.0000000   0.2639689   0.0000000), wk =   0.0625000
        k(    4) = (   0.0000000   0.3959534   0.0000000), wk =   0.0625000
        k(    5) = (   0.0000000  -0.5279378   0.0000000), wk =   0.0312500
        k(    6) = (   0.1250000   0.0000000   0.0000000), wk =   0.0625000
        k(    7) = (   0.1250000   0.1319845   0.0000000), wk =   0.1250000
        k(    8) = (   0.1250000   0.2639689   0.0000000), wk =   0.1250000
        k(    9) = (   0.1250000   0.3959534   0.0000000), wk =   0.1250000
        k(   10) = (   0.1250000  -0.5279378   0.0000000), wk =   0.0625000
        k(   11) = (   0.2500000   0.0000000   0.0000000), wk =   0.0625000
        k(   12) = (   0.2500000   0.1319845   0.0000000), wk =   0.1250000
        k(   13) = (   0.2500000   0.2639689   0.0000000), wk =   0.1250000
        k(   14) = (   0.2500000   0.3959534   0.0000000), wk =   0.1250000
        k(   15) = (   0.2500000  -0.5279378   0.0000000), wk =   0.0625000
        k(   16) = (   0.3750000   0.0000000   0.0000000), wk =   0.0625000
        k(   17) = (   0.3750000   0.1319845   0.0000000), wk =   0.1250000
        k(   18) = (   0.3750000   0.2639689   0.0000000), wk =   0.1250000
        k(   19) = (   0.3750000   0.3959534   0.0000000), wk =   0.1250000
        k(   20) = (   0.3750000  -0.5279378   0.0000000), wk =   0.0625000
        k(   21) = (  -0.5000000   0.0000000   0.0000000), wk =   0.0312500
        k(   22) = (  -0.5000000   0.1319845   0.0000000), wk =   0.0625000
        k(   23) = (  -0.5000000   0.2639689   0.0000000), wk =   0.0625000
        k(   24) = (  -0.5000000   0.3959534   0.0000000), wk =   0.0625000
        k(   25) = (  -0.5000000  -0.5279378   0.0000000), wk =   0.0312500

     Dense  grid:  1467957 G-vectors     FFT dimensions: (  64,  64, 750)

     Smooth grid:   282791 G-vectors     FFT dimensions: (  40,  36, 432)

     Estimated max dynamical RAM per process >     468.50 MB

     Estimated total dynamical RAM >       9.15 GB

     Initial potential from superposition of free atoms

     starting charge  226.84630, renormalised to  227.00000

     negative rho (up, down):  3.506E-03 0.000E+00
     Starting wfcs are  195 randomized atomic wfcs

     total cpu time spent up to now is       10.0 secs

     Self-consistent Calculation

     iteration #  1     ecut=    60.00 Ry     beta= 0.50
     Davidson diagonalization with overlap
     ethr =  1.00E-02,  avg # of iterations =  2.0

     negative rho (up, down):  5.114E-04 0.000E+00

     total cpu time spent up to now is       25.6 secs

     total energy              =   -1840.82680771 Ry
     Harris-Foulkes estimate   =   -1845.39152721 Ry
     estimated scf accuracy    <      18.89789502 Ry

     iteration #  2     ecut=    60.00 Ry     beta= 0.50
     Davidson diagonalization with overlap
     ethr =  8.33E-03,  avg # of iterations =  2.0

     negative rho (up, down):  2.741E-04 0.000E+00

     total cpu time spent up to now is       41.1 secs

     total energy              =   -1842.49573970 Ry
     Harris-Foulkes estimate   =   -1843.31906939 Ry
     estimated scf accuracy    <       4.83617112 Ry

     iteration #  3     ecut=    60.00 Ry     beta= 0.50
     Davidson diagonalization with overlap
     ethr =  2.13E-03,  avg # of iterations =  1.8

     negative rho (up, down):  2.557E-04 0.000E+00

     total cpu time spent up to now is       56.2 secs

     total energy              =   -1842.85168796 Ry
     Harris-Foulkes estimate   =   -1842.99174259 Ry
     estimated scf accuracy    <       4.10357184 Ry

     iteration #  4     ecut=    60.00 Ry     beta= 0.50
     Davidson diagonalization with overlap
     ethr =  1.81E-03,  avg # of iterations =  1.0

     negative rho (up, down):  2.460E-04 0.000E+00

     total cpu time spent up to now is       70.3 secs

     total energy              =   -1842.84089267 Ry
     Harris-Foulkes estimate   =   -1842.92453119 Ry
     estimated scf accuracy    <       1.03472573 Ry

     iteration #  5     ecut=    60.00 Ry     beta= 0.50
     Davidson diagonalization with overlap
     ethr =  4.56E-04,  avg # of iterations =  2.6

     negative rho (up, down):  2.410E-04 0.000E+00

     total cpu time spent up to now is       86.3 secs

     total energy              =   -1842.84680761 Ry
     Harris-Foulkes estimate   =   -1842.88760820 Ry
     estimated scf accuracy    <       2.09725429 Ry

     iteration #  6     ecut=    60.00 Ry     beta= 0.50
     Davidson diagonalization with overlap
     ethr =  4.56E-04,  avg # of iterations =  1.1

     negative rho (up, down):  2.357E-04 0.000E+00

     total cpu time spent up to now is      100.5 secs

     total energy              =   -1842.83647657 Ry
     Harris-Foulkes estimate   =   -1842.86279630 Ry
     estimated scf accuracy    <       0.80260266 Ry

     iteration #  7     ecut=    60.00 Ry     beta= 0.50
     Davidson diagonalization with overlap
     ethr =  3.54E-04,  avg # of iterations =  3.4

     negative rho (up, down):  2.345E-04 0.000E+00

     total cpu time spent up to now is      117.5 secs

     total energy              =   -1842.83979649 Ry
     Harris-Foulkes estimate   =   -1842.84738507 Ry
     estimated scf accuracy    <       0.72054234 Ry

     iteration #  8     ecut=    60.00 Ry     beta= 0.50
     Davidson diagonalization with overlap
     ethr =  3.17E-04,  avg # of iterations =  1.8

     negative rho (up, down):  2.334E-04 0.000E+00

     total cpu time spent up to now is      132.7 secs

     total energy              =   -1842.83321899 Ry
     Harris-Foulkes estimate   =   -1842.84412276 Ry
     estimated scf accuracy    <       0.37991139 Ry

     iteration #  9     ecut=    60.00 Ry     beta= 0.50
     Davidson diagonalization with overlap
     ethr =  1.67E-04,  avg # of iterations =  4.6

     negative rho (up, down):  2.345E-04 0.000E+00

     total cpu time spent up to now is      151.0 secs

     total energy              =   -1842.83116535 Ry
     Harris-Foulkes estimate   =   -1842.83771943 Ry
     estimated scf accuracy    <       0.19730815 Ry

     iteration # 10     ecut=    60.00 Ry     beta= 0.50
     Davidson diagonalization with overlap
     ethr =  8.69E-05,  avg # of iterations =  5.6

     negative rho (up, down):  2.368E-04 0.000E+00

     total cpu time spent up to now is      170.5 secs

     total energy              =   -1842.82709802 Ry
     Harris-Foulkes estimate   =   -1842.83338856 Ry
     estimated scf accuracy    <       0.07403823 Ry

     iteration # 11     ecut=    60.00 Ry     beta= 0.50
     Davidson diagonalization with overlap
     ethr =  3.26E-05,  avg # of iterations =  7.8

     negative rho (up, down):  2.378E-04 0.000E+00

     total cpu time spent up to now is      193.4 secs

     total energy              =   -1842.82655494 Ry
     Harris-Foulkes estimate   =   -1842.82895737 Ry
     estimated scf accuracy    <       0.02047727 Ry

     iteration # 12     ecut=    60.00 Ry     beta= 0.50
     Davidson diagonalization with overlap
     c_bands:  2 eigenvalues not converged
     ethr =  9.02E-06,  avg # of iterations =  9.8

     negative rho (up, down):  2.371E-04 0.000E+00

     total cpu time spent up to now is      218.7 secs

     total energy              =   -1842.82649184 Ry
     Harris-Foulkes estimate   =   -1842.82719555 Ry
     estimated scf accuracy    <       0.02624863 Ry

     iteration # 13     ecut=    60.00 Ry     beta= 0.50
     Davidson diagonalization with overlap
     ethr =  9.02E-06,  avg # of iterations =  1.3

     negative rho (up, down):  2.634E-04 0.000E+00

     total cpu time spent up to now is      233.0 secs

     total energy              =   -1842.82573084 Ry
     Harris-Foulkes estimate   =   -1842.82663693 Ry
     estimated scf accuracy    <       0.02780291 Ry

     iteration # 14     ecut=    60.00 Ry     beta= 0.50
     Davidson diagonalization with overlap
     ethr =  9.02E-06,  avg # of iterations =  2.1

     negative rho (up, down):  8.811E-04 0.000E+00

     total cpu time spent up to now is      248.2 secs

     total energy              =   -1842.82510804 Ry
     Harris-Foulkes estimate   =   -1842.82588940 Ry
     estimated scf accuracy    <       0.03370124 Ry

     iteration # 15     ecut=    60.00 Ry     beta= 0.50
     Davidson diagonalization with overlap
     ethr =  9.02E-06,  avg # of iterations =  2.5

     negative rho (up, down):  2.439E-04 0.000E+00

     total cpu time spent up to now is      264.0 secs

     total energy              =   -1842.82496859 Ry
     Harris-Foulkes estimate   =   -1842.82520169 Ry
     estimated scf accuracy    <       0.03529471 Ry

     iteration # 16     ecut=    60.00 Ry     beta= 0.50
     Davidson diagonalization with overlap
     ethr =  9.02E-06,  avg # of iterations =  1.5

     negative rho (up, down):  6.476E-04 0.000E+00

     total cpu time spent up to now is      278.5 secs

     total energy              =   -1842.82388359 Ry
     Harris-Foulkes estimate   =   -1842.82505496 Ry
     estimated scf accuracy    <       0.03305251 Ry

     iteration # 17     ecut=    60.00 Ry     beta= 0.50
     Davidson diagonalization with overlap
     ethr =  9.02E-06,  avg # of iterations =  3.2

     negative rho (up, down):  9.622E-03 0.000E+00

     total cpu time spent up to now is      295.0 secs

     total energy              =   -1842.82212803 Ry
     Harris-Foulkes estimate   =   -1842.82398721 Ry
     estimated scf accuracy    <       0.02393320 Ry

     iteration # 18     ecut=    60.00 Ry     beta= 0.50
     Davidson diagonalization with overlap
     c_bands:  1 eigenvalues not converged
     ethr =  9.02E-06,  avg # of iterations =  8.4

     negative rho (up, down):  7.274E-03 0.000E+00

     total cpu time spent up to now is      318.9 secs

     total energy              =   -1842.82193452 Ry
     Harris-Foulkes estimate   =   -1842.82233569 Ry
     estimated scf accuracy    <       0.00792645 Ry

     iteration # 19     ecut=    60.00 Ry     beta= 0.50
     Davidson diagonalization with overlap
     ethr =  3.49E-06,  avg # of iterations =  7.5

     negative rho (up, down):  7.209E-03 0.000E+00

     total cpu time spent up to now is      340.5 secs

     total energy              =   -1842.82185032 Ry
     Harris-Foulkes estimate   =   -1842.82199787 Ry
     estimated scf accuracy    <       0.00373448 Ry

     iteration # 20     ecut=    60.00 Ry     beta= 0.50
     Davidson diagonalization with overlap
     ethr =  1.65E-06,  avg # of iterations =  9.0

     negative rho (up, down):  1.770E-03 0.000E+00

     total cpu time spent up to now is      365.1 secs

     total energy              =   -1842.82178523 Ry
     Harris-Foulkes estimate   =   -1842.82189456 Ry
     estimated scf accuracy    <       0.00147308 Ry

     iteration # 21     ecut=    60.00 Ry     beta= 0.50
     Davidson diagonalization with overlap
     c_bands:  1 eigenvalues not converged
     c_bands:  1 eigenvalues not converged
     c_bands:  1 eigenvalues not converged
     c_bands:  1 eigenvalues not converged
     ethr =  6.49E-07,  avg # of iterations =  7.9

     negative rho (up, down):  1.213E-03 0.000E+00

     total cpu time spent up to now is      387.4 secs

     total energy              =   -1842.82180441 Ry
     Harris-Foulkes estimate   =   -1842.82182704 Ry
     estimated scf accuracy    <       0.00071646 Ry

     iteration # 22     ecut=    60.00 Ry     beta= 0.50
     Davidson diagonalization with overlap
     c_bands:  1 eigenvalues not converged
     c_bands:  1 eigenvalues not converged
     c_bands:  1 eigenvalues not converged
     ethr =  3.16E-07,  avg # of iterations =  8.2

     negative rho (up, down):  2.203E-03 0.000E+00

     total cpu time spent up to now is      409.8 secs

     total energy              =   -1842.82183482 Ry
     Harris-Foulkes estimate   =   -1842.82183849 Ry
     estimated scf accuracy    <       0.00022731 Ry

     iteration # 23     ecut=    60.00 Ry     beta= 0.50
     Davidson diagonalization with overlap
     c_bands:  1 eigenvalues not converged
     ethr =  1.00E-07,  avg # of iterations =  4.9

     negative rho (up, down):  1.933E-03 0.000E+00

     total cpu time spent up to now is      428.2 secs

     total energy              =   -1842.82183606 Ry
     Harris-Foulkes estimate   =   -1842.82184124 Ry
     estimated scf accuracy    <       0.00020742 Ry

     iteration # 24     ecut=    60.00 Ry     beta= 0.50
     Davidson diagonalization with overlap
     c_bands:  1 eigenvalues not converged
     ethr =  9.14E-08,  avg # of iterations =  3.4

     negative rho (up, down):  1.782E-03 0.000E+00

     total cpu time spent up to now is      444.9 secs

     total energy              =   -1842.82183599 Ry
     Harris-Foulkes estimate   =   -1842.82183935 Ry
     estimated scf accuracy    <       0.00019013 Ry

     iteration # 25     ecut=    60.00 Ry     beta= 0.50
     Davidson diagonalization with overlap
     ethr =  8.38E-08,  avg # of iterations =  1.0

     negative rho (up, down):  1.720E-03 0.000E+00

     total cpu time spent up to now is      459.0 secs

     total energy              =   -1842.82183363 Ry
     Harris-Foulkes estimate   =   -1842.82183759 Ry
     estimated scf accuracy    <       0.00008378 Ry

     iteration # 26     ecut=    60.00 Ry     beta= 0.50
     Davidson diagonalization with overlap
     ethr =  3.69E-08,  avg # of iterations =  1.3

     negative rho (up, down):  1.512E-03 0.000E+00

     total cpu time spent up to now is      473.3 secs

     total energy              =   -1842.82183089 Ry
     Harris-Foulkes estimate   =   -1842.82183464 Ry
     estimated scf accuracy    <       0.00001920 Ry

     iteration # 27     ecut=    60.00 Ry     beta= 0.50
     Davidson diagonalization with overlap
     ethr =  8.46E-09,  avg # of iterations =  3.4

     negative rho (up, down):  1.383E-03 0.000E+00

     total cpu time spent up to now is      489.9 secs

     total energy              =   -1842.82183071 Ry
     Harris-Foulkes estimate   =   -1842.82183140 Ry
     estimated scf accuracy    <       0.00002432 Ry

     iteration # 28     ecut=    60.00 Ry     beta= 0.50
     Davidson diagonalization with overlap
     ethr =  8.46E-09,  avg # of iterations =  1.0

     negative rho (up, down):  1.318E-03 0.000E+00

     total cpu time spent up to now is      503.8 secs

     total energy              =   -1842.82183105 Ry
     Harris-Foulkes estimate   =   -1842.82183119 Ry
     estimated scf accuracy    <       0.00001013 Ry

     iteration # 29     ecut=    60.00 Ry     beta= 0.50
     Davidson diagonalization with overlap
     ethr =  4.46E-09,  avg # of iterations =  1.0

     negative rho (up, down):  1.356E-03 0.000E+00

     total cpu time spent up to now is      517.9 secs

     total energy              =   -1842.82183114 Ry
     Harris-Foulkes estimate   =   -1842.82183123 Ry
     estimated scf accuracy    <       0.00000180 Ry

     iteration # 30     ecut=    60.00 Ry     beta= 0.50
     Davidson diagonalization with overlap
     ethr =  7.92E-10,  avg # of iterations =  2.0

     negative rho (up, down):  1.373E-03 0.000E+00

     total cpu time spent up to now is      532.9 secs

     total energy              =   -1842.82183116 Ry
     Harris-Foulkes estimate   =   -1842.82183122 Ry
     estimated scf accuracy    <       0.00000052 Ry

     iteration # 31     ecut=    60.00 Ry     beta= 0.50
     Davidson diagonalization with overlap
     ethr =  2.28E-10,  avg # of iterations =  2.9

     negative rho (up, down):  1.421E-03 0.000E+00

     total cpu time spent up to now is      549.2 secs

     total energy              =   -1842.82183105 Ry
     Harris-Foulkes estimate   =   -1842.82183119 Ry
     estimated scf accuracy    <       0.00000065 Ry

     iteration # 32     ecut=    60.00 Ry     beta= 0.50
     Davidson diagonalization with overlap
     ethr =  2.28E-10,  avg # of iterations =  1.1

     negative rho (up, down):  1.450E-03 0.000E+00

     total cpu time spent up to now is      563.3 secs

     total energy              =   -1842.82183101 Ry
     Harris-Foulkes estimate   =   -1842.82183106 Ry
     estimated scf accuracy    <       0.00000010 Ry

     iteration # 33     ecut=    60.00 Ry     beta= 0.50
     Davidson diagonalization with overlap
     ethr =  4.37E-11,  avg # of iterations =  2.6

     negative rho (up, down):  1.460E-03 0.000E+00

     total cpu time spent up to now is      579.4 secs

     total energy              =   -1842.82183101 Ry
     Harris-Foulkes estimate   =   -1842.82183102 Ry
     estimated scf accuracy    <       0.00000003 Ry

     iteration # 34     ecut=    60.00 Ry     beta= 0.50
     Davidson diagonalization with overlap
     ethr =  1.37E-11,  avg # of iterations =  2.8

     negative rho (up, down):  1.470E-03 0.000E+00

     total cpu time spent up to now is      595.8 secs

     total energy              =   -1842.82183099 Ry
     Harris-Foulkes estimate   =   -1842.82183101 Ry
     estimated scf accuracy    <       0.00000001 Ry

     iteration # 35     ecut=    60.00 Ry     beta= 0.50
     Davidson diagonalization with overlap
     ethr =  4.63E-12,  avg # of iterations =  2.1

     negative rho (up, down):  1.484E-03 0.000E+00

     total cpu time spent up to now is      610.4 secs

     End of self-consistent calculation

          k = 0.0000 0.0000 0.0000 ( 35431 PWs)   bands (ev):

   -35.7299 -35.5570 -24.2052 -22.9257 -22.9242 -22.7117 -17.2339 -17.0363
   -16.7811 -16.7696 -16.6224 -16.6040 -15.4428 -15.3114 -15.1188 -14.8069
   -14.7982 -14.7148 -14.4844 -14.3157 -14.3108 -14.1197 -14.0908 -13.9706
   -13.9569 -13.8387 -13.6240  -9.4529  -9.0459  -8.9649  -8.0573  -8.0539
    -8.0194  -8.0185  -7.8987  -7.8265  -7.8250  -7.7551  -7.5892  -2.4655
    -2.4638  -2.2975  -1.9649  -1.9589  -1.9125  -1.8075  -1.7674  -1.6843
    -1.6790  -1.6254  -1.5570  -1.3759  -1.3567  -1.3546  -1.3277  -1.0954
    -0.8907  -0.8869  -0.5945  -0.5927  -0.5154  -0.5103  -0.4732  -0.4207
    -0.4180  -0.4108  -0.4006  -0.3987  -0.3888  -0.3697  -0.2926  -0.2844
    -0.2544  -0.2430  -0.1731  -0.1712  -0.0373  -0.0358  -0.0352  -0.0317
    -0.0033   0.0368   0.0699   0.0780   0.1579   0.1851   0.2571   0.2627
     0.4847   0.5035   0.5986   0.7468   0.7476   0.8060   0.8303   1.0440
     1.0947   1.1040   1.2093   1.2433   1.2573   1.2693   1.3437   1.3599
     1.4455   1.5517   1.5670   1.6542   1.6820   1.8466   1.8769   1.8850
     1.8959   1.9026   2.0315   2.0668   2.0758   2.3916   2.3995   4.6298
     5.0760   5.0854   5.3361   5.9063   6.2636   6.5954   6.6286   6.7134
     7.2289   7.6956   7.8426   7.9895   8.1495   8.3019   8.4294   8.5290
     8.7600

          k = 0.0000 0.1320 0.0000 ( 35365 PWs)   bands (ev):

   -35.7281 -35.5551 -24.1842 -22.8990 -22.8975 -22.6863 -17.1978 -16.9999
   -16.8421 -16.7787 -16.6759 -16.6200 -15.3539 -15.2318 -15.0643 -14.8124
   -14.7972 -14.6873 -14.4550 -14.3253 -14.3165 -14.1241 -14.1064 -14.0239
   -14.0065 -13.8979 -13.6473  -9.4424  -9.0093  -9.0067  -8.0568  -8.0538
    -7.9716  -7.9707  -7.8969  -7.8680  -7.8668  -7.7100  -7.6375  -2.5227
    -2.5219  -2.3590  -2.2867  -2.2851  -2.1816  -2.0061  -1.9314  -1.7868
    -1.7803  -1.7789  -1.7504  -1.6669  -1.5017  -1.3918  -1.3615  -1.3486
    -0.9390  -0.8099  -0.7657  -0.7548  -0.7494  -0.6919  -0.6901  -0.5970
    -0.5953  -0.4840  -0.3990  -0.3290  -0.3190  -0.2953  -0.2840  -0.2821
    -0.2746  -0.1755  -0.1519  -0.1498  -0.1307  -0.0728  -0.0131  -0.0121
    -0.0047   0.0301   0.1245   0.1418   0.1816   0.2279   0.3036   0.3537
     0.3927   0.6373   0.7508   0.8845   0.9271   0.9446   0.9447   0.9999
     1.0209   1.0381   1.0818   1.1949   1.2715   1.3171   1.3498   1.3816
     1.4707   1.5236   1.6365   1.6396   1.6464   1.6612   1.8195   1.8602
     1.8618   1.8790   2.1495   2.1834   2.5729   2.6793   2.6935   4.9275
     5.4549   5.4596   5.6236   6.2294   6.4935   6.8470   6.9327   6.9713
     7.4246   7.8550   8.0149   8.1679   8.3427   8.4263   8.5823   8.6090
     8.7640

          k = 0.0000 0.2640 0.0000 ( 35261 PWs)   bands (ev):

   -35.7237 -35.5507 -24.1328 -22.8331 -22.8316 -22.6235 -17.1058 -16.9963
   -16.9079 -16.8286 -16.7731 -16.6144 -15.1526 -15.0718 -14.9203 -14.8622
   -14.8162 -14.6261 -14.3906 -14.3131 -14.2868 -14.1755 -14.1623 -14.1465
   -14.1404 -13.9909 -13.7050  -9.4116  -9.0995  -8.9183  -8.0562  -8.0539
    -7.9592  -7.9574  -7.8914  -7.8511  -7.8502  -7.7420  -7.5968  -2.9777
    -2.9548  -2.9373  -2.7621  -2.5694  -2.5627  -2.5438  -2.4173  -2.4152
    -2.2899  -1.8749  -1.7322  -1.7026  -1.6117  -1.6073  -1.5970  -1.3177
    -1.1735  -1.1245  -1.0622  -1.0622  -0.9418  -0.9415  -0.7883  -0.7771
    -0.7490  -0.6825  -0.6642  -0.6341  -0.6316  -0.6013  -0.5070  -0.4705
    -0.3407  -0.3116  -0.1236  -0.1218  -0.1119  -0.0421  -0.0241   0.0762
     0.1028   0.2328   0.3011   0.3702   0.4750   0.4774   0.5504   0.5645
     0.6134   0.7595   0.8021   0.8288   0.9225   0.9986   1.0176   1.0293
     1.0302   1.0714   1.1399   1.1506   1.1854   1.3088   1.4229   1.4323
     1.5540   1.5776   1.5845   1.7568   1.7730   1.8373   1.8392   1.8549
     1.9274   1.9606   2.2625   2.3015   2.9029   2.9052   3.4297   5.5365
     6.3513   6.3524   6.3672   6.7425   7.1655   7.3727   7.7535   7.7591
     7.9473   8.1253   8.5115   8.5952   8.6776   8.7492   8.8284   8.8762
     8.9317

          k = 0.0000 0.3960 0.0000 ( 35206 PWs)   bands (ev):

   -35.7193 -35.5463 -24.0801 -22.7649 -22.7635 -22.5587 -17.1326 -17.0041
   -16.9650 -16.8050 -16.7674 -16.6087 -15.0691 -15.0600 -14.8252 -14.7416
   -14.7267 -14.5908 -14.3617 -14.3487 -14.3080 -14.2486 -14.2364 -14.2302
   -14.1274 -14.0502 -13.7878  -9.3627  -9.1947  -8.8234  -8.0562  -8.0539
    -8.0373  -8.0354  -7.8860  -7.8329  -7.7227  -7.7217  -7.4768  -3.6813
    -3.4241  -3.4170  -3.2048  -3.1335  -3.1299  -2.9918  -2.5077  -2.5058
    -2.3145  -2.2218  -1.9434  -1.9401  -1.6677  -1.6384  -1.5354  -1.4077
    -1.3438  -1.2569  -1.2553  -1.2239  -1.2088  -1.2007  -1.0065  -0.9783
    -0.9642  -0.8870  -0.8809  -0.8516  -0.8206  -0.7258  -0.6736  -0.4854
    -0.3956  -0.3442  -0.3100  -0.1065  -0.1046  -0.0097  -0.0084   0.0252
     0.0927   0.3491   0.3677   0.4169   0.4174   0.4374   0.6381   0.7841
     0.7884   0.7900   0.8257   0.8467   0.9419   0.9441   0.9998   1.0014
     1.0791   1.1205   1.2536   1.2949   1.4817   1.4899   1.5818   1.6044
     1.6352   1.7536   1.7646   1.7968   1.8197   1.8487   2.0423   2.0641
     2.2061   2.2321   2.2335   2.2519   2.7967   2.7986   3.9935   6.0201
     6.5642   7.2991   7.3000   7.4668   8.0172   8.1167   8.2740   8.5322
     8.5505   8.5798   8.9459   8.9475   8.9983   9.0894   9.1212   9.1884
     9.2785

          k = 0.0000-0.5279 0.0000 ( 35270 PWs)   bands (ev):

   -35.7174 -35.5445 -24.0578 -22.7360 -22.7345 -22.5313 -17.1847 -17.0167
   -16.9592 -16.7651 -16.7602 -16.6064 -15.1112 -15.1043 -14.7100 -14.6618
   -14.6272 -14.5395 -14.5024 -14.3984 -14.3548 -14.2722 -14.2143 -14.2074
   -14.0865 -14.0589 -13.8532  -9.3184  -9.2542  -8.7828  -8.0670  -8.0651
    -8.0558  -8.0534  -7.8779  -7.8732  -7.6667  -7.6658  -7.4247  -3.9495
    -3.6024  -3.5967  -3.3786  -3.3640  -3.3541  -3.1613  -2.5238  -2.5220
    -2.3500  -2.3232  -2.0738  -2.0717  -1.6391  -1.6020  -1.5468  -1.4367
    -1.3943  -1.3437  -1.3365  -1.3311  -1.2953  -1.1834  -1.1297  -1.0963
    -1.0625  -0.9732  -0.9715  -0.9282  -0.9089  -0.7457  -0.7143  -0.4580
    -0.4122  -0.3813  -0.3394  -0.1009  -0.0990  -0.0158   0.0003   0.0340
     0.0933   0.2747   0.2796   0.3302   0.4021   0.4317   0.6729   0.6959
     0.7161   0.8380   0.8752   0.9285   0.9680   0.9828   0.9844   1.0655
     1.1923   1.2528   1.2604   1.2736   1.5979   1.5984   1.6022   1.6571
     1.8715   1.8760   1.8869   1.9238   1.9471   1.9753   1.9862   2.0695
     2.0761   2.2265   2.3936   2.3950   2.6172   2.6206   4.1759   6.0649
     6.8639   7.5307   7.7121   7.7137   8.0162   8.6604   8.8021   8.8315
     8.8637   8.8824   8.9366   9.0068   9.1096   9.1840   9.1983   9.2901
     9.3537

          k = 0.1250 0.0000 0.0000 ( 35357 PWs)   bands (ev):

   -35.7288 -35.5559 -24.1917 -22.9076 -22.9062 -22.6945 -17.2005 -17.0021
   -16.8612 -16.7682 -16.7039 -16.6026 -15.3403 -15.2193 -15.1389 -14.8527
   -14.8374 -14.7198 -14.4866 -14.3247 -14.3206 -14.1316 -14.1037 -14.0230
   -13.9874 -13.8702 -13.6333  -9.4772  -8.9908  -8.9412  -8.0830  -8.0801
    -7.9579  -7.9564  -7.9319  -7.7940  -7.7926  -7.6953  -7.5588  -2.5077
    -2.5066  -2.3233  -2.0075  -1.9968  -1.9485  -1.9430  -1.9345  -1.8831
    -1.6571  -1.6556  -1.5951  -1.5109  -1.3546  -1.3525  -1.3459  -1.1231
    -1.0019  -0.8853  -0.7656  -0.7512  -0.6513  -0.6480  -0.5263  -0.5086
    -0.4765  -0.4735  -0.4282  -0.4069  -0.4033  -0.3666  -0.3489  -0.3425
    -0.3155  -0.3043  -0.1982  -0.0468  -0.0445  -0.0425  -0.0247   0.0208
     0.0510   0.0603   0.0609   0.0875   0.1404   0.2271   0.2819   0.3597
     0.5760   0.6202   0.6536   0.6691   0.7026   0.8384   0.8897   0.9638
     1.0556   1.0762   1.0826   1.2239   1.2661   1.3152   1.3456   1.3610
     1.4858   1.5315   1.5557   1.6370   1.7738   1.7812   1.8394   1.8536
     1.9603   2.0096   2.0393   2.1140   2.1974   2.4321   2.4353   4.8394
     5.2601   5.2644   5.5257   6.1453   6.4367   6.7782   6.8426   6.8984
     7.3610   7.9861   7.9981   8.1185   8.2932   8.4675   8.5807   8.6813
     8.7889

          k = 0.1250 0.1320 0.0000 ( 35338 PWs)   bands (ev):

   -35.7270 -35.5541 -24.1712 -22.8818 -22.8803 -22.6697 -17.1654 -16.9668
   -16.8642 -16.8314 -16.7051 -16.6670 -15.2586 -15.1498 -15.0822 -14.8473
   -14.8253 -14.6900 -14.4499 -14.3257 -14.3202 -14.1357 -14.1208 -14.0593
   -14.0317 -13.9200 -13.6537  -9.4547  -9.1412  -8.8539  -8.1020  -8.1003
    -8.0201  -8.0179  -7.9271  -7.7901  -7.7560  -7.7548  -7.5183  -2.5596
    -2.5577  -2.3762  -2.2731  -2.2698  -2.1619  -1.9956  -1.9865  -1.9712
    -1.9408  -1.9189  -1.7742  -1.7729  -1.6293  -1.5127  -1.3887  -1.3748
    -1.0043  -0.9447  -0.9037  -0.8169  -0.8054  -0.7946  -0.7617  -0.6870
    -0.6372  -0.6369  -0.5206  -0.4098  -0.3620  -0.3588  -0.3198  -0.3144
    -0.2623  -0.1805  -0.1682  -0.1302  -0.1210   0.0097   0.0124   0.0384
     0.0421   0.0759   0.1319   0.1519   0.1775   0.2137   0.3326   0.3958
     0.5280   0.7778   0.7917   0.8964   0.9026   0.9319   1.0021   1.0310
     1.0725   1.0975   1.1321   1.1575   1.1659   1.2021   1.3314   1.4430
     1.4517   1.4724   1.5232   1.5277   1.6081   1.7098   1.7517   1.8745
     2.2068   2.2191   2.3700   2.5315   2.5875   2.6892   2.6984   5.0863
     5.5995   5.6014   5.7920   6.4078   6.6257   6.9662   7.1382   7.1594
     7.5703   7.9601   8.1568   8.2840   8.4022   8.4954   8.6291   8.7606
     8.8463

          k = 0.1250 0.2640 0.0000 ( 35247 PWs)   bands (ev):

   -35.7226 -35.5496 -24.1210 -22.8179 -22.8165 -22.6088 -17.0763 -16.9932
   -16.8780 -16.8439 -16.8254 -16.6864 -15.0822 -15.0250 -14.9307 -14.8497
   -14.7915 -14.6211 -14.3681 -14.3083 -14.2884 -14.1886 -14.1701 -14.1678
   -14.1317 -14.0031 -13.7024  -9.4092  -9.2805  -8.8423  -8.1710  -8.1696
    -8.0570  -8.0547  -7.9354  -7.8928  -7.7469  -7.7457  -7.5130  -2.9962
    -2.9750  -2.9306  -2.7733  -2.5715  -2.5632  -2.5453  -2.4166  -2.4146
    -2.2988  -1.9387  -1.9292  -1.9122  -1.8205  -1.6191  -1.6174  -1.5670
    -1.2319  -1.1362  -1.1213  -1.1145  -1.0606  -1.0481  -0.9872  -0.8285
    -0.8277  -0.8193  -0.7416  -0.7128  -0.6713  -0.6386  -0.5840  -0.4679
    -0.3392  -0.2990  -0.2813  -0.1736  -0.1494   0.0217   0.0518   0.0766
     0.2156   0.2317   0.3537   0.3573   0.4498   0.6066   0.6102   0.6544
     0.8187   0.8760   0.8849   0.9494   0.9784   0.9844   1.0806   1.1464
     1.1644   1.2011   1.2233   1.2370   1.2488   1.2896   1.3295   1.4140
     1.4524   1.4978   1.5638   1.7319   1.7885   1.8060   1.8165   1.9961
     2.4040   2.4141   2.6072   2.7298   2.9129   2.9228   3.4313   5.6392
     6.3650   6.4126   6.4134   6.7822   7.2453   7.4459   7.8941   7.9190
     7.9287   8.1495   8.6087   8.6584   8.7555   8.7674   8.8721   8.9516
     8.9824

          k = 0.1250 0.3960 0.0000 ( 35256 PWs)   bands (ev):

   -35.7182 -35.5452 -24.0695 -22.7520 -22.7505 -22.5460 -17.1275 -16.9776
   -16.9599 -16.8353 -16.7778 -16.6780 -15.0340 -15.0271 -14.7538 -14.7327
   -14.6651 -14.5700 -14.3407 -14.3198 -14.2890 -14.2803 -14.2309 -14.2239
   -14.1515 -14.0450 -13.7716  -9.3908  -9.3139  -8.8901  -8.2014  -8.1998
    -8.0685  -8.0662  -7.9866  -7.8932  -7.7919  -7.7909  -7.5528  -3.6689
    -3.4657  -3.4550  -3.2340  -3.1249  -3.1214  -3.0104  -2.5158  -2.5141
    -2.3277  -2.1642  -1.9271  -1.9211  -1.7919  -1.7663  -1.7293  -1.5079
    -1.4946  -1.4485  -1.4186  -1.3284  -1.2725  -1.2398  -1.1471  -1.0883
    -1.0103  -1.0032  -0.9887  -0.9176  -0.8922  -0.7889  -0.7109  -0.5198
    -0.4411  -0.3485  -0.2966  -0.1553  -0.1410   0.0519   0.0657   0.0750
     0.2009   0.2869   0.3504   0.5275   0.6172   0.6734   0.7649   0.7688
     0.8357   0.9207   0.9298   1.0332   1.0398   1.0590   1.0926   1.1208
     1.1702   1.2075   1.2954   1.4730   1.5217   1.5489   1.5811   1.6217
     1.6903   1.7637   1.7822   1.8305   1.9964   2.1330   2.1995   2.2006
     2.3513   2.3642   2.5568   2.6492   2.8537   2.8739   3.9876   6.0228
     6.4389   7.1635   7.1650   7.4207   7.8398   7.9852   8.1199   8.5124
     8.5307   8.5358   8.7851   8.9920   9.1512   9.1771   9.2350   9.3395
     9.4346

          k = 0.1250-0.5279 0.0000 ( 35232 PWs)   bands (ev):

   -35.7164 -35.5434 -24.0479 -22.7240 -22.7225 -22.5195 -17.1791 -17.0111
   -16.9343 -16.8316 -16.7345 -16.6743 -15.0665 -15.0603 -14.6373 -14.6205
   -14.5685 -14.5371 -14.4642 -14.3824 -14.3303 -14.3060 -14.2110 -14.2077
   -14.0793 -14.0709 -13.8253  -9.3765  -9.3200  -8.9194  -8.1961  -8.1942
    -8.0734  -8.0711  -7.9966  -7.8918  -7.8261  -7.8253  -7.5786  -3.9386
    -3.6515  -3.6421  -3.4113  -3.3548  -3.3501  -3.1863  -2.5369  -2.5351
    -2.3388  -2.2596  -1.9573  -1.9503  -1.7467  -1.7280  -1.6534  -1.6220
    -1.6170  -1.5582  -1.4971  -1.3825  -1.3581  -1.3151  -1.2443  -1.2027
    -1.0978  -1.0822  -1.0780  -1.0051  -0.9864  -0.8904  -0.6960  -0.5149
    -0.4398  -0.3608  -0.3057  -0.1367  -0.1125   0.0622   0.0775   0.0785
     0.2001   0.3074   0.3805   0.4543   0.5084   0.6052   0.7942   0.8110
     0.8200   0.8212   0.8823   1.0680   1.1257   1.1290   1.1467   1.1661
     1.2237   1.2405   1.3073   1.4990   1.6390   1.6946   1.8600   1.8864
     1.8871   1.8972   1.9399   2.0490   2.1076   2.2106   2.2111   2.2165
     2.3647   2.3659   2.4102   2.4950   2.7317   2.7598   4.1685   5.9417
     6.9846   7.1760   7.3857   7.3893   7.8304   8.1419   8.2097   8.7345
     8.8733   8.9727   9.1677   9.1814   9.2098   9.4241   9.5707   9.5775
     9.7013

          k = 0.2500 0.0000 0.0000 ( 35374 PWs)   bands (ev):

   -35.7262 -35.5532 -24.1586 -22.8633 -22.8618 -22.6522 -17.1154 -17.0252
   -16.9156 -16.8692 -16.7649 -16.5993 -15.1975 -15.1390 -15.0908 -14.9373
   -14.8747 -14.7445 -14.4968 -14.3391 -14.3368 -14.1953 -14.1498 -14.1313
   -14.0296 -13.9329 -13.6576  -9.5009  -8.8957  -8.8829  -8.0845  -8.0818
    -7.9555  -7.8710  -7.8700  -7.7133  -7.7118  -7.6117  -7.4833  -2.7005
    -2.6964  -2.5137  -2.3438  -2.3430  -2.2340  -2.1402  -1.8838  -1.8650
    -1.7920  -1.6150  -1.5921  -1.5299  -1.3975  -1.3513  -1.3492  -1.1968
    -1.1801  -1.0750  -0.9980  -0.9688  -0.9037  -0.9035  -0.7845  -0.7606
    -0.6683  -0.6649  -0.5656  -0.5440  -0.4638  -0.4452  -0.4064  -0.3860
    -0.3822  -0.3612  -0.3094  -0.1921  -0.0573  -0.0552  -0.0485   0.0487
     0.0507   0.1877   0.1898   0.2983   0.3144   0.3708   0.4131   0.4849
     0.5259   0.5645   0.6559   0.7051   0.7739   0.7928   0.8253   0.9127
     1.1411   1.1638   1.1701   1.1910   1.2220   1.2792   1.2934   1.3299
     1.4430   1.4549   1.6173   1.6589   1.7344   1.7442   1.8733   1.9031
     1.9466   2.0654   2.1481   2.3132   2.4392   2.5409   2.5424   5.3285
     5.7192   5.7200   6.0043   6.6778   6.9127   7.2081   7.4199   7.4397
     7.7439   8.1874   8.3525   8.3958   8.5755   8.8131   8.8868   8.8910
     9.1195

          k = 0.2500 0.1320 0.0000 ( 35315 PWs)   bands (ev):

   -35.7244 -35.5514 -24.1393 -22.8395 -22.8380 -22.6293 -17.0833 -17.0187
   -16.8846 -16.8614 -16.8310 -16.6651 -15.1339 -15.0877 -15.0541 -14.8892
   -14.8233 -14.7095 -14.4486 -14.3248 -14.3245 -14.1857 -14.1581 -14.1450
   -14.0645 -13.9611 -13.6718  -9.4776  -9.1697  -8.7845  -8.1528  -8.1513
    -8.0080  -8.0058  -7.9780  -7.7927  -7.6797  -7.6784  -7.4498  -2.7510
    -2.7418  -2.5505  -2.3354  -2.3353  -2.2335  -2.2304  -2.2244  -2.1346
    -2.0970  -1.9528  -1.9251  -1.7651  -1.7634  -1.5710  -1.4790  -1.4726
    -1.1742  -1.1506  -1.1383  -1.0767  -1.0217  -0.9687  -0.8420  -0.8132
    -0.7833  -0.7519  -0.7432  -0.6351  -0.5064  -0.4782  -0.4139  -0.3516
    -0.3194  -0.2072  -0.1668  -0.1615  -0.1236  -0.0231  -0.0064   0.0636
     0.0660   0.1884   0.1946   0.2335   0.2822   0.4609   0.5265   0.6379
     0.6964   0.7559   0.7753   0.7815   0.9111   0.9277   1.0014   1.0525
     1.0706   1.1049   1.2305   1.2496   1.2774   1.2804   1.3266   1.3460
     1.3477   1.4179   1.5857   1.5961   1.6308   1.7300   1.8694   1.9294
     2.5215   2.5478   2.6359   2.7192   2.7337   2.7649   2.9116   5.4905
     5.9801   5.9810   6.2045   6.6957   7.0510   7.3068   7.6768   7.6843
     7.8557   8.0548   8.4521   8.4831   8.6695   8.7265   8.9277   9.0087
     9.1005

          k = 0.2500 0.2640 0.0000 ( 35309 PWs)   bands (ev):

   -35.7200 -35.5470 -24.0921 -22.7808 -22.7793 -22.5729 -17.0194 -16.9943
   -16.9675 -16.8570 -16.8057 -16.7954 -14.9968 -14.9858 -14.9611 -14.7510
   -14.6948 -14.6228 -14.3229 -14.3001 -14.2970 -14.2279 -14.1922 -14.1764
   -14.1136 -14.0264 -13.6986  -9.4811  -9.4041  -8.8925  -8.3729  -8.3716
    -8.1336  -8.0696  -8.0674  -7.9058  -7.7995  -7.7981  -7.5727  -3.1317
    -3.1013  -2.9171  -2.8585  -2.6025  -2.5765  -2.5647  -2.4482  -2.4476
    -2.3783  -2.3050  -2.3041  -2.2078  -2.0644  -1.8379  -1.5900  -1.5572
    -1.5570  -1.5413  -1.4385  -1.2718  -1.2134  -1.1180  -1.0490  -1.0108
    -0.8704  -0.8559  -0.7854  -0.7351  -0.7325  -0.7267  -0.6765  -0.5503
    -0.4879  -0.4228  -0.3161  -0.1400  -0.1174  -0.0835   0.1753   0.1799
     0.2832   0.3738   0.4474   0.6449   0.6526   0.6980   0.7846   0.8246
     0.8258   0.9766   1.0828   1.0940   1.1312   1.2049   1.2168   1.2227
     1.2522   1.3216   1.3450   1.3534   1.3728   1.4206   1.4267   1.4707
     1.5409   1.5430   1.6074   1.7213   1.7217   1.8372   1.9062   2.0457
     2.8500   2.8515   3.1340   3.1505   3.2767   3.4235   3.4396   5.8978
     6.1438   6.5231   6.5234   6.9726   7.4383   7.5728   7.9350   8.2095
     8.2109   8.3743   8.5913   8.7247   8.9009   8.9526   9.0424   9.1157
     9.1898

          k = 0.2500 0.3960 0.0000 ( 35278 PWs)   bands (ev):

   -35.7157 -35.5427 -24.0439 -22.7204 -22.7189 -22.5151 -17.1154 -16.9834
   -16.9480 -16.9089 -16.8272 -16.7084 -14.9526 -14.9489 -14.7293 -14.5798
   -14.5550 -14.5299 -14.3553 -14.3089 -14.2485 -14.2362 -14.2174 -14.1977
   -14.1710 -14.0391 -13.7306  -9.6384  -9.3514  -9.1044  -8.4930  -8.4914
    -8.2645  -8.1199  -8.1180  -8.0134  -8.0119  -7.9241  -7.7905  -3.6545
    -3.6127  -3.6004  -3.3507  -3.1079  -3.1006  -3.0838  -2.5863  -2.5860
    -2.4102  -2.2679  -2.2668  -2.1825  -2.0400  -2.0079  -1.9170  -1.9031
    -1.7411  -1.6030  -1.5991  -1.5170  -1.4857  -1.2988  -1.2857  -1.0711
    -0.9896  -0.9619  -0.9381  -0.9260  -0.9257  -0.7966  -0.6947  -0.6849
    -0.6014  -0.5565  -0.3779  -0.1255  -0.0261   0.0334   0.2136   0.2421
     0.3781   0.5094   0.6743   0.8419   0.8422   0.8556   0.9486   1.0532
     1.1235   1.1518   1.1818   1.1841   1.2031   1.3127   1.3507   1.3606
     1.3917   1.4600   1.5327   1.5772   1.6193   1.6223   1.6754   1.6834
     1.7175   1.7740   1.8346   1.8443   2.1163   2.1217   2.1221   2.1460
     2.6816   2.6837   3.3625   3.3920   3.5153   3.6418   3.9697   5.6671
     6.4229   6.7304   6.7323   7.2761   7.5698   7.6154   7.9288   8.5615
     8.6592   8.6716   8.8976   9.1591   9.2805   9.4066   9.5394   9.6101
     9.6715

          k = 0.2500-0.5279 0.0000 ( 35312 PWs)   bands (ev):

   -35.7138 -35.5408 -24.0237 -22.6948 -22.6933 -22.4906 -17.1656 -16.9978
   -16.9779 -16.8694 -16.8219 -16.6689 -14.9493 -14.9452 -14.5346 -14.5182
   -14.4992 -14.4826 -14.3771 -14.3732 -14.3486 -14.2567 -14.2040 -14.2021
   -14.0920 -14.0386 -13.7559  -9.6691  -9.3259  -9.2216  -8.4932  -8.4912
    -8.2840  -8.2079  -8.2068  -8.0797  -8.0775  -7.9394  -7.9011  -3.9177
    -3.8207  -3.8008  -3.5431  -3.3329  -3.3283  -3.2799  -2.5939  -2.5933
    -2.4055  -2.2322  -2.2282  -2.1631  -2.1293  -2.0600  -2.0572  -1.9560
    -1.8392  -1.7040  -1.6498  -1.5738  -1.5456  -1.3831  -1.3759  -1.0930
    -1.0755  -1.0425  -1.0090  -0.9514  -0.9407  -0.8767  -0.7069  -0.6672
    -0.6356  -0.5790  -0.3787  -0.1228   0.0051   0.0803   0.2248   0.2880
     0.4898   0.5444   0.7543   0.8669   0.9230   0.9451   0.9470   0.9643
     1.0638   1.0905   1.2096   1.2967   1.3422   1.3610   1.3641   1.4283
     1.4678   1.4826   1.4977   1.6755   1.7708   1.8222   1.8396   1.8794
     1.8877   1.9187   1.9382   2.0172   2.1893   2.2376   2.2970   2.2979
     2.4594   2.4622   3.3822   3.4184   3.5512   3.6724   4.1399   5.4695
     6.6896   6.6957   6.8315   7.1735   7.5216   7.6128   7.6679   8.4774
     8.9948   9.1091   9.3830   9.3937   9.4500   9.7085   9.8158   9.8633
     9.9050

          k = 0.3750 0.0000 0.0000 ( 35310 PWs)   bands (ev):

   -35.7235 -35.5506 -24.1249 -22.8179 -22.8164 -22.6089 -17.1651 -17.0201
   -17.0114 -16.8167 -16.7616 -16.5960 -15.2704 -15.1783 -15.1728 -14.7937
   -14.7583 -14.7528 -14.4647 -14.3584 -14.3437 -14.3253 -14.2424 -14.1777
   -14.0640 -13.9794 -13.6890  -9.4964  -8.8336  -8.8229  -8.0669  -8.0644
    -7.9477  -7.8061  -7.8052  -7.6290  -7.6274  -7.5629  -7.4046  -3.0286
    -3.0217  -2.8606  -2.5493  -2.4673  -2.4660  -2.2708  -1.8031  -1.7681
    -1.7227  -1.6669  -1.6456  -1.4922  -1.4608  -1.3744  -1.3529  -1.3508
    -1.2808  -1.1786  -1.1542  -1.1447  -1.0965  -1.0277  -1.0269  -0.9786
    -0.8680  -0.8650  -0.7724  -0.7468  -0.5899  -0.5281  -0.4599  -0.4411
    -0.3792  -0.3775  -0.3495  -0.2694  -0.0883  -0.0701  -0.0681   0.0401
     0.0406   0.2660   0.2689   0.2891   0.2937   0.3019   0.3655   0.4303
     0.4527   0.6131   0.7147   0.8015   0.8102   0.8589   1.0487   1.0488
     1.0601   1.0791   1.1632   1.2042   1.2157   1.2330   1.3682   1.4191
     1.4977   1.6222   1.6226   1.6567   1.7143   1.7654   1.8843   1.9935
     2.0387   2.0966   2.1838   2.4222   2.4663   2.6590   2.6617   5.8568
     6.3686   6.3695   6.4095   7.0544   7.6245   7.6599   7.8644   7.8670
     7.9698   8.3361   8.4146   8.5551   8.9844   9.1859   9.2065   9.3080
     9.3763

          k = 0.3750 0.1320 0.0000 ( 35339 PWs)   bands (ev):

   -35.7218 -35.5488 -24.1069 -22.7962 -22.7947 -22.5879 -17.1566 -17.0027
   -16.9910 -16.8260 -16.7875 -16.6601 -15.1981 -15.1307 -15.1258 -14.7541
   -14.7144 -14.6912 -14.4139 -14.3243 -14.3205 -14.2974 -14.2259 -14.1711
   -14.1001 -13.9877 -13.6999  -9.4760  -9.1065  -8.8358  -8.1243  -8.1225
    -7.9742  -7.9686  -7.9679  -7.7429  -7.7186  -7.7171  -7.4977  -3.0909
    -3.0782  -2.9050  -2.5715  -2.4660  -2.4648  -2.2838  -2.1801  -2.1524
    -2.0096  -1.9518  -1.8610  -1.7537  -1.7518  -1.6236  -1.5622  -1.5618
    -1.4482  -1.4413  -1.3551  -1.2445  -1.0870  -1.0531  -0.9651  -0.9348
    -0.8836  -0.8457  -0.8169  -0.7678  -0.6599  -0.5555  -0.5370  -0.4044
    -0.3984  -0.1989  -0.1819  -0.1189  -0.0881  -0.0184   0.0011   0.0503
     0.0541   0.1508   0.2963   0.3050   0.3239   0.5217   0.5541   0.6085
     0.6667   0.7023   0.8200   0.8864   0.9156   1.0220   1.0353   1.0747
     1.0971   1.1609   1.1878   1.2245   1.2351   1.2756   1.3988   1.4510
     1.5438   1.5806   1.6106   1.6433   1.6768   1.8958   1.9268   2.0386
     2.5921   2.6151   2.6662   2.8088   2.8413   2.9850   3.0759   5.9445
     6.4132   6.5182   6.5186   6.8939   7.6731   7.7014   7.9154   7.9298
     7.9310   8.3467   8.5066   8.6644   8.8897   9.0422   9.1593   9.3276
     9.3696

          k = 0.3750 0.2640 0.0000 ( 35367 PWs)   bands (ev):

   -35.7174 -35.5444 -24.0629 -22.7429 -22.7414 -22.5364 -17.1362 -16.9821
   -16.9704 -16.9158 -16.8033 -16.7130 -15.0114 -15.0057 -14.9966 -14.6588
   -14.6122 -14.5419 -14.3187 -14.2849 -14.2608 -14.2517 -14.1914 -14.1626
   -14.1383 -14.0269 -13.7065  -9.5406  -9.4001  -9.0784  -8.4257  -8.4242
    -8.1907  -8.1043  -8.1025  -7.9819  -7.9801  -7.9195  -7.7731  -3.4082
    -3.3705  -3.1429  -2.8766  -2.7921  -2.6370  -2.6296  -2.5173  -2.5169
    -2.4999  -2.3878  -2.3857  -2.3266  -2.2611  -1.9218  -1.8704  -1.8266
    -1.7215  -1.5031  -1.4075  -1.3580  -1.2777  -1.1021  -1.0651  -1.0243
    -1.0047  -0.9821  -0.8506  -0.7871  -0.7843  -0.7157  -0.6991  -0.6367
    -0.5161  -0.5105  -0.4079  -0.0737  -0.0573   0.0478   0.2488   0.2895
     0.3720   0.4926   0.5543   0.6810   0.6927   0.8701   0.8712   0.9325
     1.0135   1.0541   1.0924   1.1103   1.2276   1.2582   1.2954   1.3267
     1.3370   1.3576   1.4415   1.4845   1.4975   1.5414   1.5836   1.6174
     1.6185   1.6564   1.6765   1.6832   1.8402   1.8878   1.9906   2.1109
     2.8500   2.8526   3.4450   3.5884   3.5973   3.7074   3.8356   5.7375
     6.3069   6.5635   6.5640   7.0193   7.4968   7.5589   8.1617   8.2684
     8.2769   8.5511   8.7484   8.8398   9.0393   9.2800   9.3180   9.4440
     9.4709

          k = 0.3750 0.3960 0.0000 ( 35343 PWs)   bands (ev):

   -35.7131 -35.5401 -24.0180 -22.6882 -22.6867 -22.4836 -17.1189 -17.0971
   -16.9630 -16.9315 -16.8361 -16.6331 -14.8747 -14.8729 -14.7284 -14.5671
   -14.5198 -14.3843 -14.3693 -14.3107 -14.2162 -14.2124 -14.1685 -14.1390
   -14.0884 -14.0558 -13.6918  -9.8505  -9.3822  -9.3397  -8.6915  -8.6897
    -8.4636  -8.3565  -8.3554  -8.1071  -8.1044  -8.0816  -7.9484  -3.8881
    -3.8426  -3.6330  -3.5485  -3.2569  -3.0817  -3.0800  -2.7672  -2.7667
    -2.6177  -2.4167  -2.4142  -2.3919  -2.2722  -2.2351  -2.1691  -2.0134
    -1.9020  -1.7899  -1.5174  -1.3526  -1.3447  -1.3423  -1.3365  -1.0975
    -1.0806  -1.0087  -0.9938  -0.9697  -0.9198  -0.8426  -0.7638  -0.6675
    -0.6251  -0.5303  -0.5298   0.0058   0.0872   0.1152   0.3143   0.4798
     0.6731   0.7037   0.8872   1.0205   1.0208   1.0950   1.1480   1.2108
     1.2532   1.2600   1.3450   1.3473   1.4130   1.4698   1.5353   1.5445
     1.6038   1.6251   1.6272   1.6644   1.6887   1.7997   1.8025   1.8284
     1.8614   1.8839   1.9292   1.9613   2.0436   2.0437   2.1641   2.3474
     2.6696   2.6742   3.9359   4.1097   4.1148   4.1887   4.3107   5.1610
     6.2601   6.2604   6.5739   7.1139   7.2402   7.2671   8.0363   8.3713
     8.8443   8.8651   9.1765   9.3544   9.3906   9.4133   9.4441   9.5444
     9.5955

          k = 0.3750-0.5279 0.0000 ( 35336 PWs)   bands (ev):

   -35.7113 -35.5383 -23.9992 -22.6652 -22.6637 -22.4613 -17.1522 -17.1063
   -16.9847 -16.9522 -16.8007 -16.5979 -14.8133 -14.8125 -14.5406 -14.5273
   -14.4907 -14.4280 -14.3268 -14.2920 -14.2890 -14.1961 -14.1941 -14.1487
   -14.0347 -14.0248 -13.6836  -9.9613  -9.4999  -9.3282  -8.7735  -8.7715
    -8.5595  -8.5016  -8.5007  -8.2101  -8.1328  -8.1299  -7.9625  -4.0951
    -4.0488  -3.8955  -3.7546  -3.4605  -3.3069  -3.3052  -2.7857  -2.7853
    -2.6297  -2.4125  -2.4084  -2.3895  -2.3427  -2.2768  -2.2736  -2.0901
    -1.9500  -1.8950  -1.5883  -1.4569  -1.4514  -1.3769  -1.3698  -1.0969
    -1.0926  -1.0889  -1.0719  -1.0328  -0.9615  -0.8648  -0.8466  -0.6554
    -0.6243  -0.5179  -0.5162   0.0402   0.1038   0.1529   0.3316   0.5629
     0.7730   0.8369   1.0324   1.1313   1.1334   1.1615   1.2056   1.2193
     1.2594   1.3094   1.4223   1.4840   1.5325   1.5418   1.6266   1.6354
     1.6470   1.6915   1.8251   1.8336   1.8550   1.8774   1.9052   1.9386
     1.9567   2.0037   2.0643   2.1367   2.2312   2.2318   2.2355   2.4248
     2.4316   2.4859   4.0644   4.2575   4.2624   4.3362   4.4517   4.9312
     6.0827   6.0831   6.7134   7.1055   7.1092   7.1988   7.9373   8.1930
     8.9894   9.0174   9.2221   9.2758   9.3621   9.5651   9.6255   9.7152
     9.7180

          k =-0.5000 0.0000 0.0000 ( 35302 PWs)   bands (ev):

   -35.7225 -35.5495 -24.1108 -22.7987 -22.7972 -22.5907 -17.2175 -17.0642
   -16.9779 -16.7732 -16.7602 -16.5946 -15.3056 -15.2333 -15.2288 -14.8184
   -14.7309 -14.5520 -14.4621 -14.3581 -14.3532 -14.3441 -14.3097 -14.2454
   -14.0737 -13.9954 -13.7050  -9.4887  -8.8153  -8.7975  -8.0567  -8.0541
    -7.9384  -7.7830  -7.7821  -7.5928  -7.5912  -7.5494  -7.3711  -3.1706
    -3.1641  -3.0041  -2.7041  -2.4924  -2.4909  -2.2685  -1.7932  -1.7560
    -1.7499  -1.7102  -1.5189  -1.4905  -1.4515  -1.4053  -1.3567  -1.3547
    -1.3175  -1.3129  -1.2867  -1.2104  -1.1391  -1.1391  -1.0436  -0.9591
    -0.9504  -0.9485  -0.8676  -0.8658  -0.6553  -0.5836  -0.4652  -0.4495
    -0.4206  -0.3775  -0.3541  -0.2811  -0.0830  -0.0754  -0.0734   0.0050
     0.0071   0.2660   0.2682   0.2879   0.2912   0.2969   0.2977   0.3787
     0.4184   0.6749   0.7787   0.8039   0.8354   0.8906   0.9936   0.9983
     0.9987   1.1406   1.2255   1.2359   1.2539   1.3463   1.4520   1.5168
     1.5189   1.5192   1.5381   1.7267   1.7375   1.8082   2.0085   2.0360
     2.0423   2.1106   2.1891   2.4263   2.4412   2.6837   2.6955   6.2651
     6.2984   7.1414   7.1423   7.1931   7.1942   7.2429   7.7138   8.1244
     8.4029   8.4405   8.5082   8.8958   9.0380   9.1325   9.3129   9.3306
     9.3865

          k =-0.5000 0.1320 0.0000 ( 35362 PWs)   bands (ev):

   -35.7207 -35.5477 -24.0933 -22.7780 -22.7764 -22.5705 -17.2083 -17.0549
   -16.9505 -16.8239 -16.7456 -16.6580 -15.2295 -15.1761 -15.1725 -14.7772
   -14.6930 -14.5092 -14.4035 -14.3269 -14.3227 -14.3169 -14.2779 -14.2128
   -14.1118 -13.9959 -13.7164  -9.4675  -9.0136  -8.9331  -8.0955  -8.0933
    -7.9579  -7.9124  -7.9115  -7.7959  -7.7940  -7.6702  -7.5851  -3.2393
    -3.2272  -3.0564  -2.7322  -2.4973  -2.4959  -2.2963  -2.1482  -2.1171
    -1.9638  -1.9344  -1.8189  -1.7485  -1.7465  -1.6540  -1.5931  -1.5903
    -1.5632  -1.5555  -1.4632  -1.2821  -1.1487  -1.0980  -1.0060  -1.0043
    -0.9031  -0.8349  -0.8108  -0.7965  -0.7607  -0.5924  -0.5778  -0.4279
    -0.4265  -0.2113  -0.1899  -0.0942  -0.0426  -0.0282   0.0107   0.0457
     0.0488   0.1048   0.3307   0.3783   0.3796   0.4467   0.4752   0.5736
     0.6663   0.6858   0.7693   0.9035   0.9450   1.0293   1.0312   1.0810
     1.1350   1.1430   1.1460   1.2498   1.2944   1.3617   1.4880   1.5011
     1.5467   1.5817   1.5879   1.7324   1.7723   1.9087   2.0214   2.1249
     2.6031   2.6177   2.6678   2.8273   2.8627   3.0390   3.1051   6.1950
     6.3593   6.9536   6.9897   6.9924   7.4966   7.4984   7.8445   8.0318
     8.1187   8.3291   8.6416   8.9668   8.9691   9.1518   9.4097   9.4868
     9.6122

          k =-0.5000 0.2640 0.0000 ( 35376 PWs)   bands (ev):

   -35.7164 -35.5434 -24.0507 -22.7270 -22.7255 -22.5210 -17.1863 -17.0328
   -16.9671 -16.8794 -16.8001 -16.6753 -15.0327 -15.0233 -15.0113 -14.6788
   -14.6042 -14.4011 -14.3024 -14.2808 -14.2677 -14.2614 -14.1907 -14.1825
   -14.1284 -14.0191 -13.7173  -9.5046  -9.3986  -9.2141  -8.3645  -8.3626
    -8.2135  -8.2127  -8.1436  -8.0454  -8.0430  -7.9510  -7.9001  -3.5465
    -3.5091  -3.2878  -2.9320  -2.8691  -2.6626  -2.6560  -2.5322  -2.5269
    -2.5129  -2.3970  -2.3936  -2.3571  -2.2657  -2.0443  -1.9868  -1.8273
    -1.8168  -1.5870  -1.3525  -1.2718  -1.2488  -1.1054  -1.1037  -1.0433
    -1.0350  -1.0021  -0.8856  -0.8116  -0.8091  -0.7475  -0.7045  -0.6371
    -0.5300  -0.5270  -0.4248  -0.0664  -0.0393   0.1391   0.2699   0.3493
     0.4424   0.5345   0.5908   0.7129   0.7178   0.9259   0.9531   0.9603
     1.0224   1.0432   1.0539   1.0956   1.1552   1.3059   1.3245   1.3475
     1.4025   1.4140   1.4374   1.5539   1.5759   1.5915   1.6208   1.6605
     1.6728   1.6847   1.6944   1.7614   1.7939   1.9426   2.0066   2.2221
     2.8430   2.8460   3.4511   3.7274   3.7372   3.8413   3.9582   5.5820
     6.5031   6.5594   6.5598   6.9689   7.4255   7.4967   8.2362   8.2948
     8.3076   8.6183   8.7927   9.0525   9.2128   9.4524   9.4776   9.5001
     9.6202

          k =-0.5000 0.3960 0.0000 ( 35336 PWs)   bands (ev):

   -35.7120 -35.5390 -24.0072 -22.6748 -22.6733 -22.4704 -17.1647 -17.0962
   -17.0111 -16.9289 -16.8038 -16.5998 -14.8457 -14.8433 -14.7306 -14.5924
   -14.5304 -14.3597 -14.3008 -14.2875 -14.2141 -14.2122 -14.1311 -14.1197
   -14.0765 -14.0364 -13.6780  -9.9194  -9.4919  -9.3536  -8.7397  -8.7377
    -8.5200  -8.5015  -8.5007  -8.2173  -8.1232  -8.1206  -7.9617  -4.0184
    -3.9690  -3.7141  -3.5810  -3.3644  -3.0733  -3.0714  -2.8377  -2.8364
    -2.6869  -2.4929  -2.4322  -2.4305  -2.3334  -2.2790  -2.2661  -2.0389
    -1.9381  -1.8656  -1.5043  -1.3701  -1.3620  -1.2431  -1.2276  -1.1854
    -1.1705  -1.0237  -1.0193  -0.9353  -0.9336  -0.8870  -0.7418  -0.7152
    -0.6705  -0.4944  -0.4928   0.0176   0.1282   0.2034   0.3467   0.5772
     0.7946   0.8326   0.9583   1.1449   1.1537   1.1570   1.1585   1.2465
     1.2722   1.2888   1.4188   1.4257   1.4297   1.5258   1.5895   1.6027
     1.6309   1.6529   1.6646   1.6895   1.7869   1.8385   1.8423   1.9249
     1.9261   1.9655   1.9966   2.0129   2.0357   2.1028   2.1150   2.4764
     2.6572   2.6631   3.9318   4.3730   4.3774   4.4345   4.5450   4.9559
     6.0646   6.0652   6.6197   7.0703   7.0906   7.1509   8.1372   8.2162
     8.7899   8.8203   9.2734   9.3442   9.3467   9.4700   9.5832   9.6727
     9.7584

          k =-0.5000-0.5279 0.0000 ( 35396 PWs)   bands (ev):

   -35.7102 -35.5372 -23.9889 -22.6528 -22.6513 -22.4491 -17.1559 -17.1467
   -17.0023 -16.9793 -16.7704 -16.5666 -14.7493 -14.7475 -14.5793 -14.5292
   -14.5150 -14.4058 -14.3242 -14.2399 -14.2386 -14.1926 -14.1888 -14.0785
   -14.0448 -13.9961 -13.6527 -10.0834  -9.6066  -9.3309  -8.8857  -8.8836
    -8.6710  -8.6177  -8.6168  -8.3233  -8.1512  -8.1479  -7.9781  -4.2268
    -4.1761  -3.9329  -3.8295  -3.5664  -3.2977  -3.2957  -2.8702  -2.8689
    -2.7142  -2.5081  -2.4256  -2.4222  -2.4206  -2.3617  -2.2786  -2.1090
    -1.9763  -1.9612  -1.5716  -1.4849  -1.4790  -1.3077  -1.2924  -1.1600
    -1.1397  -1.1185  -1.1169  -1.0344  -0.9725  -0.8588  -0.8432  -0.7054
    -0.6736  -0.4659  -0.4640   0.0534   0.1705   0.2213   0.3661   0.6885
     0.8894   0.9722   1.1303   1.2110   1.2155   1.2248   1.2619   1.2804
     1.3072   1.4394   1.4842   1.5717   1.5869   1.6338   1.6806   1.7219
     1.7584   1.7672   1.8370   1.8722   1.8833   1.9409   1.9627   1.9634
     2.0568   2.0980   2.1236   2.2055   2.2079   2.2861   2.2873   2.4002
     2.4092   2.6200   4.0530   4.5748   4.5802   4.6380   4.7130   4.7361
     5.8377   5.8382   6.6437   6.9738   7.0604   7.0849   8.0575   8.1349
     8.8990   8.9215   8.9485   9.0140   9.3077   9.4008   9.6214   9.6357
     9.6995

     the Fermi energy is     2.4330 ev

!    total energy              =   -1842.82183097 Ry
     Harris-Foulkes estimate   =   -1842.82183099 Ry
     estimated scf accuracy    <          4.9E-09 Ry

     The total energy is the sum of the following terms:

     one-electron contribution =  -27330.92221365 Ry
     hartree contribution      =   13817.01310304 Ry
     xc contribution           =    -621.55168631 Ry
     ewald contribution        =   12292.64626351 Ry
     smearing contrib. (-TS)   =      -0.00729756 Ry

     convergence has been achieved in  35 iterations

     negative rho (up, down):  1.484E-03 0.000E+00

     Forces acting on atoms (cartesian axes, Ry/au):

     atom    1 type  4   force =     0.00000000    0.00000000   -0.00017428
     atom    2 type  3   force =     0.00000000    0.00000000    0.00031103
     atom    3 type  4   force =     0.00000000    0.00000000   -0.00079603
     atom    4 type  1   force =     0.00000000    0.00000000   -0.00030636
     atom    5 type  3   force =     0.00000000    0.00000000    0.00056732
     atom    6 type  4   force =     0.00000000    0.00000000    0.00011167
     atom    7 type  4   force =     0.00000000    0.00000000    0.00042666
     atom    8 type  2   force =     0.00000000    0.00000000   -0.00097773
     atom    9 type  4   force =     0.00000000    0.00000000    0.00036048
     atom   10 type  4   force =     0.00000000    0.00000000    0.00053419
     atom   11 type  3   force =     0.00000000    0.00000000    0.00065649
     atom   12 type  1   force =     0.00000000    0.00000000   -0.00205016
     atom   13 type  4   force =     0.00000000    0.00000000    0.00662301
     atom   14 type  4   force =     0.00000000    0.00000000    0.01747677
     atom   15 type  3   force =     0.00000000    0.00000000   -0.01830150
     atom   16 type  4   force =     0.00000000    0.00000000    0.02772949
     atom   17 type  1   force =     0.00000000    0.00000000   -0.01941740
     atom   18 type  3   force =     0.00000000    0.00000000   -0.00858906
     atom   19 type  4   force =     0.00000000    0.00000000    0.00813907
     atom   20 type  4   force =     0.00000000    0.00000000    0.00163252
     atom   21 type  2   force =     0.00000000    0.00000000   -0.01755779
     atom   22 type  4   force =     0.00000000    0.00000000    0.00055961
     atom   23 type  4   force =     0.00000000    0.00000000    0.00207039
     atom   24 type  3   force =     0.00000000    0.00000000   -0.00010323
     atom   25 type  1   force =     0.00000000    0.00000000    0.00021811
     atom   26 type  4   force =     0.00000000    0.00000000    0.00110559
     atom   27 type  3   force =     0.00000000    0.00000000   -0.00056852
     atom   28 type  4   force =     0.00000000    0.00000000    0.00031963

     Total force =     0.047905     Total SCF correction =     0.000278


     Computing stress (Cartesian axis) and pressure


     negative rho (up, down):  1.484E-03 0.000E+00
          total   stress  (Ry/bohr**3)                   (kbar)     P=       -8.42
  -0.00009200   0.00000000   0.00000000          -13.53        0.00        0.00
   0.00000000  -0.00004042   0.00000000            0.00       -5.95        0.00
   0.00000000   0.00000000  -0.00003922            0.00        0.00       -5.77

 
     init_run     :      8.48s CPU      9.04s WALL (       1 calls)
     electrons    :    559.51s CPU    600.41s WALL (       1 calls)
     forces       :      3.44s CPU      3.81s WALL (       1 calls)
     stress       :     18.20s CPU     19.18s WALL (       1 calls)

     Called by init_run:
     wfcinit      :      5.94s CPU      6.09s WALL (       1 calls)
     potinit      :      0.61s CPU      0.63s WALL (       1 calls)
     hinit0       :      1.07s CPU      1.09s WALL (       1 calls)

     Called by electrons:
     c_bands      :    447.86s CPU    464.37s WALL (      35 calls)
     sum_band     :     74.93s CPU     88.46s WALL (      35 calls)
     v_of_rho     :      2.53s CPU      2.57s WALL (      36 calls)
     newd         :     17.32s CPU     28.28s WALL (      36 calls)
     mix_rho      :     17.18s CPU     17.35s WALL (      35 calls)

     Called by c_bands:
     init_us_2    :      3.59s CPU      3.66s WALL (    1825 calls)
     cegterg      :    423.99s CPU    439.92s WALL (     875 calls)

     Called by sum_band:
     sum_band:bec :      0.24s CPU      0.24s WALL (     875 calls)
     addusdens    :     19.40s CPU     32.30s WALL (      35 calls)

     Called by *egterg:
     h_psi        :    205.45s CPU    214.84s WALL (    4013 calls)
     s_psi        :     21.81s CPU     22.16s WALL (    4013 calls)
     g_psi        :      0.65s CPU      0.66s WALL (    3113 calls)
     cdiaghg      :    123.30s CPU    123.87s WALL (    3988 calls)

     Called by h_psi:
     h_psi:calbec :     23.98s CPU     25.20s WALL (    4013 calls)
     vloc_psi     :    157.46s CPU    160.06s WALL (    4013 calls)
     add_vuspsi   :     22.82s CPU     25.96s WALL (    4013 calls)

     General routines
     calbec       :     36.63s CPU     37.91s WALL (    5013 calls)
     fft          :      1.95s CPU      1.98s WALL (     491 calls)
     ffts         :      8.82s CPU      8.90s WALL (   15875 calls)
     fftw         :    180.15s CPU    182.97s WALL (  622051 calls)
     interpolate  :      0.16s CPU      0.16s WALL (      36 calls)
 
     Parallel routines
     fft_scatt_xy :     22.93s CPU     23.26s WALL (  638417 calls)
     fft_scatt_yz :    111.49s CPU    113.25s WALL (  638417 calls)
 
     PWSCF        :   9m50.57s CPU  10m33.47s WALL

 
   This run was terminated on:  11:44:32  21May2021            

=------------------------------------------------------------------------------=
   JOB DONE.
=------------------------------------------------------------------------------=
[1621611872.583623] [holy7c04507:192697:0]          mpool.c:43   UCX  WARN  object 0x3a12040 was not returned to mpool ucp_requests
[1621611872.583640] [holy7c04507:192697:0]          mpool.c:43   UCX  WARN  object 0x3a12200 was not returned to mpool ucp_requests
[1621611872.585489] [holy7c06401:256856:0]          mpool.c:43   UCX  WARN  object 0x3ae4580 was not returned to mpool ucp_requests
[1621611872.585053] [holy7c08106:99653:0]          mpool.c:43   UCX  WARN  object 0x3cecb00 was not returned to mpool ucp_requests
[1621611872.585073] [holy7c08106:99653:0]          mpool.c:43   UCX  WARN  object 0x3ceccc0 was not returned to mpool ucp_requests
[1621611872.585215] [holy7c06606:200023:0]          mpool.c:43   UCX  WARN  object 0x30b7b00 was not returned to mpool ucp_requests
[1621611872.585233] [holy7c06606:200023:0]          mpool.c:43   UCX  WARN  object 0x30b7e80 was not returned to mpool ucp_requests
[1621611872.585903] [holy7c06608:201938:0]          mpool.c:43   UCX  WARN  object 0x3f6d080 was not returned to mpool ucp_requests
[1621611872.584700] [holy7c08203:232047:0]          mpool.c:43   UCX  WARN  object 0x3b19200 was not returned to mpool ucp_requests
[1621611872.590726] [holy7c02601:41650:0]          mpool.c:43   UCX  WARN  object 0x2e7fb40 was not returned to mpool ucp_requests
[1621611872.590905] [holy7c08111:177997:0]          mpool.c:43   UCX  WARN  object 0x3dabd80 was not returned to mpool ucp_requests
