
     Program PWSCF v.6.5 starts on 21May2021 at 11:46:15 

     This program is part of the open-source Quantum ESPRESSO suite
     for quantum simulation of materials; please cite
         "P. Giannozzi et al., J. Phys.:Condens. Matter 21 395502 (2009);
         "P. Giannozzi et al., J. Phys.:Condens. Matter 29 465901 (2017);
          URL http://www.quantum-espresso.org", 
     in publications or presentations arising from this work. More details at
     http://www.quantum-espresso.org/quote

     Parallel version (MPI), running on    20 processors

     MPI processes distributed on     8 nodes
     R & G space division:  proc/nbgrp/npool/nimage =      20
     Reading input from CBCO_Y_cleave_7.0_sep.pwi
Warning: card &IONS ignored
Warning: card     ION_DYNAMICS = 'BFGS' ignored
Warning: card / ignored
Warning: card &CELL ignored
Warning: card     CELL_DYNAMICS = 'BFGS' ignored
Warning: card     PRESS_CONV_THR = 5 ignored
Warning: card / ignored

     Current dimensions of program PWSCF are:
     Max number of different atomic species (ntypx) = 10
     Max number of k-points (npk) =  40000
     Max angular momentum in pseudopotentials (lmaxx) =  3

     Subspace diagonalization in iterative solution of the eigenvalue problem:
     one sub-group per band group will be used
     scalapack distributed-memory algorithm (size of sub-group:  4*  4 procs)

     Message from routine setup:
     using ibrav=0 with symmetry is DISCOURAGED, use correct ibrav instead
 
     Parallelization info
     --------------------
     sticks:   dense  smooth     PW     G-vecs:    dense   smooth      PW
     Min         149      50     14                81427    15678    2450
     Max         150      51     15                81472    15705    2501
     Sum        2991    1007    289              1629003   313757   49311
 


     bravais-lattice index     =            0
     lattice parameter (alat)  =       7.4270  a.u.
     unit-cell volume          =    4993.3692 (a.u.)^3
     number of atoms/cell      =           28
     number of atomic types    =            4
     number of electrons       =       227.00
     number of Kohn-Sham states=          137
     kinetic-energy cutoff     =      60.0000  Ry
     charge density cutoff     =     720.0000  Ry
     convergence threshold     =      1.0E-08
     mixing beta               =       0.5000
     number of iterations used =           10  local-TF  mixing
     Exchange-correlation= SLA PW PBE PBE
                           (   1   4   3   4   0   0   0)

     celldm(1)=   7.427040  celldm(2)=   0.000000  celldm(3)=   0.000000
     celldm(4)=   0.000000  celldm(5)=   0.000000  celldm(6)=   0.000000

     crystal axes: (cart. coord. in units of alat)
               a(1) = (   1.000000   0.000000   0.000000 )  
               a(2) = (   0.000000   0.947081   0.000000 )  
               a(3) = (   0.000000   0.000000  12.869427 )  

     reciprocal axes: (cart. coord. in units 2 pi/alat)
               b(1) = (  1.000000  0.000000  0.000000 )  
               b(2) = (  0.000000  1.055876  0.000000 )  
               b(3) = (  0.000000  0.000000  0.077704 )  


     PseudoPot. # 1 for Ba read from file:
     ./pseudo/Ba.pbe-nsp-van.UPF
     MD5 check sum: 2b9c31dd849566dd297d80989662b7a0
     Pseudo is Ultrasoft + core correction, Zval = 10.0
     Generated by new atomic code, or converted to UPF format
     Using radial grid of  907 points,  6 beta functions with: 
                l(1) =   0
                l(2) =   0
                l(3) =   1
                l(4) =   1
                l(5) =   2
                l(6) =   2
     Q(r) pseudized with  6 coefficients,  rinner =    1.200   1.200   1.200
                                                       1.200   1.200

     PseudoPot. # 2 for Ca read from file:
     ./pseudo/Ca.pbe-nsp-van.UPF
     MD5 check sum: 6471098428ff4fa451746d08035ff179
     Pseudo is Ultrasoft + core correction, Zval = 10.0
     Generated by new atomic code, or converted to UPF format
     Using radial grid of  845 points,  6 beta functions with: 
                l(1) =   0
                l(2) =   0
                l(3) =   1
                l(4) =   1
                l(5) =   2
                l(6) =   2
     Q(r) pseudized with  6 coefficients,  rinner =    1.200   1.200   1.200
                                                       1.200   1.200

     PseudoPot. # 3 for Cu read from file:
     ./pseudo/Cu.pbe-n-van_ak.UPF
     MD5 check sum: 34e3282627ffb533726feb647e090d62
     Pseudo is Ultrasoft + core correction, Zval = 11.0
     Generated by new atomic code, or converted to UPF format
     Using radial grid of  867 points,  6 beta functions with: 
                l(1) =   0
                l(2) =   0
                l(3) =   1
                l(4) =   1
                l(5) =   2
                l(6) =   2
     Q(r) pseudized with  8 coefficients,  rinner =    1.400   1.400   1.400
                                                       1.400   1.400

     PseudoPot. # 4 for O  read from file:
     ./pseudo/O.pbe-van_ak.UPF
     MD5 check sum: 783ce7fe4c79b6a4916957118fed0856
     Pseudo is Ultrasoft, Zval =  6.0
     Generated by new atomic code, or converted to UPF format
     Using radial grid of  737 points,  4 beta functions with: 
                l(1) =   0
                l(2) =   0
                l(3) =   1
                l(4) =   1
     Q(r) pseudized with  8 coefficients,  rinner =    0.800   0.800   0.800


     atomic species   valence    mass     pseudopotential
        Ba            10.00   137.32700     Ba( 1.00)
        Ca            10.00    40.07800     Ca( 1.00)
        Cu            11.00    63.54600     Cu( 1.00)
        O              6.00    15.99900     O ( 1.00)

      4 Sym. Ops. (no inversion) found



   Cartesian axes

     site n.     atom                  positions (alat units)
         1           O   tau(   1) = (   0.0000000   0.4735409  -0.0469745  )
         2           Cu  tau(   2) = (   0.0000000   0.0000000   0.0264565  )
         3           O   tau(   3) = (   0.0000000   0.0000000   0.5030914  )
         4           Ba  tau(   4) = (   0.5000000   0.4735409   0.5690292  )
         5           Cu  tau(   5) = (   0.0000000   0.0000000   1.0374254  )
         6           O   tau(   6) = (   0.5000000   0.0000000   1.0768099  )
         7           O   tau(   7) = (   0.0000000   0.4735409   1.1116985  )
         8           Ca  tau(   8) = (   0.5000000   0.4735409   1.4976260  )
         9           O   tau(   9) = (   0.0000000   0.4735409   1.8667529  )
        10           O   tau(  10) = (   0.5000000   0.0000000   1.9044124  )
        11           Cu  tau(  11) = (   0.0000000   0.0000000   1.9512546  )
        12           Ba  tau(  12) = (   0.5000000   0.4735409   2.4295764  )
        13           O   tau(  13) = (   0.0000000   0.0000000   2.5115362  )
        14           O   tau(  14) = (   0.0000000   0.4735409   2.9918528  )
        15           Cu  tau(  15) = (   0.0000000   0.0000000   2.9919088  )
        16           O   tau(  16) = (   0.0000000   0.0000000   3.4722686  )
        17           Ba  tau(  17) = (   0.5000000   0.4735409   3.5542208  )
        18           Cu  tau(  18) = (   0.0000000   0.0000000   4.0325248  )
        19           O   tau(  19) = (   0.5000000   0.0000000   4.0793669  )
        20           O   tau(  20) = (   0.0000000   0.4735409   4.1170213  )
        21           Ca  tau(  21) = (   0.5000000   0.4735409   4.4861584  )
        22           O   tau(  22) = (   0.0000000   0.4735409   6.6531541  )
        23           O   tau(  23) = (   0.5000000   0.0000000   6.6880427  )
        24           Cu  tau(  24) = (   0.0000000   0.0000000   6.7274298  )
        25           Ba  tau(  25) = (   0.5000000   0.4735409   7.1958234  )
        26           O   tau(  26) = (   0.0000000   0.0000000   7.2617510  )
        27           Cu  tau(  27) = (   0.0000000   0.0000000   7.7383910  )
        28           O   tau(  28) = (   0.0000000   0.4735409   7.8118093  )

     number of k points=    25  Gaussian smearing, width (Ry)=  0.0100
                       cart. coord. in units 2pi/alat
        k(    1) = (   0.0000000   0.0000000   0.0000000), wk =   0.0312500
        k(    2) = (   0.0000000   0.1319845   0.0000000), wk =   0.0625000
        k(    3) = (   0.0000000   0.2639689   0.0000000), wk =   0.0625000
        k(    4) = (   0.0000000   0.3959534   0.0000000), wk =   0.0625000
        k(    5) = (   0.0000000  -0.5279378   0.0000000), wk =   0.0312500
        k(    6) = (   0.1250000   0.0000000   0.0000000), wk =   0.0625000
        k(    7) = (   0.1250000   0.1319845   0.0000000), wk =   0.1250000
        k(    8) = (   0.1250000   0.2639689   0.0000000), wk =   0.1250000
        k(    9) = (   0.1250000   0.3959534   0.0000000), wk =   0.1250000
        k(   10) = (   0.1250000  -0.5279378   0.0000000), wk =   0.0625000
        k(   11) = (   0.2500000   0.0000000   0.0000000), wk =   0.0625000
        k(   12) = (   0.2500000   0.1319845   0.0000000), wk =   0.1250000
        k(   13) = (   0.2500000   0.2639689   0.0000000), wk =   0.1250000
        k(   14) = (   0.2500000   0.3959534   0.0000000), wk =   0.1250000
        k(   15) = (   0.2500000  -0.5279378   0.0000000), wk =   0.0625000
        k(   16) = (   0.3750000   0.0000000   0.0000000), wk =   0.0625000
        k(   17) = (   0.3750000   0.1319845   0.0000000), wk =   0.1250000
        k(   18) = (   0.3750000   0.2639689   0.0000000), wk =   0.1250000
        k(   19) = (   0.3750000   0.3959534   0.0000000), wk =   0.1250000
        k(   20) = (   0.3750000  -0.5279378   0.0000000), wk =   0.0625000
        k(   21) = (  -0.5000000   0.0000000   0.0000000), wk =   0.0312500
        k(   22) = (  -0.5000000   0.1319845   0.0000000), wk =   0.0625000
        k(   23) = (  -0.5000000   0.2639689   0.0000000), wk =   0.0625000
        k(   24) = (  -0.5000000   0.3959534   0.0000000), wk =   0.0625000
        k(   25) = (  -0.5000000  -0.5279378   0.0000000), wk =   0.0312500

     Dense  grid:  1629003 G-vectors     FFT dimensions: (  64,  64, 864)

     Smooth grid:   313757 G-vectors     FFT dimensions: (  40,  36, 480)

     Estimated max dynamical RAM per process >     519.11 MB

     Estimated total dynamical RAM >      10.14 GB

     Initial potential from superposition of free atoms

     starting charge  226.84630, renormalised to  227.00000

     negative rho (up, down):  3.368E-03 0.000E+00
     Starting wfcs are  195 randomized atomic wfcs

     total cpu time spent up to now is       10.6 secs

     Self-consistent Calculation

     iteration #  1     ecut=    60.00 Ry     beta= 0.50
     Davidson diagonalization with overlap
     ethr =  1.00E-02,  avg # of iterations =  2.0

     negative rho (up, down):  4.834E-04 0.000E+00

     total cpu time spent up to now is       28.2 secs

     total energy              =   -1840.99041122 Ry
     Harris-Foulkes estimate   =   -1845.32432210 Ry
     estimated scf accuracy    <      17.40370946 Ry

     iteration #  2     ecut=    60.00 Ry     beta= 0.50
     Davidson diagonalization with overlap
     ethr =  7.67E-03,  avg # of iterations =  2.0

     negative rho (up, down):  2.762E-04 0.000E+00

     total cpu time spent up to now is       45.2 secs

     total energy              =   -1842.60073595 Ry
     Harris-Foulkes estimate   =   -1843.20786580 Ry
     estimated scf accuracy    <       8.01367152 Ry

     iteration #  3     ecut=    60.00 Ry     beta= 0.50
     Davidson diagonalization with overlap
     ethr =  3.53E-03,  avg # of iterations =  1.0

     negative rho (up, down):  2.521E-04 0.000E+00

     total cpu time spent up to now is       60.5 secs

     total energy              =   -1842.75096655 Ry
     Harris-Foulkes estimate   =   -1842.95676299 Ry
     estimated scf accuracy    <       4.49169239 Ry

     iteration #  4     ecut=    60.00 Ry     beta= 0.50
     Davidson diagonalization with overlap
     ethr =  1.98E-03,  avg # of iterations =  1.0

     negative rho (up, down):  2.460E-04 0.000E+00

     total cpu time spent up to now is       75.5 secs

     total energy              =   -1842.73609891 Ry
     Harris-Foulkes estimate   =   -1842.86650544 Ry
     estimated scf accuracy    <       2.02664669 Ry

     iteration #  5     ecut=    60.00 Ry     beta= 0.50
     Davidson diagonalization with overlap
     ethr =  8.93E-04,  avg # of iterations =  3.0

     negative rho (up, down):  2.423E-04 0.000E+00

     total cpu time spent up to now is       92.9 secs

     total energy              =   -1842.73454688 Ry
     Harris-Foulkes estimate   =   -1842.78621844 Ry
     estimated scf accuracy    <       2.50696836 Ry

     iteration #  6     ecut=    60.00 Ry     beta= 0.50
     Davidson diagonalization with overlap
     ethr =  8.93E-04,  avg # of iterations =  1.7

     negative rho (up, down):  2.307E-04 0.000E+00

     total cpu time spent up to now is      108.8 secs

     total energy              =   -1842.65030478 Ry
     Harris-Foulkes estimate   =   -1842.75127516 Ry
     estimated scf accuracy    <       1.92742956 Ry

     iteration #  7     ecut=    60.00 Ry     beta= 0.50
     Davidson diagonalization with overlap
     ethr =  8.49E-04,  avg # of iterations =  5.6

     negative rho (up, down):  2.191E-04 0.000E+00

     total cpu time spent up to now is      129.7 secs

     total energy              =   -1842.61807668 Ry
     Harris-Foulkes estimate   =   -1842.67297222 Ry
     estimated scf accuracy    <       1.73377033 Ry

     iteration #  8     ecut=    60.00 Ry     beta= 0.50
     Davidson diagonalization with overlap
     ethr =  7.64E-04,  avg # of iterations =  3.6

     negative rho (up, down):  2.155E-04 0.000E+00

     total cpu time spent up to now is      148.2 secs

     total energy              =   -1842.61531436 Ry
     Harris-Foulkes estimate   =   -1842.65094977 Ry
     estimated scf accuracy    <       0.91617906 Ry

     iteration #  9     ecut=    60.00 Ry     beta= 0.50
     Davidson diagonalization with overlap
     ethr =  4.04E-04,  avg # of iterations =  4.2

     negative rho (up, down):  2.161E-04 0.000E+00

     total cpu time spent up to now is      167.2 secs

     total energy              =   -1842.62083921 Ry
     Harris-Foulkes estimate   =   -1842.63155472 Ry
     estimated scf accuracy    <       0.19488496 Ry

     iteration # 10     ecut=    60.00 Ry     beta= 0.50
     Davidson diagonalization with overlap
     ethr =  8.59E-05,  avg # of iterations =  4.9

     negative rho (up, down):  2.160E-04 0.000E+00

     total cpu time spent up to now is      187.2 secs

     total energy              =   -1842.61823250 Ry
     Harris-Foulkes estimate   =   -1842.62627855 Ry
     estimated scf accuracy    <       0.19818424 Ry

     iteration # 11     ecut=    60.00 Ry     beta= 0.50
     Davidson diagonalization with overlap
     ethr =  8.59E-05,  avg # of iterations =  1.0

     negative rho (up, down):  2.158E-04 0.000E+00

     total cpu time spent up to now is      202.1 secs

     total energy              =   -1842.61902467 Ry
     Harris-Foulkes estimate   =   -1842.62135975 Ry
     estimated scf accuracy    <       0.21197052 Ry

     iteration # 12     ecut=    60.00 Ry     beta= 0.50
     Davidson diagonalization with overlap
     ethr =  8.59E-05,  avg # of iterations =  1.0

     negative rho (up, down):  2.172E-04 0.000E+00

     total cpu time spent up to now is      216.9 secs

     total energy              =   -1842.61908585 Ry
     Harris-Foulkes estimate   =   -1842.61989335 Ry
     estimated scf accuracy    <       0.16595889 Ry

     iteration # 13     ecut=    60.00 Ry     beta= 0.50
     Davidson diagonalization with overlap
     ethr =  7.31E-05,  avg # of iterations =  1.3

     negative rho (up, down):  2.870E-04 0.000E+00

     total cpu time spent up to now is      232.2 secs

     total energy              =   -1842.61468510 Ry
     Harris-Foulkes estimate   =   -1842.62009872 Ry
     estimated scf accuracy    <       0.16247518 Ry

     iteration # 14     ecut=    60.00 Ry     beta= 0.50
     Davidson diagonalization with overlap
     ethr =  7.16E-05,  avg # of iterations =  2.8

     negative rho (up, down):  2.239E-04 0.000E+00

     total cpu time spent up to now is      249.0 secs

     total energy              =   -1842.61691382 Ry
     Harris-Foulkes estimate   =   -1842.61885861 Ry
     estimated scf accuracy    <       0.13045479 Ry

     iteration # 15     ecut=    60.00 Ry     beta= 0.50
     Davidson diagonalization with overlap
     ethr =  5.75E-05,  avg # of iterations =  1.0

     negative rho (up, down):  2.499E-04 0.000E+00

     total cpu time spent up to now is      264.0 secs

     total energy              =   -1842.61644251 Ry
     Harris-Foulkes estimate   =   -1842.61741360 Ry
     estimated scf accuracy    <       0.07056980 Ry

     iteration # 16     ecut=    60.00 Ry     beta= 0.50
     Davidson diagonalization with overlap
     ethr =  3.11E-05,  avg # of iterations =  2.4

     negative rho (up, down):  1.849E-03 0.000E+00

     total cpu time spent up to now is      280.3 secs

     total energy              =   -1842.61469148 Ry
     Harris-Foulkes estimate   =   -1842.61661703 Ry
     estimated scf accuracy    <       0.05575407 Ry

     iteration # 17     ecut=    60.00 Ry     beta= 0.50
     Davidson diagonalization with overlap
     ethr =  2.46E-05,  avg # of iterations =  3.4

     negative rho (up, down):  6.428E-03 0.000E+00

     total cpu time spent up to now is      298.2 secs

     total energy              =   -1842.61518315 Ry
     Harris-Foulkes estimate   =   -1842.61622271 Ry
     estimated scf accuracy    <       0.02681049 Ry

     iteration # 18     ecut=    60.00 Ry     beta= 0.50
     Davidson diagonalization with overlap
     ethr =  1.18E-05,  avg # of iterations =  6.9

     negative rho (up, down):  4.506E-03 0.000E+00

     total cpu time spent up to now is      320.1 secs

     total energy              =   -1842.61504614 Ry
     Harris-Foulkes estimate   =   -1842.61561134 Ry
     estimated scf accuracy    <       0.01183016 Ry

     iteration # 19     ecut=    60.00 Ry     beta= 0.50
     Davidson diagonalization with overlap
     c_bands:  1 eigenvalues not converged
     c_bands:  1 eigenvalues not converged
     c_bands:  1 eigenvalues not converged
     ethr =  5.21E-06,  avg # of iterations =  6.0

     negative rho (up, down):  1.361E-03 0.000E+00

     total cpu time spent up to now is      340.5 secs

     total energy              =   -1842.61417676 Ry
     Harris-Foulkes estimate   =   -1842.61511517 Ry
     estimated scf accuracy    <       0.00928344 Ry

     iteration # 20     ecut=    60.00 Ry     beta= 0.50
     Davidson diagonalization with overlap
     c_bands:  1 eigenvalues not converged
     c_bands:  1 eigenvalues not converged
     ethr =  4.09E-06,  avg # of iterations =  9.8

     negative rho (up, down):  2.234E-04 0.000E+00

     total cpu time spent up to now is      365.9 secs

     total energy              =   -1842.61390011 Ry
     Harris-Foulkes estimate   =   -1842.61427720 Ry
     estimated scf accuracy    <       0.00733687 Ry

     iteration # 21     ecut=    60.00 Ry     beta= 0.50
     Davidson diagonalization with overlap
     ethr =  3.23E-06,  avg # of iterations =  6.8

     negative rho (up, down):  2.356E-04 0.000E+00

     total cpu time spent up to now is      387.9 secs

     total energy              =   -1842.61367447 Ry
     Harris-Foulkes estimate   =   -1842.61400580 Ry
     estimated scf accuracy    <       0.00445892 Ry

     iteration # 22     ecut=    60.00 Ry     beta= 0.50
     Davidson diagonalization with overlap
     ethr =  1.96E-06,  avg # of iterations =  6.4

     negative rho (up, down):  2.521E-04 0.000E+00

     total cpu time spent up to now is      408.9 secs

     total energy              =   -1842.61355009 Ry
     Harris-Foulkes estimate   =   -1842.61377656 Ry
     estimated scf accuracy    <       0.00212743 Ry

     iteration # 23     ecut=    60.00 Ry     beta= 0.50
     Davidson diagonalization with overlap
     ethr =  9.37E-07,  avg # of iterations =  5.2

     negative rho (up, down):  1.046E-03 0.000E+00

     total cpu time spent up to now is      428.5 secs

     total energy              =   -1842.61349063 Ry
     Harris-Foulkes estimate   =   -1842.61362299 Ry
     estimated scf accuracy    <       0.00337529 Ry

     iteration # 24     ecut=    60.00 Ry     beta= 0.50
     Davidson diagonalization with overlap
     ethr =  9.37E-07,  avg # of iterations =  6.7

     negative rho (up, down):  7.599E-04 0.000E+00

     total cpu time spent up to now is      450.4 secs

     total energy              =   -1842.61352508 Ry
     Harris-Foulkes estimate   =   -1842.61353515 Ry
     estimated scf accuracy    <       0.00144485 Ry

     iteration # 25     ecut=    60.00 Ry     beta= 0.50
     Davidson diagonalization with overlap
     ethr =  6.36E-07,  avg # of iterations =  4.1

     negative rho (up, down):  5.077E-04 0.000E+00

     total cpu time spent up to now is      469.0 secs

     total energy              =   -1842.61351657 Ry
     Harris-Foulkes estimate   =   -1842.61353293 Ry
     estimated scf accuracy    <       0.00054532 Ry

     iteration # 26     ecut=    60.00 Ry     beta= 0.50
     Davidson diagonalization with overlap
     ethr =  2.40E-07,  avg # of iterations =  4.8

     negative rho (up, down):  7.515E-04 0.000E+00

     total cpu time spent up to now is      488.4 secs

     total energy              =   -1842.61352894 Ry
     Harris-Foulkes estimate   =   -1842.61352422 Ry
     estimated scf accuracy    <       0.00009752 Ry

     iteration # 27     ecut=    60.00 Ry     beta= 0.50
     Davidson diagonalization with overlap
     ethr =  4.30E-08,  avg # of iterations =  1.9

     negative rho (up, down):  1.262E-03 0.000E+00

     total cpu time spent up to now is      504.6 secs

     total energy              =   -1842.61352916 Ry
     Harris-Foulkes estimate   =   -1842.61353149 Ry
     estimated scf accuracy    <       0.00006264 Ry

     iteration # 28     ecut=    60.00 Ry     beta= 0.50
     Davidson diagonalization with overlap
     ethr =  2.76E-08,  avg # of iterations =  1.2

     negative rho (up, down):  1.185E-03 0.000E+00

     total cpu time spent up to now is      519.9 secs

     total energy              =   -1842.61352892 Ry
     Harris-Foulkes estimate   =   -1842.61353193 Ry
     estimated scf accuracy    <       0.00003904 Ry

     iteration # 29     ecut=    60.00 Ry     beta= 0.50
     Davidson diagonalization with overlap
     ethr =  1.72E-08,  avg # of iterations =  2.4

     negative rho (up, down):  1.428E-03 0.000E+00

     total cpu time spent up to now is      536.6 secs

     total energy              =   -1842.61352964 Ry
     Harris-Foulkes estimate   =   -1842.61353072 Ry
     estimated scf accuracy    <       0.00001387 Ry

     iteration # 30     ecut=    60.00 Ry     beta= 0.50
     Davidson diagonalization with overlap
     ethr =  6.11E-09,  avg # of iterations =  1.2

     negative rho (up, down):  1.386E-03 0.000E+00

     total cpu time spent up to now is      551.9 secs

     total energy              =   -1842.61352984 Ry
     Harris-Foulkes estimate   =   -1842.61353010 Ry
     estimated scf accuracy    <       0.00000494 Ry

     iteration # 31     ecut=    60.00 Ry     beta= 0.50
     Davidson diagonalization with overlap
     ethr =  2.18E-09,  avg # of iterations =  2.0

     negative rho (up, down):  1.395E-03 0.000E+00

     total cpu time spent up to now is      568.7 secs

     total energy              =   -1842.61352998 Ry
     Harris-Foulkes estimate   =   -1842.61353008 Ry
     estimated scf accuracy    <       0.00000210 Ry

     iteration # 32     ecut=    60.00 Ry     beta= 0.50
     Davidson diagonalization with overlap
     ethr =  9.25E-10,  avg # of iterations =  1.3

     negative rho (up, down):  1.427E-03 0.000E+00

     total cpu time spent up to now is      584.2 secs

     total energy              =   -1842.61352998 Ry
     Harris-Foulkes estimate   =   -1842.61353006 Ry
     estimated scf accuracy    <       0.00000083 Ry

     iteration # 33     ecut=    60.00 Ry     beta= 0.50
     Davidson diagonalization with overlap
     ethr =  3.67E-10,  avg # of iterations =  2.1

     negative rho (up, down):  1.424E-03 0.000E+00

     total cpu time spent up to now is      600.5 secs

     total energy              =   -1842.61353004 Ry
     Harris-Foulkes estimate   =   -1842.61353002 Ry
     estimated scf accuracy    <       0.00000034 Ry

     iteration # 34     ecut=    60.00 Ry     beta= 0.50
     Davidson diagonalization with overlap
     ethr =  1.48E-10,  avg # of iterations =  2.7

     negative rho (up, down):  1.432E-03 0.000E+00

     total cpu time spent up to now is      617.8 secs

     total energy              =   -1842.61353005 Ry
     Harris-Foulkes estimate   =   -1842.61353007 Ry
     estimated scf accuracy    <       0.00000016 Ry

     iteration # 35     ecut=    60.00 Ry     beta= 0.50
     Davidson diagonalization with overlap
     ethr =  6.86E-11,  avg # of iterations =  1.6

     negative rho (up, down):  1.424E-03 0.000E+00

     total cpu time spent up to now is      633.6 secs

     total energy              =   -1842.61353007 Ry
     Harris-Foulkes estimate   =   -1842.61353006 Ry
     estimated scf accuracy    <       0.00000003 Ry

     iteration # 36     ecut=    60.00 Ry     beta= 0.50
     Davidson diagonalization with overlap
     ethr =  1.31E-11,  avg # of iterations =  3.3

     negative rho (up, down):  1.424E-03 0.000E+00

     total cpu time spent up to now is      652.7 secs

     total energy              =   -1842.61353007 Ry
     Harris-Foulkes estimate   =   -1842.61353007 Ry
     estimated scf accuracy    <       0.00000002 Ry

     iteration # 37     ecut=    60.00 Ry     beta= 0.50
     Davidson diagonalization with overlap
     ethr =  9.96E-12,  avg # of iterations =  1.1

     negative rho (up, down):  1.424E-03 0.000E+00

     total cpu time spent up to now is      667.9 secs

     total energy              =   -1842.61353007 Ry
     Harris-Foulkes estimate   =   -1842.61353007 Ry
     estimated scf accuracy    <       0.00000001 Ry

     iteration # 38     ecut=    60.00 Ry     beta= 0.50
     Davidson diagonalization with overlap
     ethr =  6.53E-12,  avg # of iterations =  1.0

     negative rho (up, down):  1.427E-03 0.000E+00

     total cpu time spent up to now is      682.4 secs

     End of self-consistent calculation

          k = 0.0000 0.0000 0.0000 ( 39281 PWs)   bands (ev):

   -39.3955 -36.3994 -23.6324 -23.6040 -23.3437 -23.3394 -20.5156 -20.3730
   -20.3619 -17.9038 -17.4506 -17.4392 -16.4993 -16.1142 -15.6691 -15.5664
   -15.4842 -15.3896 -15.3849 -15.3529 -14.9942 -14.9213 -14.7948 -14.6363
   -14.5885 -14.4612 -14.2471  -8.8462  -8.7353  -8.6978  -8.6578  -8.5248
    -8.5049  -8.5039  -8.4549  -8.4034  -8.3886  -8.2531  -8.2225  -3.1428
    -3.1142  -3.1033  -3.0547  -3.0247  -2.6426  -2.5790  -2.5787  -2.4809
    -2.3515  -2.2964  -2.0845  -2.0329  -1.9628  -1.9185  -1.8656  -1.7300
    -1.6718  -1.4338  -1.4269  -1.2714  -1.1893  -1.1810  -1.1222  -1.0893
    -1.0834  -1.0774  -1.0629  -1.0575  -1.0333  -0.9985  -0.9789  -0.9711
    -0.9226  -0.8886  -0.8499  -0.7678  -0.7489  -0.7166  -0.7139  -0.7138
    -0.6545  -0.6442  -0.6393  -0.5427  -0.5040  -0.4965  -0.4891  -0.4199
    -0.3086  -0.0851  -0.0134   0.0416   0.0693   0.1460   0.1471   0.1700
     0.3132   0.3712   0.4644   0.5364   0.5540   0.6535   0.7097   0.7176
     0.8346   0.8946   0.9473   0.9591   1.0144   1.0765   1.2205   1.2477
     1.3279   1.4041   1.4418   1.4521   1.4603   1.5705   1.7233   1.8292
     3.9616   4.4046   4.5147   5.0233   5.1993   5.5471   5.9513   6.0840
     6.2152   6.3332   6.3359   6.4312   6.5059   6.5536   7.1566   7.1994
     7.3933

          k = 0.0000 0.1320 0.0000 ( 39259 PWs)   bands (ev):

   -39.3940 -36.3976 -23.6071 -23.5773 -23.3182 -23.3124 -20.5104 -20.3976
   -20.3601 -17.8676 -17.5117 -17.4483 -16.4441 -16.0255 -15.6152 -15.5313
   -15.4894 -15.3835 -15.3670 -15.3575 -15.0036 -14.9272 -14.8002 -14.6821
   -14.6361 -14.5182 -14.2791  -8.8444  -8.7349  -8.6500  -8.6136  -8.5566
    -8.5469  -8.5175  -8.4062  -8.4043  -8.3434  -8.2925  -8.2703  -3.4109
    -3.2016  -3.1124  -3.0823  -2.9864  -2.9788  -2.8688  -2.5172  -2.4885
    -2.4606  -2.4572  -2.4426  -2.3840  -2.3337  -2.1620  -1.9588  -1.8191
    -1.7522  -1.4895  -1.4413  -1.3921  -1.3694  -1.3688  -1.3128  -1.2736
    -1.2680  -1.2259  -1.1509  -1.1123  -1.0228  -0.9756  -0.9606  -0.9001
    -0.8872  -0.8463  -0.8285  -0.8059  -0.7473  -0.7315  -0.7250  -0.7073
    -0.6901  -0.6363  -0.6356  -0.6206  -0.5354  -0.4434  -0.3933  -0.3281
    -0.1482  -0.1171   0.0278   0.1287   0.1949   0.2439   0.2664   0.3340
     0.3664   0.3751   0.5665   0.6059   0.6159   0.6437   0.7110   0.7614
     0.7688   0.8760   0.8808   0.9905   1.0020   1.0853   1.1632   1.2190
     1.2380   1.3926   1.4621   1.5103   1.6461   1.9837   2.0503   2.1360
     4.1303   4.7811   4.8781   5.2112   5.3068   5.7595   6.1214   6.2363
     6.2562   6.4057   6.5121   6.5374   6.7455   6.7980   7.3680   7.4013
     7.5768

          k = 0.0000 0.2640 0.0000 ( 39139 PWs)   bands (ev):

   -39.3904 -36.3932 -23.5447 -23.5114 -23.2555 -23.2458 -20.5088 -20.4449
   -20.3558 -17.7755 -17.6661 -17.4426 -16.2936 -15.8259 -15.5382 -15.5308
   -15.4999 -15.4556 -15.2957 -15.2476 -14.9909 -14.9062 -14.8399 -14.8128
   -14.7389 -14.6270 -14.3693  -8.8407  -8.7344  -8.6576  -8.6375  -8.5295
    -8.5149  -8.5028  -8.4089  -8.3755  -8.3737  -8.2835  -8.2301  -3.8881
    -3.6471  -3.5394  -3.4138  -3.2918  -3.2412  -3.1124  -3.0939  -3.0671
    -2.9979  -2.8718  -2.5742  -2.4068  -2.3143  -2.2774  -2.1879  -1.9927
    -1.8700  -1.8082  -1.7845  -1.7169  -1.6729  -1.6200  -1.5612  -1.4982
    -1.4643  -1.4238  -1.3487  -1.3320  -1.3100  -1.2531  -1.2478  -1.1508
    -1.1300  -0.9442  -0.8560  -0.8002  -0.7327  -0.7161  -0.7012  -0.6462
    -0.6198  -0.6014  -0.4712  -0.4459  -0.3893  -0.1951  -0.1148   0.0643
     0.0763   0.1377   0.1613   0.2786   0.3124   0.3399   0.3516   0.3876
     0.4437   0.4586   0.4962   0.5036   0.5496   0.7765   0.8180   0.8318
     0.8612   0.9622   0.9893   1.0642   1.1203   1.1502   1.1609   1.2145
     1.3370   1.5034   1.5128   1.7416   1.8070   2.2274   2.3886   2.8830
     4.4136   5.1471   5.6751   5.7663   5.8122   5.9322   6.4957   6.6167
     6.6268   6.6408   7.0763   7.2937   7.4133   7.5362   7.8714   7.8831
     8.0034

          k = 0.0000 0.3960 0.0000 ( 39052 PWs)   bands (ev):

   -39.3868 -36.3888 -23.4803 -23.4433 -23.1907 -23.1768 -20.5458 -20.4524
   -20.3514 -17.8023 -17.6739 -17.4370 -16.0871 -15.7473 -15.6575 -15.6173
   -15.4959 -15.3121 -15.2322 -15.0258 -14.9615 -14.9202 -14.9048 -14.8840
   -14.8426 -14.6995 -14.5128  -8.8349  -8.7490  -8.7344  -8.7157  -8.5103
    -8.4635  -8.4567  -8.4032  -8.4010  -8.3855  -8.1522  -8.1098  -4.3146
    -4.2179  -4.1014  -3.8718  -3.8081  -3.7999  -3.6840  -3.1847  -3.1086
    -3.0982  -2.8753  -2.6874  -2.6243  -2.3972  -2.3416  -2.3176  -2.1869
    -2.0391  -1.9924  -1.9438  -1.8883  -1.8768  -1.8665  -1.7828  -1.7508
    -1.6760  -1.6349  -1.5634  -1.5580  -1.5214  -1.5004  -1.4872  -1.1761
    -1.1491  -1.0591  -0.9880  -0.8601  -0.7832  -0.6876  -0.6794  -0.6628
    -0.6506  -0.5980  -0.4305  -0.3209  -0.0715  -0.0310   0.0491   0.0975
     0.1171   0.1553   0.2179   0.2212   0.2798   0.3227   0.4226   0.4935
     0.5479   0.6081   0.6738   0.6772   0.7956   0.8059   0.9132   0.9301
     0.9347   1.0887   1.1528   1.1585   1.1708   1.2504   1.4401   1.4827
     1.5482   1.5551   1.6157   1.6850   2.1215   2.3161   2.3730   3.4381
     4.1703   5.3528   5.5712   6.5285   6.6226   6.6913   6.7308   6.9363
     7.1526   7.4484   7.5122   7.8578   7.8943   8.0226   8.2737   8.2774
     8.3029

          k = 0.0000-0.5279 0.0000 ( 39142 PWs)   bands (ev):

   -39.3854 -36.3869 -23.4530 -23.4143 -23.1632 -23.1475 -20.5681 -20.4481
   -20.3496 -17.8545 -17.6289 -17.4346 -15.8844 -15.8476 -15.7895 -15.6657
   -15.3817 -15.3073 -15.0861 -15.0667 -14.9750 -14.9400 -14.8850 -14.8612
   -14.7986 -14.7363 -14.6483  -8.8274  -8.7885  -8.7453  -8.7340  -8.5045
    -8.5013  -8.4839  -8.4042  -8.3451  -8.3348  -8.0951  -8.0577  -4.5461
    -4.4040  -4.2801  -4.0504  -4.0281  -4.0176  -3.8939  -3.2008  -3.1213
    -3.1161  -2.9979  -2.7536  -2.5390  -2.5171  -2.3834  -2.3084  -2.2716
    -2.1299  -2.0790  -2.0136  -2.0061  -1.8892  -1.8772  -1.8767  -1.8643
    -1.7921  -1.7502  -1.6656  -1.6500  -1.5975  -1.5870  -1.4943  -1.1835
    -1.1588  -1.1146  -0.9762  -0.9155  -0.7776  -0.6939  -0.6719  -0.6695
    -0.6428  -0.5936  -0.4191  -0.3909  -0.1279   0.0009   0.0295   0.0438
     0.1288   0.1770   0.2158   0.3057   0.3467   0.4064   0.5031   0.5541
     0.6199   0.6521   0.6747   0.6828   0.7497   0.9073   0.9245   1.0144
     1.2003   1.2072   1.2242   1.2521   1.2837   1.3471   1.4127   1.4164
     1.5750   1.6708   1.7167   1.7723   1.9441   2.1688   2.8151   3.6294
     3.7286   5.4824   5.5600   6.7166   6.8167   7.0341   7.0410   7.1756
     7.4224   7.5536   7.6218   8.0988   8.1596   8.1935   8.3746   8.5108
     8.5204

          k = 0.1250 0.0000 0.0000 ( 39229 PWs)   bands (ev):

   -39.3947 -36.3983 -23.6154 -23.5860 -23.3264 -23.3210 -20.5115 -20.3814
   -20.3720 -17.8703 -17.5309 -17.4378 -16.4525 -16.0119 -15.6923 -15.5540
   -15.5298 -15.4022 -15.3901 -15.3784 -15.0031 -14.9290 -14.8067 -14.6621
   -14.6405 -14.4899 -14.2762  -8.8789  -8.7611  -8.6360  -8.6137  -8.5446
    -8.4743  -8.4724  -8.4620  -8.3601  -8.3277  -8.2198  -8.1921  -3.2498
    -3.1853  -3.0825  -3.0801  -3.0735  -2.6851  -2.6263  -2.6203  -2.5503
    -2.5383  -2.2666  -2.0990  -2.0667  -2.0309  -1.9603  -1.9560  -1.8871
    -1.7028  -1.5222  -1.4623  -1.4216  -1.3788  -1.3269  -1.2961  -1.1939
    -1.1752  -1.1520  -1.1308  -1.0808  -1.0448  -1.0256  -1.0110  -0.9868
    -0.9084  -0.9009  -0.8623  -0.8116  -0.7535  -0.7210  -0.6894  -0.6608
    -0.6182  -0.5921  -0.5877  -0.5279  -0.4714  -0.4414  -0.4339  -0.3916
    -0.3565  -0.0225  -0.0016   0.0321   0.0613   0.0866   0.1976   0.1988
     0.3742   0.3980   0.5298   0.5535   0.5645   0.6703   0.7214   0.7609
     0.7800   0.9292   0.9530   1.0329   1.0959   1.1634   1.1861   1.2631
     1.3507   1.3722   1.4537   1.5090   1.5128   1.5500   1.7579   1.8887
     4.0937   4.5849   4.6832   5.0496   5.3022   5.7083   6.1184   6.1661
     6.2361   6.3316   6.4194   6.5453   6.5981   6.8031   7.3444   7.3537
     7.5349

          k = 0.1250 0.1320 0.0000 ( 39196 PWs)   bands (ev):

   -39.3932 -36.3965 -23.5908 -23.5601 -23.3017 -23.2949 -20.5065 -20.3970
   -20.3788 -17.8352 -17.5339 -17.5010 -16.3988 -15.9307 -15.6358 -15.5331
   -15.5241 -15.4045 -15.3602 -15.3601 -15.0041 -14.9270 -14.8125 -14.6963
   -14.6808 -14.5375 -14.3054  -8.8724  -8.7803  -8.7081  -8.6981  -8.5496
    -8.5129  -8.4348  -8.4323  -8.4167  -8.3873  -8.1832  -8.1513  -3.4378
    -3.2383  -3.1611  -3.1042  -3.0855  -2.9641  -2.8475  -2.6642  -2.5961
    -2.5178  -2.4717  -2.4513  -2.4237  -2.3820  -2.1675  -2.0873  -1.9961
    -1.8398  -1.6167  -1.5925  -1.5478  -1.4973  -1.4704  -1.3935  -1.3582
    -1.3201  -1.3119  -1.2826  -1.2148  -1.0801  -1.0207  -0.9502  -0.9488
    -0.8600  -0.8597  -0.8347  -0.8017  -0.7672  -0.7569  -0.7191  -0.6621
    -0.6444  -0.6025  -0.5879  -0.5823  -0.5234  -0.3878  -0.2952  -0.2453
    -0.1193  -0.0563   0.1309   0.1656   0.2173   0.2432   0.3179   0.3221
     0.4082   0.4539   0.4710   0.5081   0.6444   0.6486   0.7657   0.7791
     0.8143   0.8489   0.8755   0.9364   1.0185   1.1210   1.2285   1.3280
     1.4568   1.5131   1.5336   1.7404   1.8901   1.9967   2.0628   2.1384
     4.2352   4.9235   5.0160   5.1365   5.4314   5.9119   6.0322   6.2712
     6.4611   6.4619   6.5228   6.7069   6.9130   7.0177   7.5168   7.5659
     7.7082

          k = 0.1250 0.2640 0.0000 ( 39127 PWs)   bands (ev):

   -39.3896 -36.3921 -23.5302 -23.4963 -23.2408 -23.2304 -20.5058 -20.4439
   -20.3739 -17.7460 -17.6630 -17.5135 -16.2529 -15.7567 -15.5344 -15.5245
   -15.5025 -15.4741 -15.2902 -15.2169 -14.9863 -14.8996 -14.8618 -14.8061
   -14.7454 -14.6350 -14.3870  -8.8608  -8.8494  -8.8345  -8.7352  -8.5962
    -8.5640  -8.5244  -8.4253  -8.4156  -8.4060  -8.1731  -8.1458  -3.9203
    -3.6700  -3.5285  -3.4225  -3.3007  -3.2417  -3.1193  -3.1055  -3.0932
    -3.0110  -2.9953  -2.6152  -2.5839  -2.5006  -2.3195  -2.1998  -2.1156
    -2.0024  -1.9897  -1.8483  -1.8250  -1.7937  -1.7059  -1.6742  -1.5864
    -1.5323  -1.5065  -1.4360  -1.3814  -1.3790  -1.3231  -1.3134  -1.2016
    -1.1363  -0.9644  -0.8771  -0.8718  -0.8444  -0.7391  -0.6221  -0.6068
    -0.5639  -0.4221  -0.3265  -0.3165  -0.2410  -0.0895  -0.0555  -0.0115
     0.1165   0.1946   0.2107   0.2894   0.3281   0.3812   0.4907   0.5052
     0.5493   0.5593   0.5771   0.5999   0.6331   0.7073   0.7847   0.8315
     0.8455   0.8683   1.0393   1.1244   1.1822   1.1911   1.2698   1.3706
     1.6474   1.7308   1.8933   1.9682   2.0308   2.2382   2.4079   2.8829
     4.4909   5.1011   5.6838   5.7360   5.8292   5.9231   6.5172   6.5746
     6.6304   6.7891   7.2411   7.4363   7.6022   7.7119   7.9448   8.0205
     8.0963

          k = 0.1250 0.3960 0.0000 ( 39118 PWs)   bands (ev):

   -39.3861 -36.3877 -23.4677 -23.4303 -23.1780 -23.1637 -20.5437 -20.4509
   -20.3687 -17.7972 -17.6474 -17.5050 -16.0534 -15.7123 -15.6474 -15.5905
   -15.4219 -15.3017 -15.2203 -15.0021 -14.9569 -14.9409 -14.8949 -14.8676
   -14.8401 -14.6940 -14.5144  -8.9023  -8.8798  -8.8457  -8.7467  -8.6218
    -8.6181  -8.5383  -8.4703  -8.4405  -8.4187  -8.2178  -8.1853  -4.3497
    -4.2260  -4.1419  -3.9005  -3.8054  -3.7997  -3.6873  -3.1929  -3.1345
    -3.1015  -2.9367  -2.7495  -2.6051  -2.4683  -2.4210  -2.4015  -2.3455
    -2.2836  -2.1401  -2.0126  -2.0091  -1.9781  -1.9259  -1.8469  -1.7776
    -1.7076  -1.6854  -1.6408  -1.6018  -1.5668  -1.5313  -1.5161  -1.4734
    -1.1867  -1.0287  -0.8973  -0.8562  -0.8538  -0.7102  -0.6553  -0.6087
    -0.5400  -0.3821  -0.1871  -0.1515  -0.1314   0.0387   0.0885   0.1567
     0.2416   0.2472   0.2993   0.3699   0.4118   0.4127   0.4208   0.5722
     0.6161   0.6379   0.7269   0.8108   0.8385   0.9071   0.9391   1.0513
     1.0931   1.1358   1.1705   1.2378   1.4737   1.5098   1.5223   1.5807
     1.6333   1.6801   1.8975   1.9333   2.1796   2.3874   2.4702   3.4196
     4.2506   5.2529   5.4894   6.2690   6.4869   6.6065   6.6560   6.9522
     7.2893   7.3228   7.5837   7.8501   7.9582   8.0138   8.1035   8.3458
     8.5643

          k = 0.1250-0.5279 0.0000 ( 39084 PWs)   bands (ev):

   -39.3846 -36.3859 -23.4412 -23.4023 -23.1514 -23.1355 -20.5661 -20.4467
   -20.3665 -17.8488 -17.6040 -17.5012 -15.8483 -15.8364 -15.7448 -15.6249
   -15.3092 -15.2683 -15.0853 -15.0460 -14.9726 -14.9486 -14.8859 -14.8518
   -14.8025 -14.7204 -14.6292  -8.9116  -8.8745  -8.8437  -8.7516  -8.6284
    -8.6131  -8.5533  -8.5046  -8.4521  -8.4253  -8.2523  -8.2106  -4.5546
    -4.4497  -4.3287  -4.0788  -4.0280  -4.0198  -3.9054  -3.2140  -3.1445
    -3.1246  -2.9191  -2.6724  -2.6641  -2.6350  -2.4311  -2.4167  -2.3648
    -2.3314  -2.2674  -2.1776  -2.0715  -2.0116  -1.9888  -1.8851  -1.8742
    -1.7608  -1.7568  -1.7183  -1.6964  -1.6629  -1.5886  -1.5783  -1.5312
    -1.1768  -1.0468  -0.8982  -0.8604  -0.8299  -0.6972  -0.6964  -0.5996
    -0.5343  -0.3813  -0.1692  -0.1457  -0.1225   0.0261   0.1187   0.1427
     0.2135   0.2343   0.3147   0.3836   0.3870   0.4535   0.5367   0.6511
     0.6823   0.6844   0.7372   0.8312   0.9656   0.9675   1.1950   1.2189
     1.2279   1.2903   1.3930   1.4063   1.5068   1.5342   1.6271   1.6559
     1.6876   1.7342   1.7427   1.7490   2.0581   2.2764   2.8974   3.6073
     3.8224   5.3044   5.5371   6.3683   6.6962   6.7081   6.8575   7.1653
     7.4340   7.5118   7.7204   7.7276   8.2400   8.3223   8.4953   8.6218
     8.7147

          k = 0.2500 0.0000 0.0000 ( 39248 PWs)   bands (ev):

   -39.3928 -36.3957 -23.5738 -23.5416 -23.2842 -23.2759 -20.5043 -20.4250
   -20.3697 -17.7850 -17.6951 -17.4345 -16.3279 -15.8143 -15.7578 -15.6244
   -15.6114 -15.4561 -15.4134 -15.3301 -15.0173 -14.9368 -14.8564 -14.7793
   -14.6928 -14.5464 -14.3569  -8.9156  -8.7625  -8.5775  -8.5494  -8.5083
    -8.4474  -8.4010  -8.3917  -8.2891  -8.2439  -8.1369  -8.1164  -3.5965
    -3.3786  -3.1981  -3.1719  -3.0223  -2.9957  -2.9807  -2.6892  -2.5596
    -2.4864  -2.4608  -2.2843  -2.0654  -2.0275  -2.0151  -1.9548  -1.9504
    -1.7896  -1.7871  -1.7395  -1.7109  -1.6617  -1.5822  -1.5705  -1.4508
    -1.3513  -1.3435  -1.3198  -1.2343  -1.1226  -1.0633  -1.0236  -1.0030
    -0.9934  -0.9787  -0.9732  -0.8532  -0.8221  -0.7338  -0.6740  -0.6282
    -0.5570  -0.5011  -0.4890  -0.4660  -0.3640  -0.3558  -0.3483  -0.2673
    -0.1942  -0.1520  -0.1136   0.0829   0.1503   0.2237   0.2687   0.2959
     0.3615   0.4673   0.4950   0.5794   0.6054   0.6373   0.7442   0.7631
     0.9134   0.9410   0.9935   1.0177   1.0744   1.0775   1.2224   1.2263
     1.4334   1.5181   1.5540   1.6050   1.6761   1.7887   1.8659   2.0441
     4.3591   4.7148   5.0423   5.1295   5.6374   6.0625   6.2313   6.3981
     6.6005   6.6486   6.7422   6.9645   7.0611   7.2536   7.6636   7.7428
     7.8679

          k = 0.2500 0.1320 0.0000 ( 39213 PWs)   bands (ev):

   -39.3913 -36.3939 -23.5509 -23.5178 -23.2613 -23.2519 -20.4999 -20.4240
   -20.3923 -17.7529 -17.6887 -17.5007 -16.2785 -15.7639 -15.6944 -15.6009
   -15.5623 -15.4696 -15.3783 -15.2753 -15.0031 -14.9222 -14.8540 -14.7833
   -14.7274 -14.5736 -14.3773  -8.9303  -8.8311  -8.7146  -8.6861  -8.5940
    -8.5641  -8.4285  -8.3738  -8.3581  -8.3545  -8.1051  -8.0829  -3.6767
    -3.4286  -3.2332  -3.2152  -3.1876  -3.0143  -2.9854  -2.9057  -2.7694
    -2.6832  -2.5337  -2.4417  -2.4254  -2.3814  -2.3678  -2.2279  -2.1367
    -2.0503  -1.8869  -1.8285  -1.8273  -1.7612  -1.6959  -1.5786  -1.5203
    -1.4802  -1.4371  -1.3553  -1.3104  -1.2714  -1.1504  -1.0472  -1.0287
    -0.9414  -0.8448  -0.7953  -0.7725  -0.7463  -0.7027  -0.6751  -0.6560
    -0.6240  -0.5775  -0.5122  -0.4829  -0.3671  -0.2530  -0.2005  -0.0749
    -0.0443   0.0725   0.1158   0.1641   0.1840   0.2519   0.3575   0.3964
     0.4827   0.5060   0.5665   0.6210   0.6313   0.6647   0.7199   0.7704
     0.7856   0.9039   0.9233   0.9619   1.0410   1.1703   1.3256   1.4858
     1.6472   1.8528   1.9126   2.0444   2.0559   2.1122   2.1333   2.2633
     4.4569   4.7701   5.3035   5.3928   5.6783   5.8647   6.3817   6.4746
     6.6067   6.7330   6.9997   7.2116   7.3344   7.4871   7.7983   7.9499
     8.0219

          k = 0.2500 0.2640 0.0000 ( 39179 PWs)   bands (ev):

   -39.3878 -36.3895 -23.4947 -23.4591 -23.2049 -23.1927 -20.4995 -20.4489
   -20.4082 -17.6886 -17.6646 -17.6372 -16.1456 -15.6747 -15.5540 -15.5268
   -15.5184 -15.4222 -15.2896 -15.1287 -14.9780 -14.9026 -14.8829 -14.7969
   -14.7651 -14.6450 -14.4343  -9.0523  -9.0513  -8.8771  -8.7981  -8.7482
    -8.7469  -8.5503  -8.4779  -8.4601  -8.4215  -8.2213  -8.2053  -4.0824
    -3.8071  -3.5570  -3.4555  -3.3684  -3.3585  -3.2550  -3.1260  -3.0918
    -3.0818  -2.9963  -2.9851  -2.9425  -2.6627  -2.5551  -2.4445  -2.2666
    -2.2496  -2.2317  -2.0726  -2.0044  -1.8578  -1.8358  -1.8019  -1.6892
    -1.6308  -1.5663  -1.5461  -1.4309  -1.4252  -1.4058  -1.3603  -1.2324
    -1.2126  -1.1627  -0.9932  -0.8344  -0.7106  -0.6581  -0.4795  -0.4662
    -0.3776  -0.2346  -0.1636  -0.1440  -0.0270   0.0294   0.0854   0.1462
     0.1658   0.2137   0.2608   0.3048   0.4320   0.4507   0.5689   0.6380
     0.6447   0.6925   0.7179   0.7387   0.8058   0.8153   0.8720   0.8900
     0.9157   1.0261   1.0448   1.0748   1.2121   1.3063   1.3259   1.5070
     2.1734   2.1852   2.2787   2.3163   2.4582   2.6093   2.7462   2.8841
     4.6782   4.7990   5.4912   5.7746   5.8461   5.9515   6.5667   6.6729
     6.7742   7.0951   7.5330   7.6725   7.9164   8.0019   8.1156   8.2394
     8.3845

          k = 0.2500 0.3960 0.0000 ( 39160 PWs)   bands (ev):

   -39.3842 -36.3852 -23.4369 -23.3987 -23.1470 -23.1318 -20.5386 -20.4563
   -20.4008 -17.7851 -17.6530 -17.5787 -15.9680 -15.6311 -15.6284 -15.5258
   -15.2970 -15.2538 -15.1847 -15.0273 -14.9430 -14.9102 -14.8568 -14.8344
   -14.8239 -14.6865 -14.5192  -9.1813  -9.1713  -8.9282  -8.9135  -8.8556
    -8.7982  -8.7166  -8.6918  -8.5304  -8.5098  -8.4189  -8.3997  -4.5351
    -4.3073  -4.2070  -4.0143  -3.8551  -3.7790  -3.6887  -3.3441  -3.2646
    -3.1293  -3.1188  -2.9528  -2.9200  -2.8913  -2.6236  -2.6201  -2.5609
    -2.3989  -2.3030  -2.2220  -2.1996  -2.0223  -2.0029  -1.9381  -1.8421
    -1.7388  -1.6946  -1.6824  -1.6168  -1.6107  -1.5265  -1.5262  -1.3847
    -1.3557  -1.2367  -1.0583  -0.7381  -0.6612  -0.5503  -0.4453  -0.3962
    -0.2041  -0.0717  -0.0277   0.0434   0.1650   0.1872   0.2074   0.3058
     0.4339   0.4721   0.5102   0.5243   0.6004   0.6534   0.6873   0.7031
     0.7773   0.7956   0.8576   0.9146   0.9634   0.9681   1.0713   1.1033
     1.2017   1.2243   1.2467   1.2617   1.4438   1.5107   1.5853   1.6378
     2.0057   2.1663   2.4546   2.6882   2.7588   2.8463   3.0040   3.3767
     4.4497   4.8917   5.4213   5.6221   6.0534   6.1907   6.6972   6.9275
     7.0032   7.6378   7.8537   7.9854   8.1587   8.1697   8.2094   8.4775
     8.8444

          k = 0.2500-0.5279 0.0000 ( 39192 PWs)   bands (ev):

   -39.3827 -36.3834 -23.4125 -23.3731 -23.1225 -23.1060 -20.5613 -20.4532
   -20.3970 -17.8353 -17.6475 -17.5391 -15.8111 -15.7581 -15.6279 -15.5208
   -15.1767 -15.1747 -15.0822 -15.0373 -14.9931 -14.8806 -14.8804 -14.8312
   -14.8107 -14.6876 -14.5855  -9.1999  -9.1715  -8.9163  -8.9091  -8.8977
    -8.8863  -8.8384  -8.7579  -8.6334  -8.5495  -8.5217  -8.4344  -4.7197
    -4.5134  -4.4660  -4.2081  -4.0672  -4.0066  -3.9169  -3.3009  -3.2719
    -3.1479  -3.1034  -3.0973  -2.9168  -2.8314  -2.7761  -2.6746  -2.5799
    -2.4547  -2.3430  -2.3317  -2.2587  -2.0937  -2.0295  -2.0281  -1.8823
    -1.7861  -1.7675  -1.7557  -1.6812  -1.6284  -1.5965  -1.5269  -1.4078
    -1.3690  -1.2645  -1.0822  -0.7211  -0.6211  -0.5104  -0.4373  -0.3622
    -0.1732  -0.0177   0.0497   0.1047   0.2205   0.2671   0.3262   0.3873
     0.4370   0.5091   0.5097   0.5705   0.5946   0.6443   0.6800   0.6908
     0.8636   0.9251   0.9338   1.0981   1.1094   1.1143   1.1799   1.2274
     1.2641   1.2952   1.3798   1.3816   1.6195   1.6356   1.6767   1.7843
     1.8164   1.9747   2.4822   2.7084   2.8802   3.0434   3.1183   3.5698
     4.0717   4.9256   5.4948   5.5247   6.0180   6.1680   6.7344   6.9049
     7.3591   7.5083   7.9975   7.9992   8.3871   8.5083   8.7075   8.7731
     8.9379

          k = 0.3750 0.0000 0.0000 ( 39182 PWs)   bands (ev):

   -39.3908 -36.3931 -23.5312 -23.4962 -23.2409 -23.2296 -20.5098 -20.4548
   -20.3673 -17.8350 -17.6898 -17.4312 -16.1782 -15.8590 -15.8251 -15.7465
   -15.5745 -15.4662 -15.4154 -15.1896 -15.0298 -14.9726 -14.9285 -14.8754
   -14.7301 -14.5879 -14.4669  -8.9254  -8.7450  -8.5502  -8.4845  -8.4611
    -8.4169  -8.3248  -8.3073  -8.2366  -8.1968  -8.0501  -8.0376  -3.9108
    -3.7062  -3.5243  -3.3813  -3.1447  -3.0567  -3.0020  -2.8349  -2.4945
    -2.4776  -2.3948  -2.3161  -2.1772  -2.0495  -2.0292  -1.9905  -1.9881
    -1.9839  -1.9643  -1.9248  -1.9162  -1.8687  -1.8316  -1.7089  -1.6941
    -1.5437  -1.5226  -1.4882  -1.4359  -1.2586  -1.1535  -1.0812  -1.0661
    -1.0383  -1.0160  -0.9667  -0.8551  -0.7683  -0.7466  -0.6869  -0.6475
    -0.6069  -0.4716  -0.4585  -0.4099  -0.3857  -0.3406  -0.2829  -0.2826
    -0.2813  -0.0727  -0.0174   0.0663   0.2173   0.3078   0.3708   0.4169
     0.4308   0.4364   0.4603   0.5368   0.6926   0.6946   0.7958   0.8068
     0.8893   0.9334   0.9664   0.9956   1.1043   1.2142   1.3163   1.3223
     1.4624   1.5043   1.6279   1.6470   1.7820   1.9900   2.1623   2.3044
     3.8686   4.8425   5.6920   5.7805   5.9222   5.9545   6.6785   6.7635
     6.9571   6.9868   7.1869   7.3193   7.3959   7.6593   7.7945   7.9430
     8.0780

          k = 0.3750 0.1320 0.0000 ( 39227 PWs)   bands (ev):

   -39.3894 -36.3913 -23.5102 -23.4745 -23.2199 -23.2078 -20.5063 -20.4530
   -20.3896 -17.8264 -17.6607 -17.4957 -16.1329 -15.8106 -15.7562 -15.7010
   -15.5734 -15.4256 -15.3552 -15.1415 -15.0011 -14.9468 -14.9085 -14.8590
   -14.7649 -14.5972 -14.4736  -8.9439  -8.8026  -8.6585  -8.6478  -8.5765
    -8.5152  -8.4163  -8.3970  -8.3679  -8.3587  -8.1392  -8.1310  -3.9945
    -3.7678  -3.5685  -3.4113  -3.1696  -3.1435  -3.0381  -2.9956  -2.8594
    -2.6827  -2.5346  -2.4319  -2.4301  -2.3733  -2.3506  -2.3494  -2.2975
    -2.2693  -2.1263  -2.0111  -1.9213  -1.9039  -1.7714  -1.7396  -1.7362
    -1.6127  -1.5070  -1.4868  -1.4373  -1.3532  -1.2302  -1.1193  -1.0822
    -0.9856  -0.8718  -0.7891  -0.7711  -0.7361  -0.6937  -0.6333  -0.6048
    -0.5946  -0.5706  -0.4856  -0.3745  -0.3394  -0.2865  -0.1492  -0.0293
     0.0280   0.0350   0.1285   0.1945   0.3278   0.3501   0.4086   0.4264
     0.4724   0.5262   0.5461   0.5948   0.6711   0.7221   0.7325   0.8139
     0.8965   0.9519   0.9806   1.0555   1.0997   1.3206   1.4596   1.4839
     1.8597   1.9326   2.0976   2.1004   2.1536   2.3251   2.4195   2.4477
     3.9499   4.9049   5.6726   5.8402   5.8592   5.9392   6.6624   6.8014
     7.0044   7.1773   7.2525   7.3764   7.5462   7.6846   8.0607   8.1285
     8.2833

          k = 0.3750 0.2640 0.0000 ( 39219 PWs)   bands (ev):

   -39.3859 -36.3869 -23.4586 -23.4212 -23.1683 -23.1542 -20.5002 -20.4727
   -20.4158 -17.8060 -17.6400 -17.5856 -16.0152 -15.6883 -15.5946 -15.5858
   -15.5509 -15.3300 -15.2063 -15.0183 -14.9608 -14.9280 -14.8642 -14.8142
   -14.7998 -14.6395 -14.4946  -9.1126  -9.1040  -8.9070  -8.8485  -8.7964
    -8.7825  -8.6913  -8.6602  -8.5270  -8.4964  -8.4037  -8.3655  -4.3570
    -4.0831  -3.8080  -3.5742  -3.4694  -3.4402  -3.3151  -3.1951  -3.1684
    -3.0910  -3.0645  -3.0444  -3.0287  -2.9523  -2.9134  -2.5923  -2.4570
    -2.3775  -2.1908  -2.0958  -2.0630  -1.8299  -1.8252  -1.8187  -1.7447
    -1.7127  -1.6774  -1.5730  -1.5163  -1.4635  -1.4502  -1.3958  -1.3019
    -1.3006  -1.1879  -1.0513  -0.7797  -0.6286  -0.5019  -0.4128  -0.3589
    -0.1518  -0.1176  -0.0629  -0.0209   0.0154   0.1823   0.1890   0.2034
     0.3108   0.3278   0.3510   0.3854   0.4234   0.5953   0.6056   0.6277
     0.7009   0.7921   0.8239   0.8552   0.9008   0.9024   0.9318   0.9530
     1.0091   1.0157   1.0193   1.2386   1.2822   1.3852   1.4416   1.5888
     2.1748   2.3137   2.6400   2.7260   2.8917   2.9244   3.0446   3.1597
     4.1611   4.9606   5.3253   5.5259   5.8862   6.0101   6.7013   6.8289
     6.8803   7.5790   7.5928   7.7141   7.9072   8.0185   8.4185   8.5977
     8.6495

          k = 0.3750 0.3960 0.0000 ( 39217 PWs)   bands (ev):

   -39.3823 -36.3826 -23.4057 -23.3666 -23.1155 -23.0993 -20.5333 -20.4850
   -20.4089 -17.7887 -17.7668 -17.5058 -15.8733 -15.6213 -15.5534 -15.4616
   -15.2974 -15.2362 -15.0479 -15.0413 -14.8938 -14.8805 -14.8278 -14.8015
   -14.7777 -14.6970 -14.5261  -9.3828  -9.3698  -9.1093  -9.1092  -9.0349
    -8.9958  -8.9225  -8.7872  -8.7851  -8.7015  -8.5567  -8.4540  -4.8204
    -4.5623  -4.2639  -4.1537  -3.9966  -3.7583  -3.6799  -3.5424  -3.4452
    -3.2868  -3.2330  -3.2191  -3.0931  -3.0482  -2.9554  -2.9031  -2.6580
    -2.4786  -2.3506  -2.1898  -2.0538  -2.0218  -1.9715  -1.9448  -1.9180
    -1.7795  -1.7712  -1.6961  -1.6808  -1.6091  -1.5650  -1.5097  -1.4475
    -1.3885  -1.2096  -1.0988  -0.6467  -0.5223  -0.3627  -0.3051  -0.1702
     0.0952   0.1812   0.2186   0.2562   0.3446   0.3614   0.4229   0.5088
     0.5399   0.5492   0.6185   0.6704   0.7638   0.7746   0.8057   0.8465
     0.8981   0.9470   0.9917   1.0248   1.0804   1.1443   1.1783   1.1938
     1.2672   1.3407   1.3476   1.3657   1.4171   1.4559   1.5966   1.8971
     1.9962   2.1536   3.0091   3.2534   3.3758   3.4449   3.5229   3.6676
     4.3961   4.6409   5.0436   5.4043   5.5828   5.7208   6.5617   6.9100
     7.0578   7.9992   8.1508   8.1800   8.2893   8.3742   8.4396   8.6122
     8.6449

          k = 0.3750-0.5279 0.0000 ( 39212 PWs)   bands (ev):

   -39.3809 -36.3808 -23.3834 -23.3435 -23.0933 -23.0762 -20.5565 -20.4823
   -20.4039 -17.8220 -17.7761 -17.4704 -15.7883 -15.6627 -15.4920 -15.4067
   -15.2110 -15.0973 -15.0805 -14.9589 -14.9221 -14.8723 -14.8304 -14.8001
   -14.7993 -14.6736 -14.5466  -9.4782  -9.4518  -9.1922  -9.1869  -9.1800
    -9.1465  -8.9473  -8.9356  -8.8158  -8.8098  -8.5715  -8.4795  -5.0145
    -4.7687  -4.4944  -4.3927  -4.2072  -3.9836  -3.9069  -3.5452  -3.4638
    -3.3232  -3.2993  -3.2563  -3.0874  -3.0471  -3.0099  -2.9492  -2.7391
    -2.5033  -2.4418  -2.2303  -2.1408  -2.0713  -2.0278  -1.9975  -1.9931
    -1.8173  -1.7722  -1.7679  -1.7641  -1.6957  -1.6376  -1.5354  -1.4145
    -1.3796  -1.1953  -1.1009  -0.6159  -0.4987  -0.3511  -0.2251  -0.0663
     0.2293   0.2576   0.2955   0.3223   0.4349   0.4508   0.4922   0.5431
     0.6776   0.7071   0.7198   0.7382   0.7866   0.7887   0.9109   0.9437
     0.9997   1.0162   1.0869   1.2082   1.2373   1.2743   1.3255   1.3471
     1.3953   1.4153   1.4297   1.4746   1.5561   1.6153   1.6706   1.7537
     1.9387   2.0553   3.1034   3.4315   3.5665   3.6538   3.7150   3.8229
     4.3347   4.5137   4.8463   5.4051   5.4756   5.5490   6.4699   6.9463
     7.5191   7.6179   8.0399   8.2658   8.3672   8.5571   8.5861   8.6131
     8.6983

          k =-0.5000 0.0000 0.0000 ( 39178 PWs)   bands (ev):

   -39.3900 -36.3920 -23.5133 -23.4771 -23.2227 -23.2100 -20.5202 -20.4588
   -20.3664 -17.8874 -17.6476 -17.4298 -16.1065 -15.9154 -15.8357 -15.8011
   -15.6552 -15.4846 -15.2091 -15.1342 -15.1180 -15.0126 -14.9235 -14.9136
   -14.7417 -14.6018 -14.5325  -8.9243  -8.7347  -8.5344  -8.4614  -8.4463
    -8.4005  -8.2922  -8.2712  -8.2191  -8.1842  -8.0129  -8.0040  -4.0350
    -3.8482  -3.6674  -3.5172  -3.1696  -3.0554  -3.0523  -2.7388  -2.5163
    -2.4662  -2.4300  -2.2420  -2.1902  -2.1761  -2.0963  -2.0653  -2.0505
    -2.0331  -1.9890  -1.9631  -1.9515  -1.9124  -1.8708  -1.8076  -1.7163
    -1.6272  -1.6116  -1.5648  -1.5209  -1.3264  -1.1941  -1.1223  -1.0917
    -1.0305  -1.0202  -0.9632  -0.8505  -0.7703  -0.7519  -0.6922  -0.6412
    -0.6402  -0.4697  -0.4695  -0.4103  -0.3851  -0.3450  -0.3387  -0.2913
    -0.2606  -0.0961   0.0174   0.0285   0.3204   0.3540   0.3662   0.4040
     0.4419   0.5018   0.5536   0.5837   0.6302   0.7781   0.7782   0.8157
     0.8403   0.9221   0.9316   1.0568   1.1433   1.2461   1.3319   1.4579
     1.5024   1.5201   1.6352   1.6354   1.7930   2.0255   2.1840   2.7864
     3.2806   5.0118   5.8693   6.0847   6.4640   6.5170   6.5862   6.5922
     6.6889   6.8615   7.2695   7.3142   7.4576   7.7329   8.1249   8.2470
     8.3351

          k =-0.5000 0.1320 0.0000 ( 39242 PWs)   bands (ev):

   -39.3886 -36.3902 -23.4931 -23.4563 -23.2025 -23.1892 -20.5170 -20.4569
   -20.3883 -17.8781 -17.6201 -17.4935 -16.0597 -15.8582 -15.7665 -15.7460
   -15.6483 -15.4441 -15.1677 -15.0763 -15.0738 -14.9902 -14.8945 -14.8917
   -14.7791 -14.6043 -14.5303  -8.9393  -8.7737  -8.5908  -8.5683  -8.5603
    -8.5049  -8.4741  -8.4542  -8.3489  -8.3041  -8.2173  -8.2007  -4.1255
    -3.9163  -3.7195  -3.5533  -3.1747  -3.1387  -3.0539  -3.0301  -2.8277
    -2.6279  -2.5834  -2.5141  -2.4248  -2.3585  -2.3543  -2.3297  -2.3272
    -2.3271  -2.2410  -2.1177  -1.9178  -1.9075  -1.8288  -1.7971  -1.7707
    -1.6830  -1.5876  -1.5117  -1.4783  -1.3750  -1.2665  -1.1490  -1.1058
    -1.0035  -0.8860  -0.7826  -0.7765  -0.7326  -0.6980  -0.6332  -0.5973
    -0.5885  -0.4818  -0.4816  -0.4390  -0.2990  -0.2249  -0.2174  -0.0453
    -0.0431   0.0188   0.1359   0.2515   0.3510   0.4005   0.4648   0.4662
     0.4971   0.5383   0.5441   0.6044   0.6326   0.7514   0.7745   0.8197
     0.8899   0.9264   1.0639   1.1074   1.1230   1.4339   1.4940   1.5530
     1.9160   1.9419   2.0881   2.1106   2.1738   2.3791   2.4895   2.8847
     3.3767   5.0749   5.5909   5.9019   6.3117   6.4354   6.6799   6.8196
     6.9120   6.9358   7.3483   7.3643   7.5631   7.6657   8.3874   8.4844
     8.5336

          k =-0.5000 0.2640 0.0000 ( 39264 PWs)   bands (ev):

   -39.3851 -36.3859 -23.4434 -23.4053 -23.1530 -23.1381 -20.5093 -20.4779
   -20.4146 -17.8561 -17.6367 -17.5491 -15.9455 -15.7070 -15.6345 -15.6020
   -15.5713 -15.3473 -15.0630 -14.9793 -14.9638 -14.9389 -14.8542 -14.8457
   -14.8134 -14.6330 -14.5279  -9.0749  -9.0428  -8.8919  -8.8806  -8.8583
    -8.7775  -8.7595  -8.7236  -8.6503  -8.5790  -8.5098  -8.3943  -4.4874
    -4.2214  -3.9527  -3.7085  -3.4881  -3.4306  -3.3405  -3.2080  -3.1842
    -3.1124  -3.0723  -3.0500  -3.0489  -3.0387  -2.9700  -2.7154  -2.4884
    -2.4602  -2.1857  -2.1595  -1.9817  -1.8635  -1.7873  -1.7823  -1.7421
    -1.6890  -1.6765  -1.6071  -1.6039  -1.4878  -1.4599  -1.4192  -1.3160
    -1.3039  -1.2083  -1.0756  -0.7589  -0.6070  -0.4201  -0.3896  -0.3128
    -0.0819  -0.0739   0.0032   0.0387   0.0455   0.1848   0.1868   0.2764
     0.3591   0.3753   0.4051   0.4473   0.4688   0.5251   0.6104   0.6680
     0.7037   0.7659   0.8752   0.8767   0.8853   0.9478   0.9881   1.0201
     1.0266   1.0967   1.1088   1.1521   1.2734   1.3823   1.4931   1.7156
     2.1681   2.3025   2.8073   2.8680   3.0502   3.1549   3.2005   3.2971
     3.6548   5.1044   5.2099   5.4352   5.8818   6.0086   6.7206   6.7610
     7.1305   7.4704   7.6302   7.7003   8.0513   8.1932   8.6345   8.7465
     8.8264

          k =-0.5000 0.3960 0.0000 ( 39212 PWs)   bands (ev):

   -39.3816 -36.3815 -23.3926 -23.3531 -23.1024 -23.0857 -20.5307 -20.5015
   -20.4077 -17.8345 -17.7659 -17.4735 -15.8289 -15.6244 -15.5242 -15.4355
   -15.3060 -15.2537 -15.0337 -14.9522 -14.8904 -14.8546 -14.8230 -14.7859
   -14.7596 -14.7085 -14.5301  -9.4399  -9.4180  -9.1800  -9.1536  -9.1536
    -9.1448  -8.9443  -8.9373  -8.8332  -8.8013  -8.5663  -8.4686  -4.9562
    -4.6927  -4.3761  -4.1546  -4.0942  -3.7498  -3.6744  -3.5963  -3.5150
    -3.3549  -3.3155  -3.3044  -3.1094  -3.0595  -3.0021  -3.0002  -2.6957
    -2.5319  -2.4164  -2.1028  -2.0589  -2.0470  -1.9703  -1.9208  -1.9049
    -1.8592  -1.7601  -1.7006  -1.6637  -1.5958  -1.5846  -1.5836  -1.4283
    -1.4256  -1.1714  -1.0794  -0.6194  -0.4772  -0.3320  -0.1845  -0.0780
     0.1957   0.2608   0.2976   0.4151   0.4201   0.4598   0.5341   0.5645
     0.5762   0.6064   0.6966   0.7480   0.7532   0.7757   0.8350   0.8640
     0.9121   1.0104   1.0335   1.0405   1.1666   1.1683   1.2336   1.2580
     1.3350   1.3831   1.3880   1.4097   1.4535   1.5267   1.5442   1.9850
     2.0174   2.1320   3.1211   3.4927   3.6370   3.7007   3.7706   3.9143
     4.0113   4.6834   4.8201   5.3868   5.4331   5.5224   6.4119   6.9938
     7.3354   7.6708   8.1055   8.1574   8.2312   8.3062   8.5720   8.6241
     8.7764

          k =-0.5000-0.5279 0.0000 ( 39284 PWs)   bands (ev):

   -39.3801 -36.3798 -23.3712 -23.3311 -23.0810 -23.0637 -20.5546 -20.4983
   -20.4026 -17.8257 -17.8165 -17.4400 -15.7796 -15.6215 -15.4265 -15.3558
   -15.2513 -15.0802 -15.0789 -14.9078 -14.8809 -14.8667 -14.8351 -14.7910
   -14.7456 -14.6906 -14.5325  -9.5913  -9.5640  -9.3038  -9.2976  -9.2961
    -9.2632  -9.0527  -8.9629  -8.9321  -8.8291  -8.5833  -8.4967  -5.1545
    -4.9008  -4.5816  -4.4177  -4.2995  -3.9741  -3.9001  -3.6138  -3.5474
    -3.4030  -3.3821  -3.3427  -3.0995  -3.0904  -3.0589  -2.9933  -2.7639
    -2.5575  -2.4918  -2.1641  -2.1296  -2.0756  -2.0677  -2.0051  -1.9831
    -1.8354  -1.8000  -1.7953  -1.7268  -1.6965  -1.6603  -1.6148  -1.4265
    -1.3831  -1.1426  -1.0603  -0.5843  -0.4534  -0.3185  -0.0841   0.0870
     0.2720   0.3825   0.4176   0.4443   0.5054   0.5299   0.5521   0.5947
     0.6565   0.7707   0.7986   0.8211   0.8441   0.8927   1.0219   1.0371
     1.0482   1.1044   1.1318   1.2411   1.2623   1.3043   1.3272   1.3890
     1.4745   1.5275   1.5392   1.5621   1.5869   1.6170   1.7192   1.7310
     1.8905   2.1662   3.1644   3.6751   3.8899   3.9519   4.0114   4.1213
     4.1822   4.4267   4.5851   5.1597   5.3018   5.4962   6.3060   7.2087
     7.7093   7.7479   7.8795   8.0240   8.2229   8.2831   8.3363   8.5054
     8.6341

     the Fermi energy is     1.7545 ev

!    total energy              =   -1842.61353006 Ry
     Harris-Foulkes estimate   =   -1842.61353007 Ry
     estimated scf accuracy    <          8.5E-09 Ry

     The total energy is the sum of the following terms:

     one-electron contribution =  -28109.00489355 Ry
     hartree contribution      =   14199.80316522 Ry
     xc contribution           =    -621.41462299 Ry
     ewald contribution        =   12688.01097274 Ry
     smearing contrib. (-TS)   =      -0.00815148 Ry

     convergence has been achieved in  38 iterations

     negative rho (up, down):  1.427E-03 0.000E+00

     Forces acting on atoms (cartesian axes, Ry/au):

     atom    1 type  4   force =     0.00000000    0.00000000   -0.00018811
     atom    2 type  3   force =     0.00000000    0.00000000    0.00025486
     atom    3 type  4   force =     0.00000000    0.00000000   -0.00079018
     atom    4 type  1   force =     0.00000000    0.00000000   -0.00029791
     atom    5 type  3   force =     0.00000000    0.00000000    0.00057512
     atom    6 type  4   force =     0.00000000    0.00000000   -0.00001762
     atom    7 type  4   force =     0.00000000    0.00000000    0.00032555
     atom    8 type  2   force =     0.00000000    0.00000000   -0.00061662
     atom    9 type  4   force =     0.00000000    0.00000000    0.00027346
     atom   10 type  4   force =     0.00000000    0.00000000    0.00034191
     atom   11 type  3   force =     0.00000000    0.00000000    0.00020816
     atom   12 type  1   force =     0.00000000    0.00000000    0.00015493
     atom   13 type  4   force =     0.00000000    0.00000000    0.00312004
     atom   14 type  4   force =     0.00000000    0.00000000    0.00344125
     atom   15 type  3   force =     0.00000000    0.00000000   -0.00592752
     atom   16 type  4   force =     0.00000000    0.00000000    0.00469883
     atom   17 type  1   force =     0.00000000    0.00000000   -0.01772257
     atom   18 type  3   force =     0.00000000    0.00000000    0.00903144
     atom   19 type  4   force =     0.00000000    0.00000000    0.05133796
     atom   20 type  4   force =     0.00000000    0.00000000    0.05895090
     atom   21 type  2   force =     0.00000000    0.00000000   -0.10603139
     atom   22 type  4   force =     0.00000000    0.00000000    0.01849303
     atom   23 type  4   force =     0.00000000    0.00000000    0.02558730
     atom   24 type  3   force =     0.00000000    0.00000000   -0.02273615
     atom   25 type  1   force =     0.00000000    0.00000000   -0.01880802
     atom   26 type  4   force =     0.00000000    0.00000000   -0.00525142
     atom   27 type  3   force =     0.00000000    0.00000000    0.00329175
     atom   28 type  4   force =     0.00000000    0.00000000   -0.00169899

     Total force =     0.140494     Total SCF correction =     0.000440


     Computing stress (Cartesian axis) and pressure


     negative rho (up, down):  1.427E-03 0.000E+00
          total   stress  (Ry/bohr**3)                   (kbar)     P=       -5.59
  -0.00002683   0.00000000   0.00000000           -3.95        0.00        0.00
   0.00000000  -0.00000883   0.00000000            0.00       -1.30        0.00
   0.00000000   0.00000000  -0.00007842            0.00        0.00      -11.54

 
     init_run     :      9.21s CPU      9.78s WALL (       1 calls)
     electrons    :    638.14s CPU    671.80s WALL (       1 calls)
     forces       :      3.78s CPU      4.18s WALL (       1 calls)
     stress       :     20.43s CPU     21.47s WALL (       1 calls)

     Called by init_run:
     wfcinit      :      6.47s CPU      6.62s WALL (       1 calls)
     potinit      :      0.71s CPU      0.74s WALL (       1 calls)
     hinit0       :      1.10s CPU      1.12s WALL (       1 calls)

     Called by electrons:
     c_bands      :    503.83s CPU    508.76s WALL (      38 calls)
     sum_band     :     89.46s CPU    105.22s WALL (      38 calls)
     v_of_rho     :      3.05s CPU      3.11s WALL (      39 calls)
     newd         :     21.69s CPU     34.71s WALL (      39 calls)
     mix_rho      :     20.47s CPU     20.65s WALL (      38 calls)

     Called by c_bands:
     init_us_2    :      4.30s CPU      4.33s WALL (    1975 calls)
     cegterg      :    471.60s CPU    475.96s WALL (     950 calls)

     Called by sum_band:
     sum_band:bec :      0.27s CPU      0.27s WALL (     950 calls)
     addusdens    :     23.00s CPU     37.81s WALL (      38 calls)

     Called by *egterg:
     h_psi        :    239.63s CPU    243.11s WALL (    3978 calls)
     s_psi        :     25.71s CPU     25.82s WALL (    3978 calls)
     g_psi        :      0.76s CPU      0.76s WALL (    3003 calls)
     cdiaghg      :    116.32s CPU    116.79s WALL (    3953 calls)

     Called by h_psi:
     h_psi:calbec :     29.38s CPU     29.55s WALL (    3978 calls)
     vloc_psi     :    182.87s CPU    185.95s WALL (    3978 calls)
     add_vuspsi   :     26.22s CPU     26.43s WALL (    3978 calls)

     General routines
     calbec       :     46.33s CPU     46.57s WALL (    5053 calls)
     fft          :      2.30s CPU      2.33s WALL (     530 calls)
     ffts         :     11.01s CPU     11.10s WALL (   18454 calls)
     fftw         :    205.83s CPU    209.26s WALL (  671050 calls)
     interpolate  :      0.19s CPU      0.19s WALL (      39 calls)
 
     Parallel routines
     fft_scatt_xy :     27.06s CPU     27.51s WALL (  690034 calls)
     fft_scatt_yz :    123.30s CPU    125.33s WALL (  690034 calls)
 
     PWSCF        :  11m12.37s CPU  11m48.11s WALL

 
   This run was terminated on:  11:58: 3  21May2021            

=------------------------------------------------------------------------------=
   JOB DONE.
=------------------------------------------------------------------------------=
[1621612683.258742] [holy7c04210:132271:0]          mpool.c:43   UCX  WARN  object 0x43bc6c0 was not returned to mpool ucp_requests
[1621612683.258756] [holy7c04210:132271:0]          mpool.c:43   UCX  WARN  object 0x43bc880 was not returned to mpool ucp_requests
[1621612683.259024] [holy7c04501:10085:0]          mpool.c:43   UCX  WARN  object 0x422b2c0 was not returned to mpool ucp_requests
[1621612683.259042] [holy7c04501:10085:0]          mpool.c:43   UCX  WARN  object 0x422b640 was not returned to mpool ucp_requests
[1621612683.264144] [holy7c02502:277055:0]          mpool.c:43   UCX  WARN  object 0x31f7940 was not returned to mpool ucp_requests
[1621612683.268199] [holy7c04309:176635:0]          mpool.c:43   UCX  WARN  object 0x471c740 was not returned to mpool ucp_requests
[1621612683.272175] [holy7c02502:277056:0]          mpool.c:43   UCX  WARN  object 0x3b6e3c0 was not returned to mpool ucp_requests
[1621612683.268167] [holy7c04309:176637:0]          mpool.c:43   UCX  WARN  object 0x2d01380 was not returned to mpool ucp_requests
[1621612683.268183] [holy7c04309:176637:0]          mpool.c:43   UCX  WARN  object 0x2d01700 was not returned to mpool ucp_requests
[1621612683.269300] [holy7c04309:176638:0]          mpool.c:43   UCX  WARN  object 0x4432840 was not returned to mpool ucp_requests
