
     Program PWSCF v.6.5 starts on 13Apr2021 at 23:41: 3 

     This program is part of the open-source Quantum ESPRESSO suite
     for quantum simulation of materials; please cite
         "P. Giannozzi et al., J. Phys.:Condens. Matter 21 395502 (2009);
         "P. Giannozzi et al., J. Phys.:Condens. Matter 29 465901 (2017);
          URL http://www.quantum-espresso.org", 
     in publications or presentations arising from this work. More details at
     http://www.quantum-espresso.org/quote

     Parallel version (MPI), running on    10 processors

     MPI processes distributed on     2 nodes
     R & G space division:  proc/nbgrp/npool/nimage =      10
     Reading input from YBCO_ecut90.pwi

     Current dimensions of program PWSCF are:
     Max number of different atomic species (ntypx) = 10
     Max number of k-points (npk) =  40000
     Max angular momentum in pseudopotentials (lmaxx) =  3
               file Y.pz-spn-rrkjus_psl.1.0.0.UPF: wavefunction(s)  4S renormalized
               file Ba.pz-spn-rrkjus_psl.1.0.0.UPF: wavefunction(s)  5S 6S renormalized
               file O.pz-rrkjus.UPF: wavefunction(s)  2S renormalized
               file Cu.pz-d-rrkjus.UPF: wavefunction(s)  3D renormalized

     Subspace diagonalization in iterative solution of the eigenvalue problem:
     one sub-group per band group will be used
     scalapack distributed-memory algorithm (size of sub-group:  3*  3 procs)

     Message from routine setup:
     using ibrav=0 with symmetry is DISCOURAGED, use correct ibrav instead
 
     Parallelization info
     --------------------
     sticks:   dense  smooth     PW     G-vecs:    dense   smooth      PW
     Min         462     154     43                72177    13894    2089
     Max         463     155     44                72187    13901    2096
     Sum        4629    1547    433               721837   138977   20919
 


     bravais-lattice index     =            0
     lattice parameter (alat)  =       7.2654  a.u.
     unit-cell volume          =    1204.4104 (a.u.)^3
     number of atoms/cell      =           13
     number of atomic types    =            4
     number of electrons       =       106.00
     number of Kohn-Sham states=           64
     kinetic-energy cutoff     =      90.0000  Ry
     charge density cutoff     =    1080.0000  Ry
     convergence threshold     =      1.0E-06
     mixing beta               =       0.5000
     number of iterations used =            8  plain     mixing
     Exchange-correlation= SLA PZ NOGX NOGC
                           (   1   1   0   0   0   0   0)
     nstep                     =          300


     celldm(1)=   7.265373  celldm(2)=   0.000000  celldm(3)=   0.000000
     celldm(4)=   0.000000  celldm(5)=   0.000000  celldm(6)=   0.000000

     crystal axes: (cart. coord. in units of alat)
               a(1) = (   1.000000   0.000000   0.000000 )  
               a(2) = (   0.000000   1.021193   0.000000 )  
               a(3) = (   0.000000   0.000000   3.075338 )  

     reciprocal axes: (cart. coord. in units 2 pi/alat)
               b(1) = (  1.000000  0.000000  0.000000 )  
               b(2) = (  0.000000  0.979247  0.000000 )  
               b(3) = (  0.000000  0.000000  0.325168 )  


     PseudoPot. # 1 for Y  read from file:
     ./pseudo/Y.pz-spn-rrkjus_psl.1.0.0.UPF
     MD5 check sum: ea98a87c201a6887fec0b907919e69e1
     Pseudo is Ultrasoft + core correction, Zval = 11.0
     Generated using "atomic" code by A. Dal Corso v.6.2.2
     Using radial grid of 1223 points,  6 beta functions with: 
                l(1) =   0
                l(2) =   0
                l(3) =   1
                l(4) =   1
                l(5) =   2
                l(6) =   2
     Q(r) pseudized with 0 coefficients 


     PseudoPot. # 2 for Ba read from file:
     ./pseudo/Ba.pz-spn-rrkjus_psl.1.0.0.UPF
     MD5 check sum: 687b47877062a240b7e905a3e0e5c78b
     Pseudo is Ultrasoft + core correction, Zval = 10.0
     Generated using "atomic" code by A. Dal Corso v.6.2.2
     Using radial grid of 1251 points,  7 beta functions with: 
                l(1) =   0
                l(2) =   0
                l(3) =   0
                l(4) =   1
                l(5) =   1
                l(6) =   2
                l(7) =   2
     Q(r) pseudized with 0 coefficients 


     PseudoPot. # 3 for O  read from file:
     ./pseudo/O.pz-rrkjus.UPF
     MD5 check sum: 039abfcbbabbdfc0eb99fd57dcb11de2
     Pseudo is Ultrasoft, Zval =  6.0
     Generated by new atomic code, or converted to UPF format
     Using radial grid of 1269 points,  4 beta functions with: 
                l(1) =   0
                l(2) =   0
                l(3) =   1
                l(4) =   1
     Q(r) pseudized with 0 coefficients 


     PseudoPot. # 4 for Cu read from file:
     ./pseudo/Cu.pz-d-rrkjus.UPF
     MD5 check sum: 268b017640135c8b13c10cec7c6cb709
     Pseudo is Ultrasoft, Zval = 11.0
     Generated by new atomic code, or converted to UPF format
     Using radial grid of  899 points,  3 beta functions with: 
                l(1) =   2
                l(2) =   2
                l(3) =   1
     Q(r) pseudized with 0 coefficients 


     atomic species   valence    mass     pseudopotential
        Y             11.00    88.90585     Y ( 1.00)
        Ba            10.00   137.32700     Ba( 1.00)
        O              6.00    15.99900     O ( 1.00)
        Cu            11.00    63.55000     Cu( 1.00)

      8 Sym. Ops., with inversion, found



   Cartesian axes

     site n.     atom                  positions (alat units)
         1           Ba  tau(   1) = (   0.4999997   0.5105967   2.5199052  )
         2           Ba  tau(   2) = (   0.4999997   0.5105967   0.5554339  )
         3           Y   tau(   3) = (   0.4999997   0.5105967   1.5376696  )
         4           Cu  tau(   4) = (   0.0000000   0.0000000   1.9887540  )
         5           Cu  tau(   5) = (   0.0000000   0.0000000   1.0865848  )
         6           Cu  tau(   6) = (   0.0000000   0.0000000   0.0000000  )
         7           O   tau(   7) = (   0.0000000   0.5105967   0.0000000  )
         8           O   tau(   8) = (   0.4999997   0.0000000   1.9087183  )
         9           O   tau(   9) = (   0.4999997   0.0000000   1.1666205  )
        10           O   tau(  10) = (   0.0000000   0.5105967   1.9117875  )
        11           O   tau(  11) = (   0.0000000   0.5105967   1.1635516  )
        12           O   tau(  12) = (   0.0000000   0.0000000   2.5858066  )
        13           O   tau(  13) = (   0.0000000   0.0000000   0.4895325  )

     number of k points=    25  Gaussian smearing, width (Ry)=  0.0100
                       cart. coord. in units 2pi/alat
        k(    1) = (   0.0000000   0.0000000   0.0000000), wk =   0.0312500
        k(    2) = (   0.0000000   0.1224059   0.0000000), wk =   0.0625000
        k(    3) = (   0.0000000   0.2448117   0.0000000), wk =   0.0625000
        k(    4) = (   0.0000000   0.3672176   0.0000000), wk =   0.0625000
        k(    5) = (   0.0000000  -0.4896234   0.0000000), wk =   0.0312500
        k(    6) = (   0.1250000   0.0000000   0.0000000), wk =   0.0625000
        k(    7) = (   0.1250000   0.1224059   0.0000000), wk =   0.1250000
        k(    8) = (   0.1250000   0.2448117   0.0000000), wk =   0.1250000
        k(    9) = (   0.1250000   0.3672176   0.0000000), wk =   0.1250000
        k(   10) = (   0.1250000  -0.4896234   0.0000000), wk =   0.0625000
        k(   11) = (   0.2500000   0.0000000   0.0000000), wk =   0.0625000
        k(   12) = (   0.2500000   0.1224059   0.0000000), wk =   0.1250000
        k(   13) = (   0.2500000   0.2448117   0.0000000), wk =   0.1250000
        k(   14) = (   0.2500000   0.3672176   0.0000000), wk =   0.1250000
        k(   15) = (   0.2500000  -0.4896234   0.0000000), wk =   0.0625000
        k(   16) = (   0.3750000   0.0000000   0.0000000), wk =   0.0625000
        k(   17) = (   0.3750000   0.1224059   0.0000000), wk =   0.1250000
        k(   18) = (   0.3750000   0.2448117   0.0000000), wk =   0.1250000
        k(   19) = (   0.3750000   0.3672176   0.0000000), wk =   0.1250000
        k(   20) = (   0.3750000  -0.4896234   0.0000000), wk =   0.0625000
        k(   21) = (  -0.5000000   0.0000000   0.0000000), wk =   0.0312500
        k(   22) = (  -0.5000000   0.1224059   0.0000000), wk =   0.0625000
        k(   23) = (  -0.5000000   0.2448117   0.0000000), wk =   0.0625000
        k(   24) = (  -0.5000000   0.3672176   0.0000000), wk =   0.0625000
        k(   25) = (  -0.5000000  -0.4896234   0.0000000), wk =   0.0312500

     Dense  grid:   721837 G-vectors     FFT dimensions: (  80,  80, 240)

     Smooth grid:   138977 G-vectors     FFT dimensions: (  45,  45, 135)

     Estimated max dynamical RAM per process >     394.48 MB

     Estimated total dynamical RAM >       3.85 GB

     Initial potential from superposition of free atoms

     starting charge  105.96668, renormalised to  106.00000
     Starting wfcs are   69 randomized atomic wfcs

     total cpu time spent up to now is        7.9 secs

     Self-consistent Calculation

     iteration #  1     ecut=    90.00 Ry     beta= 0.50
     Davidson diagonalization with overlap
     ethr =  1.00E-02,  avg # of iterations =  5.0

     total cpu time spent up to now is       16.3 secs

     total energy              =    -693.31399157 Ry
     Harris-Foulkes estimate   =    -698.55633073 Ry
     estimated scf accuracy    <       7.75928053 Ry

     iteration #  2     ecut=    90.00 Ry     beta= 0.50
     Davidson diagonalization with overlap
     ethr =  7.32E-03,  avg # of iterations =  2.4

     negative rho (up, down):  1.568E-01 0.000E+00

     total cpu time spent up to now is       23.7 secs

     total energy              =    -693.59648425 Ry
     Harris-Foulkes estimate   =    -699.74420189 Ry
     estimated scf accuracy    <     841.57021310 Ry

     iteration #  3     ecut=    90.00 Ry     beta= 0.50
     Davidson diagonalization with overlap
     ethr =  7.32E-03,  avg # of iterations =  3.3

     negative rho (up, down):  3.345E-01 0.000E+00

     total cpu time spent up to now is       32.0 secs

     total energy              =    -683.28033244 Ry
     Harris-Foulkes estimate   =    -711.95347303 Ry
     estimated scf accuracy    <   24968.75060025 Ry

     iteration #  4     ecut=    90.00 Ry     beta= 0.50
     Davidson diagonalization with overlap
     ethr =  7.32E-03,  avg # of iterations =  4.0

     total cpu time spent up to now is       41.3 secs

     total energy              =    -671.77250388 Ry
     Harris-Foulkes estimate   =    -728.83410779 Ry
     estimated scf accuracy    <   46884.58971724 Ry

     iteration #  5     ecut=    90.00 Ry     beta= 0.50
     Davidson diagonalization with overlap
     ethr =  7.32E-03,  avg # of iterations =  3.1

     negative rho (up, down):  6.292E-03 0.000E+00

     total cpu time spent up to now is       49.3 secs

     total energy              =    -695.79784071 Ry
     Harris-Foulkes estimate   =    -698.60100334 Ry
     estimated scf accuracy    <      62.93284097 Ry

     iteration #  6     ecut=    90.00 Ry     beta= 0.50
     Davidson diagonalization with overlap
     ethr =  7.32E-03,  avg # of iterations =  4.0

     total cpu time spent up to now is       56.9 secs

     total energy              =    -693.51846981 Ry
     Harris-Foulkes estimate   =    -700.02480539 Ry
     estimated scf accuracy    <    1263.57993618 Ry

     iteration #  7     ecut=    90.00 Ry     beta= 0.50
     Davidson diagonalization with overlap
     ethr =  7.32E-03,  avg # of iterations =  3.9

     total cpu time spent up to now is       64.7 secs

     total energy              =    -696.89803864 Ry
     Harris-Foulkes estimate   =    -696.94529321 Ry
     estimated scf accuracy    <       7.32882004 Ry

     iteration #  8     ecut=    90.00 Ry     beta= 0.50
     Davidson diagonalization with overlap
     ethr =  6.91E-03,  avg # of iterations =  1.2

     total cpu time spent up to now is       70.4 secs

     total energy              =    -696.89448546 Ry
     Harris-Foulkes estimate   =    -696.91281767 Ry
     estimated scf accuracy    <       5.30607547 Ry

     iteration #  9     ecut=    90.00 Ry     beta= 0.50
     Davidson diagonalization with overlap
     ethr =  5.01E-03,  avg # of iterations =  1.0

     total cpu time spent up to now is       76.1 secs

     total energy              =    -696.85099680 Ry
     Harris-Foulkes estimate   =    -696.89999104 Ry
     estimated scf accuracy    <       3.10728284 Ry

     iteration # 10     ecut=    90.00 Ry     beta= 0.50
     Davidson diagonalization with overlap
     ethr =  2.93E-03,  avg # of iterations =  1.0

     total cpu time spent up to now is       81.8 secs

     total energy              =    -696.86873191 Ry
     Harris-Foulkes estimate   =    -696.87096973 Ry
     estimated scf accuracy    <       0.95782576 Ry

     iteration # 11     ecut=    90.00 Ry     beta= 0.50
     Davidson diagonalization with overlap
     ethr =  9.04E-04,  avg # of iterations =  1.1

     total cpu time spent up to now is       87.5 secs

     total energy              =    -696.87018620 Ry
     Harris-Foulkes estimate   =    -696.87142924 Ry
     estimated scf accuracy    <       0.79528865 Ry

     iteration # 12     ecut=    90.00 Ry     beta= 0.50
     Davidson diagonalization with overlap
     ethr =  7.50E-04,  avg # of iterations =  1.3

     total cpu time spent up to now is       93.3 secs

     total energy              =    -696.86939032 Ry
     Harris-Foulkes estimate   =    -696.87072753 Ry
     estimated scf accuracy    <       0.40168409 Ry

     iteration # 13     ecut=    90.00 Ry     beta= 0.50
     Davidson diagonalization with overlap
     ethr =  3.79E-04,  avg # of iterations =  1.8

     total cpu time spent up to now is       99.2 secs

     total energy              =    -696.86886004 Ry
     Harris-Foulkes estimate   =    -696.87066980 Ry
     estimated scf accuracy    <       0.40200944 Ry

     iteration # 14     ecut=    90.00 Ry     beta= 0.50
     Davidson diagonalization with overlap
     ethr =  3.79E-04,  avg # of iterations =  2.0

     total cpu time spent up to now is      105.2 secs

     total energy              =    -696.86175980 Ry
     Harris-Foulkes estimate   =    -696.87912153 Ry
     estimated scf accuracy    <      13.58041534 Ry

     iteration # 15     ecut=    90.00 Ry     beta= 0.50
     Davidson diagonalization with overlap
     ethr =  3.79E-04,  avg # of iterations =  2.0

     total cpu time spent up to now is      111.3 secs

     total energy              =    -696.87011712 Ry
     Harris-Foulkes estimate   =    -696.87031774 Ry
     estimated scf accuracy    <       0.02971034 Ry

     iteration # 16     ecut=    90.00 Ry     beta= 0.50
     Davidson diagonalization with overlap
     ethr =  2.80E-05,  avg # of iterations =  6.4

     total cpu time spent up to now is      118.9 secs

     total energy              =    -696.87022917 Ry
     Harris-Foulkes estimate   =    -696.87032713 Ry
     estimated scf accuracy    <       0.02002484 Ry

     iteration # 17     ecut=    90.00 Ry     beta= 0.50
     Davidson diagonalization with overlap
     ethr =  1.89E-05,  avg # of iterations =  1.9

     total cpu time spent up to now is      124.9 secs

     total energy              =    -696.87023781 Ry
     Harris-Foulkes estimate   =    -696.87026446 Ry
     estimated scf accuracy    <       0.01144271 Ry

     iteration # 18     ecut=    90.00 Ry     beta= 0.50
     Davidson diagonalization with overlap
     ethr =  1.08E-05,  avg # of iterations =  1.0

     total cpu time spent up to now is      130.6 secs

     total energy              =    -696.87025270 Ry
     Harris-Foulkes estimate   =    -696.87025922 Ry
     estimated scf accuracy    <       0.00011973 Ry

     iteration # 19     ecut=    90.00 Ry     beta= 0.50
     Davidson diagonalization with overlap
     ethr =  1.13E-07,  avg # of iterations =  5.2

     total cpu time spent up to now is      137.8 secs

     total energy              =    -696.87025512 Ry
     Harris-Foulkes estimate   =    -696.87026237 Ry
     estimated scf accuracy    <       0.00076576 Ry

     iteration # 20     ecut=    90.00 Ry     beta= 0.50
     Davidson diagonalization with overlap
     ethr =  1.13E-07,  avg # of iterations =  3.0

     total cpu time spent up to now is      144.1 secs

     total energy              =    -696.87025932 Ry
     Harris-Foulkes estimate   =    -696.87026013 Ry
     estimated scf accuracy    <       0.00037766 Ry

     iteration # 21     ecut=    90.00 Ry     beta= 0.50
     Davidson diagonalization with overlap
     ethr =  1.13E-07,  avg # of iterations =  1.0

     total cpu time spent up to now is      149.8 secs

     total energy              =    -696.87025948 Ry
     Harris-Foulkes estimate   =    -696.87025985 Ry
     estimated scf accuracy    <       0.00013818 Ry

     iteration # 22     ecut=    90.00 Ry     beta= 0.50
     Davidson diagonalization with overlap
     ethr =  1.13E-07,  avg # of iterations =  1.0

     total cpu time spent up to now is      155.4 secs

     total energy              =    -696.87025958 Ry
     Harris-Foulkes estimate   =    -696.87025975 Ry
     estimated scf accuracy    <       0.00007015 Ry

     iteration # 23     ecut=    90.00 Ry     beta= 0.50
     Davidson diagonalization with overlap
     ethr =  6.62E-08,  avg # of iterations =  1.0

     total cpu time spent up to now is      161.1 secs

     total energy              =    -696.87025955 Ry
     Harris-Foulkes estimate   =    -696.87025964 Ry
     estimated scf accuracy    <       0.00003558 Ry

     iteration # 24     ecut=    90.00 Ry     beta= 0.50
     Davidson diagonalization with overlap
     ethr =  3.36E-08,  avg # of iterations =  1.0

     total cpu time spent up to now is      166.7 secs

     total energy              =    -696.87025957 Ry
     Harris-Foulkes estimate   =    -696.87025963 Ry
     estimated scf accuracy    <       0.00001927 Ry

     iteration # 25     ecut=    90.00 Ry     beta= 0.50
     Davidson diagonalization with overlap
     ethr =  1.82E-08,  avg # of iterations =  1.0

     total cpu time spent up to now is      172.4 secs

     total energy              =    -696.87025960 Ry
     Harris-Foulkes estimate   =    -696.87025962 Ry
     estimated scf accuracy    <       0.00000461 Ry

     iteration # 26     ecut=    90.00 Ry     beta= 0.50
     Davidson diagonalization with overlap
     ethr =  4.35E-09,  avg # of iterations =  1.0

     total cpu time spent up to now is      178.0 secs

     total energy              =    -696.87025959 Ry
     Harris-Foulkes estimate   =    -696.87025961 Ry
     estimated scf accuracy    <       0.00000989 Ry

     iteration # 27     ecut=    90.00 Ry     beta= 0.50
     Davidson diagonalization with overlap
     ethr =  4.35E-09,  avg # of iterations =  1.0

     total cpu time spent up to now is      183.6 secs

     total energy              =    -696.87025961 Ry
     Harris-Foulkes estimate   =    -696.87025962 Ry
     estimated scf accuracy    <       0.00000196 Ry

     iteration # 28     ecut=    90.00 Ry     beta= 0.50
     Davidson diagonalization with overlap
     ethr =  1.84E-09,  avg # of iterations =  1.0

     total cpu time spent up to now is      189.3 secs

     End of self-consistent calculation

          k = 0.0000 0.0000 0.0000 ( 17329 PWs)   bands (ev):

   -31.3912 -16.1982 -16.1747 -11.8907 -11.4418 -11.4213  -8.4003  -7.5025
    -7.4715  -7.2125  -6.9334  -6.5349  -6.4562  -1.3817  -1.3379  -1.1673
    -1.1406  -1.0270  -0.9802   4.5779   4.6207   4.6299   4.7968   4.8765
     4.9281   5.7521   5.8766   5.9310   5.9953   6.2170   6.5709   6.5867
     6.6039   6.7231   6.7368   6.7812   6.8978   6.9828   7.0603   7.0924
     7.3876   7.4941   7.6512   7.8005   7.8384   7.8418   8.0613   8.0992
     8.4652   8.5165   8.6712   8.8573   8.8772   9.0228   9.0396  11.9459
    12.6580  13.4677  13.5447  14.3017  14.5990  15.0607  15.3367  15.6565

          k = 0.0000 0.1224 0.0000 ( 17361 PWs)   bands (ev):

   -31.3897 -16.1832 -16.1601 -11.8632 -11.5245 -11.4189  -8.2948  -7.5198
    -7.4346  -7.1988  -6.9567  -6.5888  -6.5217  -1.3848  -1.3242  -1.1588
    -1.1198  -0.9984  -0.9506   4.4870   4.5365   4.6759   4.7295   4.8862
     4.9165   5.3406   5.7154   5.7971   6.0060   6.1735   6.3840   6.3937
     6.4724   6.5146   6.7421   6.7640   7.0086   7.0558   7.1091   7.1383
     7.5770   7.5796   7.6131   7.6615   7.8027   7.8903   8.1237   8.2049
     8.4487   8.5771   8.6665   8.7807   8.9411   9.1231   9.2704  12.2836
    12.8236  13.7767  13.7817  14.4338  14.5752  15.2916  15.5359  15.7624

          k = 0.0000 0.2448 0.0000 ( 17354 PWs)   bands (ev):

   -31.3858 -16.1466 -16.1244 -11.7943 -11.7069 -11.4133  -8.0415  -7.5913
    -7.3454  -7.1784  -6.9860  -6.7153  -6.6792  -1.3774  -1.2895  -1.1396
    -1.0803  -0.9276  -0.8772   4.1390   4.2930   4.4672   4.6665   4.8098
     4.9189   5.0692   5.3240   5.7498   5.9866   6.0184   6.0681   6.0780
     6.2245   6.3802   6.7354   6.7504   6.8616   6.8724   7.0848   7.2169
     7.4234   7.7420   7.7785   7.8179   7.9742   7.9930   8.1388   8.3341
     8.4009   8.5848   8.6146   8.7350   8.8379   9.2545  10.0796  13.0774
    13.2141  14.3754  14.5201  14.5819  14.6458  15.5904  15.7428  15.9541

          k = 0.0000 0.3672 0.0000 ( 17324 PWs)   bands (ev):

   -31.3820 -16.1093 -16.0881 -11.8706 -11.7216 -11.4076  -7.7609  -7.6996
    -7.3105  -7.1313  -6.9817  -6.8497  -6.8376  -1.3515  -1.2532  -1.1226
    -1.0539  -0.8539  -0.8005   3.7458   3.9395   4.0200   4.6072   4.9734
     5.0070   5.0164   5.1583   5.6855   5.7505   5.7961   5.9316   5.9557
     6.0153   6.2874   6.4619   6.5659   6.7666   6.9092   7.0064   7.2902
     7.5013   7.6928   7.8244   7.8517   7.8985   8.1334   8.3954   8.4550
     8.5651   8.5754   8.5913   8.6554   8.9408   9.2278  10.6662  13.5327
    14.0266  14.4686  14.5576  15.1858  15.4082  15.4740  15.5565  16.2759

          k = 0.0000-0.4896 0.0000 ( 17310 PWs)   bands (ev):

   -31.3804 -16.0937 -16.0729 -11.9341 -11.6901 -11.4053  -7.7525  -7.6005
    -7.3709  -7.0255  -6.9784  -6.9725  -6.8875  -1.3350  -1.2380  -1.1162
    -1.0472  -0.8224  -0.7678   3.5570   3.7847   3.9035   4.5921   4.8888
     5.0081   5.1603   5.1978   5.4572   5.6821   5.8432   5.8700   5.9409
     5.9415   6.2123   6.2513   6.5465   6.7479   6.8183   7.0923   7.3067
     7.4068   7.8197   7.8302   7.8720   7.9125   8.1101   8.4222   8.5026
     8.5435   8.5621   8.6677   8.7765   9.0624   9.0888  10.8630  13.7658
    14.1378  14.4482  15.0255  15.2029  15.2787  15.5428  15.8665  16.2795

          k = 0.1250 0.0000 0.0000 ( 17354 PWs)   bands (ev):

   -31.3892 -16.1798 -16.1576 -11.8596 -11.5144 -11.4389  -8.2951  -7.4997
    -7.4948  -7.1831  -6.9845  -6.5857  -6.4676  -1.4110  -1.3693  -1.1335
    -1.1074  -1.0006  -0.9859   4.4420   4.5020   4.6647   4.6779   4.9397
     4.9397   5.8138   5.8488   5.8947   5.9330   6.1314   6.3968   6.4164
     6.4315   6.7248   6.7425   6.8180   6.9708   7.0940   7.0957   7.1547
     7.2878   7.5393   7.5555   7.6362   7.7367   7.8521   8.1080   8.1506
     8.4249   8.6851   8.7547   8.7594   8.8595   8.9081   9.0034  12.2650
    12.8322  13.7439  13.8613  14.5546  14.5587  15.3731  15.5786  15.7494

          k = 0.1250 0.1224 0.0000 ( 17355 PWs)   bands (ev):

   -31.3876 -16.1654 -16.1435 -11.8325 -11.5251 -11.5069  -8.1905  -7.5050
    -7.4590  -7.1683  -7.0121  -6.6251  -6.5230  -1.3963  -1.3686  -1.2115
    -1.2034  -0.9146  -0.9039   4.3623   4.4926   4.6204   4.6807   4.7599
     5.0111   5.3328   5.6665   5.8884   5.9482   6.0440   6.1549   6.1782
     6.4937   6.6621   6.7655   6.8133   6.9642   6.9987   7.0269   7.1803
     7.5349   7.6045   7.6165   7.7195   7.8056   7.8182   7.9289   8.2140
     8.4495   8.6258   8.8329   8.8796   9.0047   9.1646   9.3066  12.5341
    12.9639  14.0390  14.0862  14.4509  14.6513  15.5003  15.7028  15.7763

          k = 0.1250 0.2448 0.0000 ( 17361 PWs)   bands (ev):

   -31.3838 -16.1301 -16.1090 -11.7648 -11.7021 -11.5032  -7.9391  -7.5626
    -7.3538  -7.1478  -7.0483  -6.7193  -6.6623  -1.3757  -1.3629  -1.2684
    -1.2443  -0.8713  -0.8511   4.0421   4.2821   4.4748   4.6392   4.6726
     4.6962   5.1531   5.3167   5.6853   5.7485   5.8812   5.9893   6.0580
     6.1965   6.5165   6.8153   6.8399   6.8832   6.9656   6.9768   7.1465
     7.5289   7.6188   7.7585   7.8419   8.0263   8.1206   8.1648   8.2109
     8.3800   8.4702   8.8701   9.0509   9.1173   9.4397  10.0836  13.1533
    13.3395  14.2945  14.5487  14.7823  14.8338  15.7267  15.7437  15.9067

          k = 0.1250 0.3672 0.0000 ( 17367 PWs)   bands (ev):

   -31.3800 -16.0942 -16.0740 -11.8643 -11.6932 -11.4960  -7.6630  -7.6592
    -7.2712  -7.1233  -7.0446  -6.8274  -6.8133  -1.3562  -1.3206  -1.2575
    -1.2096  -0.9053  -0.8987   3.6857   3.8984   3.9954   4.5840   4.7179
     4.8145   5.0807   5.2129   5.3901   5.3984   5.8764   5.9323   5.9976
     6.0243   6.2850   6.7696   6.7778   6.8311   6.8714   7.1294   7.2109
     7.5083   7.6896   7.8669   7.9080   7.9861   8.2249   8.3149   8.4216
     8.4978   8.6254   8.7801   9.0479   9.2062   9.5208  10.6453  13.4825
    13.9491  14.1473  14.6690  15.3642  15.4203  15.6646  15.9084  16.3227

          k = 0.1250-0.4896 0.0000 ( 17340 PWs)   bands (ev):

   -31.3784 -16.0791 -16.0592 -11.9273 -11.6622 -11.4931  -7.7138  -7.4881
    -7.3284  -7.0345  -6.9983  -6.9778  -6.8523  -1.3322  -1.2981  -1.2337
    -1.1712  -0.9582  -0.9440   3.5253   3.7080   3.8710   4.5689   4.7387
     4.9137   5.0222   5.1860   5.2241   5.2776   5.8764   5.9062   5.9476
     6.0486   6.1804   6.7352   6.7501   6.8001   6.8294   7.1273   7.3182
     7.5897   7.6243   7.9001   7.9135   7.9500   8.2263   8.3885   8.4863
     8.6384   8.7298   8.7469   9.0487   9.2046   9.4993  10.8323  13.7088
    13.9072  14.0546  15.2072  15.2115  15.6072  15.7220  16.0205  16.4363

          k = 0.2500 0.0000 0.0000 ( 17388 PWs)   bands (ev):

   -31.3843 -16.1348 -16.1157 -11.7814 -11.7187 -11.4318  -8.0495  -7.5794
    -7.5116  -7.1238  -7.0758  -6.7057  -6.4839  -1.5132  -1.3357  -1.0491
    -1.0428  -1.0247  -0.9625   4.0396   4.1744   4.6220   4.7899   4.9822
     5.0285   5.7591   5.7624   5.7938   5.8163   5.9319   6.0663   6.0950
     6.4015   6.7001   6.7663   6.7816   6.8214   6.9267   7.1505   7.1989
     7.1994   7.4385   7.5497   7.8305   7.8640   7.8950   8.0092   8.2675
     8.4790   8.5558   8.5949   8.6692   8.7072   8.9098   9.2159  12.9233
    13.2896  14.4705  14.4784  14.5880  15.1090  15.7393  16.0505  16.0794

          k = 0.2500 0.1224 0.0000 ( 17384 PWs)   bands (ev):

   -31.3827 -16.1217 -16.1028 -11.7554 -11.7146 -11.5111  -7.9473  -7.5283
    -7.4992  -7.1190  -7.1044  -6.7126  -6.5185  -1.5133  -1.3293  -1.2869
    -1.2254  -0.9004  -0.8850   3.9586   4.1691   4.6093   4.6978   4.7711
     5.0836   5.3219   5.5619   5.6674   5.7350   5.8555   5.9308   6.0904
     6.4527   6.4908   6.8414   6.8684   6.9301   6.9595   7.0140   7.1514
     7.4026   7.5383   7.6032   7.8521   7.8979   8.0117   8.1118   8.1506
     8.4134   8.4448   8.7968   8.9993   9.0426   9.3873   9.4145  13.0378
    13.3775  14.2735  14.7488  14.7746  14.9831  15.6954  15.8223  16.0310

          k = 0.2500 0.2448 0.0000 ( 17354 PWs)   bands (ev):

   -31.3790 -16.0897 -16.0713 -11.7106 -11.6905 -11.6812  -7.7040  -7.5016
    -7.3865  -7.1926  -7.0715  -6.7308  -6.6191  -1.5450  -1.5048  -1.3630
    -1.3121  -0.9699  -0.9475   3.6699   4.0809   4.4766   4.5031   4.5062
     4.6489   5.1673   5.2168   5.3070   5.4188   5.9046   5.9458   6.0779
     6.1790   6.4760   6.5326   6.8224   6.9777   7.1143   7.3309   7.3890
     7.4380   7.7575   7.8692   7.9610   8.0339   8.1004   8.3007   8.3164
     8.3881   8.4579   8.9122   9.1038   9.7002   9.9124  10.0963  13.0875
    13.6842  14.0299  14.6902  15.3793  15.5145  15.6205  15.9159  16.0191

          k = 0.2500 0.3672 0.0000 ( 17382 PWs)   bands (ev):

   -31.3752 -16.0572 -16.0394 -11.8492 -11.6919 -11.6220  -7.5720  -7.4365
    -7.1993  -7.1962  -7.0787  -6.7707  -6.7529  -1.5678  -1.5644  -1.3994
    -1.3038  -1.1779  -1.1132   3.3286   3.8245   3.9015   4.3911   4.4628
     4.6233   4.7834   4.9750   5.3299   5.3937   5.8462   5.9820   5.9986
     6.0573   6.2604   6.4406   6.8633   7.0000   7.2855   7.5190   7.5724
     7.7009   7.8145   7.9983   8.0397   8.2417   8.3065   8.3198   8.4443
     8.5892   8.6002   8.8487   9.1103  10.0542  10.2139  10.5860  12.9524
    13.6020  14.1992  15.1124  15.2277  15.7018  15.9315  16.1100  16.2676

          k = 0.2500-0.4896 0.0000 ( 17382 PWs)   bands (ev):

   -31.3736 -16.0436 -16.0261 -11.9111 -11.6879 -11.5924  -7.6174  -7.2319
    -7.2194  -7.1860  -6.9786  -6.9326  -6.7636  -1.5127  -1.4645  -1.4480
    -1.4377  -1.2534  -1.2049   3.1867   3.6811   3.6904   4.3715   4.4833
     4.6134   4.6374   4.8876   5.3092   5.4019   5.8659   5.9313   5.9348
     6.1138   6.1549   6.4203   6.8761   7.0193   7.3080   7.5541   7.7502
     7.8509   7.8782   8.0257   8.0586   8.1325   8.3186   8.4560   8.5898
     8.6758   8.7067   8.7693   9.0578  10.1502  10.2883  10.7409  12.8805
    13.5440  14.2112  15.0243  15.6476  15.8246  16.0683  16.1225  16.4007

          k = 0.3750 0.0000 0.0000 ( 17386 PWs)   bands (ev):

   -31.3794 -16.0887 -16.0729 -11.9010 -11.6983 -11.4247  -7.8002  -7.6722
    -7.5983  -7.1008  -7.0917  -6.8235  -6.4854  -1.5686  -1.2944  -1.0784
    -0.9871  -0.9606  -0.9381   3.6800   3.8397   4.6161   4.9688   5.0186
     5.0633   5.5850   5.6457   5.6692   5.7215   5.7562   5.7878   5.8875
     6.3378   6.4511   6.6119   6.6813   6.8167   7.0744   7.0786   7.1893
     7.2249   7.4406   7.5892   7.7631   7.9541   8.0150   8.2771   8.3156
     8.4732   8.4735   8.5029   8.5132   8.6680   8.9713   9.2493  13.3678
    13.9723  14.3937  15.1137  15.3500  15.6129  15.8765  15.9507  16.1296

          k = 0.3750 0.1224 0.0000 ( 17354 PWs)   bands (ev):

   -31.3778 -16.0770 -16.0613 -11.8957 -11.6735 -11.5023  -7.7039  -7.6055
    -7.5677  -7.1546  -7.0659  -6.8016  -6.5038  -1.5662  -1.3035  -1.2599
    -1.1949  -0.9815  -0.9669   3.5789   3.8155   4.5962   4.8135   4.8524
     5.0954   5.2947   5.3325   5.3567   5.4932   5.7309   5.9719   6.0056
     6.3083   6.4016   6.7694   6.8094   6.8919   7.0393   7.1203   7.2514
     7.2652   7.4530   7.7603   7.8760   7.9687   8.0952   8.2990   8.3195
     8.3844   8.4408   8.6159   8.9216   9.1009   9.4231   9.4951  13.2537
    13.9775  14.1666  15.0942  15.4171  15.5753  15.8146  16.0286  16.2793

          k = 0.3750 0.2448 0.0000 ( 17351 PWs)   bands (ev):

   -31.3741 -16.0485 -16.0330 -11.8828 -11.6756 -11.6117  -7.4966  -7.4903
    -7.4106  -7.2821  -7.0084  -6.7471  -6.5715  -1.6045  -1.5873  -1.4387
    -1.2873  -1.2084  -1.1641   3.2616   3.6986   4.4247   4.5249   4.5473
     4.6547   4.7538   5.0188   5.3412   5.3717   5.9213   5.9261   6.0911
     6.1473   6.2264   6.4613   6.8944   7.1987   7.2329   7.4634   7.5015
     7.6892   7.6902   7.9327   8.0726   8.2304   8.2926   8.3300   8.3951
     8.4453   8.4804   8.8528   8.9764   9.9797  10.1164  10.1825  12.8235
    13.5522  14.3583  15.1428  15.5856  15.6058  15.8458  16.2162  16.2597

          k = 0.3750 0.3672 0.0000 ( 17370 PWs)   bands (ev):

   -31.3703 -16.0196 -16.0044 -11.8702 -11.8326 -11.5465  -7.4775  -7.3569
    -7.2520  -7.1633  -6.9729  -6.7088  -6.6917  -1.7876  -1.7409  -1.5428
    -1.5208  -1.3855  -1.2572   2.8938   3.4611   3.9346   4.2873   4.3401
     4.3558   4.6278   4.8804   5.3359   5.5329   5.7569   5.9746   6.0188
     6.0911   6.1513   6.2445   6.9424   7.2879   7.5997   7.7761   7.8593
     7.8653   8.1235   8.1400   8.2480   8.2682   8.3034   8.4947   8.5683
     8.6167   8.6884   8.8462   9.1516  10.5112  10.6156  10.7174  12.3729
    13.2759  14.4996  15.0972  15.5081  15.6453  15.7908  15.9529  16.2300

          k = 0.3750-0.4896 0.0000 ( 17376 PWs)   bands (ev):

   -31.3688 -16.0075 -15.9924 -11.8948 -11.8639 -11.5185  -7.5164  -7.3409
    -7.0980  -7.0080  -6.9666  -6.8690  -6.6686  -1.7875  -1.7846  -1.7519
    -1.5919  -1.4400  -1.2513   2.7390   3.3327   3.7125   4.2182   4.2501
     4.2963   4.6218   4.8406   5.3300   5.6108   5.6866   5.9114   5.9935
     6.0780   6.1109   6.2351   6.9524   7.3159   7.7613   7.9039   7.9308
     8.0426   8.1710   8.2321   8.2658   8.3825   8.4066   8.5101   8.6209
     8.6741   8.7040   9.0081   9.1630  10.6155  10.8194  10.9003  12.1998
    13.2056  14.5195  14.8359  15.5129  15.6691  15.7503  16.0410  16.4024

          k =-0.5000 0.0000 0.0000 ( 17430 PWs)   bands (ev):

   -31.3774 -16.0693 -16.0549 -11.9715 -11.6622 -11.4217  -7.7249  -7.6771
    -7.6523  -7.0938  -7.0926  -6.8722  -6.4822  -1.5836  -1.2735  -1.0930
    -1.0054  -0.9225  -0.9009   3.5416   3.7020   4.6244   4.9778   5.0879
     5.1262   5.5266   5.5850   5.5875   5.6112   5.6117   5.6488   6.0208
     6.2167   6.2831   6.6054   6.6757   6.8137   7.0648   7.1765   7.1781
     7.2231   7.4517   7.4946   7.9220   7.9852   8.0531   8.2344   8.2881
     8.4003   8.4412   8.4979   8.6261   8.7201   8.9878   9.1842  13.5203
    14.3433  14.3646  15.2506  15.7721  15.8092  15.8613  15.9394  16.1571

          k =-0.5000 0.1224 0.0000 ( 17366 PWs)   bands (ev):

   -31.3758 -16.0582 -16.0438 -11.9658 -11.6380 -11.4987  -7.6584  -7.6180
    -7.5761  -7.1482  -7.0641  -6.8392  -6.4949  -1.5767  -1.2744  -1.2195
    -1.1074  -1.0880  -1.0594   3.4320   3.6691   4.5945   4.8620   5.0123
     5.0935   5.1389   5.1421   5.2732   5.4742   5.6861   5.9000   6.0956
     6.2469   6.3699   6.7205   6.7494   6.9081   7.0640   7.1147   7.2297
     7.3684   7.4574   7.7291   7.9491   8.0250   8.1046   8.2133   8.3542
     8.4290   8.4692   8.6954   8.8822   9.0919   9.4244   9.4605  13.2943
    13.9637  14.4200  15.3807  15.4693  15.8817  16.0492  16.0735  16.2710

          k =-0.5000 0.2448 0.0000 ( 17346 PWs)   bands (ev):

   -31.3721 -16.0312 -16.0169 -11.9520 -11.6707 -11.5775  -7.5328  -7.4727
    -7.3452  -7.2811  -6.9935  -6.7557  -6.5500  -1.5752  -1.5172  -1.4364
    -1.4316  -1.3404  -1.2511   3.0991   3.5331   4.4212   4.5304   4.5780
     4.6049   4.6733   4.9111   5.3270   5.3566   5.9242   5.9989   6.0687
     6.1153   6.1697   6.4310   6.9243   7.2413   7.3462   7.5090   7.5272
     7.6544   7.8312   8.0030   8.1380   8.1698   8.3128   8.3319   8.4083
     8.6260   8.6683   8.6689   8.8624  10.0395  10.1260  10.2404  12.6823
    13.4511  14.5895  15.4807  15.5954  15.7310  15.7994  16.1575  16.2582

          k =-0.5000 0.3672 0.0000 ( 17380 PWs)   bands (ev):

   -31.3683 -16.0038 -15.9897 -11.9381 -11.8271 -11.5139  -7.4440  -7.4164
    -7.2111  -7.1286  -6.9199  -6.6806  -6.6663  -1.8073  -1.7825  -1.7465
    -1.5561  -1.5390  -1.2450   2.7158   3.2887   3.9488   4.1984   4.2637
     4.3309   4.6341   4.8449   5.3211   5.5245   5.8367   5.9154   5.9805
     6.0973   6.1759   6.1826   6.9672   7.4486   7.6766   7.8637   7.9565
     7.9767   8.1148   8.1925   8.3027   8.3931   8.5221   8.5347   8.5416
     8.5436   8.6924   8.9963   9.0594  10.4805  10.7917  10.8845  12.1442
    13.1621  14.7066  15.0581  15.3713  15.5635  15.8195  16.0100  16.2272

          k =-0.5000-0.4896 0.0000 ( 17420 PWs)   bands (ev):

   -31.3668 -15.9924 -15.9783 -11.9324 -11.8881 -11.4865  -7.4732  -7.4062
    -7.0423  -6.9942  -6.8872  -6.8446  -6.6272  -1.9261  -1.9007  -1.8702
    -1.6404  -1.5411  -1.2398   2.5540   3.1606   3.7269   4.0667   4.2196
     4.2687   4.6305   4.8221   5.3156   5.6117   5.7716   5.8290   5.9546
     6.0740   6.1060   6.2209   6.9775   7.4847   7.8833   7.9800   8.0742
     8.0843   8.2998   8.3087   8.3547   8.3784   8.4354   8.6255   8.6512
     8.6613   8.6993   9.1310   9.2472  10.5554  11.0483  11.1264  11.9438
    13.0909  14.7293  14.7633  15.3377  15.4859  15.5115  15.9072  16.4367

     the Fermi energy is     9.2820 ev

!    total energy              =    -696.87025942 Ry
     Harris-Foulkes estimate   =    -696.87025961 Ry
     estimated scf accuracy    <       0.00000044 Ry

     The total energy is the sum of the following terms:

     one-electron contribution =    -214.89294359 Ry
     hartree contribution      =     189.81982761 Ry
     xc contribution           =    -148.54061896 Ry
     ewald contribution        =    -523.25327088 Ry
     smearing contrib. (-TS)   =      -0.00325359 Ry

     convergence has been achieved in  28 iterations

     Forces acting on atoms (cartesian axes, Ry/au):

     atom    1 type  2   force =     0.00000000    0.00000000   -0.00964491
     atom    2 type  2   force =     0.00000000    0.00000000    0.00964491
     atom    3 type  1   force =     0.00000000    0.00000000    0.00000000
     atom    4 type  4   force =     0.00000000    0.00000000    0.00062691
     atom    5 type  4   force =     0.00000000    0.00000000   -0.00062691
     atom    6 type  4   force =     0.00000000    0.00000000    0.00000000
     atom    7 type  3   force =     0.00000000    0.00000000    0.00000000
     atom    8 type  3   force =     0.00000000    0.00000000   -0.00332651
     atom    9 type  3   force =     0.00000000    0.00000000    0.00332651
     atom   10 type  3   force =     0.00000000    0.00000000   -0.00439857
     atom   11 type  3   force =     0.00000000    0.00000000    0.00439857
     atom   12 type  3   force =     0.00000000    0.00000000    0.00764048
     atom   13 type  3   force =     0.00000000    0.00000000   -0.00764048

     Total force =     0.019090     Total SCF correction =     0.000157


     Computing stress (Cartesian axis) and pressure

          total   stress  (Ry/bohr**3)                   (kbar)     P=      -95.06
  -0.00063433   0.00000000   0.00000000          -93.31        0.00        0.00
   0.00000000  -0.00068913   0.00000000            0.00     -101.37        0.00
   0.00000000   0.00000000  -0.00061512            0.00        0.00      -90.49


     BFGS Geometry Optimization

     number of scf cycles    =   1
     number of bfgs steps    =   0

     enthalpy new            =    -696.8702594161 Ry

     new trust radius        =       0.1195797575 bohr
     new conv_thr            =       0.0000010000 Ry

     new unit-cell volume =   1146.97600 a.u.^3 (   169.96431 Ang^3 )
     density =      6.50875 g/cm^3

CELL_PARAMETERS (angstrom)
   3.783700323   0.000000000   0.000000000
   0.000000000   3.858509421   0.000000000
   0.000000000   0.000000000  11.641834676

ATOMIC_POSITIONS (angstrom)
Ba            1.8918491771        1.9292556932        9.5341925326
Ba            1.8918491771        1.9292556932        2.1076460814
Y             1.8918491771        1.9292556932        5.8209193070
Cu            0.0000000000        0.0000000000        7.5288471740
Cu            0.0000000000        0.0000000000        4.1129904555
Cu            0.0000000000        0.0000000000        0.0000000000
O             0.0000000000        1.9292556932        0.0000000000
O             1.8918491771        0.0000000000        7.2238082917
O             1.8918491771        0.0000000000        4.4180293378
O             0.0000000000        1.9292556932        7.2348682459
O             0.0000000000        1.9292556932        4.4069703682
O             0.0000000000        0.0000000000        9.7926715726
O             0.0000000000        0.0000000000        1.8491670414



     Writing output data file /n/holyscratch01/hoffman_lab/ruizhe/outdir/YBCO_ecut90.save/
     NEW-OLD atomic charge density approx. for the potential
     extrapolated charge  100.69376, renormalised to  106.00000

     total cpu time spent up to now is      208.4 secs

     Self-consistent Calculation

     iteration #  1     ecut=    90.00 Ry     beta= 0.50
     Davidson diagonalization with overlap
     c_bands:  1 eigenvalues not converged
     ethr =  1.00E-06,  avg # of iterations = 12.8

     negative rho (up, down):  1.207E-07 0.000E+00

     total cpu time spent up to now is      225.7 secs

     total energy              =    -690.34562288 Ry
     Harris-Foulkes estimate   =    -708.90072546 Ry
     estimated scf accuracy    <       8.08028853 Ry

     iteration #  2     ecut=    90.00 Ry     beta= 0.50
     Davidson diagonalization with overlap
     ethr =  7.62E-03,  avg # of iterations =  6.3

     negative rho (up, down):  5.698E-01 0.000E+00

     total cpu time spent up to now is      237.4 secs

     total energy              =    -684.23074531 Ry
     Harris-Foulkes estimate   =    -734.15592769 Ry
     estimated scf accuracy    <    2490.93786404 Ry

     iteration #  3     ecut=    90.00 Ry     beta= 0.50
     Davidson diagonalization with overlap
     ethr =  7.62E-03,  avg # of iterations =  4.2

     negative rho (up, down):  3.938E-02 0.000E+00

     total cpu time spent up to now is      247.5 secs

     total energy              =    -648.80653850 Ry
     Harris-Foulkes estimate   =    -763.43042861 Ry
     estimated scf accuracy    <   54302.13650131 Ry

     iteration #  4     ecut=    90.00 Ry     beta= 0.50
     Davidson diagonalization with overlap
     ethr =  7.62E-03,  avg # of iterations =  4.4

     total cpu time spent up to now is      257.7 secs

     total energy              =    -692.97455630 Ry
     Harris-Foulkes estimate   =    -701.26153374 Ry
     estimated scf accuracy    <    6180.77920800 Ry

     iteration #  5     ecut=    90.00 Ry     beta= 0.50
     Davidson diagonalization with overlap
     ethr =  7.62E-03,  avg # of iterations =  3.2

     negative rho (up, down):  2.190E-02 0.000E+00

     total cpu time spent up to now is      265.7 secs

     total energy              =    -696.15785352 Ry
     Harris-Foulkes estimate   =    -698.16891143 Ry
     estimated scf accuracy    <     259.30243820 Ry

     iteration #  6     ecut=    90.00 Ry     beta= 0.50
     Davidson diagonalization with overlap
     ethr =  7.62E-03,  avg # of iterations =  4.0

     total cpu time spent up to now is      273.4 secs

     total energy              =    -692.23199440 Ry
     Harris-Foulkes estimate   =    -701.44836442 Ry
     estimated scf accuracy    <    2279.79583138 Ry

     iteration #  7     ecut=    90.00 Ry     beta= 0.50
     Davidson diagonalization with overlap
     ethr =  7.62E-03,  avg # of iterations =  3.3

     total cpu time spent up to now is      281.3 secs

     total energy              =    -696.98586899 Ry
     Harris-Foulkes estimate   =    -697.28196514 Ry
     estimated scf accuracy    <       5.07542620 Ry

     iteration #  8     ecut=    90.00 Ry     beta= 0.50
     Davidson diagonalization with overlap
     ethr =  4.79E-03,  avg # of iterations =  1.0

     total cpu time spent up to now is      287.0 secs

     total energy              =    -696.95999580 Ry
     Harris-Foulkes estimate   =    -697.05545768 Ry
     estimated scf accuracy    <       2.02374547 Ry

     iteration #  9     ecut=    90.00 Ry     beta= 0.50
     Davidson diagonalization with overlap
     ethr =  1.91E-03,  avg # of iterations =  1.0

     total cpu time spent up to now is      292.7 secs

     total energy              =    -696.95373887 Ry
     Harris-Foulkes estimate   =    -696.98069975 Ry
     estimated scf accuracy    <       0.53392542 Ry

     iteration # 10     ecut=    90.00 Ry     beta= 0.50
     Davidson diagonalization with overlap
     ethr =  5.04E-04,  avg # of iterations =  1.0

     total cpu time spent up to now is      298.3 secs

     total energy              =    -696.87120234 Ry
     Harris-Foulkes estimate   =    -696.95761593 Ry
     estimated scf accuracy    <       0.42252082 Ry

     iteration # 11     ecut=    90.00 Ry     beta= 0.50
     Davidson diagonalization with overlap
     ethr =  3.99E-04,  avg # of iterations =  2.6

     total cpu time spent up to now is      304.6 secs

     total energy              =    -696.88822732 Ry
     Harris-Foulkes estimate   =    -696.90326331 Ry
     estimated scf accuracy    <       0.15012115 Ry

     iteration # 12     ecut=    90.00 Ry     beta= 0.50
     Davidson diagonalization with overlap
     ethr =  1.42E-04,  avg # of iterations =  5.3

     total cpu time spent up to now is      311.9 secs

     total energy              =    -696.89227072 Ry
     Harris-Foulkes estimate   =    -696.89834054 Ry
     estimated scf accuracy    <       0.64534255 Ry

     iteration # 13     ecut=    90.00 Ry     beta= 0.50
     Davidson diagonalization with overlap
     ethr =  1.42E-04,  avg # of iterations =  3.0

     total cpu time spent up to now is      318.5 secs

     total energy              =    -696.86604241 Ry
     Harris-Foulkes estimate   =    -696.92496852 Ry
     estimated scf accuracy    <      35.05380802 Ry

     iteration # 14     ecut=    90.00 Ry     beta= 0.50
     Davidson diagonalization with overlap
     ethr =  1.42E-04,  avg # of iterations =  3.0

     total cpu time spent up to now is      325.0 secs

     total energy              =    -696.89540464 Ry
     Harris-Foulkes estimate   =    -696.89753283 Ry
     estimated scf accuracy    <       0.26579158 Ry

     iteration # 15     ecut=    90.00 Ry     beta= 0.50
     Davidson diagonalization with overlap
     ethr =  1.42E-04,  avg # of iterations =  2.0

     total cpu time spent up to now is      331.0 secs

     total energy              =    -696.89556012 Ry
     Harris-Foulkes estimate   =    -696.89736346 Ry
     estimated scf accuracy    <       1.01255634 Ry

     iteration # 16     ecut=    90.00 Ry     beta= 0.50
     Davidson diagonalization with overlap
     ethr =  1.42E-04,  avg # of iterations =  1.0

     total cpu time spent up to now is      336.7 secs

     total energy              =    -696.89633183 Ry
     Harris-Foulkes estimate   =    -696.89645051 Ry
     estimated scf accuracy    <       0.02023368 Ry

     iteration # 17     ecut=    90.00 Ry     beta= 0.50
     Davidson diagonalization with overlap
     ethr =  1.91E-05,  avg # of iterations =  2.2

     total cpu time spent up to now is      342.7 secs

     total energy              =    -696.89630084 Ry
     Harris-Foulkes estimate   =    -696.89641632 Ry
     estimated scf accuracy    <       0.00531003 Ry

     iteration # 18     ecut=    90.00 Ry     beta= 0.50
     Davidson diagonalization with overlap
     ethr =  5.01E-06,  avg # of iterations =  5.0

     total cpu time spent up to now is      349.7 secs

     total energy              =    -696.89635950 Ry
     Harris-Foulkes estimate   =    -696.89640409 Ry
     estimated scf accuracy    <       0.00783852 Ry

     iteration # 19     ecut=    90.00 Ry     beta= 0.50
     Davidson diagonalization with overlap
     ethr =  5.01E-06,  avg # of iterations =  1.0

     total cpu time spent up to now is      355.3 secs

     total energy              =    -696.89635073 Ry
     Harris-Foulkes estimate   =    -696.89637965 Ry
     estimated scf accuracy    <       0.00131609 Ry

     iteration # 20     ecut=    90.00 Ry     beta= 0.50
     Davidson diagonalization with overlap
     ethr =  1.24E-06,  avg # of iterations =  2.4

     total cpu time spent up to now is      361.4 secs

     total energy              =    -696.89636725 Ry
     Harris-Foulkes estimate   =    -696.89637096 Ry
     estimated scf accuracy    <       0.00019663 Ry

     iteration # 21     ecut=    90.00 Ry     beta= 0.50
     Davidson diagonalization with overlap
     ethr =  1.85E-07,  avg # of iterations =  1.7

     total cpu time spent up to now is      367.2 secs

     total energy              =    -696.89636899 Ry
     Harris-Foulkes estimate   =    -696.89637039 Ry
     estimated scf accuracy    <       0.00028492 Ry

     iteration # 22     ecut=    90.00 Ry     beta= 0.50
     Davidson diagonalization with overlap
     ethr =  1.85E-07,  avg # of iterations =  1.7

     total cpu time spent up to now is      373.1 secs

     total energy              =    -696.89636993 Ry
     Harris-Foulkes estimate   =    -696.89637010 Ry
     estimated scf accuracy    <       0.00003460 Ry

     iteration # 23     ecut=    90.00 Ry     beta= 0.50
     Davidson diagonalization with overlap
     ethr =  3.26E-08,  avg # of iterations =  1.4

     total cpu time spent up to now is      378.8 secs

     total energy              =    -696.89637001 Ry
     Harris-Foulkes estimate   =    -696.89637010 Ry
     estimated scf accuracy    <       0.00001605 Ry

     iteration # 24     ecut=    90.00 Ry     beta= 0.50
     Davidson diagonalization with overlap
     ethr =  1.51E-08,  avg # of iterations =  1.5

     total cpu time spent up to now is      384.6 secs

     total energy              =    -696.89637000 Ry
     Harris-Foulkes estimate   =    -696.89637005 Ry
     estimated scf accuracy    <       0.00000584 Ry

     iteration # 25     ecut=    90.00 Ry     beta= 0.50
     Davidson diagonalization with overlap
     ethr =  5.51E-09,  avg # of iterations =  2.6

     total cpu time spent up to now is      390.8 secs

     total energy              =    -696.89637004 Ry
     Harris-Foulkes estimate   =    -696.89637008 Ry
     estimated scf accuracy    <       0.00000459 Ry

     iteration # 26     ecut=    90.00 Ry     beta= 0.50
     Davidson diagonalization with overlap
     ethr =  4.33E-09,  avg # of iterations =  1.0

     total cpu time spent up to now is      396.5 secs

     total energy              =    -696.89637005 Ry
     Harris-Foulkes estimate   =    -696.89637006 Ry
     estimated scf accuracy    <       0.00000167 Ry

     iteration # 27     ecut=    90.00 Ry     beta= 0.50
     Davidson diagonalization with overlap
     ethr =  1.58E-09,  avg # of iterations =  1.8

     total cpu time spent up to now is      402.3 secs

     End of self-consistent calculation

          k = 0.0000 0.0000 0.0000 ( 17329 PWs)   bands (ev):

   -30.4762 -15.3924 -15.3630 -11.1695 -10.5625 -10.5417  -7.9676  -6.9729
    -6.8674  -6.6945  -6.3802  -5.9434  -5.8780  -0.5897  -0.5398  -0.3530
    -0.3224  -0.2118  -0.1575   5.0588   5.0721   5.0744   5.2630   5.3664
     5.4178   6.2338   6.4282   6.4714   6.5634   6.7753   7.1552   7.1768
     7.1921   7.3147   7.3240   7.3873   7.4928   7.5834   7.6659   7.7156
     8.0136   8.1710   8.2931   8.4460   8.4755   8.5503   8.7052   8.7513
     9.1451   9.2008   9.4286   9.5692   9.5890   9.7547   9.7691  12.8161
    13.4257  14.2269  14.3836  15.2593  16.0450  16.3076  16.7256  16.9822

          k = 0.0000 0.1246 0.0000 ( 17361 PWs)   bands (ev):

   -30.4741 -15.3734 -15.3445 -11.1334 -10.6767 -10.5387  -7.8389  -6.9330
    -6.9027  -6.6678  -6.3981  -6.0074  -5.9527  -0.5960  -0.5233  -0.3416
    -0.2938  -0.1773  -0.1215   4.9707   4.9791   5.1202   5.2008   5.3737
     5.4063   5.8635   6.2444   6.2867   6.5708   6.7248   6.9492   6.9567
     7.0445   7.0827   7.3406   7.3551   7.6346   7.6702   7.7427   7.7688
     8.2069   8.2230   8.2316   8.3299   8.4489   8.5425   8.7741   8.9111
     9.1274   9.2958   9.3686   9.4938   9.6594   9.8543  10.0408  13.1524
    13.6051  14.5475  14.6327  15.3746  15.4513  16.2850  16.5032  16.7798

          k = 0.0000 0.2491 0.0000 ( 17354 PWs)   bands (ev):

   -30.4690 -15.3268 -15.2991 -11.0418 -10.9185 -10.5315  -7.5478  -7.0327
    -6.8377  -6.6171  -6.4009  -6.1572  -6.1279  -0.5902  -0.4807  -0.3165
    -0.2405  -0.0913  -0.0315   4.5920   4.7360   4.9432   5.1471   5.2602
     5.4006   5.5685   5.8266   6.2460   6.5455   6.5463   6.6021   6.6208
     6.7748   6.9448   7.3261   7.3340   7.4692   7.4807   7.6993   7.8447
     8.0581   8.4118   8.4118   8.4687   8.6322   8.6675   8.8136   9.0205
     9.0731   9.3151   9.3370   9.4321   9.5476  10.0048  10.8970  13.9293
    14.0451  15.2792  15.3864  15.3932  15.5202  16.4924  16.6665  17.0252

          k = 0.0000 0.3737 0.0000 ( 17324 PWs)   bands (ev):

   -30.4639 -15.2790 -15.2526 -11.1274 -10.9428 -10.5243  -7.2510  -7.2048
    -6.7803  -6.5603  -6.3671  -6.3026  -6.3021  -0.5588  -0.4356  -0.2948
    -0.2059  -0.0010   0.0633   4.1808   4.3751   4.4529   5.0910   5.4480
     5.4752   5.4881   5.6551   6.1965   6.2680   6.3139   6.4464   6.5049
     6.5528   6.8492   7.0413   7.1302   7.3538   7.4837   7.6234   7.9193
     8.1301   8.3426   8.4631   8.5114   8.5825   8.8183   9.0972   9.1422
     9.2476   9.2800   9.3510   9.3534   9.6537   9.9878  11.5182  14.3493
    14.9071  15.3387  15.4612  16.0967  16.2990  16.3358  16.4636  17.2987

          k = 0.0000-0.4982 0.0000 ( 17310 PWs)   bands (ev):

   -30.4618 -15.2588 -15.2330 -11.2069 -10.8993 -10.5213  -7.2838  -7.1024
    -6.8103  -6.4604  -6.4281  -6.3613  -6.3470  -0.5379  -0.4167  -0.2868
    -0.1975   0.0378   0.1042   3.9809   4.2105   4.3304   5.0761   5.3620
     5.4787   5.6517   5.6579   5.9631   6.1957   6.3732   6.3833   6.4743
     6.4840   6.7699   6.8116   7.1100   7.3315   7.3744   7.7157   7.9347
     8.0190   8.4714   8.4910   8.5365   8.5869   8.7894   9.1298   9.1804
     9.2700   9.3035   9.3698   9.4858   9.7664   9.8649  11.7268  14.5800
    15.0046  15.3170  15.9305  16.1289  16.1676  16.4975  16.7470  17.2759

          k = 0.1270 0.0000 0.0000 ( 17354 PWs)   bands (ev):

   -30.4736 -15.3694 -15.3416 -11.1294 -10.6677 -10.5588  -7.8411  -7.0065
    -6.8653  -6.6489  -6.4390  -6.0043  -5.8926  -0.6298  -0.5761  -0.3125
    -0.2826  -0.1759  -0.1554   4.9176   4.9496   5.1048   5.1555   5.4273
     5.4288   6.2995   6.3959   6.4301   6.4887   6.6859   6.9655   6.9819
     7.0025   7.3106   7.3395   7.4217   7.5963   7.7117   7.7271   7.7838
     7.8965   8.1639   8.2159   8.2863   8.3871   8.4908   8.7784   8.8095
     9.1396   9.3925   9.4558   9.5130   9.5722   9.6274   9.7290  13.1246
    13.6154  14.5125  14.7163  15.4347  15.5092  16.3884  16.5694  16.7723

          k = 0.1270 0.1246 0.0000 ( 17355 PWs)   bands (ev):

   -30.4715 -15.3511 -15.3238 -11.0938 -10.6808 -10.6540  -7.7125  -6.9627
    -6.8883  -6.6227  -6.4662  -6.0509  -5.9550  -0.6119  -0.5772  -0.4077
    -0.4022  -0.0661  -0.0513   4.8332   4.9443   5.0642   5.1595   5.2358
     5.5064   5.8533   6.1856   6.3807   6.5083   6.5802   6.7116   6.7310
     7.0617   7.2462   7.3480   7.4111   7.5882   7.6205   7.6591   7.8119
     8.1654   8.2280   8.2741   8.3527   8.4580   8.4747   8.5892   8.8783
     9.1548   9.3183   9.5720   9.6033   9.7238   9.9106  10.0785  13.3974
    13.7581  14.8210  14.9544  15.3240  15.5730  16.5015  16.6739  16.7045

          k = 0.1270 0.2491 0.0000 ( 17361 PWs)   bands (ev):

   -30.4664 -15.3063 -15.2800 -11.0035 -10.9120 -10.6518  -7.4204  -6.9993
    -6.8505  -6.5749  -6.4804  -6.1626  -6.1090  -0.5933  -0.5731  -0.4696
    -0.4414  -0.0139   0.0150   4.4917   4.7305   4.9510   5.1135   5.1263
     5.1721   5.6538   5.8139   6.2115   6.2748   6.3883   6.5430   6.5972
     6.7445   7.0912   7.4100   7.4256   7.4824   7.5708   7.5783   7.7759
     8.1655   8.2601   8.4080   8.5107   8.6824   8.8053   8.8514   8.9014
     9.0566   9.1421   9.5935   9.7680   9.8834  10.2136  10.9015  13.9856
    14.1918  15.1533  15.4582  15.6401  15.6518  16.6739  16.6804  16.9293

          k = 0.1270 0.3737 0.0000 ( 17367 PWs)   bands (ev):

   -30.4613 -15.2603 -15.2352 -11.1188 -10.9060 -10.6423  -7.1633  -7.1196
    -6.7460  -6.5410  -6.4464  -6.2790  -6.2748  -0.5697  -0.5205  -0.4528
    -0.3947  -0.0556  -0.0439   4.1168   4.3332   4.4305   5.0599   5.1900
     5.2767   5.5712   5.7071   5.9002   5.9157   6.3997   6.4546   6.5345
     6.5764   6.8448   7.3374   7.3619   7.4224   7.4628   7.7536   7.8232
     8.1361   8.3425   8.5329   8.5692   8.6707   8.9176   9.0137   9.1084
     9.1815   9.3226   9.4918   9.7549   9.9843  10.3126  11.4953  14.3015
    14.7920  14.9946  15.5773  16.2637  16.3637  16.5249  16.8606  17.3567

          k = 0.1270-0.4982 0.0000 ( 17340 PWs)   bands (ev):

   -30.4592 -15.2410 -15.2164 -11.1978 -10.8632 -10.6383  -7.2400  -6.9582
    -6.7609  -6.4326  -6.4280  -6.4249  -6.3218  -0.5375  -0.4898  -0.4251
    -0.3459  -0.1205  -0.1034   3.9477   4.1291   4.2988   5.0439   5.2079
     5.3793   5.5116   5.6814   5.7307   5.7850   6.3880   6.4371   6.4879
     6.6012   6.7330   7.3101   7.3131   7.3854   7.4211   7.7541   7.9377
     8.2287   8.2510   8.5741   8.5836   8.6282   8.9212   9.0923   9.1681
     9.3418   9.4406   9.4554   9.7488   9.9843  10.2970  11.6928  14.5335
    14.7285  14.8970  16.0926  16.1219  16.5895  16.6995  16.9017  17.4230

          k = 0.2540 0.0000 0.0000 ( 17388 PWs)   bands (ev):

   -30.4672 -15.3128 -15.2892 -11.0272 -10.9331 -10.5500  -7.5629  -7.1024
    -6.9311  -6.5507  -6.5154  -6.1476  -5.9128  -0.7478  -0.5378  -0.2124
    -0.2107  -0.1827  -0.1224   4.4917   4.6235   5.1067   5.2358   5.4641
     5.5169   6.2884   6.2946   6.3140   6.3167   6.4731   6.6120   6.6314
     6.9730   7.2838   7.3466   7.3908   7.4248   7.5387   7.7670   7.8268
     7.8272   8.0784   8.2232   8.4820   8.5000   8.5408   8.6796   8.9398
     9.2338   9.2412   9.2894   9.3649   9.4234   9.6656   9.9657  13.7598
    14.1083  15.2817  15.3433  15.4892  16.0333  16.7900  16.9672  17.0124

          k = 0.2540 0.1246 0.0000 ( 17384 PWs)   bands (ev):

   -30.4651 -15.2963 -15.2729 -10.9929 -10.9275 -10.6582  -7.4344  -7.0470
    -6.9146  -6.5744  -6.5231  -6.1559  -5.9507  -0.7491  -0.5311  -0.4995
    -0.4215  -0.0354  -0.0255   4.4086   4.6220   5.0920   5.1482   5.2436
     5.5748   5.8390   6.0644   6.1928   6.2649   6.3831   6.4383   6.6526
     7.0259   7.0612   7.4300   7.4643   7.5397   7.5757   7.6118   7.7789
     8.0472   8.1770   8.2574   8.5022   8.5478   8.6719   8.7877   8.8279
     9.0887   9.1431   9.5197   9.7180   9.8109  10.1620  10.1873  13.8665
    14.2124  15.1291  15.5678  15.7183  15.8343  16.7205  16.7778  16.9703

          k = 0.2540 0.2491 0.0000 ( 17354 PWs)   bands (ev):

   -30.4601 -15.2559 -15.2332 -10.9237 -10.9061 -10.8807  -7.1440  -6.9312
    -6.8925  -6.6629  -6.4698  -6.1787  -6.0604  -0.7931  -0.7561  -0.5721
    -0.5110  -0.1177  -0.1007   4.1045   4.5383   4.9367   4.9532   4.9756
     5.1291   5.6700   5.7098   5.8196   5.9356   6.4200   6.4926   6.6289
     6.7387   7.0416   7.1095   7.4096   7.5876   7.7225   7.9278   8.0203
     8.0621   8.4289   8.5473   8.6321   8.6894   8.7662   8.9871   9.0196
     9.0519   9.1690   9.6470   9.8332  10.4998  10.7177  10.9141  13.8851
    14.5246  14.8807  15.5898  16.3182  16.3816  16.6324  16.7953  16.9781

          k = 0.2540 0.3737 0.0000 ( 17382 PWs)   bands (ev):

   -30.4550 -15.2146 -15.1928 -11.0983 -10.8954 -10.8126  -7.0597  -6.8489
    -6.6799  -6.6421  -6.4616  -6.2194  -6.2075  -0.8279  -0.8156  -0.6108
    -0.5027  -0.3644  -0.2960   3.7420   4.2648   4.3382   4.8432   4.9152
     5.0989   5.2748   5.4632   5.8576   5.8980   6.3777   6.5141   6.5509
     6.6138   6.8241   6.9987   7.4573   7.6087   7.8881   8.1514   8.2041
     8.3132   8.4899   8.6804   8.7294   8.9252   9.0040   9.0150   9.1525
     9.2916   9.2986   9.5747   9.8339  10.8722  11.0406  11.4299  13.7216
    14.4231  15.0446  16.0494  16.1270  16.6837  16.9155  17.0193  17.2829

          k = 0.2540-0.4982 0.0000 ( 17382 PWs)   bands (ev):

   -30.4529 -15.1973 -15.1758 -11.1757 -10.8900 -10.7715  -7.1302  -6.6384
    -6.6307  -6.6166  -6.4313  -6.3683  -6.2218  -0.7515  -0.6934  -0.6839
    -0.6720  -0.4427  -0.4009   3.5913   4.1028   4.1205   4.8219   4.9406
     5.0856   5.1238   5.3738   5.8427   5.8993   6.4081   6.4565   6.4819
     6.6604   6.7299   6.9743   7.4715   7.6302   7.9080   8.1854   8.3949
     8.4781   8.5589   8.7086   8.7468   8.8285   9.0107   9.1646   9.3127
     9.3805   9.4190   9.4909   9.7593  10.9724  11.1219  11.5915  13.6386
    14.3676  15.0525  15.9028  16.5792  16.7939  17.1052  17.1133  17.4037

          k = 0.3810 0.0000 0.0000 ( 17386 PWs)   bands (ev):

   -30.4608 -15.2545 -15.2353 -11.1614 -10.9160 -10.5411  -7.3007  -7.2132
    -7.0977  -6.4973  -6.4785  -6.2885  -5.9130  -0.8094  -0.4882  -0.2423
    -0.1492  -0.1028  -0.0770   4.1185   4.2794   5.1050   5.4231   5.4984
     5.5370   6.0949   6.1583   6.1698   6.2432   6.2867   6.3008   6.4151
     6.9052   7.0266   7.1751   7.2643   7.4344   7.6921   7.7012   7.8089
     7.8502   8.0785   8.2268   8.4284   8.6107   8.6903   8.9612   8.9792
     9.1532   9.1726   9.2072   9.2631   9.3860   9.7305  10.0110  14.1766
    14.8129  15.2638  16.0529  16.2072  16.5183  16.8796  16.8901  17.0181

          k = 0.3810 0.1246 0.0000 ( 17354 PWs)   bands (ev):

   -30.4587 -15.2399 -15.2208 -11.1541 -10.8833 -10.6468  -7.1857  -7.1301
    -7.0616  -6.5673  -6.4476  -6.2636  -5.9322  -0.8069  -0.5071  -0.4533
    -0.3866  -0.1271  -0.1193   4.0125   4.2565   5.0780   5.2815   5.3131
     5.5829   5.8078   5.8441   5.8532   5.9872   6.2582   6.5214   6.5392
     6.8680   6.9762   7.3387   7.3974   7.4913   7.6638   7.7420   7.8695
     7.9015   8.0888   8.4196   8.5290   8.6314   8.7631   8.9797   9.0026
     9.0835   9.1314   9.3191   9.6390   9.8823  10.1992  10.2851  14.0452
    14.8207  15.0151  16.0285  16.3520  16.4492  16.8197  16.9454  17.2294

          k = 0.3810 0.2491 0.0000 ( 17351 PWs)   bands (ev):

   -30.4537 -15.2042 -15.1855 -11.1363 -10.8751 -10.8004  -6.9762  -6.9748
    -6.8568  -6.7368  -6.3768  -6.2020  -6.0048  -0.8595  -0.8479  -0.6616
    -0.4835  -0.3950  -0.3543   3.6770   4.1398   4.8768   4.9892   4.9992
     5.1442   5.2383   5.5177   5.8519   5.8705   6.4620   6.4778   6.6530
     6.7143   6.7695   7.0271   7.4904   7.8236   7.8395   8.1022   8.1343
     8.3118   8.3484   8.6190   8.7480   8.9055   8.9652   9.0187   9.1026
     9.1204   9.1973   9.5930   9.6955  10.8013  10.9302  11.0092  13.5758
    14.3709  15.2207  16.0873  16.5476  16.6043  16.7237  17.1790  17.2583

          k = 0.3810 0.3737 0.0000 ( 17370 PWs)   bands (ev):

   -30.4487 -15.1679 -15.1495 -11.1192 -11.0751 -10.7114  -6.9531  -6.8415
    -6.7108  -6.5663  -6.3277  -6.1550  -6.1399  -1.0814  -1.0195  -0.7916
    -0.7557  -0.6096  -0.4454   3.2869   3.8903   4.3715   4.7300   4.7817
     4.8249   5.1007   5.3912   5.8445   6.0545   6.2876   6.5355   6.5601
     6.6505   6.7010   6.8050   7.5399   7.9161   8.2167   8.4412   8.5217
     8.5405   8.7878   8.8203   8.9379   8.9453   8.9764   9.2187   9.2838
     9.3257   9.4125   9.5667   9.9061  11.3474  11.4615  11.5704  13.0954
    14.0924  15.3687  15.9926  16.4456  16.6207  16.7833  16.9110  17.2137

          k = 0.3810-0.4982 0.0000 ( 17376 PWs)   bands (ev):

   -30.4467 -15.1527 -15.1345 -11.1537 -11.1102 -10.6724  -7.0147  -6.8144
    -6.4739  -6.4413  -6.3442  -6.3178  -6.1142  -1.0826  -1.0708  -1.0308
    -0.8447  -0.6669  -0.4381   3.1225   3.7530   4.1343   4.6830   4.6896
     4.7372   5.0916   5.3562   5.8419   6.1296   6.2216   6.4686   6.5159
     6.6282   6.6693   6.8047   7.5496   7.9446   8.3852   8.5921   8.6000
     8.7021   8.8699   8.9061   8.9823   9.0276   9.1058   9.2479   9.3212
     9.3908   9.4321   9.7678   9.9004  11.4514  11.6745  11.7626  12.9122
    14.0263  15.3883  15.7121  16.4469  16.6527  16.7084  17.0620  17.3626

          k =-0.5081 0.0000 0.0000 ( 17430 PWs)   bands (ev):

   -30.4581 -15.2298 -15.2126 -11.2482 -10.8668 -10.5374  -7.2735  -7.1832
    -7.1788  -6.4751  -6.4603  -6.3468  -5.9078  -0.8262  -0.4621  -0.2553
    -0.1696  -0.0560  -0.0312   3.9746   4.1358   5.1174   5.4505   5.5473
     5.5923   6.0354   6.0834   6.1099   6.1165   6.1181   6.1467   6.5707
     6.7743   6.8459   7.1679   7.2589   7.4297   7.6853   7.7936   7.8075
     7.8458   8.1017   8.1125   8.5921   8.6471   8.7332   8.9104   8.9474
     9.0749   9.2012   9.2054   9.3570   9.4194   9.7499   9.9468  14.3136
    15.1880  15.2338  16.1693  16.6766  16.6979  16.8399  16.9381  17.0463

          k =-0.5081 0.1246 0.0000 ( 17366 PWs)   bands (ev):

   -30.4561 -15.2160 -15.1989 -11.2403 -10.8348 -10.6420  -7.2002  -7.1438
    -7.0473  -6.5446  -6.4283  -6.3094  -5.9204  -0.8181  -0.4651  -0.4074
    -0.2896  -0.2550  -0.2203   3.8588   4.1031   5.0744   5.3256   5.4829
     5.5806   5.6220   5.6429   5.7870   5.9646   6.2220   6.4348   6.6470
     6.8027   6.9434   7.3020   7.3136   7.5108   7.6927   7.7366   7.8586
     7.9979   8.1018   8.3595   8.6221   8.6914   8.7684   8.8879   9.0450
     9.1248   9.1724   9.3943   9.5982   9.8756  10.2013  10.2563  14.0666
    14.8040  15.2738  16.3086  16.4219  16.8794  16.9443  16.9814  17.3122

          k =-0.5081 0.2491 0.0000 ( 17346 PWs)   bands (ev):

   -30.4511 -15.1824 -15.1654 -11.2214 -10.8685 -10.7538  -7.0456  -6.9947
    -6.7547  -6.7153  -6.3486  -6.2144  -5.9785  -0.8203  -0.7618  -0.6628
    -0.6613  -0.5608  -0.4371   3.5067   3.9652   4.8699   4.9906   5.0546
     5.0599   5.1664   5.4093   5.8349   5.8470   6.4901   6.5524   6.6276
     6.6814   6.7129   6.9901   7.5246   7.8448   7.9804   8.1594   8.1763
     8.3040   8.4752   8.6888   8.8096   8.8358   9.0020   9.0114   9.1021
     9.3245   9.3962   9.3972   9.5697  10.8674  10.9375  11.0742  13.4160
    14.2694  15.4641  16.4116  16.5422  16.6917  16.7247  17.2222  17.2394

          k =-0.5081 0.3737 0.0000 ( 17380 PWs)   bands (ev):

   -30.4461 -15.1483 -15.1313 -11.2024 -11.0679 -10.6669  -6.9427  -6.8907
    -6.7026  -6.4875  -6.2652  -6.1229  -6.1120  -1.1038  -1.0675  -1.0267
    -0.8073  -0.7765  -0.4305   3.1002   3.7091   4.3855   4.6589   4.7027
     4.7718   5.1066   5.3650   5.8160   6.0467   6.3824   6.4708   6.5158
     6.6560   6.7232   6.7541   7.5653   8.0878   8.3088   8.5471   8.6279
     8.6373   8.8063   8.8977   8.9877   9.0419   9.2311   9.2311   9.2524
     9.2554   9.4060   9.7615   9.8002  11.3132  11.6466  11.7469  12.8502
    13.9791  15.5962  15.9474  16.2866  16.5489  16.7735  17.0285  17.1977

          k =-0.5081-0.4982 0.0000 ( 17420 PWs)   bands (ev):

   -30.4441 -15.1340 -15.1171 -11.1945 -11.1445 -10.6288  -6.9650  -6.8986
    -6.4465  -6.3824  -6.3193  -6.2283  -6.0670  -1.2433  -1.2019  -1.1691
    -0.9024  -0.7814  -0.4241   2.9282   3.5728   4.1486   4.5227   4.6555
     4.7073   5.1002   5.3496   5.8121   6.1428   6.3132   6.3760   6.4766
     6.6275   6.6518   6.8017   7.5747   8.1254   8.5612   8.6542   8.7184
     8.7525   8.9881   9.0268   9.0711   9.0843   9.1116   9.2818   9.3678
     9.4139   9.4152   9.9092  10.0061  11.3864  11.9142  11.9994  12.6398
    13.9130  15.6223  15.6425  16.2491  16.4240  16.4929  16.9095  17.4447

     the Fermi energy is    10.0466 ev

!    total energy              =    -696.89636995 Ry
     Harris-Foulkes estimate   =    -696.89637006 Ry
     estimated scf accuracy    <       0.00000031 Ry

     The total energy is the sum of the following terms:

     one-electron contribution =    -203.12410938 Ry
     hartree contribution      =     186.67078097 Ry
     xc contribution           =    -148.93510426 Ry
     ewald contribution        =    -531.50501487 Ry
     smearing contrib. (-TS)   =      -0.00292241 Ry

     convergence has been achieved in  27 iterations

     Forces acting on atoms (cartesian axes, Ry/au):

     atom    1 type  2   force =     0.00000000    0.00000000   -0.00372266
     atom    2 type  2   force =     0.00000000    0.00000000    0.00372266
     atom    3 type  1   force =     0.00000000    0.00000000    0.00000000
     atom    4 type  4   force =     0.00000000    0.00000000    0.00261641
     atom    5 type  4   force =     0.00000000    0.00000000   -0.00261641
     atom    6 type  4   force =     0.00000000    0.00000000    0.00000000
     atom    7 type  3   force =     0.00000000    0.00000000    0.00000000
     atom    8 type  3   force =     0.00000000    0.00000000    0.00131034
     atom    9 type  3   force =     0.00000000    0.00000000   -0.00131034
     atom   10 type  3   force =     0.00000000    0.00000000    0.00099771
     atom   11 type  3   force =     0.00000000    0.00000000   -0.00099771
     atom   12 type  3   force =     0.00000000    0.00000000   -0.00474074
     atom   13 type  3   force =     0.00000000    0.00000000    0.00474074

     Total force =     0.009580     Total SCF correction =     0.000069


     Computing stress (Cartesian axis) and pressure

          total   stress  (Ry/bohr**3)                   (kbar)     P=      -35.34
  -0.00022065   0.00000000   0.00000000          -32.46        0.00        0.00
   0.00000000  -0.00022654   0.00000000            0.00      -33.33        0.00
   0.00000000   0.00000000  -0.00027344            0.00        0.00      -40.22


     number of scf cycles    =   2
     number of bfgs steps    =   1

     enthalpy old            =    -696.8702594161 Ry
     enthalpy new            =    -696.8963699531 Ry

     CASE: enthalpy_new < enthalpy_old

     new trust radius        =       0.0719615673 bohr
     new conv_thr            =       0.0000004741 Ry

     new unit-cell volume =   1114.98041 a.u.^3 (   165.22305 Ang^3 )
     density =      6.69553 g/cm^3

CELL_PARAMETERS (angstrom)
   3.751038169   0.000000000   0.000000000
   0.000000000   3.824163078   0.000000000
   0.000000000   0.000000000  11.518150287

ATOMIC_POSITIONS (angstrom)
Ba            1.8755181089        1.9120825131        9.4299020434
Ba            1.8755181089        1.9120825131        2.0882521407
Y             1.8755181089        1.9120825131        5.7590770920
Cu            0.0000000000        0.0000000000        7.4509205122
Cu            0.0000000000        0.0000000000        4.0672326978
Cu            0.0000000000        0.0000000000        0.0000000000
O             0.0000000000        1.9120825131        0.0000000000
O             1.8755181089        0.0000000000        7.1480663032
O             1.8755181089        0.0000000000        4.3700869067
O             0.0000000000        1.9120825131        7.1587550128
O             0.0000000000        1.9120825131        4.3593991712
O             0.0000000000        0.0000000000        9.6849649291
O             0.0000000000        0.0000000000        1.8331892550



     Writing output data file /n/holyscratch01/hoffman_lab/ruizhe/outdir/YBCO_ecut90.save/
     NEW-OLD atomic charge density approx. for the potential
     extrapolated charge  102.95917, renormalised to  106.00000

     total cpu time spent up to now is      421.4 secs

     Self-consistent Calculation

     iteration #  1     ecut=    90.00 Ry     beta= 0.50
     Davidson diagonalization with overlap
     ethr =  1.00E-06,  avg # of iterations = 12.1

     negative rho (up, down):  4.227E-02 0.000E+00

     total cpu time spent up to now is      437.2 secs

     total energy              =    -692.68628217 Ry
     Harris-Foulkes estimate   =    -703.49526748 Ry
     estimated scf accuracy    <       5.33032668 Ry

     iteration #  2     ecut=    90.00 Ry     beta= 0.50
     Davidson diagonalization with overlap
     ethr =  5.03E-03,  avg # of iterations =  5.8

     negative rho (up, down):  1.400E-01 0.000E+00

     total cpu time spent up to now is      448.5 secs

     total energy              =    -691.40272962 Ry
     Harris-Foulkes estimate   =    -725.68218322 Ry
     estimated scf accuracy    <    8986.31109090 Ry

     iteration #  3     ecut=    90.00 Ry     beta= 0.50
     Davidson diagonalization with overlap
     ethr =  5.03E-03,  avg # of iterations =  4.0

     total cpu time spent up to now is      457.5 secs

     total energy              =    -662.27771837 Ry
     Harris-Foulkes estimate   =    -732.57512946 Ry
     estimated scf accuracy    <   21654.22132276 Ry

     iteration #  4     ecut=    90.00 Ry     beta= 0.50
     Davidson diagonalization with overlap
     ethr =  5.03E-03,  avg # of iterations =  4.6

     total cpu time spent up to now is      467.6 secs

     total energy              =    -696.61360446 Ry
     Harris-Foulkes estimate   =    -697.59354882 Ry
     estimated scf accuracy    <     225.19365039 Ry

     iteration #  5     ecut=    90.00 Ry     beta= 0.50
     Davidson diagonalization with overlap
     ethr =  5.03E-03,  avg # of iterations =  3.0

     total cpu time spent up to now is      474.2 secs

     total energy              =    -696.47728512 Ry
     Harris-Foulkes estimate   =    -697.66323108 Ry
     estimated scf accuracy    <     626.54804942 Ry

     iteration #  6     ecut=    90.00 Ry     beta= 0.50
     Davidson diagonalization with overlap
     ethr =  5.03E-03,  avg # of iterations =  3.2

     total cpu time spent up to now is      480.8 secs

     total energy              =    -696.32532205 Ry
     Harris-Foulkes estimate   =    -697.76660469 Ry
     estimated scf accuracy    <     278.80118270 Ry

     iteration #  7     ecut=    90.00 Ry     beta= 0.50
     Davidson diagonalization with overlap
     ethr =  5.03E-03,  avg # of iterations =  3.3

     total cpu time spent up to now is      487.4 secs

     total energy              =    -696.95445895 Ry
     Harris-Foulkes estimate   =    -697.00628699 Ry
     estimated scf accuracy    <       1.38004775 Ry

     iteration #  8     ecut=    90.00 Ry     beta= 0.50
     Davidson diagonalization with overlap
     ethr =  1.30E-03,  avg # of iterations =  1.2

     total cpu time spent up to now is      493.1 secs

     total energy              =    -696.94019317 Ry
     Harris-Foulkes estimate   =    -696.97332616 Ry
     estimated scf accuracy    <       0.55632169 Ry

     iteration #  9     ecut=    90.00 Ry     beta= 0.50
     Davidson diagonalization with overlap
     ethr =  5.25E-04,  avg # of iterations =  1.7

     total cpu time spent up to now is      499.0 secs

     total energy              =    -696.93053153 Ry
     Harris-Foulkes estimate   =    -696.94563206 Ry
     estimated scf accuracy    <       0.36816614 Ry

     iteration # 10     ecut=    90.00 Ry     beta= 0.50
     Davidson diagonalization with overlap
     ethr =  3.47E-04,  avg # of iterations =  1.2

     total cpu time spent up to now is      504.6 secs

     total energy              =    -696.88498609 Ry
     Harris-Foulkes estimate   =    -696.93217800 Ry
     estimated scf accuracy    <       0.28986229 Ry

     iteration # 11     ecut=    90.00 Ry     beta= 0.50
     Davidson diagonalization with overlap
     ethr =  2.73E-04,  avg # of iterations =  3.1

     total cpu time spent up to now is      510.9 secs

     total energy              =    -696.89717331 Ry
     Harris-Foulkes estimate   =    -696.90416850 Ry
     estimated scf accuracy    <       0.04086955 Ry

     iteration # 12     ecut=    90.00 Ry     beta= 0.50
     Davidson diagonalization with overlap
     ethr =  3.86E-05,  avg # of iterations =  6.1

     total cpu time spent up to now is      519.2 secs

     total energy              =    -696.89665675 Ry
     Harris-Foulkes estimate   =    -696.90235862 Ry
     estimated scf accuracy    <       0.92294318 Ry

     iteration # 13     ecut=    90.00 Ry     beta= 0.50
     Davidson diagonalization with overlap
     ethr =  3.86E-05,  avg # of iterations =  2.0

     total cpu time spent up to now is      525.4 secs

     total energy              =    -696.89478035 Ry
     Harris-Foulkes estimate   =    -696.90543099 Ry
     estimated scf accuracy    <       6.85655980 Ry

     iteration # 14     ecut=    90.00 Ry     beta= 0.50
     Davidson diagonalization with overlap
     ethr =  3.86E-05,  avg # of iterations =  2.0

     total cpu time spent up to now is      531.5 secs

     total energy              =    -696.89991438 Ry
     Harris-Foulkes estimate   =    -696.90021869 Ry
     estimated scf accuracy    <       0.00898124 Ry

     iteration # 15     ecut=    90.00 Ry     beta= 0.50
     Davidson diagonalization with overlap
     ethr =  8.47E-06,  avg # of iterations =  3.0

     total cpu time spent up to now is      538.1 secs

     total energy              =    -696.89805440 Ry
     Harris-Foulkes estimate   =    -696.90187925 Ry
     estimated scf accuracy    <       2.62566631 Ry

     iteration # 16     ecut=    90.00 Ry     beta= 0.50
     Davidson diagonalization with overlap
     ethr =  8.47E-06,  avg # of iterations =  2.1

     total cpu time spent up to now is      544.4 secs

     total energy              =    -696.89923999 Ry
     Harris-Foulkes estimate   =    -696.90072049 Ry
     estimated scf accuracy    <       0.27062343 Ry

     iteration # 17     ecut=    90.00 Ry     beta= 0.50
     Davidson diagonalization with overlap
     ethr =  8.47E-06,  avg # of iterations =  3.0

     total cpu time spent up to now is      550.9 secs

     total energy              =    -696.90001190 Ry
     Harris-Foulkes estimate   =    -696.90011890 Ry
     estimated scf accuracy    <       0.01259035 Ry

     iteration # 18     ecut=    90.00 Ry     beta= 0.50
     Davidson diagonalization with overlap
     ethr =  8.47E-06,  avg # of iterations =  1.0

     total cpu time spent up to now is      556.5 secs

     total energy              =    -696.90000463 Ry
     Harris-Foulkes estimate   =    -696.90006432 Ry
     estimated scf accuracy    <       0.00688384 Ry

     iteration # 19     ecut=    90.00 Ry     beta= 0.50
     Davidson diagonalization with overlap
     ethr =  6.49E-06,  avg # of iterations =  1.0

     total cpu time spent up to now is      562.1 secs

     total energy              =    -696.90002361 Ry
     Harris-Foulkes estimate   =    -696.90004487 Ry
     estimated scf accuracy    <       0.00037594 Ry

     iteration # 20     ecut=    90.00 Ry     beta= 0.50
     Davidson diagonalization with overlap
     ethr =  3.55E-07,  avg # of iterations =  3.0

     total cpu time spent up to now is      568.5 secs

     total energy              =    -696.90004851 Ry
     Harris-Foulkes estimate   =    -696.90005233 Ry
     estimated scf accuracy    <       0.00058381 Ry

     iteration # 21     ecut=    90.00 Ry     beta= 0.50
     Davidson diagonalization with overlap
     ethr =  3.55E-07,  avg # of iterations =  1.3

     total cpu time spent up to now is      574.2 secs

     total energy              =    -696.90004863 Ry
     Harris-Foulkes estimate   =    -696.90004977 Ry
     estimated scf accuracy    <       0.00018089 Ry

     iteration # 22     ecut=    90.00 Ry     beta= 0.50
     Davidson diagonalization with overlap
     ethr =  1.71E-07,  avg # of iterations =  2.0

     total cpu time spent up to now is      580.2 secs

     total energy              =    -696.90005023 Ry
     Harris-Foulkes estimate   =    -696.90005077 Ry
     estimated scf accuracy    <       0.00010468 Ry

     iteration # 23     ecut=    90.00 Ry     beta= 0.50
     Davidson diagonalization with overlap
     ethr =  9.88E-08,  avg # of iterations =  1.0

     total cpu time spent up to now is      585.8 secs

     total energy              =    -696.90005031 Ry
     Harris-Foulkes estimate   =    -696.90005038 Ry
     estimated scf accuracy    <       0.00003294 Ry

     iteration # 24     ecut=    90.00 Ry     beta= 0.50
     Davidson diagonalization with overlap
     ethr =  3.11E-08,  avg # of iterations =  1.0

     total cpu time spent up to now is      591.5 secs

     total energy              =    -696.90005041 Ry
     Harris-Foulkes estimate   =    -696.90005044 Ry
     estimated scf accuracy    <       0.00001195 Ry

     iteration # 25     ecut=    90.00 Ry     beta= 0.50
     Davidson diagonalization with overlap
     ethr =  1.13E-08,  avg # of iterations =  1.0

     total cpu time spent up to now is      597.1 secs

     total energy              =    -696.90005043 Ry
     Harris-Foulkes estimate   =    -696.90005047 Ry
     estimated scf accuracy    <       0.00000817 Ry

     iteration # 26     ecut=    90.00 Ry     beta= 0.50
     Davidson diagonalization with overlap
     ethr =  7.71E-09,  avg # of iterations =  1.0

     total cpu time spent up to now is      602.7 secs

[...]

   -29.9611 -14.7717 -14.7391 -10.6040 -10.4523 -10.0328  -7.1794  -6.6488
    -6.4660  -6.2203  -5.9910  -5.7995  -5.7621  -0.0374   0.0651   0.2196
     0.3035   0.4422   0.5115   4.9222   5.1065   5.3042   5.4788   5.6221
     5.7863   5.9770   6.2280   6.6306   6.7576   6.9443   6.9883   7.0335
     7.1915   7.3907   7.7342   7.7454   7.8796   7.8942   8.0058   8.2309
     8.4595   8.8675   8.8852   8.8951   9.0548   9.1595   9.2961   9.4587
     9.5327   9.8213   9.8426   9.9141   9.9650  10.5545  11.3943  14.3988
    14.5512  15.8317  15.8848  16.0027  16.1091  17.1184  17.3140  17.7998

          k = 0.0000 0.3757 0.0000 ( 16038 PWs)   bands (ev):

   -29.9556 -14.7183 -14.6871 -10.6762 -10.4964 -10.0250  -6.8823  -6.8500
    -6.4339  -6.1497  -5.9488  -5.9457  -5.9145  -0.0110   0.1061   0.2555
     0.3523   0.5417   0.6167   4.5089   4.7536   4.8256   5.3810   5.8336
     5.8391   5.8696   6.0360   6.5890   6.6715   6.6896   6.7087   6.8332
     6.9688   7.2734   7.4427   7.5454   7.7571   7.7835   8.0497   8.2857
     8.5230   8.8282   8.9329   8.9765   9.1049   9.2925   9.5371   9.5962
     9.7363   9.8014   9.8160   9.8162  10.0825  10.5306  12.0100  14.7881
    15.4065  15.8280  16.0441  16.7562  16.9557  17.0283  17.0829  18.1591

          k = 0.0000-0.5010 0.0000 ( 16034 PWs)   bands (ev):

   -29.9532 -14.6957 -14.6652 -10.7609 -10.4487 -10.0218  -6.9408  -6.7344
    -6.4772  -6.0374  -6.0349  -6.0067  -5.9244   0.0064   0.1208   0.2717
     0.3683   0.5846   0.6623   4.3111   4.5840   4.7030   5.3572   5.7357
     5.8647   6.0171   6.0206   6.3600   6.5675   6.6841   6.7475   6.7997
     6.8910   7.1878   7.2125   7.5227   7.6373   7.7593   8.1524   8.2947
     8.4367   8.9664   8.9921   9.0329   9.0377   9.2669   9.5659   9.6718
     9.7630   9.8088   9.8134   9.9382  10.2120  10.4093  12.2142  15.0226
    15.5007  15.8055  16.5556  16.6687  16.8652  17.1895  17.4253  18.2885

          k = 0.1275 0.0000 0.0000 ( 16027 PWs)   bands (ev):

   -29.9662 -14.8197 -14.7870 -10.6987 -10.1830 -10.0603  -7.4794  -6.6310
    -6.4467  -6.2606  -6.0468  -5.6433  -5.5319  -0.0991  -0.0238   0.2200
     0.2537   0.3594   0.3795   5.2611   5.3132   5.4666   5.4758   5.8012
     5.8364   6.6620   6.7284   6.8072   6.8712   7.0868   7.3774   7.3892
     7.4516   7.7405   7.7743   7.8398   7.9810   8.1086   8.1402   8.1699
     8.3225   8.5480   8.6633   8.7204   8.8398   8.8901   9.2007   9.2015
     9.6324   9.8296   9.9474  10.0487  10.0780  10.1139  10.2845  13.6634
    14.0552  15.1298  15.2452  15.9346  16.0873  17.0271  17.2418  17.5464

          k = 0.1275 0.1252 0.0000 ( 16026 PWs)   bands (ev):

   -29.9639 -14.7993 -14.7671 -10.6604 -10.1963 -10.1660  -7.3438  -6.5878
    -6.4765  -6.2307  -6.0736  -5.6916  -5.5944  -0.0861  -0.0274   0.1257
     0.1263   0.4763   0.4975   5.1690   5.3103   5.4294   5.4799   5.6084
     5.9139   6.2574   6.5868   6.7517   6.7630   6.9939   7.1219   7.1356
     7.4824   7.6801   7.7540   7.8378   7.9500   8.0138   8.0703   8.2247
     8.6108   8.6191   8.7534   8.7660   8.8676   8.8934   9.0426   9.3506
     9.6107   9.8022  10.0349  10.0741  10.2804  10.4181  10.5786  13.9356
    14.1945  15.4341  15.4924  15.8404  16.1300  17.1204  17.2626  17.4009

          k = 0.1275 0.2505 0.0000 ( 16010 PWs)   bands (ev):

   -29.9583 -14.7493 -14.7184 -10.5630 -10.4452 -10.1652  -7.0427  -6.6136
    -6.4804  -6.1752  -6.0785  -5.8061  -5.7433  -0.0595  -0.0505   0.0765
     0.0889   0.5355   0.5752   4.8275   5.1012   5.3097   5.4596   5.4946
     5.5349   6.0511   6.2076   6.6241   6.6728   6.7615   6.7759   7.0077
     7.1587   7.5168   7.7985   7.8337   7.8387   7.9705   7.9792   8.1872
     8.6167   8.7169   8.8262   8.9925   9.1066   9.2435   9.3297   9.3912
     9.4956   9.6165  10.0820  10.2709  10.3666  10.7188  11.3961  14.4386
    14.6975  15.6585  16.0020  16.2646  16.2692  17.2831  17.2996  17.6825

          k = 0.1275 0.3757 0.0000 ( 16050 PWs)   bands (ev):

   -29.9528 -14.6980 -14.6684 -10.6669 -10.4570 -10.1548  -6.8056  -6.7410
    -6.3949  -6.1317  -6.0347  -5.9204  -5.8926  -0.0305  -0.0037   0.0963
     0.1441   0.4934   0.5156   4.4479   4.7057   4.8015   5.3661   5.5606
     5.6430   5.9661   6.0757   6.3064   6.3250   6.7233   6.7998   6.9148
     6.9472   7.2560   7.7209   7.7447   7.7756   7.8804   8.1548   8.2382
     8.5953   8.7913   8.9645   9.0494   9.1869   9.3956   9.4484   9.5573
     9.6480   9.7726  10.0269  10.2273  10.4584  10.8117  11.9825  14.7475
    15.2698  15.5046  16.2066  16.9511  17.0197  17.1725  17.4508  18.0523

          k = 0.1275-0.5010 0.0000 ( 16036 PWs)   bands (ev):

   -29.9505 -14.6764 -14.6473 -10.7510 -10.4100 -10.1504  -6.8936  -6.5774
    -6.4242  -6.0390  -6.0096  -6.0090  -5.9690  -0.0018   0.0351   0.1218
     0.2073   0.4290   0.4415   4.2755   4.5004   4.6691   5.3409   5.5819
     5.7421   5.9012   6.0447   6.1470   6.1947   6.6814   6.8435   6.8986
     6.8999   7.1444   7.7035   7.7093   7.7162   7.8242   8.1578   8.3592
     8.6432   8.7549   9.0181   9.0906   9.1046   9.3965   9.5289   9.6254
     9.7825   9.9095  10.0426  10.1892  10.4555  10.7913  12.1746  15.0062
    15.1750  15.4349  16.7453  16.7718  17.1405  17.4046  17.5934  18.2594

          k = 0.2549 0.0000 0.0000 ( 15990 PWs)   bands (ev):

   -29.9593 -14.7574 -14.7296 -10.5892 -10.4715 -10.0509  -7.1904  -6.7421
    -6.5394  -6.1485  -6.1169  -5.7901  -5.5472  -0.2267   0.0156   0.3303
     0.3342   0.3618   0.4312   4.8549   4.9943   5.3964   5.6000   5.8361
     5.9023   6.5652   6.6880   6.6885   6.7378   6.8003   7.0163   7.0271
     7.4440   7.7126   7.7408   7.8002   7.8408   7.9409   8.1923   8.2049
     8.2116   8.5121   8.6804   8.9160   8.9506   8.9556   9.1359   9.3532
     9.7143   9.7402   9.7438   9.8623   9.9345  10.2022  10.5159  14.2427
    14.5562  15.8533  15.8892  16.0287  16.6328  17.5239  17.5524  17.6816

          k = 0.2549 0.1252 0.0000 ( 16014 PWs)   bands (ev):

   -29.9571 -14.7391 -14.7116 -10.5523 -10.4653 -10.1697  -7.0543  -6.6856
    -6.5207  -6.1832  -6.1182  -5.7997  -5.5855  -0.2335   0.0177   0.0263
     0.1117   0.5264   0.5340   4.7678   4.9933   5.3896   5.5175   5.6082
     5.9553   6.2372   6.4388   6.5810   6.6629   6.6767   6.8164   7.0292
     7.4555   7.5029   7.8242   7.8395   7.9594   7.9756   8.0034   8.1866
     8.5037   8.6386   8.7041   8.9224   8.9821   9.1270   9.2440   9.2608
     9.5635   9.6319   9.9749  10.2846  10.2974  10.6668  10.6905  14.3246
    14.6852  15.6484  16.1720  16.2494  16.4491  17.3604  17.3712  17.8124

          k = 0.2549 0.2505 0.0000 ( 16037 PWs)   bands (ev):

   -29.9516 -14.6942 -14.6675 -10.4607 -10.4584 -10.4110  -6.7551  -6.5423
    -6.5268  -6.2797  -6.0594  -5.8251  -5.6939  -0.2910  -0.2420  -0.0404
     0.0270   0.4447   0.4548   4.4524   4.9056   5.3097   5.3309   5.3445
     5.4300   6.0538   6.1010   6.2225   6.3544   6.7482   6.8108   7.0111
     7.1707   7.4639   7.5143   7.7626   8.0105   8.1142   8.3172   8.4545
     8.5520   8.8704   9.0370   9.0675   9.1189   9.1741   9.4696   9.4988
     9.5081   9.6397  10.1713  10.3356  10.9879  11.2099  11.4018  14.3166
    15.0163  15.4218  16.1829  16.9297  16.9738  17.2830  17.5113  17.6550

          k = 0.2549 0.3757 0.0000 ( 16025 PWs)   bands (ev):

   -29.9461 -14.6484 -14.6225 -10.6445 -10.4294 -10.3564  -6.6944  -6.4667
    -6.3053  -6.2482  -6.0515  -5.8578  -5.8396  -0.3156  -0.3103  -0.0884
     0.0221   0.1889   0.2458   4.0816   4.6289   4.7001   5.2279   5.2980
     5.3858   5.6771   5.8572   6.2774   6.3030   6.7669   6.7827   6.9855
     6.9978   7.2295   7.3964   7.8417   8.0233   8.2761   8.5881   8.6752
     8.7063   8.9273   9.1248   9.2373   9.3434   9.4500   9.4996   9.6249
     9.7527   9.7681  10.1393  10.2800  11.3568  11.5322  11.9071  14.1593
    14.9857  15.5112  16.6980  16.7768  17.3430  17.5828  17.7443  17.9922

          k = 0.2549-0.5010 0.0000 ( 16016 PWs)   bands (ev):

   -29.9438 -14.6290 -14.6036 -10.7269 -10.4234 -10.3113  -6.7750  -6.2830
    -6.2327  -6.2177  -6.0473  -5.9537  -5.8745  -0.2290  -0.1732  -0.1663
    -0.1660   0.0996   0.1320   3.9273   4.4607   4.4838   5.2057   5.3262
     5.3733   5.5316   5.7661   6.2744   6.3014   6.7239   6.8153   6.9184
     7.0661   7.0950   7.3650   7.8754   8.0420   8.2951   8.6214   8.8581
     8.8786   8.9695   9.1540   9.2618   9.3066   9.4486   9.6147   9.7868
     9.8627   9.8846  10.0546  10.1896  11.4544  11.6130  12.0628  14.0832
    14.9505  15.5139  16.5423  17.2108  17.4598  17.8023  17.8392  18.1157

          k = 0.3824 0.0000 0.0000 ( 15976 PWs)   bands (ev):

   -29.9525 -14.6929 -14.6705 -10.7163 -10.4690 -10.0415  -6.9307  -6.8636
    -6.7413  -6.0850  -6.0642  -5.9338  -5.5376  -0.3041   0.0647   0.3170
     0.4275   0.4479   0.4769   4.4855   4.6512   5.3803   5.7909   5.8569
     5.9048   6.3914   6.5208   6.5316   6.5698   6.6853   6.6903   6.8028
     7.3702   7.3974   7.5740   7.6951   7.9118   8.1223   8.1349   8.1570
     8.2185   8.5264   8.6748   8.8914   9.0350   9.1641   9.4238   9.4611
     9.6288   9.6527   9.6614   9.7451   9.8851  10.2638  10.5718  14.6000
    15.2743  15.7817  16.5655  16.8135  17.2111  17.5903  17.6507  17.6638

          k = 0.3824 0.1252 0.0000 ( 16017 PWs)   bands (ev):

   -29.9502 -14.6769 -14.6545 -10.7082 -10.4337 -10.1573  -6.8286  -6.7567
    -6.7020  -6.1617  -6.0314  -5.9102  -5.5578  -0.3046   0.0384   0.0837
     0.1555   0.4337   0.4476   4.3740   4.6267   5.3650   5.6460   5.6847
     5.9476   6.1931   6.2293   6.2359   6.3512   6.5764   6.8569   6.9317
     7.3233   7.4018   7.7377   7.7925   7.8502   8.1141   8.1375   8.2834
     8.3482   8.5641   8.8567   8.9937   9.0611   9.2393   9.4706   9.4763
     9.5273   9.5729   9.7713  10.2038  10.3748  10.7000  10.8044  14.4653
    15.3103  15.5244  16.6316  16.9327  17.0587  17.5167  17.6956  17.9322

          k = 0.3824 0.2505 0.0000 ( 16051 PWs)   bands (ev):

   -29.9448 -14.6375 -14.6155 -10.6885 -10.4047 -10.3439  -6.6274  -6.6063
    -6.4541  -6.3482  -5.9557  -5.8529  -5.6333  -0.3627  -0.3335  -0.1447
     0.0417   0.1592   0.1985   4.0251   4.5041   5.2444   5.3756   5.3772
     5.4250   5.6274   5.9274   6.2446   6.2656   6.7875   6.8635   6.9935
     7.1560   7.2073   7.4310   7.8778   8.2195   8.2571   8.5641   8.5808
     8.7133   8.7881   9.0982   9.1857   9.3437   9.4340   9.4682   9.5523
     9.6006   9.6741  10.0840  10.2316  11.2890  11.4163  11.5122  13.9936
    14.9360  15.6856  16.7299  17.2049  17.2633  17.4164  17.7998  17.9383

          k = 0.3824 0.3757 0.0000 ( 16038 PWs)   bands (ev):

   -29.9393 -14.5974 -14.5757 -10.6695 -10.6191 -10.2466  -6.5791  -6.4660
    -6.3563  -6.1529  -5.9021  -5.7965  -5.7860  -0.5791  -0.5199  -0.2747
    -0.2544  -0.0824   0.0867   3.6255   4.2486   4.7350   5.1116   5.1647
     5.2255   5.3841   5.8159   6.2760   6.4517   6.6946   6.8337   6.9813
     7.0349   7.1001   7.2254   7.9693   8.3445   8.6017   8.8841   8.9764
     8.9841   9.1885   9.2936   9.3831   9.3839   9.4212   9.7154   9.7571
     9.8073   9.9005  10.0913  10.3585  11.8129  11.9612  12.0717  13.5098
    14.6942  15.8399  16.6204  17.1060  17.2780  17.4883  17.6502  17.8635

          k = 0.3824-0.5010 0.0000 ( 16066 PWs)   bands (ev):

   -29.9371 -14.5806 -14.5590 -10.7029 -10.6596 -10.2037  -6.6489  -6.4337
    -6.1064  -6.0624  -5.9203  -5.9190  -5.7738  -0.5812  -0.5688  -0.5245
    -0.3356  -0.1646   0.0895   3.4579   4.1094   4.4917   5.0724   5.0893
     5.1213   5.3766   5.7864   6.2888   6.5276   6.6303   6.7905   6.9141
     7.0275   7.0470   7.2212   7.9897   8.3795   8.7710   9.0267   9.0351
     9.1641   9.3091   9.3182   9.4277   9.5008   9.5485   9.7408   9.8692
     9.8791   9.9199  10.2353  10.3371  11.9158  12.1717  12.2634  13.3255
    14.6424  15.8671  16.3212  17.1172  17.2756  17.4544  17.7596  17.9907

          k =-0.5098 0.0000 0.0000 ( 15998 PWs)   bands (ev):

   -29.9496 -14.6656 -14.6455 -10.8088 -10.4154 -10.0376  -6.9390  -6.8401
    -6.8011  -6.0588  -6.0413  -5.9931  -5.5270  -0.3311   0.0891   0.3111
     0.4203   0.4991   0.5269   4.3423   4.5066   5.3861   5.7999   5.9176
     5.9551   6.3444   6.3720   6.4669   6.4866   6.5049   6.5383   6.9681
     7.1407   7.3090   7.5580   7.6916   7.9218   8.1257   8.1360   8.2088
     8.2506   8.5352   8.5932   9.0370   9.0770   9.2141   9.3777   9.4610
     9.5873   9.6388   9.6882   9.8522   9.8529  10.2789  10.5192  14.7287
    15.6260  15.7544  16.6778  17.3156  17.5218  17.6018  17.6104  17.7148

          k =-0.5098 0.1252 0.0000 ( 16042 PWs)   bands (ev):

   -29.9474 -14.6505 -14.6304 -10.8001 -10.3809 -10.1522  -6.8635  -6.7971
    -6.6599  -6.1345  -6.0079  -5.9575  -5.5406  -0.3264   0.0780   0.1459
     0.2857   0.2898   0.3289   4.2197   4.4717   5.3588   5.6875   5.8634
     5.9478   5.9839   6.0309   6.1621   6.3201   6.5817   6.7318   7.0484
     7.2635   7.3595   7.6997   7.7098   7.8641   8.1314   8.1658   8.2897
     8.4306   8.5918   8.7945   9.0726   9.1242   9.2438   9.3934   9.5102
     9.6001   9.6061   9.8260  10.1598  10.3757  10.6967  10.7821  14.4840
    15.3477  15.7048  16.9442  17.0299  17.5799  17.6277  17.7590  18.0109

          k =-0.5098 0.2505 0.0000 ( 16040 PWs)   bands (ev):

   -29.9420 -14.6135 -14.5935 -10.7792 -10.3975 -10.2930  -6.6892  -6.6519
    -6.3490  -6.3206  -5.9248  -5.8678  -5.6022  -0.3405  -0.2353  -0.1445
    -0.1424  -0.0024   0.1025   3.8536   4.3274   5.2326   5.3766   5.4381
     5.4438   5.4487   5.8224   6.2278   6.2313   6.8734   6.9002   6.9631
     7.1246   7.1737   7.3804   7.9279   8.2339   8.4084   8.5859   8.6407
     8.7573   8.8954   9.1536   9.2455   9.2761   9.4688   9.5208   9.5422
     9.7514   9.8644   9.8691  10.1374  11.3453  11.4323  11.5820  13.8310
    14.8500  15.9016  17.1113  17.1935  17.3809  17.4122  17.8418  17.9420

          k =-0.5098 0.3757 0.0000 ( 16020 PWs)   bands (ev):

   -29.9365 -14.5760 -14.5560 -10.7582 -10.6112 -10.1979  -6.5752  -6.5126
    -6.3498  -6.0685  -5.8405  -5.7719  -5.7513  -0.5990  -0.5728  -0.5222
    -0.3011  -0.2653   0.0971   3.4376   4.0650   4.7506   5.0577   5.0820
     5.1546   5.3893   5.8033   6.2329   6.4506   6.7991   6.8883   6.9143
     6.9197   7.1312   7.2054   8.0062   8.5288   8.7042   8.9807   9.0405
     9.0924   9.2706   9.3526   9.4452   9.4491   9.6605   9.7276   9.7454
     9.7575   9.9273  10.2311  10.2570  11.7781  12.1505  12.2530  13.2523
    14.5940  16.0542  16.5727  16.9850  17.1871  17.4864  17.7256  17.8609

          k =-0.5098-0.5010 0.0000 ( 16068 PWs)   bands (ev):

   -29.9343 -14.5602 -14.5403 -10.7495 -10.6929 -10.1560  -6.5942  -6.5259
    -6.0707  -5.9766  -5.9589  -5.7951  -5.7301  -0.7463  -0.7074  -0.6703
    -0.3659  -0.3168   0.0998   3.2624   3.9266   4.5069   4.9271   5.0365
     5.0910   5.3850   5.7961   6.2442   6.5522   6.7315   6.8149   6.8504
     6.8843   7.0557   7.2520   8.0244   8.5760   8.9903   9.0577   9.1267
     9.1491   9.4198   9.4931   9.5351   9.6120   9.6677   9.6845   9.8464
     9.8940   9.9148  10.3811  10.4528  11.8550  12.4170  12.5052  13.0339
    14.5413  16.0904  16.2430  16.9493  17.0905  17.1419  17.5740  18.0732

     the Fermi energy is    10.5539 ev

!    total energy              =    -696.90178998 Ry
     Harris-Foulkes estimate   =    -696.90178998 Ry
     estimated scf accuracy    <          3.2E-09 Ry

     The total energy is the sum of the following terms:

     one-electron contribution =    -190.82584821 Ry
     hartree contribution      =     182.35424641 Ry
     xc contribution           =    -149.15674136 Ry
     ewald contribution        =    -539.27069398 Ry
     smearing contrib. (-TS)   =      -0.00275284 Ry

     convergence has been achieved in  36 iterations

     Forces acting on atoms (cartesian axes, Ry/au):

     atom    1 type  2   force =     0.00000000    0.00000000   -0.00005195
     atom    2 type  2   force =     0.00000000    0.00000000    0.00005195
     atom    3 type  1   force =     0.00000000    0.00000000    0.00000000
     atom    4 type  4   force =     0.00000000    0.00000000    0.00000199
     atom    5 type  4   force =     0.00000000    0.00000000   -0.00000199
     atom    6 type  4   force =     0.00000000    0.00000000    0.00000000
     atom    7 type  3   force =     0.00000000    0.00000000    0.00000000
     atom    8 type  3   force =     0.00000000    0.00000000   -0.00005730
     atom    9 type  3   force =     0.00000000    0.00000000    0.00005730
     atom   10 type  3   force =     0.00000000    0.00000000   -0.00008755
     atom   11 type  3   force =     0.00000000    0.00000000    0.00008755
     atom   12 type  3   force =     0.00000000    0.00000000    0.00000617
     atom   13 type  3   force =     0.00000000    0.00000000   -0.00000617

     Total force =     0.000165     Total SCF correction =     0.000014


     Computing stress (Cartesian axis) and pressure

          total   stress  (Ry/bohr**3)                   (kbar)     P=       -0.07
  -0.00000142   0.00000000   0.00000000           -0.21        0.00        0.00
   0.00000000  -0.00000010   0.00000000            0.00       -0.01        0.00
   0.00000000   0.00000000   0.00000000            0.00        0.00        0.00


     Writing output data file /n/holyscratch01/hoffman_lab/ruizhe/outdir/YBCO_ecut90.save/
 
     init_run     :     11.86s CPU     12.18s WALL (       2 calls)
     electrons    :   2995.45s CPU   3202.24s WALL (      26 calls)
     update_pot   :    126.79s CPU    127.19s WALL (      24 calls)
     forces       :     90.44s CPU     94.14s WALL (      26 calls)
     stress       :    236.54s CPU    246.40s WALL (      26 calls)

     Called by init_run:
     wfcinit      :      3.37s CPU      3.43s WALL (       2 calls)
     potinit      :      2.89s CPU      2.91s WALL (       2 calls)
     hinit0       :      4.52s CPU      4.57s WALL (       2 calls)

     Called by electrons:
     c_bands      :   2191.53s CPU   2277.61s WALL (     482 calls)
     sum_band     :    590.34s CPU    653.10s WALL (     482 calls)
     v_of_rho     :      5.13s CPU      5.80s WALL (     508 calls)
     newd         :    210.62s CPU    269.16s WALL (     508 calls)
     mix_rho      :      5.27s CPU      5.39s WALL (     482 calls)

     Called by c_bands:
     init_us_2    :     26.02s CPU     27.37s WALL (   25450 calls)
     cegterg      :   2063.51s CPU   2142.39s WALL (   12050 calls)

     Called by sum_band:
     sum_band:bec :      0.71s CPU      0.72s WALL (   12050 calls)
     addusdens    :    256.59s CPU    314.81s WALL (     482 calls)

     Called by *egterg:
     h_psi        :   1312.39s CPU   1354.17s WALL (   40794 calls)
     s_psi        :     64.95s CPU     67.99s WALL (   40794 calls)
     g_psi        :      4.97s CPU      5.09s WALL (   28694 calls)
     cdiaghg      :    328.30s CPU    330.35s WALL (   40144 calls)

     Called by h_psi:
     h_psi:calbec :     83.87s CPU     92.99s WALL (   40794 calls)
     vloc_psi     :   1146.64s CPU   1167.65s WALL (   40794 calls)
     add_vuspsi   :     73.10s CPU     75.12s WALL (   40794 calls)

     General routines
     calbec       :    130.29s CPU    140.04s WALL (   56094 calls)
     fft          :     15.02s CPU     15.37s WALL (    3228 calls)
     ffts         :      0.76s CPU      0.78s WALL (     990 calls)
     fftw         :   1294.02s CPU   1316.50s WALL ( 4343280 calls)
     interpolate  :      2.15s CPU      2.16s WALL (     508 calls)
 
     Parallel routines
     fft_scatt_xy :    140.34s CPU    142.40s WALL ( 4347498 calls)
     fft_scatt_yz :    488.90s CPU    498.38s WALL ( 4347498 calls)
 
     PWSCF        :  57m53.46s CPU      1h 1m WALL

 
   This run was terminated on:   0:42:41  14Apr2021            

=------------------------------------------------------------------------------=
   JOB DONE.
=------------------------------------------------------------------------------=
