
     Program PWSCF v.6.5 starts on 13Apr2021 at 10:57:48 

     This program is part of the open-source Quantum ESPRESSO suite
     for quantum simulation of materials; please cite
         "P. Giannozzi et al., J. Phys.:Condens. Matter 21 395502 (2009);
         "P. Giannozzi et al., J. Phys.:Condens. Matter 29 465901 (2017);
          URL http://www.quantum-espresso.org", 
     in publications or presentations arising from this work. More details at
     http://www.quantum-espresso.org/quote

     Parallel version (MPI), running on    10 processors

     MPI processes distributed on     3 nodes
     R & G space division:  proc/nbgrp/npool/nimage =      10
     Reading input from YBCO_ecut50.pwi

     Current dimensions of program PWSCF are:
     Max number of different atomic species (ntypx) = 10
     Max number of k-points (npk) =  40000
     Max angular momentum in pseudopotentials (lmaxx) =  3
               file Y.pz-spn-rrkjus_psl.1.0.0.UPF: wavefunction(s)  4S renormalized
               file Ba.pz-spn-rrkjus_psl.1.0.0.UPF: wavefunction(s)  5S 6S renormalized
               file O.pz-rrkjus.UPF: wavefunction(s)  2S renormalized
               file Cu.pz-d-rrkjus.UPF: wavefunction(s)  3D renormalized

     Subspace diagonalization in iterative solution of the eigenvalue problem:
     one sub-group per band group will be used
     scalapack distributed-memory algorithm (size of sub-group:  3*  3 procs)

     Message from routine setup:
     using ibrav=0 with symmetry is DISCOURAGED, use correct ibrav instead
 
     Parallelization info
     --------------------
     sticks:   dense  smooth     PW     G-vecs:    dense   smooth      PW
     Min         257      86     25                29895     5760     915
     Max         258      87     26                29902     5769     925
     Sum        2577     861    251               298987    57617    9181
 


     bravais-lattice index     =            0
     lattice parameter (alat)  =       7.2654  a.u.
     unit-cell volume          =    1204.4104 (a.u.)^3
     number of atoms/cell      =           13
     number of atomic types    =            4
     number of electrons       =       106.00
     number of Kohn-Sham states=           64
     kinetic-energy cutoff     =      50.0000  Ry
     charge density cutoff     =     600.0000  Ry
     convergence threshold     =      1.0E-06
     mixing beta               =       0.5000
     number of iterations used =            8  plain     mixing
     Exchange-correlation= SLA PZ NOGX NOGC
                           (   1   1   0   0   0   0   0)
     nstep                     =          300


     celldm(1)=   7.265373  celldm(2)=   0.000000  celldm(3)=   0.000000
     celldm(4)=   0.000000  celldm(5)=   0.000000  celldm(6)=   0.000000

     crystal axes: (cart. coord. in units of alat)
               a(1) = (   1.000000   0.000000   0.000000 )  
               a(2) = (   0.000000   1.021193   0.000000 )  
               a(3) = (   0.000000   0.000000   3.075338 )  

     reciprocal axes: (cart. coord. in units 2 pi/alat)
               b(1) = (  1.000000  0.000000  0.000000 )  
               b(2) = (  0.000000  0.979247  0.000000 )  
               b(3) = (  0.000000  0.000000  0.325168 )  


     PseudoPot. # 1 for Y  read from file:
     ./pseudo/Y.pz-spn-rrkjus_psl.1.0.0.UPF
     MD5 check sum: ea98a87c201a6887fec0b907919e69e1
     Pseudo is Ultrasoft + core correction, Zval = 11.0
     Generated using "atomic" code by A. Dal Corso v.6.2.2
     Using radial grid of 1223 points,  6 beta functions with: 
                l(1) =   0
                l(2) =   0
                l(3) =   1
                l(4) =   1
                l(5) =   2
                l(6) =   2
     Q(r) pseudized with 0 coefficients 


     PseudoPot. # 2 for Ba read from file:
     ./pseudo/Ba.pz-spn-rrkjus_psl.1.0.0.UPF
     MD5 check sum: 687b47877062a240b7e905a3e0e5c78b
     Pseudo is Ultrasoft + core correction, Zval = 10.0
     Generated using "atomic" code by A. Dal Corso v.6.2.2
     Using radial grid of 1251 points,  7 beta functions with: 
                l(1) =   0
                l(2) =   0
                l(3) =   0
                l(4) =   1
                l(5) =   1
                l(6) =   2
                l(7) =   2
     Q(r) pseudized with 0 coefficients 


     PseudoPot. # 3 for O  read from file:
     ./pseudo/O.pz-rrkjus.UPF
     MD5 check sum: 039abfcbbabbdfc0eb99fd57dcb11de2
     Pseudo is Ultrasoft, Zval =  6.0
     Generated by new atomic code, or converted to UPF format
     Using radial grid of 1269 points,  4 beta functions with: 
                l(1) =   0
                l(2) =   0
                l(3) =   1
                l(4) =   1
     Q(r) pseudized with 0 coefficients 


     PseudoPot. # 4 for Cu read from file:
     ./pseudo/Cu.pz-d-rrkjus.UPF
     MD5 check sum: 268b017640135c8b13c10cec7c6cb709
     Pseudo is Ultrasoft, Zval = 11.0
     Generated by new atomic code, or converted to UPF format
     Using radial grid of  899 points,  3 beta functions with: 
                l(1) =   2
                l(2) =   2
                l(3) =   1
     Q(r) pseudized with 0 coefficients 


     atomic species   valence    mass     pseudopotential
        Y             11.00    88.90585     Y ( 1.00)
        Ba            10.00   137.32700     Ba( 1.00)
        O              6.00    15.99900     O ( 1.00)
        Cu            11.00    63.55000     Cu( 1.00)

      8 Sym. Ops., with inversion, found



   Cartesian axes

     site n.     atom                  positions (alat units)
         1           Ba  tau(   1) = (   0.4999997   0.5105967   2.5199052  )
         2           Ba  tau(   2) = (   0.4999997   0.5105967   0.5554339  )
         3           Y   tau(   3) = (   0.4999997   0.5105967   1.5376696  )
         4           Cu  tau(   4) = (   0.0000000   0.0000000   1.9887540  )
         5           Cu  tau(   5) = (   0.0000000   0.0000000   1.0865848  )
         6           Cu  tau(   6) = (   0.0000000   0.0000000   0.0000000  )
         7           O   tau(   7) = (   0.0000000   0.5105967   0.0000000  )
         8           O   tau(   8) = (   0.4999997   0.0000000   1.9087183  )
         9           O   tau(   9) = (   0.4999997   0.0000000   1.1666205  )
        10           O   tau(  10) = (   0.0000000   0.5105967   1.9117875  )
        11           O   tau(  11) = (   0.0000000   0.5105967   1.1635516  )
        12           O   tau(  12) = (   0.0000000   0.0000000   2.5858066  )
        13           O   tau(  13) = (   0.0000000   0.0000000   0.4895325  )

     number of k points=    25  Gaussian smearing, width (Ry)=  0.0100
                       cart. coord. in units 2pi/alat
        k(    1) = (   0.0000000   0.0000000   0.0000000), wk =   0.0312500
        k(    2) = (   0.0000000   0.1224059   0.0000000), wk =   0.0625000
        k(    3) = (   0.0000000   0.2448117   0.0000000), wk =   0.0625000
        k(    4) = (   0.0000000   0.3672176   0.0000000), wk =   0.0625000
        k(    5) = (   0.0000000  -0.4896234   0.0000000), wk =   0.0312500
        k(    6) = (   0.1250000   0.0000000   0.0000000), wk =   0.0625000
        k(    7) = (   0.1250000   0.1224059   0.0000000), wk =   0.1250000
        k(    8) = (   0.1250000   0.2448117   0.0000000), wk =   0.1250000
        k(    9) = (   0.1250000   0.3672176   0.0000000), wk =   0.1250000
        k(   10) = (   0.1250000  -0.4896234   0.0000000), wk =   0.0625000
        k(   11) = (   0.2500000   0.0000000   0.0000000), wk =   0.0625000
        k(   12) = (   0.2500000   0.1224059   0.0000000), wk =   0.1250000
        k(   13) = (   0.2500000   0.2448117   0.0000000), wk =   0.1250000
        k(   14) = (   0.2500000   0.3672176   0.0000000), wk =   0.1250000
        k(   15) = (   0.2500000  -0.4896234   0.0000000), wk =   0.0625000
        k(   16) = (   0.3750000   0.0000000   0.0000000), wk =   0.0625000
        k(   17) = (   0.3750000   0.1224059   0.0000000), wk =   0.1250000
        k(   18) = (   0.3750000   0.2448117   0.0000000), wk =   0.1250000
        k(   19) = (   0.3750000   0.3672176   0.0000000), wk =   0.1250000
        k(   20) = (   0.3750000  -0.4896234   0.0000000), wk =   0.0625000
        k(   21) = (  -0.5000000   0.0000000   0.0000000), wk =   0.0312500
        k(   22) = (  -0.5000000   0.1224059   0.0000000), wk =   0.0625000
        k(   23) = (  -0.5000000   0.2448117   0.0000000), wk =   0.0625000
        k(   24) = (  -0.5000000   0.3672176   0.0000000), wk =   0.0625000
        k(   25) = (  -0.5000000  -0.4896234   0.0000000), wk =   0.0312500

     Dense  grid:   298987 G-vectors     FFT dimensions: (  60,  60, 180)

     Smooth grid:    57617 G-vectors     FFT dimensions: (  36,  36, 108)

     Estimated max dynamical RAM per process >     174.25 MB

     Estimated total dynamical RAM >       1.70 GB

     Initial potential from superposition of free atoms

     starting charge  105.96668, renormalised to  106.00000
     Starting wfcs are   69 randomized atomic wfcs

     total cpu time spent up to now is        4.7 secs

     Self-consistent Calculation

     iteration #  1     ecut=    50.00 Ry     beta= 0.50
     Davidson diagonalization with overlap
     ethr =  1.00E-02,  avg # of iterations =  5.0

     total cpu time spent up to now is        8.8 secs

     total energy              =    -693.31230024 Ry
     Harris-Foulkes estimate   =    -698.55205458 Ry
     estimated scf accuracy    <       7.75592367 Ry

     iteration #  2     ecut=    50.00 Ry     beta= 0.50
     Davidson diagonalization with overlap
     ethr =  7.32E-03,  avg # of iterations =  2.4

     negative rho (up, down):  1.421E-01 0.000E+00

     total cpu time spent up to now is       12.1 secs

     total energy              =    -693.53188780 Ry
     Harris-Foulkes estimate   =    -699.78632152 Ry
     estimated scf accuracy    <     915.02916140 Ry

     iteration #  3     ecut=    50.00 Ry     beta= 0.50
     Davidson diagonalization with overlap
     ethr =  7.32E-03,  avg # of iterations =  3.0

     negative rho (up, down):  3.390E-01 0.000E+00

     total cpu time spent up to now is       15.8 secs

     total energy              =    -684.22384066 Ry
     Harris-Foulkes estimate   =    -710.97824980 Ry
     estimated scf accuracy    <   23136.49967935 Ry

     iteration #  4     ecut=    50.00 Ry     beta= 0.50
     Davidson diagonalization with overlap
     ethr =  7.32E-03,  avg # of iterations =  4.0

     negative rho (up, down):  4.193E-04 0.000E+00

     total cpu time spent up to now is       20.2 secs

     total energy              =    -671.70686968 Ry
     Harris-Foulkes estimate   =    -729.24124792 Ry
     estimated scf accuracy    <   47264.72480094 Ry

     iteration #  5     ecut=    50.00 Ry     beta= 0.50
     Davidson diagonalization with overlap
     ethr =  7.32E-03,  avg # of iterations =  3.1

     negative rho (up, down):  3.703E-03 0.000E+00

     total cpu time spent up to now is       24.0 secs

     total energy              =    -695.74704254 Ry
     Harris-Foulkes estimate   =    -698.49541896 Ry
     estimated scf accuracy    <      50.99189902 Ry

     iteration #  6     ecut=    50.00 Ry     beta= 0.50
     Davidson diagonalization with overlap
     ethr =  7.32E-03,  avg # of iterations =  4.0

     negative rho (up, down):  7.695E-07 0.000E+00

     total cpu time spent up to now is       27.4 secs

     total energy              =    -693.95326636 Ry
     Harris-Foulkes estimate   =    -699.59631244 Ry
     estimated scf accuracy    <    1091.30560057 Ry

     iteration #  7     ecut=    50.00 Ry     beta= 0.50
     Davidson diagonalization with overlap
     ethr =  7.32E-03,  avg # of iterations =  3.9

     total cpu time spent up to now is       31.1 secs

     total energy              =    -696.89205594 Ry
     Harris-Foulkes estimate   =    -696.93298810 Ry
     estimated scf accuracy    <       8.24697785 Ry

     iteration #  8     ecut=    50.00 Ry     beta= 0.50
     Davidson diagonalization with overlap
     ethr =  7.32E-03,  avg # of iterations =  1.2

     total cpu time spent up to now is       33.6 secs

     total energy              =    -696.89002170 Ry
     Harris-Foulkes estimate   =    -696.90655998 Ry
     estimated scf accuracy    <       5.64458043 Ry

     iteration #  9     ecut=    50.00 Ry     beta= 0.50
     Davidson diagonalization with overlap
     ethr =  5.33E-03,  avg # of iterations =  1.0

     total cpu time spent up to now is       36.1 secs

     total energy              =    -696.84645560 Ry
     Harris-Foulkes estimate   =    -696.89537685 Ry
     estimated scf accuracy    <       3.25801031 Ry

     iteration # 10     ecut=    50.00 Ry     beta= 0.50
     Davidson diagonalization with overlap
     ethr =  3.07E-03,  avg # of iterations =  1.0

     total cpu time spent up to now is       38.5 secs

     total energy              =    -696.86433500 Ry
     Harris-Foulkes estimate   =    -696.86651641 Ry
     estimated scf accuracy    <       0.91912249 Ry

     iteration # 11     ecut=    50.00 Ry     beta= 0.50
     Davidson diagonalization with overlap
     ethr =  8.67E-04,  avg # of iterations =  1.3

     total cpu time spent up to now is       41.0 secs

     total energy              =    -696.86593113 Ry
     Harris-Foulkes estimate   =    -696.86717655 Ry
     estimated scf accuracy    <       0.79420863 Ry

     iteration # 12     ecut=    50.00 Ry     beta= 0.50
     Davidson diagonalization with overlap
     ethr =  7.49E-04,  avg # of iterations =  1.0

     total cpu time spent up to now is       43.5 secs

     total energy              =    -696.86484393 Ry
     Harris-Foulkes estimate   =    -696.86641443 Ry
     estimated scf accuracy    <       0.46799601 Ry

     iteration # 13     ecut=    50.00 Ry     beta= 0.50
     Davidson diagonalization with overlap
     ethr =  4.42E-04,  avg # of iterations =  1.5

     total cpu time spent up to now is       46.0 secs

     total energy              =    -696.86471165 Ry
     Harris-Foulkes estimate   =    -696.86639454 Ry
     estimated scf accuracy    <       0.45990158 Ry

     iteration # 14     ecut=    50.00 Ry     beta= 0.50
     Davidson diagonalization with overlap
     ethr =  4.34E-04,  avg # of iterations =  1.4

     total cpu time spent up to now is       48.5 secs

     total energy              =    -696.86351928 Ry
     Harris-Foulkes estimate   =    -696.86857245 Ry
     estimated scf accuracy    <       3.60120955 Ry

     iteration # 15     ecut=    50.00 Ry     beta= 0.50
     Davidson diagonalization with overlap
     ethr =  4.34E-04,  avg # of iterations =  1.0

     total cpu time spent up to now is       51.0 secs

     total energy              =    -696.86572027 Ry
     Harris-Foulkes estimate   =    -696.86592448 Ry
     estimated scf accuracy    <       0.08320278 Ry

     iteration # 16     ecut=    50.00 Ry     beta= 0.50
     Davidson diagonalization with overlap
     ethr =  7.85E-05,  avg # of iterations =  3.8

     total cpu time spent up to now is       54.2 secs

     total energy              =    -696.86595153 Ry
     Harris-Foulkes estimate   =    -696.86599018 Ry
     estimated scf accuracy    <       0.02097460 Ry

     iteration # 17     ecut=    50.00 Ry     beta= 0.50
     Davidson diagonalization with overlap
     ethr =  1.98E-05,  avg # of iterations =  4.4

     total cpu time spent up to now is       57.5 secs

     total energy              =    -696.86595316 Ry
     Harris-Foulkes estimate   =    -696.86597718 Ry
     estimated scf accuracy    <       0.01682167 Ry

     iteration # 18     ecut=    50.00 Ry     beta= 0.50
     Davidson diagonalization with overlap
     ethr =  1.59E-05,  avg # of iterations =  1.2

     total cpu time spent up to now is       59.9 secs

     total energy              =    -696.86595500 Ry
     Harris-Foulkes estimate   =    -696.86596325 Ry
     estimated scf accuracy    <       0.00264925 Ry

     iteration # 19     ecut=    50.00 Ry     beta= 0.50
     Davidson diagonalization with overlap
     ethr =  2.50E-06,  avg # of iterations =  3.8

     total cpu time spent up to now is       63.1 secs

     total energy              =    -696.86595533 Ry
     Harris-Foulkes estimate   =    -696.86596130 Ry
     estimated scf accuracy    <       0.00432730 Ry

     iteration # 20     ecut=    50.00 Ry     beta= 0.50
     Davidson diagonalization with overlap
     ethr =  2.50E-06,  avg # of iterations =  1.0

     total cpu time spent up to now is       65.5 secs

     total energy              =    -696.86595529 Ry
     Harris-Foulkes estimate   =    -696.86595868 Ry
     estimated scf accuracy    <       0.00185451 Ry

     iteration # 21     ecut=    50.00 Ry     beta= 0.50
     Davidson diagonalization with overlap
     ethr =  1.75E-06,  avg # of iterations =  1.0

     total cpu time spent up to now is       67.9 secs

     total energy              =    -696.86595743 Ry
     Harris-Foulkes estimate   =    -696.86595875 Ry
     estimated scf accuracy    <       0.00089995 Ry

     iteration # 22     ecut=    50.00 Ry     beta= 0.50
     Davidson diagonalization with overlap
     ethr =  8.49E-07,  avg # of iterations =  1.0

     total cpu time spent up to now is       70.4 secs

     total energy              =    -696.86595577 Ry
     Harris-Foulkes estimate   =    -696.86595891 Ry
     estimated scf accuracy    <       0.00039957 Ry

     iteration # 23     ecut=    50.00 Ry     beta= 0.50
     Davidson diagonalization with overlap
     ethr =  3.77E-07,  avg # of iterations =  1.0

     total cpu time spent up to now is       72.9 secs

     total energy              =    -696.86595703 Ry
     Harris-Foulkes estimate   =    -696.86595727 Ry
     estimated scf accuracy    <       0.00012364 Ry

     iteration # 24     ecut=    50.00 Ry     beta= 0.50
     Davidson diagonalization with overlap
     ethr =  1.17E-07,  avg # of iterations =  1.0

     total cpu time spent up to now is       75.3 secs

     total energy              =    -696.86595732 Ry
     Harris-Foulkes estimate   =    -696.86595744 Ry
     estimated scf accuracy    <       0.00002304 Ry

     iteration # 25     ecut=    50.00 Ry     beta= 0.50
     Davidson diagonalization with overlap
     ethr =  2.17E-08,  avg # of iterations =  3.0

     total cpu time spent up to now is       78.3 secs

     total energy              =    -696.86595761 Ry
     Harris-Foulkes estimate   =    -696.86595772 Ry
     estimated scf accuracy    <       0.00006838 Ry

     iteration # 26     ecut=    50.00 Ry     beta= 0.50
     Davidson diagonalization with overlap
     ethr =  2.17E-08,  avg # of iterations =  1.0

     total cpu time spent up to now is       80.8 secs

     total energy              =    -696.86595754 Ry
     Harris-Foulkes estimate   =    -696.86595763 Ry
     estimated scf accuracy    <       0.00004342 Ry

     iteration # 27     ecut=    50.00 Ry     beta= 0.50
     Davidson diagonalization with overlap
     ethr =  2.17E-08,  avg # of iterations =  1.0

     total cpu time spent up to now is       83.2 secs

     total energy              =    -696.86595751 Ry
     Harris-Foulkes estimate   =    -696.86595756 Ry
     estimated scf accuracy    <       0.00001500 Ry

     iteration # 28     ecut=    50.00 Ry     beta= 0.50
     Davidson diagonalization with overlap
     ethr =  1.41E-08,  avg # of iterations =  1.0

     total cpu time spent up to now is       85.7 secs

     total energy              =    -696.86595749 Ry
     Harris-Foulkes estimate   =    -696.86595753 Ry
     estimated scf accuracy    <       0.00000385 Ry

     iteration # 29     ecut=    50.00 Ry     beta= 0.50
     Davidson diagonalization with overlap
     ethr =  3.63E-09,  avg # of iterations =  3.2

     total cpu time spent up to now is       88.7 secs

     total energy              =    -696.86595755 Ry
     Harris-Foulkes estimate   =    -696.86595756 Ry
     estimated scf accuracy    <       0.00000638 Ry

     iteration # 30     ecut=    50.00 Ry     beta= 0.50
     Davidson diagonalization with overlap
     ethr =  3.63E-09,  avg # of iterations =  1.0

     total cpu time spent up to now is       91.2 secs

     total energy              =    -696.86595754 Ry
     Harris-Foulkes estimate   =    -696.86595755 Ry
     estimated scf accuracy    <       0.00000466 Ry

     iteration # 31     ecut=    50.00 Ry     beta= 0.50
     Davidson diagonalization with overlap
     ethr =  3.63E-09,  avg # of iterations =  1.0

     total cpu time spent up to now is       93.7 secs

     total energy              =    -696.86595754 Ry
     Harris-Foulkes estimate   =    -696.86595754 Ry
     estimated scf accuracy    <       0.00000130 Ry

     iteration # 32     ecut=    50.00 Ry     beta= 0.50
     Davidson diagonalization with overlap
     ethr =  1.23E-09,  avg # of iterations =  1.0

     total cpu time spent up to now is       96.2 secs

     End of self-consistent calculation

          k = 0.0000 0.0000 0.0000 (  7215 PWs)   bands (ev):

   -31.3887 -16.1976 -16.1741 -11.8893 -11.4401 -11.4195  -8.4006  -7.5025
    -7.4718  -7.2128  -6.9337  -6.5352  -6.4565  -1.3814  -1.3375  -1.1669
    -1.1402  -1.0266  -0.9798   4.5783   4.6211   4.6303   4.7972   4.8770
     4.9285   5.7526   5.8771   5.9315   5.9958   6.2176   6.5713   6.5872
     6.6043   6.7237   6.7374   6.7817   6.8983   6.9832   7.0607   7.0928
     7.3880   7.4946   7.6516   7.8012   7.8390   7.8422   8.0619   8.0998
     8.4659   8.5171   8.6717   8.8578   8.8779   9.0234   9.0402  11.9462
    12.6584  13.4680  13.5451  14.3021  15.0610  15.3373  15.6566  16.0875

          k = 0.0000 0.1224 0.0000 (  7175 PWs)   bands (ev):

   -31.3872 -16.1826 -16.1595 -11.8618 -11.5229 -11.4172  -8.2951  -7.5199
    -7.4349  -7.1991  -6.9570  -6.5892  -6.5220  -1.3844  -1.3238  -1.1584
    -1.1194  -0.9981  -0.9502   4.4874   4.5369   4.6763   4.7300   4.8867
     4.9169   5.3411   5.7159   5.7975   6.0065   6.1740   6.3845   6.3941
     6.4729   6.5152   6.7426   6.7645   7.0090   7.0563   7.1096   7.1388
     7.5776   7.5801   7.6138   7.6620   7.8034   7.8908   8.1243   8.2054
     8.4492   8.5776   8.6672   8.7814   8.9417   9.1237   9.2710  12.2840
    12.8241  13.7770  13.7821  14.4342  14.5763  15.2919  15.5364  15.7625

          k = 0.0000 0.2448 0.0000 (  7181 PWs)   bands (ev):

   -31.3833 -16.1460 -16.1238 -11.7929 -11.7054 -11.4116  -8.0417  -7.5914
    -7.3457  -7.1787  -6.9863  -6.7156  -6.6796  -1.3770  -1.2891  -1.1393
    -1.0800  -0.9272  -0.8768   4.1394   4.2935   4.4677   4.6670   4.8103
     4.9194   5.0695   5.3244   5.7502   5.9871   6.0190   6.0685   6.0785
     6.2250   6.3807   6.7359   6.7509   6.8620   6.8729   7.0853   7.2174
     7.4239   7.7425   7.7791   7.8185   7.9747   7.9934   8.1393   8.3347
     8.4015   8.5853   8.6153   8.7356   8.8384   9.2551  10.0802  13.0777
    13.2148  14.3759  14.5213  14.5822  14.6462  15.5909  15.7432  15.9544

          k = 0.0000 0.3672 0.0000 (  7180 PWs)   bands (ev):

   -31.3795 -16.1087 -16.0875 -11.8691 -11.7200 -11.4059  -7.7611  -7.6999
    -7.3107  -7.1316  -6.9819  -6.8500  -6.8379  -1.3511  -1.2529  -1.1222
    -1.0536  -0.8535  -0.8002   3.7462   3.9400   4.0204   4.6077   4.9739
     5.0074   5.0169   5.1587   5.6860   5.7509   5.7965   5.9321   5.9562
     6.0158   6.2879   6.4624   6.5664   6.7671   6.9097   7.0070   7.2907
     7.5019   7.6933   7.8249   7.8523   7.8990   8.1339   8.3959   8.4556
     8.5657   8.5760   8.5918   8.6560   8.9413   9.2283  10.6669  13.5332
    14.0273  14.4697  14.5580  15.1863  15.4087  15.4743  15.5570  16.2764

          k = 0.0000-0.4896 0.0000 (  7172 PWs)   bands (ev):

   -31.3779 -16.0930 -16.0722 -11.9326 -11.6885 -11.4036  -7.7529  -7.6009
    -7.3710  -7.0257  -6.9787  -6.9727  -6.8878  -1.3346  -1.2376  -1.1159
    -1.0469  -0.8221  -0.7674   3.5574   3.7852   3.9039   4.5926   4.8892
     5.0086   5.1608   5.1982   5.4578   5.6826   5.8437   5.8706   5.9414
     5.9420   6.2128   6.2518   6.5471   6.7484   6.8188   7.0929   7.3072
     7.4073   7.8202   7.8307   7.8726   7.9130   8.1107   8.4228   8.5032
     8.5440   8.5628   8.6684   8.7771   9.0630   9.0893  10.8637  13.7665
    14.1383  14.4493  15.0262  15.2033  15.2792  15.5434  15.8669  16.2799

          k = 0.1250 0.0000 0.0000 (  7229 PWs)   bands (ev):

   -31.3867 -16.1792 -16.1570 -11.8582 -11.5128 -11.4372  -8.2954  -7.5000
    -7.4948  -7.1834  -6.9848  -6.5861  -6.4680  -1.4107  -1.3690  -1.1331
    -1.1070  -1.0002  -0.9855   4.4425   4.5024   4.6650   4.6784   4.9401
     4.9402   5.8143   5.8492   5.8952   5.9335   6.1319   6.3972   6.4168
     6.4320   6.7253   6.7430   6.8185   6.9713   7.0945   7.0961   7.1552
     7.2883   7.5397   7.5561   7.6368   7.7372   7.8527   8.1085   8.1511
     8.4255   8.6857   8.7553   8.7599   8.8601   8.9087   9.0040  12.2653
    12.8326  13.7442  13.8617  14.5550  14.5598  15.3734  15.5791  15.7497

          k = 0.1250 0.1224 0.0000 (  7194 PWs)   bands (ev):

   -31.3851 -16.1648 -16.1429 -11.8311 -11.5234 -11.5052  -8.1908  -7.5050
    -7.4593  -7.1686  -7.0124  -6.6254  -6.5233  -1.3960  -1.3683  -1.2111
    -1.2031  -0.9142  -0.9036   4.3627   4.4930   4.6208   4.6812   4.7604
     5.0115   5.3333   5.6669   5.8888   5.9487   6.0445   6.1554   6.1787
     6.4943   6.6626   6.7660   6.8138   6.9647   6.9991   7.0273   7.1808
     7.5354   7.6050   7.6172   7.7201   7.8061   7.8188   7.9294   8.2146
     8.4500   8.6264   8.8335   8.8802   9.0054   9.1652   9.3072  12.5345
    12.9644  14.0393  14.0866  14.4519  14.6518  15.5003  15.7034  15.7753

          k = 0.1250 0.2448 0.0000 (  7187 PWs)   bands (ev):

   -31.3813 -16.1295 -16.1084 -11.7633 -11.7005 -11.5015  -7.9393  -7.5627
    -7.3541  -7.1481  -7.0486  -6.7197  -6.6626  -1.3753  -1.3626  -1.2680
    -1.2439  -0.8709  -0.8507   4.0425   4.2826   4.4752   4.6397   4.6730
     4.6967   5.1535   5.3172   5.6858   5.7489   5.8816   5.9898   6.0585
     6.1971   6.5170   6.8158   6.8405   6.8837   6.9661   6.9773   7.1470
     7.5294   7.6193   7.7591   7.8424   8.0268   8.1212   8.1653   8.2114
     8.3806   8.4708   8.8707   9.0515   9.1179   9.4404  10.0842  13.1537
    13.3401  14.2955  14.5492  14.7827  14.8341  15.7272  15.7443  15.9071

          k = 0.1250 0.3672 0.0000 (  7173 PWs)   bands (ev):

   -31.3775 -16.0936 -16.0733 -11.8628 -11.6916 -11.4944  -7.6633  -7.6594
    -7.2715  -7.1235  -7.0448  -6.8278  -6.8136  -1.3559  -1.3202  -1.2571
    -1.2093  -0.9049  -0.8983   3.6861   3.8989   3.9959   4.5845   4.7184
     4.8149   5.0811   5.2133   5.3906   5.3988   5.8768   5.9328   5.9981
     6.0248   6.2855   6.7701   6.7783   6.8315   6.8719   7.1298   7.2115
     7.5088   7.6901   7.8674   7.9086   7.9866   8.2254   8.3155   8.4222
     8.4984   8.6260   8.7808   9.0485   9.2067   9.5215  10.6459  13.4830
    13.9499  14.1482  14.6694  15.3647  15.4208  15.6650  15.9089  16.3229

          k = 0.1250-0.4896 0.0000 (  7168 PWs)   bands (ev):

   -31.3759 -16.0785 -16.0586 -11.9259 -11.6607 -11.4914  -7.7142  -7.4883
    -7.3286  -7.0347  -6.9985  -6.9782  -6.8526  -1.3318  -1.2978  -1.2333
    -1.1709  -0.9579  -0.9436   3.5257   3.7084   3.8715   4.5694   4.7392
     4.9142   5.0227   5.1864   5.2246   5.2780   5.8769   5.9067   5.9480
     6.0491   6.1808   6.7357   6.7506   6.8006   6.8299   7.1278   7.3188
     7.5902   7.6248   7.9005   7.9140   7.9505   8.2268   8.3891   8.4868
     8.6390   8.7304   8.7474   9.0493   9.2051   9.4999  10.8329  13.7092
    13.9079  14.0555  15.2077  15.2121  15.6077  15.7226  16.0208  16.4368

          k = 0.2500 0.0000 0.0000 (  7202 PWs)   bands (ev):

   -31.3818 -16.1342 -16.1151 -11.7799 -11.7172 -11.4301  -8.0498  -7.5798
    -7.5117  -7.1240  -7.0761  -6.7060  -6.4843  -1.5128  -1.3353  -1.0487
    -1.0425  -1.0243  -0.9621   4.0400   4.1749   4.6225   4.7903   4.9827
     5.0289   5.7596   5.7629   5.7943   5.8167   5.9323   6.0667   6.0955
     6.4020   6.7006   6.7668   6.7821   6.8219   6.9272   7.1510   7.1994
     7.1999   7.4390   7.5502   7.8310   7.8645   7.8956   8.0098   8.2680
     8.4795   8.5564   8.5955   8.6698   8.7078   8.9103   9.2165  12.9237
    13.2902  14.4717  14.4787  14.5885  15.1095  15.7397  16.0510  16.0797

          k = 0.2500 0.1224 0.0000 (  7196 PWs)   bands (ev):

   -31.3802 -16.1211 -16.1022 -11.7539 -11.7131 -11.5094  -7.9475  -7.5286
    -7.4993  -7.1193  -7.1046  -6.7129  -6.5189  -1.5129  -1.3289  -1.2865
    -1.2250  -0.9000  -0.8846   3.9591   4.1696   4.6098   4.6982   4.7716
     5.0840   5.3223   5.5624   5.6679   5.7355   5.8560   5.9312   6.0909
     6.4532   6.4913   6.8419   6.8689   6.9306   6.9599   7.0146   7.1518
     7.4031   7.5388   7.6037   7.8527   7.8985   8.0122   8.1123   8.1512
     8.4139   8.4454   8.7973   8.9999   9.0432   9.3878   9.4151  13.0382
    13.3781  14.2745  14.7491  14.7750  14.9834  15.6959  15.8227  16.0321

          k = 0.2500 0.2448 0.0000 (  7203 PWs)   bands (ev):

   -31.3765 -16.0891 -16.0707 -11.7091 -11.6889 -11.6797  -7.7042  -7.5017
    -7.3868  -7.1930  -7.0716  -6.7311  -6.6195  -1.5447  -1.5044  -1.3627
    -1.3117  -0.9695  -0.9472   3.6703   4.0813   4.4771   4.5036   4.5067
     4.6494   5.1677   5.2173   5.3074   5.4193   5.9050   5.9463   6.0784
     6.1795   6.4765   6.5331   6.8229   6.9782   7.1148   7.3315   7.3895
     7.4385   7.7580   7.8697   7.9615   8.0345   8.1010   8.3012   8.3169
     8.3886   8.4585   8.9128   9.1044   9.7008   9.9130  10.0969  13.0879
    13.6848  14.0307  14.6905  15.3798  15.5148  15.6211  15.9163  16.0195

          k = 0.2500 0.3672 0.0000 (  7183 PWs)   bands (ev):

   -31.3727 -16.0566 -16.0388 -11.8477 -11.6904 -11.6204  -7.5723  -7.4367
    -7.1996  -7.1965  -7.0789  -6.7710  -6.7532  -1.5675  -1.5641  -1.3990
    -1.3034  -1.1776  -1.1128   3.3290   3.8249   3.9019   4.3916   4.4633
     4.6238   4.7838   4.9754   5.3303   5.3941   5.8466   5.9825   5.9991
     6.0577   6.2609   6.4411   6.8637   7.0005   7.2861   7.5195   7.5729
     7.7014   7.8150   7.9988   8.0402   8.2423   8.3070   8.3203   8.4449
     8.5898   8.6008   8.8493   9.1109  10.0548  10.2145  10.5866  12.9528
    13.6028  14.2000  15.1127  15.2282  15.7024  15.9321  16.1105  16.2684

          k = 0.2500-0.4896 0.0000 (  7176 PWs)   bands (ev):

   -31.3711 -16.0430 -16.0254 -11.9096 -11.6864 -11.5908  -7.6177  -7.2320
    -7.2195  -7.1863  -6.9790  -6.9329  -6.7639  -1.5123  -1.4641  -1.4476
    -1.4373  -1.2530  -1.2045   3.1871   3.6816   3.6908   4.3720   4.4838
     4.6139   4.6378   4.8881   5.3096   5.4023   5.8664   5.9318   5.9353
     6.1143   6.1554   6.4208   6.8766   7.0198   7.3085   7.5546   7.7507
     7.8515   7.8788   8.0262   8.0591   8.1330   8.3192   8.4565   8.5904
     8.6764   8.7072   8.7699   9.0584  10.1508  10.2890  10.7415  12.8809
    13.5448  14.2120  15.0248  15.6482  15.8252  16.0687  16.1231  16.4014

          k = 0.3750 0.0000 0.0000 (  7188 PWs)   bands (ev):

   -31.3769 -16.0881 -16.0722 -11.8996 -11.6967 -11.4230  -7.8005  -7.6725
    -7.5985  -7.1010  -7.0918  -6.8239  -6.4858  -1.5683  -1.2940  -1.0781
    -0.9868  -0.9602  -0.9377   3.6804   3.8402   4.6166   4.9692   5.0190
     5.0638   5.5854   5.6462   5.6697   5.7220   5.7566   5.7883   5.8879
     6.3383   6.4516   6.6124   6.6818   6.8171   7.0749   7.0792   7.1898
     7.2254   7.4410   7.5898   7.7635   7.9547   8.0156   8.2776   8.3162
     8.4738   8.4740   8.5033   8.5138   8.6685   8.9718   9.2498  13.3682
    13.9730  14.3949  15.1141  15.3504  15.6134  15.8770  15.9511  16.1299

          k = 0.3750 0.1224 0.0000 (  7191 PWs)   bands (ev):

   -31.3753 -16.0764 -16.0606 -11.8942 -11.6719 -11.5007  -7.7042  -7.6058
    -7.5679  -7.1549  -7.0660  -6.8019  -6.5042  -1.5658  -1.3031  -1.2595
    -1.1946  -0.9811  -0.9666   3.5793   3.8160   4.5967   4.8140   4.8528
     5.0958   5.2951   5.3330   5.3571   5.4936   5.7314   5.9724   6.0060
     6.3088   6.4021   6.7699   6.8099   6.8923   7.0398   7.1208   7.2519
     7.2657   7.4535   7.7608   7.8766   7.9692   8.0957   8.2995   8.3201
     8.3850   8.4413   8.6164   8.9222   9.1015   9.4237   9.4957  13.2541
    13.9783  14.1675  15.0946  15.4175  15.5758  15.8152  16.0291  16.2797

          k = 0.3750 0.2448 0.0000 (  7204 PWs)   bands (ev):

   -31.3716 -16.0479 -16.0324 -11.8813 -11.6740 -11.6101  -7.4968  -7.4905
    -7.4109  -7.2824  -7.0085  -6.7474  -6.5718  -1.6041  -1.5870  -1.4383
    -1.2869  -1.2081  -1.1637   3.2619   3.6990   4.4251   4.5254   4.5478
     4.6552   4.7542   5.0192   5.3416   5.3721   5.9218   5.9266   6.0916
     6.1478   6.2269   6.4617   6.8949   7.1992   7.2333   7.4639   7.5020
     7.6898   7.6908   7.9332   8.0732   8.2309   8.2931   8.3305   8.3956
     8.4459   8.4809   8.8534   8.9770   9.9803  10.1170  10.1831  12.8238
    13.5529  14.3591  15.1431  15.5860  15.6065  15.8462  16.2167  16.2616

          k = 0.3750 0.3672 0.0000 (  7189 PWs)   bands (ev):

   -31.3678 -16.0190 -16.0037 -11.8687 -11.8311 -11.5449  -7.4778  -7.3573
    -7.2522  -7.1635  -6.9730  -6.7092  -6.6920  -1.7873  -1.7406  -1.5424
    -1.5205  -1.3852  -1.2568   2.8941   3.4615   3.9350   4.2878   4.3406
     4.3562   4.6283   4.8808   5.3363   5.5333   5.7574   5.9750   6.0193
     6.0916   6.1518   6.2450   6.9428   7.2884   7.6003   7.7766   7.8598
     7.8658   8.1240   8.1406   8.2486   8.2688   8.3040   8.4953   8.5689
     8.6173   8.6890   8.8468   9.1522  10.5118  10.6163  10.7181  12.3733
    13.2766  14.5005  15.0977  15.5086  15.6459  15.7912  15.9534  16.2305

          k = 0.3750-0.4896 0.0000 (  7176 PWs)   bands (ev):

   -31.3663 -16.0069 -15.9918 -11.8934 -11.8625 -11.5168  -7.5168  -7.3412
    -7.0981  -7.0082  -6.9669  -6.8693  -6.6690  -1.7871  -1.7842  -1.7516
    -1.5916  -1.4397  -1.2509   2.7394   3.3331   3.7130   4.2186   4.2506
     4.2967   4.6223   4.8411   5.3305   5.6112   5.6870   5.9118   5.9940
     6.0785   6.1114   6.2356   6.9528   7.3165   7.7618   7.9044   7.9313
     8.0431   8.1716   8.2327   8.2663   8.3832   8.4072   8.5106   8.6214
     8.6747   8.7046   9.0087   9.1636  10.6161  10.8201  10.9010  12.2002
    13.2062  14.5203  14.8364  15.5134  15.6699  15.7506  16.0414  16.4032

          k =-0.5000 0.0000 0.0000 (  7204 PWs)   bands (ev):

   -31.3749 -16.0687 -16.0542 -11.9701 -11.6606 -11.4200  -7.7252  -7.6774
    -7.6526  -7.0940  -7.0926  -6.8725  -6.4826  -1.5833  -1.2731  -1.0927
    -1.0051  -0.9221  -0.9005   3.5419   3.7024   4.6248   4.9782   5.0883
     5.1267   5.5270   5.5855   5.5880   5.6116   5.6122   5.6493   6.0212
     6.2171   6.2837   6.6059   6.6762   6.8141   7.0654   7.1770   7.1786
     7.2236   7.4521   7.4951   7.9225   7.9857   8.0536   8.2349   8.2887
     8.4009   8.4416   8.4985   8.6267   8.7208   8.9884   9.1847  13.5207
    14.3442  14.3658  15.2509  15.7724  15.8096  15.8619  15.9400  16.1574

          k =-0.5000 0.1224 0.0000 (  7230 PWs)   bands (ev):

   -31.3733 -16.0576 -16.0432 -11.9644 -11.6364 -11.4971  -7.6587  -7.6183
    -7.5764  -7.1484  -7.0642  -6.8395  -6.4953  -1.5764  -1.2741  -1.2192
    -1.1071  -1.0876  -1.0590   3.4324   3.6695   4.5950   4.8625   5.0127
     5.0939   5.1393   5.1425   5.2736   5.4747   5.6866   5.9004   6.0961
     6.2474   6.3704   6.7209   6.7499   6.9086   7.0644   7.1152   7.2302
     7.3689   7.4579   7.7296   7.9496   8.0255   8.1052   8.2138   8.3547
     8.4295   8.4698   8.6961   8.8828   9.0925   9.4249   9.4610  13.2946
    13.9645  14.4209  15.3811  15.4697  15.8824  16.0495  16.0739  16.2713

          k =-0.5000 0.2448 0.0000 (  7190 PWs)   bands (ev):

   -31.3696 -16.0306 -16.0163 -11.9505 -11.6691 -11.5759  -7.5331  -7.4730
    -7.3454  -7.2814  -6.9935  -6.7560  -6.5503  -1.5749  -1.5169  -1.4360
    -1.4313  -1.3401  -1.2507   3.0995   3.5335   4.4216   4.5309   4.5784
     4.6054   4.6738   4.9115   5.3274   5.3571   5.9246   5.9993   6.0692
     6.1158   6.1702   6.4315   6.9248   7.2418   7.3467   7.5095   7.5277
     7.6549   7.8318   8.0035   8.1386   8.1704   8.3133   8.3325   8.4089
     8.6266   8.6689   8.6695   8.8630  10.0401  10.1266  10.2411  12.6827
    13.4519  14.5905  15.4810  15.5959  15.7317  15.7998  16.1579  16.2591

          k =-0.5000 0.3672 0.0000 (  7182 PWs)   bands (ev):

   -31.3658 -16.0032 -15.9891 -11.9367 -11.8256 -11.5122  -7.4444  -7.4167
    -7.2114  -7.1287  -6.9200  -6.6810  -6.6666  -1.8069  -1.7822  -1.7462
    -1.5558  -1.5386  -1.2446   2.7162   3.2891   3.9493   4.1988   4.2642
     4.3314   4.6346   4.8453   5.3216   5.5250   5.8372   5.9159   5.9810
     6.0978   6.1764   6.1831   6.9677   7.4492   7.6771   7.8642   7.9570
     7.9773   8.1153   8.1930   8.3033   8.3937   8.5226   8.5353   8.5422
     8.5442   8.6930   8.9969   9.0599  10.4811  10.7924  10.8852  12.1446
    13.1627  14.7076  15.0586  15.3716  15.5642  15.8199  16.0105  16.2277

          k =-0.5000-0.4896 0.0000 (  7196 PWs)   bands (ev):

   -31.3643 -15.9918 -15.9777 -11.9310 -11.8866 -11.4849  -7.4735  -7.4065
    -7.0424  -6.9945  -6.8874  -6.8449  -6.6275  -1.9258  -1.9004  -1.8698
    -1.6401  -1.5407  -1.2394   2.5544   3.1610   3.7274   4.0671   4.2201
     4.2692   4.6310   4.8226   5.3160   5.6122   5.7721   5.8295   5.9550
     6.0745   6.1065   6.2214   6.9779   7.4852   7.8838   7.9805   8.0747
     8.0850   8.3003   8.3093   8.3552   8.3789   8.4360   8.6261   8.6517
     8.6618   8.6998   9.1316   9.2478  10.5560  11.0490  11.1271  11.9441
    13.0915  14.7303  14.7638  15.3380  15.4861  15.5122  15.9076  16.4378

     the Fermi energy is     9.2826 ev

!    total energy              =    -696.86595713 Ry
     Harris-Foulkes estimate   =    -696.86595754 Ry
     estimated scf accuracy    <       0.00000088 Ry

     The total energy is the sum of the following terms:

     one-electron contribution =    -214.88704705 Ry
     hartree contribution      =     189.81892747 Ry
     xc contribution           =    -148.54131326 Ry
     ewald contribution        =    -523.25327088 Ry
     smearing contrib. (-TS)   =      -0.00325341 Ry

     convergence has been achieved in  32 iterations

     Forces acting on atoms (cartesian axes, Ry/au):

     atom    1 type  2   force =     0.00000000    0.00000000   -0.01214439
     atom    2 type  2   force =     0.00000000    0.00000000    0.01214439
     atom    3 type  1   force =     0.00000000    0.00000000    0.00000000
     atom    4 type  4   force =     0.00000000    0.00000000    0.00065445
     atom    5 type  4   force =     0.00000000    0.00000000   -0.00065445
     atom    6 type  4   force =     0.00000000    0.00000000    0.00000000
     atom    7 type  3   force =     0.00000000    0.00000000    0.00000000
     atom    8 type  3   force =     0.00000000    0.00000000   -0.00330721
     atom    9 type  3   force =     0.00000000    0.00000000    0.00330721
     atom   10 type  3   force =     0.00000000    0.00000000   -0.00436827
     atom   11 type  3   force =     0.00000000    0.00000000    0.00436827
     atom   12 type  3   force =     0.00000000    0.00000000    0.00760546
     atom   13 type  3   force =     0.00000000    0.00000000   -0.00760546

     Total force =     0.021715     Total SCF correction =     0.000238


     Computing stress (Cartesian axis) and pressure

          total   stress  (Ry/bohr**3)                   (kbar)     P=      -97.15
  -0.00065789   0.00000000   0.00000000          -96.78        0.00        0.00
   0.00000000  -0.00070127   0.00000000            0.00     -103.16        0.00
   0.00000000   0.00000000  -0.00062214            0.00        0.00      -91.52


     BFGS Geometry Optimization

     number of scf cycles    =   1
     number of bfgs steps    =   0

     enthalpy new            =    -696.8659571263 Ry

     new trust radius        =       0.1216871526 bohr
     new conv_thr            =       0.0000010000 Ry

     new unit-cell volume =   1145.73119 a.u.^3 (   169.77984 Ang^3 )
     density =      6.51583 g/cm^3

CELL_PARAMETERS (angstrom)
   3.781435272   0.000000000   0.000000000
   0.000000000   3.857317368   0.000000000
   0.000000000   0.000000000  11.639761592

ATOMIC_POSITIONS (angstrom)
Ba            1.8907166522        1.9286596663        9.5311926676
Ba            1.8907166522        1.9286596663        2.1085728622
Y             1.8907166522        1.9286596663        5.8198827649
Cu            0.0000000000        0.0000000000        7.5275208437
Cu            0.0000000000        0.0000000000        4.1122437017
Cu            0.0000000000        0.0000000000        0.0000000000
O             0.0000000000        1.9286596663        0.0000000000
O             1.8907166522        0.0000000000        7.2225319933
O             1.8907166522        0.0000000000        4.4172325521
O             0.0000000000        1.9286596663        7.2335957063
O             0.0000000000        1.9286596663        4.4061698235
O             0.0000000000        0.0000000000        9.7909095324
O             0.0000000000        0.0000000000        1.8488559974



     Writing output data file /n/holyscratch01/hoffman_lab/ruizhe/outdir/YBCO_ecut50.save/
     NEW-OLD atomic charge density approx. for the potential
     extrapolated charge  100.57286, renormalised to  106.00000

     total cpu time spent up to now is      104.8 secs

     Self-consistent Calculation

     iteration #  1     ecut=    50.00 Ry     beta= 0.50
     Davidson diagonalization with overlap
     ethr =  1.00E-06,  avg # of iterations = 12.6

     negative rho (up, down):  2.169E-03 0.000E+00

     total cpu time spent up to now is      113.8 secs

     total energy              =    -690.12594257 Ry
     Harris-Foulkes estimate   =    -709.17889343 Ry
     estimated scf accuracy    <       8.35941426 Ry

     iteration #  2     ecut=    50.00 Ry     beta= 0.50
     Davidson diagonalization with overlap
     ethr =  7.89E-03,  avg # of iterations =  6.3

     negative rho (up, down):  5.150E-01 0.000E+00

     total cpu time spent up to now is      119.3 secs

     total energy              =    -692.32225805 Ry
     Harris-Foulkes estimate   =    -736.60883150 Ry
     estimated scf accuracy    <    4546.77876356 Ry

     iteration #  3     ecut=    50.00 Ry     beta= 0.50
     Davidson diagonalization with overlap
     ethr =  7.89E-03,  avg # of iterations =  4.7

     negative rho (up, down):  9.746E-02 0.000E+00

     total cpu time spent up to now is      124.0 secs

     total energy              =    -646.91646089 Ry
     Harris-Foulkes estimate   =    -760.54173593 Ry
     estimated scf accuracy    <   57106.11821016 Ry

     iteration #  4     ecut=    50.00 Ry     beta= 0.50
     Davidson diagonalization with overlap
     ethr =  7.89E-03,  avg # of iterations =  4.7

     negative rho (up, down):  9.943E-07 0.000E+00

     total cpu time spent up to now is      129.0 secs

     total energy              =    -684.05298249 Ry
     Harris-Foulkes estimate   =    -709.15409144 Ry
     estimated scf accuracy    <   20060.80762415 Ry

     iteration #  5     ecut=    50.00 Ry     beta= 0.50
     Davidson diagonalization with overlap
     ethr =  7.89E-03,  avg # of iterations =  3.0

     negative rho (up, down):  1.871E-06 0.000E+00

     total cpu time spent up to now is      132.8 secs

     total energy              =    -694.94806379 Ry
     Harris-Foulkes estimate   =    -699.19258713 Ry
     estimated scf accuracy    <    1117.82777398 Ry

     iteration #  6     ecut=    50.00 Ry     beta= 0.50
     Davidson diagonalization with overlap
     ethr =  7.89E-03,  avg # of iterations =  4.0

     total cpu time spent up to now is      136.5 secs

     total energy              =    -695.90970163 Ry
     Harris-Foulkes estimate   =    -698.43441580 Ry
     estimated scf accuracy    <     285.32976477 Ry

     iteration #  7     ecut=    50.00 Ry     beta= 0.50
     Davidson diagonalization with overlap
     ethr =  7.89E-03,  avg # of iterations =  3.0

     total cpu time spent up to now is      139.5 secs

     total energy              =    -696.97558047 Ry
     Harris-Foulkes estimate   =    -697.29800587 Ry
     estimated scf accuracy    <       9.63631567 Ry

     iteration #  8     ecut=    50.00 Ry     beta= 0.50
     Davidson diagonalization with overlap
     ethr =  7.89E-03,  avg # of iterations =  1.0

     total cpu time spent up to now is      142.0 secs

     total energy              =    -696.95467100 Ry
     Harris-Foulkes estimate   =    -697.06269187 Ry
     estimated scf accuracy    <       5.03877536 Ry

     iteration #  9     ecut=    50.00 Ry     beta= 0.50
     Davidson diagonalization with overlap
     ethr =  4.75E-03,  avg # of iterations =  1.0

     total cpu time spent up to now is      144.5 secs

     total energy              =    -696.94733298 Ry
     Harris-Foulkes estimate   =    -696.97913568 Ry
     estimated scf accuracy    <       1.32123981 Ry

     iteration # 10     ecut=    50.00 Ry     beta= 0.50
     Davidson diagonalization with overlap
     ethr =  1.25E-03,  avg # of iterations =  1.1

     total cpu time spent up to now is      147.0 secs

     total energy              =    -696.85999643 Ry
     Harris-Foulkes estimate   =    -696.95475586 Ry
     estimated scf accuracy    <       0.67990855 Ry

     iteration # 11     ecut=    50.00 Ry     beta= 0.50
     Davidson diagonalization with overlap
     ethr =  6.41E-04,  avg # of iterations =  3.0

     negative rho (up, down):  2.171E-04 0.000E+00

     total cpu time spent up to now is      150.0 secs

     total energy              =    -696.90055766 Ry
     Harris-Foulkes estimate   =    -696.91400276 Ry
     estimated scf accuracy    <       4.66455294 Ry

     iteration # 12     ecut=    50.00 Ry     beta= 0.50
     Davidson diagonalization with overlap
     ethr =  6.41E-04,  avg # of iterations =  1.4

     total cpu time spent up to now is      152.5 secs

     total energy              =    -696.88387285 Ry
     Harris-Foulkes estimate   =    -696.90842169 Ry
     estimated scf accuracy    <       4.64278340 Ry

     iteration # 13     ecut=    50.00 Ry     beta= 0.50
     Davidson diagonalization with overlap
     ethr =  6.41E-04,  avg # of iterations =  4.4

     total cpu time spent up to now is      156.2 secs

     total energy              =    -696.49144155 Ry
     Harris-Foulkes estimate   =    -697.28585693 Ry
     estimated scf accuracy    <     533.32203473 Ry

     iteration # 14     ecut=    50.00 Ry     beta= 0.50
     Davidson diagonalization with overlap
     ethr =  6.41E-04,  avg # of iterations =  3.3

     total cpu time spent up to now is      159.5 secs

     total energy              =    -696.88892183 Ry
     Harris-Foulkes estimate   =    -696.89416068 Ry
     estimated scf accuracy    <       1.32357822 Ry

     iteration # 15     ecut=    50.00 Ry     beta= 0.50
     Davidson diagonalization with overlap
     ethr =  6.41E-04,  avg # of iterations =  2.0

     total cpu time spent up to now is      162.1 secs

     total energy              =    -696.89003641 Ry
     Harris-Foulkes estimate   =    -696.90099925 Ry
     estimated scf accuracy    <       3.52559742 Ry

     iteration # 16     ecut=    50.00 Ry     beta= 0.50
     Davidson diagonalization with overlap
     ethr =  6.41E-04,  avg # of iterations =  1.0

     total cpu time spent up to now is      164.6 secs

     total energy              =    -696.89270698 Ry
     Harris-Foulkes estimate   =    -696.89445289 Ry
     estimated scf accuracy    <       1.09235747 Ry

     iteration # 17     ecut=    50.00 Ry     beta= 0.50
     Davidson diagonalization with overlap
     ethr =  6.41E-04,  avg # of iterations =  1.0

     total cpu time spent up to now is      167.1 secs

     total energy              =    -696.89316961 Ry
     Harris-Foulkes estimate   =    -696.89374605 Ry
     estimated scf accuracy    <       0.35296196 Ry

     iteration # 18     ecut=    50.00 Ry     beta= 0.50
     Davidson diagonalization with overlap
     ethr =  3.33E-04,  avg # of iterations =  1.0

     total cpu time spent up to now is      169.5 secs

     total energy              =    -696.89285783 Ry
     Harris-Foulkes estimate   =    -696.89348331 Ry
     estimated scf accuracy    <       0.26771440 Ry

     iteration # 19     ecut=    50.00 Ry     beta= 0.50
     Davidson diagonalization with overlap
     ethr =  2.53E-04,  avg # of iterations =  1.0

     total cpu time spent up to now is      172.0 secs

     total energy              =    -696.89262381 Ry
     Harris-Foulkes estimate   =    -696.89316325 Ry
     estimated scf accuracy    <       0.09644873 Ry

     iteration # 20     ecut=    50.00 Ry     beta= 0.50
     Davidson diagonalization with overlap
     ethr =  9.10E-05,  avg # of iterations =  2.1

     total cpu time spent up to now is      174.7 secs

     total energy              =    -696.89311559 Ry
     Harris-Foulkes estimate   =    -696.89314382 Ry
     estimated scf accuracy    <       0.01029696 Ry

     iteration # 21     ecut=    50.00 Ry     beta= 0.50
     Davidson diagonalization with overlap
     ethr =  9.71E-06,  avg # of iterations =  5.0

     total cpu time spent up to now is      178.2 secs

     total energy              =    -696.89315976 Ry
     Harris-Foulkes estimate   =    -696.89317080 Ry
     estimated scf accuracy    <       0.00057694 Ry

     iteration # 22     ecut=    50.00 Ry     beta= 0.50
     Davidson diagonalization with overlap
     ethr =  5.44E-07,  avg # of iterations =  7.2

     total cpu time spent up to now is      182.4 secs

     total energy              =    -696.89316889 Ry
     Harris-Foulkes estimate   =    -696.89317171 Ry
     estimated scf accuracy    <       0.00065067 Ry

     iteration # 23     ecut=    50.00 Ry     beta= 0.50
     Davidson diagonalization with overlap
     ethr =  5.44E-07,  avg # of iterations =  1.0

     total cpu time spent up to now is      184.8 secs

     total energy              =    -696.89316838 Ry
     Harris-Foulkes estimate   =    -696.89317012 Ry
     estimated scf accuracy    <       0.00034770 Ry

     iteration # 24     ecut=    50.00 Ry     beta= 0.50
     Davidson diagonalization with overlap
     ethr =  3.28E-07,  avg # of iterations =  1.0

     total cpu time spent up to now is      187.3 secs

     total energy              =    -696.89316859 Ry
     Harris-Foulkes estimate   =    -696.89316912 Ry
     estimated scf accuracy    <       0.00018543 Ry

     iteration # 25     ecut=    50.00 Ry     beta= 0.50
     Davidson diagonalization with overlap
     ethr =  1.75E-07,  avg # of iterations =  1.7

     total cpu time spent up to now is      189.9 secs

     total energy              =    -696.89316921 Ry
     Harris-Foulkes estimate   =    -696.89316959 Ry
     estimated scf accuracy    <       0.00009015 Ry

     iteration # 26     ecut=    50.00 Ry     beta= 0.50
     Davidson diagonalization with overlap
     ethr =  8.51E-08,  avg # of iterations =  1.0

     total cpu time spent up to now is      192.4 secs

     total energy              =    -696.89316944 Ry
     Harris-Foulkes estimate   =    -696.89316950 Ry
     estimated scf accuracy    <       0.00004257 Ry

     iteration # 27     ecut=    50.00 Ry     beta= 0.50
     Davidson diagonalization with overlap
     ethr =  4.02E-08,  avg # of iterations =  1.0

     total cpu time spent up to now is      194.8 secs

     total energy              =    -696.89316942 Ry
     Harris-Foulkes estimate   =    -696.89316948 Ry
     estimated scf accuracy    <       0.00001907 Ry

     iteration # 28     ecut=    50.00 Ry     beta= 0.50
     Davidson diagonalization with overlap
     ethr =  1.80E-08,  avg # of iterations =  1.0

     total cpu time spent up to now is      197.2 secs

     total energy              =    -696.89316940 Ry
     Harris-Foulkes estimate   =    -696.89316944 Ry
     estimated scf accuracy    <       0.00001329 Ry

     iteration # 29     ecut=    50.00 Ry     beta= 0.50
     Davidson diagonalization with overlap
     ethr =  1.25E-08,  avg # of iterations =  1.0

     total cpu time spent up to now is      199.6 secs

     total energy              =    -696.89316941 Ry
     Harris-Foulkes estimate   =    -696.89316943 Ry
     estimated scf accuracy    <       0.00000204 Ry

     iteration # 30     ecut=    50.00 Ry     beta= 0.50
     Davidson diagonalization with overlap
     ethr =  1.93E-09,  avg # of iterations =  3.0

     total cpu time spent up to now is      202.6 secs

     total energy              =    -696.89316942 Ry
     Harris-Foulkes estimate   =    -696.89316946 Ry
     estimated scf accuracy    <       0.00000841 Ry

     iteration # 31     ecut=    50.00 Ry     beta= 0.50
     Davidson diagonalization with overlap
     ethr =  1.93E-09,  avg # of iterations =  1.0

     total cpu time spent up to now is      205.1 secs

     total energy              =    -696.89316942 Ry
     Harris-Foulkes estimate   =    -696.89316943 Ry
     estimated scf accuracy    <       0.00000342 Ry

     iteration # 32     ecut=    50.00 Ry     beta= 0.50
     Davidson diagonalization with overlap
     ethr =  1.93E-09,  avg # of iterations =  2.0

     total cpu time spent up to now is      207.8 secs

     End of self-consistent calculation

          k = 0.0000 0.0000 0.0000 (  7215 PWs)   bands (ev):

   -30.4557 -15.3728 -15.3435 -11.1550 -10.5437 -10.5226  -7.9604  -6.9585
    -6.8555  -6.6847  -6.3696  -5.9293  -5.8633  -0.5707  -0.5201  -0.3338
    -0.3033  -0.1912  -0.1371   5.0665   5.0802   5.0879   5.2724   5.3755
     5.4274   6.2432   6.4441   6.4866   6.5772   6.7913   7.1676   7.1881
     7.2045   7.3308   7.3403   7.3998   7.5047   7.5968   7.6799   7.7291
     8.0317   8.1863   8.3096   8.4597   8.4898   8.5661   8.7199   8.7653
     9.1594   9.2176   9.4462   9.5860   9.6055   9.7715   9.7862  12.8363
    13.4421  14.2447  14.4042  15.2794  16.0652  16.3318  16.7512  17.0054

          k = 0.0000 0.1246 0.0000 (  7175 PWs)   bands (ev):

   -30.4535 -15.3537 -15.3249 -11.1187 -10.6586 -10.5196  -7.8311  -6.9187
    -6.8915  -6.6578  -6.3871  -5.9936  -5.9382  -0.5773  -0.5037  -0.3220
    -0.2742  -0.1566  -0.1010   4.9826   4.9872   5.1284   5.2120   5.3829
     5.4159   5.8786   6.2593   6.2962   6.5845   6.7406   6.9607   6.9692
     7.0565   7.0986   7.3523   7.3711   7.6484   7.6831   7.7565   7.7829
     8.2245   8.2366   8.2453   8.3452   8.4626   8.5588   8.7897   8.9276
     9.1440   9.3122   9.3843   9.5100   9.6763   9.8709  10.0587  13.1726
    13.6216  14.5650  14.6534  15.3947  15.4706  16.3054  16.5272  16.8027

          k = 0.0000 0.2492 0.0000 (  7181 PWs)   bands (ev):

   -30.4484 -15.3068 -15.2792 -11.0266 -10.9018 -10.5123  -7.5390  -7.0232
    -6.8237  -6.6064  -6.3889  -6.1440  -6.1137  -0.5717  -0.4611  -0.2962
    -0.2202  -0.0703  -0.0108   4.6023   4.7447   4.9565   5.1607   5.2686
     5.4096   5.5785   5.8411   6.2558   6.5581   6.5591   6.6146   6.6351
     6.7900   6.9568   7.3412   7.3457   7.4815   7.4945   7.7138   7.8583
     8.0718   8.4274   8.4275   8.4822   8.6465   8.6834   8.8302   9.0366
     9.0908   9.3308   9.3541   9.4486   9.5640  10.0217  10.9158  13.9505
    14.0615  15.3008  15.4029  15.5401  16.5135  16.6868  17.0479  17.1171

          k = 0.0000 0.3738 0.0000 (  7180 PWs)   bands (ev):

   -30.4433 -15.2588 -15.2325 -11.1116 -10.9269 -10.5051  -7.2416  -7.1970
    -6.7683  -6.5477  -6.3543  -6.2896  -6.2883  -0.5402  -0.4159  -0.2741
    -0.1850   0.0204   0.0844   4.1926   4.3863   4.4620   5.1046   5.4568
     5.4841   5.5023   5.6655   6.2061   6.2779   6.3260   6.4616   6.5183
     6.5681   6.8616   7.0532   7.1408   7.3698   7.4980   7.6357   7.9333
     8.1448   8.3574   8.4783   8.5248   8.5975   8.8350   9.1121   9.1566
     9.2638   9.2956   9.3687   9.3730   9.6707  10.0050  11.5374  14.3680
    14.9278  15.3574  15.4834  16.1166  16.3163  16.3549  16.4833  17.3209

          k = 0.0000-0.4984 0.0000 (  7172 PWs)   bands (ev):

   -30.4411 -15.2385 -15.2128 -11.1915 -10.8830 -10.5021  -7.2766  -7.0928
    -6.7994  -6.4484  -6.4123  -6.3490  -6.3339  -0.5192  -0.3969  -0.2661
    -0.1765   0.0593   0.1255   3.9934   4.2207   4.3395   5.0899   5.3761
     5.4874   5.6623   5.6675   5.9718   6.2077   6.3883   6.3935   6.4897
     6.4973   6.7823   6.8231   7.1204   7.3475   7.3884   7.7280   7.9488
     8.0337   8.4866   8.5059   8.5500   8.6012   8.8058   9.1447   9.1965
     9.2860   9.3215   9.3840   9.5057   9.7837   9.8822  11.7462  14.5977
    15.0285  15.3356  15.9518  16.1481  16.1880  16.5175  16.7628  17.2973

          k = 0.1271 0.0000 0.0000 (  7229 PWs)   bands (ev):

   -30.4530 -15.3497 -15.3220 -11.1146 -10.6496 -10.5400  -7.8333  -6.9922
    -6.8532  -6.6386  -6.4290  -5.9904  -5.8779  -0.6102  -0.5572  -0.2930
    -0.2633  -0.1558  -0.1351   4.9276   4.9575   5.1125   5.1672   5.4368
     5.4388   6.3092   6.4117   6.4452   6.5024   6.7008   6.9772   6.9938
     7.0142   7.3269   7.3556   7.4344   7.6100   7.7253   7.7407   7.7975
     7.9138   8.1752   8.2317   8.3003   8.4036   8.5053   8.7952   8.8239
     9.1560   9.4077   9.4721   9.5307   9.5890   9.6438   9.7459  13.1452
    13.6323  14.5311  14.7375  15.4537  15.5293  16.4095  16.5941  16.7968

          k = 0.1271 0.1246 0.0000 (  7194 PWs)   bands (ev):

   -30.4509 -15.3313 -15.3040 -11.0788 -10.6628 -10.6357  -7.7041  -6.9484
    -6.8768  -6.6122  -6.4558  -6.0372  -5.9405  -0.5922  -0.5584  -0.3885
    -0.3830  -0.0454  -0.0307   4.8434   4.9525   5.0722   5.1709   5.2456
     5.5165   5.8683   6.2002   6.3906   6.5222   6.5914   6.7270   6.7424
     7.0780   7.2579   7.3604   7.4273   7.6020   7.6343   7.6728   7.8255
     8.1821   8.2396   8.2896   8.3668   8.4725   8.4892   8.6059   8.8951
     9.1716   9.3342   9.5887   9.6195   9.7406   9.9275  10.0966  13.4183
    13.7750  14.8393  14.9757  15.3427  15.5934  16.5222  16.6973  16.7285

          k = 0.1271 0.2492 0.0000 (  7187 PWs)   bands (ev):

   -30.4458 -15.2862 -15.2600 -10.9880 -10.8952 -10.6336  -7.4110  -6.9897
    -6.8364  -6.5640  -6.4689  -6.1495  -6.0947  -0.5749  -0.5532  -0.4504
    -0.4220   0.0070   0.0360   4.5015   4.7394   4.9647   5.1245   5.1345
     5.1831   5.6642   5.8277   6.2224   6.2854   6.3989   6.5568   6.6123
     6.7604   7.1037   7.4258   7.4372   7.4962   7.5831   7.5919   7.7895
     8.1806   8.2746   8.4210   8.5263   8.6963   8.8198   8.8688   8.9181
     9.0752   9.1574   9.6100   9.7850   9.9011  10.2310  10.9203  14.0068
    14.2091  15.1716  15.4807  15.6600  15.6694  16.6950  16.7022  16.9518

          k = 0.1271 0.3738 0.0000 (  7173 PWs)   bands (ev):

   -30.4407 -15.2400 -15.2150 -11.1030 -10.8899 -10.6241  -7.1553  -7.1094
    -6.7334  -6.5285  -6.4341  -6.2647  -6.2622  -0.5513  -0.5004  -0.4332
    -0.3748  -0.0350  -0.0231   4.1271   4.3457   4.4396   5.0720   5.1998
     5.2856   5.5839   5.7177   5.9112   5.9264   6.4108   6.4686   6.5494
     6.5909   6.8571   7.3482   7.3763   7.4362   7.4772   7.7670   7.8357
     8.1511   8.3570   8.5464   8.5854   8.6860   8.9346   9.0282   9.1228
     9.1976   9.3422   9.5076   9.7721  10.0027  10.3306  11.5144  14.3223
    14.8110  15.0126  15.5993  16.2842  16.3848  16.5421  16.8820  17.3801

          k = 0.1271-0.4984 0.0000 (  7168 PWs)   bands (ev):

   -30.4385 -15.2206 -15.1961 -11.1822 -10.8467 -10.6200  -7.2325  -6.9478
    -6.7497  -6.4205  -6.4123  -6.4121  -6.3094  -0.5189  -0.4698  -0.4048
    -0.3255  -0.1003  -0.0833   3.9588   4.1405   4.3079   5.0563   5.2171
     5.3911   5.5198   5.6919   5.7433   5.7960   6.4019   6.4527   6.4984
     6.6159   6.7450   7.3226   7.3237   7.4009   7.4355   7.7677   7.9502
     8.2441   8.2664   8.5894   8.5973   8.6429   8.9381   9.1069   9.1843
     9.3560   9.4564   9.4751   9.7661  10.0029  10.3153  11.7120  14.5566
    14.7466  14.9146  16.1130  16.1439  16.6107  16.7207  16.9190  17.4446

          k = 0.2542 0.0000 0.0000 (  7202 PWs)   bands (ev):

   -30.4466 -15.2927 -15.2691 -11.0116 -10.9169 -10.5310  -7.5543  -7.0884
    -6.9197  -6.5390  -6.5056  -6.1342  -5.8983  -0.7283  -0.5189  -0.1927
    -0.1907  -0.1629  -0.1028   4.4995   4.6307   5.1200   5.2437   5.4736
     5.5269   6.3016   6.3100   6.3272   6.3287   6.4869   6.6230   6.6427
     6.9857   7.3000   7.3582   7.4068   7.4378   7.5519   7.7837   7.8404
     7.8409   8.0922   8.2391   8.4966   8.5163   8.5558   8.6948   8.9548
     9.2505   9.2568   9.3056   9.3805   9.4390   9.6834   9.9831  13.7822
    14.1254  15.3024  15.3617  15.5117  16.0533  16.8139  16.9901  17.0350

          k = 0.2542 0.1246 0.0000 (  7196 PWs)   bands (ev):

   -30.4445 -15.2761 -15.2528 -10.9772 -10.9113 -10.6400  -7.4252  -7.0329
    -6.9032  -6.5649  -6.5113  -6.1427  -5.9362  -0.7296  -0.5124  -0.4808
    -0.4024  -0.0149  -0.0053   4.4166   4.6294   5.1044   5.1565   5.2539
     5.5853   5.8537   6.0781   6.2042   6.2754   6.3962   6.4489   6.6676
     7.0418   7.0730   7.4419   7.4776   7.5562   7.5892   7.6247   7.7924
     8.0632   8.1918   8.2720   8.5169   8.5616   8.6884   8.8038   8.8432
     9.1041   9.1594   9.5361   9.7343   9.8281  10.1802  10.2049  13.8889
    14.2297  15.1471  15.5885  15.7416  15.8548  16.7432  16.8002  16.9914

          k = 0.2542 0.2492 0.0000 (  7203 PWs)   bands (ev):

   -30.4394 -15.2355 -15.2129 -10.9074 -10.8898 -10.8638  -7.1336  -6.9209
    -6.8784  -6.6531  -6.4579  -6.1656  -6.0460  -0.7744  -0.7382  -0.5528
    -0.4922  -0.0974  -0.0809   4.1127   4.5463   4.9454   4.9614   4.9899
     5.1424   5.6798   5.7207   5.8306   5.9491   6.4308   6.5066   6.6435
     6.7541   7.0532   7.1216   7.4227   7.6039   7.7357   7.9403   8.0337
     8.0773   8.4437   8.5632   8.6458   8.7038   8.7804   9.0047   9.0368
     9.0672   9.1864   9.6635   9.8505  10.5181  10.7361  10.9330  13.9067
    14.5423  14.8985  15.6128  16.3409  16.4023  16.6554  16.8160  17.0651

          k = 0.2542 0.3738 0.0000 (  7183 PWs)   bands (ev):

   -30.4343 -15.1940 -15.1723 -11.0823 -10.8789 -10.7957  -7.0512  -6.8375
    -6.6659  -6.6311  -6.4494  -6.2051  -6.1946  -0.8101  -0.7970  -0.5910
    -0.4838  -0.3450  -0.2773   3.7504   4.2734   4.3517   4.8515   4.9230
     5.1121   5.2845   5.4735   5.8719   5.9097   6.3884   6.5275   6.5660
     6.6279   6.8371   7.0097   7.4709   7.6245   7.9014   8.1646   8.2199
     8.3260   8.5049   8.6945   8.7450   8.9398   9.0190   9.0320   9.1691
     9.3106   9.3150   9.5910   9.8514  10.8915  11.0597  11.4488  13.7437
    14.4399  15.0632  16.0726  16.1476  16.7064  16.9388  17.0392  17.3070

          k = 0.2542-0.4984 0.0000 (  7176 PWs)   bands (ev):

   -30.4322 -15.1766 -15.1552 -11.1600 -10.8735 -10.7543  -7.1224  -6.6262
    -6.6192  -6.6053  -6.4153  -6.3558  -6.2090  -0.7324  -0.6743  -0.6662
    -0.6524  -0.4237  -0.3828   3.5996   4.1159   4.1292   4.8301   4.9482
     5.0986   5.1334   5.3841   5.8572   5.9113   6.4186   6.4696   6.4970
     6.6720   6.7453   6.9852   7.4854   7.6456   7.9214   8.1985   8.4111
     8.4914   8.5738   8.7227   8.7628   8.8450   9.0252   9.1811   9.3285
     9.3967   9.4383   9.5076   9.7766  10.9920  11.1413  11.6104  13.6609
    14.3842  15.0716  15.9231  16.6022  16.8167  17.1285  17.1364  17.4528

          k = 0.3813 0.0000 0.0000 (  7188 PWs)   bands (ev):

   -30.4401 -15.2339 -15.2149 -11.1466 -10.8995 -10.5221  -7.2916  -7.1999
    -7.0883  -6.4866  -6.4653  -6.2758  -5.8985  -0.7897  -0.4692  -0.2231
    -0.1307  -0.0821  -0.0565   4.1253   4.2859   5.1187   5.4312   5.5079
     5.5466   6.1076   6.1724   6.1837   6.2564   6.2976   6.3118   6.4267
     6.9179   7.0389   7.1861   7.2804   7.4501   7.7091   7.7147   7.8224
     7.8636   8.0936   8.2423   8.4433   8.6261   8.7065   8.9768   8.9942
     9.1682   9.1885   9.2223   9.2799   9.4018   9.7482  10.0284  14.1992
    14.8319  15.2816  16.0750  16.2301  16.5385  16.9007  16.9131  17.0416

          k = 0.3813 0.1246 0.0000 (  7191 PWs)   bands (ev):

   -30.4380 -15.2193 -15.2003 -11.1392 -10.8666 -10.6284  -7.1747  -7.1180
    -7.0521  -6.5570  -6.4344  -6.2508  -5.9177  -0.7874  -0.4887  -0.4343
    -0.3678  -0.1069  -0.0997   4.0193   4.2630   5.0908   5.2917   5.3217
     5.5930   5.8216   5.8550   5.8637   6.0003   6.2712   6.5358   6.5508
     6.8802   6.9916   7.3499   7.4100   7.5051   7.6803   7.7553   7.8828
     7.9174   8.1032   8.4351   8.5448   8.6469   8.7787   8.9953   9.0184
     9.0995   9.1463   9.3351   9.6551   9.8995  10.2174  10.3029  14.0674
    14.8386  15.0334  16.0515  16.3744  16.4719  16.8427  16.9658  17.2492

          k = 0.3813 0.2492 0.0000 (  7204 PWs)   bands (ev):

   -30.4330 -15.1834 -15.1648 -11.1214 -10.8580 -10.7833  -6.9650  -6.9627
    -6.8456  -6.7273  -6.3635  -6.1890  -5.9903  -0.8410  -0.8306  -0.6424
    -0.4646  -0.3757  -0.3360   3.6840   4.1465   4.8859   5.0033   5.0082
     5.1577   5.2476   5.5275   5.8622   5.8840   6.4738   6.4914   6.6677
     6.7294   6.7811   7.0390   7.5038   7.8394   7.8531   8.1180   8.1474
     8.3249   8.3631   8.6346   8.7636   8.9225   8.9801   9.0347   9.1192
     9.1356   9.2143   9.6098   9.7121  10.8196  10.9490  11.0279  13.5977
    14.3873  15.2401  16.1110  16.5701  16.6273  16.7442  17.2007  17.2330

          k = 0.3813 0.3738 0.0000 (  7189 PWs)   bands (ev):

   -30.4280 -15.1470 -15.1287 -11.1041 -11.0589 -10.6937  -6.9440  -6.8320
    -6.6969  -6.5541  -6.3144  -6.1405  -6.1267  -1.0647  -1.0018  -0.7736
    -0.7364  -0.5922  -0.4265   3.2940   3.8974   4.3852   4.7383   4.7901
     4.8341   5.1138   5.4013   5.8582   6.0656   6.2991   6.5502   6.5718
     6.6638   6.7128   6.8191   7.5533   7.9326   8.2301   8.4572   8.5354
     8.5555   8.8011   8.8364   8.9535   8.9605   8.9906   9.2361   9.3023
     9.3420   9.4295   9.5835   9.9241  11.3659  11.4812  11.5901  13.1173
    14.1085  15.3889  16.0135  16.4677  16.6437  16.8076  16.9319  17.3818

          k = 0.3813-0.4984 0.0000 (  7176 PWs)   bands (ev):

   -30.4259 -15.1317 -15.1136 -11.1377 -11.0951 -10.6544  -7.0063  -6.8046
    -6.4620  -6.4253  -6.3304  -6.3050  -6.1010  -1.0665  -1.0527  -1.0130
    -0.8272  -0.6487  -0.4192   3.1296   3.7602   4.1477   4.6921   4.6978
     4.7452   5.1047   5.3665   5.8558   6.1422   6.2317   6.4832   6.5272
     6.6400   6.6809   6.8204   7.5630   7.9610   8.3992   8.6068   8.6161
     8.7162   8.8843   8.9208   8.9992   9.0416   9.1209   9.2658   9.3367
     9.4096   9.4497   9.7858   9.9183  11.4697  11.6947  11.7827  12.9342
    14.0425  15.4089  15.7325  16.4690  16.6760  16.7291  17.0852  17.3886

          k =-0.5084 0.0000 0.0000 (  7204 PWs)   bands (ev):

   -30.4374 -15.2091 -15.1920 -11.2339 -10.8499 -10.5183  -7.2602  -7.1746
    -7.1701  -6.4640  -6.4465  -6.3343  -5.8933  -0.8064  -0.4429  -0.2364
    -0.1515  -0.0351  -0.0104   3.9811   4.1420   5.1313   5.4598   5.5553
     5.6021   6.0479   6.0954   6.1191   6.1294   6.1331   6.1591   6.5830
     6.7859   6.8583   7.1789   7.2750   7.4452   7.7025   7.8070   7.8212
     7.8591   8.1174   8.1272   8.6071   8.6628   8.7493   8.9261   8.9622
     9.0897   9.2178   9.2216   9.3731   9.4348   9.7676   9.9640  14.3362
    15.2084  15.2513  16.1897  16.6962  16.7218  16.8613  16.9607  17.0701

          k =-0.5084 0.1246 0.0000 (  7230 PWs)   bands (ev):

   -30.4354 -15.1952 -15.1782 -11.2260 -10.8177 -10.6236  -7.1867  -7.1351
    -7.0379  -6.5339  -6.4144  -6.2967  -5.9058  -0.7983  -0.4461  -0.3891
    -0.2720  -0.2348  -0.2001   3.8653   4.1093   5.0873   5.3358   5.4913
     5.5901   5.6323   5.6521   5.8024   5.9773   6.2349   6.4491   6.6592
     6.8151   6.9582   7.3145   7.3245   7.5247   7.7085   7.7500   7.8752
     8.0114   8.1159   8.3758   8.6372   8.7071   8.7839   8.9031   9.0610
     9.1406   9.1885   9.4096   9.6142   9.8926  10.2194  10.2740  14.0889
    14.8207  15.2941  16.3315  16.4437  16.9022  16.9674  17.0004  17.3327

          k =-0.5084 0.2492 0.0000 (  7190 PWs)   bands (ev):

   -30.4304 -15.1615 -15.1446 -11.2069 -10.8513 -10.7362  -7.0367  -6.9808
    -6.7441  -6.7055  -6.3345  -6.2015  -5.9639  -0.8010  -0.7448  -0.6435
    -0.6427  -0.5441  -0.4179   3.5132   3.9715   4.8792   5.0044   5.0636
     5.0693   5.1801   5.4187   5.8449   5.8600   6.5023   6.5648   6.6421
     6.6965   6.7264   7.0015   7.5381   7.8573   7.9975   8.1725   8.1926
     8.3182   8.4886   8.7043   8.8254   8.8532   9.0177   9.0274   9.1182
     9.3398   9.4132   9.4140   9.5857  10.8859  10.9561  11.0930  13.4379
    14.2854  15.4848  16.4331  16.5658  16.7125  16.7478  17.2462  17.2602

          k =-0.5084 0.3738 0.0000 (  7182 PWs)   bands (ev):

   -30.4254 -15.1272 -15.1104 -11.1878 -11.0516 -10.6487  -6.9336  -6.8817
    -6.6882  -6.4759  -6.2510  -6.1084  -6.0988  -1.0879  -1.0496  -1.0089
    -0.7915  -0.7569  -0.4114   3.1068   3.7156   4.3992   4.6679   4.7111
     4.7804   5.1197   5.3751   5.8291   6.0569   6.3947   6.4856   6.5254
     6.6697   6.7349   6.7701   7.5786   8.1050   8.3221   8.5629   8.6423
     8.6510   8.8229   8.9127   9.0036   9.0563   9.2460   9.2465   9.2707
     9.2727   9.4234   9.7794   9.8178  11.3316  11.6662  11.7667  12.8721
    13.9951  15.6176  15.9682  16.3081  16.5720  16.7942  17.2220  17.3052

          k =-0.5084-0.4984 0.0000 (  7196 PWs)   bands (ev):

   -30.4233 -15.1129 -15.0961 -11.1799 -11.1285 -10.6104  -6.9564  -6.8893
    -6.4305  -6.3705  -6.3061  -6.2141  -6.0536  -1.2279  -1.1843  -1.1517
    -0.8869  -0.7620  -0.4051   2.9347   3.5794   4.1620   4.5318   4.6636
     4.7156   5.1132   5.3600   5.8253   6.1526   6.3254   6.3910   6.4861
     6.6396   6.6648   6.8177   7.5881   8.1427   8.5749   8.6698   8.7338
     8.7669   9.0018   9.0424   9.0860   9.1014   9.1266   9.2963   9.3866
     9.4316   9.4333   9.9275  10.0243  11.4045  11.9344  12.0197  12.6616
    13.9292  15.6440  15.6631  16.2709  16.4444  16.5161  16.9323  17.7272

     the Fermi energy is    10.0644 ev

!    total energy              =    -696.89316942 Ry
     Harris-Foulkes estimate   =    -696.89316943 Ry
     estimated scf accuracy    <       0.00000003 Ry

     The total energy is the sum of the following terms:

     one-electron contribution =    -202.95101861 Ry
     hartree contribution      =     186.64718770 Ry
     xc contribution           =    -148.94519019 Ry
     ewald contribution        =    -531.64123175 Ry
     smearing contrib. (-TS)   =      -0.00291658 Ry

     convergence has been achieved in  32 iterations

     Forces acting on atoms (cartesian axes, Ry/au):

     atom    1 type  2   force =     0.00000000    0.00000000   -0.00348805
     atom    2 type  2   force =     0.00000000    0.00000000    0.00348805
     atom    3 type  1   force =     0.00000000    0.00000000    0.00000000
     atom    4 type  4   force =     0.00000000    0.00000000    0.00264257
     atom    5 type  4   force =     0.00000000    0.00000000   -0.00264257
     atom    6 type  4   force =     0.00000000    0.00000000    0.00000000
     atom    7 type  3   force =     0.00000000    0.00000000    0.00000000
     atom    8 type  3   force =     0.00000000    0.00000000    0.00129632
     atom    9 type  3   force =     0.00000000    0.00000000   -0.00129632
     atom   10 type  3   force =     0.00000000    0.00000000    0.00112072
     atom   11 type  3   force =     0.00000000    0.00000000   -0.00112072
     atom   12 type  3   force =     0.00000000    0.00000000   -0.00490567
     atom   13 type  3   force =     0.00000000    0.00000000    0.00490567

     Total force =     0.009607     Total SCF correction =     0.000061


     Computing stress (Cartesian axis) and pressure

          total   stress  (Ry/bohr**3)                   (kbar)     P=      -35.77
  -0.00022638   0.00000000   0.00000000          -33.30        0.00        0.00
   0.00000000  -0.00023275   0.00000000            0.00      -34.24        0.00
   0.00000000   0.00000000  -0.00027026            0.00        0.00      -39.76


     number of scf cycles    =   4
     number of bfgs steps    =   3

     enthalpy old            =    -696.8689689714 Ry
     enthalpy new            =    -696.8931694214 Ry

     CASE: enthalpy_new < enthalpy_old


     WARNING: bfgs curvature condition failed, Theta= 0.881
     new trust radius        =       0.3154457274 bohr
     new conv_thr            =       0.0000004906 Ry

     new unit-cell volume =   1033.10226 a.u.^3 (   153.08996 Ang^3 )
     density =      7.22618 g/cm^3

CELL_PARAMETERS (angstrom)
   3.680791056   0.000000000   0.000000000
   0.000000000   3.747871666   0.000000000
   0.000000000   0.000000000  11.097389448

ATOMIC_POSITIONS (angstrom)
Ba            1.8403945709        1.8739367874        9.1349128375
Ba            1.8403945709        1.8739367874        1.9624803651
Y             1.8403945709        1.8739367874        5.5486966012
Cu            0.0000000000        0.0000000000        7.1753597010
Cu            0.0000000000        0.0000000000        3.9220325630
Cu            0.0000000000        0.0000000000        0.0000000000
O             0.0000000000        1.8739367874        0.0000000000
O             1.8403945709        0.0000000000        6.8837957666
O             1.8403945709        0.0000000000        4.2135964974
O             0.0000000000        1.8739367874        6.8932063759
O             0.0000000000        1.8739367874        4.2041868267
O             0.0000000000        0.0000000000        9.3369469308
O             0.0000000000        0.0000000000        1.7604462718



     Writing output data file /n/holyscratch01/hoffman_lab/ruizhe/outdir/YBCO_ecut50.save/
     NEW-OLD atomic charge density approx. for the potential
     extrapolated charge   94.44750, renormalised to  106.00000

     total cpu time spent up to now is      216.4 secs

     Self-consistent Calculation

     iteration #  1     ecut=    50.00 Ry     beta= 0.50
     Davidson diagonalization with overlap
     ethr =  1.00E-06,  avg # of iterations = 10.7

     negative rho (up, down):  5.143E-01 0.000E+00

     total cpu time spent up to now is      225.4 secs

     total energy              =    -652.02463084 Ry
     Harris-Foulkes estimate   =    -722.06200919 Ry
     estimated scf accuracy    <      56.52849821 Ry

     iteration #  2     ecut=    50.00 Ry     beta= 0.50
     Davidson diagonalization with overlap
     ethr =  1.00E-02,  avg # of iterations =  9.2

     negative rho (up, down):  6.979E-01 0.000E+00

     total cpu time spent up to now is      233.8 secs

     total energy              =    -706.22777438 Ry
     Harris-Foulkes estimate   =    -978.48854536 Ry
     estimated scf accuracy    <   67907.83120694 Ry

     iteration #  3     ecut=    50.00 Ry     beta= 0.50
     Davidson diagonalization with overlap
     ethr =  1.00E-02,  avg # of iterations =  5.0

     negative rho (up, down):  5.543E-01 0.000E+00

     total cpu time spent up to now is      239.0 secs

     total energy              =    -517.65413376 Ry
     Harris-Foulkes estimate   =    -976.60997795 Ry
     estimated scf accuracy    <   85058.52787246 Ry

     iteration #  4     ecut=    50.00 Ry     beta= 0.50
     Davidson diagonalization with overlap
     ethr =  1.00E-02,  avg # of iterations =  7.4

     negative rho (up, down):  2.139E-01 0.000E+00

     total cpu time spent up to now is      246.5 secs

     total energy              =    -609.55947408 Ry
     Harris-Foulkes estimate   =    -777.40436479 Ry
     estimated scf accuracy    <   77296.09526564 Ry

     iteration #  5     ecut=    50.00 Ry     beta= 0.50
     Davidson diagonalization with overlap
     ethr =  1.00E-02,  avg # of iterations =  3.3

     negative rho (up, down):  3.994E-01 0.000E+00

     total cpu time spent up to now is      250.6 secs

     total energy              =    -697.33302912 Ry
     Harris-Foulkes estimate   =    -700.99797378 Ry
     estimated scf accuracy    <     127.08524811 Ry

     iteration #  6     ecut=    50.00 Ry     beta= 0.50
     Davidson diagonalization with overlap
     ethr =  1.00E-02,  avg # of iterations =  4.2

     negative rho (up, down):  4.246E-02 0.000E+00

     total cpu time spent up to now is      254.5 secs

     total energy              =    -669.79820411 Ry
     Harris-Foulkes estimate   =    -730.21512367 Ry
     estimated scf accuracy    <   43392.92562335 Ry

     iteration #  7     ecut=    50.00 Ry     beta= 0.50
     Davidson diagonalization with overlap
     ethr =  1.00E-02,  avg # of iterations =  3.1

     negative rho (up, down):  2.560E-02 0.000E+00

     total cpu time spent up to now is      258.3 secs

     total energy              =    -697.54691074 Ry
     Harris-Foulkes estimate   =    -698.31788977 Ry
     estimated scf accuracy    <      48.74624193 Ry

     iteration #  8     ecut=    50.00 Ry     beta= 0.50
     Davidson diagonalization with overlap
     ethr =  1.00E-02,  avg # of iterations =  1.0

     negative rho (up, down):  5.586E-02 0.000E+00

     total cpu time spent up to now is      260.7 secs

     total energy              =    -697.58052838 Ry
     Harris-Foulkes estimate   =    -697.73721953 Ry
     estimated scf accuracy    <      23.28823544 Ry

     iteration #  9     ecut=    50.00 Ry     beta= 0.50
     Davidson diagonalization with overlap
     ethr =  1.00E-02,  avg # of iterations =  1.0

     negative rho (up, down):  9.083E-02 0.000E+00

     total cpu time spent up to now is      263.2 secs

     total energy              =    -697.66926770 Ry
     Harris-Foulkes estimate   =    -697.63192562 Ry
     estimated scf accuracy    <      46.08224673 Ry

     iteration # 10     ecut=    50.00 Ry     beta= 0.50
     Davidson diagonalization with overlap
     ethr =  1.00E-02,  avg # of iterations =  1.0

     negative rho (up, down):  6.229E-02 0.000E+00

     total cpu time spent up to now is      265.6 secs

     total energy              =    -696.79192181 Ry
     Harris-Foulkes estimate   =    -697.69119899 Ry
     estimated scf accuracy    <      61.34965637 Ry

     iteration # 11     ecut=    50.00 Ry     beta= 0.50
     Davidson diagonalization with overlap
     ethr =  1.00E-02,  avg # of iterations =  1.2

     negative rho (up, down):  2.043E-01 0.000E+00

     total cpu time spent up to now is      268.1 secs

     total energy              =    -697.35341144 Ry
     Harris-Foulkes estimate   =    -697.34707871 Ry
     estimated scf accuracy    <      96.60440182 Ry

     iteration # 12     ecut=    50.00 Ry     beta= 0.50
     Davidson diagonalization with overlap
     ethr =  1.00E-02,  avg # of iterations =  3.0

     negative rho (up, down):  2.055E-01 0.000E+00

     total cpu time spent up to now is      271.1 secs

     total energy              =    -695.54625284 Ry
     Harris-Foulkes estimate   =    -697.77419179 Ry
     estimated scf accuracy    <     604.41803788 Ry

     iteration # 13     ecut=    50.00 Ry     beta= 0.50
     Davidson diagonalization with overlap
     ethr =  1.00E-02,  avg # of iterations =  3.0

     negative rho (up, down):  1.956E-01 0.000E+00

     total cpu time spent up to now is      274.2 secs

     total energy              =    -696.15974060 Ry
     Harris-Foulkes estimate   =    -697.09733668 Ry
     estimated scf accuracy    <     120.27754087 Ry

     iteration # 14     ecut=    50.00 Ry     beta= 0.50
     Davidson diagonalization with overlap
     ethr =  1.00E-02,  avg # of iterations =  3.1

     negative rho (up, down):  2.924E-02 0.000E+00

     total cpu time spent up to now is      277.2 secs

     total energy              =    -696.74988614 Ry
     Harris-Foulkes estimate   =    -697.30612490 Ry
     estimated scf accuracy    <     155.87803684 Ry

     iteration # 15     ecut=    50.00 Ry     beta= 0.50
     Davidson diagonalization with overlap
[...]

   -29.9367 -14.7505 -14.7175 -10.5849 -10.4320 -10.0097  -7.1663  -6.6353
    -6.4527  -6.2061  -5.9748  -5.7861  -5.7488  -0.0168   0.0863   0.2407
     0.3251   0.4639   0.5336   4.9353   5.1198   5.3181   5.4927   5.6351
     5.7991   5.9909   6.2431   6.6438   6.7702   6.9585   7.0030   7.0485
     7.2076   7.4071   7.7498   7.7605   7.8950   7.9097   8.0208   8.2467
     8.4762   8.8836   8.9026   8.9128   9.0722   9.1780   9.3143   9.4762
     9.5505   9.8406   9.8616   9.9331   9.9834  10.5741  11.4141  14.4179
    14.5723  15.8549  15.9076  16.0234  16.1309  17.1415  17.3374  17.8250

          k = 0.0000 0.3758 0.0000 (  6602 PWs)   bands (ev):

   -29.9311 -14.6968 -14.6653 -10.6569 -10.4767 -10.0019  -6.8689  -6.8381
    -6.4212  -6.1350  -5.9346  -5.9300  -5.9008   0.0097   0.1274   0.2774
     0.3748   0.5637   0.6392   4.5220   4.7679   4.8392   5.3938   5.8460
     5.8523   5.8842   6.0501   6.6023   6.6845   6.7043   6.7208   6.8478
     6.9850   7.2894   7.4574   7.5604   7.7714   7.7994   8.0657   8.3018
     8.5390   8.8459   8.9491   8.9947   9.1237   9.3107   9.5547   9.6143
     9.7552   9.8189   9.8357   9.8364  10.0999  10.5507  12.0303  14.8071
    15.4277  15.8512  16.0664  16.7792  16.9768  17.0528  17.1058  18.1864

          k = 0.0000-0.5011 0.0000 (  6596 PWs)   bands (ev):

   -29.9287 -14.6741 -14.6433 -10.7420 -10.4287  -9.9986  -6.9296  -6.7210
    -6.4646  -6.0234  -6.0201  -5.9940  -5.9073   0.0271   0.1422   0.2940
     0.3912   0.6068   0.6850   4.3243   4.5980   4.7166   5.3698   5.7500
     5.8767   6.0308   6.0347   6.3728   6.5823   6.6961   6.7618   6.8129
     6.9074   7.2037   7.2270   7.5375   7.6512   7.7752   8.1688   8.3108
     8.4526   8.9825   9.0107   9.0518   9.0552   9.2850   9.5833   9.6907
     9.7830   9.8263   9.8340   9.9558  10.2290  10.4301  12.2348  15.0411
    15.5224  15.8288  16.5784  16.6902  16.8897  17.2137  17.4470  18.3173

          k = 0.1275 0.0000 0.0000 (  6644 PWs)   bands (ev):

   -29.9417 -14.7985 -14.7656 -10.6801 -10.1611 -10.0376  -7.4674  -6.6174
    -6.4301  -6.2468  -6.0329  -5.6292  -5.5182  -0.0787  -0.0031   0.2401
     0.2740   0.3809   0.4011   5.2737   5.3257   5.4789   5.4878   5.8153
     5.8505   6.6755   6.7415   6.8229   6.8871   7.1022   7.3923   7.4044
     7.4670   7.7570   7.7907   7.8568   7.9964   8.1245   8.1563   8.1853
     8.3395   8.5633   8.6807   8.7376   8.8567   8.9067   9.2176   9.2185
     9.6511   9.8472   9.9657  10.0681  10.0969  10.1327  10.3048  13.6850
    14.0744  15.1517  15.2688  15.9566  16.1106  17.0508  17.2677  17.5674

          k = 0.1275 0.1253 0.0000 (  6624 PWs)   bands (ev):

   -29.9394 -14.7781 -14.7457 -10.6416 -10.1746 -10.1439  -7.3311  -6.5743
    -6.4607  -6.2167  -6.0593  -5.6777  -5.5809  -0.0658  -0.0068   0.1461
     0.1467   0.4981   0.5194   5.1816   5.3231   5.4419   5.4921   5.6221
     5.9279   6.2729   6.6017   6.7653   6.7762   7.0089   7.1374   7.1503
     7.4988   7.6955   7.7701   7.8540   7.9652   8.0293   8.0863   8.2407
     8.6279   8.6346   8.7710   8.7830   8.8847   8.9103   9.0597   9.3682
     9.6291   9.8206  10.0530  10.0933  10.3007  10.4373  10.5979  13.9570
    14.2138  15.4558  15.5159  15.8626  16.1524  17.1439  17.2858  17.4262

          k = 0.1275 0.2505 0.0000 (  6628 PWs)   bands (ev):

   -29.9338 -14.7279 -14.6967 -10.5437 -10.4248 -10.1432  -7.0289  -6.5999
    -6.4671  -6.1606  -6.0630  -5.7927  -5.7299  -0.0393  -0.0302   0.0975
     0.1097   0.5576   0.5977   4.8404   5.1147   5.3236   5.4735   5.5072
     5.5472   6.0651   6.2222   6.6385   6.6869   6.7741   6.7897   7.0232
     7.1750   7.5327   7.8131   7.8493   7.8546   7.9858   7.9947   8.2031
     8.6337   8.7344   8.8423   9.0103   9.1243   9.2610   9.3477   9.4097
     9.5128   9.6345  10.1006  10.2908  10.3865  10.7386  11.4158  14.4581
    14.7187  15.6806  16.0245  16.2858  16.2922  17.3069  17.3231  17.7071

          k = 0.1275 0.3758 0.0000 (  6619 PWs)   bands (ev):

   -29.9283 -14.6764 -14.6465 -10.6475 -10.4371 -10.1327  -6.7936  -6.7267
    -6.3821  -6.1168  -6.0184  -5.9074  -5.8788  -0.0101   0.0168   0.1177
     0.1655   0.5154   0.5379   4.4607   4.7200   4.8151   5.3788   5.5727
     5.6559   5.9803   6.0896   6.3209   6.3398   6.7356   6.8136   6.9298
     6.9631   7.2716   7.7352   7.7602   7.7912   7.8961   8.1706   8.2541
     8.6122   8.8089   8.9809   9.0674   9.2054   9.4140   9.4658   9.5752
     9.6665   9.7901  10.0458  10.2460  10.4788  10.8322  12.0028  14.7672
    15.2901  15.5267  16.2295  16.9753  17.0438  17.1942  17.4745  18.0788

          k = 0.1275-0.5011 0.0000 (  6610 PWs)   bands (ev):

   -29.9260 -14.6546 -14.6253 -10.7320 -10.3898 -10.1283  -6.8822  -6.5630
    -6.4114  -6.0250  -5.9948  -5.9924  -5.9563   0.0187   0.0559   0.1436
     0.2295   0.4507   0.4632   4.2884   4.5145   4.6827   5.3535   5.5937
     5.7560   5.9136   6.0586   6.1625   6.2097   6.6939   6.8597   6.9128
     6.9135   7.1601   7.7187   7.7235   7.7316   7.8403   8.1737   8.3754
     8.6596   8.7730   9.0345   9.1083   9.1233   9.4150   9.5462   9.6440
     9.8001   9.9270  10.0635  10.2059  10.4762  10.8122  12.1950  15.0268
    15.1939  15.4574  16.7683  16.7960  17.1637  17.4303  17.6158  18.2845

          k = 0.2550 0.0000 0.0000 (  6634 PWs)   bands (ev):

   -29.9348 -14.7358 -14.7079 -10.5698 -10.4515 -10.0281  -7.1778  -6.7291
    -6.5238  -6.1331  -6.1030  -5.7764  -5.5333  -0.2070   0.0365   0.3510
     0.3552   0.3826   0.4528   4.8663   5.0062   5.4087   5.6123   5.8500
     5.9158   6.5781   6.7029   6.7030   6.7529   6.8143   7.0307   7.0422
     7.4601   7.7289   7.7565   7.8156   7.8576   7.9575   8.2072   8.2219
     8.2270   8.5288   8.6976   8.9326   8.9678   8.9727   9.1535   9.3709
     9.7328   9.7582   9.7618   9.8806   9.9524  10.2218  10.5366  14.2630
    14.5778  15.8750  15.9124  16.0532  16.6569  17.5500  17.5733  17.7084

          k = 0.2550 0.1253 0.0000 (  6634 PWs)   bands (ev):

   -29.9325 -14.7175 -14.6898 -10.5328 -10.4453 -10.1477  -7.0410  -6.6727
    -6.5051  -6.1696  -6.1027  -5.7861  -5.5717  -0.2139   0.0385   0.0461
     0.1321   0.5483   0.5559   4.7794   5.0053   5.4018   5.5302   5.6221
     5.9687   6.2523   6.4528   6.5954   6.6772   6.6900   6.8308   7.0444
     7.4721   7.5184   7.8388   7.8550   7.9747   7.9923   8.0194   8.2028
     8.5209   8.6553   8.7214   8.9399   8.9987   9.1445   9.2616   9.2787
     9.5814   9.6503   9.9931  10.3039  10.3163  10.6863  10.7107  14.3444
    14.7070  15.6703  16.1950  16.2734  16.4719  17.3847  17.3961  17.8417

          k = 0.2550 0.2505 0.0000 (  6638 PWs)   bands (ev):

   -29.9270 -14.6724 -14.6455 -10.4405 -10.4384 -10.3904  -6.7406  -6.5279
    -6.5137  -6.2658  -6.0437  -5.8117  -5.6803  -0.2718  -0.2228  -0.0199
     0.0477   0.4666   0.4766   4.4644   4.9183   5.3223   5.3436   5.3587
     5.4432   6.0675   6.1151   6.2368   6.3696   6.7609   6.8249   7.0264
     7.1874   7.4794   7.5295   7.7770   8.0269   8.1297   8.3328   8.4711
     8.5692   8.8875   9.0551   9.0842   9.1366   9.1913   9.4876   9.5173
     9.5253   9.6584  10.1906  10.3549  11.0079  11.2302  11.4216  14.3359
    15.0376  15.4440  16.2052  16.9545  16.9965  17.3081  17.5355  17.6798

          k = 0.2550 0.3758 0.0000 (  6636 PWs)   bands (ev):

   -29.9215 -14.6264 -14.6004 -10.6250 -10.4091 -10.3358  -6.6819  -6.4520
    -6.2916  -6.2331  -6.0358  -5.8447  -5.8258  -0.2964  -0.2909  -0.0680
     0.0427   0.2101   0.2669   4.0936   4.6421   4.7144   5.2403   5.3102
     5.3981   5.6911   5.8713   6.2918   6.3193   6.7794   6.7966   7.0024
     7.0130   7.2450   7.4115   7.8566   8.0396   8.2917   8.6047   8.6926
     8.7221   8.9447   9.1419   9.2558   9.3603   9.4677   9.5185   9.6437
     9.7704   9.7862  10.1594  10.2981  11.3778  11.5533  11.9272  14.1782
    15.0076  15.5318  16.7218  16.8005  17.3690  17.6081  17.7699  18.0186

          k = 0.2550-0.5011 0.0000 (  6644 PWs)   bands (ev):

   -29.9192 -14.6070 -14.5813 -10.7077 -10.4031 -10.2904  -6.7631  -6.2698
    -6.2164  -6.2023  -6.0334  -5.9388  -5.8615  -0.2085  -0.1542  -0.1468
    -0.1452   0.1206   0.1527   3.9392   4.4748   4.4970   5.2180   5.3382
     5.3855   5.5457   5.7804   6.2888   6.3182   6.7363   6.8291   6.9354
     7.0814   7.1104   7.3799   7.8905   8.0583   8.3108   8.6380   8.8760
     8.8948   8.9865   9.1711   9.2804   9.3246   9.4661   9.6326   9.8057
     9.8816   9.9024  10.0752  10.2062  11.4757  11.6344  12.0829  14.1020
    14.9729  15.5341  16.5657  17.2352  17.4855  17.8296  17.8654  18.1401

          k = 0.3826 0.0000 0.0000 (  6632 PWs)   bands (ev):

   -29.9279 -14.6710 -14.6484 -10.6976 -10.4488 -10.0186  -6.9182  -6.8515
    -6.7280  -6.0701  -6.0473  -5.9205  -5.5233  -0.2848   0.0859   0.3377
     0.4489   0.4693   0.4984   4.4963   4.6623   5.3925   5.8030   5.8694
     5.9188   6.4039   6.5337   6.5454   6.5839   6.6992   6.7053   6.8186
     7.3858   7.4127   7.5897   7.7115   7.9289   8.1394   8.1520   8.1714
     8.2334   8.5426   8.6924   8.9086   9.0527   9.1819   9.4418   9.4789
     9.6472   9.6707   9.6795   9.7634   9.9029  10.2832  10.5925  14.6197
    15.2971  15.8031  16.5896  16.8387  17.2373  17.6110  17.6777  17.6920

          k = 0.3826 0.1253 0.0000 (  6626 PWs)   bands (ev):

   -29.9256 -14.6548 -14.6324 -10.6894 -10.4133 -10.1352  -6.8159  -6.7438
    -6.6886  -6.1472  -6.0145  -5.8970  -5.5435  -0.2854   0.0589   0.1041
     0.1760   0.4553   0.4692   4.3849   4.6379   5.3772   5.6598   5.6975
     5.9604   6.2074   6.2432   6.2500   6.3651   6.5896   6.8712   6.9473
     7.3388   7.4180   7.7528   7.8078   7.8648   8.1311   8.1533   8.3002
     8.3652   8.5809   8.8740   9.0109   9.0789   9.2569   9.4888   9.4943
     9.5457   9.5908   9.7894  10.2228  10.3936  10.7193  10.8245  14.4845
    15.3323  15.5467  16.6551  16.9572  17.0838  17.5431  17.7224  17.9902

          k = 0.3826 0.2505 0.0000 (  6636 PWs)   bands (ev):

   -29.9202 -14.6154 -14.5932 -10.6697 -10.3839 -10.3230  -6.6147  -6.5925
    -6.4395  -6.3346  -5.9386  -5.8396  -5.6192  -0.3438  -0.3147  -0.1248
     0.0623   0.1802   0.2193   4.0361   4.5156   5.2570   5.3903   5.3906
     5.4377   5.6409   5.9414   6.2580   6.2803   6.8008   6.8788   7.0083
     7.1729   7.2225   7.4461   7.8929   8.2348   8.2738   8.5807   8.5981
     8.7294   8.8048   9.1163   9.2038   9.3613   9.4514   9.4864   9.5697
     9.6193   9.6929  10.1031  10.2509  11.3087  11.4360  11.5326  14.0117
    14.9579  15.7078  16.7541  17.2304  17.2897  17.4398  17.8249  17.9654

          k = 0.3826 0.3758 0.0000 (  6661 PWs)   bands (ev):

   -29.9147 -14.5752 -14.5532 -10.6505 -10.5994 -10.2252  -6.5660  -6.4524
    -6.3433  -6.1374  -5.8847  -5.7834  -5.7723  -0.5610  -0.5009  -0.2553
    -0.2351  -0.0625   0.1076   3.6366   4.2606   4.7494   5.1240   5.1774
     5.2390   5.3965   5.8306   6.2917   6.4658   6.7093   6.8465   6.9983
     7.0495   7.1152   7.2414   7.9850   8.3613   8.6173   8.9016   8.9936
     9.0013   9.2046   9.3116   9.4009   9.4019   9.4394   9.7342   9.7756
     9.8250   9.9198  10.1107  10.3774  11.8328  11.9821  12.0929  13.5271
    14.7165  15.8616  16.6437  17.1311  17.3047  17.5139  17.6766  17.8895

          k = 0.3826-0.5011 0.0000 (  6652 PWs)   bands (ev):

   -29.9125 -14.5583 -14.5365 -10.6835 -10.6406 -10.1820  -6.6365  -6.4197
    -6.0927  -6.0487  -5.9054  -5.9014  -5.7608  -0.5637  -0.5494  -0.5050
    -0.3168  -0.1451   0.1104   3.4689   4.1215   4.5060   5.0847   5.1027
     5.1338   5.3889   5.8013   6.3050   6.5429   6.6439   6.8030   6.9312
     7.0416   7.0625   7.2374   8.0056   8.3963   8.7869   9.0443   9.0524
     9.1818   9.3259   9.3353   9.4446   9.5200   9.5662   9.7602   9.8874
     9.8991   9.9384  10.2548  10.3551  11.9357  12.1931  12.2850  13.3427
    14.6651  15.8886  16.3440  17.1423  17.3026  17.4807  17.7861  18.0160

          k =-0.5101 0.0000 0.0000 (  6624 PWs)   bands (ev):

   -29.9250 -14.6434 -14.6233 -10.7906 -10.3948 -10.0147  -6.9270  -6.8276
    -6.7889  -6.0436  -6.0238  -5.9801  -5.5125  -0.3121   0.1103   0.3316
     0.4417   0.5208   0.5488   4.3529   4.5176   5.3983   5.8120   5.9294
     5.9691   6.3563   6.3849   6.4814   6.5003   6.5181   6.5529   6.9848
     7.1555   7.3245   7.5736   7.7081   7.9389   8.1429   8.1503   8.2236
     8.2683   8.5520   8.6106   9.0543   9.0950   9.2320   9.3956   9.4787
     9.6052   9.6576   9.7061   9.8706   9.8709  10.2983  10.5395  14.7483
    15.6492  15.7758  16.7012  17.3420  17.5492  17.6298  17.6309  17.7436

          k =-0.5101 0.1253 0.0000 (  6626 PWs)   bands (ev):

   -29.9228 -14.6283 -14.6081 -10.7818 -10.3601 -10.1300  -6.8515  -6.7845
    -6.6468  -6.1196  -5.9903  -5.9444  -5.5261  -0.3074   0.0991   0.1658
     0.3067   0.3108   0.3502   4.2303   4.4826   5.3710   5.7015   5.8759
     5.9603   5.9980   6.0444   6.1767   6.3340   6.5954   6.7451   7.0647
     7.2790   7.3753   7.7145   7.7254   7.8787   8.1472   8.1830   8.3066
     8.4478   8.6090   8.8114   9.0899   9.1422   9.2611   9.4113   9.5282
     9.6182   9.6249   9.8446  10.1786  10.3943  10.7159  10.8020  14.5028
    15.3694  15.7277  16.9684  17.0543  17.6061  17.6561  17.7853  18.0383

          k =-0.5101 0.2505 0.0000 (  6642 PWs)   bands (ev):

   -29.9173 -14.5912 -14.5711 -10.7608 -10.3767 -10.2717  -6.6764  -6.6397
    -6.3345  -6.3066  -5.9072  -5.8546  -5.5878  -0.3216  -0.2168  -0.1245
    -0.1223   0.0176   0.1236   3.8642   4.3385   5.2453   5.3911   5.4519
     5.4571   5.4617   5.8362   6.2408   6.2456   6.8878   6.9138   6.9792
     7.1414   7.1894   7.3951   7.9434   8.2489   8.4255   8.6025   8.6583
     8.7741   8.9120   9.1716   9.2638   9.2932   9.4855   9.5393   9.5607
     9.7699   9.8831   9.8880  10.1565  11.3649  11.4519  11.6024  13.8485
    14.8722  15.9243  17.1366  17.2186  17.4044  17.4400  17.8670  17.9697

          k =-0.5101 0.3758 0.0000 (  6656 PWs)   bands (ev):

   -29.9119 -14.5535 -14.5334 -10.7397 -10.5914 -10.1760  -6.5620  -6.4995
    -6.3370  -6.0528  -5.8233  -5.7588  -5.7368  -0.5817  -0.5538  -0.5028
    -0.2823  -0.2460   0.1181   3.4483   4.0765   4.7651   5.0709   5.0945
     5.1675   5.4017   5.8182   6.2481   6.4640   6.8151   6.9011   6.9312
     6.9339   7.1467   7.2218   8.0222   8.5461   8.7197   8.9982   9.0573
     9.1095   9.2890   9.3702   9.4626   9.4675   9.6791   9.7455   9.7633
     9.7768   9.9463  10.2505  10.2757  11.7979  12.1713  12.2742  13.2690
    14.6166  16.0766  16.5956  17.0100  17.2143  17.5125  17.7524  17.8866

          k =-0.5101-0.5011 0.0000 (  6672 PWs)   bands (ev):

   -29.9096 -14.5377 -14.5177 -10.7310 -10.6735 -10.1339  -6.5816  -6.5125
    -6.0571  -5.9638  -5.9428  -5.7769  -5.7170  -0.7295  -0.6885  -0.6513
    -0.3469  -0.2982   0.1207   3.2730   3.9383   4.5212   4.9403   5.0488
     5.1037   5.3973   5.8113   6.2598   6.5657   6.7475   6.8318   6.8626
     6.8984   7.0715   7.2685   8.0405   8.5934   9.0060   9.0749   9.1444
     9.1659   9.4365   9.5114   9.5534   9.6315   9.6875   9.7018   9.8644
     9.9118   9.9346  10.4009  10.4716  11.8749  12.4384  12.5269  13.0503
    14.5641  16.1127  16.2656  16.9741  17.1174  17.1674  17.6000  18.0976

     the Fermi energy is    10.5736 ev

!    total energy              =    -696.89740159 Ry
     Harris-Foulkes estimate   =    -696.89740159 Ry
     estimated scf accuracy    <          6.7E-10 Ry

     The total energy is the sum of the following terms:

     one-electron contribution =    -190.45729504 Ry
     hartree contribution      =     182.24160620 Ry
     xc contribution           =    -149.16701496 Ry
     ewald contribution        =    -539.51194650 Ry
     smearing contrib. (-TS)   =      -0.00275128 Ry

     convergence has been achieved in  29 iterations

     Forces acting on atoms (cartesian axes, Ry/au):

     atom    1 type  2   force =     0.00000000    0.00000000   -0.00031485
     atom    2 type  2   force =     0.00000000    0.00000000    0.00031485
     atom    3 type  1   force =     0.00000000    0.00000000    0.00000000
     atom    4 type  4   force =     0.00000000    0.00000000   -0.00001182
     atom    5 type  4   force =     0.00000000    0.00000000    0.00001182
     atom    6 type  4   force =     0.00000000    0.00000000    0.00000000
     atom    7 type  3   force =     0.00000000    0.00000000    0.00000000
     atom    8 type  3   force =     0.00000000    0.00000000    0.00001770
     atom    9 type  3   force =     0.00000000    0.00000000   -0.00001770
     atom   10 type  3   force =     0.00000000    0.00000000    0.00001529
     atom   11 type  3   force =     0.00000000    0.00000000   -0.00001529
     atom   12 type  3   force =     0.00000000    0.00000000   -0.00005090
     atom   13 type  3   force =     0.00000000    0.00000000    0.00005090

     Total force =     0.000453     Total SCF correction =     0.000018


     Computing stress (Cartesian axis) and pressure

          total   stress  (Ry/bohr**3)                   (kbar)     P=       -0.67
  -0.00000421   0.00000000   0.00000000           -0.62        0.00        0.00
   0.00000000  -0.00000402   0.00000000            0.00       -0.59        0.00
   0.00000000   0.00000000  -0.00000551            0.00        0.00       -0.81


     Writing output data file /n/holyscratch01/hoffman_lab/ruizhe/outdir/YBCO_ecut50.save/
 
     init_run     :      5.34s CPU      5.66s WALL (       2 calls)
     electrons    :   1383.39s CPU   1502.30s WALL (      24 calls)
     update_pot   :     48.45s CPU     48.65s WALL (      22 calls)
     forces       :     37.28s CPU     39.60s WALL (      24 calls)
     stress       :     96.43s CPU    103.13s WALL (      24 calls)

     Called by init_run:
     wfcinit      :      1.45s CPU      1.50s WALL (       2 calls)
     potinit      :      1.20s CPU      1.20s WALL (       2 calls)
     hinit0       :      2.21s CPU      2.25s WALL (       2 calls)

     Called by electrons:
     c_bands      :   1036.65s CPU   1058.99s WALL (     493 calls)
     sum_band     :    242.07s CPU    294.08s WALL (     493 calls)
     v_of_rho     :      1.99s CPU      2.02s WALL (     517 calls)
     newd         :    104.42s CPU    149.91s WALL (     517 calls)
     mix_rho      :      1.99s CPU      2.01s WALL (     493 calls)

     Called by c_bands:
     init_us_2    :     11.80s CPU     12.78s WALL (   25900 calls)
     cegterg      :    980.07s CPU    997.70s WALL (   12325 calls)

     Called by sum_band:
     sum_band:bec :      0.70s CPU      0.71s WALL (   12325 calls)
     addusdens    :    101.54s CPU    150.02s WALL (     493 calls)

     Called by *egterg:
     h_psi        :    481.34s CPU    496.36s WALL (   41105 calls)
     s_psi        :     28.61s CPU     28.85s WALL (   41105 calls)
     g_psi        :      2.25s CPU      2.27s WALL (   28730 calls)
     cdiaghg      :    313.35s CPU    314.85s WALL (   40505 calls)

     Called by h_psi:
     h_psi:calbec :     38.78s CPU     39.50s WALL (   41105 calls)
     vloc_psi     :    409.64s CPU    423.65s WALL (   41105 calls)
     add_vuspsi   :     30.16s CPU     30.41s WALL (   41105 calls)

     General routines
     calbec       :     57.65s CPU     58.69s WALL (   56430 calls)
     fft          :      5.68s CPU      5.78s WALL (    3268 calls)
     ffts         :      0.25s CPU      0.25s WALL (    1010 calls)
     fftw         :    452.55s CPU    467.71s WALL ( 4466222 calls)
     interpolate  :      0.73s CPU      0.74s WALL (     517 calls)
 
     Parallel routines
     fft_scatt_xy :     64.37s CPU     66.63s WALL ( 4470500 calls)
     fft_scatt_yz :    262.96s CPU    271.85s WALL ( 4470500 calls)
 
     PWSCF        :  26m17.79s CPU  28m28.58s WALL

 
   This run was terminated on:  11:26:16  13Apr2021            

=------------------------------------------------------------------------------=
   JOB DONE.
=------------------------------------------------------------------------------=
