
     Program PWSCF v.6.5 starts on 13Apr2021 at 23:41: 3 

     This program is part of the open-source Quantum ESPRESSO suite
     for quantum simulation of materials; please cite
         "P. Giannozzi et al., J. Phys.:Condens. Matter 21 395502 (2009);
         "P. Giannozzi et al., J. Phys.:Condens. Matter 29 465901 (2017);
          URL http://www.quantum-espresso.org", 
     in publications or presentations arising from this work. More details at
     http://www.quantum-espresso.org/quote

     Parallel version (MPI), running on    10 processors

     MPI processes distributed on     2 nodes
     R & G space division:  proc/nbgrp/npool/nimage =      10
     Reading input from YBCO_ecut100.pwi

     Current dimensions of program PWSCF are:
     Max number of different atomic species (ntypx) = 10
     Max number of k-points (npk) =  40000
     Max angular momentum in pseudopotentials (lmaxx) =  3
               file Y.pz-spn-rrkjus_psl.1.0.0.UPF: wavefunction(s)  4S renormalized
               file Ba.pz-spn-rrkjus_psl.1.0.0.UPF: wavefunction(s)  5S 6S renormalized
               file O.pz-rrkjus.UPF: wavefunction(s)  2S renormalized
               file Cu.pz-d-rrkjus.UPF: wavefunction(s)  3D renormalized

     Subspace diagonalization in iterative solution of the eigenvalue problem:
     one sub-group per band group will be used
     scalapack distributed-memory algorithm (size of sub-group:  3*  3 procs)

     Message from routine setup:
     using ibrav=0 with symmetry is DISCOURAGED, use correct ibrav instead
 
     Parallelization info
     --------------------
     sticks:   dense  smooth     PW     G-vecs:    dense   smooth      PW
     Min         514     171     48                84520    16259    2428
     Max         515     172     49                84525    16266    2437
     Sum        5145    1717    485               845223   162615   24327
 


     bravais-lattice index     =            0
     lattice parameter (alat)  =       7.2654  a.u.
     unit-cell volume          =    1204.4104 (a.u.)^3
     number of atoms/cell      =           13
     number of atomic types    =            4
     number of electrons       =       106.00
     number of Kohn-Sham states=           64
     kinetic-energy cutoff     =     100.0000  Ry
     charge density cutoff     =    1200.0000  Ry
     convergence threshold     =      1.0E-06
     mixing beta               =       0.5000
     number of iterations used =            8  plain     mixing
     Exchange-correlation= SLA PZ NOGX NOGC
                           (   1   1   0   0   0   0   0)
     nstep                     =          300


     celldm(1)=   7.265373  celldm(2)=   0.000000  celldm(3)=   0.000000
     celldm(4)=   0.000000  celldm(5)=   0.000000  celldm(6)=   0.000000

     crystal axes: (cart. coord. in units of alat)
               a(1) = (   1.000000   0.000000   0.000000 )  
               a(2) = (   0.000000   1.021193   0.000000 )  
               a(3) = (   0.000000   0.000000   3.075338 )  

     reciprocal axes: (cart. coord. in units 2 pi/alat)
               b(1) = (  1.000000  0.000000  0.000000 )  
               b(2) = (  0.000000  0.979247  0.000000 )  
               b(3) = (  0.000000  0.000000  0.325168 )  


     PseudoPot. # 1 for Y  read from file:
     ./pseudo/Y.pz-spn-rrkjus_psl.1.0.0.UPF
     MD5 check sum: ea98a87c201a6887fec0b907919e69e1
     Pseudo is Ultrasoft + core correction, Zval = 11.0
     Generated using "atomic" code by A. Dal Corso v.6.2.2
     Using radial grid of 1223 points,  6 beta functions with: 
                l(1) =   0
                l(2) =   0
                l(3) =   1
                l(4) =   1
                l(5) =   2
                l(6) =   2
     Q(r) pseudized with 0 coefficients 


     PseudoPot. # 2 for Ba read from file:
     ./pseudo/Ba.pz-spn-rrkjus_psl.1.0.0.UPF
     MD5 check sum: 687b47877062a240b7e905a3e0e5c78b
     Pseudo is Ultrasoft + core correction, Zval = 10.0
     Generated using "atomic" code by A. Dal Corso v.6.2.2
     Using radial grid of 1251 points,  7 beta functions with: 
                l(1) =   0
                l(2) =   0
                l(3) =   0
                l(4) =   1
                l(5) =   1
                l(6) =   2
                l(7) =   2
     Q(r) pseudized with 0 coefficients 


     PseudoPot. # 3 for O  read from file:
     ./pseudo/O.pz-rrkjus.UPF
     MD5 check sum: 039abfcbbabbdfc0eb99fd57dcb11de2
     Pseudo is Ultrasoft, Zval =  6.0
     Generated by new atomic code, or converted to UPF format
     Using radial grid of 1269 points,  4 beta functions with: 
                l(1) =   0
                l(2) =   0
                l(3) =   1
                l(4) =   1
     Q(r) pseudized with 0 coefficients 


     PseudoPot. # 4 for Cu read from file:
     ./pseudo/Cu.pz-d-rrkjus.UPF
     MD5 check sum: 268b017640135c8b13c10cec7c6cb709
     Pseudo is Ultrasoft, Zval = 11.0
     Generated by new atomic code, or converted to UPF format
     Using radial grid of  899 points,  3 beta functions with: 
                l(1) =   2
                l(2) =   2
                l(3) =   1
     Q(r) pseudized with 0 coefficients 


     atomic species   valence    mass     pseudopotential
        Y             11.00    88.90585     Y ( 1.00)
        Ba            10.00   137.32700     Ba( 1.00)
        O              6.00    15.99900     O ( 1.00)
        Cu            11.00    63.55000     Cu( 1.00)

      8 Sym. Ops., with inversion, found



   Cartesian axes

     site n.     atom                  positions (alat units)
         1           Ba  tau(   1) = (   0.4999997   0.5105967   2.5199052  )
         2           Ba  tau(   2) = (   0.4999997   0.5105967   0.5554339  )
         3           Y   tau(   3) = (   0.4999997   0.5105967   1.5376696  )
         4           Cu  tau(   4) = (   0.0000000   0.0000000   1.9887540  )
         5           Cu  tau(   5) = (   0.0000000   0.0000000   1.0865848  )
         6           Cu  tau(   6) = (   0.0000000   0.0000000   0.0000000  )
         7           O   tau(   7) = (   0.0000000   0.5105967   0.0000000  )
         8           O   tau(   8) = (   0.4999997   0.0000000   1.9087183  )
         9           O   tau(   9) = (   0.4999997   0.0000000   1.1666205  )
        10           O   tau(  10) = (   0.0000000   0.5105967   1.9117875  )
        11           O   tau(  11) = (   0.0000000   0.5105967   1.1635516  )
        12           O   tau(  12) = (   0.0000000   0.0000000   2.5858066  )
        13           O   tau(  13) = (   0.0000000   0.0000000   0.4895325  )

     number of k points=    25  Gaussian smearing, width (Ry)=  0.0100
                       cart. coord. in units 2pi/alat
        k(    1) = (   0.0000000   0.0000000   0.0000000), wk =   0.0312500
        k(    2) = (   0.0000000   0.1224059   0.0000000), wk =   0.0625000
        k(    3) = (   0.0000000   0.2448117   0.0000000), wk =   0.0625000
        k(    4) = (   0.0000000   0.3672176   0.0000000), wk =   0.0625000
        k(    5) = (   0.0000000  -0.4896234   0.0000000), wk =   0.0312500
        k(    6) = (   0.1250000   0.0000000   0.0000000), wk =   0.0625000
        k(    7) = (   0.1250000   0.1224059   0.0000000), wk =   0.1250000
        k(    8) = (   0.1250000   0.2448117   0.0000000), wk =   0.1250000
        k(    9) = (   0.1250000   0.3672176   0.0000000), wk =   0.1250000
        k(   10) = (   0.1250000  -0.4896234   0.0000000), wk =   0.0625000
        k(   11) = (   0.2500000   0.0000000   0.0000000), wk =   0.0625000
        k(   12) = (   0.2500000   0.1224059   0.0000000), wk =   0.1250000
        k(   13) = (   0.2500000   0.2448117   0.0000000), wk =   0.1250000
        k(   14) = (   0.2500000   0.3672176   0.0000000), wk =   0.1250000
        k(   15) = (   0.2500000  -0.4896234   0.0000000), wk =   0.0625000
        k(   16) = (   0.3750000   0.0000000   0.0000000), wk =   0.0625000
        k(   17) = (   0.3750000   0.1224059   0.0000000), wk =   0.1250000
        k(   18) = (   0.3750000   0.2448117   0.0000000), wk =   0.1250000
        k(   19) = (   0.3750000   0.3672176   0.0000000), wk =   0.1250000
        k(   20) = (   0.3750000  -0.4896234   0.0000000), wk =   0.0625000
        k(   21) = (  -0.5000000   0.0000000   0.0000000), wk =   0.0312500
        k(   22) = (  -0.5000000   0.1224059   0.0000000), wk =   0.0625000
        k(   23) = (  -0.5000000   0.2448117   0.0000000), wk =   0.0625000
        k(   24) = (  -0.5000000   0.3672176   0.0000000), wk =   0.0625000
        k(   25) = (  -0.5000000  -0.4896234   0.0000000), wk =   0.0312500

     Dense  grid:   845223 G-vectors     FFT dimensions: (  81,  81, 250)

     Smooth grid:   162615 G-vectors     FFT dimensions: (  48,  48, 144)

     Estimated max dynamical RAM per process >     457.00 MB

     Estimated total dynamical RAM >       4.46 GB

     Initial potential from superposition of free atoms

     starting charge  105.96668, renormalised to  106.00000
     Starting wfcs are   69 randomized atomic wfcs

     total cpu time spent up to now is        8.5 secs

     Self-consistent Calculation

     iteration #  1     ecut=   100.00 Ry     beta= 0.50
     Davidson diagonalization with overlap
     ethr =  1.00E-02,  avg # of iterations =  5.0

     total cpu time spent up to now is       16.7 secs

     total energy              =    -693.31592790 Ry
     Harris-Foulkes estimate   =    -698.55674682 Ry
     estimated scf accuracy    <       7.75608462 Ry

     iteration #  2     ecut=   100.00 Ry     beta= 0.50
     Davidson diagonalization with overlap
     ethr =  7.32E-03,  avg # of iterations =  2.4

     negative rho (up, down):  1.751E-01 0.000E+00

     total cpu time spent up to now is       23.8 secs

     total energy              =    -693.67872292 Ry
     Harris-Foulkes estimate   =    -699.67517152 Ry
     estimated scf accuracy    <     736.18042088 Ry

     iteration #  3     ecut=   100.00 Ry     beta= 0.50
     Davidson diagonalization with overlap
     ethr =  7.32E-03,  avg # of iterations =  3.6

     negative rho (up, down):  3.500E-01 0.000E+00

     total cpu time spent up to now is       32.1 secs

     total energy              =    -682.19026677 Ry
     Harris-Foulkes estimate   =    -713.54342579 Ry
     estimated scf accuracy    <   27533.50279159 Ry

     iteration #  4     ecut=   100.00 Ry     beta= 0.50
     Davidson diagonalization with overlap
     ethr =  7.32E-03,  avg # of iterations =  4.0

     total cpu time spent up to now is       41.1 secs

     total energy              =    -671.14718420 Ry
     Harris-Foulkes estimate   =    -730.10110535 Ry
     estimated scf accuracy    <   48016.81493696 Ry

     iteration #  5     ecut=   100.00 Ry     beta= 0.50
     Davidson diagonalization with overlap
     ethr =  7.32E-03,  avg # of iterations =  3.1

     negative rho (up, down):  5.075E-03 0.000E+00

     total cpu time spent up to now is       49.1 secs

     total energy              =    -695.76994391 Ry
     Harris-Foulkes estimate   =    -698.59485431 Ry
     estimated scf accuracy    <      57.37672220 Ry

     iteration #  6     ecut=   100.00 Ry     beta= 0.50
     Davidson diagonalization with overlap
     ethr =  7.32E-03,  avg # of iterations =  4.0

     total cpu time spent up to now is       56.4 secs

     total energy              =    -693.77625724 Ry
     Harris-Foulkes estimate   =    -699.78528365 Ry
     estimated scf accuracy    <    1159.12342885 Ry

     iteration #  7     ecut=   100.00 Ry     beta= 0.50
     Davidson diagonalization with overlap
     ethr =  7.32E-03,  avg # of iterations =  4.0

     total cpu time spent up to now is       64.2 secs

     total energy              =    -696.89804158 Ry
     Harris-Foulkes estimate   =    -696.94515739 Ry
     estimated scf accuracy    <       6.66747478 Ry

     iteration #  8     ecut=   100.00 Ry     beta= 0.50
     Davidson diagonalization with overlap
     ethr =  6.29E-03,  avg # of iterations =  1.2

     total cpu time spent up to now is       69.8 secs

     total energy              =    -696.89483277 Ry
     Harris-Foulkes estimate   =    -696.91287121 Ry
     estimated scf accuracy    <       4.76687372 Ry

     iteration #  9     ecut=   100.00 Ry     beta= 0.50
     Davidson diagonalization with overlap
     ethr =  4.50E-03,  avg # of iterations =  1.0

     total cpu time spent up to now is       75.5 secs

     total energy              =    -696.85149611 Ry
     Harris-Foulkes estimate   =    -696.90007311 Ry
     estimated scf accuracy    <       2.78725213 Ry

     iteration # 10     ecut=   100.00 Ry     beta= 0.50
     Davidson diagonalization with overlap
     ethr =  2.63E-03,  avg # of iterations =  1.1

     total cpu time spent up to now is       81.1 secs

     total energy              =    -696.86883779 Ry
     Harris-Foulkes estimate   =    -696.87108191 Ry
     estimated scf accuracy    <       0.89323604 Ry

     iteration # 11     ecut=   100.00 Ry     beta= 0.50
     Davidson diagonalization with overlap
     ethr =  8.43E-04,  avg # of iterations =  1.6

     total cpu time spent up to now is       86.9 secs

     total energy              =    -696.87029422 Ry
     Harris-Foulkes estimate   =    -696.87151648 Ry
     estimated scf accuracy    <       0.73826004 Ry

     iteration # 12     ecut=   100.00 Ry     beta= 0.50
     Davidson diagonalization with overlap
     ethr =  6.96E-04,  avg # of iterations =  1.2

     total cpu time spent up to now is       92.5 secs

     total energy              =    -696.86950649 Ry
     Harris-Foulkes estimate   =    -696.87079984 Ry
     estimated scf accuracy    <       0.36980446 Ry

     iteration # 13     ecut=   100.00 Ry     beta= 0.50
     Davidson diagonalization with overlap
     ethr =  3.49E-04,  avg # of iterations =  1.3

     total cpu time spent up to now is       98.2 secs

     total energy              =    -696.86911750 Ry
     Harris-Foulkes estimate   =    -696.87084903 Ry
     estimated scf accuracy    <       0.42055118 Ry

     iteration # 14     ecut=   100.00 Ry     beta= 0.50
     Davidson diagonalization with overlap
     ethr =  3.49E-04,  avg # of iterations =  2.0

     total cpu time spent up to now is      104.2 secs

     total energy              =    -696.86332173 Ry
     Harris-Foulkes estimate   =    -696.87781280 Ry
     estimated scf accuracy    <      11.36930482 Ry

     iteration # 15     ecut=   100.00 Ry     beta= 0.50
     Davidson diagonalization with overlap
     ethr =  3.49E-04,  avg # of iterations =  2.0

     total cpu time spent up to now is      110.2 secs

     total energy              =    -696.87028281 Ry
     Harris-Foulkes estimate   =    -696.87045045 Ry
     estimated scf accuracy    <       0.03659127 Ry

     iteration # 16     ecut=   100.00 Ry     beta= 0.50
     Davidson diagonalization with overlap
     ethr =  3.45E-05,  avg # of iterations =  5.9

     total cpu time spent up to now is      117.6 secs

     total energy              =    -696.87037763 Ry
     Harris-Foulkes estimate   =    -696.87044387 Ry
     estimated scf accuracy    <       0.01585036 Ry

     iteration # 17     ecut=   100.00 Ry     beta= 0.50
     Davidson diagonalization with overlap
     ethr =  1.50E-05,  avg # of iterations =  2.8

     total cpu time spent up to now is      123.8 secs

     total energy              =    -696.87038476 Ry
     Harris-Foulkes estimate   =    -696.87040291 Ry
     estimated scf accuracy    <       0.00857170 Ry

     iteration # 18     ecut=   100.00 Ry     beta= 0.50
     Davidson diagonalization with overlap
     ethr =  8.09E-06,  avg # of iterations =  1.3

     total cpu time spent up to now is      129.4 secs

     total energy              =    -696.87039259 Ry
     Harris-Foulkes estimate   =    -696.87039959 Ry
     estimated scf accuracy    <       0.00043732 Ry

     iteration # 19     ecut=   100.00 Ry     beta= 0.50
     Davidson diagonalization with overlap
     ethr =  4.13E-07,  avg # of iterations =  3.1

     total cpu time spent up to now is      135.7 secs

     total energy              =    -696.87039693 Ry
     Harris-Foulkes estimate   =    -696.87039911 Ry
     estimated scf accuracy    <       0.00009597 Ry

     iteration # 20     ecut=   100.00 Ry     beta= 0.50
     Davidson diagonalization with overlap
     ethr =  9.05E-08,  avg # of iterations =  1.1

     total cpu time spent up to now is      141.3 secs

     total energy              =    -696.87039826 Ry
     Harris-Foulkes estimate   =    -696.87039851 Ry
     estimated scf accuracy    <       0.00001458 Ry

     iteration # 21     ecut=   100.00 Ry     beta= 0.50
     Davidson diagonalization with overlap
     ethr =  1.38E-08,  avg # of iterations =  2.3

     total cpu time spent up to now is      147.4 secs

     total energy              =    -696.87039818 Ry
     Harris-Foulkes estimate   =    -696.87039873 Ry
     estimated scf accuracy    <       0.00026889 Ry

     iteration # 22     ecut=   100.00 Ry     beta= 0.50
     Davidson diagonalization with overlap
     ethr =  1.38E-08,  avg # of iterations =  1.5

     total cpu time spent up to now is      153.1 secs

     total energy              =    -696.87039806 Ry
     Harris-Foulkes estimate   =    -696.87039844 Ry
     estimated scf accuracy    <       0.00008185 Ry

     iteration # 23     ecut=   100.00 Ry     beta= 0.50
     Davidson diagonalization with overlap
     ethr =  1.38E-08,  avg # of iterations =  2.2

     total cpu time spent up to now is      159.1 secs

     total energy              =    -696.87039832 Ry
     Harris-Foulkes estimate   =    -696.87039840 Ry
     estimated scf accuracy    <       0.00009094 Ry

     iteration # 24     ecut=   100.00 Ry     beta= 0.50
     Davidson diagonalization with overlap
     ethr =  1.38E-08,  avg # of iterations =  1.0

     total cpu time spent up to now is      164.7 secs

     total energy              =    -696.87039830 Ry
     Harris-Foulkes estimate   =    -696.87039836 Ry
     estimated scf accuracy    <       0.00002235 Ry

     iteration # 25     ecut=   100.00 Ry     beta= 0.50
     Davidson diagonalization with overlap
     ethr =  1.38E-08,  avg # of iterations =  1.0

     total cpu time spent up to now is      170.3 secs

     total energy              =    -696.87039831 Ry
     Harris-Foulkes estimate   =    -696.87039832 Ry
     estimated scf accuracy    <       0.00000389 Ry

     iteration # 26     ecut=   100.00 Ry     beta= 0.50
     Davidson diagonalization with overlap
     ethr =  3.67E-09,  avg # of iterations =  1.0

     total cpu time spent up to now is      175.8 secs

     End of self-consistent calculation

          k = 0.0000 0.0000 0.0000 ( 20383 PWs)   bands (ev):

   -31.3914 -16.1983 -16.1748 -11.8908 -11.4419 -11.4214  -8.4002  -7.5025
    -7.4716  -7.2124  -6.9333  -6.5349  -6.4562  -1.3818  -1.3379  -1.1674
    -1.1406  -1.0270  -0.9802   4.5779   4.6208   4.6299   4.7968   4.8765
     4.9281   5.7522   5.8765   5.9310   5.9953   6.2170   6.5709   6.5867
     6.6039   6.7231   6.7369   6.7812   6.8978   6.9828   7.0603   7.0924
     7.3875   7.4941   7.6511   7.8006   7.8384   7.8418   8.0613   8.0993
     8.4653   8.5164   8.6712   8.8572   8.8772   9.0228   9.0396  11.9459
    12.6580  13.4677  13.5447  14.3017  14.5991  15.0607  15.3367  15.6565

          k = 0.0000 0.1224 0.0000 ( 20357 PWs)   bands (ev):

   -31.3898 -16.1833 -16.1602 -11.8633 -11.5246 -11.4190  -8.2948  -7.5198
    -7.4347  -7.1987  -6.9566  -6.5889  -6.5217  -1.3848  -1.3242  -1.1589
    -1.1199  -0.9985  -0.9507   4.4870   4.5366   4.6759   4.7295   4.8862
     4.9165   5.3405   5.7154   5.7971   6.0059   6.1735   6.3840   6.3937
     6.4724   6.5146   6.7421   6.7640   7.0086   7.0558   7.1091   7.1383
     7.5770   7.5795   7.6132   7.6615   7.8027   7.8903   8.1237   8.2049
     8.4486   8.5771   8.6666   8.7807   8.9411   9.1231   9.2704  12.2836
    12.8236  13.7767  13.7817  14.4338  14.5752  15.2915  15.5359  15.7626

          k = 0.0000 0.2448 0.0000 ( 20376 PWs)   bands (ev):

   -31.3860 -16.1467 -16.1245 -11.7944 -11.7070 -11.4134  -8.0414  -7.5913
    -7.3455  -7.1784  -6.9859  -6.7153  -6.6793  -1.3774  -1.2895  -1.1397
    -1.0804  -0.9277  -0.8772   4.1390   4.2930   4.4672   4.6665   4.8099
     4.9189   5.0692   5.3240   5.7499   5.9866   6.0184   6.0680   6.0780
     6.2245   6.3802   6.7354   6.7504   6.8616   6.8724   7.0848   7.2169
     7.4234   7.7420   7.7785   7.8179   7.9742   7.9929   8.1388   8.3341
     8.4009   8.5848   8.6146   8.7350   8.8378   9.2545  10.0795  13.0773
    13.2142  14.3754  14.5202  14.5819  14.6457  15.5904  15.7427  15.9540

          k = 0.0000 0.3672 0.0000 ( 20392 PWs)   bands (ev):

   -31.3821 -16.1094 -16.0882 -11.8707 -11.7216 -11.4077  -7.7608  -7.6995
    -7.3105  -7.1314  -6.9816  -6.8497  -6.8376  -1.3515  -1.2533  -1.1226
    -1.0540  -0.8540  -0.8006   3.7458   3.9395   4.0200   4.6072   4.9734
     5.0070   5.0165   5.1584   5.6855   5.7505   5.7961   5.9316   5.9557
     6.0152   6.2875   6.4620   6.5659   6.7666   6.9092   7.0065   7.2902
     7.5013   7.6928   7.8244   7.8517   7.8985   8.1334   8.3954   8.4551
     8.5650   8.5754   8.5913   8.6553   8.9407   9.2277  10.6662  13.5326
    14.0266  14.4686  14.5576  15.1857  15.4082  15.4739  15.5565  16.2759

          k = 0.0000-0.4896 0.0000 ( 20372 PWs)   bands (ev):

   -31.3806 -16.0937 -16.0729 -11.9341 -11.6902 -11.4054  -7.7525  -7.6004
    -7.3709  -7.0255  -6.9785  -6.9724  -6.8876  -1.3350  -1.2380  -1.1162
    -1.0472  -0.8225  -0.7678   3.5570   3.7847   3.9035   4.5921   4.8887
     5.0081   5.1604   5.1978   5.4573   5.6821   5.8432   5.8700   5.9409
     5.9415   6.2123   6.2514   6.5466   6.7479   6.8183   7.0924   7.3067
     7.4068   7.8197   7.8302   7.8721   7.9125   8.1101   8.4223   8.5025
     8.5435   8.5621   8.6678   8.7764   9.0623   9.0888  10.8629  13.7658
    14.1377  14.4483  15.0255  15.2029  15.2787  15.5428  15.8665  16.2795

          k = 0.1250 0.0000 0.0000 ( 20379 PWs)   bands (ev):

   -31.3894 -16.1799 -16.1577 -11.8597 -11.5145 -11.4390  -8.2951  -7.4997
    -7.4947  -7.1830  -6.9844  -6.5858  -6.4677  -1.4111  -1.3694  -1.1335
    -1.1075  -1.0006  -0.9859   4.4420   4.5020   4.6647   4.6779   4.9398
     4.9398   5.8139   5.8487   5.8947   5.9330   6.1314   6.3968   6.4164
     6.4315   6.7248   6.7425   6.8180   6.9708   7.0940   7.0956   7.1547
     7.2878   7.5392   7.5555   7.6363   7.7367   7.8521   8.1080   8.1506
     8.4249   8.6852   8.7547   8.7594   8.8595   8.9081   9.0034  12.2649
    12.8322  13.7438  13.8613  14.5546  14.5587  15.3731  15.5786  15.7494

          k = 0.1250 0.1224 0.0000 ( 20352 PWs)   bands (ev):

   -31.3878 -16.1655 -16.1436 -11.8326 -11.5252 -11.5070  -8.1905  -7.5050
    -7.4591  -7.1682  -7.0120  -6.6251  -6.5230  -1.3964  -1.3687  -1.2115
    -1.2035  -0.9146  -0.9040   4.3623   4.4927   4.6204   4.6807   4.7599
     5.0111   5.3327   5.6664   5.8884   5.9482   6.0440   6.1549   6.1782
     6.4937   6.6621   6.7655   6.8133   6.9642   6.9987   7.0268   7.1803
     7.5348   7.6045   7.6166   7.7195   7.8056   7.8183   7.9288   8.2140
     8.4495   8.6258   8.8329   8.8796   9.0047   9.1646   9.3066  12.5341
    12.9639  14.0389  14.0862  14.4509  14.6513  15.5000  15.7028  15.7763

          k = 0.1250 0.2448 0.0000 ( 20349 PWs)   bands (ev):

   -31.3840 -16.1302 -16.1091 -11.7648 -11.7021 -11.5033  -7.9391  -7.5625
    -7.3538  -7.1478  -7.0482  -6.7194  -6.6623  -1.3757  -1.3630  -1.2684
    -1.2444  -0.8713  -0.8511   4.0421   4.2822   4.4747   4.6392   4.6726
     4.6962   5.1531   5.3167   5.6853   5.7485   5.8812   5.9893   6.0580
     6.1965   6.5165   6.8153   6.8399   6.8832   6.9656   6.9768   7.1465
     7.5289   7.6188   7.7585   7.8419   8.0263   8.1207   8.1648   8.2108
     8.3800   8.4702   8.8701   9.0508   9.1173   9.4398  10.0836  13.1533
    13.3395  14.2945  14.5487  14.7823  14.8338  15.7267  15.7442  15.9066

          k = 0.1250 0.3672 0.0000 ( 20362 PWs)   bands (ev):

   -31.3801 -16.0943 -16.0740 -11.8644 -11.6932 -11.4961  -7.6630  -7.6591
    -7.2712  -7.1233  -7.0445  -6.8275  -6.8133  -1.3563  -1.3207  -1.2575
    -1.2097  -0.9053  -0.8987   3.6857   3.8984   3.9955   4.5840   4.7179
     4.8145   5.0807   5.2129   5.3901   5.3984   5.8764   5.9323   5.9976
     6.0243   6.2850   6.7696   6.7778   6.8311   6.8714   7.1293   7.2110
     7.5083   7.6896   7.8669   7.9080   7.9861   8.2249   8.3149   8.4216
     8.4978   8.6253   8.7801   9.0479   9.2062   9.5209  10.6452  13.4825
    13.9491  14.1473  14.6690  15.3642  15.4203  15.6646  15.9084  16.3224

          k = 0.1250-0.4896 0.0000 ( 20350 PWs)   bands (ev):

   -31.3786 -16.0792 -16.0593 -11.9274 -11.6623 -11.4932  -7.7138  -7.4880
    -7.3284  -7.0344  -6.9983  -6.9779  -6.8524  -1.3323  -1.2982  -1.2337
    -1.1713  -0.9583  -0.9441   3.5253   3.7080   3.8711   4.5689   4.7387
     4.9137   5.0222   5.1860   5.2242   5.2776   5.8764   5.9062   5.9476
     6.0486   6.1804   6.7352   6.7501   6.8001   6.8294   7.1273   7.3183
     7.5897   7.6243   7.9001   7.9135   7.9500   8.2263   8.3885   8.4862
     8.6384   8.7298   8.7468   9.0486   9.2046   9.4993  10.8322  13.7087
    13.9072  14.0546  15.2072  15.2115  15.6072  15.7220  16.0204  16.4363

          k = 0.2500 0.0000 0.0000 ( 20325 PWs)   bands (ev):

   -31.3845 -16.1349 -16.1157 -11.7815 -11.7188 -11.4319  -8.0495  -7.5795
    -7.5115  -7.1237  -7.0757  -6.7057  -6.4840  -1.5132  -1.3357  -1.0492
    -1.0429  -1.0248  -0.9625   4.0396   4.1744   4.6220   4.7900   4.9823
     5.0285   5.7591   5.7623   5.7938   5.8163   5.9318   6.0663   6.0950
     6.4015   6.7001   6.7664   6.7816   6.8214   6.9268   7.1505   7.1989
     7.1994   7.4386   7.5497   7.8305   7.8639   7.8951   8.0092   8.2675
     8.4790   8.5558   8.5949   8.6692   8.7072   8.9098   9.2158  12.9233
    13.2896  14.4706  14.4783  14.5880  15.1090  15.7396  16.0504  16.0793

          k = 0.2500 0.1224 0.0000 ( 20362 PWs)   bands (ev):

   -31.3829 -16.1218 -16.1029 -11.7555 -11.7147 -11.5112  -7.9473  -7.5283
    -7.4991  -7.1189  -7.1043  -6.7126  -6.5186  -1.5133  -1.3294  -1.2869
    -1.2255  -0.9005  -0.8850   3.9586   4.1692   4.6093   4.6978   4.7711
     5.0836   5.3218   5.5619   5.6674   5.7350   5.8555   5.9309   6.0904
     6.4527   6.4908   6.8415   6.8684   6.9301   6.9594   7.0141   7.1513
     7.4026   7.5383   7.6032   7.8521   7.8979   8.0116   8.1117   8.1506
     8.4134   8.4448   8.7967   8.9993   9.0426   9.3872   9.4145  13.0378
    13.3775  14.2735  14.7487  14.7745  14.9830  15.6954  15.8222  16.0313

          k = 0.2500 0.2448 0.0000 ( 20323 PWs)   bands (ev):

   -31.3791 -16.0898 -16.0714 -11.7107 -11.6906 -11.6813  -7.7040  -7.5015
    -7.3866  -7.1925  -7.0714  -6.7308  -6.6192  -1.5451  -1.5048  -1.3631
    -1.3122  -0.9699  -0.9476   3.6699   4.0810   4.4766   4.5031   4.5063
     4.6489   5.1673   5.2168   5.3070   5.4188   5.9047   5.9458   6.0779
     6.1789   6.4760   6.5326   6.8224   6.9777   7.1143   7.3310   7.3890
     7.4380   7.7575   7.8692   7.9610   8.0340   8.1004   8.3006   8.3163
     8.3880   8.4579   8.9122   9.1038   9.7002   9.9124  10.0963  13.0875
    13.6842  14.0299  14.6901  15.3793  15.5144  15.6205  15.9159  16.0191

          k = 0.2500 0.3672 0.0000 ( 20333 PWs)   bands (ev):

   -31.3753 -16.0573 -16.0395 -11.8493 -11.6920 -11.6220  -7.5720  -7.4365
    -7.1992  -7.1962  -7.0786  -6.7707  -6.7529  -1.5679  -1.5645  -1.3994
    -1.3038  -1.1780  -1.1132   3.3286   3.8245   3.9014   4.3912   4.4628
     4.6233   4.7834   4.9750   5.3299   5.3937   5.8462   5.9820   5.9986
     6.0573   6.2604   6.4406   6.8632   7.0000   7.2856   7.5190   7.5724
     7.7009   7.8145   7.9983   8.0396   8.2417   8.3065   8.3198   8.4443
     8.5892   8.6002   8.8487   9.1102  10.0542  10.2139  10.5860  12.9523
    13.6020  14.1992  15.1123  15.2277  15.7019  15.9315  16.1100  16.2679

          k = 0.2500-0.4896 0.0000 ( 20322 PWs)   bands (ev):

   -31.3738 -16.0437 -16.0261 -11.9112 -11.6880 -11.5925  -7.6174  -7.2318
    -7.2193  -7.1859  -6.9788  -6.9326  -6.7636  -1.5127  -1.4645  -1.4480
    -1.4377  -1.2535  -1.2049   3.1867   3.6810   3.6904   4.3716   4.4833
     4.6134   4.6374   4.8876   5.3091   5.4019   5.8659   5.9313   5.9347
     6.1139   6.1549   6.4203   6.8761   7.0193   7.3080   7.5541   7.7502
     7.8509   7.8782   8.0257   8.0586   8.1325   8.3186   8.4560   8.5898
     8.6758   8.7066   8.7693   9.0578  10.1502  10.2883  10.7408  12.8804
    13.5440  14.2112  15.0243  15.6476  15.8246  16.0683  16.1225  16.4007

          k = 0.3750 0.0000 0.0000 ( 20307 PWs)   bands (ev):

   -31.3795 -16.0888 -16.0729 -11.9011 -11.6983 -11.4248  -7.8002  -7.6722
    -7.5982  -7.1007  -7.0916  -6.8236  -6.4855  -1.5687  -1.2944  -1.0785
    -0.9871  -0.9606  -0.9381   3.6800   3.8398   4.6161   4.9688   5.0186
     5.0634   5.5849   5.6457   5.6692   5.7215   5.7561   5.7878   5.8875
     6.3378   6.4512   6.6119   6.6813   6.8166   7.0744   7.0787   7.1893
     7.2249   7.4406   7.5892   7.7630   7.9541   8.0150   8.2771   8.3156
     8.4732   8.4735   8.5029   8.5132   8.6679   8.9713   9.2493  13.3677
    13.9723  14.3937  15.1137  15.3500  15.6128  15.8765  15.9507  16.1296

          k = 0.3750 0.1224 0.0000 ( 20302 PWs)   bands (ev):

   -31.3780 -16.0771 -16.0613 -11.8957 -11.6736 -11.5024  -7.7039  -7.6056
    -7.5676  -7.1546  -7.0658  -6.8016  -6.5039  -1.5662  -1.3035  -1.2599
    -1.1950  -0.9815  -0.9670   3.5790   3.8155   4.5962   4.8135   4.8524
     5.0954   5.2946   5.3325   5.3567   5.4932   5.7309   5.9719   6.0056
     6.3083   6.4016   6.7694   6.8094   6.8918   7.0393   7.1203   7.2514
     7.2652   7.4530   7.7603   7.8760   7.9687   8.0951   8.2989   8.3195
     8.3844   8.4408   8.6158   8.9215   9.1009   9.4231   9.4951  13.2536
    13.9775  14.1666  15.0941  15.4171  15.5753  15.8146  16.0288  16.2813

          k = 0.3750 0.2448 0.0000 ( 20328 PWs)   bands (ev):

   -31.3742 -16.0486 -16.0331 -11.8829 -11.6757 -11.6117  -7.4965  -7.4903
    -7.4106  -7.2821  -7.0083  -6.7471  -6.5716  -1.6045  -1.5874  -1.4388
    -1.2874  -1.2085  -1.1641   3.2616   3.6986   4.4247   4.5248   4.5474
     4.6547   4.7538   5.0188   5.3412   5.3717   5.9213   5.9261   6.0911
     6.1473   6.2264   6.4613   6.8944   7.1987   7.2329   7.4633   7.5015
     7.6892   7.6903   7.9327   8.0726   8.2303   8.2925   8.3300   8.3950
     8.4453   8.4804   8.8528   8.9764   9.9797  10.1163  10.1825  12.8234
    13.5522  14.3583  15.1427  15.5856  15.6058  15.8457  16.2162  16.2617

          k = 0.3750 0.3672 0.0000 ( 20344 PWs)   bands (ev):

   -31.3705 -16.0197 -16.0044 -11.8702 -11.8327 -11.5466  -7.4775  -7.3568
    -7.2520  -7.1633  -6.9728  -6.7089  -6.6917  -1.7877  -1.7410  -1.5428
    -1.5209  -1.3856  -1.2573   2.8938   3.4612   3.9345   4.2873   4.3401
     4.3558   4.6278   4.8804   5.3358   5.5329   5.7570   5.9745   6.0188
     6.0911   6.1513   6.2445   6.9424   7.2879   7.5998   7.7760   7.8593
     7.8653   8.1235   8.1400   8.2480   8.2683   8.3034   8.4947   8.5683
     8.6167   8.6884   8.8462   9.1516  10.5112  10.6157  10.7174  12.3729
    13.2759  14.4996  15.0972  15.5081  15.6453  15.7908  15.9529  16.2300

          k = 0.3750-0.4896 0.0000 ( 20350 PWs)   bands (ev):

   -31.3689 -16.0076 -15.9925 -11.8949 -11.8640 -11.5186  -7.5164  -7.3408
    -7.0979  -7.0079  -6.9667  -6.8690  -6.6686  -1.7875  -1.7846  -1.7520
    -1.5920  -1.4401  -1.2514   2.7391   3.3327   3.7125   4.2182   4.2501
     4.2963   4.6217   4.8406   5.3300   5.6108   5.6866   5.9113   5.9935
     6.0780   6.1109   6.2351   6.9524   7.3159   7.7613   7.9039   7.9307
     8.0426   8.1710   8.2322   8.2657   8.3826   8.4066   8.5100   8.6209
     8.6741   8.7040   9.0081   9.1630  10.6155  10.8194  10.9003  12.1998
    13.2056  14.5195  14.8359  15.5129  15.6692  15.7503  16.0410  16.4602

          k =-0.5000 0.0000 0.0000 ( 20268 PWs)   bands (ev):

   -31.3775 -16.0694 -16.0549 -11.9716 -11.6623 -11.4218  -7.7250  -7.6770
    -7.6522  -7.0937  -7.0925  -6.8722  -6.4823  -1.5837  -1.2735  -1.0931
    -1.0055  -0.9226  -0.9009   3.5416   3.7020   4.6243   4.9778   5.0879
     5.1262   5.5266   5.5850   5.5875   5.6111   5.6117   5.6488   6.0208
     6.2168   6.2831   6.6054   6.6757   6.8136   7.0648   7.1766   7.1781
     7.2231   7.4517   7.4945   7.9220   7.9852   8.0530   8.2344   8.2880
     8.4003   8.4412   8.4979   8.6261   8.7201   8.9878   9.1841  13.5202
    14.3433  14.3647  15.2506  15.7721  15.8092  15.8613  15.9394  16.1571

          k =-0.5000 0.1224 0.0000 ( 20284 PWs)   bands (ev):

   -31.3760 -16.0583 -16.0439 -11.9659 -11.6380 -11.4988  -7.6585  -7.6179
    -7.5760  -7.1482  -7.0640  -6.8392  -6.4950  -1.5768  -1.2745  -1.2196
    -1.1074  -1.0880  -1.0594   3.4320   3.6691   4.5945   4.8621   5.0123
     5.0935   5.1390   5.1421   5.2731   5.4742   5.6861   5.8999   6.0957
     6.2469   6.3699   6.7205   6.7495   6.9081   7.0640   7.1147   7.2297
     7.3685   7.4574   7.7290   7.9491   8.0250   8.1046   8.2133   8.3541
     8.4289   8.4692   8.6955   8.8822   9.0919   9.4243   9.4605  13.2942
    13.9637  14.4200  15.3806  15.4693  15.8818  16.0491  16.0735  16.2709

          k =-0.5000 0.2448 0.0000 ( 20294 PWs)   bands (ev):

   -31.3722 -16.0313 -16.0170 -11.9520 -11.6708 -11.5776  -7.5327  -7.4728
    -7.3452  -7.2811  -6.9934  -6.7557  -6.5500  -1.5753  -1.5173  -1.4365
    -1.4317  -1.3405  -1.2511   3.0992   3.5331   4.4212   4.5304   4.5780
     4.6050   4.6733   4.9111   5.3270   5.3566   5.9241   5.9989   6.0687
     6.1153   6.1697   6.4310   6.9243   7.2413   7.3462   7.5090   7.5272
     7.6544   7.8313   8.0030   8.1380   8.1698   8.3128   8.3319   8.4083
     8.6260   8.6683   8.6689   8.8624  10.0395  10.1260  10.2404  12.6822
    13.4512  14.5895  15.4807  15.5954  15.7310  15.7993  16.1575  16.2582

          k =-0.5000 0.3672 0.0000 ( 20364 PWs)   bands (ev):

   -31.3685 -16.0039 -15.9898 -11.9382 -11.8272 -11.5140  -7.4439  -7.4163
    -7.2111  -7.1286  -6.9198  -6.6807  -6.6663  -1.8073  -1.7826  -1.7466
    -1.5561  -1.5390  -1.2451   2.7159   3.2887   3.9487   4.1984   4.2637
     4.3309   4.6341   4.8449   5.3211   5.5245   5.8367   5.9153   5.9805
     6.0973   6.1759   6.1826   6.9672   7.4486   7.6767   7.8637   7.9565
     7.9767   8.1148   8.1925   8.3027   8.3932   8.5220   8.5347   8.5416
     8.5436   8.6924   8.9963   9.0593  10.4805  10.7917  10.8845  12.1442
    13.1621  14.7066  15.0581  15.3713  15.5635  15.8195  16.0100  16.2271

          k =-0.5000-0.4896 0.0000 ( 20344 PWs)   bands (ev):

   -31.3669 -15.9925 -15.9784 -11.9325 -11.8882 -11.4866  -7.4731  -7.4060
    -7.0423  -6.9943  -6.8872  -6.8446  -6.6272  -1.9261  -1.9008  -1.8702
    -1.6404  -1.5411  -1.2398   2.5541   3.1607   3.7269   4.0668   4.2196
     4.2688   4.6305   4.8221   5.3156   5.6117   5.7716   5.8289   5.9546
     6.0740   6.1060   6.2209   6.9774   7.4847   7.8833   7.9800   8.0742
     8.0844   8.2998   8.3087   8.3546   8.3784   8.4354   8.6255   8.6511
     8.6613   8.6992   9.1310   9.2472  10.5554  11.0483  11.1264  11.9437
    13.0909  14.7293  14.7633  15.3377  15.4859  15.5115  15.9071  16.4367

     the Fermi energy is     9.2820 ev

!    total energy              =    -696.87039813 Ry
     Harris-Foulkes estimate   =    -696.87039832 Ry
     estimated scf accuracy    <       0.00000042 Ry

     The total energy is the sum of the following terms:

     one-electron contribution =    -214.89262659 Ry
     hartree contribution      =     189.81929098 Ry
     xc contribution           =    -148.54053823 Ry
     ewald contribution        =    -523.25327088 Ry
     smearing contrib. (-TS)   =      -0.00325341 Ry

     convergence has been achieved in  26 iterations

     Forces acting on atoms (cartesian axes, Ry/au):

     atom    1 type  2   force =     0.00000000    0.00000000   -0.00971148
     atom    2 type  2   force =     0.00000000    0.00000000    0.00971148
     atom    3 type  1   force =     0.00000000    0.00000000    0.00000000
     atom    4 type  4   force =     0.00000000    0.00000000    0.00055852
     atom    5 type  4   force =     0.00000000    0.00000000   -0.00055852
     atom    6 type  4   force =     0.00000000    0.00000000    0.00000000
     atom    7 type  3   force =     0.00000000    0.00000000    0.00000000
     atom    8 type  3   force =     0.00000000    0.00000000   -0.00333432
     atom    9 type  3   force =     0.00000000    0.00000000    0.00333432
     atom   10 type  3   force =     0.00000000    0.00000000   -0.00440647
     atom   11 type  3   force =     0.00000000    0.00000000    0.00440647
     atom   12 type  3   force =     0.00000000    0.00000000    0.00762814
     atom   13 type  3   force =     0.00000000    0.00000000   -0.00762814

     Total force =     0.019149     Total SCF correction =     0.000381


     Computing stress (Cartesian axis) and pressure

          total   stress  (Ry/bohr**3)                   (kbar)     P=      -95.02
  -0.00064599   0.00000000   0.00000000          -95.03        0.00        0.00
   0.00000000  -0.00068323   0.00000000            0.00     -100.51        0.00
   0.00000000   0.00000000  -0.00060867            0.00        0.00      -89.54


     BFGS Geometry Optimization

     number of scf cycles    =   1
     number of bfgs steps    =   0

     enthalpy new            =    -696.8703981295 Ry

     new trust radius        =       0.1185565176 bohr
     new conv_thr            =       0.0000010000 Ry

     new unit-cell volume =   1146.99623 a.u.^3 (   169.96730 Ang^3 )
     density =      6.50864 g/cm^3

CELL_PARAMETERS (angstrom)
   3.782579814   0.000000000   0.000000000
   0.000000000   3.859088219   0.000000000
   0.000000000   0.000000000  11.643742037

ATOMIC_POSITIONS (angstrom)
Ba            1.8912889231        1.9295450924        9.5357198927
Ba            1.8912889231        1.9295450924        2.1080260834
Y             1.8912889231        1.9295450924        5.8218729880
Cu            0.0000000000        0.0000000000        7.5300450389
Cu            0.0000000000        0.0000000000        4.1136999524
Cu            0.0000000000        0.0000000000        0.0000000000
O             0.0000000000        1.9295450924        0.0000000000
O             1.8912889231        0.0000000000        7.2249877487
O             1.8912889231        0.0000000000        4.4187572426
O             0.0000000000        1.9295450924        7.2360494700
O             0.0000000000        1.9295450924        4.4076965060
O             0.0000000000        0.0000000000        9.7942695452
O             0.0000000000        0.0000000000        1.8494764309



     Writing output data file /n/holyscratch01/hoffman_lab/ruizhe/outdir/YBCO_ecut100.save/
     NEW-OLD atomic charge density approx. for the potential

     negative rho (up, down):  1.134E-06 0.000E+00
     extrapolated charge  100.69572, renormalised to  106.00000

     total cpu time spent up to now is      198.8 secs

     Self-consistent Calculation

     iteration #  1     ecut=   100.00 Ry     beta= 0.50
     Davidson diagonalization with overlap
     ethr =  1.00E-06,  avg # of iterations = 12.6

     negative rho (up, down):  8.758E-03 0.000E+00

     total cpu time spent up to now is      215.6 secs

     total energy              =    -690.33558977 Ry
     Harris-Foulkes estimate   =    -708.89729545 Ry
     estimated scf accuracy    <       8.10703395 Ry

     iteration #  2     ecut=   100.00 Ry     beta= 0.50
     Davidson diagonalization with overlap
     ethr =  7.65E-03,  avg # of iterations =  6.2

     negative rho (up, down):  4.337E-01 0.000E+00

     total cpu time spent up to now is      227.1 secs

     total energy              =    -689.84889843 Ry
     Harris-Foulkes estimate   =    -735.27246240 Ry
     estimated scf accuracy    <    4583.71441729 Ry

     iteration #  3     ecut=   100.00 Ry     beta= 0.50
     Davidson diagonalization with overlap
     ethr =  7.65E-03,  avg # of iterations =  4.6

     negative rho (up, down):  4.507E-02 0.000E+00

     total cpu time spent up to now is      236.5 secs

     total energy              =    -643.82337953 Ry
     Harris-Foulkes estimate   =    -762.95827433 Ry
     estimated scf accuracy    <   48074.17918845 Ry

     iteration #  4     ecut=   100.00 Ry     beta= 0.50
     Davidson diagonalization with overlap
     ethr =  7.65E-03,  avg # of iterations =  4.6

     total cpu time spent up to now is      247.1 secs

     total energy              =    -690.76376698 Ry
     Harris-Foulkes estimate   =    -703.45165958 Ry
     estimated scf accuracy    <    9888.68111677 Ry

     iteration #  5     ecut=   100.00 Ry     beta= 0.50
     Davidson diagonalization with overlap
     ethr =  7.65E-03,  avg # of iterations =  3.0

     total cpu time spent up to now is      255.0 secs

     total energy              =    -695.80164423 Ry
     Harris-Foulkes estimate   =    -698.38137058 Ry
     estimated scf accuracy    <     367.58808453 Ry

     iteration #  6     ecut=   100.00 Ry     beta= 0.50
     Davidson diagonalization with overlap
     ethr =  7.65E-03,  avg # of iterations =  4.0

     total cpu time spent up to now is      262.6 secs

     total energy              =    -694.88762668 Ry
     Harris-Foulkes estimate   =    -699.35200810 Ry
     estimated scf accuracy    <     754.60662600 Ry

     iteration #  7     ecut=   100.00 Ry     beta= 0.50
     Davidson diagonalization with overlap
     ethr =  7.65E-03,  avg # of iterations =  3.9

     total cpu time spent up to now is      270.1 secs

     total energy              =    -696.98158867 Ry
     Harris-Foulkes estimate   =    -697.27383768 Ry
     estimated scf accuracy    <       5.56664919 Ry

     iteration #  8     ecut=   100.00 Ry     beta= 0.50
     Davidson diagonalization with overlap
     ethr =  5.25E-03,  avg # of iterations =  1.0

     total cpu time spent up to now is      275.7 secs

     total energy              =    -696.96120088 Ry
     Harris-Foulkes estimate   =    -697.05467528 Ry
     estimated scf accuracy    <       2.12429662 Ry

     iteration #  9     ecut=   100.00 Ry     beta= 0.50
     Davidson diagonalization with overlap
     ethr =  2.00E-03,  avg # of iterations =  1.0

     total cpu time spent up to now is      281.2 secs

     total energy              =    -696.95247543 Ry
     Harris-Foulkes estimate   =    -696.98113098 Ry
     estimated scf accuracy    <       0.62094695 Ry

     iteration # 10     ecut=   100.00 Ry     beta= 0.50
     Davidson diagonalization with overlap
     ethr =  5.86E-04,  avg # of iterations =  1.0

     total cpu time spent up to now is      286.8 secs

     total energy              =    -696.87116362 Ry
     Harris-Foulkes estimate   =    -696.95703000 Ry
     estimated scf accuracy    <       0.46037319 Ry

     iteration # 11     ecut=   100.00 Ry     beta= 0.50
     Davidson diagonalization with overlap
     ethr =  4.34E-04,  avg # of iterations =  2.6

     total cpu time spent up to now is      293.0 secs

     total energy              =    -696.88318334 Ry
     Harris-Foulkes estimate   =    -696.90444290 Ry
     estimated scf accuracy    <       0.39502015 Ry

     iteration # 12     ecut=   100.00 Ry     beta= 0.50
     Davidson diagonalization with overlap
     ethr =  3.73E-04,  avg # of iterations =  4.0

     total cpu time spent up to now is      299.7 secs

     total energy              =    -696.88587447 Ry
     Harris-Foulkes estimate   =    -696.90391207 Ry
     estimated scf accuracy    <       3.04547897 Ry

     iteration # 13     ecut=   100.00 Ry     beta= 0.50
     Davidson diagonalization with overlap
     ethr =  3.73E-04,  avg # of iterations =  2.0

     total cpu time spent up to now is      305.7 secs

     total energy              =    -696.89176053 Ry
     Harris-Foulkes estimate   =    -696.89956132 Ry
     estimated scf accuracy    <       3.91742567 Ry

     iteration # 14     ecut=   100.00 Ry     beta= 0.50
     Davidson diagonalization with overlap
     ethr =  3.73E-04,  avg # of iterations =  2.0

     total cpu time spent up to now is      311.7 secs

     total energy              =    -696.88359965 Ry
     Harris-Foulkes estimate   =    -696.91274372 Ry
     estimated scf accuracy    <      16.72354942 Ry

     iteration # 15     ecut=   100.00 Ry     beta= 0.50
     Davidson diagonalization with overlap
     ethr =  3.73E-04,  avg # of iterations =  2.0

     total cpu time spent up to now is      317.7 secs

     total energy              =    -696.89591485 Ry
     Harris-Foulkes estimate   =    -696.89775208 Ry
     estimated scf accuracy    <       0.25783026 Ry

     iteration # 16     ecut=   100.00 Ry     beta= 0.50
     Davidson diagonalization with overlap
     ethr =  2.43E-04,  avg # of iterations =  1.0

     total cpu time spent up to now is      323.3 secs

     total energy              =    -696.89638357 Ry
     Harris-Foulkes estimate   =    -696.89659074 Ry
     estimated scf accuracy    <       0.02414749 Ry

     iteration # 17     ecut=   100.00 Ry     beta= 0.50
     Davidson diagonalization with overlap
     ethr =  2.28E-05,  avg # of iterations =  5.0

     total cpu time spent up to now is      330.4 secs

     total energy              =    -696.89617869 Ry
     Harris-Foulkes estimate   =    -696.89675126 Ry
     estimated scf accuracy    <       0.02046588 Ry

     iteration # 18     ecut=   100.00 Ry     beta= 0.50
     Davidson diagonalization with overlap
     ethr =  1.93E-05,  avg # of iterations =  1.9

     total cpu time spent up to now is      336.3 secs

     total energy              =    -696.89639318 Ry
     Harris-Foulkes estimate   =    -696.89644187 Ry
     estimated scf accuracy    <       0.00748018 Ry

     iteration # 19     ecut=   100.00 Ry     beta= 0.50
     Davidson diagonalization with overlap
     ethr =  7.06E-06,  avg # of iterations =  4.4

     total cpu time spent up to now is      343.0 secs

     total energy              =    -696.89642697 Ry
     Harris-Foulkes estimate   =    -696.89646717 Ry
     estimated scf accuracy    <       0.00383119 Ry

     iteration # 20     ecut=   100.00 Ry     beta= 0.50
     Davidson diagonalization with overlap
     ethr =  3.61E-06,  avg # of iterations =  2.3

     total cpu time spent up to now is      348.9 secs

     total energy              =    -696.89646061 Ry
     Harris-Foulkes estimate   =    -696.89647124 Ry
     estimated scf accuracy    <       0.00376685 Ry

     iteration # 21     ecut=   100.00 Ry     beta= 0.50
     Davidson diagonalization with overlap
     ethr =  3.55E-06,  avg # of iterations =  1.0

     total cpu time spent up to now is      354.5 secs

     total energy              =    -696.89646041 Ry
     Harris-Foulkes estimate   =    -696.89646708 Ry
     estimated scf accuracy    <       0.00212898 Ry

     iteration # 22     ecut=   100.00 Ry     beta= 0.50
     Davidson diagonalization with overlap
     ethr =  2.01E-06,  avg # of iterations =  1.3

     total cpu time spent up to now is      360.1 secs

     total energy              =    -696.89645989 Ry
     Harris-Foulkes estimate   =    -696.89646288 Ry
     estimated scf accuracy    <       0.00068106 Ry

     iteration # 23     ecut=   100.00 Ry     beta= 0.50
     Davidson diagonalization with overlap
     ethr =  6.43E-07,  avg # of iterations =  1.0

     total cpu time spent up to now is      365.7 secs

     total energy              =    -696.89645988 Ry
     Harris-Foulkes estimate   =    -696.89646122 Ry
     estimated scf accuracy    <       0.00013613 Ry

     iteration # 24     ecut=   100.00 Ry     beta= 0.50
     Davidson diagonalization with overlap
     ethr =  1.28E-07,  avg # of iterations =  2.7

     total cpu time spent up to now is      371.8 secs

     total energy              =    -696.89646111 Ry
     Harris-Foulkes estimate   =    -696.89646274 Ry
     estimated scf accuracy    <       0.00025767 Ry

     iteration # 25     ecut=   100.00 Ry     beta= 0.50
     Davidson diagonalization with overlap
     ethr =  1.28E-07,  avg # of iterations =  1.0

     total cpu time spent up to now is      377.4 secs

     total energy              =    -696.89646141 Ry
     Harris-Foulkes estimate   =    -696.89646157 Ry
     estimated scf accuracy    <       0.00005617 Ry

     iteration # 26     ecut=   100.00 Ry     beta= 0.50
     Davidson diagonalization with overlap
     ethr =  5.30E-08,  avg # of iterations =  2.0

     total cpu time spent up to now is      383.2 secs

     total energy              =    -696.89646201 Ry
     Harris-Foulkes estimate   =    -696.89646200 Ry
     estimated scf accuracy    <       0.00001830 Ry

     iteration # 27     ecut=   100.00 Ry     beta= 0.50
     Davidson diagonalization with overlap
     ethr =  1.73E-08,  avg # of iterations =  1.0

     total cpu time spent up to now is      388.8 secs

     total energy              =    -696.89646197 Ry
     Harris-Foulkes estimate   =    -696.89646203 Ry
     estimated scf accuracy    <       0.00001692 Ry

     iteration # 28     ecut=   100.00 Ry     beta= 0.50
     Davidson diagonalization with overlap
     ethr =  1.60E-08,  avg # of iterations =  1.4

     total cpu time spent up to now is      394.5 secs

     total energy              =    -696.89646195 Ry
     Harris-Foulkes estimate   =    -696.89646198 Ry
     estimated scf accuracy    <       0.00000920 Ry

     iteration # 29     ecut=   100.00 Ry     beta= 0.50
     Davidson diagonalization with overlap
     ethr =  8.68E-09,  avg # of iterations =  1.0

     total cpu time spent up to now is      400.0 secs

     total energy              =    -696.89646196 Ry
     Harris-Foulkes estimate   =    -696.89646197 Ry
     estimated scf accuracy    <       0.00000337 Ry

     iteration # 30     ecut=   100.00 Ry     beta= 0.50
     Davidson diagonalization with overlap
     ethr =  3.18E-09,  avg # of iterations =  1.0

     total cpu time spent up to now is      405.6 secs

     total energy              =    -696.89646196 Ry
     Harris-Foulkes estimate   =    -696.89646197 Ry
     estimated scf accuracy    <       0.00000191 Ry

     iteration # 31     ecut=   100.00 Ry     beta= 0.50
     Davidson diagonalization with overlap
     ethr =  1.80E-09,  avg # of iterations =  1.0

     total cpu time spent up to now is      411.1 secs

     End of self-consistent calculation

          k = 0.0000 0.0000 0.0000 ( 20383 PWs)   bands (ev):

   -30.4777 -15.3921 -15.3626 -11.1709 -10.5641 -10.5429  -7.9693  -6.9714
    -6.8697  -6.6956  -6.3810  -5.9430  -5.8775  -0.5896  -0.5389  -0.3533
    -0.3228  -0.2102  -0.1560   5.0569   5.0706   5.0757   5.2615   5.3643
     5.4164   6.2326   6.4295   6.4729   6.5641   6.7769   7.1537   7.1743
     7.1905   7.3153   7.3251   7.3858   7.4906   7.5831   7.6654   7.7146
     8.0153   8.1700   8.2929   8.4448   8.4757   8.5495   8.7049   8.7509
     9.1442   9.2007   9.4274   9.5688   9.5878   9.7542   9.7688  12.8157
    13.4245  14.2267  14.3854  15.2574  15.4759  16.0440  16.3076  16.7252

          k = 0.0000 0.1245 0.0000 ( 20357 PWs)   bands (ev):

   -30.4756 -15.3731 -15.3441 -11.1349 -10.6781 -10.5399  -7.8407  -6.9316
    -6.9053  -6.6691  -6.3986  -6.0071  -5.9523  -0.5960  -0.5225  -0.3415
    -0.2937  -0.1758  -0.1201   4.9712   4.9775   5.1187   5.2010   5.3717
     5.4044   5.8648   6.2460   6.2853   6.5714   6.7264   6.9473   6.9558
     7.0432   7.0839   7.3385   7.3557   7.6337   7.6685   7.7415   7.7681
     8.2083   8.2230   8.2305   8.3292   8.4475   8.5424   8.7738   8.9110
     9.1272   9.2949   9.3682   9.4928   9.6591   9.8530  10.0397  13.1517
    13.6038  14.5468  14.6341  15.3729  16.2843  16.5033  16.7791  16.8287

          k = 0.0000 0.2491 0.0000 ( 20376 PWs)   bands (ev):

   -30.4705 -15.3264 -15.2988 -11.0434 -10.9196 -10.5327  -7.5494  -7.0355
    -6.8366  -6.6188  -6.4010  -6.1571  -6.1276  -0.5901  -0.4799  -0.3155
    -0.2397  -0.0899  -0.0302   4.5921   4.7351   4.9444   5.1487   5.2587
     5.3985   5.5669   5.8284   6.2445   6.5455   6.5459   6.6020   6.6213
     6.7759   6.9437   7.3264   7.3323   7.4676   7.4797   7.6994   7.8436
     8.0575   8.4111   8.4120   8.4669   8.6314   8.6670   8.8134   9.0199
     9.0731   9.3142   9.3365   9.4319   9.5471  10.0033  10.8956  13.9292
    14.0430  15.2799  15.3842  15.5190  16.4920  16.6658  17.0245  17.0915

          k = 0.0000 0.3736 0.0000 ( 20392 PWs)   bands (ev):

   -30.4654 -15.2787 -15.2523 -11.1282 -10.9445 -10.5255  -7.2522  -7.2075
    -6.7807  -6.5615  -6.3671  -6.3025  -6.3022  -0.5587  -0.4348  -0.2932
    -0.2044   0.0003   0.0645   4.1820   4.3761   4.4528   5.0924   5.4457
     5.4740   5.4900   5.6544   6.1942   6.2658   6.3141   6.4482   6.5050
     6.5542   6.8488   7.0400   7.1279   7.3542   7.4846   7.6214   7.9188
     8.1295   8.3419   8.4628   8.5091   8.5813   8.8180   9.0957   9.1408
     9.2473   9.2791   9.3509   9.3538   9.6529   9.9864  11.5166  14.3490
    14.9064  15.3378  15.4610  16.0949  16.2961  16.3348  16.4622  17.2958

          k = 0.0000-0.4981 0.0000 ( 20372 PWs)   bands (ev):

   -30.4633 -15.2585 -15.2328 -11.2076 -10.9010 -10.5225  -7.2864  -7.1030
    -6.8119  -6.4622  -6.4272  -6.3615  -6.3470  -0.5378  -0.4159  -0.2849
    -0.1957   0.0391   0.1054   3.9826   4.2113   4.3305   5.0775   5.3640
     5.4763   5.6514   5.6576   5.9598   6.1960   6.3751   6.3807   6.4759
     6.4841   6.7698   6.8105   7.1074   7.3320   7.3754   7.7136   7.9343
     8.0186   8.4710   8.4900   8.5341   8.5853   8.7891   9.1282   9.1801
     9.2695   9.3038   9.3678   9.4861   9.7654   9.8638  11.7251  14.5794
    15.0063  15.3161  15.9290  16.1270  16.1674  16.4950  16.7432  17.2729

          k = 0.1271 0.0000 0.0000 ( 20379 PWs)   bands (ev):

   -30.4751 -15.3690 -15.3412 -11.1307 -10.6691 -10.5604  -7.8428  -7.0050
    -6.8671  -6.6498  -6.4403  -6.0039  -5.8921  -0.6290  -0.5759  -0.3127
    -0.2829  -0.1748  -0.1542   4.9163   4.9475   5.1029   5.1556   5.4259
     5.4274   6.2986   6.3972   6.4316   6.4894   6.6867   6.9638   6.9806
     7.0005   7.3117   7.3401   7.4207   7.5950   7.7110   7.7257   7.7828
     7.8980   8.1615   8.2155   8.2855   8.3868   8.4912   8.7784   8.8092
     9.1388   9.3914   9.4551   9.5121   9.5716   9.6267   9.7284  13.1245
    13.6146  14.5129  14.7184  15.4337  15.5075  16.3877  16.5695  16.7721

          k = 0.1271 0.1245 0.0000 ( 20352 PWs)   bands (ev):

   -30.4730 -15.3507 -15.3234 -11.0952 -10.6822 -10.6553  -7.7143  -6.9612
    -6.8905  -6.6237  -6.4670  -6.0506  -5.9546  -0.6111  -0.5771  -0.4075
    -0.4018  -0.0651  -0.0505   4.8323   4.9424   5.0623   5.1593   5.2348
     5.5050   5.8546   6.1870   6.3797   6.5090   6.5789   6.7128   6.7296
     7.0631   7.2441   7.3473   7.4117   7.5872   7.6196   7.6579   7.8106
     8.1662   8.2259   8.2734   8.3526   8.4576   8.4740   8.5890   8.8781
     9.1547   9.3175   9.5712   9.6025   9.7233   9.9098  10.0775  13.3972
    13.7572  14.8209  14.9561  15.3228  15.5718  16.5015  16.6743  16.7039

          k = 0.1271 0.2491 0.0000 ( 20349 PWs)   bands (ev):

   -30.4679 -15.3059 -15.2796 -11.0050 -10.9130 -10.6532  -7.4221  -7.0020
    -6.8493  -6.5765  -6.4806  -6.1626  -6.1086  -0.5931  -0.5722  -0.4689
    -0.4408  -0.0127   0.0160   4.4914   4.7297   4.9524   5.1131   5.1242
     5.1715   5.6526   5.8152   6.2101   6.2734   6.3874   6.5435   6.5986
     6.7461   7.0904   7.4105   7.4237   7.4819   7.5697   7.5773   7.7746
     8.1651   8.2597   8.4057   8.5102   8.6816   8.8040   8.8513   8.9014
     9.0571   9.1412   9.5927   9.7675   9.8831  10.2126  10.9001  13.9860
    14.1900  15.1522  15.4586  15.6397  15.6502  16.6735  16.6803  16.9289

          k = 0.1271 0.3736 0.0000 ( 20362 PWs)   bands (ev):

   -30.4628 -15.2600 -15.2349 -11.1196 -10.9076 -10.6437  -7.1659  -7.1208
    -6.7459  -6.5424  -6.4465  -6.2788  -6.2749  -0.5695  -0.5195  -0.4516
    -0.3937  -0.0546  -0.0429   4.1173   4.3348   4.4304   5.0603   5.1884
     5.2750   5.5717   5.7066   5.8992   5.9146   6.3984   6.4556   6.5357
     6.5772   6.8444   7.3353   7.3620   7.4223   7.4626   7.7524   7.8217
     8.1356   8.3418   8.5306   8.5694   8.6696   8.9175   9.0120   9.1070
     9.1811   9.3230   9.4907   9.7541   9.9845  10.3119  11.4936  14.3022
    14.7912  14.9935  15.5764  16.2632  16.3625  16.5224  16.8597  17.3556

          k = 0.1271-0.4981 0.0000 ( 20350 PWs)   bands (ev):

   -30.4607 -15.2407 -15.2161 -11.1985 -10.8648 -10.6397  -7.2425  -6.9587
    -6.7624  -6.4343  -6.4270  -6.4250  -6.3220  -0.5374  -0.4889  -0.4233
    -0.3442  -0.1198  -0.1026   3.9488   4.1305   4.2990   5.0445   5.2058
     5.3802   5.5082   5.6810   5.7311   5.7842   6.3891   6.4389   6.4856
     6.6019   6.7327   7.3097   7.3109   7.3857   7.4214   7.7530   7.9361
     8.2285   8.2510   8.5733   8.5813   8.6268   8.9211   9.0906   9.1680
     9.3398   9.4396   9.4557   9.7478   9.9848  10.2966  11.6911  14.5352
    14.7281  14.8955  16.0924  16.1208  16.5881  16.6978  16.8989  17.6516

          k = 0.2541 0.0000 0.0000 ( 20325 PWs)   bands (ev):

   -30.4686 -15.3122 -15.2886 -11.0283 -10.9348 -10.5515  -7.5646  -7.1009
    -6.9319  -6.5511  -6.5179  -6.1472  -5.9123  -0.7470  -0.5375  -0.2122
    -0.2107  -0.1828  -0.1219   4.4887   4.6202   5.1079   5.2339   5.4628
     5.5156   6.2889   6.2958   6.3153   6.3162   6.4734   6.6101   6.6304
     6.9716   7.2848   7.3449   7.3913   7.4239   7.5381   7.7679   7.8258
     7.8263   8.0774   8.2226   8.4808   8.4999   8.5414   8.6787   8.9396
     9.2326   9.2402   9.2887   9.3637   9.4218   9.6649   9.9653  13.7608
    14.1081  15.2836  15.3418  15.4917  16.0322  16.7902  16.9666  17.0127

          k = 0.2541 0.1245 0.0000 ( 20362 PWs)   bands (ev):

   -30.4666 -15.2957 -15.2724 -10.9941 -10.9293 -10.6596  -7.4362  -7.0455
    -6.9156  -6.5765  -6.5236  -6.1557  -5.9502  -0.7483  -0.5308  -0.4995
    -0.4213  -0.0351  -0.0250   4.4059   4.6188   5.0925   5.1465   5.2432
     5.5737   5.8401   6.0654   6.1921   6.2632   6.3835   6.4376   6.6535
     7.0271   7.0592   7.4285   7.4636   7.5404   7.5748   7.6113   7.7777
     8.0473   8.1760   8.2566   8.5024   8.5461   8.6717   8.7871   8.8277
     9.0877   9.1425   9.5189   9.7167   9.8098  10.1611  10.1868  13.8675
    14.2119  15.1278  15.5693  15.7203  15.8337  16.7199  16.7780  16.9698

          k = 0.2541 0.2491 0.0000 ( 20323 PWs)   bands (ev):

   -30.4615 -15.2554 -15.2328 -10.9253 -10.9074 -10.8820  -7.1458  -6.9333
    -6.8913  -6.6639  -6.4708  -6.1785  -6.0599  -0.7926  -0.7559  -0.5714
    -0.5107  -0.1172  -0.1001   4.1028   4.5360   4.9348   4.9513   4.9774
     5.1304   5.6685   5.7091   5.8183   5.9363   6.4191   6.4931   6.6299
     6.7399   7.0399   7.1084   7.4089   7.5882   7.7215   7.9271   8.0188
     8.0617   8.4278   8.5469   8.6302   8.6888   8.7656   8.9869   9.0194
     9.0509   9.1692   9.6460   9.8326  10.4992  10.7172  10.9128  13.8861
    14.5233  14.8796  15.5898  16.3192  16.3819  16.6315  16.7947  16.9780

          k = 0.2541 0.3736 0.0000 ( 20333 PWs)   bands (ev):

   -30.4565 -15.2142 -15.1924 -11.0991 -10.8972 -10.8140  -7.0621  -6.8502
    -6.6791  -6.6426  -6.4631  -6.2191  -6.2074  -0.8274  -0.8148  -0.6099
    -0.5023  -0.3640  -0.2956   3.7413   4.2640   4.3403   4.8410   4.9123
     5.1002   5.2733   5.4623   5.8588   5.8978   6.3759   6.5147   6.5522
     6.6142   6.8238   6.9967   7.4565   7.6091   7.8876   8.1499   8.2043
     8.3124   8.4891   8.6784   8.7286   8.9239   9.0029   9.0152   9.1521
     9.2917   9.2978   9.5737   9.8333  10.8723  11.0403  11.4283  13.7230
    14.4212  15.0443  16.0489  16.1263  16.6836  16.9152  17.0183  17.2829

          k = 0.2541-0.4981 0.0000 ( 20322 PWs)   bands (ev):

   -30.4544 -15.1969 -15.1754 -11.1764 -10.8918 -10.7730  -7.1326  -6.6386
    -6.6323  -6.6171  -6.4302  -6.3696  -6.2218  -0.7500  -0.6919  -0.6840
    -0.6714  -0.4425  -0.4008   3.5909   4.1049   4.1201   4.8195   4.9373
     5.0868   5.1223   5.3730   5.8441   5.8996   6.4057   6.4571   6.4833
     6.6598   6.7307   6.9724   7.4709   7.6303   7.9080   8.1839   8.3955
     8.4775   8.5579   8.7063   8.7463   8.8282   9.0091   9.1641   9.3114
     9.3800   9.4190   9.4903   9.7582  10.9728  11.1217  11.5899  13.6401
    14.3655  15.0526  15.9025  16.5792  16.7934  17.1052  17.1118  17.4315

          k = 0.3812 0.0000 0.0000 ( 20307 PWs)   bands (ev):

   -30.4622 -15.2538 -15.2347 -11.1634 -10.9170 -10.5426  -7.3023  -7.2120
    -7.0982  -6.5001  -6.4782  -6.2883  -5.9124  -0.8085  -0.4878  -0.2428
    -0.1496  -0.1026  -0.0768   4.1146   4.2753   5.1063   5.4209   5.4968
     5.5360   6.0950   6.1587   6.1708   6.2434   6.2847   6.3002   6.4150
     6.9036   7.0260   7.1734   7.2652   7.4347   7.6932   7.7008   7.8080
     7.8492   8.0777   8.2265   8.4276   8.6113   8.6897   8.9604   8.9781
     9.1517   9.1725   9.2062   9.2618   9.3845   9.7295  10.0103  14.1784
    14.8139  15.2617  16.0539  16.2107  16.5183  16.8795  16.8900  17.0178

          k = 0.3812 0.1245 0.0000 ( 20302 PWs)   bands (ev):

   -30.4602 -15.2392 -15.2202 -11.1561 -10.8843 -10.6481  -7.1864  -7.1299
    -7.0622  -6.5700  -6.4474  -6.2634  -5.9317  -0.8061  -0.5071  -0.4534
    -0.3866  -0.1269  -0.1192   4.0089   4.2524   5.0788   5.2810   5.3114
     5.5814   5.8082   5.8428   5.8524   5.9880   6.2581   6.5219   6.5389
     6.8663   6.9770   7.3371   7.3964   7.4908   7.6644   7.7409   7.8690
     7.9016   8.0877   8.4192   8.5285   8.6318   8.7621   8.9788   9.0017
     9.0836   9.1303   9.3183   9.6375   9.8808  10.1982  10.2843  14.0466
    14.8197  15.0149  16.0283  16.3531  16.4521  16.8195  16.9447  17.2285

          k = 0.3812 0.2491 0.0000 ( 20328 PWs)   bands (ev):

   -30.4552 -15.2036 -15.1849 -11.1384 -10.8761 -10.8015  -6.9756  -6.9753
    -6.8586  -6.7391  -6.3769  -6.2018  -6.0043  -0.8590  -0.8482  -0.6609
    -0.4830  -0.3947  -0.3544   3.6744   4.1362   4.8754   4.9911   4.9982
     5.1453   5.2366   5.5159   5.8500   5.8718   6.4617   6.4775   6.6538
     6.7153   6.7679   7.0261   7.4897   7.8241   7.8386   8.1021   8.1325
     8.3111   8.3473   8.6184   8.7481   8.9055   8.9638   9.0188   9.1021
     9.1195   9.1968   9.5922   9.6944  10.8000  10.9291  11.0084  13.5770
    14.3687  15.2212  16.0872  16.5477  16.6041  16.7232  17.1789  17.2584

          k = 0.3812 0.3736 0.0000 ( 20344 PWs)   bands (ev):

   -30.4502 -15.1673 -15.1490 -11.1212 -11.0759 -10.7126  -6.9551  -6.8424
    -6.7101  -6.5683  -6.3281  -6.1543  -6.1397  -1.0816  -1.0188  -0.7912
    -0.7551  -0.6097  -0.4450   3.2852   3.8879   4.3737   4.7281   4.7800
     4.8232   5.1021   5.3893   5.8460   6.0531   6.2867   6.5364   6.5589
     6.6504   6.6999   6.8054   7.5390   7.9167   8.2160   8.4413   8.5200
     8.5394   8.7866   8.8199   8.9375   8.9451   8.9751   9.2185   9.2838
     9.3246   9.4121   9.5657   9.9057  11.3457  11.4612  11.5699  13.0965
    14.0900  15.3692  15.9920  16.4450  16.6211  16.7832  16.9107  17.2143

          k = 0.3812-0.4981 0.0000 ( 20350 PWs)   bands (ev):

   -30.4481 -15.1522 -15.1339 -11.1543 -11.1123 -10.6737  -7.0168  -6.8152
    -6.4758  -6.4402  -6.3441  -6.3184  -6.1140  -1.0835  -1.0695  -1.0297
    -0.8451  -0.6665  -0.4377   3.1211   3.7511   4.1366   4.6812   4.6875
     4.7350   5.0930   5.3544   5.8435   6.1301   6.2189   6.4696   6.5149
     6.6275   6.6678   6.8059   7.5487   7.9451   8.3851   8.5904   8.6006
     8.7009   8.8678   8.9053   8.9821   9.0273   9.1044   9.2481   9.3204
     9.3906   9.4315   9.7677   9.8997  11.4497  11.6745  11.7623  12.9134
    14.0238  15.3890  15.7117  16.4462  16.6537  16.7079  17.0616  17.3640

          k =-0.5082 0.0000 0.0000 ( 20268 PWs)   bands (ev):

   -30.4596 -15.2290 -15.2119 -11.2503 -10.8677 -10.5389  -7.2721  -7.1837
    -7.1807  -6.4779  -6.4598  -6.3467  -5.9072  -0.8252  -0.4616  -0.2562
    -0.1703  -0.0557  -0.0309   3.9705   4.1314   5.1187   5.4487   5.5447
     5.5917   6.0351   6.0836   6.1067   6.1169   6.1190   6.1470   6.5708
     6.7736   6.8442   7.1662   7.2598   7.4298   7.6864   7.7927   7.8072
     7.8448   8.1017   8.1115   8.5916   8.6478   8.7324   8.9096   8.9459
     9.0732   9.1996   9.2056   9.3554   9.4190   9.7488   9.9457  14.3157
    15.1901  15.2315  16.1692  16.6748  16.7022  16.8398  16.9379  17.0462

          k =-0.5082 0.1245 0.0000 ( 20284 PWs)   bands (ev):

   -30.4575 -15.2153 -15.1982 -11.2425 -10.8357 -10.6433  -7.1988  -7.1444
    -7.0494  -6.5473  -6.4278  -6.3092  -5.9198  -0.8171  -0.4646  -0.4084
    -0.2904  -0.2545  -0.2199   3.8550   4.0988   5.0754   5.3254   5.4805
     5.5786   5.6217   5.6405   5.7884   5.9654   6.2214   6.4354   6.6469
     6.8012   6.9438   7.3010   7.3120   7.5103   7.6929   7.7355   7.8593
     7.9974   8.1006   8.3594   8.6215   8.6920   8.7673   8.8866   9.0442
     9.1238   9.1727   9.3938   9.5965   9.8739  10.2002  10.2552  14.0682
    14.8017  15.2756  16.3086  16.4218  16.8794  16.9478  16.9793  17.3119

          k =-0.5082 0.2491 0.0000 ( 20294 PWs)   bands (ev):

   -30.4526 -15.1817 -15.1647 -11.2235 -10.8695 -10.7548  -7.0463  -6.9934
    -6.7572  -6.7178  -6.3482  -6.2142  -5.9779  -0.8194  -0.7629  -0.6620
    -0.6606  -0.5618  -0.4366   3.5038   3.9613   4.8689   4.9925   5.0526
     5.0593   5.1677   5.4070   5.8326   5.8482   6.4884   6.5524   6.6283
     6.6823   6.7127   6.9890   7.5239   7.8434   7.9813   8.1577   8.1765
     8.3029   8.4742   8.6883   8.8102   8.8358   9.0006   9.0104   9.1025
     9.3241   9.3956   9.3966   9.5681  10.8658  10.9364  11.0732  13.4171
    14.2670  15.4656  16.4108  16.5422  16.6909  16.7252  17.2219  17.2376

          k =-0.5082 0.3736 0.0000 ( 20364 PWs)   bands (ev):

   -30.4476 -15.1476 -15.1307 -11.2046 -11.0686 -10.6680  -6.9436  -6.8928
    -6.7015  -6.4903  -6.2649  -6.1222  -6.1117  -1.1050  -1.0664  -1.0257
    -0.8085  -0.7756  -0.4299   3.0982   3.7062   4.3878   4.6571   4.7009
     4.7704   5.1080   5.3628   5.8174   6.0442   6.3825   6.4717   6.5128
     6.6564   6.7225   6.7554   7.5643   8.0886   8.3075   8.5469   8.6267
     8.6354   8.8070   8.8962   8.9877   9.0420   9.2291   9.2310   9.2522
     9.2551   9.4054   9.7611   9.7995  11.3115  11.6459  11.7463  12.8512
    13.9766  15.5976  15.9466  16.2855  16.5496  16.7734  17.0284  17.1980

          k =-0.5082-0.4981 0.0000 ( 20344 PWs)   bands (ev):

   -30.4455 -15.1334 -15.1165 -11.1967 -11.1451 -10.6300  -6.9670  -6.8995
    -6.4454  -6.3854  -6.3185  -6.2281  -6.0666  -1.2446  -1.2008  -1.1680
    -0.9037  -0.7805  -0.4235   2.9265   3.5704   4.1510   4.5209   4.6535
     4.7055   5.1016   5.3475   5.8136   6.1399   6.3133   6.3773   6.4738
     6.6269   6.6521   6.8029   7.5738   8.1263   8.5588   8.6547   8.7198
     8.7511   8.9858   9.0253   9.0694   9.0841   9.1114   9.2819   9.3676
     9.4133   9.4154   9.9090  10.0055  11.3847  11.9138  11.9990  12.6408
    13.9105  15.6237  15.6419  16.2479  16.4236  16.4942  16.9094  17.7022

     the Fermi energy is    10.0459 ev

!    total energy              =    -696.89646180 Ry
     Harris-Foulkes estimate   =    -696.89646197 Ry
     estimated scf accuracy    <       0.00000038 Ry

     The total energy is the sum of the following terms:

     one-electron contribution =    -203.13728085 Ry
     hartree contribution      =     186.67527296 Ry
     xc contribution           =    -148.93497501 Ry
     ewald contribution        =    -531.49655394 Ry
     smearing contrib. (-TS)   =      -0.00292495 Ry

     convergence has been achieved in  31 iterations

     Forces acting on atoms (cartesian axes, Ry/au):

     atom    1 type  2   force =     0.00000000    0.00000000   -0.00878153
     atom    2 type  2   force =     0.00000000    0.00000000    0.00878153
     atom    3 type  1   force =     0.00000000    0.00000000    0.00000000
     atom    4 type  4   force =     0.00000000    0.00000000    0.00257921
     atom    5 type  4   force =     0.00000000    0.00000000   -0.00257921
     atom    6 type  4   force =     0.00000000    0.00000000    0.00000000
     atom    7 type  3   force =     0.00000000    0.00000000    0.00000000
     atom    8 type  3   force =     0.00000000    0.00000000    0.00115600
     atom    9 type  3   force =     0.00000000    0.00000000   -0.00115600
     atom   10 type  3   force =     0.00000000    0.00000000    0.00101601
     atom   11 type  3   force =     0.00000000    0.00000000   -0.00101601
     atom   12 type  3   force =     0.00000000    0.00000000   -0.00459256
     atom   13 type  3   force =     0.00000000    0.00000000    0.00459256

     Total force =     0.014644     Total SCF correction =     0.000233


     Computing stress (Cartesian axis) and pressure

          total   stress  (Ry/bohr**3)                   (kbar)     P=      -35.33
  -0.00021838   0.00000000   0.00000000          -32.13        0.00        0.00
   0.00000000  -0.00023511   0.00000000            0.00      -34.59        0.00
   0.00000000   0.00000000  -0.00026711            0.00        0.00      -39.29


     number of scf cycles    =   2
     number of bfgs steps    =   1

     enthalpy old            =    -696.8703981295 Ry
     enthalpy new            =    -696.8964617955 Ry

     CASE: enthalpy_new < enthalpy_old

     new trust radius        =       0.0708248405 bohr
     new conv_thr            =       0.0000008782 Ry

     new unit-cell volume =   1114.74498 a.u.^3 (   165.18816 Ang^3 )
     density =      6.69694 g/cm^3

CELL_PARAMETERS (angstrom)
   3.749944255   0.000000000   0.000000000
   0.000000000   3.823195610   0.000000000
   0.000000000   0.000000000  11.521992534

ATOMIC_POSITIONS (angstrom)
Ba            1.8749711520        1.9115987787        9.4289931355
Ba            1.8749711520        1.9115987787        2.0930032969
Y             1.8749711520        1.9115987787        5.7609982162
Cu            0.0000000000        0.0000000000        7.4533510909
Cu            0.0000000000        0.0000000000        4.0686443670
Cu            0.0000000000        0.0000000000        0.0000000000
O             0.0000000000        1.9115987787        0.0000000000
O             1.8749711520        0.0000000000        7.1503259891
O             1.8749711520        0.0000000000        4.3716694689
O             0.0000000000        1.9115987787        7.1611522520
O             0.0000000000        1.9115987787        4.3608441804
O             0.0000000000        0.0000000000        9.6882970574
O             0.0000000000        0.0000000000        1.8336993750



     Writing output data file /n/holyscratch01/hoffman_lab/ruizhe/outdir/YBCO_ecut100.save/
     NEW-OLD atomic charge density approx. for the potential
     extrapolated charge  102.93423, renormalised to  106.00000

     total cpu time spent up to now is      434.4 secs

     Self-consistent Calculation

     iteration #  1     ecut=   100.00 Ry     beta= 0.50
     Davidson diagonalization with overlap
     ethr =  1.00E-06,  avg # of iterations = 12.2

     total cpu time spent up to now is      450.0 secs

     total energy              =    -692.66080316 Ry
     Harris-Foulkes estimate   =    -703.56428371 Ry
     estimated scf accuracy    <       5.31192874 Ry

     iteration #  2     ecut=   100.00 Ry     beta= 0.50
     Davidson diagonalization with overlap
     ethr =  5.01E-03,  avg # of iterations =  5.8

     negative rho (up, down):  1.611E-01 0.000E+00

     total cpu time spent up to now is      461.1 secs

     total energy              =    -673.77294429 Ry
     Harris-Foulkes estimate   =    -722.07328209 Ry
     estimated scf accuracy    <     819.25199218 Ry

     iteration #  3     ecut=   100.00 Ry     beta= 0.50
     Davidson diagonalization with overlap
     ethr =  5.01E-03,  avg # of iterations =  4.5

     negative rho (up, down):  1.653E-03 0.000E+00

     total cpu time spent up to now is      471.3 secs

     total energy              =    -676.28280827 Ry
     Harris-Foulkes estimate   =    -719.40585359 Ry
     estimated scf accuracy    <   29879.22887304 Ry

     iteration #  4     ecut=   100.00 Ry     beta= 0.50
     Davidson diagonalization with overlap
     ethr =  5.01E-03,  avg # of iterations =  3.4

     negative rho (up, down):  2.745E-04 0.000E+00

     total cpu time spent up to now is      479.4 secs

     total energy              =    -695.35088750 Ry
     Harris-Foulkes estimate   =    -698.77594069 Ry
     estimated scf accuracy    <    1474.12874455 Ry

     iteration #  5     ecut=   100.00 Ry     beta= 0.50
     Davidson diagonalization with overlap
     ethr =  5.01E-03,  avg # of iterations =  3.1

     total cpu time spent up to now is      486.2 secs

     total energy              =    -696.26831332 Ry
     Harris-Foulkes estimate   =    -697.80197561 Ry
     estimated scf accuracy    <     754.12569930 Ry

     iteration #  6     ecut=   100.00 Ry     beta= 0.50
     Davidson diagonalization with overlap
     ethr =  5.01E-03,  avg # of iterations =  3.0

     total cpu time spent up to now is      492.8 secs

     total energy              =    -696.76032180 Ry
     Harris-Foulkes estimate   =    -697.43555320 Ry
     estimated scf accuracy    <     119.62870713 Ry

     iteration #  7     ecut=   100.00 Ry     beta= 0.50
     Davidson diagonalization with overlap
     ethr =  5.01E-03,  avg # of iterations =  3.0

     total cpu time spent up to now is      499.2 secs

     total energy              =    -696.95801183 Ry
     Harris-Foulkes estimate   =    -697.01191280 Ry
     estimated scf accuracy    <       3.27600655 Ry

     iteration #  8     ecut=   100.00 Ry     beta= 0.50
     Davidson diagonalization with overlap
     ethr =  3.09E-03,  avg # of iterations =  1.0

     total cpu time spent up to now is      504.7 secs

     total energy              =    -696.93751377 Ry
     Harris-Foulkes estimate   =    -696.97792171 Ry
     estimated scf accuracy    <       2.03313067 Ry

     iteration #  9     ecut=   100.00 Ry     beta= 0.50
     Davidson diagonalization with overlap
     ethr =  1.92E-03,  avg # of iterations =  1.2

     total cpu time spent up to now is      510.4 secs

     total energy              =    -696.92871184 Ry
     Harris-Foulkes estimate   =    -696.94479480 Ry
     estimated scf accuracy    <       0.91713625 Ry

     iteration # 10     ecut=   100.00 Ry     beta= 0.50
     Davidson diagonalization with overlap
     ethr =  8.65E-04,  avg # of iterations =  1.0

     total cpu time spent up to now is      515.9 secs

     total energy              =    -696.88424562 Ry
     Harris-Foulkes estimate   =    -696.93255454 Ry
     estimated scf accuracy    <       0.35023268 Ry

     iteration # 11     ecut=   100.00 Ry     beta= 0.50
     Davidson diagonalization with overlap
     ethr =  3.30E-04,  avg # of iterations =  4.2

     negative rho (up, down):  8.650E-05 0.000E+00

     total cpu time spent up to now is      522.8 secs

     total energy              =    -696.90808144 Ry
     Harris-Foulkes estimate   =    -696.91322491 Ry
     estimated scf accuracy    <       2.90721403 Ry

     iteration # 12     ecut=   100.00 Ry     beta= 0.50
     Davidson diagonalization with overlap
     ethr =  3.30E-04,  avg # of iterations =  2.2

     total cpu time spent up to now is      528.8 secs

     total energy              =    -696.87897648 Ry
     Harris-Foulkes estimate   =    -696.91327407 Ry
     estimated scf accuracy    <       3.39365552 Ry

     iteration # 13     ecut=   100.00 Ry     beta= 0.50
     Davidson diagonalization with overlap
     ethr =  3.30E-04,  avg # of iterations =  3.0

     total cpu time spent up to now is      535.1 secs

     total energy              =    -696.89845146 Ry
     Harris-Foulkes estimate   =    -696.90362809 Ry
     estimated scf accuracy    <       2.48650250 Ry

     iteration # 14     ecut=   100.00 Ry     beta= 0.50
     Davidson diagonalization with overlap
     ethr =  3.30E-04,  avg # of iterations =  2.0

     total cpu time spent up to now is      541.2 secs

     total energy              =    -696.89617688 Ry
     Harris-Foulkes estimate   =    -696.90902379 Ry
     estimated scf accuracy    <       8.19284446 Ry

     iteration # 15     ecut=   100.00 Ry     beta= 0.50
     Davidson diagonalization with overlap
     ethr =  3.30E-04,  avg # of iterations =  2.0

     total cpu time spent up to now is      547.1 secs

     total energy              =    -696.90089331 Ry
     Harris-Foulkes estimate   =    -696.90223438 Ry
     estimated scf accuracy    <       0.75893597 Ry

     iteration # 16     ecut=   100.00 Ry     beta= 0.50
     Davidson diagonalization with overlap
     ethr =  3.30E-04,  avg # of iterations =  1.0

     total cpu time spent up to now is      552.6 secs

     total energy              =    -696.90001742 Ry
     Harris-Foulkes estimate   =    -696.90119910 Ry
     estimated scf accuracy    <       0.51178499 Ry

     iteration # 17     ecut=   100.00 Ry     beta= 0.50
     Davidson diagonalization with overlap
     ethr =  3.30E-04,  avg # of iterations =  1.0

     total cpu time spent up to now is      558.2 secs

     total energy              =    -696.89885030 Ry
     Harris-Foulkes estimate   =    -696.90035944 Ry
     estimated scf accuracy    <       0.23326405 Ry

     iteration # 18     ecut=   100.00 Ry     beta= 0.50
     Davidson diagonalization with overlap
     ethr =  2.20E-04,  avg # of iterations =  1.2

     total cpu time spent up to now is      563.8 secs

     total energy              =    -696.89951028 Ry
     Harris-Foulkes estimate   =    -696.89962930 Ry
     estimated scf accuracy    <       0.01809144 Ry

     iteration # 19     ecut=   100.00 Ry     beta= 0.50
     Davidson diagonalization with overlap
     ethr =  1.71E-05,  avg # of iterations =  6.5

     total cpu time spent up to now is      571.6 secs

     total energy              =    -696.90011282 Ry
     Harris-Foulkes estimate   =    -696.90031891 Ry
     estimated scf accuracy    <       0.04989139 Ry

     iteration # 20     ecut=   100.00 Ry     beta= 0.50
     Davidson diagonalization with overlap
     ethr =  1.71E-05,  avg # of iterations =  1.4

     total cpu time spent up to now is      577.3 secs

     total energy              =    -696.90004413 Ry
     Harris-Foulkes estimate   =    -696.90015887 Ry
     estimated scf accuracy    <       0.02574907 Ry

     iteration # 21     ecut=   100.00 Ry     beta= 0.50
     Davidson diagonalization with overlap
     ethr =  1.71E-05,  avg # of iterations =  1.3

     total cpu time spent up to now is      583.0 secs

     total energy              =    -696.90012401 Ry
     Harris-Foulkes estimate   =    -696.90012694 Ry
     estimated scf accuracy    <       0.00024777 Ry

     iteration # 22     ecut=   100.00 Ry     beta= 0.50
     Davidson diagonalization with overlap
     ethr =  2.34E-07,  avg # of iterations =  5.8

     total cpu time spent up to now is      590.6 secs

     total energy              =    -696.90014792 Ry
     Harris-Foulkes estimate   =    -696.90015527 Ry
     estimated scf accuracy    <       0.00149440 Ry

     iteration # 23     ecut=   100.00 Ry     beta= 0.50
     Davidson diagonalization with overlap
     ethr =  2.34E-07,  avg # of iterations =  2.8

     total cpu time spent up to now is      596.8 secs

     total energy              =    -696.90015019 Ry
     Harris-Foulkes estimate   =    -696.90015079 Ry
     estimated scf accuracy    <       0.00013427 Ry

     iteration # 24     ecut=   100.00 Ry     beta= 0.50
     Davidson diagonalization with overlap
     ethr =  1.27E-07,  avg # of iterations =  1.3

[...]

   -29.9627 -14.7728 -14.7405 -10.6068 -10.4547 -10.0346  -7.1826  -6.6515
    -6.4646  -6.2234  -5.9939  -5.7995  -5.7606  -0.0389   0.0637   0.2185
     0.3021   0.4415   0.5100   4.9207   5.1038   5.3044   5.4793   5.6191
     5.7834   5.9742   6.2284   6.6272   6.7581   6.9425   6.9870   7.0334
     7.1920   7.3895   7.7335   7.7436   7.8768   7.8933   8.0046   8.2286
     8.4569   8.8643   8.8837   8.8934   9.0533   9.1575   9.2961   9.4580
     9.5323   9.8183   9.8407   9.9129   9.9632  10.5523  11.3930  14.3982
    14.5502  15.8299  15.8831  16.0003  16.1079  17.1165  17.3101  17.7976

          k = 0.0000 0.3757 0.0000 ( 18771 PWs)   bands (ev):

   -29.9571 -14.7194 -14.6886 -10.6788 -10.4991 -10.0268  -6.8856  -6.8530
    -6.4341  -6.1503  -5.9509  -5.9461  -5.9132  -0.0126   0.1045   0.2540
     0.3506   0.5408   0.6151   4.5092   4.7524   4.8228   5.3817   5.8305
     5.8359   5.8704   6.0328   6.5865   6.6685   6.6882   6.7097   6.8341
     6.9695   7.2715   7.4396   7.5446   7.7568   7.7844   8.0469   8.2835
     8.5225   8.8261   8.9299   8.9742   9.1018   9.2919   9.5342   9.5949
     9.7351   9.8035   9.8132   9.8134  10.0824  10.5288  12.0087  14.7855
    15.4067  15.8269  16.0444  16.7543  16.9514  17.0257  17.0811  18.1574

          k = 0.0000-0.5010 0.0000 ( 18756 PWs)   bands (ev):

   -29.9548 -14.6969 -14.6667 -10.7636 -10.4514 -10.0236  -6.9440  -6.7380
    -6.4778  -6.0361  -6.0345  -6.0064  -5.9271   0.0047   0.1191   0.2702
     0.3664   0.5837   0.6606   4.3123   4.5818   4.7001   5.3582   5.7366
     5.8614   6.0134   6.0173   6.3579   6.5660   6.6854   6.7486   6.7971
     6.8919   7.1857   7.2090   7.5222   7.6373   7.7603   8.1498   8.2925
     8.4366   8.9633   8.9897   9.0295   9.0356   9.2663   9.5630   9.6705
     9.7605   9.8071   9.8102   9.9402  10.2126  10.4075  12.2130  15.0181
    15.5027  15.8046  16.5576  16.6661  16.8626  17.1876  17.4198  18.2842

          k = 0.1275 0.0000 0.0000 ( 18783 PWs)   bands (ev):

   -29.9678 -14.8207 -14.7884 -10.7015 -10.1850 -10.0621  -7.4828  -6.6289
    -6.4489  -6.2645  -6.0501  -5.6434  -5.5307  -0.0995  -0.0250   0.2191
     0.2524   0.3581   0.3781   5.2600   5.3105   5.4635   5.4745   5.7986
     5.8339   6.6587   6.7286   6.8086   6.8710   7.0870   7.3748   7.3869
     7.4500   7.7414   7.7750   7.8386   7.9794   8.1063   8.1386   8.1676
     8.3236   8.5450   8.6609   8.7178   8.8404   8.8865   9.1982   9.1999
     9.6298   9.8265   9.9459  10.0467  10.0766  10.1122  10.2820  13.6641
    14.0534  15.1292  15.2432  15.9322  16.0839  17.0225  17.2429  17.5480

          k = 0.1275 0.1252 0.0000 ( 18800 PWs)   bands (ev):

   -29.9655 -14.8004 -14.7686 -10.6632 -10.1984 -10.1679  -7.3470  -6.5858
    -6.4788  -6.2345  -6.0769  -5.6917  -5.5932  -0.0864  -0.0287   0.1245
     0.1252   0.4748   0.4959   5.1676   5.3075   5.4265   5.4788   5.6059
     5.9114   6.2586   6.5871   6.7482   6.7630   6.9918   7.1217   7.1329
     7.4836   7.6783   7.7517   7.8386   7.9485   8.0119   8.0681   8.2231
     8.6106   8.6164   8.7512   8.7630   8.8647   8.8911   9.0432   9.3501
     9.6089   9.8010  10.0328  10.0710  10.2779  10.4156  10.5773  13.9366
    14.1925  15.4332  15.4903  15.8381  16.1278  17.1162  17.2633  17.4014

          k = 0.1275 0.2505 0.0000 ( 18799 PWs)   bands (ev):

   -29.9599 -14.7505 -14.7198 -10.5658 -10.4476 -10.1672  -7.0457  -6.6163
    -6.4786  -6.1784  -6.0816  -5.8061  -5.7418  -0.0596  -0.0520   0.0749
     0.0878   0.5338   0.5734   4.8255   5.0985   5.3105   5.4599   5.4919
     5.5324   6.0483   6.2078   6.6217   6.6698   6.7620   6.7728   7.0078
     7.1599   7.5151   7.7976   7.8320   7.8388   7.9668   7.9777   8.1857
     8.6145   8.7150   8.8235   8.9903   9.1048   9.2407   9.3300   9.3893
     9.4970   9.6154  10.0807  10.2688  10.3636  10.7161  11.3948  14.4388
    14.6964  15.6565  16.0014  16.2626  16.2679  17.2809  17.2967  17.6812

          k = 0.1275 0.3757 0.0000 ( 18769 PWs)   bands (ev):

   -29.9544 -14.6992 -14.6699 -10.6695 -10.4597 -10.1568  -6.8087  -6.7440
    -6.3947  -6.1326  -6.0376  -5.9202  -5.8913  -0.0323  -0.0041   0.0946
     0.1428   0.4916   0.5139   4.4465   4.7061   4.7987   5.3663   5.5579
     5.6406   5.9658   6.0728   6.3044   6.3224   6.7239   6.7976   6.9156
     6.9476   7.2541   7.7202   7.7434   7.7738   7.8800   8.1529   8.2351
     8.5941   8.7890   8.9618   9.0480   9.1842   9.3950   9.4453   9.5557
     9.6471   9.7747  10.0254  10.2263  10.4556  10.8095  11.9812  14.7474
    15.2687  15.5028  16.2073  16.9486  17.0178  17.1689  17.4493  18.0512

          k = 0.1275-0.5010 0.0000 ( 18766 PWs)   bands (ev):

   -29.9521 -14.6776 -14.6488 -10.7537 -10.4127 -10.1524  -6.8968  -6.5808
    -6.4248  -6.0360  -6.0118  -6.0108  -5.9688  -0.0036   0.0343   0.1205
     0.2057   0.4277   0.4397   4.2751   4.4997   4.6662   5.3413   5.5790
     5.7408   5.8990   6.0418   6.1457   6.1923   6.6820   6.8447   6.8970
     6.8998   7.1424   7.7002   7.7086   7.7151   7.8250   8.1562   8.3560
     8.6427   8.7532   9.0153   9.0885   9.1017   9.3959   9.5257   9.6245
     9.7807   9.9115  10.0397  10.1900  10.4529  10.7892  12.1734  15.0088
    15.1706  15.4338  16.7474  16.7693  17.1381  17.4033  17.5889  18.2573

          k = 0.2549 0.0000 0.0000 ( 18789 PWs)   bands (ev):

   -29.9609 -14.7585 -14.7310 -10.5919 -10.4739 -10.0527  -7.1937  -6.7398
    -6.5419  -6.1518  -6.1200  -5.7901  -5.5461  -0.2266   0.0140   0.3292
     0.3328   0.3603   0.4288   4.8522   4.9916   5.3967   5.5968   5.8333
     5.8996   6.5654   6.6853   6.6894   6.7377   6.8007   7.0139   7.0249
     7.4430   7.7134   7.7391   7.7980   7.8409   7.9385   8.1902   8.2053
     8.2092   8.5099   8.6792   8.9156   8.9475   8.9553   9.1351   9.3504
     9.7113   9.7383   9.7431   9.8605   9.9313  10.2003  10.5134  14.2449
    14.5537  15.8514  15.8889  16.0263  16.6299  17.5203  17.5541  17.6818

          k = 0.2549 0.1252 0.0000 ( 18785 PWs)   bands (ev):

   -29.9586 -14.7402 -14.7131 -10.5550 -10.4677 -10.1717  -7.0575  -6.6833
    -6.5232  -6.1864  -6.1214  -5.7996  -5.5843  -0.2333   0.0160   0.0254
     0.1104   0.5246   0.5318   4.7651   4.9906   5.3897   5.5146   5.6058
     5.9531   6.2384   6.4391   6.5796   6.6601   6.6760   6.8129   7.0292
     7.4563   7.5013   7.8229   7.8376   7.9573   7.9763   8.0001   8.1851
     8.5026   8.6372   8.7022   8.9198   8.9812   9.1259   9.2438   9.2584
     9.5625   9.6302   9.9734  10.2822  10.2943  10.6654  10.6876  14.3266
    14.6833  15.6463  16.1715  16.2474  16.4489  17.3589  17.3683  17.8096

          k = 0.2549 0.2505 0.0000 ( 18788 PWs)   bands (ev):

   -29.9532 -14.6954 -14.6690 -10.4631 -10.4610 -10.4133  -6.7578  -6.5449
    -6.5247  -6.2831  -6.0626  -5.8250  -5.6924  -0.2909  -0.2427  -0.0414
     0.0251   0.4430   0.4524   4.4494   4.9029   5.3078   5.3282   5.3455
     5.4303   6.0505   6.0994   6.2207   6.3536   6.7489   6.8073   7.0109
     7.1711   7.4623   7.5121   7.7615   8.0108   8.1122   8.3130   8.4536
     8.5507   8.8684   9.0353   9.0658   9.1171   9.1705   9.4698   9.4983
     9.5077   9.6383  10.1694  10.3341  10.9849  11.2070  11.4007  14.3189
    15.0154  15.4190  16.1839  16.9280  16.9728  17.2809  17.5106  17.6527

          k = 0.2549 0.3757 0.0000 ( 18765 PWs)   bands (ev):

   -29.9476 -14.6496 -14.6240 -10.6471 -10.4318 -10.3590  -6.6974  -6.4686
    -6.3042  -6.2513  -6.0537  -5.8576  -5.8383  -0.3163  -0.3105  -0.0890
     0.0203   0.1874   0.2433   4.0783   4.6260   4.7020   5.2250   5.2954
     5.3862   5.6744   5.8552   6.2757   6.3025   6.7674   6.7795   6.9855
     6.9975   7.2282   7.3947   7.8403   8.0236   8.2732   8.5872   8.6741
     8.7021   8.9250   9.1228   9.2350   9.3402   9.4486   9.4978   9.6239
     9.7541   9.7678  10.1370  10.2799  11.3542  11.5298  11.9059  14.1628
    14.9845  15.5075  16.6992  16.7750  17.3413  17.5809  17.7425  17.9918

          k = 0.2549-0.5010 0.0000 ( 18778 PWs)   bands (ev):

   -29.9454 -14.6303 -14.6051 -10.7296 -10.4258 -10.3139  -6.7782  -6.2837
    -6.2356  -6.2207  -6.0440  -5.9549  -5.8742  -0.2297  -0.1742  -0.1671
    -0.1661   0.0978   0.1292   3.9239   4.4625   4.4807   5.2028   5.3236
     5.3737   5.5292   5.7640   6.2727   6.3009   6.7242   6.8123   6.9184
     7.0642   7.0956   7.3633   7.8740   8.0421   8.2916   8.6206   8.8567
     8.8745   8.9676   9.1519   9.2595   9.3050   9.4455   9.6135   9.7854
     9.8618   9.8860  10.0523  10.1906  11.4519  11.6108  12.0615  14.0873
    14.9491  15.5098  16.5402  17.2118  17.4602  17.8013  17.8366  18.1127

          k = 0.3824 0.0000 0.0000 ( 18814 PWs)   bands (ev):

   -29.9540 -14.6941 -14.6720 -10.7190 -10.4717 -10.0433  -6.9332  -6.8622
    -6.7444  -6.0878  -6.0665  -5.9335  -5.5367  -0.3036   0.0628   0.3154
     0.4244   0.4467   0.4754   4.4823   4.6482   5.3811   5.7874   5.8540
     5.9018   6.3919   6.5214   6.5327   6.5696   6.6834   6.6887   6.8001
     7.3690   7.3947   7.5734   7.6959   7.9113   8.1196   8.1354   8.1550
     8.2160   8.5262   8.6734   8.8895   9.0321   9.1642   9.4227   9.4592
     9.6262   9.6518   9.6596   9.7421   9.8821  10.2619  10.5699  14.6020
    15.2723  15.7802  16.5630  16.8127  17.2087  17.5924  17.6490  17.6609

          k = 0.3824 0.1252 0.0000 ( 18773 PWs)   bands (ev):

   -29.9518 -14.6781 -14.6560 -10.7108 -10.4363 -10.1593  -6.8280  -6.7581
    -6.7051  -6.1645  -6.0338  -5.9100  -5.5568  -0.3042   0.0366   0.0824
     0.1540   0.4321   0.4452   4.3707   4.6237   5.3654   5.6434   5.6818
     5.9453   6.1937   6.2276   6.2340   6.3510   6.5764   6.8572   6.9287
     7.3220   7.4019   7.7363   7.7901   7.8488   8.1144   8.1358   8.2803
     8.3475   8.5623   8.8557   8.9928   9.0585   9.2392   9.4684   9.4754
     9.5249   9.5715   9.7702  10.2011  10.3717  10.6987  10.8020  14.4680
    15.3091  15.5217  16.6321  16.9306  17.0576  17.5143  17.6939  17.9299

          k = 0.3824 0.2505 0.0000 ( 18765 PWs)   bands (ev):

   -29.9464 -14.6387 -14.6170 -10.6912 -10.4070 -10.3465  -6.6255  -6.6094
    -6.4564  -6.3513  -5.9581  -5.8527  -5.6321  -0.3628  -0.3341  -0.1452
     0.0398   0.1577   0.1960   4.0215   4.5011   5.2420   5.3746   5.3771
     5.4255   5.6248   5.9249   6.2421   6.2652   6.7880   6.8605   6.9933
     7.1559   7.2060   7.4292   7.8763   8.2165   8.2572   8.5631   8.5797
     8.7094   8.7861   9.0962   9.1837   9.3426   9.4334   9.4666   9.5515
     9.5988   9.6733  10.0825  10.2298  11.2865  11.4149  11.5096  13.9977
    14.9347  15.6822  16.7311  17.2025  17.2611  17.4152  17.7987  17.9354

          k = 0.3824 0.3757 0.0000 ( 18747 PWs)   bands (ev):

   -29.9409 -14.5987 -14.5772 -10.6721 -10.6216 -10.2491  -6.5822  -6.4694
    -6.3547  -6.1545  -5.9047  -5.7963  -5.7846  -0.5795  -0.5203  -0.2756
    -0.2543  -0.0849   0.0844   3.6217   4.2455   4.7370   5.1086   5.1619
     5.2233   5.3846   5.8139   6.2753   6.4495   6.6917   6.8341   6.9807
     7.0336   7.0987   7.2248   7.9674   8.3446   8.5982   8.8827   8.9753
     8.9820   9.1842   9.2908   9.3813   9.3816   9.4194   9.7144   9.7568
     9.8072   9.8992  10.0899  10.3578  11.8118  11.9587  12.0694  13.5150
    14.6925  15.8361  16.6191  17.1053  17.2760  17.4883  17.6462  17.8619

          k = 0.3824-0.5010 0.0000 ( 18738 PWs)   bands (ev):

   -29.9387 -14.5819 -14.5605 -10.7055 -10.6622 -10.2062  -6.6522  -6.4371
    -6.1072  -6.0591  -5.9216  -5.9214  -5.7736  -0.5815  -0.5690  -0.5251
    -0.3358  -0.1668   0.0872   3.4540   4.1063   4.4938   5.0693   5.0873
     5.1184   5.3770   5.7846   6.2880   6.5259   6.6272   6.7907   6.9133
     7.0259   7.0453   7.2212   7.9878   8.3794   8.7671   9.0248   9.0329
     9.1631   9.3059   9.3161   9.4237   9.4987   9.5467   9.7394   9.8699
     9.8771   9.9197  10.2342  10.3371  11.9145  12.1694  12.2612  13.3312
    14.6407  15.8631  16.3197  17.1164  17.2735  17.4503  17.7571  17.9935

          k =-0.5098 0.0000 0.0000 ( 18814 PWs)   bands (ev):

   -29.9512 -14.6668 -14.6470 -10.8116 -10.4180 -10.0394  -6.9363  -6.8433
    -6.8049  -6.0614  -6.0432  -5.9928  -5.5262  -0.3305   0.0870   0.3093
     0.4170   0.4978   0.5253   4.3389   4.5036   5.3871   5.7970   5.9137
     5.9521   6.3458   6.3720   6.4656   6.4889   6.5020   6.5383   6.9659
     7.1375   7.3078   7.5577   7.6924   7.9212   8.1265   8.1341   8.2063
     8.2479   8.5358   8.5907   9.0351   9.0743   9.2140   9.3770   9.4593
     9.5854   9.6360   9.6851   9.8499   9.8510  10.2770  10.5174  14.7307
    15.6236  15.7531  16.6760  17.3142  17.5198  17.5981  17.6127  17.7120

          k =-0.5098 0.1252 0.0000 ( 18778 PWs)   bands (ev):

   -29.9490 -14.6517 -14.6319 -10.8029 -10.3834 -10.1541  -6.8609  -6.8003
    -6.6634  -6.1372  -6.0098  -5.9572  -5.5398  -0.3259   0.0758   0.1444
     0.2846   0.2867   0.3276   4.2162   4.4686   5.3593   5.6848   5.8601
     5.9449   5.9824   6.0283   6.1643   6.3199   6.5814   6.7328   7.0457
     7.2624   7.3589   7.6984   7.7073   7.8629   8.1298   8.1652   8.2899
     8.4274   8.5891   8.7952   9.0706   9.1216   9.2437   9.3917   9.5094
     9.5988   9.6033   9.8247  10.1572  10.3725  10.6955  10.7799  14.4872
    15.3463  15.7016  16.9454  17.0280  17.5781  17.6249  17.7562  17.9055

          k =-0.5098 0.2505 0.0000 ( 18762 PWs)   bands (ev):

   -29.9435 -14.6148 -14.5950 -10.7819 -10.3998 -10.2955  -6.6926  -6.6495
    -6.3521  -6.3236  -5.9266  -5.8675  -5.6012  -0.3404  -0.2362  -0.1448
    -0.1434  -0.0051   0.1005   3.8498   4.3242   5.2304   5.3775   5.4356
     5.4414   5.4497   5.8199   6.2250   6.2308   6.8724   6.9011   6.9602
     7.1245   7.1729   7.3786   7.9261   8.2304   8.4089   8.5850   8.6392
     8.7549   8.8915   9.1517   9.2432   9.2764   9.4692   9.5190   9.5396
     9.7500   9.8634   9.8677  10.1356  11.3436  11.4302  11.5795  13.8358
    14.8484  15.8977  17.1096  17.1949  17.3799  17.4096  17.8396  17.9392

          k =-0.5098 0.3757 0.0000 ( 18752 PWs)   bands (ev):

   -29.9381 -14.5772 -14.5575 -10.7609 -10.6138 -10.2003  -6.5786  -6.5158
    -6.3474  -6.0711  -5.8419  -5.7716  -5.7506  -0.5993  -0.5731  -0.5227
    -0.3010  -0.2676   0.0947   3.4336   4.0618   4.7527   5.0557   5.0790
     5.1517   5.3897   5.8015   6.2321   6.4478   6.7961   6.8889   6.9143
     6.9180   7.1295   7.2052   8.0042   8.5292   8.7004   8.9786   9.0382
     9.0913   9.2676   9.3502   9.4416   9.4469   9.6587   9.7280   9.7451
     9.7558   9.9262  10.2299  10.2563  11.7769  12.1480  12.2507  13.2583
    14.5922  16.0499  16.5717  16.9843  17.1845  17.4821  17.7231  17.8621

          k =-0.5098-0.5010 0.0000 ( 18736 PWs)   bands (ev):

   -29.9359 -14.5615 -14.5418 -10.7522 -10.6955 -10.1584  -6.5975  -6.5294
    -6.0672  -5.9762  -5.9614  -5.7974  -5.7298  -0.7465  -0.7074  -0.6707
    -0.3682  -0.3169   0.0973   3.2584   3.9234   4.5090   4.9253   5.0334
     5.0881   5.3853   5.7944   6.2433   6.5492   6.7285   6.8151   6.8509
     6.8826   7.0541   7.2518   8.0223   8.5764   8.9866   9.0554   9.1229
     9.1469   9.4182   9.4909   9.5340   9.6096   9.6659   9.6802   9.8471
     9.8945   9.9130  10.3798  10.4523  11.8536  12.4147  12.5031  13.0404
    14.5394  16.0859  16.2419  16.9493  17.0879  17.1380  17.5715  18.0719

     the Fermi energy is    10.5519 ev

!    total energy              =    -696.90193156 Ry
     Harris-Foulkes estimate   =    -696.90193157 Ry
     estimated scf accuracy    <          1.3E-09 Ry

     The total energy is the sum of the following terms:

     one-electron contribution =    -191.12098254 Ry
     hartree contribution      =     182.49585746 Ry
     xc contribution           =    -149.15641363 Ry
     ewald contribution        =    -539.11764431 Ry
     smearing contrib. (-TS)   =      -0.00274854 Ry

     convergence has been achieved in  35 iterations

     Forces acting on atoms (cartesian axes, Ry/au):

     atom    1 type  2   force =     0.00000000    0.00000000   -0.00010509
     atom    2 type  2   force =     0.00000000    0.00000000    0.00010509
     atom    3 type  1   force =     0.00000000    0.00000000    0.00000000
     atom    4 type  4   force =     0.00000000    0.00000000    0.00005927
     atom    5 type  4   force =     0.00000000    0.00000000   -0.00005927
     atom    6 type  4   force =     0.00000000    0.00000000    0.00000000
     atom    7 type  3   force =     0.00000000    0.00000000    0.00000000
     atom    8 type  3   force =     0.00000000    0.00000000    0.00007284
     atom    9 type  3   force =     0.00000000    0.00000000   -0.00007284
     atom   10 type  3   force =     0.00000000    0.00000000    0.00002553
     atom   11 type  3   force =     0.00000000    0.00000000   -0.00002553
     atom   12 type  3   force =     0.00000000    0.00000000   -0.00005250
     atom   13 type  3   force =     0.00000000    0.00000000    0.00005250

     Total force =     0.000216     Total SCF correction =     0.000008


     Computing stress (Cartesian axis) and pressure

          total   stress  (Ry/bohr**3)                   (kbar)     P=       -0.02
  -0.00000037   0.00000000   0.00000000           -0.05        0.00        0.00
   0.00000000  -0.00000030   0.00000000            0.00       -0.04        0.00
   0.00000000   0.00000000   0.00000022            0.00        0.00        0.03


     Writing output data file /n/holyscratch01/hoffman_lab/ruizhe/outdir/YBCO_ecut100.save/
 
     init_run     :     13.24s CPU     13.64s WALL (       2 calls)
     electrons    :   2684.08s CPU   2892.08s WALL (      22 calls)
     update_pot   :    125.70s CPU    126.12s WALL (      20 calls)
     forces       :     88.14s CPU     91.78s WALL (      22 calls)
     stress       :    245.63s CPU    255.23s WALL (      22 calls)

     Called by init_run:
     wfcinit      :      3.27s CPU      3.34s WALL (       2 calls)
     potinit      :      3.38s CPU      3.39s WALL (       2 calls)
     hinit0       :      5.35s CPU      5.37s WALL (       2 calls)

     Called by electrons:
     c_bands      :   1880.69s CPU   1963.49s WALL (     443 calls)
     sum_band     :    570.83s CPU    635.32s WALL (     443 calls)
     v_of_rho     :      5.54s CPU      6.21s WALL (     465 calls)
     newd         :    228.01s CPU    289.34s WALL (     465 calls)
     mix_rho      :      6.04s CPU      6.13s WALL (     443 calls)

     Called by c_bands:
     init_us_2    :     26.93s CPU     27.82s WALL (   23300 calls)
     cegterg      :   1742.95s CPU   1819.41s WALL (   11075 calls)

     Called by sum_band:
     sum_band:bec :      0.73s CPU      0.74s WALL (   11075 calls)
     addusdens    :    266.65s CPU    326.70s WALL (     443 calls)

     Called by *egterg:
     h_psi        :    998.57s CPU   1037.74s WALL (   36777 calls)
     s_psi        :     66.04s CPU     69.00s WALL (   36777 calls)
     g_psi        :      5.22s CPU      5.33s WALL (   25652 calls)
     cdiaghg      :    292.21s CPU    293.81s WALL (   36227 calls)

     Called by h_psi:
     h_psi:calbec :     88.91s CPU     95.45s WALL (   36777 calls)
     vloc_psi     :    827.09s CPU    846.56s WALL (   36777 calls)
     add_vuspsi   :     73.69s CPU     75.27s WALL (   36777 calls)

     General routines
     calbec       :    143.03s CPU    150.10s WALL (   50602 calls)
     fft          :     22.16s CPU     22.54s WALL (    2942 calls)
     ffts         :      0.69s CPU      0.70s WALL (     908 calls)
     fftw         :    906.48s CPU    926.59s WALL ( 3947570 calls)
     interpolate  :      2.57s CPU      2.59s WALL (     465 calls)
 
     Parallel routines
     fft_scatt_xy :    155.30s CPU    158.36s WALL ( 3951420 calls)
     fft_scatt_yz :    462.04s CPU    472.86s WALL ( 3951420 calls)
 
     PWSCF        :  52m49.29s CPU  56m34.76s WALL

 
   This run was terminated on:   0:37:38  14Apr2021            

=------------------------------------------------------------------------------=
   JOB DONE.
=------------------------------------------------------------------------------=
