
     Program PWSCF v.6.5 starts on 13Apr2021 at 22: 4:37 

     This program is part of the open-source Quantum ESPRESSO suite
     for quantum simulation of materials; please cite
         "P. Giannozzi et al., J. Phys.:Condens. Matter 21 395502 (2009);
         "P. Giannozzi et al., J. Phys.:Condens. Matter 29 465901 (2017);
          URL http://www.quantum-espresso.org", 
     in publications or presentations arising from this work. More details at
     http://www.quantum-espresso.org/quote

     Parallel version (MPI), running on    10 processors

     MPI processes distributed on     3 nodes
     R & G space division:  proc/nbgrp/npool/nimage =      10
     Reading input from YBCO_ecut40.pwi

     Current dimensions of program PWSCF are:
     Max number of different atomic species (ntypx) = 10
     Max number of k-points (npk) =  40000
     Max angular momentum in pseudopotentials (lmaxx) =  3
               file Y.pz-spn-rrkjus_psl.1.0.0.UPF: wavefunction(s)  4S renormalized
               file Ba.pz-spn-rrkjus_psl.1.0.0.UPF: wavefunction(s)  5S 6S renormalized
               file O.pz-rrkjus.UPF: wavefunction(s)  2S renormalized
               file Cu.pz-d-rrkjus.UPF: wavefunction(s)  3D renormalized

     Subspace diagonalization in iterative solution of the eigenvalue problem:
     one sub-group per band group will be used
     scalapack distributed-memory algorithm (size of sub-group:  3*  3 procs)

     Message from routine setup:
     using ibrav=0 with symmetry is DISCOURAGED, use correct ibrav instead
 
     Parallelization info
     --------------------
     sticks:   dense  smooth     PW     G-vecs:    dense   smooth      PW
     Min         206      68     20                21384     4114     676
     Max         207      69     21                21391     4117     681
     Sum        2061     681    205               213859    41149    6777
 


     bravais-lattice index     =            0
     lattice parameter (alat)  =       7.2654  a.u.
     unit-cell volume          =    1204.4104 (a.u.)^3
     number of atoms/cell      =           13
     number of atomic types    =            4
     number of electrons       =       106.00
     number of Kohn-Sham states=           64
     kinetic-energy cutoff     =      40.0000  Ry
     charge density cutoff     =     480.0000  Ry
     convergence threshold     =      1.0E-06
     mixing beta               =       0.5000
     number of iterations used =            8  plain     mixing
     Exchange-correlation= SLA PZ NOGX NOGC
                           (   1   1   0   0   0   0   0)
     nstep                     =          300


     celldm(1)=   7.265373  celldm(2)=   0.000000  celldm(3)=   0.000000
     celldm(4)=   0.000000  celldm(5)=   0.000000  celldm(6)=   0.000000

     crystal axes: (cart. coord. in units of alat)
               a(1) = (   1.000000   0.000000   0.000000 )  
               a(2) = (   0.000000   1.021193   0.000000 )  
               a(3) = (   0.000000   0.000000   3.075338 )  

     reciprocal axes: (cart. coord. in units 2 pi/alat)
               b(1) = (  1.000000  0.000000  0.000000 )  
               b(2) = (  0.000000  0.979247  0.000000 )  
               b(3) = (  0.000000  0.000000  0.325168 )  


     PseudoPot. # 1 for Y  read from file:
     ./pseudo/Y.pz-spn-rrkjus_psl.1.0.0.UPF
     MD5 check sum: ea98a87c201a6887fec0b907919e69e1
     Pseudo is Ultrasoft + core correction, Zval = 11.0
     Generated using "atomic" code by A. Dal Corso v.6.2.2
     Using radial grid of 1223 points,  6 beta functions with: 
                l(1) =   0
                l(2) =   0
                l(3) =   1
                l(4) =   1
                l(5) =   2
                l(6) =   2
     Q(r) pseudized with 0 coefficients 


     PseudoPot. # 2 for Ba read from file:
     ./pseudo/Ba.pz-spn-rrkjus_psl.1.0.0.UPF
     MD5 check sum: 687b47877062a240b7e905a3e0e5c78b
     Pseudo is Ultrasoft + core correction, Zval = 10.0
     Generated using "atomic" code by A. Dal Corso v.6.2.2
     Using radial grid of 1251 points,  7 beta functions with: 
                l(1) =   0
                l(2) =   0
                l(3) =   0
                l(4) =   1
                l(5) =   1
                l(6) =   2
                l(7) =   2
     Q(r) pseudized with 0 coefficients 


     PseudoPot. # 3 for O  read from file:
     ./pseudo/O.pz-rrkjus.UPF
     MD5 check sum: 039abfcbbabbdfc0eb99fd57dcb11de2
     Pseudo is Ultrasoft, Zval =  6.0
     Generated by new atomic code, or converted to UPF format
     Using radial grid of 1269 points,  4 beta functions with: 
                l(1) =   0
                l(2) =   0
                l(3) =   1
                l(4) =   1
     Q(r) pseudized with 0 coefficients 


     PseudoPot. # 4 for Cu read from file:
     ./pseudo/Cu.pz-d-rrkjus.UPF
     MD5 check sum: 268b017640135c8b13c10cec7c6cb709
     Pseudo is Ultrasoft, Zval = 11.0
     Generated by new atomic code, or converted to UPF format
     Using radial grid of  899 points,  3 beta functions with: 
                l(1) =   2
                l(2) =   2
                l(3) =   1
     Q(r) pseudized with 0 coefficients 


     atomic species   valence    mass     pseudopotential
        Y             11.00    88.90585     Y ( 1.00)
        Ba            10.00   137.32700     Ba( 1.00)
        O              6.00    15.99900     O ( 1.00)
        Cu            11.00    63.55000     Cu( 1.00)

      8 Sym. Ops., with inversion, found



   Cartesian axes

     site n.     atom                  positions (alat units)
         1           Ba  tau(   1) = (   0.4999997   0.5105967   2.5199052  )
         2           Ba  tau(   2) = (   0.4999997   0.5105967   0.5554339  )
         3           Y   tau(   3) = (   0.4999997   0.5105967   1.5376696  )
         4           Cu  tau(   4) = (   0.0000000   0.0000000   1.9887540  )
         5           Cu  tau(   5) = (   0.0000000   0.0000000   1.0865848  )
         6           Cu  tau(   6) = (   0.0000000   0.0000000   0.0000000  )
         7           O   tau(   7) = (   0.0000000   0.5105967   0.0000000  )
         8           O   tau(   8) = (   0.4999997   0.0000000   1.9087183  )
         9           O   tau(   9) = (   0.4999997   0.0000000   1.1666205  )
        10           O   tau(  10) = (   0.0000000   0.5105967   1.9117875  )
        11           O   tau(  11) = (   0.0000000   0.5105967   1.1635516  )
        12           O   tau(  12) = (   0.0000000   0.0000000   2.5858066  )
        13           O   tau(  13) = (   0.0000000   0.0000000   0.4895325  )

     number of k points=    25  Gaussian smearing, width (Ry)=  0.0100
                       cart. coord. in units 2pi/alat
        k(    1) = (   0.0000000   0.0000000   0.0000000), wk =   0.0312500
        k(    2) = (   0.0000000   0.1224059   0.0000000), wk =   0.0625000
        k(    3) = (   0.0000000   0.2448117   0.0000000), wk =   0.0625000
        k(    4) = (   0.0000000   0.3672176   0.0000000), wk =   0.0625000
        k(    5) = (   0.0000000  -0.4896234   0.0000000), wk =   0.0312500
        k(    6) = (   0.1250000   0.0000000   0.0000000), wk =   0.0625000
        k(    7) = (   0.1250000   0.1224059   0.0000000), wk =   0.1250000
        k(    8) = (   0.1250000   0.2448117   0.0000000), wk =   0.1250000
        k(    9) = (   0.1250000   0.3672176   0.0000000), wk =   0.1250000
        k(   10) = (   0.1250000  -0.4896234   0.0000000), wk =   0.0625000
        k(   11) = (   0.2500000   0.0000000   0.0000000), wk =   0.0625000
        k(   12) = (   0.2500000   0.1224059   0.0000000), wk =   0.1250000
        k(   13) = (   0.2500000   0.2448117   0.0000000), wk =   0.1250000
        k(   14) = (   0.2500000   0.3672176   0.0000000), wk =   0.1250000
        k(   15) = (   0.2500000  -0.4896234   0.0000000), wk =   0.0625000
        k(   16) = (   0.3750000   0.0000000   0.0000000), wk =   0.0625000
        k(   17) = (   0.3750000   0.1224059   0.0000000), wk =   0.1250000
        k(   18) = (   0.3750000   0.2448117   0.0000000), wk =   0.1250000
        k(   19) = (   0.3750000   0.3672176   0.0000000), wk =   0.1250000
        k(   20) = (   0.3750000  -0.4896234   0.0000000), wk =   0.0625000
        k(   21) = (  -0.5000000   0.0000000   0.0000000), wk =   0.0312500
        k(   22) = (  -0.5000000   0.1224059   0.0000000), wk =   0.0625000
        k(   23) = (  -0.5000000   0.2448117   0.0000000), wk =   0.0625000
        k(   24) = (  -0.5000000   0.3672176   0.0000000), wk =   0.0625000
        k(   25) = (  -0.5000000  -0.4896234   0.0000000), wk =   0.0312500

     Dense  grid:   213859 G-vectors     FFT dimensions: (  54,  54, 160)

     Smooth grid:    41149 G-vectors     FFT dimensions: (  30,  30,  90)

     Estimated max dynamical RAM per process >     129.03 MB

     Estimated total dynamical RAM >       1.26 GB

     Initial potential from superposition of free atoms

     starting charge  105.96668, renormalised to  106.00000
     Starting wfcs are   69 randomized atomic wfcs

     total cpu time spent up to now is        3.6 secs

     Self-consistent Calculation

     iteration #  1     ecut=    40.00 Ry     beta= 0.50
     Davidson diagonalization with overlap
     ethr =  1.00E-02,  avg # of iterations =  5.0

     total cpu time spent up to now is        7.0 secs

     total energy              =    -693.30512275 Ry
     Harris-Foulkes estimate   =    -698.54410019 Ry
     estimated scf accuracy    <       7.75341752 Ry

     iteration #  2     ecut=    40.00 Ry     beta= 0.50
     Davidson diagonalization with overlap
     ethr =  7.31E-03,  avg # of iterations =  2.4

     negative rho (up, down):  1.629E-01 0.000E+00

     total cpu time spent up to now is        9.8 secs

     total energy              =    -693.62713543 Ry
     Harris-Foulkes estimate   =    -699.71378819 Ry
     estimated scf accuracy    <     812.34807462 Ry

     iteration #  3     ecut=    40.00 Ry     beta= 0.50
     Davidson diagonalization with overlap
     ethr =  7.31E-03,  avg # of iterations =  3.0

     negative rho (up, down):  3.297E-01 0.000E+00

     total cpu time spent up to now is       12.9 secs

     total energy              =    -683.45891913 Ry
     Harris-Foulkes estimate   =    -712.25529978 Ry
     estimated scf accuracy    <   25681.22231978 Ry

     iteration #  4     ecut=    40.00 Ry     beta= 0.50
     Davidson diagonalization with overlap
     ethr =  7.31E-03,  avg # of iterations =  4.0

     negative rho (up, down):  8.390E-02 0.000E+00

     total cpu time spent up to now is       16.8 secs

     total energy              =    -673.32179040 Ry
     Harris-Foulkes estimate   =    -727.39284502 Ry
     estimated scf accuracy    <   45040.25436277 Ry

     iteration #  5     ecut=    40.00 Ry     beta= 0.50
     Davidson diagonalization with overlap
     ethr =  7.31E-03,  avg # of iterations =  3.2

     negative rho (up, down):  1.673E-02 0.000E+00

     total cpu time spent up to now is       20.0 secs

     total energy              =    -695.83583833 Ry
     Harris-Foulkes estimate   =    -698.29942263 Ry
     estimated scf accuracy    <      69.89175154 Ry

     iteration #  6     ecut=    40.00 Ry     beta= 0.50
     Davidson diagonalization with overlap
     ethr =  7.31E-03,  avg # of iterations =  4.0

     negative rho (up, down):  8.261E-06 0.000E+00

     total cpu time spent up to now is       23.1 secs

     total energy              =    -693.26650745 Ry
     Harris-Foulkes estimate   =    -700.30984925 Ry
     estimated scf accuracy    <    1397.82366551 Ry

     iteration #  7     ecut=    40.00 Ry     beta= 0.50
     Davidson diagonalization with overlap
     ethr =  7.31E-03,  avg # of iterations =  3.8

     negative rho (up, down):  1.496E-06 0.000E+00

     total cpu time spent up to now is       26.3 secs

     total energy              =    -696.87704927 Ry
     Harris-Foulkes estimate   =    -696.89244465 Ry
     estimated scf accuracy    <      11.01904854 Ry

     iteration #  8     ecut=    40.00 Ry     beta= 0.50
     Davidson diagonalization with overlap
     ethr =  7.31E-03,  avg # of iterations =  1.0

     total cpu time spent up to now is       28.2 secs

     total energy              =    -696.87898188 Ry
     Harris-Foulkes estimate   =    -696.88980737 Ry
     estimated scf accuracy    <       5.94046929 Ry

     iteration #  9     ecut=    40.00 Ry     beta= 0.50
     Davidson diagonalization with overlap
     ethr =  5.60E-03,  avg # of iterations =  1.0

     total cpu time spent up to now is       30.2 secs

     total energy              =    -696.84102574 Ry
     Harris-Foulkes estimate   =    -696.88460210 Ry
     estimated scf accuracy    <       3.19739796 Ry

     iteration # 10     ecut=    40.00 Ry     beta= 0.50
     Davidson diagonalization with overlap
     ethr =  3.02E-03,  avg # of iterations =  1.0

     total cpu time spent up to now is       32.1 secs

     total energy              =    -696.85437118 Ry
     Harris-Foulkes estimate   =    -696.86031029 Ry
     estimated scf accuracy    <       2.39797394 Ry

     iteration # 11     ecut=    40.00 Ry     beta= 0.50
     Davidson diagonalization with overlap
     ethr =  2.26E-03,  avg # of iterations =  1.0

     total cpu time spent up to now is       34.0 secs

     total energy              =    -696.85773806 Ry
     Harris-Foulkes estimate   =    -696.85871049 Ry
     estimated scf accuracy    <       1.09330323 Ry

     iteration # 12     ecut=    40.00 Ry     beta= 0.50
     Davidson diagonalization with overlap
     ethr =  1.03E-03,  avg # of iterations =  1.2

     total cpu time spent up to now is       36.1 secs

     total energy              =    -696.85736118 Ry
     Harris-Foulkes estimate   =    -696.85866311 Ry
     estimated scf accuracy    <       0.54261868 Ry

     iteration # 13     ecut=    40.00 Ry     beta= 0.50
     Davidson diagonalization with overlap
     ethr =  5.12E-04,  avg # of iterations =  1.2

     total cpu time spent up to now is       38.0 secs

     total energy              =    -696.85765017 Ry
     Harris-Foulkes estimate   =    -696.85870991 Ry
     estimated scf accuracy    <       0.21171006 Ry

     iteration # 14     ecut=    40.00 Ry     beta= 0.50
     Davidson diagonalization with overlap
     ethr =  2.00E-04,  avg # of iterations =  2.4

     total cpu time spent up to now is       40.3 secs

     total energy              =    -696.85799844 Ry
     Harris-Foulkes estimate   =    -696.85841911 Ry
     estimated scf accuracy    <       0.09287540 Ry

     iteration # 15     ecut=    40.00 Ry     beta= 0.50
     Davidson diagonalization with overlap
     ethr =  8.76E-05,  avg # of iterations =  3.4

     total cpu time spent up to now is       42.8 secs

     total energy              =    -696.85827441 Ry
     Harris-Foulkes estimate   =    -696.85850265 Ry
     estimated scf accuracy    <       0.01569644 Ry

     iteration # 16     ecut=    40.00 Ry     beta= 0.50
     Davidson diagonalization with overlap
     ethr =  1.48E-05,  avg # of iterations =  5.6

     total cpu time spent up to now is       46.0 secs

     total energy              =    -696.85836440 Ry
     Harris-Foulkes estimate   =    -696.85850332 Ry
     estimated scf accuracy    <       0.06350696 Ry

     iteration # 17     ecut=    40.00 Ry     beta= 0.50
     Davidson diagonalization with overlap
     ethr =  1.48E-05,  avg # of iterations =  1.0

     total cpu time spent up to now is       47.9 secs

     total energy              =    -696.85830030 Ry
     Harris-Foulkes estimate   =    -696.85839237 Ry
     estimated scf accuracy    <       0.03283947 Ry

     iteration # 18     ecut=    40.00 Ry     beta= 0.50
     Davidson diagonalization with overlap
     ethr =  1.48E-05,  avg # of iterations =  1.0

     total cpu time spent up to now is       49.8 secs

     total energy              =    -696.85831354 Ry
     Harris-Foulkes estimate   =    -696.85833776 Ry
     estimated scf accuracy    <       0.01011951 Ry

     iteration # 19     ecut=    40.00 Ry     beta= 0.50
     Davidson diagonalization with overlap
     ethr =  9.55E-06,  avg # of iterations =  1.0

     total cpu time spent up to now is       51.8 secs

     total energy              =    -696.85826499 Ry
     Harris-Foulkes estimate   =    -696.85834117 Ry
     estimated scf accuracy    <       0.00889643 Ry

     iteration # 20     ecut=    40.00 Ry     beta= 0.50
     Davidson diagonalization with overlap
     ethr =  8.39E-06,  avg # of iterations =  1.6

     total cpu time spent up to now is       53.8 secs

     total energy              =    -696.85831050 Ry
     Harris-Foulkes estimate   =    -696.85831519 Ry
     estimated scf accuracy    <       0.00193137 Ry

     iteration # 21     ecut=    40.00 Ry     beta= 0.50
     Davidson diagonalization with overlap
     ethr =  1.82E-06,  avg # of iterations =  2.9

     total cpu time spent up to now is       56.2 secs

     total energy              =    -696.85831773 Ry
     Harris-Foulkes estimate   =    -696.85833925 Ry
     estimated scf accuracy    <       0.00405813 Ry

     iteration # 22     ecut=    40.00 Ry     beta= 0.50
     Davidson diagonalization with overlap
     ethr =  1.82E-06,  avg # of iterations =  1.0

     total cpu time spent up to now is       58.2 secs

     total energy              =    -696.85831724 Ry
     Harris-Foulkes estimate   =    -696.85832397 Ry
     estimated scf accuracy    <       0.00101440 Ry

     iteration # 23     ecut=    40.00 Ry     beta= 0.50
     Davidson diagonalization with overlap
     ethr =  9.57E-07,  avg # of iterations =  1.8

     total cpu time spent up to now is       60.3 secs

     total energy              =    -696.85832619 Ry
     Harris-Foulkes estimate   =    -696.85832729 Ry
     estimated scf accuracy    <       0.00033465 Ry

     iteration # 24     ecut=    40.00 Ry     beta= 0.50
     Davidson diagonalization with overlap
     ethr =  3.16E-07,  avg # of iterations =  1.8

     total cpu time spent up to now is       62.4 secs

     total energy              =    -696.85832544 Ry
     Harris-Foulkes estimate   =    -696.85832843 Ry
     estimated scf accuracy    <       0.00059089 Ry

     iteration # 25     ecut=    40.00 Ry     beta= 0.50
     Davidson diagonalization with overlap
     ethr =  3.16E-07,  avg # of iterations =  1.0

     total cpu time spent up to now is       64.4 secs

     total energy              =    -696.85832522 Ry
     Harris-Foulkes estimate   =    -696.85832624 Ry
     estimated scf accuracy    <       0.00015210 Ry

     iteration # 26     ecut=    40.00 Ry     beta= 0.50
     Davidson diagonalization with overlap
     ethr =  1.43E-07,  avg # of iterations =  1.4

     total cpu time spent up to now is       66.4 secs

     total energy              =    -696.85832593 Ry
     Harris-Foulkes estimate   =    -696.85832599 Ry
     estimated scf accuracy    <       0.00000708 Ry

     iteration # 27     ecut=    40.00 Ry     beta= 0.50
     Davidson diagonalization with overlap
     ethr =  6.68E-09,  avg # of iterations =  2.7

     total cpu time spent up to now is       68.8 secs

     total energy              =    -696.85832619 Ry
     Harris-Foulkes estimate   =    -696.85832626 Ry
     estimated scf accuracy    <       0.00002318 Ry

     iteration # 28     ecut=    40.00 Ry     beta= 0.50
     Davidson diagonalization with overlap
     ethr =  6.68E-09,  avg # of iterations =  1.0

     total cpu time spent up to now is       70.8 secs

     total energy              =    -696.85832615 Ry
     Harris-Foulkes estimate   =    -696.85832620 Ry
     estimated scf accuracy    <       0.00001237 Ry

     iteration # 29     ecut=    40.00 Ry     beta= 0.50
     Davidson diagonalization with overlap
     ethr =  6.68E-09,  avg # of iterations =  1.4

     total cpu time spent up to now is       72.8 secs

     End of self-consistent calculation

          k = 0.0000 0.0000 0.0000 (  5181 PWs)   bands (ev):

   -31.3871 -16.1965 -16.1730 -11.8884 -11.4390 -11.4184  -8.4009  -7.5025
    -7.4722  -7.2130  -6.9339  -6.5356  -6.4569  -1.3804  -1.3366  -1.1660
    -1.1393  -1.0257  -0.9789   4.5799   4.6227   4.6318   4.7986   4.8786
     4.9301   5.7541   5.8788   5.9328   5.9972   6.2190   6.5725   6.5887
     6.6055   6.7251   6.7389   6.7831   6.8997   6.9846   7.0621   7.0942
     7.3896   7.4959   7.6531   7.8031   7.8411   7.8436   8.0638   8.1020
     8.4676   8.5189   8.6731   8.8597   8.8797   9.0252   9.0420  11.9470
    12.6595  13.4688  13.5458  14.3029  15.0619  15.3382  15.6574  16.0884

          k = 0.0000 0.1224 0.0000 (  5171 PWs)   bands (ev):

   -31.3855 -16.1815 -16.1584 -11.8609 -11.5218 -11.4161  -8.2954  -7.5198
    -7.4353  -7.1993  -6.9572  -6.5896  -6.5224  -1.3834  -1.3229  -1.1575
    -1.1185  -0.9972  -0.9493   4.4889   4.5385   4.6779   4.7315   4.8883
     4.9182   5.3427   5.7172   5.7991   6.0079   6.1754   6.3858   6.3954
     6.4744   6.5166   6.7441   6.7660   7.0103   7.0576   7.1109   7.1401
     7.5792   7.5817   7.6156   7.6635   7.8051   7.8925   8.1261   8.2070
     8.4511   8.5793   8.6690   8.7830   8.9435   9.1256   9.2727  12.2848
    12.8252  13.7778  13.7829  14.4351  14.5775  15.2928  15.5374  15.7633

          k = 0.0000 0.2448 0.0000 (  5161 PWs)   bands (ev):

   -31.3817 -16.1449 -16.1227 -11.7920 -11.7044 -11.4104  -8.0419  -7.5915
    -7.3460  -7.1788  -6.9864  -6.7160  -6.6799  -1.3760  -1.2881  -1.1383
    -1.0790  -0.9263  -0.8759   4.1409   4.2950   4.4692   4.6686   4.8119
     4.9210   5.0709   5.3257   5.7518   5.9886   6.0204   6.0698   6.0799
     6.2264   6.3822   6.7373   6.7524   6.8637   6.8743   7.0866   7.2187
     7.4255   7.7439   7.7806   7.8202   7.9764   7.9949   8.1410   8.3366
     8.4033   8.5868   8.6169   8.7373   8.8403   9.2570  10.0820  13.0788
    13.2159  14.3768  14.5830  14.6472  15.5918  15.7443  15.9553  16.0714

          k = 0.0000 0.3672 0.0000 (  5135 PWs)   bands (ev):

   -31.3778 -16.1076 -16.0863 -11.8682 -11.7191 -11.4048  -7.7613  -7.7000
    -7.3108  -7.1318  -6.9820  -6.8503  -6.8383  -1.3501  -1.2519  -1.1213
    -1.0527  -0.8526  -0.7992   3.7476   3.9415   4.0219   4.6093   4.9755
     5.0086   5.0184   5.1602   5.6876   5.7524   5.7979   5.9335   5.9577
     6.0172   6.2893   6.4640   6.5680   6.7685   6.9111   7.0088   7.2920
     7.5034   7.6947   7.8264   7.8539   7.9004   8.1354   8.3977   8.4574
     8.5673   8.5778   8.5932   8.6577   8.9431   9.2301  10.6689  13.5343
    14.0285  14.4710  14.5591  15.1872  15.4098  15.4753  15.5580  16.2776

          k = 0.0000-0.4896 0.0000 (  5122 PWs)   bands (ev):

   -31.3762 -16.0919 -16.0711 -11.9317 -11.6876 -11.4024  -7.7530  -7.6011
    -7.3711  -7.0260  -6.9790  -6.9727  -6.8882  -1.3336  -1.2367  -1.1150
    -1.0460  -0.8211  -0.7665   3.5588   3.7867   3.9054   4.5941   4.8904
     5.0102   5.1622   5.1996   5.4596   5.6839   5.8452   5.8719   5.9429
     5.9434   6.2142   6.2535   6.5486   6.7498   6.8201   7.0948   7.3086
     7.4088   7.8217   7.8322   7.8741   7.9145   8.1121   8.4246   8.5048
     8.5453   8.5644   8.6702   8.7789   9.0649   9.0909  10.8657  13.7675
    14.1396  14.4506  15.0271  15.2046  15.2804  15.5444  15.8679  16.2810

          k = 0.1250 0.0000 0.0000 (  5183 PWs)   bands (ev):

   -31.3851 -16.1781 -16.1559 -11.8573 -11.5117 -11.4361  -8.2957  -7.5003
    -7.4947  -7.1836  -6.9850  -6.5865  -6.4684  -1.4098  -1.3680  -1.1322
    -1.1061  -0.9993  -0.9846   4.4440   4.5040   4.6666   4.6800   4.9415
     4.9418   5.8159   5.8509   5.8965   5.9349   6.1334   6.3984   6.4181
     6.4335   6.7268   6.7444   6.8200   6.9725   7.0958   7.0974   7.1565
     7.2898   7.5412   7.5581   7.6386   7.7387   7.8546   8.1101   8.1532
     8.4271   8.6875   8.7571   8.7613   8.8619   8.9104   9.0058  12.2662
    12.8337  13.7450  13.8625  14.5559  14.5610  15.3744  15.5803  15.7506

          k = 0.1250 0.1224 0.0000 (  5174 PWs)   bands (ev):

   -31.3835 -16.1637 -16.1418 -11.8302 -11.5224 -11.5041  -8.1910  -7.5050
    -7.4597  -7.1687  -7.0126  -6.6258  -6.5237  -1.3950  -1.3673  -1.2102
    -1.2021  -0.9133  -0.9026   4.3642   4.4946   4.6224   4.6827   4.7619
     5.0128   5.3349   5.6682   5.8905   5.9501   6.0459   6.1568   6.1799
     6.4957   6.6640   6.7675   6.8152   6.9659   7.0004   7.0286   7.1821
     7.5369   7.6064   7.6191   7.7219   7.8079   7.8206   7.9309   8.2162
     8.4517   8.6280   8.8353   8.8819   9.0072   9.1670   9.3089  12.5354
    12.9655  14.0401  14.0875  14.4530  14.6528  15.5015  15.7044  15.7777

          k = 0.1250 0.2448 0.0000 (  5153 PWs)   bands (ev):

   -31.3797 -16.1284 -16.1073 -11.7624 -11.6995 -11.5004  -7.9395  -7.5628
    -7.3544  -7.1482  -7.0488  -6.7200  -6.6630  -1.3743  -1.3616  -1.2671
    -1.2430  -0.8700  -0.8498   4.0439   4.2841   4.4768   4.6412   4.6746
     4.6983   5.1549   5.3185   5.6872   5.7503   5.8832   5.9912   6.0599
     6.1985   6.5184   6.8172   6.8420   6.8850   6.9674   6.9790   7.1483
     7.5309   7.6209   7.7608   7.8439   8.0286   8.1230   8.1668   8.2130
     8.3823   8.4724   8.8724   9.0533   9.1196   9.4422  10.0861  13.1548
    13.3412  14.2966  14.5502  14.7835  14.8349  15.7282  15.7456  15.9078

          k = 0.1250 0.3672 0.0000 (  5142 PWs)   bands (ev):

   -31.3758 -16.0924 -16.0722 -11.8619 -11.6907 -11.4933  -7.6634  -7.6595
    -7.2716  -7.1237  -7.0449  -6.8281  -6.8140  -1.3549  -1.3193  -1.2562
    -1.2084  -0.9040  -0.8974   3.6875   3.9004   3.9974   4.5860   4.7200
     4.8164   5.0825   5.2147   5.3920   5.4002   5.8784   5.9342   5.9996
     6.0263   6.2869   6.7718   6.7797   6.8328   6.8734   7.1311   7.2133
     7.5102   7.6917   7.8690   7.9101   7.9880   8.2269   8.3173   8.4239
     8.5000   8.6277   8.7825   9.0504   9.2083   9.5232  10.6479  13.4841
    13.9511  14.1494  14.6704  15.3658  15.4218  15.6659  15.9100  16.3241

          k = 0.1250-0.4896 0.0000 (  5126 PWs)   bands (ev):

   -31.3742 -16.0774 -16.0575 -11.9250 -11.6597 -11.4903  -7.7143  -7.4885
    -7.3286  -7.0347  -6.9988  -6.9785  -6.8530  -1.3309  -1.2968  -1.2324
    -1.1700  -0.9570  -0.9427   3.5272   3.7100   3.8730   4.5709   4.7408
     4.9155   5.0243   5.1878   5.2259   5.2794   5.8783   5.9082   5.9495
     6.0505   6.1822   6.7373   6.7523   6.8020   6.8312   7.1291   7.3207
     7.5918   7.6263   7.9020   7.9156   7.9520   8.2283   8.3909   8.4885
     8.6408   8.7321   8.7492   9.0512   9.2067   9.5016  10.8349  13.7104
    13.9089  14.0567  15.2088  15.2131  15.6089  15.7237  16.0218  16.4379

          k = 0.2500 0.0000 0.0000 (  5157 PWs)   bands (ev):

   -31.3801 -16.1330 -16.1139 -11.7790 -11.7162 -11.4290  -8.0500  -7.5801
    -7.5117  -7.1242  -7.0763  -6.7064  -6.4846  -1.5119  -1.3344  -1.0478
    -1.0416  -1.0234  -0.9612   4.0416   4.1764   4.6241   4.7919   4.9843
     5.0303   5.7609   5.7645   5.7956   5.8183   5.9337   6.0681   6.0969
     6.4035   6.7021   6.7683   6.7836   6.8233   6.9288   7.1526   7.2008
     7.2012   7.4407   7.5516   7.8327   7.8661   7.8974   8.0115   8.2699
     8.4810   8.5582   8.5972   8.6715   8.7096   8.9118   9.2182  12.9248
    13.2914  14.4729  14.4796  14.5895  15.1104  15.7409  16.0528  16.0806

          k = 0.2500 0.1224 0.0000 (  5142 PWs)   bands (ev):

   -31.3786 -16.1199 -16.1010 -11.7530 -11.7121 -11.5083  -7.9476  -7.5289
    -7.4993  -7.1195  -7.1047  -6.7133  -6.5192  -1.5120  -1.3280  -1.2856
    -1.2241  -0.8991  -0.8837   3.9606   4.1712   4.6114   4.6998   4.7731
     5.0854   5.3239   5.5637   5.6693   5.7369   5.8575   5.9329   6.0923
     6.4547   6.4927   6.8434   6.8702   6.9321   6.9612   7.0163   7.1531
     7.4047   7.5403   7.6053   7.8544   7.9002   8.0139   8.1140   8.1529
     8.4156   8.4470   8.7991   9.0017   9.0449   9.3896   9.4170  13.0394
    13.3792  14.2757  14.7500  14.7761  14.9843  15.6970  15.8236  16.0324

          k = 0.2500 0.2448 0.0000 (  5154 PWs)   bands (ev):

   -31.3748 -16.0880 -16.0696 -11.7081 -11.6880 -11.6787  -7.7043  -7.5018
    -7.3872  -7.1932  -7.0717  -6.7315  -6.6198  -1.5437  -1.5035  -1.3617
    -1.3108  -0.9686  -0.9463   3.6718   4.0829   4.4786   4.5051   4.5083
     4.6510   5.1691   5.2187   5.3088   5.4206   5.9066   5.9477   6.0798
     6.1809   6.4779   6.5345   6.8241   6.9797   7.1163   7.3333   7.3909
     7.4399   7.7595   7.8712   7.9631   8.0363   8.1029   8.3029   8.3185
     8.3903   8.4602   8.9146   9.1063   9.7026   9.9150  10.0988  13.0891
    13.6861  14.0318  14.6914  15.3807  15.5157  15.6222  15.9173  16.0204

          k = 0.2500 0.3672 0.0000 (  5134 PWs)   bands (ev):

   -31.3710 -16.0555 -16.0377 -11.8468 -11.6894 -11.6194  -7.5725  -7.4367
    -7.1997  -7.1968  -7.0789  -6.7714  -6.7536  -1.5666  -1.5632  -1.3981
    -1.3024  -1.1767  -1.1119   3.3304   3.8264   3.9035   4.3932   4.4648
     4.6254   4.7852   4.9768   5.3316   5.3955   5.8481   5.9839   6.0006
     6.0592   6.2623   6.4426   6.8650   7.0019   7.2877   7.5209   7.5744
     7.7034   7.8165   8.0004   8.0417   8.2442   8.3087   8.3220   8.4464
     8.5915   8.6026   8.8511   9.1128  10.0567  10.2165  10.5885  12.9539
    13.6040  14.2011  15.1137  15.2293  15.7034  15.9332  16.1116  16.2694

          k = 0.2500-0.4896 0.0000 (  5130 PWs)   bands (ev):

   -31.3694 -16.0419 -16.0243 -11.9087 -11.6854 -11.5898  -7.6179  -7.2321
    -7.2195  -7.1864  -6.9793  -6.9332  -6.7643  -1.5114  -1.4632  -1.4467
    -1.4365  -1.2521  -1.2036   3.1885   3.6831   3.6923   4.3736   4.4854
     4.6154   4.6391   4.8894   5.3109   5.4038   5.8679   5.9332   5.9367
     6.1157   6.1568   6.4223   6.8778   7.0212   7.3102   7.5561   7.7523
     7.8535   7.8803   8.0278   8.0606   8.1346   8.3210   8.4581   8.5921
     8.6781   8.7090   8.7716   9.0603  10.1527  10.2909  10.7434  12.8819
    13.5461  14.2130  15.0259  15.6492  15.8263  16.0698  16.1243  16.4019

          k = 0.3750 0.0000 0.0000 (  5150 PWs)   bands (ev):

   -31.3752 -16.0869 -16.0711 -11.8987 -11.6958 -11.4218  -7.8007  -7.6728
    -7.5987  -7.1011  -7.0919  -6.8242  -6.4861  -1.5673  -1.2930  -1.0773
    -0.9859  -0.9592  -0.9367   3.6819   3.8418   4.6182   4.9707   5.0204
     5.0654   5.5868   5.6477   5.6710   5.7233   5.7580   5.7899   5.8894
     6.3397   6.4532   6.6139   6.6833   6.8185   7.0764   7.0809   7.1912
     7.2267   7.4424   7.5914   7.7650   7.9563   8.0172   8.2791   8.3180
     8.4756   8.4757   8.5047   8.5156   8.6703   8.9734   9.2516  13.3694
    13.9742  14.3961  15.1153  15.3515  15.6144  15.8783  15.9522  16.1308

          k = 0.3750 0.1224 0.0000 (  5144 PWs)   bands (ev):

   -31.3737 -16.0752 -16.0595 -11.8933 -11.6710 -11.4996  -7.7043  -7.6061
    -7.5681  -7.1550  -7.0660  -6.8023  -6.5045  -1.5649  -1.3022  -1.2586
    -1.1936  -0.9802  -0.9656   3.5809   3.8176   4.5983   4.8155   4.8543
     5.0972   5.2967   5.3344   5.3586   5.4950   5.7328   5.9738   6.0075
     6.3102   6.4036   6.7715   6.8114   6.8937   7.0412   7.1221   7.2537
     7.2672   7.4549   7.7624   7.8781   7.9708   8.0974   8.3011   8.3216
     8.3868   8.4431   8.6182   8.9240   9.1031   9.4254   9.4975  13.2553
    13.9796  14.1686  15.0956  15.4186  15.5769  15.8165  16.0302  16.2807

          k = 0.3750 0.2448 0.0000 (  5143 PWs)   bands (ev):

   -31.3699 -16.0467 -16.0312 -11.8804 -11.6731 -11.6091  -7.4970  -7.4907
    -7.4111  -7.2826  -7.0086  -6.7478  -6.5722  -1.6032  -1.5861  -1.4374
    -1.2860  -1.2072  -1.1629   3.2634   3.7006   4.4266   4.5269   4.5493
     4.6568   4.7555   5.0206   5.3430   5.3734   5.9232   5.9281   6.0930
     6.1493   6.2283   6.4632   6.8961   7.2007   7.2350   7.4653   7.5035
     7.6912   7.6927   7.9347   8.0748   8.2327   8.2948   8.3324   8.3972
     8.4476   8.4826   8.8551   8.9788   9.9821  10.1189  10.1851  12.8249
    13.5542  14.3603  15.1441  15.5871  15.6077  15.8471  16.2236  16.2641

          k = 0.3750 0.3672 0.0000 (  5139 PWs)   bands (ev):

   -31.3662 -16.0179 -16.0026 -11.8678 -11.8302 -11.5438  -7.4780  -7.3575
    -7.2523  -7.1638  -6.9730  -6.7096  -6.6924  -1.7864  -1.7397  -1.5415
    -1.5195  -1.3843  -1.2559   2.8955   3.4631   3.9366   4.2893   4.3421
     4.3575   4.6299   4.8821   5.3376   5.5348   5.7589   5.9765   6.0207
     6.0931   6.1532   6.2464   6.9440   7.2898   7.6020   7.7781   7.8612
     7.8673   8.1256   8.1425   8.2503   8.2708   8.3057   8.4969   8.5706
     8.6191   8.6907   8.8485   9.1541  10.5137  10.6183  10.7201  12.3743
    13.2778  14.5016  15.0988  15.5095  15.6470  15.7923  15.9544  16.2316

          k = 0.3750-0.4896 0.0000 (  5132 PWs)   bands (ev):

   -31.3646 -16.0058 -15.9906 -11.8925 -11.8615 -11.5158  -7.5170  -7.3414
    -7.0981  -7.0083  -6.9671  -6.8696  -6.6694  -1.7862  -1.7834  -1.7507
    -1.5907  -1.4387  -1.2500   2.7408   3.3346   3.7145   4.2199   4.2522
     4.2983   4.6238   4.8424   5.3318   5.6126   5.6885   5.9133   5.9954
     6.0799   6.1129   6.2371   6.9541   7.3178   7.7636   7.9058   7.9329
     8.0447   8.1732   8.2346   8.2679   8.3853   8.4088   8.5123   8.6231
     8.6765   8.7064   9.0105   9.1656  10.6179  10.8222  10.9031  12.2011
    13.2076  14.5214  14.8374  15.5143  15.6710  15.7516  16.0427  16.4041

          k =-0.5000 0.0000 0.0000 (  5126 PWs)   bands (ev):

   -31.3732 -16.0675 -16.0531 -11.9692 -11.6596 -11.4189  -7.7255  -7.6776
    -7.6528  -7.0940  -7.0926  -6.8729  -6.4829  -1.5823  -1.2721  -1.0919
    -1.0042  -0.9211  -0.8995   3.5435   3.7041   4.6264   4.9796   5.0897
     5.1283   5.5284   5.5868   5.5896   5.6132   5.6135   5.6507   6.0227
     6.2188   6.2850   6.6074   6.6777   6.8155   7.0669   7.1789   7.1801
     7.2250   7.4535   7.4969   7.9240   7.9873   8.0552   8.2365   8.2904
     8.4025   8.4429   8.5002   8.6283   8.7226   8.9899   9.1865  13.5220
    14.3454  14.3670  15.2522  15.7734  15.8108  15.8631  15.9414  16.1583

          k =-0.5000 0.1224 0.0000 (  5156 PWs)   bands (ev):

   -31.3717 -16.0564 -16.0421 -11.9635 -11.6354 -11.4960  -7.6590  -7.6185
    -7.5765  -7.1485  -7.0642  -6.8399  -6.4956  -1.5754  -1.2731  -1.2184
    -1.1062  -1.0866  -1.0580   3.4339   3.6712   4.5965   4.8640   5.0141
     5.0953   5.1407   5.1441   5.2752   5.4760   5.6880   5.9018   6.0976
     6.2488   6.3719   6.7226   6.7516   6.9099   7.0659   7.1165   7.2317
     7.3709   7.4593   7.7313   7.9511   8.0271   8.1068   8.2154   8.3563
     8.4310   8.4716   8.6979   8.8847   9.0940   9.4267   9.4628  13.2958
    13.9658  14.4222  15.3822  15.4709  15.8837  16.0507  16.0750  16.2724

          k =-0.5000 0.2448 0.0000 (  5152 PWs)   bands (ev):

   -31.3679 -16.0294 -16.0151 -11.9496 -11.6681 -11.5749  -7.5333  -7.4734
    -7.3455  -7.2815  -6.9936  -6.7564  -6.5507  -1.5739  -1.5161  -1.4351
    -1.4303  -1.3393  -1.2497   3.1009   3.5351   4.4232   4.5325   4.5797
     4.6069   4.6753   4.9128   5.3288   5.3584   5.9260   6.0008   6.0706
     6.1172   6.1716   6.4329   6.9260   7.2435   7.3482   7.5110   7.5291
     7.6564   7.8337   8.0050   8.1403   8.1721   8.3149   8.3342   8.4107
     8.6284   8.6706   8.6711   8.8647  10.0419  10.1285  10.2430  12.6837
    13.4530  14.5918  15.4820  15.5970  15.7329  15.8007  16.1590  16.2603

          k =-0.5000 0.3672 0.0000 (  5134 PWs)   bands (ev):

   -31.3642 -16.0021 -15.9879 -11.9358 -11.8247 -11.5112  -7.4446  -7.4168
    -7.2117  -7.1287  -6.9200  -6.6814  -6.6670  -1.8061  -1.7812  -1.7452
    -1.5549  -1.5376  -1.2437   2.7176   3.2906   3.9508   4.2001   4.2657
     4.3330   4.6362   4.8467   5.3228   5.5264   5.8386   5.9173   5.9824
     6.0992   6.1779   6.1846   6.9689   7.4506   7.6789   7.8657   7.9586
     7.9788   8.1170   8.1946   8.3051   8.3959   8.5243   8.5370   8.5440
     8.5459   8.6947   8.9987   9.0618  10.4829  10.7944  10.8873  12.1456
    13.1640  14.7088  15.0596  15.3724  15.5653  15.8208  16.0117  16.2288

          k =-0.5000-0.4896 0.0000 (  5144 PWs)   bands (ev):

   -31.3626 -15.9906 -15.9765 -11.9301 -11.8857 -11.4838  -7.4737  -7.4067
    -7.0424  -6.9948  -6.8874  -6.8454  -6.6279  -1.9249  -1.8994  -1.8689
    -1.6392  -1.5397  -1.2384   2.5558   3.1625   3.7289   4.0684   4.2217
     4.2707   4.6326   4.8239   5.3173   5.6136   5.7735   5.8309   5.9564
     6.0758   6.1080   6.2228   6.9791   7.4867   7.8853   7.9822   8.0763
     8.0870   8.3019   8.3109   8.3569   8.3804   8.4378   8.6283   8.6535
     8.6636   8.7016   9.1335   9.2497  10.5577  11.0511  11.1293  11.9451
    13.0929  14.7315  14.7647  15.3387  15.4870  15.5133  15.9088  16.4391

     the Fermi energy is     9.2844 ev

!    total energy              =    -696.85832582 Ry
     Harris-Foulkes estimate   =    -696.85832618 Ry
     estimated scf accuracy    <       0.00000075 Ry

     The total energy is the sum of the following terms:

     one-electron contribution =    -214.88262669 Ry
     hartree contribution      =     189.82008545 Ry
     xc contribution           =    -148.53926010 Ry
     ewald contribution        =    -523.25327088 Ry
     smearing contrib. (-TS)   =      -0.00325360 Ry

     convergence has been achieved in  29 iterations

     Forces acting on atoms (cartesian axes, Ry/au):

     atom    1 type  2   force =     0.00000000    0.00000000   -0.01155406
     atom    2 type  2   force =     0.00000000    0.00000000    0.01155406
     atom    3 type  1   force =     0.00000000    0.00000000    0.00000000
     atom    4 type  4   force =     0.00000000    0.00000000    0.00077852
     atom    5 type  4   force =     0.00000000    0.00000000   -0.00077852
     atom    6 type  4   force =     0.00000000    0.00000000    0.00000000
     atom    7 type  3   force =     0.00000000    0.00000000    0.00000000
     atom    8 type  3   force =     0.00000000    0.00000000   -0.00328863
     atom    9 type  3   force =     0.00000000    0.00000000    0.00328863
     atom   10 type  3   force =     0.00000000    0.00000000   -0.00436208
     atom   11 type  3   force =     0.00000000    0.00000000    0.00436208
     atom   12 type  3   force =     0.00000000    0.00000000    0.00758450
     atom   13 type  3   force =     0.00000000    0.00000000   -0.00758450

     Total force =     0.021046     Total SCF correction =     0.000337


     Computing stress (Cartesian axis) and pressure

          total   stress  (Ry/bohr**3)                   (kbar)     P=      -96.70
  -0.00065394   0.00000000   0.00000000          -96.20        0.00        0.00
   0.00000000  -0.00069941   0.00000000            0.00     -102.89        0.00
   0.00000000   0.00000000  -0.00061878            0.00        0.00      -91.03


     BFGS Geometry Optimization

     number of scf cycles    =   1
     number of bfgs steps    =   0

     enthalpy new            =    -696.8583258240 Ry

     new trust radius        =       0.1213632778 bohr
     new conv_thr            =       0.0000010000 Ry

     new unit-cell volume =   1145.99863 a.u.^3 (   169.81947 Ang^3 )
     density =      6.51430 g/cm^3

CELL_PARAMETERS (angstrom)
   3.781815719   0.000000000   0.000000000
   0.000000000   3.857500568   0.000000000
   0.000000000   0.000000000  11.640754539

ATOMIC_POSITIONS (angstrom)
Ba            1.8909068760        1.9287512667        9.5323132964
Ba            1.8909068760        1.9287512667        2.1084451807
Y             1.8909068760        1.9287512667        5.8203792386
Cu            0.0000000000        0.0000000000        7.5282276306
Cu            0.0000000000        0.0000000000        4.1125298620
Cu            0.0000000000        0.0000000000        0.0000000000
O             0.0000000000        1.9287512667        0.0000000000
O             1.8909068760        0.0000000000        7.2231577976
O             1.8909068760        0.0000000000        4.4175996950
O             0.0000000000        1.9287512667        7.2342160016
O             0.0000000000        1.9287512667        4.4065424755
O             0.0000000000        0.0000000000        9.7917338374
O             0.0000000000        0.0000000000        1.8490246398



     Writing output data file /n/holyscratch01/hoffman_lab/ruizhe/outdir/YBCO_ecut40.save/
     NEW-OLD atomic charge density approx. for the potential
     extrapolated charge  100.59886, renormalised to  106.00000

     total cpu time spent up to now is       78.7 secs

     Self-consistent Calculation

     iteration #  1     ecut=    40.00 Ry     beta= 0.50
     Davidson diagonalization with overlap
     ethr =  1.00E-06,  avg # of iterations = 12.6

     negative rho (up, down):  1.537E-04 0.000E+00

     total cpu time spent up to now is       86.6 secs

     total energy              =    -690.16997882 Ry
     Harris-Foulkes estimate   =    -709.11027373 Ry
     estimated scf accuracy    <       8.29674995 Ry

     iteration #  2     ecut=    40.00 Ry     beta= 0.50
     Davidson diagonalization with overlap
     ethr =  7.83E-03,  avg # of iterations =  6.3

     negative rho (up, down):  5.402E-01 0.000E+00

     total cpu time spent up to now is       91.2 secs

     total energy              =    -692.94547652 Ry
     Harris-Foulkes estimate   =    -736.43924677 Ry
     estimated scf accuracy    <    4627.65620754 Ry

     iteration #  3     ecut=    40.00 Ry     beta= 0.50
     Davidson diagonalization with overlap
     ethr =  7.83E-03,  avg # of iterations =  4.6

     negative rho (up, down):  1.239E-01 0.000E+00

     total cpu time spent up to now is       95.2 secs

     total energy              =    -644.34109712 Ry
     Harris-Foulkes estimate   =    -760.15654485 Ry
     estimated scf accuracy    <   61145.09579109 Ry

     iteration #  4     ecut=    40.00 Ry     beta= 0.50
     Davidson diagonalization with overlap
     ethr =  7.83E-03,  avg # of iterations =  4.7

     negative rho (up, down):  9.277E-03 0.000E+00

     total cpu time spent up to now is       99.8 secs

     total energy              =    -693.28840731 Ry
     Harris-Foulkes estimate   =    -700.43459182 Ry
     estimated scf accuracy    <    1676.78306089 Ry

     iteration #  5     ecut=    40.00 Ry     beta= 0.50
     Davidson diagonalization with overlap
     ethr =  7.83E-03,  avg # of iterations =  3.7

     negative rho (up, down):  3.344E-05 0.000E+00

     total cpu time spent up to now is      103.1 secs

     total energy              =    -695.43371673 Ry
     Harris-Foulkes estimate   =    -699.09803752 Ry
     estimated scf accuracy    <    2035.92563230 Ry

     iteration #  6     ecut=    40.00 Ry     beta= 0.50
     Davidson diagonalization with overlap
     ethr =  7.83E-03,  avg # of iterations =  3.0

     negative rho (up, down):  9.821E-07 0.000E+00

     total cpu time spent up to now is      105.8 secs

     total energy              =    -695.66305350 Ry
     Harris-Foulkes estimate   =    -698.49956866 Ry
     estimated scf accuracy    <     565.10047712 Ry

     iteration #  7     ecut=    40.00 Ry     beta= 0.50
     Davidson diagonalization with overlap
     ethr =  7.83E-03,  avg # of iterations =  3.0

     total cpu time spent up to now is      108.3 secs

     total energy              =    -696.96603964 Ry
     Harris-Foulkes estimate   =    -697.27016467 Ry
     estimated scf accuracy    <       4.76041934 Ry

     iteration #  8     ecut=    40.00 Ry     beta= 0.50
     Davidson diagonalization with overlap
     ethr =  4.49E-03,  avg # of iterations =  1.0

     total cpu time spent up to now is      110.3 secs

     total energy              =    -696.95359281 Ry
     Harris-Foulkes estimate   =    -697.04736771 Ry
     estimated scf accuracy    <       1.69006315 Ry

     iteration #  9     ecut=    40.00 Ry     beta= 0.50
     Davidson diagonalization with overlap
     ethr =  1.59E-03,  avg # of iterations =  1.1

     total cpu time spent up to now is      112.3 secs

     total energy              =    -696.94446252 Ry
     Harris-Foulkes estimate   =    -696.97386395 Ry
     estimated scf accuracy    <       0.55576802 Ry

     iteration # 10     ecut=    40.00 Ry     beta= 0.50
     Davidson diagonalization with overlap
     ethr =  5.24E-04,  avg # of iterations =  1.4

     total cpu time spent up to now is      114.3 secs

     total energy              =    -696.86057576 Ry
     Harris-Foulkes estimate   =    -696.94846025 Ry
     estimated scf accuracy    <       0.43322140 Ry

     iteration # 11     ecut=    40.00 Ry     beta= 0.50
     Davidson diagonalization with overlap
     ethr =  4.09E-04,  avg # of iterations =  2.8

     total cpu time spent up to now is      116.8 secs

     total energy              =    -696.87676696 Ry
     Harris-Foulkes estimate   =    -696.89281109 Ry
     estimated scf accuracy    <       0.05322725 Ry

     iteration # 12     ecut=    40.00 Ry     beta= 0.50
     Davidson diagonalization with overlap
     ethr =  5.02E-05,  avg # of iterations =  6.5

     total cpu time spent up to now is      120.9 secs

     total energy              =    -696.88120366 Ry
     Harris-Foulkes estimate   =    -696.88760979 Ry
     estimated scf accuracy    <       1.09287836 Ry

     iteration # 13     ecut=    40.00 Ry     beta= 0.50
     Davidson diagonalization with overlap
     ethr =  5.02E-05,  avg # of iterations =  3.0

     total cpu time spent up to now is      123.5 secs

     total energy              =    -696.86522584 Ry
     Harris-Foulkes estimate   =    -696.90471101 Ry
     estimated scf accuracy    <      22.08896021 Ry

     iteration # 14     ecut=    40.00 Ry     beta= 0.50
     Davidson diagonalization with overlap
     ethr =  5.02E-05,  avg # of iterations =  2.3

     total cpu time spent up to now is      125.9 secs

     total energy              =    -696.88460102 Ry
     Harris-Foulkes estimate   =    -696.88674037 Ry
     estimated scf accuracy    <       0.23494590 Ry

     iteration # 15     ecut=    40.00 Ry     beta= 0.50
     Davidson diagonalization with overlap
     ethr =  5.02E-05,  avg # of iterations =  2.2

     total cpu time spent up to now is      128.2 secs

     total energy              =    -696.88434498 Ry
     Harris-Foulkes estimate   =    -696.88683287 Ry
     estimated scf accuracy    <       1.20502080 Ry

     iteration # 16     ecut=    40.00 Ry     beta= 0.50
     Davidson diagonalization with overlap
     ethr =  5.02E-05,  avg # of iterations =  2.0

     total cpu time spent up to now is      130.5 secs

     total energy              =    -696.88478215 Ry
     Harris-Foulkes estimate   =    -696.88604083 Ry
     estimated scf accuracy    <       0.45148253 Ry

     iteration # 17     ecut=    40.00 Ry     beta= 0.50
     Davidson diagonalization with overlap
     ethr =  5.02E-05,  avg # of iterations =  1.8

     total cpu time spent up to now is      132.6 secs

     total energy              =    -696.88531303 Ry
     Harris-Foulkes estimate   =    -696.88543178 Ry
     estimated scf accuracy    <       0.00134320 Ry

     iteration # 18     ecut=    40.00 Ry     beta= 0.50
     Davidson diagonalization with overlap
     ethr =  1.27E-06,  avg # of iterations =  3.0

     total cpu time spent up to now is      135.1 secs

     total energy              =    -696.88539776 Ry
     Harris-Foulkes estimate   =    -696.88560677 Ry
     estimated scf accuracy    <       0.02412241 Ry

     iteration # 19     ecut=    40.00 Ry     beta= 0.50
     Davidson diagonalization with overlap
     ethr =  1.27E-06,  avg # of iterations =  1.0

     total cpu time spent up to now is      137.0 secs

     total energy              =    -696.88539129 Ry
     Harris-Foulkes estimate   =    -696.88551021 Ry
     estimated scf accuracy    <       0.01760178 Ry

     iteration # 20     ecut=    40.00 Ry     beta= 0.50
     Davidson diagonalization with overlap
     ethr =  1.27E-06,  avg # of iterations =  3.0

     total cpu time spent up to now is      139.5 secs

     total energy              =    -696.88545418 Ry
     Harris-Foulkes estimate   =    -696.88545623 Ry
     estimated scf accuracy    <       0.00014239 Ry

     iteration # 21     ecut=    40.00 Ry     beta= 0.50
     Davidson diagonalization with overlap
     ethr =  1.34E-07,  avg # of iterations =  1.0

     total cpu time spent up to now is      141.4 secs

     total energy              =    -696.88545542 Ry
     Harris-Foulkes estimate   =    -696.88545592 Ry
     estimated scf accuracy    <       0.00018821 Ry

     iteration # 22     ecut=    40.00 Ry     beta= 0.50
     Davidson diagonalization with overlap
     ethr =  1.34E-07,  avg # of iterations =  1.0

     total cpu time spent up to now is      143.4 secs

     total energy              =    -696.88545564 Ry
     Harris-Foulkes estimate   =    -696.88545584 Ry
     estimated scf accuracy    <       0.00003086 Ry

     iteration # 23     ecut=    40.00 Ry     beta= 0.50
     Davidson diagonalization with overlap
     ethr =  2.91E-08,  avg # of iterations =  1.0

     total cpu time spent up to now is      145.4 secs

     total energy              =    -696.88545575 Ry
     Harris-Foulkes estimate   =    -696.88545577 Ry
     estimated scf accuracy    <       0.00000308 Ry

     iteration # 24     ecut=    40.00 Ry     beta= 0.50
     Davidson diagonalization with overlap
     ethr =  2.91E-09,  avg # of iterations =  2.7

     total cpu time spent up to now is      147.7 secs

     total energy              =    -696.88545583 Ry
     Harris-Foulkes estimate   =    -696.88545585 Ry
     estimated scf accuracy    <       0.00001529 Ry

     iteration # 25     ecut=    40.00 Ry     beta= 0.50
     Davidson diagonalization with overlap
     ethr =  2.91E-09,  avg # of iterations =  1.0

     total cpu time spent up to now is      149.7 secs

     total energy              =    -696.88545581 Ry
     Harris-Foulkes estimate   =    -696.88545584 Ry
     estimated scf accuracy    <       0.00001131 Ry

     iteration # 26     ecut=    40.00 Ry     beta= 0.50
     Davidson diagonalization with overlap
     ethr =  2.91E-09,  avg # of iterations =  1.0

     total cpu time spent up to now is      151.7 secs

     total energy              =    -696.88545580 Ry
     Harris-Foulkes estimate   =    -696.88545582 Ry
     estimated scf accuracy    <       0.00000395 Ry

     iteration # 27     ecut=    40.00 Ry     beta= 0.50
     Davidson diagonalization with overlap
     ethr =  2.91E-09,  avg # of iterations =  2.0

     total cpu time spent up to now is      153.9 secs

     End of self-consistent calculation

          k = 0.0000 0.0000 0.0000 (  5181 PWs)   bands (ev):

   -30.4583 -15.3759 -15.3465 -11.1572 -10.5463 -10.5253  -7.9627  -6.9621
    -6.8584  -6.6874  -6.3725  -5.9328  -5.8669  -0.5738  -0.5233  -0.3369
    -0.3064  -0.1945  -0.1405   5.0661   5.0796   5.0869   5.2716   5.3748
     5.4265   6.2425   6.4424   6.4849   6.5758   6.7896   7.1660   7.1866
     7.2029   7.3287   7.3383   7.3981   7.5035   7.5953   7.6783   7.7276
     8.0295   8.1844   8.3075   8.4588   8.4890   8.5643   8.7187   8.7645
     9.1582   9.2160   9.4439   9.5844   9.6038   9.7696   9.7842  12.8326
    13.4395  14.2414  14.4007  15.2759  15.4932  16.0618  16.3277  16.7464

          k = 0.0000 0.1246 0.0000 (  5171 PWs)   bands (ev):

   -30.4562 -15.3568 -15.3279 -11.1209 -10.6612 -10.5223  -7.8335  -6.9223
    -6.8943  -6.6605  -6.3900  -5.9970  -5.9418  -0.5804  -0.5069  -0.3251
    -0.2773  -0.1600  -0.1044   4.9816   4.9867   5.1279   5.2111   5.3822
     5.4150   5.8768   6.2576   6.2956   6.5831   6.7389   6.9594   6.9677
     7.0550   7.0966   7.3510   7.3691   7.6467   7.6816   7.7547   7.7813
     8.2225   8.2355   8.2442   8.3434   8.4616   8.5569   8.7881   8.9258
     9.1424   9.3105   9.3829   9.5081   9.6743   9.8692  10.0565  13.1690
    13.6191  14.5617  14.6499  15.3913  15.4680  16.3021  16.5232  16.7988

          k = 0.0000 0.2492 0.0000 (  5161 PWs)   bands (ev):

   -30.4511 -15.3099 -15.2822 -11.0288 -10.9042 -10.5151  -7.5415  -7.0258
    -6.8272  -6.6092  -6.3919  -6.1474  -6.1173  -0.5747  -0.4643  -0.2995
    -0.2235  -0.0737  -0.0141   4.6015   4.7441   4.9550   5.1596   5.2681
     5.4090   5.5775   5.8394   6.2551   6.5570   6.5577   6.6132   6.6336
     6.7881   6.9554   7.3394   7.3444   7.4804   7.4929   7.7122   7.8567
     8.0705   8.4255   8.4258   8.4810   8.6449   8.6815   8.8282   9.0350
     9.0889   9.3290   9.3521   9.4466   9.5624  10.0199  10.9135  13.9470
    14.0590  15.2973  15.4000  15.4096  15.5369  16.5101  16.6834  17.0445

          k = 0.0000 0.3738 0.0000 (  5135 PWs)   bands (ev):

   -30.4459 -15.2619 -15.2356 -11.1140 -10.9292 -10.5078  -7.2442  -7.1993
    -6.7713  -6.5509  -6.3574  -6.2929  -6.2919  -0.5432  -0.4190  -0.2775
    -0.1884   0.0169   0.0810   4.1914   4.3853   4.4614   5.1035   5.4562
     5.4835   5.5006   5.6647   6.2053   6.2771   6.3247   6.4600   6.5169
     6.5661   6.8601   7.0522   7.1396   7.3677   7.4964   7.6347   7.9318
     8.1432   8.3556   8.4767   8.5236   8.5957   8.8327   9.1107   9.1551
     9.2618   9.2939   9.3664   9.3707   9.6689  10.0030  11.5351  14.3654
    14.9246  15.3548  15.4798  16.1133  16.3135  16.3517  16.4802  17.3171

          k = 0.0000-0.4983 0.0000 (  5122 PWs)   bands (ev):

   -30.4438 -15.2416 -15.2159 -11.1938 -10.8854 -10.5048  -7.2789  -7.0955
    -6.8020  -6.4514  -6.4163  -6.3523  -6.3371  -0.5222  -0.4001  -0.2694
    -0.1799   0.0558   0.1220   3.9920   4.2199   4.3390   5.0887   5.3744
     5.4869   5.6614   5.6668   5.9712   6.2063   6.3867   6.3926   6.4877
     6.4959   6.7809   6.8223   7.1192   7.3454   7.3869   7.7271   7.9473
     8.0321   8.4850   8.5042   8.5486   8.5995   8.8036   9.1433   9.1944
     9.2843   9.3191   9.3826   9.5034   9.7820   9.8800  11.7438  14.5955
    15.0249  15.3330  15.9480  16.1454  16.1847  16.5143  16.7605  17.2935

          k = 0.1271 0.0000 0.0000 (  5183 PWs)   bands (ev):

   -30.4557 -15.3527 -15.3250 -11.1168 -10.6522 -10.5426  -7.8357  -6.9958
    -6.8561  -6.6413  -6.4318  -5.9938  -5.8816  -0.6134  -0.5603  -0.2961
    -0.2664  -0.1591  -0.1384   4.9269   4.9571   5.1121   5.1664   5.4360
     5.4377   6.3086   6.4100   6.4435   6.5010   6.6992   6.9758   6.9924
     7.0130   7.3248   7.3535   7.4328   7.6083   7.7237   7.7390   7.7960
     7.9117   8.1747   8.2298   8.2991   8.4015   8.5043   8.7934   8.8229
     9.1542   9.4064   9.4705   9.5284   9.5871   9.6419   9.7441  13.1415
    13.6297  14.5277  14.7339  15.4511  15.5258  16.4060  16.5899  16.7924

          k = 0.1271 0.1246 0.0000 (  5174 PWs)   bands (ev):

   -30.4536 -15.3344 -15.3070 -11.0811 -10.6654 -10.6383  -7.7066  -6.9520
    -6.8796  -6.6149  -6.4587  -6.0406  -5.9442  -0.5954  -0.5615  -0.3916
    -0.3861  -0.0487  -0.0340   4.8426   4.9519   5.0717   5.1701   5.2448
     5.5155   5.8666   6.1985   6.3900   6.5208   6.5903   6.7253   6.7412
     7.0759   7.2565   7.3592   7.4252   7.6003   7.6326   7.6711   7.8238
     8.1802   8.2389   8.2877   8.3656   8.4712   8.4879   8.6038   8.8932
     9.1698   9.3323   9.5870   9.6178   9.7389   9.9258  10.0944  13.4146
    13.7725  14.8360  14.9721  15.3400  15.5901  16.5188  16.6934  16.7244

          k = 0.1271 0.2492 0.0000 (  5153 PWs)   bands (ev):

   -30.4484 -15.2893 -15.2631 -10.9903 -10.8976 -10.6362  -7.4136  -6.9922
    -6.8399  -6.5668  -6.4719  -6.1528  -6.0983  -0.5778  -0.5564  -0.4535
    -0.4252   0.0037   0.0326   4.5007   4.7387   4.9632   5.1237   5.1340
     5.1824   5.6632   5.8262   6.2214   6.2844   6.3981   6.5554   6.6107
     6.7583   7.1022   7.4238   7.4360   7.4946   7.5822   7.5903   7.7877
     8.1789   8.2730   8.4198   8.5245   8.6948   8.8185   8.8666   8.9163
     9.0730   9.1556   9.6081   9.7833   9.8992  10.2292  10.9180  14.0034
    14.2064  15.1690  15.4772  15.6565  15.6663  16.6914  16.6987  16.9485

          k = 0.1271 0.3738 0.0000 (  5142 PWs)   bands (ev):

   -30.4433 -15.2431 -15.2181 -11.1054 -10.8922 -10.6267  -7.1576  -7.1121
    -6.7365  -6.5317  -6.4372  -6.2683  -6.2655  -0.5542  -0.5036  -0.4364
    -0.3781  -0.0384  -0.0265   4.1262   4.3444   4.4390   5.0711   5.1992
     5.2849   5.5825   5.7168   5.9102   5.9253   6.4098   6.4672   6.5476
     6.5894   6.8557   7.3471   7.3746   7.4346   7.4756   7.7654   7.8348
     8.1494   8.3553   8.5451   8.5836   8.6842   8.9323   9.0269   9.1212
     9.1957   9.3399   9.5057   9.7703  10.0005  10.3286  11.5120  14.3192
    14.8083  15.0101  15.5955  16.2808  16.3813  16.5393  16.8786  17.3551

          k = 0.1271-0.4983 0.0000 (  5126 PWs)   bands (ev):

   -30.4412 -15.2237 -15.1992 -11.1846 -10.8491 -10.6227  -7.2349  -6.9505
    -6.7525  -6.4235  -6.4162  -6.4154  -6.3126  -0.5219  -0.4730  -0.4081
    -0.3288  -0.1036  -0.0866   3.9577   4.1394   4.3074   5.0554   5.2166
     5.3899   5.5193   5.6910   5.7419   5.7949   6.4005   6.4507   6.4974
     6.6143   6.7436   7.3215   7.3227   7.3989   7.4338   7.7660   7.9494
     8.2424   8.2646   8.5875   8.5959   8.6411   8.9359   9.1056   9.1823
     9.3546   9.4546   9.4728   9.7643  10.0007  10.3132  11.7097  14.5530
    14.7443  14.9121  16.1097  16.1401  16.6076  16.7171  16.9163  17.4409

          k = 0.2542 0.0000 0.0000 (  5157 PWs)   bands (ev):

   -30.4492 -15.2958 -15.2722 -11.0139 -10.9193 -10.5337  -7.5567  -7.0919
    -6.9226  -6.5419  -6.5083  -6.1376  -5.9020  -0.7314  -0.5220  -0.1959
    -0.1939  -0.1660  -0.1060   4.4991   4.6304   5.1190   5.2433   5.4728
     5.5260   6.3003   6.3084   6.3264   6.3271   6.4854   6.6218   6.6416
     6.9844   7.2979   7.3569   7.4048   7.4364   7.5505   7.7817   7.8390
     7.8393   8.0908   8.2371   8.4949   8.5144   8.5545   8.6931   8.9535
     9.2485   9.2553   9.3036   9.3786   9.4376   9.6811   9.9811  13.7785
    14.1229  15.2988  15.3592  15.5082  16.0499  16.8097  16.9863  17.0312

          k = 0.2542 0.1246 0.0000 (  5142 PWs)   bands (ev):

   -30.4471 -15.2792 -15.2559 -10.9795 -10.9137 -10.6426  -7.4277  -7.0364
    -6.9061  -6.5676  -6.5142  -6.1460  -5.9399  -0.7328  -0.5154  -0.4839
    -0.4055  -0.0182  -0.0085   4.4162   4.6291   5.1035   5.1559   5.2531
     5.5843   5.8521   6.0766   6.2031   6.2744   6.3949   6.4481   6.6660
     7.0398   7.0717   7.4407   7.4761   7.5540   7.5876   7.6236   7.7906
     8.0614   8.1901   8.2704   8.5155   8.5601   8.6866   8.8019   8.8417
     9.1022   9.1576   9.5343   9.7326   9.8262  10.1780  10.2031  13.8852
    14.2271  15.1446  15.5849  15.7380  15.8513  16.7392  16.7963  16.9879

          k = 0.2542 0.2492 0.0000 (  5154 PWs)   bands (ev):

   -30.4421 -15.2386 -15.2160 -10.9098 -10.8922 -10.8662  -7.1363  -6.9236
    -6.8819  -6.6558  -6.4609  -6.1689  -6.0496  -0.7774  -0.7412  -0.5559
    -0.4952  -0.1007  -0.0840   4.1122   4.5458   4.9449   4.9609   4.9883
     5.1414   5.6789   5.7196   5.8294   5.9476   6.4300   6.5051   6.6420
     6.7522   7.0520   7.1203   7.4212   7.6018   7.7343   7.9396   8.0319
     8.0755   8.4419   8.5613   8.6443   8.7022   8.7794   9.0026   9.0346
     9.0654   9.1846   9.6617   9.8486  10.5162  10.7342  10.9307  13.9033
    14.5397  14.8958  15.6089  16.3372  16.3987  16.6515  16.8122  16.9965

          k = 0.2542 0.3738 0.0000 (  5134 PWs)   bands (ev):

   -30.4370 -15.1972 -15.1754 -11.0847 -10.8813 -10.7981  -7.0536  -6.8403
    -6.6694  -6.6340  -6.4524  -6.2087  -6.1979  -0.8130  -0.8000  -0.5942
    -0.4868  -0.3482  -0.2803   3.7499   4.2728   4.3501   4.8511   4.9226
     5.1112   5.2836   5.4725   5.8702   5.9085   6.3876   6.5262   6.5641
     6.6264   6.8356   7.0087   7.4692   7.6225   7.9002   8.1629   8.2181
     8.3253   8.5031   8.6930   8.7432   8.9386   9.0172   9.0302   9.1670
     9.3084   9.3131   9.5892   9.8496  10.8894  11.0577  11.4465  13.7400
    14.4374  15.0607  16.0685  16.1440  16.7026  16.9346  17.0360  17.3030

          k = 0.2542-0.4983 0.0000 (  5130 PWs)   bands (ev):

   -30.4349 -15.1798 -15.1583 -11.1624 -10.8758 -10.7568  -7.1248  -6.6292
    -6.6220  -6.6083  -6.4193  -6.3589  -6.2123  -0.7355  -0.6774  -0.6691
    -0.6555  -0.4268  -0.3858   3.5991   4.1144   4.1286   4.8297   4.9478
     5.0977   5.1325   5.3831   5.8555   5.9101   6.4177   6.4683   6.4951
     6.6707   6.7437   6.9842   7.4837   7.6436   7.9203   8.1968   8.4093
     8.4907   8.5721   8.7211   8.7609   8.8432   9.0239   9.1792   9.3267
     9.3948   9.4360   9.5055   9.7748  10.9899  11.1392  11.6080  13.6572
    14.3818  15.0690  15.9197  16.5984  16.8127  17.1245  17.1326  17.4494

          k = 0.3812 0.0000 0.0000 (  5150 PWs)   bands (ev):

   -30.4428 -15.2371 -15.2180 -11.1488 -10.9019 -10.5248  -7.2941  -7.2033
    -7.0909  -6.4894  -6.4685  -6.2791  -5.9022  -0.7929  -0.4723  -0.2262
    -0.1337  -0.0854  -0.0597   4.1251   4.2858   5.1176   5.4307   5.5072
     5.5459   6.1063   6.1709   6.1822   6.2549   6.2965   6.3108   6.4255
     6.9165   7.0378   7.1848   7.2783   7.4481   7.7069   7.7135   7.8210
     7.8622   8.0918   8.2405   8.4415   8.6245   8.7045   8.9748   8.9927
     9.1664   9.1870   9.2206   9.2778   9.4003   9.7459  10.0264  14.1957
    14.8292  15.2791  16.0718  16.2264  16.5351  16.8972  16.9093  17.0377

          k = 0.3812 0.1246 0.0000 (  5144 PWs)   bands (ev):

   -30.4407 -15.2224 -15.2035 -11.1414 -10.8690 -10.6311  -7.1776  -7.1211
    -7.0547  -6.5597  -6.4375  -6.2541  -5.9214  -0.7905  -0.4917  -0.4374
    -0.3709  -0.1101  -0.1028   4.0192   4.2629   5.0898   5.2909   5.3211
     5.5922   5.8201   5.8539   5.8627   5.9989   6.2699   6.5342   6.5497
     6.8789   6.9897   7.3488   7.4088   7.5035   7.6783   7.7537   7.8817
     7.9155   8.1015   8.4333   8.5429   8.6452   8.7769   8.9936   9.0164
     9.0979   9.1446   9.3332   9.6535   9.8975  10.2151  10.3009  14.0640
    14.8360  15.0308  16.0477  16.3709  16.4682  16.8392  16.9623  17.2752

          k = 0.3812 0.2492 0.0000 (  5143 PWs)   bands (ev):

   -30.4357 -15.1866 -15.1680 -11.1235 -10.8605 -10.7857  -6.9677  -6.9661
    -6.8485  -6.7300  -6.3667  -6.1924  -5.9939  -0.8440  -0.8334  -0.6455
    -0.4676  -0.3789  -0.3390   3.6838   4.1464   4.8853   5.0017   5.0075
     5.1566   5.2468   5.5265   5.8613   5.8825   6.4728   6.4899   6.6661
     6.7275   6.7799   7.0377   7.5022   7.8376   7.8517   8.1162   8.1457
     8.3241   8.3614   8.6327   8.7618   8.9207   8.9784   9.0331   9.1174
     9.1338   9.2121   9.6080   9.7103  10.8177  10.9467  11.0260  13.5941
    14.3848  15.2375  16.1069  16.5663  16.6235  16.7405  17.1970  17.2294

          k = 0.3812 0.3738 0.0000 (  5139 PWs)   bands (ev):

   -30.4307 -15.1502 -15.1319 -11.1063 -11.0613 -10.6961  -6.9466  -6.8347
    -6.7003  -6.5571  -6.3176  -6.1441  -6.1301  -1.0675  -1.0047  -0.7766
    -0.7395  -0.5950  -0.4294   3.2937   3.8971   4.3836   4.7380   4.7897
     4.8332   5.1129   5.4002   5.8567   6.0645   6.2980   6.5484   6.5706
     6.6624   6.7116   6.8176   7.5516   7.9304   8.2290   8.4555   8.5336
     8.5537   8.8004   8.8346   8.9517   8.9592   8.9891   9.2342   9.3002
     9.3402   9.4275   9.5816   9.9222  11.3635  11.4792  11.5881  13.1135
    14.1062  15.3862  16.0098  16.4637  16.6398  16.8034  16.9284  17.2337

          k = 0.3812-0.4983 0.0000 (  5132 PWs)   bands (ev):

   -30.4286 -15.1349 -15.1168 -11.1401 -11.0973 -10.6569  -7.0089  -6.8073
    -6.4649  -6.4294  -6.3337  -6.3081  -6.1044  -1.0692  -1.0557  -1.0159
    -0.8301  -0.6516  -0.4222   3.1293   3.7599   4.1462   4.6912   4.6974
     4.7449   5.1038   5.3653   5.8542   6.1408   6.2309   6.4814   6.5262
     6.6387   6.6797   6.8187   7.5613   7.9589   8.3981   8.6050   8.6143
     8.7144   8.8826   8.9196   8.9974   9.0409   9.1192   9.2640   9.3349
     9.4074   9.4476   9.7837   9.9164  11.4673  11.6926  11.7806  12.9304
    14.0402  15.4061  15.7290  16.4650  16.6722  16.7256  17.0816  17.3843

          k =-0.5083 0.0000 0.0000 (  5126 PWs)   bands (ev):

   -30.4401 -15.2122 -15.1952 -11.2359 -10.8523 -10.5210  -7.2635  -7.1771
    -7.1726  -6.4669  -6.4498  -6.3376  -5.8969  -0.8096  -0.4460  -0.2395
    -0.1544  -0.0384  -0.0137   3.9811   4.1421   5.1301   5.4591   5.5548
     5.6014   6.0467   6.0943   6.1183   6.1279   6.1315   6.1579   6.5817
     6.7850   6.8570   7.1775   7.2729   7.4433   7.7003   7.8057   7.8200
     7.8576   8.1157   8.1254   8.6053   8.6611   8.7474   8.9241   8.9606
     9.0879   9.2156   9.2199   9.3715   9.4331   9.7653   9.9619  14.3328
    15.2057  15.2489  16.1868  16.6926  16.7181  16.8579  16.9571  17.0662

          k =-0.5083 0.1246 0.0000 (  5156 PWs)   bands (ev):

   -30.4381 -15.1984 -15.1814 -11.2281 -10.8201 -10.6262  -7.1901  -7.1377
    -7.0405  -6.5367  -6.4177  -6.3000  -5.9095  -0.8015  -0.4491  -0.3921
    -0.2748  -0.2380  -0.2034   3.8652   4.1094   5.0863   5.3351   5.4907
     5.5894   5.6314   5.6512   5.8007   5.9760   6.2336   6.4475   6.6580
     6.8138   6.9564   7.3134   7.3235   7.5231   7.7067   7.7482   7.8731
     8.0104   8.1143   8.3740   8.6353   8.7053   8.7821   8.9014   9.0589
     9.1386   9.1869   9.4079   9.6126   9.8907  10.2172  10.2719  14.0854
    14.8182  15.2915  16.3276  16.4402  16.8986  16.9638  16.9973  17.3293

          k =-0.5083 0.2492 0.0000 (  5152 PWs)   bands (ev):

   -30.4331 -15.1647 -15.1477 -11.2090 -10.8538 -10.7387  -7.0393  -6.9843
    -6.7468  -6.7082  -6.3379  -6.2049  -5.9676  -0.8040  -0.7476  -0.6467
    -0.6457  -0.5469  -0.4210   3.5131   3.9714   4.8787   5.0030   5.0627
     5.0686   5.1789   5.4177   5.8441   5.8586   6.5011   6.5635   6.6405
     6.6946   6.7250   7.0004   7.5364   7.8564   7.9953   8.1708   8.1908
     8.3167   8.4876   8.7024   8.8236   8.8512   9.0159   9.0256   9.1167
     9.3381   9.4112   9.4119   9.5840  10.8838  10.9539  11.0910  13.4342
    14.2830  15.4822  16.4292  16.5616  16.7087  16.7441  17.2422  17.2570

          k =-0.5083 0.3738 0.0000 (  5134 PWs)   bands (ev):

   -30.4281 -15.1304 -15.1136 -11.1899 -11.0541 -10.6512  -6.9362  -6.8843
    -6.6918  -6.4788  -6.2543  -6.1120  -6.1022  -1.0906  -1.0525  -1.0118
    -0.7942  -0.7600  -0.4144   3.1066   3.7154   4.3977   4.6670   4.7107
     4.7800   5.1188   5.3739   5.8276   6.0561   6.3934   6.4837   6.5244
     6.6683   6.7337   6.7684   7.5769   8.1028   8.3210   8.5611   8.6407
     8.6492   8.8213   8.9110   9.0020   9.0554   9.2443   9.2448   9.2686
     9.2709   9.4214   9.7774   9.8158  11.3292  11.6642  11.7647  12.8683
    13.9927  15.6149  15.9645  16.3040  16.5682  16.7908  17.0481  17.2178

          k =-0.5083-0.4983 0.0000 (  5144 PWs)   bands (ev):

   -30.4260 -15.1161 -15.0993 -11.1820 -11.1309 -10.6129  -6.9589  -6.8920
    -6.4345  -6.3734  -6.3093  -6.2174  -6.0570  -1.2305  -1.1872  -1.1546
    -0.8896  -0.7650  -0.4080   2.9345   3.5792   4.1605   4.5308   4.6633
     4.7152   5.1123   5.3587   5.8238   6.1519   6.3241   6.3891   6.4852
     6.6382   6.6636   6.8160   7.5864   8.1405   8.5736   8.6682   8.7328
     8.7654   9.0002   9.0405   9.0840   9.0995   9.1248   9.2956   9.3844
     9.4296   9.4314   9.9255  10.0224  11.4020  11.9324  12.0177  12.6578
    13.9269  15.6413  15.6595  16.2667  16.4409  16.5124  16.9287  17.4633

     the Fermi energy is    10.0623 ev

!    total energy              =    -696.88545568 Ry
     Harris-Foulkes estimate   =    -696.88545582 Ry
     estimated scf accuracy    <       0.00000039 Ry

     The total energy is the sum of the following terms:

     one-electron contribution =    -202.97836023 Ry
     hartree contribution      =     186.65035494 Ry
     xc contribution           =    -148.94126404 Ry
     ewald contribution        =    -531.61326766 Ry
     smearing contrib. (-TS)   =      -0.00291869 Ry

     convergence has been achieved in  27 iterations

     Forces acting on atoms (cartesian axes, Ry/au):

     atom    1 type  2   force =     0.00000000    0.00000000   -0.00397858
     atom    2 type  2   force =     0.00000000    0.00000000    0.00397858
     atom    3 type  1   force =     0.00000000    0.00000000    0.00000000
     atom    4 type  4   force =     0.00000000    0.00000000    0.00272487
     atom    5 type  4   force =     0.00000000    0.00000000   -0.00272487
     atom    6 type  4   force =     0.00000000    0.00000000    0.00000000
     atom    7 type  3   force =     0.00000000    0.00000000    0.00000000
     atom    8 type  3   force =     0.00000000    0.00000000    0.00129837
     atom    9 type  3   force =     0.00000000    0.00000000   -0.00129837
     atom   10 type  3   force =     0.00000000    0.00000000    0.00108409
     atom   11 type  3   force =     0.00000000    0.00000000   -0.00108409
     atom   12 type  3   force =     0.00000000    0.00000000   -0.00485785
     atom   13 type  3   force =     0.00000000    0.00000000    0.00485785

     Total force =     0.009971     Total SCF correction =     0.000176


     Computing stress (Cartesian axis) and pressure

          total   stress  (Ry/bohr**3)                   (kbar)     P=      -36.49
  -0.00023158   0.00000000   0.00000000          -34.07        0.00        0.00
   0.00000000  -0.00025090   0.00000000            0.00      -36.91        0.00
   0.00000000   0.00000000  -0.00026172            0.00        0.00      -38.50


     number of scf cycles    =   2
     number of bfgs steps    =   1

     enthalpy old            =    -696.8583258240 Ry
     enthalpy new            =    -696.8854556795 Ry

     CASE: enthalpy_new < enthalpy_old

     new trust radius        =       0.0691494888 bohr
     new conv_thr            =       0.0000004858 Ry

     new unit-cell volume =   1112.90627 a.u.^3 (   164.91569 Ang^3 )
     density =      6.70801 g/cm^3

CELL_PARAMETERS (angstrom)
   3.747462095   0.000000000   0.000000000
   0.000000000   3.819460284   0.000000000
   0.000000000   0.000000000  11.521863790

ATOMIC_POSITIONS (angstrom)
Ba            1.8737300730        1.9097311148        9.4317332690
Ba            1.8737300730        1.9097311148        2.0901344185
Y             1.8737300730        1.9097311148        5.7609338437
Cu            0.0000000000        0.0000000000        7.4535053161
Cu            0.0000000000        0.0000000000        4.0683613969
Cu            0.0000000000        0.0000000000        0.0000000000
O             0.0000000000        1.9097311148        0.0000000000
O             1.8737300730        0.0000000000        7.1503959499
O             1.8737300730        0.0000000000        4.3714707631
O             0.0000000000        1.9097311148        7.1611649583
O             0.0000000000        1.9097311148        4.3607027291
O             0.0000000000        0.0000000000        9.6879190076
O             0.0000000000        0.0000000000        1.8339486798



     Writing output data file /n/holyscratch01/hoffman_lab/ruizhe/outdir/YBCO_ecut40.save/
     NEW-OLD atomic charge density approx. for the potential
     extrapolated charge  102.84907, renormalised to  106.00000

     total cpu time spent up to now is      159.7 secs

     Self-consistent Calculation

     iteration #  1     ecut=    40.00 Ry     beta= 0.50
     Davidson diagonalization with overlap
     ethr =  1.00E-06,  avg # of iterations = 12.1

     negative rho (up, down):  3.650E-02 0.000E+00

     total cpu time spent up to now is      167.0 secs

     total energy              =    -692.56621866 Ry
     Harris-Foulkes estimate   =    -703.73349574 Ry
     estimated scf accuracy    <       5.47218069 Ry

     iteration #  2     ecut=    40.00 Ry     beta= 0.50
     Davidson diagonalization with overlap
     ethr =  5.16E-03,  avg # of iterations =  5.7

     negative rho (up, down):  1.745E-01 0.000E+00

     total cpu time spent up to now is      171.7 secs

     total energy              =    -691.98447740 Ry
     Harris-Foulkes estimate   =    -727.39103775 Ry
     estimated scf accuracy    <    9583.97791104 Ry

     iteration #  3     ecut=    40.00 Ry     beta= 0.50
     Davidson diagonalization with overlap
     ethr =  5.16E-03,  avg # of iterations =  4.0

     negative rho (up, down):  1.807E-01 0.000E+00

     total cpu time spent up to now is      175.5 secs

     total energy              =    -662.78565444 Ry
     Harris-Foulkes estimate   =    -732.34663394 Ry
     estimated scf accuracy    <   26770.45936658 Ry

     iteration #  4     ecut=    40.00 Ry     beta= 0.50
     Davidson diagonalization with overlap
     ethr =  5.16E-03,  avg # of iterations =  4.3

     negative rho (up, down):  6.802E-02 0.000E+00

     total cpu time spent up to now is      179.7 secs

     total energy              =    -682.04991313 Ry
     Harris-Foulkes estimate   =    -711.90036816 Ry
     estimated scf accuracy    <   29293.27978938 Ry

     iteration #  5     ecut=    40.00 Ry     beta= 0.50
     Davidson diagonalization with overlap
     ethr =  5.16E-03,  avg # of iterations =  3.2

     negative rho (up, down):  1.058E-02 0.000E+00

     total cpu time spent up to now is      183.0 secs

     total energy              =    -696.72855488 Ry
     Harris-Foulkes estimate   =    -697.04731175 Ry
     estimated scf accuracy    <      18.68357460 Ry

     iteration #  6     ecut=    40.00 Ry     beta= 0.50
     Davidson diagonalization with overlap
     ethr =  5.16E-03,  avg # of iterations =  4.0

     total cpu time spent up to now is      185.9 secs

     total energy              =    -694.62466160 Ry
     Harris-Foulkes estimate   =    -699.00702670 Ry
     estimated scf accuracy    <     815.87079955 Ry

     iteration #  7     ecut=    40.00 Ry     beta= 0.50
     Davidson diagonalization with overlap
     ethr =  5.16E-03,  avg # of iterations =  4.0

     total cpu time spent up to now is      189.1 secs

     total energy              =    -696.94277235 Ry
     Harris-Foulkes estimate   =    -696.97596357 Ry
     estimated scf accuracy    <       1.88467276 Ry

     iteration #  8     ecut=    40.00 Ry     beta= 0.50
     Davidson diagonalization with overlap
     ethr =  1.78E-03,  avg # of iterations =  1.0

     total cpu time spent up to now is      191.1 secs

     total energy              =    -696.93054781 Ry
     Harris-Foulkes estimate   =    -696.95853236 Ry
     estimated scf accuracy    <       0.56516629 Ry

     iteration #  9     ecut=    40.00 Ry     beta= 0.50
     Davidson diagonalization with overlap
     ethr =  5.33E-04,  avg # of iterations =  1.0

     total cpu time spent up to now is      193.0 secs

     total energy              =    -696.91589680 Ry
     Harris-Foulkes estimate   =    -696.93476512 Ry
     estimated scf accuracy    <       0.36728905 Ry

     iteration # 10     ecut=    40.00 Ry     beta= 0.50
     Davidson diagonalization with overlap
     ethr =  3.46E-04,  avg # of iterations =  1.2

     total cpu time spent up to now is      195.1 secs

     total energy              =    -696.87380558 Ry
     Harris-Foulkes estimate   =    -696.91781340 Ry
     estimated scf accuracy    <       0.28590766 Ry

     iteration # 11     ecut=    40.00 Ry     beta= 0.50
     Davidson diagonalization with overlap
     ethr =  2.70E-04,  avg # of iterations =  2.4

     total cpu time spent up to now is      197.3 secs

     total energy              =    -696.88734999 Ry
     Harris-Foulkes estimate   =    -696.89301851 Ry
     estimated scf accuracy    <       0.04756489 Ry

     iteration # 12     ecut=    40.00 Ry     beta= 0.50
     Davidson diagonalization with overlap
     ethr =  4.49E-05,  avg # of iterations =  6.4

     total cpu time spent up to now is      200.8 secs

     total energy              =    -696.88725951 Ry
     Harris-Foulkes estimate   =    -696.89021347 Ry
     estimated scf accuracy    <       0.24269587 Ry

     iteration # 13     ecut=    40.00 Ry     beta= 0.50
     Davidson diagonalization with overlap
     ethr =  4.49E-05,  avg # of iterations =  2.0

     total cpu time spent up to now is      203.1 secs

     total energy              =    -696.88705661 Ry
     Harris-Foulkes estimate   =    -696.89247445 Ry
     estimated scf accuracy    <       3.93027732 Ry

     iteration # 14     ecut=    40.00 Ry     beta= 0.50
     Davidson diagonalization with overlap
     ethr =  4.49E-05,  avg # of iterations =  2.0

     total cpu time spent up to now is      205.3 secs

     total energy              =    -696.88869852 Ry
     Harris-Foulkes estimate   =    -696.88983624 Ry
     estimated scf accuracy    <       0.06876116 Ry

     iteration # 15     ecut=    40.00 Ry     beta= 0.50
     Davidson diagonalization with overlap
     ethr =  4.49E-05,  avg # of iterations =  1.0

     total cpu time spent up to now is      207.3 secs

     total energy              =    -696.88903739 Ry
     Harris-Foulkes estimate   =    -696.88934902 Ry
     estimated scf accuracy    <       0.02383194 Ry

     iteration # 16     ecut=    40.00 Ry     beta= 0.50
     Davidson diagonalization with overlap
     ethr =  2.25E-05,  avg # of iterations =  2.0

     total cpu time spent up to now is      209.5 secs

     total energy              =    -696.88917769 Ry
     Harris-Foulkes estimate   =    -696.88946536 Ry
     estimated scf accuracy    <       0.06464776 Ry

     iteration # 17     ecut=    40.00 Ry     beta= 0.50
     Davidson diagonalization with overlap
     ethr =  2.25E-05,  avg # of iterations =  1.6

     total cpu time spent up to now is      211.5 secs

     total energy              =    -696.88919299 Ry
     Harris-Foulkes estimate   =    -696.88943394 Ry
     estimated scf accuracy    <       0.08507085 Ry

     iteration # 18     ecut=    40.00 Ry     beta= 0.50
     Davidson diagonalization with overlap
     ethr =  2.25E-05,  avg # of iterations =  1.0

     total cpu time spent up to now is      213.5 secs

     total energy              =    -696.88926433 Ry
     Harris-Foulkes estimate   =    -696.88929819 Ry
     estimated scf accuracy    <       0.00661398 Ry

     iteration # 19     ecut=    40.00 Ry     beta= 0.50
     Davidson diagonalization with overlap
     ethr =  6.24E-06,  avg # of iterations =  1.7

     total cpu time spent up to now is      215.6 secs

     total energy              =    -696.88929280 Ry
     Harris-Foulkes estimate   =    -696.88929405 Ry
     estimated scf accuracy    <       0.00044846 Ry

     iteration # 20     ecut=    40.00 Ry     beta= 0.50
     Davidson diagonalization with overlap
     ethr =  4.23E-07,  avg # of iterations =  2.8

     total cpu time spent up to now is      218.0 secs

     total energy              =    -696.88929625 Ry
     Harris-Foulkes estimate   =    -696.88929675 Ry
     estimated scf accuracy    <       0.00014808 Ry

     iteration # 21     ecut=    40.00 Ry     beta= 0.50
     Davidson diagonalization with overlap
     ethr =  1.40E-07,  avg # of iterations =  1.0

     total cpu time spent up to now is      220.0 secs

     total energy              =    -696.88929661 Ry
     Harris-Foulkes estimate   =    -696.88929673 Ry
     estimated scf accuracy    <       0.00003437 Ry

     iteration # 22     ecut=    40.00 Ry     beta= 0.50
     Davidson diagonalization with overlap
     ethr =  3.24E-08,  avg # of iterations =  1.0

     total cpu time spent up to now is      221.9 secs

     total energy              =    -696.88929655 Ry
     Harris-Foulkes estimate   =    -696.88929669 Ry
     estimated scf accuracy    <       0.00001962 Ry

     iteration # 23     ecut=    40.00 Ry     beta= 0.50
     Davidson diagonalization with overlap
     ethr =  1.85E-08,  avg # of iterations =  2.3

     total cpu time spent up to now is      224.2 secs

     total energy              =    -696.88929647 Ry
     Harris-Foulkes estimate   =    -696.88929692 Ry
     estimated scf accuracy    <       0.00026935 Ry

     iteration # 24     ecut=    40.00 Ry     beta= 0.50
     Davidson diagonalization with overlap
     ethr =  1.85E-08,  avg # of iterations =  1.6

     total cpu time spent up to now is      226.3 secs

[...]

   -29.9243 -14.7360 -14.7031 -10.5756 -10.4219  -9.9984  -7.1596  -6.6275
    -6.4434  -6.1987  -5.9674  -5.7767  -5.7387  -0.0027   0.0998   0.2543
     0.3388   0.4773   0.5468   4.9431   5.1281   5.3280   5.5025   5.6443
     5.8101   6.0009   6.2533   6.6539   6.7787   6.9687   7.0123   7.0598
     7.2186   7.4193   7.7603   7.7719   7.9063   7.9213   8.0277   8.2545
     8.4867   8.8929   8.9138   8.9240   9.0849   9.1891   9.3275   9.4884
     9.5622   9.8512   9.8743   9.9457   9.9927  10.5883  11.4284  14.4300
    14.5852  15.8672  15.9181  16.0402  16.1470  17.1563  17.3520  17.8440

          k = 0.0000 0.3759 0.0000 (  4736 PWs)   bands (ev):

   -29.9187 -14.6822 -14.6508 -10.6474 -10.4671  -9.9906  -6.8624  -6.8314
    -6.4129  -6.1257  -5.9255  -5.9217  -5.8904   0.0235   0.1406   0.2908
     0.3882   0.5772   0.6526   4.5306   4.7761   4.8462   5.4030   5.8570
     5.8608   5.8941   6.0576   6.6135   6.6963   6.7130   6.7295   6.8584
     6.9960   7.2989   7.4677   7.5749   7.7786   7.8117   8.0772   8.3084
     8.5517   8.8577   8.9600   9.0050   9.1344   9.3233   9.5657   9.6285
     9.7676   9.8327   9.8460   9.8464  10.1127  10.5658  12.0451  14.8173
    15.4412  15.8618  16.0812  16.7964  16.9936  17.0702  17.1197  18.2094

          k = 0.0000-0.5012 0.0000 (  4718 PWs)   bands (ev):

   -29.9164 -14.6594 -14.6287 -10.7327 -10.4189  -9.9874  -6.9232  -6.7149
    -6.4566  -6.0128  -6.0099  -5.9843  -5.8992   0.0408   0.1552   0.3074
     0.4046   0.6204   0.6985   4.3335   4.6051   4.7231   5.3790   5.7598
     5.8878   6.0373   6.0414   6.3859   6.5906   6.7049   6.7722   6.8259
     6.9184   7.2127   7.2372   7.5529   7.6585   7.7873   8.1804   8.3172
     8.4657   8.9939   9.0204   9.0626   9.0675   9.2979   9.5946   9.7029
     9.7930   9.8403   9.8430   9.9698  10.2430  10.4460  12.2496  15.0505
    15.5367  15.8394  16.5962  16.7003  16.9070  17.2321  17.4642  18.3441

          k = 0.1275 0.0000 0.0000 (  4725 PWs)   bands (ev):

   -29.9294 -14.7842 -14.7514 -10.6710 -10.1503 -10.0261  -7.4608  -6.6080
    -6.4213  -6.2404  -6.0260  -5.6201  -5.5085  -0.0649   0.0112   0.2544
     0.2881   0.3941   0.4142   5.2832   5.3354   5.4884   5.4979   5.8251
     5.8610   6.6857   6.7502   6.8347   6.8979   7.1134   7.4017   7.4143
     7.4799   7.7688   7.8029   7.8700   8.0051   8.1334   8.1663   8.1932
     8.3511   8.5739   8.6908   8.7476   8.8690   8.9149   9.2275   9.2290
     9.6620   9.8561   9.9791  10.0809  10.1101  10.1458  10.3172  13.6998
    14.0842  15.1687  15.2802  15.9675  16.1243  17.0643  17.2860  17.5852

          k = 0.1275 0.1253 0.0000 (  4746 PWs)   bands (ev):

   -29.9271 -14.7638 -14.7314 -10.6325 -10.1637 -10.1329  -7.3243  -6.5648
    -6.4519  -6.2101  -6.0525  -5.6685  -5.5712  -0.0522   0.0074   0.1600
     0.1604   0.5114   0.5329   5.1908   5.3325   5.4513   5.5020   5.6317
     5.9382   6.2843   6.6122   6.7750   6.7849   7.0197   7.1481   7.1594
     7.5105   7.7075   7.7807   7.8660   7.9735   8.0384   8.0953   8.2514
     8.6394   8.6460   8.7819   8.7931   8.8942   8.9206   9.0722   9.3806
     9.6404   9.8337  10.0636  10.1045  10.3129  10.4496  10.6115  13.9721
    14.2233  15.4726  15.5274  15.8741  16.1663  17.1571  17.3017  17.4455

          k = 0.1275 0.2506 0.0000 (  4732 PWs)   bands (ev):

   -29.9215 -14.7134 -14.6823 -10.5343 -10.4147 -10.1323  -7.0218  -6.5920
    -6.4577  -6.1533  -6.0559  -5.7833  -5.7199  -0.0259  -0.0164   0.1111
     0.1233   0.5709   0.6113   4.8483   5.1230   5.3337   5.4831   5.5167
     5.5577   6.0743   6.2327   6.6485   6.6961   6.7825   6.7990   7.0339
     7.1863   7.5428   7.8219   7.8593   7.8656   7.9956   8.0056   8.2145
     8.6446   8.7453   8.8537   9.0213   9.1372   9.2718   9.3605   9.4218
     9.5262   9.6474  10.1136  10.3026  10.3972  10.7507  11.4302  14.4703
    14.7309  15.6912  16.0377  16.3024  16.3088  17.3208  17.3374  17.7260

          k = 0.1275 0.3759 0.0000 (  4745 PWs)   bands (ev):

   -29.9159 -14.6618 -14.6319 -10.6379 -10.4274 -10.1218  -6.7868  -6.7197
    -6.3735  -6.1077  -6.0107  -5.8978  -5.8685   0.0034   0.0301   0.1311
     0.1790   0.5287   0.5516   4.4681   4.7295   4.8221   5.3879   5.5831
     5.6649   5.9911   6.0968   6.3306   6.3490   6.7444   6.8243   6.9402
     6.9741   7.2808   7.7436   7.7717   7.8012   7.9080   8.1809   8.2650
     8.6240   8.8199   8.9926   9.0799   9.2171   9.4268   9.4769   9.5891
     9.6787   9.8039  10.0595  10.2586  10.4893  10.8451  12.0174  14.7789
    15.3019  15.5376  16.2461  16.9924  17.0601  17.2109  17.4880  18.0968

          k = 0.1275-0.5012 0.0000 (  4752 PWs)   bands (ev):

   -29.9136 -14.6400 -14.6107 -10.7226 -10.3799 -10.1173  -6.8758  -6.5565
    -6.4034  -6.0145  -5.9847  -5.9845  -5.9467   0.0320   0.0691   0.1569
     0.2429   0.4645   0.4765   4.2962   4.5228   4.6891   5.3625   5.6042
     5.7642   5.9254   6.0655   6.1719   6.2187   6.7031   6.8707   6.9228
     6.9247   7.1690   7.7283   7.7314   7.7435   7.8522   8.1844   8.3860
     8.6724   8.7837   9.0462   9.1207   9.1353   9.4279   9.5575   9.6561
     9.8138   9.9410  10.0765  10.2201  10.4866  10.8253  12.2097  15.0408
    15.2033  15.4691  16.7861  16.8128  17.1743  17.4486  17.6334  18.2996

          k = 0.2550 0.0000 0.0000 (  4762 PWs)   bands (ev):

   -29.9225 -14.7215 -14.6936 -10.5606 -10.4414 -10.0167  -7.1708  -6.7199
    -6.5165  -6.1261  -6.0951  -5.7672  -5.5237  -0.1932   0.0505   0.3652
     0.3691   0.3968   0.4662   4.8755   5.0154   5.4178   5.6215   5.8595
     5.9248   6.5868   6.7120   6.7142   6.7635   6.8246   7.0402   7.0523
     7.4726   7.7407   7.7666   7.8246   7.8702   7.9683   8.2150   8.2338
     8.2351   8.5405   8.7092   8.9467   8.9772   8.9851   9.1664   9.3810
     9.7434   9.7712   9.7752   9.8937   9.9634  10.2352  10.5496  14.2775
    14.5865  15.8868  15.9284  16.0634  16.6712  17.5647  17.5909  17.7242

          k = 0.2550 0.1253 0.0000 (  4748 PWs)   bands (ev):

   -29.9202 -14.7031 -14.6755 -10.5235 -10.4352 -10.1366  -7.0337  -6.6633
    -6.4975  -6.1622  -6.0956  -5.7768  -5.5620  -0.2002   0.0523   0.0601
     0.1459   0.5624   0.5695   4.7884   5.0145   5.4111   5.5394   5.6311
     5.9777   6.2637   6.4631   6.6052   6.6862   6.6988   6.8390   7.0550
     7.4838   7.5287   7.8487   7.8651   7.9841   8.0044   8.0285   8.2141
     8.5322   8.6667   8.7331   8.9504   9.0130   9.1562   9.2745   9.2894
     9.5946   9.6631  10.0057  10.3175  10.3277  10.7001  10.7222  14.3580
    14.7169  15.6816  16.2109  16.2841  16.4887  17.3989  17.4103  17.8638

          k = 0.2550 0.2506 0.0000 (  4744 PWs)   bands (ev):

   -29.9147 -14.6579 -14.6311 -10.4305 -10.4288 -10.3801  -6.7328  -6.5200
    -6.5042  -6.2592  -6.0361  -5.8025  -5.6704  -0.2583  -0.2090  -0.0063
     0.0610   0.4806   0.4899   4.4723   4.9270   5.3314   5.3524   5.3689
     5.4526   6.0755   6.1246   6.2466   6.3799   6.7694   6.8324   7.0370
     7.1988   7.4892   7.5380   7.7869   8.0386   8.1408   8.3416   8.4848
     8.5808   8.8990   9.0672   9.0981   9.1489   9.2012   9.5010   9.5302
     9.5386   9.6711  10.2039  10.3689  11.0201  11.2422  11.4359  14.3487
    15.0486  15.4552  16.2215  16.9685  17.0117  17.3227  17.5557  17.6944

          k = 0.2550 0.3759 0.0000 (  4732 PWs)   bands (ev):

   -29.9091 -14.6118 -14.5858 -10.6154 -10.3989 -10.3259  -6.6749  -6.4441
    -6.2823  -6.2260  -6.0275  -5.8354  -5.8157  -0.2828  -0.2774  -0.0546
     0.0556   0.2241   0.2800   4.1002   4.6495   4.7248   5.2489   5.3192
     5.4073   5.7001   5.8804   6.3000   6.3301   6.7880   6.8051   7.0133
     7.0232   7.2545   7.4204   7.8664   8.0513   8.3021   8.6191   8.7044
     8.7313   8.9564   9.1548   9.2685   9.3713   9.4809   9.5311   9.6566
     9.7844   9.7997  10.1735  10.3118  11.3903  11.5663  11.9416  14.1919
    15.0199  15.5414  16.7393  16.8169  17.3847  17.6240  17.7889  18.0373

          k = 0.2550-0.5012 0.0000 (  4730 PWs)   bands (ev):

   -29.9068 -14.5923 -14.5667 -10.6983 -10.3928 -10.2804  -6.7565  -6.2617
    -6.2090  -6.1949  -6.0229  -5.9289  -5.8522  -0.1953  -0.1408  -0.1332
    -0.1320   0.1341   0.1654   3.9454   4.4851   4.5038   5.2264   5.3476
     5.3947   5.5551   5.7892   6.2965   6.3291   6.7451   6.8381   6.9463
     7.0903   7.1209   7.3888   7.9005   8.0698   8.3204   8.6529   8.8874
     8.9041   8.9984   9.1838   9.2938   9.3374   9.4776   9.6455   9.8191
     9.8944   9.9165  10.0897  10.2205  11.4881  11.6477  12.0972  14.1164
    14.9855  15.5435  16.5818  17.2521  17.5031  17.8463  17.8818  18.1575

          k = 0.3825 0.0000 0.0000 (  4772 PWs)   bands (ev):

   -29.9156 -14.6566 -14.6341 -10.6881 -10.4394 -10.0072  -6.9107  -6.8427
    -6.7220  -6.0615  -6.0396  -5.9112  -5.5136  -0.2712   0.0996   0.3521
     0.4628   0.4836   0.5126   4.5044   4.6706   5.4016   5.8117   5.8770
     5.9278   6.4130   6.5432   6.5563   6.5941   6.7090   6.7160   6.8282
     7.3967   7.4212   7.6032   7.7233   7.9423   8.1500   8.1641   8.1793
     8.2411   8.5546   8.7049   8.9211   9.0631   9.1954   9.4547   9.4910
     9.6586   9.6851   9.6925   9.7747   9.9140  10.2971  10.6078  14.6319
    15.3062  15.8158  16.5978  16.8532  17.2537  17.6282  17.6955  17.7094

          k = 0.3825 0.1253 0.0000 (  4748 PWs)   bands (ev):

   -29.9133 -14.6404 -14.6180 -10.6799 -10.4038 -10.1242  -6.8074  -6.7357
    -6.6824  -6.1388  -6.0066  -5.8877  -5.5338  -0.2719   0.0727   0.1180
     0.1900   0.4695   0.4831   4.3927   4.6461   5.3862   5.6685   5.7065
     5.9684   6.2182   6.2527   6.2594   6.3753   6.5987   6.8814   6.9560
     7.3493   7.4292   7.7642   7.8182   7.8739   8.1437   8.1639   8.3104
     8.3768   8.5921   8.8870   9.0237   9.0898   9.2704   9.5008   9.5075
     9.5575   9.6045   9.8027  10.2361  10.4055  10.7335  10.8385  14.4972
    15.3428  15.5574  16.6707  16.9692  17.0982  17.5590  17.7397  17.9758

          k = 0.3825 0.2506 0.0000 (  4751 PWs)   bands (ev):

   -29.9079 -14.6008 -14.5787 -10.6600 -10.3736 -10.3133  -6.6057  -6.5860
    -6.4310  -6.3270  -5.9305  -5.8305  -5.6095  -0.3305  -0.3007  -0.1112
     0.0752   0.1944   0.2329   4.0432   4.5237   5.2652   5.3989   5.4011
     5.4467   5.6497   5.9509   6.2667   6.2904   6.8099   6.8865   7.0184
     7.1843   7.2326   7.4556   7.9026   8.2453   8.2857   8.5945   8.6101
     8.7389   8.8165   9.1293   9.2156   9.3730   9.4657   9.4986   9.5831
     9.6326   9.7061  10.1163  10.2656  11.3220  11.4504  11.5463  14.0255
    14.9701  15.7166  16.7718  17.2453  17.3042  17.4584  17.8402  17.9843

          k = 0.3825 0.3759 0.0000 (  4755 PWs)   bands (ev):

   -29.9024 -14.5605 -14.5386 -10.6408 -10.5896 -10.2151  -6.5588  -6.4458
    -6.3342  -6.1283  -5.8765  -5.7743  -5.7626  -0.5471  -0.4876  -0.2417
    -0.2218  -0.0494   0.1205   3.6428   4.2681   4.7600   5.1315   5.1851
     5.2483   5.4055   5.8406   6.3021   6.4745   6.7172   6.8553   7.0093
     7.0590   7.1247   7.2522   7.9949   8.3731   8.6276   8.9135   9.0081
     9.0132   9.2138   9.3232   9.4139   9.4144   9.4525   9.7478   9.7891
     9.8392   9.9330  10.1253  10.3910  11.8468  11.9967  12.1075  13.5417
    14.7294  15.8707  16.6600  17.1484  17.3196  17.5322  17.6946  17.9062

          k = 0.3825-0.5012 0.0000 (  4744 PWs)   bands (ev):

   -29.9001 -14.5436 -14.5218 -10.6740 -10.6308 -10.1717  -6.6296  -6.4129
    -6.0843  -6.0382  -5.8959  -5.8932  -5.7518  -0.5496  -0.5361  -0.4917
    -0.3031  -0.1326   0.1231   3.4748   4.1287   4.5164   5.0920   5.1124
     5.1413   5.3979   5.8116   6.3156   6.5513   6.6523   6.8115   6.9419
     7.0507   7.0719   7.2487   8.0155   8.4080   8.7967   9.0562   9.0643
     9.1966   9.3369   9.3484   9.4540   9.5340   9.5788   9.7733   9.9015
     9.9139   9.9525  10.2682  10.3689  11.9495  12.2079  12.3000  13.3576
    14.6782  15.8980  16.3598  17.1599  17.3163  17.4985  17.8040  18.0333

          k =-0.5100 0.0000 0.0000 (  4750 PWs)   bands (ev):

   -29.9127 -14.6290 -14.6089 -10.7812 -10.3853 -10.0032  -6.9180  -6.8220
    -6.7818  -6.0347  -6.0157  -5.9707  -5.5027  -0.2986   0.1239   0.3463
     0.4559   0.5351   0.5630   4.3606   4.5253   5.4074   5.8193   5.9374
     5.9778   6.3655   6.3944   6.4914   6.5119   6.5274   6.5643   6.9949
     7.1639   7.3354   7.5874   7.7200   7.9528   8.1549   8.1583   8.2313
     8.2794   8.5651   8.6214   9.0674   9.1055   9.2452   9.4088   9.4917
     9.6182   9.6681   9.7180   9.8819   9.8844  10.3121  10.5564  14.7601
    15.6571  15.7888  16.7093  17.3562  17.5652  17.6480  17.6523  17.7607

          k =-0.5100 0.1253 0.0000 (  4752 PWs)   bands (ev):

   -29.9105 -14.6138 -14.5937 -10.7725 -10.3504 -10.1190  -6.8424  -6.7788
    -6.6393  -6.1110  -5.9822  -5.9351  -5.5164  -0.2941   0.1124   0.1803
     0.3208   0.3249   0.3644   4.2376   4.4903   5.3800   5.7099   5.8843
     5.9679   6.0077   6.0534   6.1881   6.3439   6.6052   6.7550   7.0739
     7.2899   7.3860   7.7258   7.7360   7.8878   8.1580   8.1961   8.3180
     8.4584   8.6198   8.8246   9.1031   9.1532   9.2744   9.4248   9.5415
     9.6313   9.6355   9.8580  10.1921  10.4065  10.7301  10.8172  14.5157
    15.3816  15.7351  16.9855  17.0665  17.6203  17.6725  17.8028  17.9467

          k =-0.5100 0.2506 0.0000 (  4740 PWs)   bands (ev):

   -29.9050 -14.5767 -14.5566 -10.7513 -10.3664 -10.2618  -6.6703  -6.6304
    -6.3261  -6.2986  -5.8988  -5.8455  -5.5782  -0.3090  -0.2024  -0.1107
    -0.1088   0.0317   0.1369   3.8710   4.3462   5.2532   5.4015   5.4601
     5.4660   5.4711   5.8459   6.2493   6.2554   6.8973   6.9234   6.9871
     7.1530   7.2006   7.4044   7.9529   8.2590   8.4372   8.6164   8.6706
     8.7857   8.9220   9.1850   9.2753   9.3060   9.4995   9.5529   9.5722
     9.7829   9.8965   9.9011  10.1718  11.3785  11.4664  11.6170  13.8628
    14.8845  15.9317  17.1540  17.2360  17.4233  17.4547  17.8812  17.9881

          k =-0.5100 0.3759 0.0000 (  4740 PWs)   bands (ev):

   -29.8996 -14.5389 -14.5188 -10.7301 -10.5817 -10.1658  -6.5556  -6.4922
    -6.3276  -6.0438  -5.8146  -5.7498  -5.7275  -0.5674  -0.5406  -0.4894
    -0.2698  -0.2320   0.1307   3.4543   4.0839   4.7757   5.0803   5.1016
     5.1749   5.4106   5.8288   6.2581   6.4726   6.8227   6.9100   6.9428
     6.9431   7.1561   7.2333   8.0319   8.5579   8.7300   9.0098   9.0694
     9.1238   9.3001   9.3828   9.4724   9.4808   9.6916   9.7596   9.7781
     9.7902   9.9610  10.2640  10.2894  11.8118  12.1866  12.2896  13.2839
    14.6296  16.0847  16.6124  17.0284  17.2276  17.5297  17.7704  17.9042

          k =-0.5100-0.5012 0.0000 (  4764 PWs)   bands (ev):

   -29.8973 -14.5230 -14.5030 -10.7213 -10.6639 -10.1235  -6.5746  -6.5060
    -6.0467  -5.9552  -5.9337  -5.7684  -5.7081  -0.7152  -0.6751  -0.6379
    -0.3329  -0.2862   0.1332   3.2788   3.9453   4.5316   4.9501   5.0558
     5.1108   5.4063   5.8222   6.2700   6.5742   6.7550   6.8435   6.8711
     6.9076   7.0812   7.2800   8.0502   8.6052   9.0169   9.0870   9.1537
     9.1783   9.4502   9.5240   9.5668   9.6457   9.7039   9.7109   9.8786
     9.9261   9.9477  10.4143  10.4853  11.8886  12.4540  12.5426  13.0654
    14.5775  16.1211  16.2815  16.9932  17.1299  17.1846  17.6172  18.1143

     the Fermi energy is    10.5870 ev

!    total energy              =    -696.88959252 Ry
     Harris-Foulkes estimate   =    -696.88959253 Ry
     estimated scf accuracy    <          2.9E-09 Ry

     The total energy is the sum of the following terms:

     one-electron contribution =    -190.41871610 Ry
     hartree contribution      =     182.26660188 Ry
     xc contribution           =    -149.17044770 Ry
     ewald contribution        =    -539.56429210 Ry
     smearing contrib. (-TS)   =      -0.00273851 Ry

     convergence has been achieved in  32 iterations

     Forces acting on atoms (cartesian axes, Ry/au):

     atom    1 type  2   force =     0.00000000    0.00000000    0.00025975
     atom    2 type  2   force =     0.00000000    0.00000000   -0.00025975
     atom    3 type  1   force =     0.00000000    0.00000000    0.00000000
     atom    4 type  4   force =     0.00000000    0.00000000    0.00009706
     atom    5 type  4   force =     0.00000000    0.00000000   -0.00009706
     atom    6 type  4   force =     0.00000000    0.00000000    0.00000000
     atom    7 type  3   force =     0.00000000    0.00000000    0.00000000
     atom    8 type  3   force =     0.00000000    0.00000000   -0.00003199
     atom    9 type  3   force =     0.00000000    0.00000000    0.00003199
     atom   10 type  3   force =     0.00000000    0.00000000   -0.00003726
     atom   11 type  3   force =     0.00000000    0.00000000    0.00003726
     atom   12 type  3   force =     0.00000000    0.00000000   -0.00005564
     atom   13 type  3   force =     0.00000000    0.00000000    0.00005564

     Total force =     0.000406     Total SCF correction =     0.000007


     Computing stress (Cartesian axis) and pressure

          total   stress  (Ry/bohr**3)                   (kbar)     P=        0.65
   0.00000264   0.00000000   0.00000000            0.39        0.00        0.00
   0.00000000   0.00000441   0.00000000            0.00        0.65        0.00
   0.00000000   0.00000000   0.00000613            0.00        0.00        0.90


     Writing output data file /n/holyscratch01/hoffman_lab/ruizhe/outdir/YBCO_ecut40.save/
 
     init_run     :      4.28s CPU      4.40s WALL (       2 calls)
     electrons    :   1065.63s CPU   1110.83s WALL (      22 calls)
     update_pot   :     32.35s CPU     32.47s WALL (      20 calls)
     forces       :     23.97s CPU     24.55s WALL (      22 calls)
     stress       :     62.41s CPU     64.17s WALL (      22 calls)

     Called by init_run:
     wfcinit      :      1.24s CPU      1.27s WALL (       2 calls)
     potinit      :      0.86s CPU      0.86s WALL (       2 calls)
     hinit0       :      1.63s CPU      1.64s WALL (       2 calls)

     Called by electrons:
     c_bands      :    831.08s CPU    849.64s WALL (     458 calls)
     sum_band     :    174.94s CPU    189.73s WALL (     458 calls)
     v_of_rho     :      1.36s CPU      1.37s WALL (     478 calls)
     newd         :     58.66s CPU     70.36s WALL (     478 calls)
     mix_rho      :      1.37s CPU      1.39s WALL (     458 calls)

     Called by c_bands:
     init_us_2    :      7.88s CPU      8.52s WALL (   24050 calls)
     cegterg      :    793.08s CPU    807.85s WALL (   11450 calls)

     Called by sum_band:
     sum_band:bec :      0.59s CPU      0.59s WALL (   11450 calls)
     addusdens    :     68.59s CPU     80.30s WALL (     458 calls)

     Called by *egterg:
     h_psi        :    407.62s CPU    420.46s WALL (   35623 calls)
     s_psi        :     17.47s CPU     17.64s WALL (   35623 calls)
     g_psi        :      1.45s CPU      1.46s WALL (   24123 calls)
     cdiaghg      :    269.84s CPU    270.99s WALL (   35023 calls)

     Called by h_psi:
     h_psi:calbec :     26.26s CPU     26.82s WALL (   35623 calls)
     vloc_psi     :    361.18s CPU    373.28s WALL (   35623 calls)
     add_vuspsi   :     18.36s CPU     18.52s WALL (   35623 calls)

     General routines
     calbec       :     39.11s CPU     39.92s WALL (   49823 calls)
     fft          :      4.89s CPU      4.93s WALL (    3022 calls)
     ffts         :      0.21s CPU      0.21s WALL (     936 calls)
     fftw         :    412.85s CPU    426.65s WALL ( 4069018 calls)
     interpolate  :      0.51s CPU      0.52s WALL (     478 calls)
 
     Parallel routines
     fft_scatt_xy :     39.04s CPU     40.37s WALL ( 4072976 calls)
     fft_scatt_yz :    196.11s CPU    202.65s WALL ( 4072976 calls)
 
     PWSCF        :  19m53.01s CPU  20m41.73s WALL

 
   This run was terminated on:  22:25:18  13Apr2021            

=------------------------------------------------------------------------------=
   JOB DONE.
=------------------------------------------------------------------------------=
