
     Program PWSCF v.6.5 starts on 13Apr2021 at  0:14:16 

     This program is part of the open-source Quantum ESPRESSO suite
     for quantum simulation of materials; please cite
         "P. Giannozzi et al., J. Phys.:Condens. Matter 21 395502 (2009);
         "P. Giannozzi et al., J. Phys.:Condens. Matter 29 465901 (2017);
          URL http://www.quantum-espresso.org", 
     in publications or presentations arising from this work. More details at
     http://www.quantum-espresso.org/quote

     Parallel version (MPI), running on    10 processors

     MPI processes distributed on     2 nodes
     R & G space division:  proc/nbgrp/npool/nimage =      10
     Reading input from YBCO_ecut70.pwi

     Current dimensions of program PWSCF are:
     Max number of different atomic species (ntypx) = 10
     Max number of k-points (npk) =  40000
     Max angular momentum in pseudopotentials (lmaxx) =  3
               file Y.pz-spn-rrkjus_psl.1.0.0.UPF: wavefunction(s)  4S renormalized
               file Ba.pz-spn-rrkjus_psl.1.0.0.UPF: wavefunction(s)  5S 6S renormalized
               file O.pz-rrkjus.UPF: wavefunction(s)  2S renormalized
               file Cu.pz-d-rrkjus.UPF: wavefunction(s)  3D renormalized

     Subspace diagonalization in iterative solution of the eigenvalue problem:
     one sub-group per band group will be used
     scalapack distributed-memory algorithm (size of sub-group:  3*  3 procs)

     Message from routine setup:
     using ibrav=0 with symmetry is DISCOURAGED, use correct ibrav instead
 
     Parallelization info
     --------------------
     sticks:   dense  smooth     PW     G-vecs:    dense   smooth      PW
     Min         360     120     34                49513     9532    1468
     Max         363     121     35                49522     9541    1479
     Sum        3603    1201    345               495201    95347   14735
 


     bravais-lattice index     =            0
     lattice parameter (alat)  =       7.2654  a.u.
     unit-cell volume          =    1204.4104 (a.u.)^3
     number of atoms/cell      =           13
     number of atomic types    =            4
     number of electrons       =       106.00
     number of Kohn-Sham states=           64
     kinetic-energy cutoff     =      70.0000  Ry
     charge density cutoff     =     840.0000  Ry
     convergence threshold     =      1.0E-06
     mixing beta               =       0.5000
     number of iterations used =            8  plain     mixing
     Exchange-correlation= SLA PZ NOGX NOGC
                           (   1   1   0   0   0   0   0)
     nstep                     =          300


     celldm(1)=   7.265373  celldm(2)=   0.000000  celldm(3)=   0.000000
     celldm(4)=   0.000000  celldm(5)=   0.000000  celldm(6)=   0.000000

     crystal axes: (cart. coord. in units of alat)
               a(1) = (   1.000000   0.000000   0.000000 )  
               a(2) = (   0.000000   1.021193   0.000000 )  
               a(3) = (   0.000000   0.000000   3.075338 )  

     reciprocal axes: (cart. coord. in units 2 pi/alat)
               b(1) = (  1.000000  0.000000  0.000000 )  
               b(2) = (  0.000000  0.979247  0.000000 )  
               b(3) = (  0.000000  0.000000  0.325168 )  


     PseudoPot. # 1 for Y  read from file:
     ./pseudo/Y.pz-spn-rrkjus_psl.1.0.0.UPF
     MD5 check sum: ea98a87c201a6887fec0b907919e69e1
     Pseudo is Ultrasoft + core correction, Zval = 11.0
     Generated using "atomic" code by A. Dal Corso v.6.2.2
     Using radial grid of 1223 points,  6 beta functions with: 
                l(1) =   0
                l(2) =   0
                l(3) =   1
                l(4) =   1
                l(5) =   2
                l(6) =   2
     Q(r) pseudized with 0 coefficients 


     PseudoPot. # 2 for Ba read from file:
     ./pseudo/Ba.pz-spn-rrkjus_psl.1.0.0.UPF
     MD5 check sum: 687b47877062a240b7e905a3e0e5c78b
     Pseudo is Ultrasoft + core correction, Zval = 10.0
     Generated using "atomic" code by A. Dal Corso v.6.2.2
     Using radial grid of 1251 points,  7 beta functions with: 
                l(1) =   0
                l(2) =   0
                l(3) =   0
                l(4) =   1
                l(5) =   1
                l(6) =   2
                l(7) =   2
     Q(r) pseudized with 0 coefficients 


     PseudoPot. # 3 for O  read from file:
     ./pseudo/O.pz-rrkjus.UPF
     MD5 check sum: 039abfcbbabbdfc0eb99fd57dcb11de2
     Pseudo is Ultrasoft, Zval =  6.0
     Generated by new atomic code, or converted to UPF format
     Using radial grid of 1269 points,  4 beta functions with: 
                l(1) =   0
                l(2) =   0
                l(3) =   1
                l(4) =   1
     Q(r) pseudized with 0 coefficients 


     PseudoPot. # 4 for Cu read from file:
     ./pseudo/Cu.pz-d-rrkjus.UPF
     MD5 check sum: 268b017640135c8b13c10cec7c6cb709
     Pseudo is Ultrasoft, Zval = 11.0
     Generated by new atomic code, or converted to UPF format
     Using radial grid of  899 points,  3 beta functions with: 
                l(1) =   2
                l(2) =   2
                l(3) =   1
     Q(r) pseudized with 0 coefficients 


     atomic species   valence    mass     pseudopotential
        Y             11.00    88.90585     Y ( 1.00)
        Ba            10.00   137.32700     Ba( 1.00)
        O              6.00    15.99900     O ( 1.00)
        Cu            11.00    63.55000     Cu( 1.00)

      8 Sym. Ops., with inversion, found



   Cartesian axes

     site n.     atom                  positions (alat units)
         1           Ba  tau(   1) = (   0.4999997   0.5105967   2.5199052  )
         2           Ba  tau(   2) = (   0.4999997   0.5105967   0.5554339  )
         3           Y   tau(   3) = (   0.4999997   0.5105967   1.5376696  )
         4           Cu  tau(   4) = (   0.0000000   0.0000000   1.9887540  )
         5           Cu  tau(   5) = (   0.0000000   0.0000000   1.0865848  )
         6           Cu  tau(   6) = (   0.0000000   0.0000000   0.0000000  )
         7           O   tau(   7) = (   0.0000000   0.5105967   0.0000000  )
         8           O   tau(   8) = (   0.4999997   0.0000000   1.9087183  )
         9           O   tau(   9) = (   0.4999997   0.0000000   1.1666205  )
        10           O   tau(  10) = (   0.0000000   0.5105967   1.9117875  )
        11           O   tau(  11) = (   0.0000000   0.5105967   1.1635516  )
        12           O   tau(  12) = (   0.0000000   0.0000000   2.5858066  )
        13           O   tau(  13) = (   0.0000000   0.0000000   0.4895325  )

     number of k points=    25  Gaussian smearing, width (Ry)=  0.0100
                       cart. coord. in units 2pi/alat
        k(    1) = (   0.0000000   0.0000000   0.0000000), wk =   0.0312500
        k(    2) = (   0.0000000   0.1224059   0.0000000), wk =   0.0625000
        k(    3) = (   0.0000000   0.2448117   0.0000000), wk =   0.0625000
        k(    4) = (   0.0000000   0.3672176   0.0000000), wk =   0.0625000
        k(    5) = (   0.0000000  -0.4896234   0.0000000), wk =   0.0312500
        k(    6) = (   0.1250000   0.0000000   0.0000000), wk =   0.0625000
        k(    7) = (   0.1250000   0.1224059   0.0000000), wk =   0.1250000
        k(    8) = (   0.1250000   0.2448117   0.0000000), wk =   0.1250000
        k(    9) = (   0.1250000   0.3672176   0.0000000), wk =   0.1250000
        k(   10) = (   0.1250000  -0.4896234   0.0000000), wk =   0.0625000
        k(   11) = (   0.2500000   0.0000000   0.0000000), wk =   0.0625000
        k(   12) = (   0.2500000   0.1224059   0.0000000), wk =   0.1250000
        k(   13) = (   0.2500000   0.2448117   0.0000000), wk =   0.1250000
        k(   14) = (   0.2500000   0.3672176   0.0000000), wk =   0.1250000
        k(   15) = (   0.2500000  -0.4896234   0.0000000), wk =   0.0625000
        k(   16) = (   0.3750000   0.0000000   0.0000000), wk =   0.0625000
        k(   17) = (   0.3750000   0.1224059   0.0000000), wk =   0.1250000
        k(   18) = (   0.3750000   0.2448117   0.0000000), wk =   0.1250000
        k(   19) = (   0.3750000   0.3672176   0.0000000), wk =   0.1250000
        k(   20) = (   0.3750000  -0.4896234   0.0000000), wk =   0.0625000
        k(   21) = (  -0.5000000   0.0000000   0.0000000), wk =   0.0312500
        k(   22) = (  -0.5000000   0.1224059   0.0000000), wk =   0.0625000
        k(   23) = (  -0.5000000   0.2448117   0.0000000), wk =   0.0625000
        k(   24) = (  -0.5000000   0.3672176   0.0000000), wk =   0.0625000
        k(   25) = (  -0.5000000  -0.4896234   0.0000000), wk =   0.0312500

     Dense  grid:   495201 G-vectors     FFT dimensions: (  72,  72, 216)

     Smooth grid:    95347 G-vectors     FFT dimensions: (  40,  40, 120)

     Estimated max dynamical RAM per process >     277.60 MB

     Estimated total dynamical RAM >       2.71 GB

     Initial potential from superposition of free atoms

     starting charge  105.96668, renormalised to  106.00000
     Starting wfcs are   69 randomized atomic wfcs

     total cpu time spent up to now is        5.8 secs

     Self-consistent Calculation

     iteration #  1     ecut=    70.00 Ry     beta= 0.50
     Davidson diagonalization with overlap
     ethr =  1.00E-02,  avg # of iterations =  4.9

     total cpu time spent up to now is       11.0 secs

     total energy              =    -693.31594679 Ry
     Harris-Foulkes estimate   =    -698.55553695 Ry
     estimated scf accuracy    <       7.75563712 Ry

     iteration #  2     ecut=    70.00 Ry     beta= 0.50
     Davidson diagonalization with overlap
     ethr =  7.32E-03,  avg # of iterations =  2.4

     negative rho (up, down):  1.497E-01 0.000E+00

     total cpu time spent up to now is       15.5 secs

     total energy              =    -693.56661819 Ry
     Harris-Foulkes estimate   =    -699.76337856 Ry
     estimated scf accuracy    <     876.01607978 Ry

     iteration #  3     ecut=    70.00 Ry     beta= 0.50
     Davidson diagonalization with overlap
     ethr =  7.32E-03,  avg # of iterations =  3.2

     negative rho (up, down):  3.375E-01 0.000E+00

     total cpu time spent up to now is       20.5 secs

     total energy              =    -683.74093899 Ry
     Harris-Foulkes estimate   =    -711.47531444 Ry
     estimated scf accuracy    <   24074.31115435 Ry

     iteration #  4     ecut=    70.00 Ry     beta= 0.50
     Davidson diagonalization with overlap
     ethr =  7.32E-03,  avg # of iterations =  4.0

     total cpu time spent up to now is       26.3 secs

     total energy              =    -671.77269646 Ry
     Harris-Foulkes estimate   =    -729.03207621 Ry
     estimated scf accuracy    <   47081.91147946 Ry

     iteration #  5     ecut=    70.00 Ry     beta= 0.50
     Davidson diagonalization with overlap
     ethr =  7.32E-03,  avg # of iterations =  3.1

     negative rho (up, down):  5.177E-04 0.000E+00

     total cpu time spent up to now is       31.3 secs

     total energy              =    -695.67930987 Ry
     Harris-Foulkes estimate   =    -698.56440115 Ry
     estimated scf accuracy    <      48.49846962 Ry

     iteration #  6     ecut=    70.00 Ry     beta= 0.50
     Davidson diagonalization with overlap
     ethr =  7.32E-03,  avg # of iterations =  3.7

     total cpu time spent up to now is       35.7 secs

     total energy              =    -694.87531571 Ry
     Harris-Foulkes estimate   =    -698.82253938 Ry
     estimated scf accuracy    <     746.53023018 Ry

     iteration #  7     ecut=    70.00 Ry     beta= 0.50
     Davidson diagonalization with overlap
     ethr =  7.32E-03,  avg # of iterations =  3.8

     total cpu time spent up to now is       40.2 secs

     total energy              =    -696.89788160 Ry
     Harris-Foulkes estimate   =    -696.94516807 Ry
     estimated scf accuracy    <       7.62808794 Ry

     iteration #  8     ecut=    70.00 Ry     beta= 0.50
     Davidson diagonalization with overlap
     ethr =  7.20E-03,  avg # of iterations =  1.1

     total cpu time spent up to now is       43.6 secs

     total energy              =    -696.89326349 Ry
     Harris-Foulkes estimate   =    -696.91180012 Ry
     estimated scf accuracy    <       5.49734230 Ry

     iteration #  9     ecut=    70.00 Ry     beta= 0.50
     Davidson diagonalization with overlap
     ethr =  5.19E-03,  avg # of iterations =  1.0

     total cpu time spent up to now is       46.9 secs

     total energy              =    -696.84964745 Ry
     Harris-Foulkes estimate   =    -696.89901174 Ry
     estimated scf accuracy    <       3.23550156 Ry

     iteration # 10     ecut=    70.00 Ry     beta= 0.50
     Davidson diagonalization with overlap
     ethr =  3.05E-03,  avg # of iterations =  1.0

     total cpu time spent up to now is       50.2 secs

     total energy              =    -696.86774941 Ry
     Harris-Foulkes estimate   =    -696.87001673 Ry
     estimated scf accuracy    <       0.91595532 Ry

     iteration # 11     ecut=    70.00 Ry     beta= 0.50
     Davidson diagonalization with overlap
     ethr =  8.64E-04,  avg # of iterations =  2.4

     total cpu time spent up to now is       53.9 secs

     total energy              =    -696.86939339 Ry
     Harris-Foulkes estimate   =    -696.87071489 Ry
     estimated scf accuracy    <       0.86515524 Ry

     iteration # 12     ecut=    70.00 Ry     beta= 0.50
     Davidson diagonalization with overlap
     ethr =  8.16E-04,  avg # of iterations =  1.0

     total cpu time spent up to now is       57.3 secs

     total energy              =    -696.86780596 Ry
     Harris-Foulkes estimate   =    -696.86986518 Ry
     estimated scf accuracy    <       0.54788263 Ry

     iteration # 13     ecut=    70.00 Ry     beta= 0.50
     Davidson diagonalization with overlap
     ethr =  5.17E-04,  avg # of iterations =  1.5

     total cpu time spent up to now is       60.7 secs

     total energy              =    -696.86857227 Ry
     Harris-Foulkes estimate   =    -696.87029638 Ry
     estimated scf accuracy    <       0.84587534 Ry

     iteration # 14     ecut=    70.00 Ry     beta= 0.50
     Davidson diagonalization with overlap
     ethr =  5.17E-04,  avg # of iterations =  1.7

     total cpu time spent up to now is       64.2 secs

     total energy              =    -696.86619079 Ry
     Harris-Foulkes estimate   =    -696.87300702 Ry
     estimated scf accuracy    <       5.42350058 Ry

     iteration # 15     ecut=    70.00 Ry     beta= 0.50
     Davidson diagonalization with overlap
     ethr =  5.17E-04,  avg # of iterations =  1.0

     total cpu time spent up to now is       67.5 secs

     total energy              =    -696.86880524 Ry
     Harris-Foulkes estimate   =    -696.86939099 Ry
     estimated scf accuracy    <       0.23635757 Ry

     iteration # 16     ecut=    70.00 Ry     beta= 0.50
     Davidson diagonalization with overlap
     ethr =  2.23E-04,  avg # of iterations =  1.9

     total cpu time spent up to now is       71.1 secs

     total energy              =    -696.86924038 Ry
     Harris-Foulkes estimate   =    -696.86949967 Ry
     estimated scf accuracy    <       0.12630879 Ry

     iteration # 17     ecut=    70.00 Ry     beta= 0.50
     Davidson diagonalization with overlap
     ethr =  1.19E-04,  avg # of iterations =  2.7

     total cpu time spent up to now is       74.9 secs

     total energy              =    -696.86933986 Ry
     Harris-Foulkes estimate   =    -696.86936473 Ry
     estimated scf accuracy    <       0.01212962 Ry

     iteration # 18     ecut=    70.00 Ry     beta= 0.50
     Davidson diagonalization with overlap
     ethr =  1.14E-05,  avg # of iterations =  6.3

     total cpu time spent up to now is       79.8 secs

     total energy              =    -696.86935789 Ry
     Harris-Foulkes estimate   =    -696.86936695 Ry
     estimated scf accuracy    <       0.00818853 Ry

     iteration # 19     ecut=    70.00 Ry     beta= 0.50
     Davidson diagonalization with overlap
     ethr =  7.73E-06,  avg # of iterations =  1.6

     total cpu time spent up to now is       83.3 secs

     total energy              =    -696.86935667 Ry
     Harris-Foulkes estimate   =    -696.86936372 Ry
     estimated scf accuracy    <       0.00480483 Ry

     iteration # 20     ecut=    70.00 Ry     beta= 0.50
     Davidson diagonalization with overlap
     ethr =  4.53E-06,  avg # of iterations =  1.1

     total cpu time spent up to now is       86.6 secs

     total energy              =    -696.86936056 Ry
     Harris-Foulkes estimate   =    -696.86936258 Ry
     estimated scf accuracy    <       0.00077897 Ry

     iteration # 21     ecut=    70.00 Ry     beta= 0.50
     Davidson diagonalization with overlap
     ethr =  7.35E-07,  avg # of iterations =  1.9

     total cpu time spent up to now is       90.2 secs

     total energy              =    -696.86936159 Ry
     Harris-Foulkes estimate   =    -696.86936285 Ry
     estimated scf accuracy    <       0.00017861 Ry

     iteration # 22     ecut=    70.00 Ry     beta= 0.50
     Davidson diagonalization with overlap
     ethr =  1.68E-07,  avg # of iterations =  1.0

     total cpu time spent up to now is       93.5 secs

     total energy              =    -696.86936165 Ry
     Harris-Foulkes estimate   =    -696.86936218 Ry
     estimated scf accuracy    <       0.00018413 Ry

     iteration # 23     ecut=    70.00 Ry     beta= 0.50
     Davidson diagonalization with overlap
     ethr =  1.68E-07,  avg # of iterations =  1.0

     total cpu time spent up to now is       96.9 secs

     total energy              =    -696.86936160 Ry
     Harris-Foulkes estimate   =    -696.86936221 Ry
     estimated scf accuracy    <       0.00023039 Ry

     iteration # 24     ecut=    70.00 Ry     beta= 0.50
     Davidson diagonalization with overlap
     ethr =  1.68E-07,  avg # of iterations =  1.0

     total cpu time spent up to now is      100.2 secs

     total energy              =    -696.86936179 Ry
     Harris-Foulkes estimate   =    -696.86936202 Ry
     estimated scf accuracy    <       0.00011107 Ry

     iteration # 25     ecut=    70.00 Ry     beta= 0.50
     Davidson diagonalization with overlap
     ethr =  1.05E-07,  avg # of iterations =  1.0

     total cpu time spent up to now is      103.6 secs

     total energy              =    -696.86936187 Ry
     Harris-Foulkes estimate   =    -696.86936192 Ry
     estimated scf accuracy    <       0.00001593 Ry

     iteration # 26     ecut=    70.00 Ry     beta= 0.50
     Davidson diagonalization with overlap
     ethr =  1.50E-08,  avg # of iterations =  1.0

     total cpu time spent up to now is      107.1 secs

     total energy              =    -696.86936188 Ry
     Harris-Foulkes estimate   =    -696.86936193 Ry
     estimated scf accuracy    <       0.00003436 Ry

     iteration # 27     ecut=    70.00 Ry     beta= 0.50
     Davidson diagonalization with overlap
     ethr =  1.50E-08,  avg # of iterations =  1.0

     total cpu time spent up to now is      110.5 secs

     total energy              =    -696.86936191 Ry
     Harris-Foulkes estimate   =    -696.86936191 Ry
     estimated scf accuracy    <       0.00000174 Ry

     iteration # 28     ecut=    70.00 Ry     beta= 0.50
     Davidson diagonalization with overlap
     ethr =  1.64E-09,  avg # of iterations =  2.0

     total cpu time spent up to now is      114.2 secs

     total energy              =    -696.86936192 Ry
     Harris-Foulkes estimate   =    -696.86936192 Ry
     estimated scf accuracy    <       0.00000501 Ry

     iteration # 29     ecut=    70.00 Ry     beta= 0.50
     Davidson diagonalization with overlap
     ethr =  1.64E-09,  avg # of iterations =  1.0

     total cpu time spent up to now is      117.6 secs

     total energy              =    -696.86936190 Ry
     Harris-Foulkes estimate   =    -696.86936192 Ry
     estimated scf accuracy    <       0.00000398 Ry

     iteration # 30     ecut=    70.00 Ry     beta= 0.50
     Davidson diagonalization with overlap
     ethr =  1.64E-09,  avg # of iterations =  1.0

     total cpu time spent up to now is      121.0 secs

     End of self-consistent calculation

          k = 0.0000 0.0000 0.0000 ( 11883 PWs)   bands (ev):

   -31.3908 -16.1980 -16.1746 -11.8905 -11.4416 -11.4210  -8.4003  -7.5025
    -7.4715  -7.2125  -6.9334  -6.5347  -6.4561  -1.3816  -1.3378  -1.1672
    -1.1405  -1.0269  -0.9801   4.5781   4.6208   4.6300   4.7969   4.8766
     4.9282   5.7523   5.8767   5.9311   5.9955   6.2172   6.5710   6.5868
     6.6040   6.7232   6.7369   6.7813   6.8980   6.9829   7.0604   7.0925
     7.3877   7.4943   7.6513   7.8007   7.8386   7.8419   8.0615   8.0994
     8.4654   8.5167   8.6714   8.8575   8.8774   9.0230   9.0398  11.9460
    12.6581  13.4678  13.5448  14.3018  14.5992  15.0608  15.3368  15.6566

          k = 0.0000 0.1224 0.0000 ( 11910 PWs)   bands (ev):

   -31.3892 -16.1831 -16.1600 -11.8630 -11.5243 -11.4187  -8.2948  -7.5198
    -7.4346  -7.1988  -6.9566  -6.5887  -6.5216  -1.3847  -1.3241  -1.1587
    -1.1197  -0.9983  -0.9505   4.4871   4.5367   4.6760   4.7296   4.8863
     4.9166   5.3407   5.7155   5.7972   6.0062   6.1736   6.3842   6.3938
     6.4725   6.5147   6.7423   6.7641   7.0087   7.0560   7.1093   7.1385
     7.5772   7.5797   7.6133   7.6616   7.8028   7.8905   8.1238   8.2051
     8.4489   8.5773   8.6667   8.7809   8.9413   9.1233   9.2706  12.2837
    12.8237  13.7768  13.7817  14.4339  14.5754  15.2916  15.5360  15.7623

          k = 0.0000 0.2448 0.0000 ( 11934 PWs)   bands (ev):

   -31.3854 -16.1465 -16.1243 -11.7941 -11.7067 -11.4130  -8.0415  -7.5912
    -7.3454  -7.1784  -6.9860  -6.7152  -6.6792  -1.3773  -1.2894  -1.1395
    -1.0802  -0.9275  -0.8771   4.1391   4.2931   4.4673   4.6666   4.8100
     4.9190   5.0693   5.3241   5.7500   5.9868   6.0186   6.0682   6.0781
     6.2246   6.3803   6.7355   6.7506   6.8617   6.8725   7.0850   7.2171
     7.4235   7.7422   7.7787   7.8180   7.9743   7.9931   8.1389   8.3343
     8.4011   8.5850   8.6148   8.7352   8.8380   9.2547  10.0797  13.0774
    13.2143  14.3755  14.5203  14.5819  14.6458  15.5905  15.7428  15.9541

          k = 0.0000 0.3672 0.0000 ( 11942 PWs)   bands (ev):

   -31.3816 -16.1092 -16.0880 -11.8704 -11.7213 -11.4074  -7.7608  -7.6995
    -7.3104  -7.1313  -6.9817  -6.8496  -6.8375  -1.3514  -1.2531  -1.1225
    -1.0538  -0.8538  -0.8004   3.7459   3.9397   4.0201   4.6074   4.9735
     5.0071   5.0166   5.1585   5.6856   5.7506   5.7962   5.9318   5.9559
     6.0154   6.2876   6.4621   6.5661   6.7667   6.9094   7.0066   7.2903
     7.5015   7.6930   7.8246   7.8519   7.8987   8.1335   8.3955   8.4552
     8.5652   8.5756   8.5915   8.6554   8.9409   9.2279  10.6664  13.5328
    14.0267  14.4688  14.5577  15.1859  15.4083  15.4741  15.5566  16.2760

          k = 0.0000-0.4896 0.0000 ( 11940 PWs)   bands (ev):

   -31.3800 -16.0935 -16.0727 -11.9338 -11.6899 -11.4050  -7.7525  -7.6005
    -7.3708  -7.0254  -6.9784  -6.9725  -6.8874  -1.3349  -1.2379  -1.1161
    -1.0471  -0.8223  -0.7677   3.5571   3.7848   3.9036   4.5923   4.8889
     5.0082   5.1605   5.1979   5.4574   5.6823   5.8434   5.8702   5.9410
     5.9417   6.2125   6.2515   6.5467   6.7480   6.8185   7.0925   7.3069
     7.4070   7.8199   7.8304   7.8722   7.9127   8.1103   8.4224   8.5027
     8.5437   8.5623   8.6679   8.7766   9.0626   9.0890  10.8631  13.7659
    14.1379  14.4484  15.0256  15.2030  15.2788  15.5430  15.8666  16.2796

          k = 0.1250 0.0000 0.0000 ( 11885 PWs)   bands (ev):

   -31.3888 -16.1797 -16.1575 -11.8594 -11.5142 -11.4386  -8.2951  -7.4996
    -7.4947  -7.1830  -6.9845  -6.5856  -6.4676  -1.4110  -1.3693  -1.1334
    -1.1073  -1.0005  -0.9857   4.4422   4.5021   4.6648   4.6781   4.9398
     4.9399   5.8140   5.8488   5.8948   5.9332   6.1316   6.3969   6.4165
     6.4316   6.7248   6.7425   6.8182   6.9710   7.0942   7.0958   7.1549
     7.2879   7.5394   7.5556   7.6364   7.7368   7.8523   8.1082   8.1508
     8.4251   8.6853   8.7549   8.7595   8.8597   8.9083   9.0036  12.2650
    12.8323  13.7439  13.8614  14.5547  14.5589  15.3732  15.5787  15.7495

          k = 0.1250 0.1224 0.0000 ( 11910 PWs)   bands (ev):

   -31.3872 -16.1652 -16.1434 -11.8323 -11.5248 -11.5066  -8.1905  -7.5049
    -7.4590  -7.1682  -7.0120  -6.6250  -6.5229  -1.3962  -1.3685  -1.2114
    -1.2033  -0.9145  -0.9038   4.3624   4.4927   4.6205   4.6808   4.7600
     5.0112   5.3329   5.6666   5.8885   5.9484   6.0441   6.1550   6.1783
     6.4938   6.6622   6.7656   6.8134   6.9644   6.9988   7.0270   7.1805
     7.5350   7.6047   7.6167   7.7196   7.8058   7.8184   7.9290   8.2142
     8.4497   8.6260   8.8331   8.8797   9.0049   9.1648   9.3067  12.5342
    12.9640  14.0390  14.0863  14.4511  14.6514  15.5001  15.7029  15.7744

          k = 0.1250 0.2448 0.0000 ( 11929 PWs)   bands (ev):

   -31.3834 -16.1300 -16.1089 -11.7645 -11.7018 -11.5029  -7.9391  -7.5625
    -7.3537  -7.1478  -7.0483  -6.7192  -6.6622  -1.3756  -1.3628  -1.2683
    -1.2442  -0.8712  -0.8510   4.0422   4.2823   4.4749   4.6393   4.6727
     4.6964   5.1532   5.3168   5.6855   5.7486   5.8813   5.9895   6.0581
     6.1966   6.5166   6.8154   6.8401   6.8834   6.9657   6.9770   7.1467
     7.5291   7.6190   7.7587   7.8421   8.0264   8.1208   8.1649   8.2111
     8.3802   8.4704   8.8703   9.0510   9.1175   9.4399  10.0837  13.1534
    13.3396  14.2946  14.5488  14.7824  14.8339  15.7268  15.7438  15.9067

          k = 0.1250 0.3672 0.0000 ( 11923 PWs)   bands (ev):

   -31.3796 -16.0940 -16.0738 -11.8641 -11.6929 -11.4958  -7.6630  -7.6592
    -7.2711  -7.1232  -7.0445  -6.8274  -6.8132  -1.3561  -1.3205  -1.2573
    -1.2095  -0.9052  -0.8986   3.6858   3.8985   3.9956   4.5842   4.7181
     4.8146   5.0808   5.2130   5.3903   5.3985   5.8765   5.9325   5.9977
     6.0245   6.2852   6.7697   6.7779   6.8313   6.8715   7.1295   7.2111
     7.5085   7.6898   7.8670   7.9082   7.9863   8.2250   8.3151   8.4217
     8.4980   8.6255   8.7803   9.0481   9.2063   9.5210  10.6454  13.4826
    13.9493  14.1475  14.6691  15.3643  15.4204  15.6647  15.9085  16.3225

          k = 0.1250-0.4896 0.0000 ( 11942 PWs)   bands (ev):

   -31.3780 -16.0790 -16.0591 -11.9271 -11.6620 -11.4928  -7.7138  -7.4880
    -7.3284  -7.0344  -6.9982  -6.9778  -6.8522  -1.3321  -1.2980  -1.2336
    -1.1711  -0.9581  -0.9439   3.5254   3.7081   3.8712   4.5690   4.7388
     4.9139   5.0223   5.1862   5.2243   5.2777   5.8766   5.9063   5.9477
     6.0488   6.1805   6.7353   6.7502   6.8002   6.8296   7.1275   7.3184
     7.5899   7.6245   7.9002   7.9137   7.9502   8.2264   8.3887   8.4865
     8.6386   8.7300   8.7469   9.0489   9.2047   9.4995  10.8324  13.7088
    13.9073  14.0547  15.2073  15.2116  15.6073  15.7221  16.0205  16.4364

          k = 0.2500 0.0000 0.0000 ( 11911 PWs)   bands (ev):

   -31.3839 -16.1346 -16.1155 -11.7812 -11.7185 -11.4316  -8.0495  -7.5794
    -7.5115  -7.1238  -7.0758  -6.7056  -6.4839  -1.5131  -1.3356  -1.0490
    -1.0427  -1.0246  -0.9623   4.0397   4.1745   4.6222   4.7901   4.9824
     5.0286   5.7592   5.7625   5.7939   5.8164   5.9320   6.0664   6.0951
     6.4016   6.7001   6.7665   6.7817   6.8216   6.9269   7.1506   7.1991
     7.1996   7.4387   7.5499   7.8307   7.8642   7.8952   8.0094   8.2676
     8.4792   8.5560   8.5951   8.6694   8.7074   8.9099   9.2160  12.9234
    13.2897  14.4707  14.4784  14.5881  15.1091  15.7393  16.0508  16.0794

          k = 0.2500 0.1224 0.0000 ( 11888 PWs)   bands (ev):

   -31.3823 -16.1215 -16.1026 -11.7552 -11.7144 -11.5108  -7.9473  -7.5282
    -7.4991  -7.1190  -7.1043  -6.7125  -6.5184  -1.5132  -1.3292  -1.2868
    -1.2253  -0.9003  -0.8849   3.9587   4.1693   4.6095   4.6979   4.7713
     5.0837   5.3220   5.5620   5.6676   5.7352   5.8557   5.9310   6.0905
     6.4528   6.4909   6.8416   6.8686   6.9302   6.9596   7.0142   7.1515
     7.4028   7.5385   7.6033   7.8523   7.8980   8.0118   8.1119   8.1508
     8.4136   8.4450   8.7970   8.9995   9.0428   9.3874   9.4147  13.0379
    13.3776  14.2737  14.7488  14.7746  14.9831  15.6956  15.8231  16.0344

          k = 0.2500 0.2448 0.0000 ( 11912 PWs)   bands (ev):

   -31.3785 -16.0896 -16.0712 -11.7104 -11.6902 -11.6810  -7.7040  -7.5015
    -7.3865  -7.1926  -7.0714  -6.7307  -6.6191  -1.5449  -1.5047  -1.3629
    -1.3120  -0.9698  -0.9474   3.6700   4.0811   4.4768   4.5032   4.5064
     4.6491   5.1674   5.2169   5.3071   5.4189   5.9048   5.9460   6.0780
     6.1790   6.4761   6.5328   6.8226   6.9778   7.1145   7.3311   7.3892
     7.4382   7.7577   7.8694   7.9611   8.0341   8.1005   8.3008   8.3165
     8.3882   8.4581   8.9124   9.1040   9.7004   9.9125  10.0965  13.0876
    13.6843  14.0300  14.6902  15.3795  15.5147  15.6207  15.9164  16.0193

          k = 0.2500 0.3672 0.0000 ( 11895 PWs)   bands (ev):

   -31.3747 -16.0571 -16.0393 -11.8490 -11.6917 -11.6217  -7.5720  -7.4365
    -7.1993  -7.1961  -7.0786  -6.7706  -6.7528  -1.5677  -1.5643  -1.3993
    -1.3037  -1.1778  -1.1131   3.3287   3.8246   3.9016   4.3913   4.4630
     4.6235   4.7835   4.9751   5.3300   5.3938   5.8463   5.9822   5.9987
     6.0574   6.2605   6.4407   6.8634   7.0001   7.2857   7.5191   7.5726
     7.7010   7.8147   7.9985   8.0398   8.2418   8.3067   8.3199   8.4445
     8.5893   8.6004   8.8489   9.1105  10.0544  10.2140  10.5861  12.9525
    13.6022  14.1994  15.1124  15.2278  15.7019  15.9316  16.1101  16.2679

          k = 0.2500-0.4896 0.0000 ( 11914 PWs)   bands (ev):

   -31.3732 -16.0435 -16.0259 -11.9109 -11.6877 -11.5922  -7.6174  -7.2318
    -7.2193  -7.1860  -6.9787  -6.9325  -6.7634  -1.5126  -1.4644  -1.4479
    -1.4376  -1.2533  -1.2048   3.1868   3.6812   3.6905   4.3717   4.4834
     4.6135   4.6375   4.8877   5.3093   5.4020   5.8660   5.9314   5.9349
     6.1140   6.1550   6.4205   6.8763   7.0195   7.3082   7.5542   7.7504
     7.8510   7.8784   8.0259   8.0587   8.1327   8.3188   8.4561   8.5899
     8.6760   8.7068   8.7695   9.0580  10.1503  10.2885  10.7410  12.8805
    13.5442  14.2113  15.0244  15.6477  15.8247  16.0684  16.1226  16.4009

          k = 0.3750 0.0000 0.0000 ( 11918 PWs)   bands (ev):

   -31.3790 -16.0886 -16.0727 -11.9008 -11.6980 -11.4244  -7.8002  -7.6722
    -7.5982  -7.1007  -7.0916  -6.8234  -6.4853  -1.5685  -1.2943  -1.0783
    -0.9870  -0.9604  -0.9380   3.6801   3.8399   4.6163   4.9689   5.0187
     5.0635   5.5851   5.6458   5.6693   5.7216   5.7563   5.7879   5.8876
     6.3379   6.4513   6.6120   6.6813   6.8168   7.0745   7.0788   7.1895
     7.2251   7.4407   7.5894   7.7632   7.9543   8.0152   8.2773   8.3158
     8.4734   8.4737   8.5030   8.5134   8.6681   8.9714   9.2494  13.3678
    13.9724  14.3939  15.1137  15.3501  15.6130  15.8765  15.9508  16.1296

          k = 0.3750 0.1224 0.0000 ( 11894 PWs)   bands (ev):

   -31.3774 -16.0769 -16.0611 -11.8955 -11.6733 -11.5021  -7.7039  -7.6055
    -7.5676  -7.1546  -7.0658  -6.8014  -6.5037  -1.5661  -1.3034  -1.2598
    -1.1948  -0.9814  -0.9668   3.5791   3.8156   4.5964   4.8136   4.8525
     5.0955   5.2948   5.3327   5.3568   5.4933   5.7310   5.9721   6.0057
     6.3085   6.4017   6.7695   6.8095   6.8920   7.0394   7.1205   7.2515
     7.2653   7.4532   7.7605   7.8762   7.9688   8.0953   8.2991   8.3197
     8.3846   8.4409   8.6160   8.9217   9.1011   9.4232   9.4953  13.2537
    13.9777  14.1667  15.0942  15.4172  15.5754  15.8152  16.0287  16.2794

          k = 0.3750 0.2448 0.0000 ( 11923 PWs)   bands (ev):

   -31.3737 -16.0484 -16.0328 -11.8826 -11.6754 -11.6114  -7.4965  -7.4902
    -7.4106  -7.2821  -7.0084  -6.7470  -6.5714  -1.6044  -1.5872  -1.4386
    -1.2872  -1.2083  -1.1640   3.2617   3.6987   4.4248   4.5250   4.5475
     4.6549   4.7539   5.0189   5.3413   5.3718   5.9214   5.9263   6.0912
     6.1474   6.2266   6.4614   6.8946   7.1988   7.2330   7.4635   7.5017
     7.6894   7.6904   7.9329   8.0728   8.2305   8.2927   8.3301   8.3953
     8.4455   8.4805   8.8530   8.9766   9.9799  10.1165  10.1827  12.8235
    13.5524  14.3584  15.1428  15.5857  15.6059  15.8458  16.2163  16.2599

          k = 0.3750 0.3672 0.0000 ( 11904 PWs)   bands (ev):

   -31.3699 -16.0195 -16.0042 -11.8700 -11.8324 -11.5463  -7.4775  -7.3569
    -7.2519  -7.1633  -6.9728  -6.7088  -6.6916  -1.7875  -1.7408  -1.5427
    -1.5207  -1.3854  -1.2571   2.8939   3.4612   3.9346   4.2875   4.3403
     4.3559   4.6280   4.8805   5.3360   5.5330   5.7571   5.9746   6.0190
     6.0913   6.1515   6.2446   6.9425   7.2880   7.5999   7.7763   7.8595
     7.8654   8.1237   8.1401   8.2482   8.2684   8.3036   8.4949   8.5684
     8.6169   8.6886   8.8464   9.1518  10.5113  10.6158  10.7175  12.3730
    13.2760  14.4998  15.0973  15.5083  15.6454  15.7909  15.9530  16.2301

          k = 0.3750-0.4896 0.0000 ( 11904 PWs)   bands (ev):

   -31.3683 -16.0074 -15.9922 -11.8946 -11.8637 -11.5183  -7.5164  -7.3408
    -7.0979  -7.0079  -6.9666  -6.8689  -6.6685  -1.7874  -1.7845  -1.7518
    -1.5918  -1.4399  -1.2512   2.7391   3.3328   3.7126   4.2183   4.2503
     4.2964   4.6219   4.8407   5.3301   5.6109   5.6867   5.9115   5.9937
     6.0782   6.1111   6.2352   6.9525   7.3160   7.7614   7.9041   7.9309
     8.0428   8.1712   8.2323   8.2660   8.3827   8.4067   8.5103   8.6210
     8.6742   8.7042   9.0083   9.1633  10.6156  10.8196  10.9005  12.1999
    13.2057  14.5197  14.8360  15.5130  15.6693  15.7504  16.0411  16.4025

          k =-0.5000 0.0000 0.0000 ( 11924 PWs)   bands (ev):

   -31.3769 -16.0691 -16.0547 -11.9713 -11.6619 -11.4215  -7.7249  -7.6770
    -7.6522  -7.0937  -7.0925  -6.8721  -6.4822  -1.5835  -1.2734  -1.0929
    -1.0053  -0.9224  -0.9008   3.5417   3.7021   4.6245   4.9779   5.0880
     5.1263   5.5267   5.5851   5.5876   5.6112   5.6119   5.6489   6.0209
     6.2169   6.2833   6.6056   6.6757   6.8138   7.0649   7.1767   7.1783
     7.2233   7.4518   7.4947   7.9221   7.9854   8.0532   8.2346   8.2883
     8.4005   8.4413   8.4980   8.6263   8.7203   8.9880   9.1843  13.5203
    14.3435  14.3648  15.2507  15.7722  15.8093  15.8614  15.9395  16.1572

          k =-0.5000 0.1224 0.0000 ( 11900 PWs)   bands (ev):

   -31.3754 -16.0580 -16.0437 -11.9656 -11.6377 -11.4985  -7.6584  -7.6179
    -7.5760  -7.1482  -7.0640  -6.8390  -6.4949  -1.5766  -1.2743  -1.2194
    -1.1073  -1.0879  -1.0593   3.4321   3.6693   4.5946   4.8622   5.0124
     5.0936   5.1391   5.1422   5.2733   5.4743   5.6863   5.9001   6.0958
     6.2470   6.3700   6.7206   6.7496   6.9083   7.0641   7.1149   7.2298
     7.3686   7.4575   7.7292   7.9492   8.0252   8.1048   8.2135   8.3543
     8.4291   8.4694   8.6956   8.8824   9.0921   9.4245   9.4606  13.2943
    13.9638  14.4202  15.3808  15.4694  15.8819  16.0491  16.0736  16.2711

          k =-0.5000 0.2448 0.0000 ( 11888 PWs)   bands (ev):

   -31.3716 -16.0310 -16.0168 -11.9518 -11.6705 -11.5773  -7.5327  -7.4727
    -7.3452  -7.2811  -6.9934  -6.7556  -6.5499  -1.5751  -1.5171  -1.4363
    -1.4315  -1.3403  -1.2510   3.0993   3.5332   4.4213   4.5305   4.5782
     4.6051   4.6735   4.9112   5.3271   5.3567   5.9243   5.9990   6.0688
     6.1154   6.1698   6.4311   6.9245   7.2415   7.3463   7.5092   7.5273
     7.6545   7.8314   8.0032   8.1382   8.1700   8.3130   8.3321   8.4085
     8.6262   8.6685   8.6691   8.8626  10.0397  10.1262  10.2406  12.6824
    13.4513  14.5897  15.4808  15.5955  15.7311  15.7994  16.1576  16.2584

          k =-0.5000 0.3672 0.0000 ( 11926 PWs)   bands (ev):

   -31.3679 -16.0037 -15.9895 -11.9379 -11.8269 -11.5137  -7.4440  -7.4163
    -7.2110  -7.1286  -6.9198  -6.6806  -6.6661  -1.8072  -1.7824  -1.7464
    -1.5560  -1.5389  -1.2449   2.7159   3.2888   3.9489   4.1985   4.2639
     4.3311   4.6343   4.8450   5.3212   5.5247   5.8368   5.9154   5.9807
     6.0974   6.1761   6.1827   6.9674   7.4487   7.6768   7.8639   7.9567
     7.9769   8.1150   8.1926   8.3029   8.3933   8.5223   8.5349   8.5418
     8.5438   8.6926   8.9965   9.0596  10.4806  10.7919  10.8847  12.1443
    13.1622  14.7068  15.0582  15.3714  15.5637  15.8196  16.0101  16.2272

          k =-0.5000-0.4896 0.0000 ( 11968 PWs)   bands (ev):

   -31.3664 -15.9923 -15.9782 -11.9322 -11.8879 -11.4863  -7.4731  -7.4061
    -7.0422  -6.9942  -6.8872  -6.8445  -6.6270  -1.9260  -1.9006  -1.8701
    -1.6403  -1.5410  -1.2397   2.5541   3.1607   3.7270   4.0669   4.2198
     4.2689   4.6307   4.8223   5.3157   5.6118   5.7718   5.8291   5.9547
     6.0741   6.1062   6.2210   6.9776   7.4848   7.8834   7.9802   8.0743
     8.0845   8.3000   8.3089   8.3548   8.3786   8.4356   8.6257   8.6513
     8.6615   8.6994   9.1313   9.2474  10.5556  11.0484  11.1266  11.9438
    13.0910  14.7295  14.7634  15.3378  15.4860  15.5116  15.9072  16.4369

     the Fermi energy is     9.2822 ev

!    total energy              =    -696.86936177 Ry
     Harris-Foulkes estimate   =    -696.86936191 Ry
     estimated scf accuracy    <       0.00000031 Ry

     The total energy is the sum of the following terms:

     one-electron contribution =    -214.89188124 Ry
     hartree contribution      =     189.82026953 Ry
     xc contribution           =    -148.54122511 Ry
     ewald contribution        =    -523.25327088 Ry
     smearing contrib. (-TS)   =      -0.00325406 Ry

     convergence has been achieved in  30 iterations

     Forces acting on atoms (cartesian axes, Ry/au):

     atom    1 type  2   force =     0.00000000    0.00000000   -0.00160709
     atom    2 type  2   force =     0.00000000    0.00000000    0.00160709
     atom    3 type  1   force =     0.00000000    0.00000000    0.00000000
     atom    4 type  4   force =     0.00000000    0.00000000    0.00066800
     atom    5 type  4   force =     0.00000000    0.00000000   -0.00066800
     atom    6 type  4   force =     0.00000000    0.00000000    0.00000000
     atom    7 type  3   force =     0.00000000    0.00000000    0.00000000
     atom    8 type  3   force =     0.00000000    0.00000000   -0.00332365
     atom    9 type  3   force =     0.00000000    0.00000000    0.00332365
     atom   10 type  3   force =     0.00000000    0.00000000   -0.00439561
     atom   11 type  3   force =     0.00000000    0.00000000    0.00439561
     atom   12 type  3   force =     0.00000000    0.00000000    0.00763362
     atom   13 type  3   force =     0.00000000    0.00000000   -0.00763362

     Total force =     0.013540     Total SCF correction =     0.000155


     Computing stress (Cartesian axis) and pressure

          total   stress  (Ry/bohr**3)                   (kbar)     P=      -95.09
  -0.00063768   0.00000000   0.00000000          -93.81        0.00        0.00
   0.00000000  -0.00069008   0.00000000            0.00     -101.51        0.00
   0.00000000   0.00000000  -0.00061137            0.00        0.00      -89.94


     BFGS Geometry Optimization

     number of scf cycles    =   1
     number of bfgs steps    =   0

     enthalpy new            =    -696.8693617653 Ry

     new trust radius        =       0.1197456412 bohr
     new conv_thr            =       0.0000010000 Ry

     new unit-cell volume =   1146.95989 a.u.^3 (   169.96192 Ang^3 )
     density =      6.50884 g/cm^3

CELL_PARAMETERS (angstrom)
   3.783378268   0.000000000   0.000000000
   0.000000000   3.858415588   0.000000000
   0.000000000   0.000000000  11.642945275

ATOMIC_POSITIONS (angstrom)
Ba            1.8916881498        1.9292087769        9.5392904913
Ba            1.8916881498        1.9292087769        2.1036587222
Y             1.8916881498        1.9292087769        5.8214746068
Cu            0.0000000000        0.0000000000        7.5295868165
Cu            0.0000000000        0.0000000000        4.1133614124
Cu            0.0000000000        0.0000000000        0.0000000000
O             0.0000000000        1.9292087769        0.0000000000
O             1.8916881498        0.0000000000        7.2244989138
O             1.8916881498        0.0000000000        4.4184493151
O             0.0000000000        1.9292087769        7.2355599749
O             0.0000000000        1.9292087769        4.4073892386
O             0.0000000000        0.0000000000        9.7936021934
O             0.0000000000        0.0000000000        1.8493470202



     Writing output data file /n/holyscratch01/hoffman_lab/ruizhe/outdir/YBCO_ecut70.save/
     NEW-OLD atomic charge density approx. for the potential
     extrapolated charge  100.69219, renormalised to  106.00000

     total cpu time spent up to now is      134.1 secs

     Self-consistent Calculation

     iteration #  1     ecut=    70.00 Ry     beta= 0.50
     Davidson diagonalization with overlap
     ethr =  1.00E-06,  avg # of iterations = 12.6

     negative rho (up, down):  3.537E-03 0.000E+00

     total cpu time spent up to now is      145.2 secs

     total energy              =    -690.37964747 Ry
     Harris-Foulkes estimate   =    -708.88644653 Ry
     estimated scf accuracy    <       8.03937427 Ry

     iteration #  2     ecut=    70.00 Ry     beta= 0.50
     Davidson diagonalization with overlap
     ethr =  7.58E-03,  avg # of iterations =  6.7

     negative rho (up, down):  4.873E-01 0.000E+00

     total cpu time spent up to now is      152.4 secs

     total energy              =    -687.11350969 Ry
     Harris-Foulkes estimate   =    -734.45126839 Ry
     estimated scf accuracy    <    3475.40278347 Ry

     iteration #  3     ecut=    70.00 Ry     beta= 0.50
     Davidson diagonalization with overlap
     ethr =  7.58E-03,  avg # of iterations =  4.0

     total cpu time spent up to now is      158.2 secs

     total energy              =    -641.01568316 Ry
     Harris-Foulkes estimate   =    -767.09961633 Ry
     estimated scf accuracy    <   52142.41698006 Ry

     iteration #  4     ecut=    70.00 Ry     beta= 0.50
     Davidson diagonalization with overlap
     ethr =  7.58E-03,  avg # of iterations =  4.5

     negative rho (up, down):  1.651E-02 0.000E+00

     total cpu time spent up to now is      164.7 secs

     total energy              =    -696.45805710 Ry
     Harris-Foulkes estimate   =    -698.06076440 Ry
     estimated scf accuracy    <     122.72804614 Ry

     iteration #  5     ecut=    70.00 Ry     beta= 0.50
     Davidson diagonalization with overlap
     ethr =  7.58E-03,  avg # of iterations =  4.0

     negative rho (up, down):  4.544E-02 0.000E+00

     total cpu time spent up to now is      169.3 secs

     total energy              =    -693.50601408 Ry
     Harris-Foulkes estimate   =    -701.79898978 Ry
     estimated scf accuracy    <    6203.54493708 Ry

     iteration #  6     ecut=    70.00 Ry     beta= 0.50
     Davidson diagonalization with overlap
     ethr =  7.58E-03,  avg # of iterations =  4.0

     total cpu time spent up to now is      174.4 secs

     total energy              =    -691.39721415 Ry
     Harris-Foulkes estimate   =    -701.51470881 Ry
     estimated scf accuracy    <    2616.81976892 Ry

     iteration #  7     ecut=    70.00 Ry     beta= 0.50
     Davidson diagonalization with overlap
     ethr =  7.58E-03,  avg # of iterations =  3.1

     total cpu time spent up to now is      179.3 secs

     total energy              =    -696.98408495 Ry
     Harris-Foulkes estimate   =    -697.28686516 Ry
     estimated scf accuracy    <       7.77895510 Ry

     iteration #  8     ecut=    70.00 Ry     beta= 0.50
     Davidson diagonalization with overlap
     ethr =  7.34E-03,  avg # of iterations =  1.0

     total cpu time spent up to now is      182.6 secs

     total energy              =    -696.95118325 Ry
     Harris-Foulkes estimate   =    -697.05432034 Ry
     estimated scf accuracy    <       3.31416936 Ry

     iteration #  9     ecut=    70.00 Ry     beta= 0.50
     Davidson diagonalization with overlap
     ethr =  3.13E-03,  avg # of iterations =  1.0

     total cpu time spent up to now is      185.9 secs

     total energy              =    -696.95367431 Ry
     Harris-Foulkes estimate   =    -696.97775493 Ry
     estimated scf accuracy    <       0.51940831 Ry

     iteration # 10     ecut=    70.00 Ry     beta= 0.50
     Davidson diagonalization with overlap
     ethr =  4.90E-04,  avg # of iterations =  1.2

     total cpu time spent up to now is      189.3 secs

     total energy              =    -696.87218684 Ry
     Harris-Foulkes estimate   =    -696.95806778 Ry
     estimated scf accuracy    <       0.50353470 Ry

     iteration # 11     ecut=    70.00 Ry     beta= 0.50
     Davidson diagonalization with overlap
     ethr =  4.75E-04,  avg # of iterations =  2.4

     total cpu time spent up to now is      193.0 secs

     total energy              =    -696.88460285 Ry
     Harris-Foulkes estimate   =    -696.90304253 Ry
     estimated scf accuracy    <       0.21342374 Ry

     iteration # 12     ecut=    70.00 Ry     beta= 0.50
     Davidson diagonalization with overlap
     ethr =  2.01E-04,  avg # of iterations =  5.3

     total cpu time spent up to now is      197.7 secs

     total energy              =    -696.88404722 Ry
     Harris-Foulkes estimate   =    -696.90071256 Ry
     estimated scf accuracy    <       1.34639855 Ry

     iteration # 13     ecut=    70.00 Ry     beta= 0.50
     Davidson diagonalization with overlap
     ethr =  2.01E-04,  avg # of iterations =  2.0

     total cpu time spent up to now is      201.4 secs

     total energy              =    -696.88763357 Ry
     Harris-Foulkes estimate   =    -696.90350293 Ry
     estimated scf accuracy    <       8.99977533 Ry

     iteration # 14     ecut=    70.00 Ry     beta= 0.50
     Davidson diagonalization with overlap
     ethr =  2.01E-04,  avg # of iterations =  2.0

     total cpu time spent up to now is      205.0 secs

     total energy              =    -696.89501426 Ry
     Harris-Foulkes estimate   =    -696.89686845 Ry
     estimated scf accuracy    <       0.19542333 Ry

     iteration # 15     ecut=    70.00 Ry     beta= 0.50
     Davidson diagonalization with overlap
     ethr =  1.84E-04,  avg # of iterations =  2.0

     total cpu time spent up to now is      208.7 secs

     total energy              =    -696.88376841 Ry
     Harris-Foulkes estimate   =    -696.90823701 Ry
     estimated scf accuracy    <      16.17204445 Ry

     iteration # 16     ecut=    70.00 Ry     beta= 0.50
     Davidson diagonalization with overlap
     ethr =  1.84E-04,  avg # of iterations =  2.0

     total cpu time spent up to now is      212.3 secs

     total energy              =    -696.89552497 Ry
     Harris-Foulkes estimate   =    -696.89554725 Ry
     estimated scf accuracy    <       0.11332237 Ry

     iteration # 17     ecut=    70.00 Ry     beta= 0.50
     Davidson diagonalization with overlap
     ethr =  1.07E-04,  avg # of iterations =  1.0

     total cpu time spent up to now is      215.6 secs

     total energy              =    -696.89550227 Ry
     Harris-Foulkes estimate   =    -696.89563921 Ry
     estimated scf accuracy    <       0.06160392 Ry

     iteration # 18     ecut=    70.00 Ry     beta= 0.50
     Davidson diagonalization with overlap
     ethr =  5.81E-05,  avg # of iterations =  1.0

     total cpu time spent up to now is      219.0 secs

     total energy              =    -696.89534250 Ry
     Harris-Foulkes estimate   =    -696.89580990 Ry
     estimated scf accuracy    <       0.06244778 Ry

     iteration # 19     ecut=    70.00 Ry     beta= 0.50
     Davidson diagonalization with overlap
     ethr =  5.81E-05,  avg # of iterations =  1.0

     total cpu time spent up to now is      222.3 secs

     total energy              =    -696.89547310 Ry
     Harris-Foulkes estimate   =    -696.89552839 Ry
     estimated scf accuracy    <       0.05079901 Ry

     iteration # 20     ecut=    70.00 Ry     beta= 0.50
     Davidson diagonalization with overlap
     ethr =  4.79E-05,  avg # of iterations =  1.0

     total cpu time spent up to now is      225.6 secs

     total energy              =    -696.89544843 Ry
     Harris-Foulkes estimate   =    -696.89549493 Ry
     estimated scf accuracy    <       0.03838589 Ry

     iteration # 21     ecut=    70.00 Ry     beta= 0.50
     Davidson diagonalization with overlap
     ethr =  3.62E-05,  avg # of iterations =  1.0

     total cpu time spent up to now is      229.0 secs

     total energy              =    -696.89544894 Ry
     Harris-Foulkes estimate   =    -696.89546306 Ry
     estimated scf accuracy    <       0.02453120 Ry

     iteration # 22     ecut=    70.00 Ry     beta= 0.50
     Davidson diagonalization with overlap
     ethr =  2.31E-05,  avg # of iterations =  1.2

     total cpu time spent up to now is      232.3 secs

     total energy              =    -696.89543098 Ry
     Harris-Foulkes estimate   =    -696.89545405 Ry
     estimated scf accuracy    <       0.01978435 Ry

     iteration # 23     ecut=    70.00 Ry     beta= 0.50
     Davidson diagonalization with overlap
     ethr =  1.87E-05,  avg # of iterations =  1.0

     total cpu time spent up to now is      235.7 secs

     total energy              =    -696.89542743 Ry
     Harris-Foulkes estimate   =    -696.89543787 Ry
     estimated scf accuracy    <       0.01315554 Ry

     iteration # 24     ecut=    70.00 Ry     beta= 0.50
     Davidson diagonalization with overlap
     ethr =  1.24E-05,  avg # of iterations =  1.4

     total cpu time spent up to now is      239.1 secs

     total energy              =    -696.89542099 Ry
     Harris-Foulkes estimate   =    -696.89543453 Ry
     estimated scf accuracy    <       0.00903733 Ry

     iteration # 25     ecut=    70.00 Ry     beta= 0.50
     Davidson diagonalization with overlap
     ethr =  8.53E-06,  avg # of iterations =  1.5

     total cpu time spent up to now is      242.5 secs

     total energy              =    -696.89539934 Ry
     Harris-Foulkes estimate   =    -696.89542487 Ry
     estimated scf accuracy    <       0.00507087 Ry

     iteration # 26     ecut=    70.00 Ry     beta= 0.50
     Davidson diagonalization with overlap
     ethr =  4.78E-06,  avg # of iterations =  2.0

     total cpu time spent up to now is      246.2 secs

     total energy              =    -696.89540897 Ry
     Harris-Foulkes estimate   =    -696.89541047 Ry
     estimated scf accuracy    <       0.00037166 Ry

     iteration # 27     ecut=    70.00 Ry     beta= 0.50
     Davidson diagonalization with overlap
     ethr =  3.51E-07,  avg # of iterations =  3.8

     total cpu time spent up to now is      250.3 secs

     total energy              =    -696.89541978 Ry
     Harris-Foulkes estimate   =    -696.89542256 Ry
     estimated scf accuracy    <       0.00133936 Ry

     iteration # 28     ecut=    70.00 Ry     beta= 0.50
     Davidson diagonalization with overlap
     ethr =  3.51E-07,  avg # of iterations =  1.0

     total cpu time spent up to now is      253.6 secs

     total energy              =    -696.89542084 Ry
     Harris-Foulkes estimate   =    -696.89542130 Ry
     estimated scf accuracy    <       0.00067107 Ry

     iteration # 29     ecut=    70.00 Ry     beta= 0.50
     Davidson diagonalization with overlap
     ethr =  3.51E-07,  avg # of iterations =  1.0

     total cpu time spent up to now is      257.0 secs

     total energy              =    -696.89541985 Ry
     Harris-Foulkes estimate   =    -696.89542094 Ry
     estimated scf accuracy    <       0.00056608 Ry

     iteration # 30     ecut=    70.00 Ry     beta= 0.50
     Davidson diagonalization with overlap
     ethr =  3.51E-07,  avg # of iterations =  1.0

     total cpu time spent up to now is      260.3 secs

     total energy              =    -696.89541910 Ry
     Harris-Foulkes estimate   =    -696.89541995 Ry
     estimated scf accuracy    <       0.00037608 Ry

     iteration # 31     ecut=    70.00 Ry     beta= 0.50
     Davidson diagonalization with overlap
     ethr =  3.51E-07,  avg # of iterations =  1.0

     total cpu time spent up to now is      263.6 secs

     total energy              =    -696.89541872 Ry
     Harris-Foulkes estimate   =    -696.89541935 Ry
     estimated scf accuracy    <       0.00016870 Ry

     iteration # 32     ecut=    70.00 Ry     beta= 0.50
     Davidson diagonalization with overlap
     ethr =  1.59E-07,  avg # of iterations =  1.0

     total cpu time spent up to now is      267.0 secs

     total energy              =    -696.89541899 Ry
     Harris-Foulkes estimate   =    -696.89541903 Ry
     estimated scf accuracy    <       0.00004127 Ry

     iteration # 33     ecut=    70.00 Ry     beta= 0.50
     Davidson diagonalization with overlap
     ethr =  3.89E-08,  avg # of iterations =  1.0

     total cpu time spent up to now is      270.4 secs

     total energy              =    -696.89541906 Ry
     Harris-Foulkes estimate   =    -696.89541914 Ry
     estimated scf accuracy    <       0.00001460 Ry

     iteration # 34     ecut=    70.00 Ry     beta= 0.50
     Davidson diagonalization with overlap
     ethr =  1.38E-08,  avg # of iterations =  2.3

     total cpu time spent up to now is      274.1 secs

     total energy              =    -696.89541918 Ry
     Harris-Foulkes estimate   =    -696.89541923 Ry
     estimated scf accuracy    <       0.00001153 Ry

     iteration # 35     ecut=    70.00 Ry     beta= 0.50
     Davidson diagonalization with overlap
     ethr =  1.09E-08,  avg # of iterations =  1.0

     total cpu time spent up to now is      277.5 secs

     total energy              =    -696.89541919 Ry
     Harris-Foulkes estimate   =    -696.89541919 Ry
     estimated scf accuracy    <       0.00000509 Ry

     iteration # 36     ecut=    70.00 Ry     beta= 0.50
     Davidson diagonalization with overlap
     ethr =  4.80E-09,  avg # of iterations =  1.0

     total cpu time spent up to now is      280.9 secs

     total energy              =    -696.89541918 Ry
     Harris-Foulkes estimate   =    -696.89541919 Ry
     estimated scf accuracy    <       0.00000276 Ry

     iteration # 37     ecut=    70.00 Ry     beta= 0.50
     Davidson diagonalization with overlap
     ethr =  2.60E-09,  avg # of iterations =  1.0

     total cpu time spent up to now is      284.3 secs

     End of self-consistent calculation

          k = 0.0000 0.0000 0.0000 ( 11883 PWs)   bands (ev):

   -30.4717 -15.3928 -15.3627 -11.1647 -10.5583 -10.5374  -7.9638  -6.9787
    -6.8636  -6.6906  -6.3762  -5.9428  -5.8807  -0.5908  -0.5408  -0.3537
    -0.3224  -0.2122  -0.1567   5.0623   5.0754   5.0759   5.2644   5.3689
     5.4209   6.2378   6.4232   6.4706   6.5655   6.7736   7.1558   7.1775
     7.1926   7.3101   7.3197   7.3890   7.4947   7.5851   7.6658   7.7171
     8.0086   8.1708   8.2880   8.4495   8.4797   8.5523   8.7075   8.7561
     9.1494   9.2001   9.4273   9.5690   9.5876   9.7553   9.7688  12.8134
    13.4273  14.2253  14.3861  15.2620  16.0523  16.3032  16.7242  16.9738

          k = 0.0000 0.1246 0.0000 ( 11910 PWs)   bands (ev):

   -30.4696 -15.3738 -15.3441 -11.1286 -10.6726 -10.5345  -7.8351  -6.9387
    -6.8990  -6.6639  -6.3939  -6.0070  -5.9558  -0.5967  -0.5239  -0.3421
    -0.2936  -0.1778  -0.1207   4.9726   4.9823   5.1235   5.2029   5.3763
     5.4079   5.8586   6.2431   6.2905   6.5727   6.7231   6.9503   6.9570
     7.0455   7.0781   7.3426   7.3505   7.6353   7.6716   7.7435   7.7700
     8.2034   8.2265   8.2353   8.3307   8.4523   8.5393   8.7739   8.9125
     9.1267   9.2965   9.3716   9.4938   9.6587   9.8537  10.0393  13.1489
    13.6075  14.5467  14.6348  15.3770  15.4554  16.2932  16.4996  16.7741

          k = 0.0000 0.2491 0.0000 ( 11934 PWs)   bands (ev):

   -30.4645 -15.3271 -15.2987 -11.0369 -10.9144 -10.5273  -7.5438  -7.0290
    -6.8422  -6.6138  -6.3965  -6.1574  -6.1320  -0.5902  -0.4805  -0.3163
    -0.2397  -0.0917  -0.0305   4.5937   4.7386   4.9397   5.1471   5.2634
     5.4030   5.5702   5.8248   6.2492   6.5464   6.5472   6.6018   6.6195
     6.7707   6.9455   7.3238   7.3359   7.4721   7.4804   7.7006   7.8461
     8.0616   8.4113   8.4115   8.4716   8.6344   8.6673   8.8111   9.0198
     9.0690   9.3154   9.3388   9.4309   9.5480  10.0046  10.8954  13.9232
    14.0504  15.2804  15.3880  15.3970  15.5197  16.4922  16.6685  17.0900

          k = 0.0000 0.3737 0.0000 ( 11942 PWs)   bands (ev):

   -30.4594 -15.2793 -15.2522 -11.1233 -10.9379 -10.5200  -7.2468  -7.2011
    -6.7806  -6.5610  -6.3625  -6.3076  -6.3029  -0.5583  -0.4349  -0.2936
    -0.2041  -0.0013   0.0645   4.1782   4.3745   4.4553   5.0906   5.4502
     5.4784   5.4858   5.6578   6.1985   6.2704   6.3144   6.4439   6.5045
     6.5482   6.8503   7.0446   7.1319   7.3488   7.4845   7.6265   7.9210
     8.1300   8.3431   8.4627   8.5138   8.5833   8.8160   9.1003   9.1447
     9.2460   9.2816   9.3454   9.3527   9.6515   9.9878  11.5163  14.3516
    14.9053  15.3423  15.4573  16.0977  16.3030  16.3386  16.4645  17.2972

          k = 0.0000-0.4982 0.0000 ( 11940 PWs)   bands (ev):

   -30.4573 -15.2591 -15.2327 -11.2028 -10.8943 -10.5170  -7.2801  -7.0980
    -6.8085  -6.4596  -6.4371  -6.3624  -6.3423  -0.5374  -0.4160  -0.2851
    -0.1951   0.0376   0.1055   3.9763   4.2115   4.3327   5.0752   5.3594
     5.4809   5.6547   5.6614   5.9648   6.1966   6.3705   6.3853   6.4695
     6.4831   6.7715   6.8153   7.1115   7.3264   7.3748   7.7187   7.9364
     8.0177   8.4709   8.4917   8.5388   8.5885   8.7871   9.1330   9.1786
     9.2718   9.3051   9.3728   9.4780   9.7620   9.8660  11.7248  14.5862
    14.9977  15.3206  15.9247  16.1314  16.1692  16.4996  16.7550  17.7278

          k = 0.1270 0.0000 0.0000 ( 11885 PWs)   bands (ev):

   -30.4691 -15.3698 -15.3413 -11.1245 -10.6635 -10.5547  -7.8373  -7.0124
    -6.8613  -6.6449  -6.4351  -6.0038  -5.8955  -0.6317  -0.5767  -0.3131
    -0.2825  -0.1752  -0.1546   4.9193   4.9524   5.1082   5.1570   5.4304
     5.4304   6.3035   6.3909   6.4292   6.4902   6.6846   6.9664   6.9831
     7.0033   7.3063   7.3353   7.4239   7.5966   7.7131   7.7274   7.7852
     7.8915   8.1685   8.2158   8.2899   8.3825   8.4948   8.7765   8.8140
     9.1405   9.3953   9.4553   9.5117   9.5710   9.6276   9.7291  13.1208
    13.6180  14.5109  14.7187  15.4387  15.5124  16.3951  16.5658  16.7723

          k = 0.1270 0.1246 0.0000 ( 11910 PWs)   bands (ev):

   -30.4670 -15.3515 -15.3234 -11.0889 -10.6766 -10.6498  -7.7087  -6.9685
    -6.8845  -6.6186  -6.4621  -6.0506  -5.9583  -0.6139  -0.5776  -0.4077
    -0.4022  -0.0652  -0.0502   4.8351   4.9473   5.0670   5.1609   5.2382
     5.5080   5.8483   6.1843   6.3847   6.5094   6.5815   6.7106   6.7326
     7.0566   7.2472   7.3508   7.4066   7.5889   7.6212   7.6599   7.8125
     8.1627   8.2322   8.2741   8.3564   8.4608   8.4776   8.5851   8.8749
     9.1556   9.3173   9.5740   9.6047   9.7237   9.9117  10.0768  13.3927
    13.7613  14.8199  14.9565  15.3278  15.5747  16.5079  16.6693  16.7010

          k = 0.1270 0.2491 0.0000 ( 11929 PWs)   bands (ev):

   -30.4619 -15.3065 -15.2796 -10.9986 -10.9079 -10.6476  -7.4164  -6.9956
    -6.8557  -6.5711  -6.4759  -6.1629  -6.1131  -0.5931  -0.5753  -0.4687
    -0.4415  -0.0125   0.0166   4.4937   4.7333   4.9466   5.1142   5.1288
     5.1734   5.6557   5.8124   6.2127   6.2769   6.3911   6.5434   6.5961
     6.7395   7.0923   7.4065   7.4273   7.4829   7.5747   7.5791   7.7766
     8.1652   8.2620   8.4108   8.5110   8.6858   8.8087   8.8476   8.9011
     9.0504   9.1409   9.5938   9.7669   9.8856  10.2153  10.8998  13.9801
    14.1955  15.1573  15.4559  15.6404  15.6526  16.6747  16.6809  16.9333

          k = 0.1270 0.3737 0.0000 ( 11923 PWs)   bands (ev):

   -30.4568 -15.2606 -15.2349 -11.1147 -10.9010 -10.6381  -7.1596  -7.1154
    -6.7475  -6.5406  -6.4418  -6.2837  -6.2755  -0.5689  -0.5221  -0.4515
    -0.3941  -0.0541  -0.0425   4.1172   4.3297   4.4331   5.0601   5.1914
     5.2789   5.5702   5.7095   5.9012   5.9175   6.4006   6.4539   6.5307
     6.5752   6.8460   7.3394   7.3607   7.4235   7.4620   7.7546   7.8269
     8.1350   8.3443   8.5351   8.5692   8.6714   8.9154   9.0173   9.1110
     9.1804   9.3148   9.4923   9.7516   9.9864  10.3143  11.4934  14.2985
    14.7930  14.9984  15.5724  16.2644  16.3649  16.5292  16.8615  17.3561

          k = 0.1270-0.4982 0.0000 ( 11942 PWs)   bands (ev):

   -30.4547 -15.2412 -15.2160 -11.1937 -10.8581 -10.6341  -7.2362  -6.9539
    -6.7589  -6.4371  -6.4318  -6.4202  -6.3228  -0.5367  -0.4906  -0.4239
    -0.3441  -0.1200  -0.1021   3.9460   4.1275   4.3013   5.0437   5.2093
     5.3800   5.5131   5.6842   5.7308   5.7861   6.3872   6.4320   6.4900
     6.5992   6.7346   7.3136   7.3153   7.3811   7.4216   7.7550   7.9414
     8.2284   8.2500   8.5746   8.5858   8.6296   8.9192   9.0959   9.1667
     9.3450   9.4415   9.4477   9.7441   9.9863  10.2988  11.6909  14.5252
    14.7346  14.8996  16.0938  16.1159  16.5920  16.7013  16.9070  17.4234

          k = 0.2541 0.0000 0.0000 ( 11911 PWs)   bands (ev):

   -30.4627 -15.3130 -15.2888 -11.0223 -10.9290 -10.5458  -7.5590  -7.1085
    -6.9268  -6.5465  -6.5117  -6.1477  -5.9160  -0.7506  -0.5374  -0.2117
    -0.2111  -0.1824  -0.1198   4.4935   4.6254   5.1070   5.2392   5.4670
     5.5187   6.2890   6.2895   6.3127   6.3203   6.4720   6.6132   6.6332
     6.9724   7.2795   7.3485   7.3877   7.4267   7.5419   7.7633   7.8282
     7.8289   8.0808   8.2222   8.4813   8.4963   8.5441   8.6795   8.9429
     9.2352   9.2408   9.2877   9.3643   9.4246   9.6645   9.9668  13.7517
    14.1145  15.2802  15.3470  15.4921  16.0363  16.7901  16.9599  17.0115

          k = 0.2541 0.1246 0.0000 ( 11888 PWs)   bands (ev):

   -30.4606 -15.2965 -15.2726 -10.9880 -10.9234 -10.6541  -7.4305  -7.0530
    -6.9103  -6.5706  -6.5189  -6.1561  -5.9541  -0.7520  -0.5305  -0.5000
    -0.4214  -0.0341  -0.0232   4.4106   4.6240   5.0924   5.1510   5.2459
     5.5759   5.8342   6.0630   6.1942   6.2668   6.3836   6.4420   6.6516
     7.0216   7.0615   7.4318   7.4652   7.5356   7.5769   7.6158   7.7798
     8.0458   8.1758   8.2591   8.5053   8.5486   8.6692   8.7858   8.8309
     9.0872   9.1432   9.5203   9.7173   9.8128  10.1603  10.1895  13.8581
    14.2180  15.1330  15.5664  15.7203  15.8317  16.7216  16.7779  16.9740

          k = 0.2541 0.2491 0.0000 ( 11912 PWs)   bands (ev):

   -30.4556 -15.2560 -15.2329 -10.9196 -10.9011 -10.8766  -7.1400  -6.9273
    -6.8984  -6.6586  -6.4655  -6.1790  -6.0644  -0.7955  -0.7569  -0.5725
    -0.5101  -0.1164  -0.0980   4.1070   4.5409   4.9382   4.9549   4.9701
     5.1293   5.6730   5.7108   5.8200   5.9349   6.4226   6.4920   6.6287
     6.7349   7.0426   7.1110   7.4101   7.5839   7.7244   7.9327   8.0209
     8.0604   8.4300   8.5473   8.6341   8.6919   8.7712   8.9828   9.0173
     9.0500   9.1694   9.6477   9.8321  10.5020  10.7201  10.9122  13.8773
    14.5267  14.8857  15.5837  16.3193  16.3810  16.6334  16.7945  17.0423

          k = 0.2541 0.3737 0.0000 ( 11895 PWs)   bands (ev):

   -30.4505 -15.2148 -15.1924 -11.0942 -10.8913 -10.8075  -7.0559  -6.8451
    -6.6845  -6.6375  -6.4582  -6.2237  -6.2081  -0.8285  -0.8171  -0.6121
    -0.5014  -0.3638  -0.2931   3.7449   4.2678   4.3325   4.8446   4.9165
     5.0992   5.2769   5.4648   5.8565   5.8984   6.3795   6.5147   6.5477
     6.6131   6.8246   7.0002   7.4569   7.6062   7.8911   8.1523   8.2030
     8.3184   8.4918   8.6823   8.7302   8.9291   9.0054   9.0168   9.1517
     9.2849   9.2972   9.5752   9.8312  10.8745  11.0428  11.4282  13.7112
    14.4251  15.0502  16.0434  16.1263  16.6846  16.9144  17.0220  17.2818

          k = 0.2541-0.4982 0.0000 ( 11914 PWs)   bands (ev):

   -30.4484 -15.1974 -15.1754 -11.1716 -10.8859 -10.7664  -7.1264  -6.6339
    -6.6285  -6.6119  -6.4408  -6.3673  -6.2225  -0.7516  -0.6928  -0.6842
    -0.6749  -0.4417  -0.3976   3.5942   4.0971   4.1236   4.8232   4.9417
     5.0859   5.1256   5.3757   5.8416   5.8994   6.4099   6.4573   6.4787
     6.6619   6.7279   6.9760   7.4704   7.6282   7.9117   8.1865   8.3950
     8.4831   8.5611   8.7104   8.7474   8.8289   9.0143   9.1647   9.3142
     9.3807   9.4124   9.4907   9.7544  10.9747  11.1241  11.5900  13.6267
    14.3699  15.0580  15.9029  16.5755  16.7908  17.1037  17.1143  17.4105

          k = 0.3811 0.0000 0.0000 ( 11918 PWs)   bands (ev):

   -30.4563 -15.2545 -15.2349 -11.1574 -10.9110 -10.5369  -7.2975  -7.2189
    -7.0932  -6.4936  -6.4744  -6.2893  -5.9162  -0.8129  -0.4871  -0.2412
    -0.1453  -0.1029  -0.0764   4.1200   4.2808   5.1046   5.4262   5.5003
     5.5399   6.0947   6.1537   6.1685   6.2414   6.2870   6.3026   6.4183
     6.9042   7.0299   7.1772   7.2600   7.4326   7.6884   7.7049   7.8104
     7.8522   8.0760   8.2252   8.4291   8.6133   8.6875   8.9602   8.9784
     9.1521   9.1754   9.2086   9.2647   9.3869   9.7292  10.0118  14.1686
    14.8187  15.2673  16.0557  16.2078  16.5217  16.8824  16.8917  17.0101

          k = 0.3811 0.1246 0.0000 ( 11894 PWs)   bands (ev):

   -30.4542 -15.2399 -15.2204 -11.1500 -10.8782 -10.6426  -7.1858  -7.1325
    -7.0571  -6.5636  -6.4435  -6.2643  -5.9355  -0.8103  -0.5058  -0.4534
    -0.3858  -0.1261  -0.1168   4.0143   4.2581   5.0780   5.2837   5.3158
     5.5838   5.8037   5.8451   5.8549   5.9864   6.2578   6.5199   6.5423
     6.8674   6.9729   7.3411   7.3999   7.4917   7.6608   7.7433   7.8735
     7.8999   8.0882   8.4190   8.5271   8.6338   8.7605   8.9796   9.0007
     9.0867   9.1330   9.3190   9.6390   9.8840  10.1974  10.2869  14.0363
    14.8235  15.0208  16.0244  16.3545  16.4500  16.8211  16.9462  17.2323

          k = 0.3811 0.2491 0.0000 ( 11923 PWs)   bands (ev):

   -30.4492 -15.2042 -15.1850 -11.1323 -10.8710 -10.7953  -6.9809  -6.9702
    -6.8544  -6.7329  -6.3726  -6.2026  -6.0084  -0.8614  -0.8488  -0.6630
    -0.4819  -0.3944  -0.3516   3.6796   4.1420   4.8784   4.9842   5.0011
     5.1437   5.2403   5.5192   5.8528   5.8703   6.4642   6.4770   6.6526
     6.7114   6.7696   7.0289   7.4908   7.8217   7.8418   8.1010   8.1353
     8.3166   8.3495   8.6202   8.7501   8.9029   8.9644   9.0210   9.1034
     9.1204   9.1962   9.5936   9.6944  10.8028  10.9287  11.0114  13.5639
    14.3732  15.2266  16.0816  16.5486  16.6058  16.7215  17.1816  17.2590

          k = 0.3811 0.3737 0.0000 ( 11904 PWs)   bands (ev):

   -30.4442 -15.1680 -15.1491 -11.1152 -11.0710 -10.7063  -6.9491  -6.8370
    -6.7152  -6.5643  -6.3231  -6.1587  -6.1403  -1.0828  -1.0206  -0.7919
    -0.7582  -0.6070  -0.4434   3.2900   3.8932   4.3656   4.7313   4.7830
     4.8262   5.1014   5.3922   5.8445   6.0550   6.2890   6.5333   6.5606
     6.6509   6.7018   6.8051   7.5397   7.9132   8.2205   8.4425   8.5227
     8.5418   8.7927   8.8218   8.9397   8.9492   8.9789   9.2187   9.2806
     9.3242   9.4127   9.5650   9.9052  11.3460  11.4637  11.5726  13.0807
    14.0948  15.3736  15.9909  16.4435  16.6219  16.7797  16.9168  17.2146

          k = 0.3811-0.4982 0.0000 ( 11904 PWs)   bands (ev):

   -30.4422 -15.1528 -15.1340 -11.1495 -11.1062 -10.6673  -7.0108  -6.8098
    -6.4712  -6.4506  -6.3400  -6.3169  -6.1146  -1.0843  -1.0720  -1.0314
    -0.8459  -0.6657  -0.4359   3.1257   3.7561   4.1285   4.6838   4.6908
     4.7383   5.0925   5.3572   5.8419   6.1296   6.2231   6.4667   6.5169
     6.6293   6.6706   6.8036   7.5492   7.9414   8.3894   8.5937   8.6027
     8.7034   8.8718   8.9103   8.9838   9.0328   9.1077   9.2493   9.3225
     9.3856   9.4302   9.7678   9.8975  11.4505  11.6767  11.7648  12.8965
    14.0286  15.3927  15.7110  16.4443  16.6550  16.7145  17.0650  17.3549

          k =-0.5081 0.0000 0.0000 ( 11924 PWs)   bands (ev):

   -30.4536 -15.2298 -15.2122 -11.2442 -10.8617 -10.5332  -7.2799  -7.1786
    -7.1750  -6.4714  -6.4564  -6.3478  -5.9109  -0.8300  -0.4608  -0.2540
    -0.1652  -0.0560  -0.0306   3.9761   4.1371   5.1167   5.4524   5.5502
     5.5952   6.0348   6.0839   6.1117   6.1119   6.1145   6.1467   6.5734
     6.7783   6.8449   7.1699   7.2546   7.4278   7.6811   7.7951   7.8112
     7.8479   8.0970   8.1131   8.5937   8.6496   8.7305   8.9083   8.9457
     9.0736   9.2027   9.2088   9.3578   9.4221   9.7486   9.9471  14.3061
    15.1936  15.2371  16.1716  16.6775  16.7003  16.8452  16.9407  17.0378

          k =-0.5081 0.1246 0.0000 ( 11900 PWs)   bands (ev):

   -30.4516 -15.2160 -15.1984 -11.2363 -10.8297 -10.6378  -7.2065  -7.1392
    -7.0435  -6.5409  -6.4244  -6.3103  -5.9236  -0.8217  -0.4635  -0.4067
    -0.2857  -0.2553  -0.2201   3.8606   4.1047   5.0744   5.3279   5.4854
     5.5820   5.6239   5.6452   5.7807   5.9642   6.2214   6.4326   6.6498
     6.8019   6.9409   7.3045   7.3162   7.5110   7.6914   7.7379   7.8555
     8.0020   8.1027   8.3546   8.6236   8.6938   8.7653   8.8870   9.0431
     9.1239   9.1758   9.3970   9.5980   9.8774  10.1993  10.2578  14.0568
    14.8070  15.2801  16.3047  16.4231  16.8821  16.9475  16.9828  17.3140

          k =-0.5081 0.2491 0.0000 ( 11888 PWs)   bands (ev):

   -30.4466 -15.1824 -15.1649 -11.2174 -10.8643 -10.7487  -7.0409  -7.0009
    -6.7509  -6.7115  -6.3446  -6.2151  -5.9818  -0.8228  -0.7624  -0.6644
    -0.6613  -0.5577  -0.4355   3.5093   3.9673   4.8714   4.9862   5.0564
     5.0619   5.1655   5.4108   5.8358   5.8471   6.4901   6.5549   6.6266
     6.6783   6.7122   6.9923   7.5249   7.8484   7.9765   8.1605   8.1773
     8.3061   8.4798   8.6902   8.8121   8.8313   8.9985   9.0115   9.1053
     9.3274   9.3952   9.3973   9.5684  10.8679  10.9370  11.0763  13.4024
    14.2723  15.4707  16.4103  16.5374  16.6889  16.7272  17.2252  17.2429

          k =-0.5081 0.3737 0.0000 ( 11926 PWs)   bands (ev):

   -30.4416 -15.1483 -15.1309 -11.1984 -11.0638 -10.6617  -6.9380  -6.8868
    -6.7090  -6.4835  -6.2614  -6.1258  -6.1124  -1.1055  -1.0688  -1.0275
    -0.8050  -0.7792  -0.4281   3.1033   3.7119   4.3796   4.6598   4.7040
     4.7732   5.1074   5.3657   5.8164   6.0476   6.3847   6.4678   6.5167
     6.6564   6.7251   6.7530   7.5652   8.0836   8.3127   8.5497   8.6310
     8.6384   8.8091   8.8998   8.9902   9.0469   9.2309   9.2341   9.2479
     9.2568   9.4034   9.7615   9.7987  11.3118  11.6488  11.7491  12.8337
    13.9817  15.6020  15.9448  16.2827  16.5516  16.7808  17.0322  17.1928

          k =-0.5081-0.4982 0.0000 ( 11968 PWs)   bands (ev):

   -30.4396 -15.1340 -15.1167 -11.1905 -11.1404 -10.6236  -6.9610  -6.8939
    -6.4562  -6.3784  -6.3195  -6.2239  -6.0672  -1.2454  -1.2035  -1.1701
    -0.9003  -0.7837  -0.4216   2.9314   3.5758   4.1428   4.5232   4.6567
     4.7085   5.1012   5.3501   5.8126   6.1442   6.3153   6.3726   6.4776
     6.6285   6.6534   6.8007   7.5746   8.1212   8.5636   8.6585   8.7231
     8.7559   8.9902   9.0286   9.0713   9.0866   9.1141   9.2874   9.3625
     9.4105   9.4174   9.9099  10.0043  11.3857  11.9164  12.0016  12.6221
    13.9155  15.6276  15.6404  16.2433  16.4298  16.4966  16.9132  17.6913

     the Fermi energy is    10.0467 ev

!    total energy              =    -696.89541883 Ry
     Harris-Foulkes estimate   =    -696.89541919 Ry
     estimated scf accuracy    <       0.00000078 Ry

     The total energy is the sum of the following terms:

     one-electron contribution =    -202.81551556 Ry
     hartree contribution      =     186.51969771 Ry
     xc contribution           =    -148.93561922 Ry
     ewald contribution        =    -531.66104979 Ry
     smearing contrib. (-TS)   =      -0.00293196 Ry

     convergence has been achieved in  37 iterations

     Forces acting on atoms (cartesian axes, Ry/au):

     atom    1 type  2   force =     0.00000000    0.00000000   -0.01168242
     atom    2 type  2   force =     0.00000000    0.00000000    0.01168242
     atom    3 type  1   force =     0.00000000    0.00000000    0.00000000
     atom    4 type  4   force =     0.00000000    0.00000000    0.00279705
     atom    5 type  4   force =     0.00000000    0.00000000   -0.00279705
     atom    6 type  4   force =     0.00000000    0.00000000    0.00000000
     atom    7 type  3   force =     0.00000000    0.00000000    0.00000000
     atom    8 type  3   force =     0.00000000    0.00000000    0.00126233
     atom    9 type  3   force =     0.00000000    0.00000000   -0.00126233
     atom   10 type  3   force =     0.00000000    0.00000000    0.00102466
     atom   11 type  3   force =     0.00000000    0.00000000   -0.00102466
     atom   12 type  3   force =     0.00000000    0.00000000   -0.00451749
     atom   13 type  3   force =     0.00000000    0.00000000    0.00451749

     Total force =     0.018295     Total SCF correction =     0.000173


     Computing stress (Cartesian axis) and pressure

          total   stress  (Ry/bohr**3)                   (kbar)     P=      -35.42
  -0.00022449   0.00000000   0.00000000          -33.02        0.00        0.00
   0.00000000  -0.00022572   0.00000000            0.00      -33.20        0.00
   0.00000000   0.00000000  -0.00027212            0.00        0.00      -40.03


     number of scf cycles    =   2
     number of bfgs steps    =   1

     enthalpy old            =    -696.8693617653 Ry
     enthalpy new            =    -696.8954188339 Ry

     CASE: enthalpy_new < enthalpy_old

     new trust radius        =       0.0733183945 bohr
     new conv_thr            =       0.0000010000 Ry

     new unit-cell volume =   1113.99752 a.u.^3 (   165.07740 Ang^3 )
     density =      6.70144 g/cm^3

CELL_PARAMETERS (angstrom)
   3.749170422   0.000000000   0.000000000
   0.000000000   3.823105103   0.000000000
   0.000000000   0.000000000  11.516915925

ATOMIC_POSITIONS (angstrom)
Ba            1.8745842356        1.9115535250        9.4268075032
Ba            1.8745842356        1.9115535250        2.0901123179
Y             1.8745842356        1.9115535250        5.7584599105
Cu            0.0000000000        0.0000000000        7.4502955416
Cu            0.0000000000        0.0000000000        4.0666233054
Cu            0.0000000000        0.0000000000        0.0000000000
O             0.0000000000        1.9115535250        0.0000000000
O             1.8745842356        0.0000000000        7.1472406633
O             1.8745842356        0.0000000000        4.3696781837
O             0.0000000000        1.9115535250        7.1579785053
O             0.0000000000        1.9115535250        4.3589413158
O             0.0000000000        0.0000000000        9.6841496761
O             0.0000000000        0.0000000000        1.8327701449



     Writing output data file /n/holyscratch01/hoffman_lab/ruizhe/outdir/YBCO_ecut70.save/
     NEW-OLD atomic charge density approx. for the potential
     extrapolated charge  102.86452, renormalised to  106.00000

     total cpu time spent up to now is      297.6 secs

     Self-consistent Calculation

     iteration #  1     ecut=    70.00 Ry     beta= 0.50
     Davidson diagonalization with overlap
     ethr =  1.00E-06,  avg # of iterations = 12.2

     negative rho (up, down):  4.051E-03 0.000E+00

     total cpu time spent up to now is      308.1 secs

     total energy              =    -692.60736750 Ry
     Harris-Foulkes estimate   =    -703.71045136 Ry
     estimated scf accuracy    <       5.40093965 Ry

     iteration #  2     ecut=    70.00 Ry     beta= 0.50
     Davidson diagonalization with overlap
     ethr =  5.10E-03,  avg # of iterations =  6.0

     negative rho (up, down):  3.508E-01 0.000E+00

     total cpu time spent up to now is      315.4 secs

     total energy              =    -692.68340760 Ry
     Harris-Foulkes estimate   =    -724.31462491 Ry
     estimated scf accuracy    <    4130.63553766 Ry

     iteration #  3     ecut=    70.00 Ry     beta= 0.50
     Davidson diagonalization with overlap
     ethr =  5.10E-03,  avg # of iterations =  4.0

     negative rho (up, down):  4.506E-02 0.000E+00

     total cpu time spent up to now is      321.3 secs

     total energy              =    -655.69795651 Ry
     Harris-Foulkes estimate   =    -742.30659944 Ry
     estimated scf accuracy    <   49047.82826021 Ry

     iteration #  4     ecut=    70.00 Ry     beta= 0.50
     Davidson diagonalization with overlap
     ethr =  5.10E-03,  avg # of iterations =  4.4

     negative rho (up, down):  7.675E-04 0.000E+00

     total cpu time spent up to now is      327.9 secs

     total energy              =    -689.61675237 Ry
     Harris-Foulkes estimate   =    -704.11581776 Ry
     estimated scf accuracy    <   11115.60888547 Ry

     iteration #  5     ecut=    70.00 Ry     beta= 0.50
     Davidson diagonalization with overlap
     ethr =  5.10E-03,  avg # of iterations =  3.0

     total cpu time spent up to now is      332.9 secs

     total energy              =    -695.89591674 Ry
     Harris-Foulkes estimate   =    -698.02981394 Ry
     estimated scf accuracy    <     538.99000698 Ry

     iteration #  6     ecut=    70.00 Ry     beta= 0.50
     Davidson diagonalization with overlap
     ethr =  5.10E-03,  avg # of iterations =  3.7

     total cpu time spent up to now is      337.4 secs

     total energy              =    -696.80742389 Ry
     Harris-Foulkes estimate   =    -697.37475099 Ry
     estimated scf accuracy    <      49.48538351 Ry

     iteration #  7     ecut=    70.00 Ry     beta= 0.50
     Davidson diagonalization with overlap
     ethr =  5.10E-03,  avg # of iterations =  2.8

     total cpu time spent up to now is      341.3 secs

     total energy              =    -696.95149057 Ry
     Harris-Foulkes estimate   =    -697.00904620 Ry
     estimated scf accuracy    <       2.67594489 Ry

     iteration #  8     ecut=    70.00 Ry     beta= 0.50
     Davidson diagonalization with overlap
     ethr =  2.52E-03,  avg # of iterations =  1.3

     total cpu time spent up to now is      344.8 secs

     total energy              =    -696.93745679 Ry
     Harris-Foulkes estimate   =    -696.97524790 Ry
     estimated scf accuracy    <       1.06100212 Ry

     iteration #  9     ecut=    70.00 Ry     beta= 0.50
     Davidson diagonalization with overlap
     ethr =  1.00E-03,  avg # of iterations =  1.2

     total cpu time spent up to now is      348.2 secs

     total energy              =    -696.92960113 Ry
     Harris-Foulkes estimate   =    -696.94465540 Ry
     estimated scf accuracy    <       0.41634599 Ry

     iteration # 10     ecut=    70.00 Ry     beta= 0.50
     Davidson diagonalization with overlap
     ethr =  3.93E-04,  avg # of iterations =  1.3

     total cpu time spent up to now is      351.7 secs

     total energy              =    -696.88352905 Ry
     Harris-Foulkes estimate   =    -696.93237185 Ry
     estimated scf accuracy    <       0.30649335 Ry

     iteration # 11     ecut=    70.00 Ry     beta= 0.50
     Davidson diagonalization with overlap
     ethr =  2.89E-04,  avg # of iterations =  3.5

     total cpu time spent up to now is      355.7 secs

     total energy              =    -696.89570036 Ry
     Harris-Foulkes estimate   =    -696.90368391 Ry
     estimated scf accuracy    <       0.16558450 Ry

     iteration # 12     ecut=    70.00 Ry     beta= 0.50
     Davidson diagonalization with overlap
     ethr =  1.56E-04,  avg # of iterations =  4.6

     total cpu time spent up to now is      360.2 secs

     total energy              =    -696.89768748 Ry
     Harris-Foulkes estimate   =    -696.90061074 Ry
     estimated scf accuracy    <       0.35454462 Ry

     iteration # 13     ecut=    70.00 Ry     beta= 0.50
     Davidson diagonalization with overlap
     ethr =  1.56E-04,  avg # of iterations =  2.0

     total cpu time spent up to now is      363.9 secs

     total energy              =    -696.89053570 Ry
     Harris-Foulkes estimate   =    -696.90578399 Ry
     estimated scf accuracy    <       8.27938059 Ry

     iteration # 14     ecut=    70.00 Ry     beta= 0.50
     Davidson diagonalization with overlap
     ethr =  1.56E-04,  avg # of iterations =  2.0

[...]

   -29.9599 -14.7684 -14.7360 -10.6039 -10.4517 -10.0318  -7.1798  -6.6489
    -6.4623  -6.2201  -5.9911  -5.7971  -5.7581  -0.0345   0.0681   0.2228
     0.3065   0.4456   0.5142   4.9232   5.1066   5.3067   5.4815   5.6221
     5.7869   5.9778   6.2311   6.6311   6.7594   6.9457   6.9900   7.0365
     7.1949   7.3925   7.7367   7.7466   7.8804   7.8967   8.0069   8.2318
     8.4601   8.8681   8.8875   8.8975   9.0561   9.1616   9.2997   9.4616
     9.5361   9.8227   9.8447   9.9167   9.9665  10.5571  11.3974  14.4018
    14.5532  15.8344  16.0053  16.1125  17.1217  17.3153  17.8034  17.8707

          k = 0.0000 0.3758 0.0000 ( 11000 PWs)   bands (ev):

   -29.9543 -14.7149 -14.6840 -10.6757 -10.4962 -10.0240  -6.8827  -6.8504
    -6.4319  -6.1475  -5.9482  -5.9437  -5.9106  -0.0082   0.1088   0.2584
     0.3550   0.5451   0.6195   4.5113   4.7550   4.8255   5.3836   5.8342
     5.8390   5.8728   6.0362   6.5898   6.6725   6.6910   6.7109   6.8368
     6.9723   7.2745   7.4434   7.5471   7.7586   7.7876   8.0506   8.2864
     8.5254   8.8302   8.9339   8.9784   9.1064   9.2957   9.5381   9.5978
     9.7389   9.8071   9.8173   9.8174  10.0859  10.5332  12.0131  14.7895
    15.4102  15.8290  16.0486  16.7595  16.9570  17.0311  17.0856  18.1635

          k = 0.0000-0.5010 0.0000 ( 10992 PWs)   bands (ev):

   -29.9520 -14.6923 -14.6620 -10.7605 -10.4484 -10.0208  -6.9413  -6.7348
    -6.4759  -6.0333  -6.0320  -6.0040  -5.9244   0.0091   0.1235   0.2745
     0.3708   0.5880   0.6650   4.3142   4.5846   4.7029   5.3599   5.7389
     5.8654   6.0167   6.0206   6.3611   6.5687   6.6865   6.7511   6.8011
     6.8946   7.1887   7.2130   7.5245   7.6389   7.7634   8.1534   8.2954
     8.4396   8.9675   8.9940   9.0344   9.0394   9.2700   9.5669   9.6743
     9.7644   9.8101   9.8143   9.9439  10.2163  10.4117  12.2173  15.0228
    15.5064  15.8064  16.5612  16.6700  16.8679  17.1926  17.4260  18.2931

          k = 0.1275 0.0000 0.0000 ( 11013 PWs)   bands (ev):

   -29.9649 -14.8163 -14.7840 -10.6986 -10.1822 -10.0593  -7.4798  -6.6266
    -6.4465  -6.2609  -6.0470  -5.6410  -5.5283  -0.0953  -0.0206   0.2234
     0.2568   0.3623   0.3823   5.2627   5.3134   5.4666   5.4771   5.8015
     5.8374   6.6621   6.7300   6.8115   6.8742   7.0900   7.3784   7.3902
     7.4534   7.7444   7.7782   7.8412   7.9826   8.1097   8.1418   8.1710
     8.3267   8.5481   8.6645   8.7218   8.8439   8.8904   9.2017   9.2035
     9.6342   9.8302   9.9501  10.0515  10.0807  10.1162  10.2866  13.6676
    14.0561  15.1337  15.2472  15.9356  16.0888  17.0276  17.2473  17.5531

          k = 0.1275 0.1253 0.0000 ( 11023 PWs)   bands (ev):

   -29.9626 -14.7960 -14.7641 -10.6604 -10.1955 -10.1651  -7.3441  -6.5835
    -6.4763  -6.2310  -6.0739  -5.6893  -5.5908  -0.0823  -0.0242   0.1288
     0.1293   0.4791   0.5003   5.1703   5.3105   5.4295   5.4813   5.6088
     5.9149   6.2613   6.5898   6.7519   6.7648   6.9952   7.1249   7.1364
     7.4865   7.6815   7.7549   7.8417   7.9514   8.0152   8.0716   8.2263
     8.6140   8.6194   8.7554   8.7665   8.8683   8.8946   9.0467   9.3540
     9.6127   9.8048  10.0363  10.0757  10.2825  10.4201  10.5817  13.9402
    14.1950  15.4377  15.4945  15.8415  16.1323  17.1211  17.2677  17.4065

          k = 0.1275 0.2505 0.0000 ( 11000 PWs)   bands (ev):

   -29.9571 -14.7460 -14.7153 -10.5629 -10.4446 -10.1644  -7.0430  -6.6137
    -6.4763  -6.1752  -6.0787  -5.8037  -5.7394  -0.0556  -0.0476   0.0792
     0.0919   0.5382   0.5780   4.8282   5.1013   5.3127   5.4622   5.4948
     5.5357   6.0518   6.2105   6.6251   6.6734   6.7634   6.7765   7.0108
     7.1627   7.5181   7.8001   7.8347   7.8419   7.9707   7.9810   8.1889
     8.6181   8.7189   8.8271   8.9944   9.1076   9.2446   9.3337   9.3934
     9.5005   9.6190  10.0844  10.2731  10.3680  10.7205  11.3992  14.4423
    14.6993  15.6594  16.0058  16.2675  16.2725  17.2859  17.3015  17.6865

          k = 0.1275 0.3758 0.0000 ( 10988 PWs)   bands (ev):

   -29.9515 -14.6946 -14.6652 -10.6664 -10.4567 -10.1540  -6.8060  -6.7412
    -6.3924  -6.1298  -6.0348  -5.9179  -5.8887  -0.0279  -0.0000   0.0990
     0.1470   0.4960   0.5183   4.4490   4.7084   4.8014   5.3684   5.5614
     5.6435   5.9685   6.0760   6.3076   6.3258   6.7253   6.8013   6.9182
     6.9505   7.2571   7.7225   7.7457   7.7772   7.8834   8.1562   8.2388
     8.5976   8.7928   8.9657   9.0519   9.1887   9.3987   9.4492   9.5587
     9.6507   9.7782  10.0295  10.2303  10.4597  10.8136  11.9855  14.7510
    15.2721  15.5056  16.2116  16.9539  17.0227  17.1744  17.4535  18.0560

          k = 0.1275-0.5010 0.0000 ( 11004 PWs)   bands (ev):

   -29.9492 -14.6729 -14.6441 -10.7505 -10.4097 -10.1496  -6.8941  -6.5777
    -6.4229  -6.0335  -6.0091  -6.0080  -5.9664   0.0007   0.0385   0.1248
     0.2100   0.4320   0.4441   4.2774   4.5022   4.6689   5.3433   5.5827
     5.7435   5.9021   6.0449   6.1488   6.1957   6.6836   6.8473   6.9010
     6.9021   7.1453   7.7040   7.7107   7.7173   7.8281   8.1593   8.3597
     8.6458   8.7572   9.0193   9.0924   9.1064   9.3997   9.5297   9.6280
     9.7838   9.9151  10.0443  10.1936  10.4569  10.7931  12.1776  15.0122
    15.1752  15.4362  16.7510  16.7745  17.1420  17.4078  17.5950  18.2616

          k = 0.2549 0.0000 0.0000 ( 11017 PWs)   bands (ev):

   -29.9581 -14.7540 -14.7265 -10.5890 -10.4709 -10.0499  -7.1906  -6.7377
    -6.5395  -6.1486  -6.1169  -5.7877  -5.5437  -0.2225   0.0184   0.3336
     0.3372   0.3648   0.4334   4.8554   4.9946   5.3987   5.6000   5.8363
     5.9030   6.5670   6.6887   6.6921   6.7408   6.8030   7.0173   7.0280
     7.4465   7.7164   7.7417   7.8011   7.8443   7.9416   8.1934   8.2086
     8.2126   8.5135   8.6831   8.9187   8.9513   8.9589   9.1386   9.3539
     9.7158   9.7426   9.7465   9.8647   9.9360  10.2050  10.5179  14.2485
    14.5559  15.8545  15.8932  16.0305  16.6344  17.5252  17.5591  17.6850

          k = 0.2549 0.1253 0.0000 ( 11005 PWs)   bands (ev):

   -29.9558 -14.7357 -14.7085 -10.5521 -10.4648 -10.1688  -7.0545  -6.6812
    -6.5207  -6.1833  -6.1183  -5.7973  -5.5819  -0.2293   0.0204   0.0295
     0.1147   0.5293   0.5364   4.7683   4.9936   5.3918   5.5176   5.6087
     5.9564   6.2411   6.4415   6.5823   6.6635   6.6783   6.8165   7.0320
     7.4593   7.5045   7.8258   7.8405   7.9606   7.9795   8.0036   8.1881
     8.5062   8.6413   8.7059   8.9233   8.9842   9.1297   9.2473   9.2621
     9.5662   9.6343   9.9770  10.2870  10.2989  10.6699  10.6920  14.3300
    14.6855  15.6494  16.1759  16.2518  16.4532  17.3635  17.3726  17.8164

          k = 0.2549 0.2505 0.0000 ( 10981 PWs)   bands (ev):

   -29.9503 -14.6908 -14.6644 -10.4601 -10.4582 -10.4103  -6.7551  -6.5424
    -6.5224  -6.2801  -6.0595  -5.8227  -5.6900  -0.2871  -0.2387  -0.0372
     0.0294   0.4475   0.4569   4.4526   4.9057   5.3108   5.3312   5.3478
     5.4324   6.0539   6.1023   6.2240   6.3567   6.7504   6.8111   7.0138
     7.1741   7.4652   7.5152   7.7643   8.0140   8.1157   8.3170   8.4565
     8.5547   8.8721   9.0394   9.0690   9.1203   9.1742   9.4737   9.5021
     9.5112   9.6422  10.1735  10.3384  10.9895  11.2114  11.4050  14.3220
    15.0178  15.4223  16.1885  16.9326  16.9772  17.2851  17.5163  17.6573

          k = 0.2549 0.3758 0.0000 ( 11001 PWs)   bands (ev):

   -29.9448 -14.6449 -14.6193 -10.6440 -10.4288 -10.3561  -6.6947  -6.4661
    -6.3018  -6.2485  -6.0509  -5.8553  -5.8358  -0.3124  -0.3067  -0.0849
     0.0245   0.1918   0.2477   4.0814   4.6287   4.7039   5.2283   5.2984
     5.3882   5.6777   5.8581   6.2789   6.3056   6.7688   6.7834   6.9886
     7.0003   7.2311   7.3973   7.8434   8.0267   8.2769   8.5901   8.6779
     8.7060   8.9287   9.1264   9.2394   9.3441   9.4518   9.5018   9.6276
     9.7578   9.7715  10.1414  10.2835  11.3585  11.5340  11.9101  14.1658
    14.9872  15.5116  16.7037  16.7799  17.3459  17.5856  17.7481  17.9968

          k = 0.2549-0.5010 0.0000 ( 10994 PWs)   bands (ev):

   -29.9425 -14.6256 -14.6004 -10.7265 -10.4228 -10.3110  -6.7754  -6.2817
    -6.2328  -6.2179  -6.0416  -5.9521  -5.8719  -0.2259  -0.1703  -0.1632
    -0.1621   0.1022   0.1335   3.9270   4.4644   4.4835   5.2061   5.3267
     5.3756   5.5324   5.7669   6.2758   6.3041   6.7257   6.8161   6.9214
     7.0671   7.0984   7.3658   7.8773   8.0453   8.2955   8.6235   8.8605
     8.8784   8.9710   9.1556   9.2640   9.3090   9.4495   9.6170   9.7890
     9.8653   9.8898  10.0568  10.1940  11.4561  11.6149  12.0656  14.0904
    14.9519  15.5144  16.5451  17.2160  17.4640  17.8058  17.8421  18.1184

          k = 0.3824 0.0000 0.0000 ( 10999 PWs)   bands (ev):

   -29.9512 -14.6896 -14.6674 -10.7159 -10.4688 -10.0405  -6.9301  -6.8599
    -6.7419  -6.0848  -6.0639  -5.9313  -5.5342  -0.2996   0.0673   0.3201
     0.4293   0.4512   0.4799   4.4857   4.6513   5.3829   5.7908   5.8574
     5.9049   6.3936   6.5234   6.5354   6.5726   6.6867   6.6914   6.8032
     7.3724   7.3978   7.5754   7.6990   7.9150   8.1229   8.1387   8.1581
     8.2193   8.5298   8.6771   8.8935   9.0360   9.1677   9.4263   9.4631
     9.6302   9.6548   9.6639   9.7468   9.8867  10.2666  10.5744  14.6052
    15.2747  15.7830  16.5666  16.8169  17.2131  17.5973  17.6540  17.6662

          k = 0.3824 0.1253 0.0000 ( 10989 PWs)   bands (ev):

   -29.9490 -14.6735 -14.6514 -10.7078 -10.4335 -10.1565  -6.8257  -6.7553
    -6.7025  -6.1616  -6.0311  -5.9077  -5.5543  -0.3002   0.0410   0.0868
     0.1583   0.4367   0.4499   4.3741   4.6268   5.3674   5.6463   5.6849
     5.9486   6.1965   6.2304   6.2371   6.3533   6.5786   6.8597   6.9320
     7.3253   7.4049   7.7388   7.7936   7.8517   8.1178   8.1388   8.2839
     8.3510   8.5665   8.8592   8.9967   9.0623   9.2427   9.4724   9.4792
     9.5288   9.5747   9.7737  10.2060  10.3765  10.7031  10.8064  14.4711
    15.3114  15.5248  16.6364  16.9348  17.0619  17.5188  17.6989  17.9353

          k = 0.3824 0.2505 0.0000 ( 10983 PWs)   bands (ev):

   -29.9435 -14.6342 -14.6123 -10.6881 -10.4040 -10.3436  -6.6235  -6.6067
    -6.4535  -6.3483  -5.9554  -5.8504  -5.6296  -0.3590  -0.3302  -0.1411
     0.0440   0.1622   0.2005   4.0249   4.5040   5.2450   5.3775   5.3794
     5.4274   5.6279   5.9282   6.2457   6.2679   6.7899   6.8641   6.9958
     7.1590   7.2091   7.4322   7.8794   8.2203   8.2605   8.5659   8.5836
     8.7133   8.7899   9.1003   9.1872   9.3462   9.4368   9.4705   9.5546
     9.6030   9.6771  10.0864  10.2343  11.2911  11.4193  11.5141  14.0006
    14.9373  15.6856  16.7356  17.2075  17.2654  17.4207  17.8029  17.9412

          k = 0.3824 0.3758 0.0000 ( 10978 PWs)   bands (ev):

   -29.9381 -14.5940 -14.5725 -10.6690 -10.6185 -10.2462  -6.5794  -6.4665
    -6.3525  -6.1519  -5.9020  -5.7940  -5.7822  -0.5757  -0.5166  -0.2716
    -0.2504  -0.0806   0.0887   3.6250   4.2483   4.7390   5.1118   5.1650
     5.2265   5.3864   5.8171   6.2783   6.4530   6.6953   6.8356   6.9839
     7.0362   7.1016   7.2280   7.9710   8.3478   8.6022   8.8863   8.9784
     8.9858   9.1883   9.2949   9.3848   9.3855   9.4228   9.7185   9.7608
     9.8109   9.9031  10.0941  10.3615  11.8157  11.9634  12.0738  13.5178
    14.6955  15.8404  16.6239  17.1100  17.2804  17.4935  17.6523  17.8669

          k = 0.3824-0.5010 0.0000 ( 10986 PWs)   bands (ev):

   -29.9358 -14.5772 -14.5558 -10.7024 -10.6591 -10.2033  -6.6493  -6.4342
    -6.1050  -6.0567  -5.9189  -5.9188  -5.7713  -0.5777  -0.5654  -0.5214
    -0.3319  -0.1627   0.0915   3.4573   4.1090   4.4956   5.0726   5.0905
     5.1216   5.3788   5.7876   6.2911   6.5291   6.6310   6.7922   6.9166
     7.0284   7.0482   7.2245   7.9916   8.3828   8.7712   9.0284   9.0367
     9.1660   9.3098   9.3197   9.4276   9.5032   9.5501   9.7435   9.8738
     9.8811   9.9235  10.2380  10.3407  11.9184  12.1739  12.2656  13.3339
    14.6438  15.8679  16.3244  17.1213  17.2776  17.4564  17.7626  17.9974

          k =-0.5098 0.0000 0.0000 ( 10978 PWs)   bands (ev):

   -29.9484 -14.6623 -14.6424 -10.8085 -10.4152 -10.0366  -6.9345  -6.8408
    -6.8013  -6.0586  -6.0408  -5.9906  -5.5237  -0.3266   0.0915   0.3141
     0.4220   0.5024   0.5300   4.3424   4.5067   5.3888   5.8004   5.9175
     5.9552   6.3471   6.3742   6.4683   6.4913   6.5054   6.5409   6.9689
     7.1408   7.3112   7.5595   7.6955   7.9251   8.1297   8.1371   8.2096
     8.2514   8.5390   8.5950   9.0389   9.0781   9.2176   9.3806   9.4637
     9.5897   9.6396   9.6900   9.8537   9.8546  10.2817  10.5220  14.7338
    15.6264  16.6789  17.3187  17.5235  17.6053  17.6175  17.7170  18.0194

          k =-0.5098 0.1253 0.0000 ( 10980 PWs)   bands (ev):

   -29.9461 -14.6471 -14.6273 -10.7998 -10.3806 -10.1513  -6.8591  -6.7978
    -6.6600  -6.1343  -6.0074  -5.9550  -5.5373  -0.3220   0.0803   0.1490
     0.2890   0.2916   0.3320   4.2196   4.4717   5.3612   5.6878   5.8637
     5.9484   5.9848   6.0315   6.1668   6.3221   6.5839   6.7350   7.0489
     7.2658   7.3620   7.7007   7.7110   7.8657   8.1328   8.1689   8.2932
     8.4310   8.5935   8.7985   9.0745   9.1254   9.2473   9.3960   9.5131
     9.6027   9.6070   9.8274  10.1621  10.3774  10.6999  10.7844  14.4903
    15.3489  15.7047  16.9494  17.0319  17.5827  17.6298  17.7620  17.9097

          k =-0.5098 0.2505 0.0000 ( 10982 PWs)   bands (ev):

   -29.9407 -14.6102 -14.5904 -10.7788 -10.3968 -10.2927  -6.6899  -6.6475
    -6.3490  -6.3207  -5.9242  -5.8652  -5.5987  -0.3367  -0.2320  -0.1408
    -0.1395  -0.0005   0.1049   3.8532   4.3272   5.2333   5.3799   5.4384
     5.4445   5.4515   5.8233   6.2288   6.2333   6.8751   6.9030   6.9637
     7.1277   7.1763   7.3814   7.9294   8.2344   8.4120   8.5877   8.6429
     8.7589   8.8955   9.1557   9.2469   9.2799   9.4727   9.5233   9.5435
     9.7527   9.8672   9.8715  10.1403  11.3479  11.4349  11.5841  13.8387
    14.8512  15.9013  17.1148  17.1988  17.3854  17.4141  17.8433  17.9452

          k =-0.5098 0.3758 0.0000 ( 10964 PWs)   bands (ev):

   -29.9353 -14.5726 -14.5528 -10.7578 -10.6107 -10.1975  -6.5758  -6.5129
    -6.3453  -6.0683  -5.8395  -5.7694  -5.7482  -0.5955  -0.5695  -0.5190
    -0.2972  -0.2633   0.0990   3.4370   4.0646   4.7546   5.0588   5.0822
     5.1548   5.3916   5.8046   6.2349   6.4516   6.7997   6.8903   6.9174
     6.9207   7.1324   7.2086   8.0079   8.5326   8.7046   8.9823   9.0417
     9.0943   9.2718   9.3539   9.4453   9.4512   9.6617   9.7319   9.7489
     9.7600   9.9305  10.2338  10.2601  11.7809  12.1528  12.2553  13.2609
    14.5953  16.0544  16.5765  16.9895  17.1887  17.4881  17.7286  17.8662

          k =-0.5098-0.5010 0.0000 ( 10976 PWs)   bands (ev):

   -29.9330 -14.5568 -14.5371 -10.7491 -10.6924 -10.1556  -6.5946  -6.5265
    -6.0649  -5.9739  -5.9587  -5.7948  -5.7276  -0.7427  -0.7039  -0.6672
    -0.3640  -0.3132   0.1016   3.2617   3.9261   4.5108   4.9285   5.0367
     5.0912   5.3872   5.7976   6.2462   6.5530   6.7321   6.8181   6.8521
     6.8852   7.0571   7.2552   8.0261   8.5798   8.9911   9.0588   9.1272
     9.1501   9.4214   9.4947   9.5366   9.6142   9.6703   9.6843   9.8511
     9.8983   9.9172  10.3837  10.4560  11.8576  12.4194  12.5076  13.0429
    14.5427  16.0909  16.2465  16.9545  17.0919  17.1439  17.5767  18.0766

     the Fermi energy is    10.5563 ev

!    total energy              =    -696.90088029 Ry
     Harris-Foulkes estimate   =    -696.90088030 Ry
     estimated scf accuracy    <          9.5E-09 Ry

     The total energy is the sum of the following terms:

     one-electron contribution =    -190.95145244 Ry
     hartree contribution      =     182.42553523 Ry
     xc contribution           =    -149.15871218 Ry
     ewald contribution        =    -539.21350357 Ry
     smearing contrib. (-TS)   =      -0.00274734 Ry

     convergence has been achieved in  41 iterations

     Forces acting on atoms (cartesian axes, Ry/au):

     atom    1 type  2   force =     0.00000000    0.00000000   -0.00041829
     atom    2 type  2   force =     0.00000000    0.00000000    0.00041829
     atom    3 type  1   force =     0.00000000    0.00000000    0.00000000
     atom    4 type  4   force =     0.00000000    0.00000000   -0.00001659
     atom    5 type  4   force =     0.00000000    0.00000000    0.00001659
     atom    6 type  4   force =     0.00000000    0.00000000    0.00000000
     atom    7 type  3   force =     0.00000000    0.00000000    0.00000000
     atom    8 type  3   force =     0.00000000    0.00000000   -0.00007543
     atom    9 type  3   force =     0.00000000    0.00000000    0.00007543
     atom   10 type  3   force =     0.00000000    0.00000000   -0.00009487
     atom   11 type  3   force =     0.00000000    0.00000000    0.00009487
     atom   12 type  3   force =     0.00000000    0.00000000    0.00000035
     atom   13 type  3   force =     0.00000000    0.00000000   -0.00000035

     Total force =     0.000616     Total SCF correction =     0.000031


     Computing stress (Cartesian axis) and pressure

          total   stress  (Ry/bohr**3)                   (kbar)     P=        0.11
  -0.00000010   0.00000000   0.00000000           -0.02        0.00        0.00
   0.00000000   0.00000060   0.00000000            0.00        0.09        0.00
   0.00000000   0.00000000   0.00000182            0.00        0.00        0.27


     Writing output data file /n/holyscratch01/hoffman_lab/ruizhe/outdir/YBCO_ecut70.save/
 
     init_run     :      7.99s CPU      8.23s WALL (       2 calls)
     electrons    :   1862.91s CPU   1957.16s WALL (      23 calls)
     update_pot   :     76.97s CPU     77.21s WALL (      21 calls)
     forces       :     55.31s CPU     57.12s WALL (      23 calls)
     stress       :    144.12s CPU    149.43s WALL (      23 calls)

     Called by init_run:
     wfcinit      :      1.98s CPU      2.03s WALL (       2 calls)
     potinit      :      1.99s CPU      2.00s WALL (       2 calls)
     hinit0       :      3.30s CPU      3.32s WALL (       2 calls)

     Called by electrons:
     c_bands      :   1351.36s CPU   1373.58s WALL (     482 calls)
     sum_band     :    367.28s CPU    404.84s WALL (     482 calls)
     v_of_rho     :      3.53s CPU      3.55s WALL (     505 calls)
     newd         :    141.79s CPU    176.55s WALL (     505 calls)
     mix_rho      :      3.35s CPU      3.39s WALL (     482 calls)

     Called by c_bands:
     init_us_2    :     17.44s CPU     18.52s WALL (   25300 calls)
     cegterg      :   1262.65s CPU   1280.50s WALL (   12050 calls)

     Called by sum_band:
     sum_band:bec :      0.70s CPU      0.71s WALL (   12050 calls)
     addusdens    :    170.12s CPU    204.24s WALL (     482 calls)

     Called by *egterg:
     h_psi        :    690.11s CPU    705.12s WALL (   40000 calls)
     s_psi        :     41.76s CPU     42.03s WALL (   40000 calls)
     g_psi        :      3.40s CPU      3.42s WALL (   27900 calls)
     cdiaghg      :    314.17s CPU    315.64s WALL (   39425 calls)

     Called by h_psi:
     h_psi:calbec :     56.81s CPU     57.40s WALL (   40000 calls)
     vloc_psi     :    583.97s CPU    598.08s WALL (   40000 calls)
     add_vuspsi   :     44.93s CPU     45.22s WALL (   40000 calls)

     General routines
     calbec       :     85.71s CPU     86.57s WALL (   54925 calls)
     fft          :     12.11s CPU     12.20s WALL (    3189 calls)
     ffts         :      0.39s CPU      0.39s WALL (     987 calls)
     fftw         :    652.42s CPU    667.90s WALL ( 4310232 calls)
     interpolate  :      1.34s CPU      1.35s WALL (     505 calls)
 
     Parallel routines
     fft_scatt_xy :     89.10s CPU     91.24s WALL ( 4314408 calls)
     fft_scatt_yz :    331.05s CPU    338.90s WALL ( 4314408 calls)
 
     PWSCF        :  35m55.39s CPU  37m39.44s WALL

 
   This run was terminated on:   0:51:55  13Apr2021            

=------------------------------------------------------------------------------=
   JOB DONE.
=------------------------------------------------------------------------------=
